Title
43206
    1CHL1    C3    1   4.172   4.122   5.519 -0.0207 -0.1282  0.2038
    1CHL1    H3    2   4.065   4.099   5.538 -0.1422 -0.0010 -0.3031
    1CHL1    O3    3   4.215   4.182   5.640 -0.2295  0.0443 -0.1962
    1CHL1   H3'    4   4.310   4.174   5.635 -0.3726 -0.9443 -2.3181
    1CHL1    C4    5   4.244   3.987   5.492 -0.1460 -0.3003  0.2627
    1CHL1   H4A    6   4.346   4.020   5.465  0.1740 -0.8724  0.7320
    1CHL1   H4B    7   4.245   3.927   5.586 -0.3298  1.5785  1.5222
    1CHL1    C5    8   4.187   3.919   5.369 -0.2518  0.0003  0.2141
    1CHL1    C6    9   4.143   3.796   5.381  0.2756 -0.9466  0.2447
    1CHL1    H6   10   4.143   3.745   5.478 -0.0288 -0.9242  0.2589
    1CHL1    C7   11   4.078   3.711   5.270  0.3480 -0.6858  0.1300
    1CHL1   H7A   12   4.126   3.611   5.258  1.7505 -0.0807  0.4974
    1CHL1   H7B   13   3.968   3.702   5.269 -0.0049  2.2279 -2.3433
    1CHL1    C8   14   4.110   3.781   5.133 -0.1344  0.2559 -0.1447
    1CHL1    H8   15   4.217   3.767   5.110 -0.2804 -0.1702 -0.5756
    1CHL1   C14   16   4.033   3.711   5.019  0.1538  0.0088  0.2230
    1CHL1   H14   17   3.924   3.716   5.039  0.4243  1.8669  1.4904
    1CHL1   C15   18   4.057   3.561   4.998  0.4199 -0.2590 -0.5178
    1CHL1  H15A   19   4.161   3.522   4.997  0.5304 -0.4376  3.2918
    1CHL1  H15B   20   3.996   3.495   5.063  0.2557 -1.2076 -1.6174
    1CHL1   C16   21   3.996   3.537   4.855 -0.3714 -0.0753  0.5359
    1CHL1  H16A   22   4.078   3.510   4.786 -2.1048  0.6650 -1.9458
    1CHL1  H16B   23   3.911   3.466   4.844 -0.3069  0.2299 -2.5115
    1CHL1   C17   24   3.948   3.679   4.800 -0.0462  0.0139 -0.4368
    1CHL1   H17   25   3.844   3.701   4.831  0.3845  3.3385 -1.0249
    1CHL1   C13   26   4.042   3.778   4.882 -0.0420  0.5648  0.3045
    1CHL1   C18   27   4.180   3.770   4.830 -0.2521 -0.9016  0.4791
    1CHL1  H18A   28   4.201   3.663   4.808 -1.5404 -1.2772  0.9378
    1CHL1  H18B   29   4.190   3.831   4.738  0.0120  0.6663  1.5141
    1CHL1  H18C   30   4.253   3.808   4.905 -0.6595  1.7604 -0.3600
    1CHL1   C12   31   3.988   3.924   4.900 -0.1556  0.9235  0.4344
    1CHL1  H12A   32   4.008   3.970   4.801 -0.9819 -0.6558 -0.5125
    1CHL1  H12B   33   3.877   3.931   4.914 -0.3983 -0.8295 -0.4454
    1CHL1   C11   34   4.077   3.998   5.002  1.0167 -0.6383  0.5030
    1CHL1  H11A   35   4.180   3.988   4.963  1.3985 -0.3701  1.4277
    1CHL1  H11B   36   4.047   4.104   5.011  2.0743 -0.2352 -0.4697
    1CHL1    C9   37   4.080   3.933   5.142  0.0400 -0.1962 -0.5404
    1CHL1    H9   38   3.978   3.943   5.185  1.3289  0.0809  2.7132
    1CHL1   C10   39   4.172   4.007   5.242  0.7607 -0.0835 -0.1821
    1CHL1   C19   40   4.318   4.016   5.181 -0.5673  0.1169  0.3164
    1CHL1  H19A   41   4.333   4.111   5.125  0.2239  0.5821  1.2999
    1CHL1  H19B   42   4.400   4.016   5.255  1.2113  0.9196 -1.5355
    1CHL1  H19C   43   4.337   3.938   5.105 -1.3710 -0.5581  0.7936
    1CHL1    C1   44   4.117   4.144   5.275  0.3414  0.1497  0.5568
    1CHL1   H1A   45   4.122   4.208   5.184  0.6764 -0.2523  0.2874
    1CHL1   H1B   46   4.010   4.127   5.298  0.5497 -0.7655  0.8705
    1CHL1    C2   47   4.182   4.213   5.391  0.3376  0.7399 -0.6207
    1CHL1   H2A   48   4.130   4.308   5.416  1.8529  0.8891  2.5455
    1CHL1   H2B   49   4.289   4.226   5.364  0.3863  0.2535 -0.6813
    1CHL1   C20   50   3.950   3.688   4.645  0.7656  0.0633 -0.0628
    1CHL1   H20   51   4.049   3.667   4.600  0.0415 -0.3815 -1.5411
    1CHL1   C21   52   3.893   3.826   4.600  0.5047  0.0625 -0.6902
    1CHL1  H21A   53   3.801   3.849   4.658  0.5087  1.1117 -1.0785
    1CHL1  H21B   54   3.881   3.841   4.491  0.7575  1.3893 -0.5518
    1CHL1  H21C   55   3.972   3.900   4.624  4.2541 -2.7378 -3.3696
    1CHL1   C22   56   3.872   3.568   4.573  0.2812 -0.0250  1.1869
    1CHL1  H22A   57   3.899   3.463   4.597 -0.0408 -0.5568 -0.6614
    1CHL1  H22B   58   3.769   3.567   4.614 -0.9054  2.0734 -1.4235
    1CHL1   C23   59   3.859   3.596   4.421  0.3620 -0.0118  0.7255
    1CHL1  H23A   60   3.770   3.662   4.409 -0.0000 -0.8702 -2.3771
    1CHL1  H23B   61   3.931   3.672   4.385 -0.6257  1.4324  1.6863
    1CHL1   C24   62   3.846   3.466   4.336 -0.0887 -0.6056  0.1082
    1CHL1  H24A   63   3.930   3.400   4.369  0.2537  0.7461  2.2086
    1CHL1  H24B   64   3.752   3.412   4.360 -0.6773 -0.8875 -2.5950
    1CHL1   C25   65   3.854   3.475   4.187 -0.2401 -0.2440  0.3172
    1CHL1   H25   66   3.935   3.543   4.153 -1.5958  0.6904 -1.2014
    1CHL1   C26   67   3.894   3.339   4.126 -0.0201 -0.4966  0.3635
    1CHL1  H26A   68   3.917   3.336   4.017  0.8382 -0.6421  0.5376
    1CHL1  H26B   69   3.983   3.295   4.176 -1.5435 -2.8506  1.2030
    1CHL1  H26C   70   3.808   3.272   4.145 -2.3271  2.6684  2.0444
    1CHL1   C27   71   3.722   3.515   4.117 -0.0645  0.2001 -0.3537
    1CHL1  H27A   72   3.676   3.603   4.167 -2.1729 -0.1950 -1.4595
    1CHL1  H27B   73   3.743   3.536   4.010 -0.4119  0.3759 -0.3882
    1CHL1  H27C   74   3.654   3.427   4.119 -2.1952  1.7498 -0.8913
    2CHL1    C3   75   3.835   3.652   5.699  0.8102  0.3449  0.4157
    2CHL1    H3   76   3.922   3.663   5.632  1.4898  3.7602  1.6529
    2CHL1    O3   77   3.885   3.675   5.830  0.3077 -0.0695 -0.0473
    2CHL1   H3'   78   3.806   3.662   5.884 -0.0454  1.4666 -0.1531
    2CHL1    C4   79   3.728   3.757   5.655 -0.8492  0.8227  0.4305
    2CHL1   H4A   80   3.638   3.738   5.718  0.8485 -0.6466  2.5999
    2CHL1   H4B   81   3.764   3.860   5.671 -0.2358  0.4288  1.7045
    2CHL1    C5   82   3.695   3.732   5.504 -0.2517  0.1643  0.4076
    2CHL1    C6   83   3.715   3.830   5.409  0.3609  0.0640  0.1497
    2CHL1    H6   84   3.736   3.933   5.441 -0.5888  0.0199  0.9620
    2CHL1    C7   85   3.672   3.814   5.268 -0.6354 -0.1112 -0.4600
    2CHL1   H7A   86   3.619   3.904   5.230 -1.0199  0.1343  0.6359
    2CHL1   H7B   87   3.767   3.807   5.211 -1.0484  2.1291 -1.5524
    2CHL1    C8   88   3.584   3.694   5.238  0.0617 -0.2388  0.2592
    2CHL1    H8   89   3.481   3.700   5.279 -0.0984 -0.4569 -0.1115
    2CHL1   C14   90   3.598   3.684   5.079  0.4549  0.4865 -0.8189
    2CHL1   H14   91   3.702   3.661   5.051  0.6628  1.8970 -1.2608
    2CHL1   C15   92   3.562   3.808   4.996 -0.1735  0.1595 -0.3552
    2CHL1  H15A   93   3.473   3.852   5.045 -0.0052  2.2050 -1.7854
    2CHL1  H15B   94   3.638   3.888   4.984 -1.0943  1.8245  3.4303
    2CHL1   C16   95   3.527   3.751   4.855 -0.1575 -0.5099 -0.2584
    2CHL1  H16A   96   3.437   3.805   4.818  1.1754  2.7679  0.9145
    2CHL1  H16B   97   3.603   3.780   4.780  0.8417  1.5114  1.4580
    2CHL1   C17   98   3.525   3.597   4.875 -0.2375  0.7766 -0.1845
    2CHL1   H17   99   3.625   3.559   4.845  0.4713  0.9119  1.8384
    2CHL1   C13  100   3.507   3.566   5.028 -0.8151 -0.9130  0.2350
    2CHL1   C18  101   3.363   3.583   5.076 -0.1617 -0.4410  0.1578
    2CHL1  H18A  102   3.293   3.515   5.024 -0.6980 -0.9441  1.4880
    2CHL1  H18B  103   3.360   3.570   5.186  0.7089  1.8685  0.5186
    2CHL1  H18C  104   3.324   3.686   5.058 -0.4508 -0.6031 -0.1391
    2CHL1   C12  105   3.563   3.436   5.093 -0.5707  1.4224  0.0549
    2CHL1  H12A  106   3.501   3.347   5.070  2.5201 -1.0327  0.5704
    2CHL1  H12B  107   3.660   3.416   5.042 -1.2793 -1.1860 -0.4490
    2CHL1   C11  108   3.594   3.440   5.245 -0.0765 -1.0281  0.3486
    2CHL1  H11A  109   3.499   3.431   5.302 -0.5139  0.7546 -0.0281
    2CHL1  H11B  110   3.659   3.354   5.273 -2.0113 -2.1773  1.6197
    2CHL1    C9  111   3.647   3.576   5.304  0.2554  0.3515 -0.0029
    2CHL1    H9  112   3.757   3.576   5.288  0.4715  1.8624  1.2579
    2CHL1   C10  113   3.647   3.594   5.463 -0.0136 -0.1169 -0.4511
    2CHL1   C19  114   3.506   3.568   5.521  0.3723 -0.2378  0.6016
    2CHL1  H19A  115   3.493   3.580   5.630 -1.5185  2.4372  0.2024
    2CHL1  H19B  116   3.442   3.653   5.487 -0.5498  0.3380  3.5062
    2CHL1  H19C  117   3.463   3.471   5.489 -0.0324  0.5910 -1.5613
    2CHL1    C1  118   3.744   3.494   5.529 -0.1193 -0.7994 -0.2750
    2CHL1   H1A  119   3.712   3.388   5.520 -2.0973 -0.2907  0.3141
    2CHL1   H1B  120   3.841   3.508   5.477 -0.2724 -1.4080 -0.7341
    2CHL1    C2  121   3.772   3.513   5.680 -0.5257 -0.4830 -0.1260
    2CHL1   H2A  122   3.837   3.430   5.715  0.0832 -0.3567 -0.9211
    2CHL1   H2B  123   3.681   3.500   5.742 -0.0292  0.4040  0.8081
    2CHL1   C20  124   3.418   3.529   4.789 -0.6904 -0.7183  0.3471
    2CHL1   H20  125   3.331   3.596   4.801 -0.6752 -0.3882 -1.1917
    2CHL1   C21  126   3.386   3.387   4.824  0.2148  0.5127  0.2091
    2CHL1  H21A  127   3.356   3.364   4.929  1.8240 -0.3980  0.5098
    2CHL1  H21B  128   3.475   3.323   4.808  0.5795  1.1973 -0.6107
    2CHL1  H21C  129   3.303   3.355   4.758  0.6543  0.6447 -0.4190
    2CHL1   C22  130   3.467   3.538   4.644 -0.0504 -0.4317  1.0105
    2CHL1  H22A  131   3.531   3.629   4.641 -0.6726  0.0403  1.6865
    2CHL1  H22B  132   3.541   3.455   4.635  0.6778  0.2678  0.3979
    2CHL1   C23  133   3.356   3.537   4.544 -0.6289 -0.6514  0.0177
    2CHL1  H23A  134   3.292   3.446   4.541 -0.6539 -0.6334 -2.4412
    2CHL1  H23B  135   3.289   3.620   4.577 -0.1883  0.2771 -1.3265
    2CHL1   C24  136   3.406   3.576   4.402 -0.5273  0.2388  0.2697
    2CHL1  H24A  137   3.484   3.655   4.415  0.4042 -0.8393  1.5366
    2CHL1  H24B  138   3.461   3.492   4.355 -1.0255 -0.4174  0.8407
    2CHL1   C25  139   3.286   3.611   4.307  0.0287 -1.1718 -0.1667
    2CHL1   H25  140   3.223   3.690   4.353  2.5921  0.4295  0.7781
    2CHL1   C26  141   3.337   3.655   4.167  0.5692 -0.5274 -0.1635
    2CHL1  H26A  142   3.401   3.576   4.123 -0.7278 -0.6598 -1.9469
    2CHL1  H26B  143   3.251   3.674   4.099  0.6106  1.9394  0.3757
    2CHL1  H26C  144   3.401   3.746   4.173  1.6746 -1.1406 -1.9289
    2CHL1   C27  145   3.206   3.481   4.289 -0.2476 -0.5000  0.1359
    2CHL1  H27A  146   3.266   3.402   4.238 -2.6295 -2.4956  0.2137
    2CHL1  H27B  147   3.169   3.435   4.383 -1.7083  0.6684  0.1672
    2CHL1  H27C  148   3.115   3.495   4.227  0.2231 -2.4246 -1.0798
    3CHL1    C3  149   3.399   4.135   5.645 -0.9358  0.0919  0.0444
    3CHL1    H3  150   3.485   4.180   5.592 -0.8299 -0.4673 -0.2654
    3CHL1    O3  151   3.418   4.125   5.789 -0.2556 -0.4150  0.0932
    3CHL1   H3'  152   3.331   4.097   5.821 -0.6593  1.7458  1.1107
    3CHL1    C4  153   3.277   4.227   5.612 -0.0738  0.3763 -0.0587
    3CHL1   H4A  154   3.188   4.185   5.663  0.8658  0.2004  1.5220
    3CHL1   H4B  155   3.303   4.326   5.654  0.3288  0.7119 -1.0889
    3CHL1    C5  156   3.254   4.239   5.465 -0.1073  0.1776  0.1618
    3CHL1    C6  157   3.257   4.352   5.392 -0.3927 -0.9567  0.0897
    3CHL1    H6  158   3.278   4.442   5.452  0.9930 -1.9106  1.0939
    3CHL1    C7  159   3.238   4.363   5.247 -0.5926 -0.6624 -0.8214
    3CHL1   H7A  160   3.165   4.445   5.226 -0.4690 -0.2377  0.3181
    3CHL1   H7B  161   3.333   4.402   5.206 -0.3439 -0.2656  0.1021
    3CHL1    C8  162   3.188   4.234   5.175 -0.7618  0.6759 -0.5098
    3CHL1    H8  163   3.078   4.224   5.188 -0.5980  0.2604  0.6851
    3CHL1   C14  164   3.217   4.243   5.024  0.3129  1.1622 -0.5061
    3CHL1   H14  165   3.327   4.240   5.011  0.0504  0.9950 -3.1480
    3CHL1   C15  166   3.166   4.360   4.938 -0.3383  1.1658  0.0250
    3CHL1  H15A  167   3.068   4.391   4.980  0.1651  2.5363  0.2343
    3CHL1  H15B  168   3.238   4.443   4.952  1.4625 -0.6288  2.1897
    3CHL1   C16  169   3.152   4.313   4.793 -0.9809  0.7541 -0.4797
    3CHL1  H16A  170   3.046   4.321   4.761 -1.4800  1.4735  1.2470
    3CHL1  H16B  171   3.212   4.371   4.719 -0.7795  1.5621  0.2985
    3CHL1   C17  172   3.192   4.161   4.801  0.6098  0.5635  0.2264
    3CHL1   H17  173   3.300   4.152   4.779  0.4342 -2.2179  0.1570
    3CHL1   C13  174   3.174   4.116   4.945 -0.0993 -0.3137  0.4400
    3CHL1   C18  175   3.023   4.102   4.958 -0.2956  0.0861 -0.5649
    3CHL1  H18A  176   2.963   4.191   4.929 -1.7900 -0.3661  0.9725
    3CHL1  H18B  177   2.982   4.015   4.902 -2.0290 -0.2986  1.2029
    3CHL1  H18C  178   2.996   4.089   5.065  1.6131  0.1399 -0.0300
    3CHL1   C12  179   3.252   3.987   4.991  0.6652 -0.5600  0.0225
    3CHL1  H12A  180   3.219   3.894   4.941 -0.2102  0.4076 -1.2808
    3CHL1  H12B  181   3.358   3.995   4.958  1.1200 -1.6305  1.1720
    3CHL1   C11  182   3.236   3.975   5.147  0.1233  0.6697 -0.6662
    3CHL1  H11A  183   3.137   3.932   5.174  1.0871 -0.7481  0.8286
    3CHL1  H11B  184   3.310   3.899   5.178  0.9340  1.7128 -0.0021
    3CHL1    C9  185   3.260   4.112   5.225  0.1847 -0.2969 -0.2065
    3CHL1    H9  186   3.365   4.133   5.195 -0.6314 -0.2432 -3.4404
    3CHL1   C10  187   3.245   4.102   5.384  0.3188  0.5394 -0.0239
    3CHL1   C19  188   3.104   4.044   5.410 -0.1794 -0.3550 -0.7472
    3CHL1  H19A  189   3.103   3.934   5.391  0.1504 -0.3743 -0.6549
    3CHL1  H19B  190   3.082   4.042   5.519 -0.8846  1.6468 -0.8103
    3CHL1  H19C  191   3.022   4.105   5.368  0.7657  1.2520 -0.3257
    3CHL1    C1  192   3.351   3.994   5.439  0.2159 -0.7751 -0.8365
    3CHL1   H1A  193   3.331   3.890   5.406  1.5950 -0.6469 -2.1867
    3CHL1   H1B  194   3.448   4.018   5.390 -0.2989 -0.1055 -1.5492
    3CHL1    C2  195   3.371   3.992   5.592 -0.9264  0.7283  0.0662
    3CHL1   H2A  196   3.451   3.919   5.615 -2.4956 -1.7845 -1.9056
    3CHL1   H2B  197   3.274   3.953   5.630 -0.6867  0.0792  0.0091
    3CHL1   C20  198   3.125   4.079   4.686  0.1864 -0.6124  0.0112
    3CHL1   H20  199   3.014   4.073   4.693  0.3180 -1.4998  2.7266
    3CHL1   C21  200   3.163   3.934   4.693 -0.4202  1.1219  0.2883
    3CHL1  H21A  201   3.095   3.879   4.761 -0.7036 -1.3833 -1.8717
    3CHL1  H21B  202   3.269   3.915   4.718 -0.9581 -4.5916 -0.4675
    3CHL1  H21C  203   3.163   3.880   4.596  1.8893 -1.6948  1.7017
    3CHL1   C22  204   3.159   4.136   4.544  0.3000 -0.5403  0.3250
    3CHL1  H22A  205   3.150   4.246   4.555 -1.7820 -0.6324 -0.1147
    3CHL1  H22B  206   3.266   4.120   4.518  0.3552  0.0239  0.1892
    3CHL1   C23  207   3.063   4.091   4.427  0.0657  0.2484 -0.3628
    3CHL1  H23A  208   3.109   4.128   4.333 -0.7712 -0.9001 -1.2557
    3CHL1  H23B  209   3.071   3.981   4.434  0.5239  0.3956  2.2130
    3CHL1   C24  210   2.921   4.148   4.436  0.2970  0.5834 -0.8235
    3CHL1  H24A  211   2.871   4.141   4.535  0.3344  0.8020 -0.7892
    3CHL1  H24B  212   2.906   4.255   4.409 -0.5159  0.4911 -0.7536
    3CHL1   C25  213   2.826   4.078   4.341  0.1925 -0.2067  0.6792
    3CHL1   H25  214   2.816   3.971   4.368 -0.6982 -0.7254 -1.5026
    3CHL1   C26  215   2.681   4.138   4.353 -0.3070  0.0046 -0.2954
    3CHL1  H26A  216   2.650   4.125   4.459 -0.5700  2.6448  0.0175
    3CHL1  H26B  217   2.687   4.247   4.329  0.2796  0.7396  2.7938
    3CHL1  H26C  218   2.614   4.087   4.281 -1.4511 -0.3291  0.9839
    3CHL1   C27  219   2.872   4.077   4.197  0.2465 -0.0371  0.5834
    3CHL1  H27A  220   2.962   4.013   4.185  0.8573  1.1076 -1.5570
    3CHL1  H27B  221   2.784   4.041   4.139 -0.4185 -0.2857  1.7172
    3CHL1  H27C  222   2.892   4.177   4.154 -0.9742  0.0452  0.1872
    4CHL1    C3  223   3.888   4.409   5.631  0.8115  0.5148  0.5095
    4CHL1    H3  224   3.968   4.333   5.622 -1.9787 -2.5836 -0.0261
    4CHL1    O3  225   3.894   4.445   5.771 -0.1507  0.4352  0.2245
    4CHL1   H3'  226   3.939   4.372   5.815 -0.2935  1.3641  1.9967
    4CHL1    C4  227   3.896   4.525   5.536  0.3985 -0.0038 -0.5500
    4CHL1   H4A  228   3.817   4.600   5.558  0.4734  1.1184 -3.5117
    4CHL1   H4B  229   3.990   4.582   5.552 -1.3470  3.5026 -1.5431
    4CHL1    C5  230   3.889   4.487   5.390  0.3288  0.1733 -0.9023
    4CHL1    C6  231   3.983   4.525   5.303  0.5754  0.0234 -0.8427
    4CHL1    H6  232   4.079   4.572   5.330 -0.1730  0.5790  1.0104
    4CHL1    C7  233   3.968   4.497   5.158  0.0142  0.4449  0.2280
    4CHL1   H7A  234   3.981   4.586   5.093 -1.3844 -0.2665 -1.0777
    4CHL1   H7B  235   4.054   4.437   5.121 -0.1386 -1.0447  2.1281
    4CHL1    C8  236   3.838   4.435   5.117 -0.0102  0.4481  0.0130
    4CHL1    H8  237   3.763   4.516   5.102 -2.6567 -1.9262 -0.4135
    4CHL1   C14  238   3.850   4.355   4.988  0.3888 -0.5599 -0.2675
    4CHL1   H14  239   3.913   4.268   5.017  1.1869  0.3090  0.6718
    4CHL1   C15  240   3.916   4.438   4.871  0.0055 -0.4547  0.3207
    4CHL1  H15A  241   3.874   4.541   4.865 -0.4299 -0.7187 -1.4567
    4CHL1  H15B  242   4.026   4.437   4.885  0.1024 -1.1555 -0.4625
    4CHL1   C16  243   3.880   4.359   4.752  0.0784  0.1747  0.4499
    4CHL1  H16A  244   3.824   4.417   4.676 -0.6969 -0.4040  0.5633
    4CHL1  H16B  245   3.972   4.310   4.713 -1.1961 -1.4799 -0.6396
    4CHL1   C17  246   3.777   4.249   4.803  0.0340  0.3847 -0.4267
    4CHL1   H17  247   3.835   4.158   4.826 -0.7556 -0.2343 -0.8523
    4CHL1   C13  248   3.717   4.308   4.939 -0.2777  0.2425  0.4813
    4CHL1   C18  249   3.618   4.420   4.911 -0.6551  0.8421  0.0157
    4CHL1  H18A  250   3.572   4.474   4.997 -0.0644 -1.5440  1.9414
    4CHL1  H18B  251   3.672   4.487   4.841  1.4371 -0.6398  0.1141
    4CHL1  H18C  252   3.525   4.383   4.862 -1.8410  1.8848  1.3724
    4CHL1   C12  253   3.659   4.200   5.035 -0.2231 -0.2649 -0.0957
    4CHL1  H12A  254   3.559   4.170   4.997 -0.1733  1.8193 -2.0986
    4CHL1  H12B  255   3.726   4.113   5.020  2.3641  1.9562 -2.4023
    4CHL1   C11  256   3.653   4.251   5.181 -0.0992 -0.0575  0.3069
    4CHL1  H11A  257   3.559   4.309   5.185 -0.3986 -0.5089 -0.0707
    4CHL1  H11B  258   3.633   4.161   5.243 -2.0404 -0.0579 -0.2511
    4CHL1    C9  259   3.777   4.334   5.221  0.0165  0.1643  0.7320
    4CHL1    H9  260   3.862   4.263   5.223  0.6674  0.9067  0.1781
    4CHL1   C10  261   3.766   4.399   5.359 -1.0658  0.0518  0.5765
    4CHL1   C19  262   3.646   4.492   5.353  1.1684 -1.0109  0.1077
    4CHL1  H19A  263   3.640   4.554   5.260 -1.5119  1.3076  1.6641
    4CHL1  H19B  264   3.553   4.433   5.365  1.1204 -1.0070 -0.2294
    4CHL1  H19C  265   3.643   4.557   5.443  1.8701 -0.8223  0.0011
    4CHL1    C1  266   3.742   4.285   5.460 -0.5082  0.5199 -0.1306
    4CHL1   H1A  267   3.656   4.215   5.450  0.6684 -0.8882 -0.7751
    4CHL1   H1B  268   3.827   4.214   5.452 -1.6118 -0.8230 -0.4935
    4CHL1    C2  269   3.758   4.337   5.603 -0.2126  0.1247 -0.5735
    4CHL1   H2A  270   3.746   4.251   5.672 -0.5052 -0.9416 -1.9133
    4CHL1   H2B  271   3.673   4.407   5.620 -0.8872 -0.8359  0.0840
    4CHL1   C20  272   3.690   4.200   4.693  0.2743  0.0658 -0.6944
    4CHL1   H20  273   3.616   4.273   4.652  0.4310 -0.6502 -2.3461
    4CHL1   C21  274   3.611   4.076   4.736  0.2987  0.6187 -0.0562
    4CHL1  H21A  275   3.673   3.995   4.780 -2.6400 -1.8441 -0.0639
    4CHL1  H21B  276   3.546   4.030   4.659  0.2233  0.9393 -0.1853
    4CHL1  H21C  277   3.543   4.101   4.821 -1.8288 -0.7851 -1.2439
    4CHL1   C22  278   3.776   4.169   4.569 -0.4437 -0.1657  0.2271
    4CHL1  H22A  279   3.814   4.263   4.523 -1.9037 -0.2436 -1.2244
    4CHL1  H22B  280   3.861   4.104   4.599 -0.5763 -0.1831  0.5750
    4CHL1   C23  281   3.693   4.115   4.447  0.8277  0.2396  0.0646
    4CHL1  H23A  282   3.671   4.007   4.446  2.1899 -0.0574  0.1239
    4CHL1  H23B  283   3.594   4.162   4.430  1.3867  2.4112  2.1408
    4CHL1   C24  284   3.770   4.139   4.318 -0.1262 -0.2137 -1.1444
    4CHL1  H24A  285   3.812   4.241   4.332 -2.5869  0.4872  2.6897
    4CHL1  H24B  286   3.863   4.077   4.316  1.1424  1.5713 -0.5004
    4CHL1   C25  287   3.701   4.122   4.180  0.0915 -0.5022 -0.4545
    4CHL1   H25  288   3.595   4.153   4.191  0.6973  1.3882  0.6628
    4CHL1   C26  289   3.769   4.208   4.075 -0.4689 -0.0023 -0.5239
    4CHL1  H26A  290   3.748   4.315   4.095  1.2175  0.2195  0.2540
    4CHL1  H26B  291   3.879   4.197   4.083 -0.5860 -0.4133  0.6885
    4CHL1  H26C  292   3.724   4.185   3.976 -0.5538 -1.6977 -0.1239
    4CHL1   C27  293   3.695   3.974   4.136  0.3037 -0.5447 -0.1848
    4CHL1  H27A  294   3.791   3.919   4.141  1.3100  1.0794 -1.0021
    4CHL1  H27B  295   3.617   3.911   4.185  0.3878 -2.0117 -1.8187
    4CHL1  H27C  296   3.660   3.959   4.031 -0.7469 -0.1233  0.0897
    5CHL1    C3  297   4.462   4.460   5.501 -0.6512 -0.2753 -0.0520
    5CHL1    H3  298   4.363   4.410   5.502 -1.5992  1.2820  3.8588
    5CHL1    O3  299   4.523   4.419   5.621 -0.0599 -0.0799 -0.1178
    5CHL1   H3'  300   4.502   4.325   5.629  1.3677 -0.4519 -0.5117
    5CHL1    C4  301   4.537   4.426   5.362 -0.7805 -0.5023  0.5123
    5CHL1   H4A  302   4.644   4.455   5.365 -1.5605  2.7303  2.1224
    5CHL1   H4B  303   4.537   4.316   5.352  3.1449 -0.5939 -0.1258
    5CHL1    C5  304   4.474   4.492   5.243 -0.5284 -0.0077  0.3987
    5CHL1    C6  305   4.431   4.425   5.138 -0.4263  0.0583 -0.2510
    5CHL1    H6  306   4.446   4.317   5.124  0.3504  0.0682  0.4068
    5CHL1    C7  307   4.368   4.488   5.015  0.0005  1.1164 -0.5443
    5CHL1   H7A  308   4.406   4.433   4.926 -0.0555 -0.9356  0.6338
    5CHL1   H7B  309   4.259   4.478   5.031  0.4480  0.9203  3.1597
    5CHL1    C8  310   4.411   4.635   5.002 -0.0232  0.2116 -0.3274
    5CHL1    H8  311   4.521   4.629   4.991 -0.1169  0.3978 -1.4419
    5CHL1   C14  312   4.339   4.702   4.886 -0.2802 -0.6896 -0.2889
    5CHL1   H14  313   4.235   4.696   4.924 -0.5322 -0.3585 -0.9205
    5CHL1   C15  314   4.333   4.633   4.746 -0.1613 -0.0327 -0.0180
    5CHL1  H15A  315   4.432   4.587   4.723 -0.4414 -1.3797  1.3303
    5CHL1  H15B  316   4.268   4.543   4.739 -0.5970  0.3292 -0.7165
    5CHL1   C16  317   4.289   4.744   4.654 -0.4630 -0.2544 -0.2215
    5CHL1  H16A  318   4.372   4.760   4.581 -0.5831 -1.5599 -0.6767
    5CHL1  H16B  319   4.198   4.718   4.595 -0.9653  1.0729 -0.0588
    5CHL1   C17  320   4.273   4.875   4.747 -0.2485  0.2162 -0.4930
    5CHL1   H17  321   4.168   4.871   4.784  0.1424  1.8333  0.8823
    5CHL1   C13  322   4.363   4.853   4.864  0.4613 -0.2853 -0.1813
    5CHL1   C18  323   4.510   4.878   4.825 -0.5055 -0.4498 -0.4164
    5CHL1  H18A  324   4.567   4.894   4.919 -2.9757 -1.2469  1.3206
    5CHL1  H18B  325   4.566   4.800   4.769 -0.3766  0.5456 -1.7376
    5CHL1  H18C  326   4.524   4.979   4.780  1.1000 -0.3757  0.2109
    5CHL1   C12  327   4.327   4.922   4.995  0.5422 -0.1619 -0.7291
    5CHL1  H12A  328   4.339   5.032   4.994  1.7835 -0.2810 -1.9380
    5CHL1  H12B  329   4.218   4.903   5.004  0.2557  0.9818 -1.5875
    5CHL1   C11  330   4.403   4.865   5.115  0.1746  0.1852 -0.2123
    5CHL1  H11A  331   4.510   4.893   5.105  0.9757 -2.5856 -0.2042
    5CHL1  H11B  332   4.371   4.914   5.209 -0.6782  1.8968 -1.3458
    5CHL1    C9  333   4.384   4.708   5.133 -0.0413 -0.2565 -0.0046
    5CHL1    H9  334   4.276   4.690   5.151  0.4618 -3.0962  0.6529
    5CHL1   C10  335   4.461   4.641   5.249  0.3711 -0.0952 -1.3078
    5CHL1   C19  336   4.601   4.711   5.262 -0.2648  0.1350 -0.3949
    5CHL1  H19A  337   4.660   4.676   5.349  1.0373  0.1292 -1.2448
    5CHL1  H19B  338   4.654   4.703   5.164  0.2293 -1.8226 -0.0118
    5CHL1  H19C  339   4.570   4.810   5.300 -3.3645 -1.5947  2.0408
    5CHL1    C1  340   4.373   4.668   5.380 -0.5011  0.3780  0.3318
    5CHL1   H1A  341   4.370   4.776   5.401  0.9593 -0.0575  3.2409
    5CHL1   H1B  342   4.268   4.631   5.373 -0.4804 -0.2597  2.6131
    5CHL1    C2  343   4.437   4.611   5.511  0.5720  0.6782  0.1241
    5CHL1   H2A  344   4.381   4.654   5.598  0.3980 -1.4391  1.1133
    5CHL1   H2B  345   4.537   4.658   5.522  0.3869  1.3149 -0.8669
    5CHL1   C20  346   4.272   5.005   4.665 -0.3340 -0.1164 -0.3199
    5CHL1   H20  347   4.365   5.020   4.605  0.4065  2.7943  1.3281
    5CHL1   C21  348   4.267   5.132   4.757 -0.0723  0.3971 -0.1859
    5CHL1  H21A  349   4.361   5.124   4.816  0.3844  1.5392 -0.7389
    5CHL1  H21B  350   4.175   5.145   4.819 -0.1179  3.6266 -0.7516
    5CHL1  H21C  351   4.279   5.226   4.698 -0.3968  1.3946  1.2778
    5CHL1   C22  352   4.164   5.005   4.551  0.0331 -0.9196  0.2272
    5CHL1  H22A  353   4.193   4.950   4.460  0.1145  0.7871 -0.8247
    5CHL1  H22B  354   4.070   4.958   4.587 -1.1168  0.0043 -1.4264
    5CHL1   C23  355   4.121   5.145   4.503 -0.8665  0.4786 -0.1515
    5CHL1  H23A  356   4.066   5.199   4.583 -0.1534  0.3363  0.4501
    5CHL1  H23B  357   4.218   5.195   4.480 -1.5442  1.5153 -0.8472
    5CHL1   C24  358   4.043   5.132   4.378 -0.3172 -0.3036 -0.2712
    5CHL1  H24A  359   4.091   5.091   4.287  0.9554  2.4317 -0.9466
    5CHL1  H24B  360   3.964   5.060   4.407  0.3622 -0.9955 -0.1271
    5CHL1   C25  361   3.993   5.273   4.331  0.1821  0.5908 -0.4100
    5CHL1   H25  362   3.953   5.336   4.413  2.4447 -0.1065  1.3552
    5CHL1   C26  363   4.099   5.371   4.267 -0.5869  0.8858 -0.2959
    5CHL1  H26A  364   4.166   5.417   4.343  0.3712  0.2092 -0.7031
    5CHL1  H26B  365   4.173   5.309   4.212  1.6158  2.8304  0.3041
    5CHL1  H26C  366   4.054   5.454   4.209 -0.7116  0.9195 -0.1501
    5CHL1   C27  367   3.885   5.257   4.225 -0.0111  0.4614  0.5107
    5CHL1  H27A  368   3.822   5.169   4.249 -2.8914  1.4568 -2.6411
    5CHL1  H27B  369   3.817   5.344   4.212 -1.1609 -0.6717 -1.6988
    5CHL1  H27C  370   3.929   5.230   4.127  2.5675  0.2902  1.6467
    6CHL1    C3  371   3.294   2.540   5.559 -0.3215 -0.5103 -0.9903
    6CHL1    H3  372   3.220   2.460   5.536 -0.4623 -0.2758 -1.3823
    6CHL1    O3  373   3.318   2.523   5.700 -0.4172 -0.0717  0.3930
    6CHL1   H3'  374   3.375   2.594   5.729 -3.1653  2.5501 -0.0986
    6CHL1    C4  375   3.425   2.530   5.482  0.4592  0.2897 -0.0875
    6CHL1   H4A  376   3.498   2.611   5.507 -2.0090  2.9527 -0.9689
    6CHL1   H4B  377   3.471   2.432   5.506 -1.4125 -0.2396  1.5201
    6CHL1    C5  378   3.391   2.531   5.336  0.0905  0.8431  0.0926
    6CHL1    C6  379   3.416   2.429   5.255 -0.6005 -0.1421  0.1793
    6CHL1    H6  380   3.458   2.337   5.297  1.0862  0.9775  1.0525
    6CHL1    C7  381   3.397   2.434   5.105 -0.3261 -1.1624  0.1233
    6CHL1   H7A  382   3.493   2.400   5.060 -0.3089 -0.9151 -0.0324
    6CHL1   H7B  383   3.311   2.367   5.083 -1.4986  0.6842 -1.1829
    6CHL1    C8  384   3.363   2.576   5.047 -0.1203  0.3785  0.2168
    6CHL1    H8  385   3.462   2.626   5.041 -0.5492  1.1479 -0.9353
    6CHL1   C14  386   3.295   2.567   4.905  0.1955 -0.0584  0.4234
    6CHL1   H14  387   3.197   2.519   4.926 -1.4315  2.6503 -0.4474
    6CHL1   C15  388   3.357   2.487   4.794  0.2909 -0.1610  0.1972
    6CHL1  H15A  389   3.467   2.503   4.793  0.5250 -1.5980  0.5994
    6CHL1  H15B  390   3.346   2.377   4.803 -1.4371  0.0739  1.5782
    6CHL1   C16  391   3.291   2.539   4.659 -0.4022  0.1189  0.1104
    6CHL1  H16A  392   3.373   2.566   4.589 -0.9009  1.4198 -0.0004
    6CHL1  H16B  393   3.230   2.456   4.617  0.4672 -1.7812  2.4217
    6CHL1   C17  394   3.208   2.659   4.702  0.1358 -0.1053 -0.3223
    6CHL1   H17  395   3.110   2.617   4.736 -0.0639 -0.4405 -1.2895
    6CHL1   C13  396   3.254   2.700   4.843 -0.2877  0.1672 -0.9439
    6CHL1   C18  397   3.380   2.794   4.827 -0.1860 -0.1348 -0.3318
    6CHL1  H18A  398   3.451   2.748   4.756 -1.1478  0.9136 -2.0392
    6CHL1  H18B  399   3.348   2.894   4.790 -1.3904 -0.1026  0.7272
    6CHL1  H18C  400   3.425   2.808   4.927 -0.4253  0.6373 -0.3228
    6CHL1   C12  401   3.159   2.763   4.943 -0.1240 -0.0853 -0.5467
    6CHL1  H12A  402   3.135   2.867   4.914  0.8653  1.1315  2.5948
    6CHL1  H12B  403   3.065   2.704   4.949 -0.8556  1.1354  4.1795
    6CHL1   C11  404   3.202   2.781   5.086 -0.5756  0.3985  0.2112
    6CHL1  H11A  405   3.285   2.854   5.082  0.8570 -1.1651 -0.0151
    6CHL1  H11B  406   3.111   2.812   5.141 -0.8858  0.9388 -0.5948
    6CHL1    C9  407   3.266   2.647   5.147  0.3251  0.7018  0.9061
    6CHL1    H9  408   3.177   2.580   5.152 -0.6849  2.0690  1.8936
    6CHL1   C10  409   3.327   2.663   5.290  0.4672 -0.9344  0.4694
    6CHL1   C19  410   3.449   2.765   5.284 -0.3593 -0.0065  0.1089
    6CHL1  H19A  411   3.493   2.792   5.382 -2.3866  0.1543  1.0241
    6CHL1  H19B  412   3.528   2.724   5.217  0.2273 -2.2180  2.0228
    6CHL1  H19C  413   3.429   2.867   5.245  1.0689  0.2482 -0.0071
    6CHL1    C1  414   3.224   2.709   5.391  0.6901  0.0091  0.4011
    6CHL1   H1A  415   3.190   2.811   5.364 -2.3342 -1.3490 -1.3637
    6CHL1   H1B  416   3.133   2.652   5.363  1.5073  0.3807 -3.4871
    6CHL1    C2  417   3.250   2.680   5.540 -0.2257 -0.2121  0.1367
    6CHL1   H2A  418   3.150   2.690   5.586 -0.7890 -0.5096 -0.9973
    6CHL1   H2B  419   3.321   2.748   5.591  2.1456 -1.9679 -0.5833
    6CHL1   C20  420   3.177   2.768   4.594  0.4084  0.2230 -0.1480
    6CHL1   H20  421   3.145   2.860   4.648  2.3535  1.3633 -0.8575
    6CHL1   C21  422   3.054   2.714   4.527  0.5077 -0.3630 -0.4229
    6CHL1  H21A  423   3.063   2.619   4.470  0.4430  0.0825 -1.2021
    6CHL1  H21B  424   3.013   2.789   4.456  0.8361  0.9689  0.7600
    6CHL1  H21C  425   2.973   2.699   4.601  1.3030  0.7190  0.7142
    6CHL1   C22  426   3.300   2.812   4.508  0.4919 -0.1413 -0.1738
    6CHL1  H22A  427   3.374   2.854   4.579 -0.6269  0.0055  0.9464
    6CHL1  H22B  428   3.339   2.726   4.450  0.3120 -0.7056  0.5247
    6CHL1   C23  429   3.262   2.927   4.420  0.1429 -0.0002  0.1703
    6CHL1  H23A  430   3.205   2.895   4.330  0.1508  0.1002  0.1291
    6CHL1  H23B  431   3.205   3.003   4.478 -1.2714 -2.5011  2.2945
    6CHL1   C24  432   3.393   3.002   4.383 -0.2386 -0.4072 -0.0738
    6CHL1  H24A  433   3.451   3.027   4.475  1.8938 -0.8496 -1.2288
    6CHL1  H24B  434   3.447   2.929   4.320  0.2458  0.8495 -1.1596
    6CHL1   C25  435   3.377   3.131   4.302 -0.3513 -0.2706  0.2717
    6CHL1   H25  436   3.291   3.191   4.339 -0.6967 -2.4689  3.4068
    6CHL1   C26  437   3.500   3.218   4.300  0.1456 -0.6776  0.5073
    6CHL1  H26A  438   3.498   3.315   4.245  1.7639 -0.5544  0.6231
    6CHL1  H26B  439   3.515   3.256   4.404  2.2500 -1.3090  0.4709
    6CHL1  H26C  440   3.591   3.161   4.272  1.1757  1.0908  0.0459
    6CHL1   C27  441   3.342   3.102   4.154  0.0067  0.4061  0.6973
    6CHL1  H27A  442   3.251   3.040   4.142 -0.4815  0.6863  2.6117
    6CHL1  H27B  443   3.332   3.197   4.097 -1.7779 -0.9362 -1.3782
    6CHL1  H27C  444   3.435   3.061   4.109 -2.0205 -0.4996 -2.9994
    7CHL1    C3  445   4.556   2.769   5.487  0.3122 -0.6359  0.4023
    7CHL1    H3  446   4.580   2.873   5.457  0.8184 -1.0431 -0.6312
    7CHL1    O3  447   4.587   2.743   5.623  0.1122  0.4534 -0.6705
    7CHL1   H3'  448   4.524   2.800   5.669  0.8506  0.2643  0.6449
    7CHL1    C4  449   4.408   2.749   5.463  0.8357  0.6357 -0.3225
    7CHL1   H4A  450   4.384   2.651   5.507  0.7925 -0.1608 -2.0408
    7CHL1   H4B  451   4.351   2.827   5.519  0.8131  0.2221  0.2369
    7CHL1    C5  452   4.369   2.761   5.319 -0.1158  0.5413  0.1744
    7CHL1    C6  453   4.274   2.839   5.268  0.2835  0.1462 -0.4954
    7CHL1    H6  454   4.213   2.892   5.343  0.8576 -1.1452  0.9348
    7CHL1    C7  455   4.237   2.862   5.122 -0.0800 -0.0183 -0.0232
    7CHL1   H7A  456   4.130   2.884   5.098  0.6447  2.3490 -1.3687
    7CHL1   H7B  457   4.289   2.954   5.089 -2.2140  1.3231  0.1488
    7CHL1    C8  458   4.292   2.742   5.036  0.4762 -0.8412 -0.2351
    7CHL1    H8  459   4.240   2.650   5.069 -0.3234  0.2712  1.8306
    7CHL1   C14  460   4.267   2.775   4.891 -0.3278  0.4095  0.1385
    7CHL1   H14  461   4.324   2.866   4.864 -0.2841  0.5375  0.6556
    7CHL1   C15  462   4.124   2.812   4.838  0.2424  0.4502 -0.1304
    7CHL1  H15A  463   4.060   2.731   4.878  2.2227 -1.4014 -0.5144
    7CHL1  H15B  464   4.088   2.913   4.869  0.0587  0.8931 -1.7014
    7CHL1   C16  465   4.149   2.802   4.687 -0.1035  0.4785 -0.6126
    7CHL1  H16A  466   4.061   2.740   4.660  1.7837 -2.8632  0.3416
    7CHL1  H16B  467   4.154   2.901   4.636 -0.4683  0.9727  0.2774
    7CHL1   C17  468   4.276   2.710   4.664  0.2648 -0.5093 -0.3541
    7CHL1   H17  469   4.359   2.778   4.634  0.1478  1.9123  3.9809
    7CHL1   C13  470   4.316   2.661   4.799 -0.5349  0.4515  0.5613
    7CHL1   C18  471   4.249   2.521   4.836 -0.4639 -0.3436 -0.0010
    7CHL1  H18A  472   4.145   2.507   4.799  0.4525 -0.1163 -2.9247
    7CHL1  H18B  473   4.308   2.442   4.786  1.3881  1.4867 -0.8351
    7CHL1  H18C  474   4.254   2.500   4.945 -2.9749 -2.6514 -0.2081
    7CHL1   C12  475   4.466   2.653   4.820 -0.0169  0.7458 -0.4757
    7CHL1  H12A  476   4.514   2.567   4.768 -0.0086 -0.8835  2.0557
    7CHL1  H12B  477   4.504   2.748   4.776 -0.2131  0.3856 -1.4421
    7CHL1   C11  478   4.515   2.629   4.966 -0.3044 -0.3951  0.0952
    7CHL1  H11A  479   4.489   2.523   4.988  0.2675 -0.5752 -0.0762
    7CHL1  H11B  480   4.626   2.636   4.968 -0.2093 -1.0679 -1.2613
    7CHL1    C9  481   4.445   2.718   5.070  0.0519  0.4178  0.9590
    7CHL1    H9  482   4.485   2.822   5.071 -1.3399  1.0321 -0.8800
    7CHL1   C10  483   4.465   2.679   5.226  0.1177  0.3974 -0.1536
    7CHL1   C19  484   4.413   2.530   5.245 -0.4654  0.9652  0.4188
    7CHL1  H19A  485   4.303   2.523   5.229 -0.3744  0.4312 -0.0148
    7CHL1  H19B  486   4.453   2.453   5.176  0.0518  0.7094  1.0028
    7CHL1  H19C  487   4.425   2.486   5.346 -0.6250 -0.0985 -0.0167
    7CHL1    C1  488   4.617   2.693   5.256 -0.0636 -0.7862  0.4817
    7CHL1   H1A  489   4.679   2.619   5.201 -1.1908 -1.9157  0.6969
    7CHL1   H1B  490   4.651   2.793   5.221  1.0559 -0.9800  0.9552
    7CHL1    C2  491   4.655   2.681   5.405  1.3596  0.2524 -0.2606
    7CHL1   H2A  492   4.761   2.706   5.427  1.1718  0.3890  0.5302
    7CHL1   H2B  493   4.645   2.576   5.438  1.2840  0.7271  1.2893
    7CHL1   C20  494   4.257   2.611   4.552 -0.0877  0.1618  0.6808
    7CHL1   H20  495   4.189   2.530   4.587  0.7720  0.3903  2.9946
    7CHL1   C21  496   4.392   2.561   4.510 -0.1705 -0.0846 -0.2196
    7CHL1  H21A  497   4.462   2.639   4.472  0.0492 -0.2330 -0.1233
    7CHL1  H21B  498   4.379   2.468   4.452 -0.3922 -0.4840  0.4529
    7CHL1  H21C  499   4.450   2.515   4.593 -0.5623  1.3998  0.9264
    7CHL1   C22  500   4.187   2.688   4.428 -0.1270 -0.1369  0.0392
    7CHL1  H22A  501   4.087   2.717   4.466  1.2146 -0.4466  4.4411
    7CHL1  H22B  502   4.252   2.776   4.408  0.8565 -0.4876  1.4784
    7CHL1   C23  503   4.164   2.591   4.306  0.0634 -0.1009  0.1535
    7CHL1  H23A  504   4.267   2.570   4.271  0.3748  0.8074  0.4983
    7CHL1  H23B  505   4.115   2.498   4.341 -1.6324  1.0629  1.0132
    7CHL1   C24  506   4.088   2.659   4.190 -0.1243  0.7445 -0.1566
    7CHL1  H24A  507   3.988   2.689   4.229  0.7550  1.5147  1.6020
    7CHL1  H24B  508   4.141   2.754   4.166  0.7691  0.8420  1.9337
    7CHL1   C25  509   4.079   2.559   4.074  0.1316 -0.3989  0.4727
    7CHL1   H25  510   4.034   2.465   4.113  0.3346 -0.6295  0.1517
    7CHL1   C26  511   3.981   2.611   3.967 -0.1131 -0.1289  0.9131
    7CHL1  H26A  512   3.970   2.541   3.881  1.5973  0.0039  0.5393
    7CHL1  H26B  513   3.880   2.618   4.011  0.3425 -0.5804  2.0750
    7CHL1  H26C  514   4.014   2.709   3.926 -0.0785 -1.2670 -2.0153
    7CHL1   C27  515   4.207   2.534   3.996 -0.4162  0.2198  0.2356
    7CHL1  H27A  516   4.292   2.515   4.064  1.8858 -0.3150 -2.5815
    7CHL1  H27B  517   4.193   2.441   3.937 -0.3507 -0.0908  0.7073
    7CHL1  H27C  518   4.240   2.622   3.937  0.0672  0.2374  0.5297
    8CHL1    C3  519   2.683   3.012   5.552  0.1289 -0.3646  0.3030
    8CHL1    H3  520   2.574   3.035   5.551  0.0856 -0.5648 -0.6798
    8CHL1    O3  521   2.731   3.048   5.677  0.2854 -0.1506  0.2611
    8CHL1   H3'  522   2.823   3.026   5.661 -0.6421 -3.5432 -1.4180
    8CHL1    C4  523   2.703   2.865   5.526 -0.1115  0.6257  0.5495
    8CHL1   H4A  524   2.810   2.841   5.542  0.1324  0.9298 -0.4957
    8CHL1   H4B  525   2.651   2.803   5.602 -2.0341 -1.0469 -1.9731
    8CHL1    C5  526   2.667   2.820   5.386  0.2843 -0.4301 -0.0761
    8CHL1    C6  527   2.583   2.712   5.368 -0.5998 -0.0622  0.3195
    8CHL1    H6  528   2.552   2.649   5.453  3.3181 -2.3949  0.2674
    8CHL1    C7  529   2.530   2.661   5.230 -0.4171 -0.3337 -0.2406
    8CHL1   H7A  530   2.532   2.550   5.225 -2.6616 -0.5016  1.1979
    8CHL1   H7B  531   2.422   2.676   5.210 -0.6635  0.3543  1.3913
    8CHL1    C8  532   2.603   2.719   5.110  1.0532 -0.2069  0.6602
    8CHL1    H8  533   2.704   2.676   5.094  0.7834 -0.7207  0.3270
    8CHL1   C14  534   2.515   2.705   4.983 -0.1196  0.3272 -0.4573
    8CHL1   H14  535   2.423   2.758   5.014  0.5252  0.5998  1.0792
    8CHL1   C15  536   2.472   2.557   4.950 -0.3848 -0.6669 -0.3632
    8CHL1  H15A  537   2.569   2.503   4.957  0.6344  1.1257  0.0000
    8CHL1  H15B  538   2.398   2.517   5.022 -0.2922 -1.4738 -0.7058
    8CHL1   C16  539   2.416   2.580   4.809 -0.3527 -0.3913  0.3065
    8CHL1  H16A  540   2.446   2.494   4.745 -0.3955  0.2173 -0.5438
    8CHL1  H16B  541   2.306   2.590   4.818 -0.1288  0.8388  2.6279
    8CHL1   C17  542   2.465   2.721   4.751  0.1674 -0.1418 -0.8616
    8CHL1   H17  543   2.382   2.791   4.772  1.4777  1.6660 -1.4359
    8CHL1   C13  544   2.567   2.767   4.854 -0.2237 -0.3815 -0.2868
    8CHL1   C18  545   2.701   2.705   4.827 -0.4748  0.4011 -0.0692
    8CHL1  H18A  546   2.776   2.726   4.907 -1.5947 -0.2663  1.2106
    8CHL1  H18B  547   2.695   2.600   4.794  2.2693  0.5372 -1.2793
    8CHL1  H18C  548   2.735   2.755   4.734  1.0254 -1.1776 -0.4197
    8CHL1   C12  549   2.573   2.924   4.880  0.0018  0.2295 -0.4010
    8CHL1  H12A  550   2.613   2.988   4.798  0.0348  0.1237 -0.4681
    8CHL1  H12B  551   2.468   2.957   4.896 -0.9404 -1.9722 -1.5954
    8CHL1   C11  552   2.664   2.947   5.005 -0.4161  0.5544  0.6608
    8CHL1  H11A  553   2.768   2.917   4.979 -1.5707 -1.5488 -2.0069
    8CHL1  H11B  554   2.662   3.054   5.035  2.7321  0.9560 -0.1786
    8CHL1    C9  555   2.615   2.870   5.133  0.1136 -0.2111  0.3444
    8CHL1    H9  556   2.515   2.911   5.155  0.2641  0.9883 -1.0210
    8CHL1   C10  557   2.701   2.907   5.261  0.2687 -0.0863 -0.3016
    8CHL1   C19  558   2.849   2.873   5.252  0.2838 -0.5681  0.4828
    8CHL1  H19A  559   2.874   2.768   5.225  0.8489  0.1215 -1.9276
    8CHL1  H19B  560   2.893   2.947   5.182  0.7051 -0.8483  0.4497
    8CHL1  H19C  561   2.902   2.910   5.343 -2.0928  1.8515  1.0163
    8CHL1    C1  562   2.684   3.062   5.311 -0.3089  0.5183  0.3355
    8CHL1   H1A  563   2.719   3.136   5.236 -0.8805 -1.0616 -1.6000
    8CHL1   H1B  564   2.575   3.079   5.305 -0.2683  0.7788  0.3220
    8CHL1    C2  565   2.739   3.099   5.447  0.2896 -0.7377  0.3759
    8CHL1   H2A  566   2.708   3.204   5.468 -1.0810 -0.8856 -0.7919
    8CHL1   H2B  567   2.850   3.102   5.440  0.3654  2.2714  1.3271
    8CHL1   C20  568   2.504   2.718   4.593 -0.1092  0.4465  0.1476
    8CHL1   H20  569   2.576   2.635   4.575 -3.4895 -2.2665 -2.1756
    8CHL1   C21  570   2.570   2.851   4.546  0.7557  0.1501 -0.0308
    8CHL1  H21A  571   2.516   2.941   4.583  1.5940  0.4088  0.5970
    8CHL1  H21B  572   2.584   2.859   4.436  0.9539 -3.5639 -0.3822
    8CHL1  H21C  573   2.669   2.872   4.592  0.1240  1.8879  0.6232
    8CHL1   C22  574   2.382   2.694   4.504 -0.2564 -0.2799  0.0056
    8CHL1  H22A  575   2.319   2.614   4.547  1.1586  0.0826  2.9631
    8CHL1  H22B  576   2.316   2.784   4.506 -0.9120 -0.7666  0.9810
    8CHL1   C23  577   2.417   2.656   4.355  0.1081 -0.0683 -0.1187
    8CHL1  H23A  578   2.505   2.710   4.314  0.6673 -1.7524 -1.2448
    8CHL1  H23B  579   2.468   2.558   4.371  1.7216  0.5161 -1.3992
    8CHL1   C24  580   2.308   2.657   4.245  0.3913 -0.2589 -0.4636
    8CHL1  H24A  581   2.217   2.609   4.287  0.3978 -1.2589 -1.5501
    8CHL1  H24B  582   2.275   2.759   4.214 -0.5539  0.2059  1.8418
    8CHL1   C25  583   2.351   2.576   4.122  0.2187 -0.0490 -0.7969
    8CHL1   H25  584   2.394   2.484   4.168 -1.6018 -0.2178  0.6968
    8CHL1   C26  585   2.230   2.530   4.031  0.1718  0.2882 -0.5287
    8CHL1  H26A  586   2.181   2.617   3.981 -2.2966 -0.5856  0.2089
    8CHL1  H26B  587   2.271   2.475   3.944 -1.5690 -0.1478 -1.1056
    8CHL1  H26C  588   2.162   2.467   4.093  0.2432  0.7842  0.0711
    8CHL1   C27  589   2.451   2.658   4.041 -0.2100  0.9935 -1.0459
    8CHL1  H27A  590   2.488   2.607   3.950  0.5535 -1.4183  0.5229
    8CHL1  H27B  591   2.396   2.750   4.012  0.4426  2.7640  2.6526
    8CHL1  H27C  592   2.536   2.683   4.109 -0.1473 -1.0270 -0.3314
    9CHL1    C3  593   5.496   3.896   5.494 -0.2448  0.1052 -0.0866
    9CHL1    H3  594   5.549   3.990   5.466  2.4807 -1.8777 -2.1487
    9CHL1    O3  595   5.488   3.886   5.635 -0.3026 -0.0771 -0.3506
    9CHL1   H3'  596   5.501   3.794   5.662 -0.1430 -0.5904 -2.0648
    9CHL1    C4  597   5.363   3.860   5.427 -0.2360 -0.5124 -0.9021
    9CHL1   H4A  598   5.324   3.761   5.458 -0.5676 -0.1502 -0.1446
    9CHL1   H4B  599   5.292   3.939   5.461  0.9153  0.7309 -1.3250
    9CHL1    C5  600   5.385   3.873   5.277  0.1487 -0.0328 -0.1225
    9CHL1    C6  601   5.319   3.964   5.203 -0.0991  0.1069 -0.5456
    9CHL1    H6  602   5.252   4.032   5.257  2.8648  2.1272  0.8609
    9CHL1    C7  603   5.322   3.979   5.054 -0.3337 -0.7793 -0.1826
    9CHL1   H7A  604   5.221   3.982   5.007  0.6740  0.2433 -2.4741
    9CHL1   H7B  605   5.376   4.075   5.035 -0.2600 -0.6345  0.7148
    9CHL1    C8  606   5.400   3.863   4.978 -0.0078  0.2317 -0.6232
    9CHL1    H8  607   5.329   3.782   4.951  1.3054  0.1369 -4.3512
    9CHL1   C14  608   5.451   3.898   4.839 -0.2802  0.7143  0.0137
    9CHL1   H14  609   5.530   3.974   4.855  2.4207 -2.1123  1.1327
    9CHL1   C15  610   5.352   3.967   4.735  0.0856 -0.1633 -0.1931
    9CHL1  H15A  611   5.254   3.923   4.765 -0.1442 -0.4524 -1.3197
    9CHL1  H15B  612   5.346   4.077   4.752  2.2637 -0.2653  1.6881
    9CHL1   C16  613   5.415   3.926   4.598 -0.4786  0.9315 -0.0007
    9CHL1  H16A  614   5.352   3.848   4.550  0.2486  0.1600  0.2793
    9CHL1  H16B  615   5.423   4.015   4.532 -3.0078  0.8830 -0.4548
    9CHL1   C17  616   5.553   3.858   4.629 -0.4015  0.1563  0.4158
    9CHL1   H17  617   5.630   3.936   4.645 -0.8477  0.9674 -1.1699
    9CHL1   C13  618   5.527   3.787   4.764  0.3495  0.3709 -0.9426
    9CHL1   C18  619   5.448   3.651   4.736  0.2496 -0.0938  0.9659
    9CHL1  H18A  620   5.520   3.572   4.707  1.6582  0.5986  2.4439
    9CHL1  H18B  621   5.396   3.629   4.831 -1.6634 -1.4016 -0.2950
    9CHL1  H18C  622   5.371   3.671   4.658  2.0380  2.6803 -0.2402
    9CHL1   C12  623   5.649   3.767   4.852  0.0691 -0.6280  0.5544
    9CHL1  H12A  624   5.698   3.677   4.809 -0.3209 -1.1498  1.1894
    9CHL1  H12B  625   5.711   3.859   4.839 -2.5775  1.1173 -0.7621
    9CHL1   C11  626   5.615   3.731   4.997  0.5623 -0.7456  0.2547
    9CHL1  H11A  627   5.573   3.628   5.001 -0.0865 -0.4915  0.0407
    9CHL1  H11B  628   5.712   3.731   5.052  0.2881 -2.7341  0.8340
    9CHL1    C9  629   5.521   3.830   5.064  0.6595 -0.3477 -0.3579
    9CHL1    H9  630   5.573   3.928   5.079  0.3877 -0.0227 -1.4693
    9CHL1   C10  631   5.496   3.785   5.215 -0.1086 -0.3341  0.4859
    9CHL1   C19  632   5.447   3.635   5.218  0.4343  0.5923  0.0111
    9CHL1  H19A  633   5.535   3.568   5.202  0.6965  0.5779  1.3791
    9CHL1  H19B  634   5.403   3.611   5.317 -1.4613  1.5657 -0.5540
    9CHL1  H19C  635   5.371   3.609   5.142  0.0207 -3.6740  1.6002
    9CHL1    C1  636   5.621   3.809   5.301 -0.2944 -0.4622  0.4785
    9CHL1   H1A  637   5.707   3.747   5.266 -0.3751 -0.6391  0.5900
    9CHL1   H1B  638   5.654   3.912   5.279 -1.8554 -0.2502 -1.1512
    9CHL1    C2  639   5.601   3.794   5.450  0.3829  0.3758  0.4432
    9CHL1   H2A  640   5.698   3.795   5.505  0.6745 -2.7819  0.1907
    9CHL1   H2B  641   5.556   3.693   5.465  0.9861 -0.2856 -1.8739
    9CHL1   C20  642   5.594   3.775   4.507 -0.4102 -0.4499 -0.6777
    9CHL1   H20  643   5.528   3.686   4.498  1.7737 -2.4694  1.7035
    9CHL1   C21  644   5.731   3.718   4.524 -0.1236  0.6666 -0.1000
    9CHL1  H21A  645   5.752   3.656   4.434 -2.2605  0.3414 -0.4146
    9CHL1  H21B  646   5.744   3.657   4.615  1.0630  1.3496  0.2136
    9CHL1  H21C  647   5.800   3.805   4.531 -0.8568  1.3131 -0.7475
    9CHL1   C22  648   5.576   3.849   4.370  0.0577 -0.1629  0.4946
    9CHL1  H22A  649   5.465   3.861   4.367 -0.1446 -1.8747  0.0014
    9CHL1  H22B  650   5.628   3.947   4.377  0.6699 -0.3583 -1.0588
    9CHL1   C23  651   5.624   3.766   4.252  0.0594  0.5808 -0.5197
    9CHL1  H23A  652   5.735   3.754   4.246  0.0265  0.6894 -1.5078
    9CHL1  H23B  653   5.574   3.667   4.250  0.0911  0.5374 -3.6051
    9CHL1   C24  654   5.573   3.820   4.119  0.0711 -0.4724 -0.2457
    9CHL1  H24A  655   5.466   3.850   4.120  0.1719 -0.0396 -1.2004
    9CHL1  H24B  656   5.641   3.908   4.113 -3.3961  2.6384  1.8980
    9CHL1   C25  657   5.609   3.730   3.994 -0.4078  0.0508 -0.4849
    9CHL1   H25  658   5.714   3.694   4.003  0.0267  1.1287 -0.9800
    9CHL1   C26  659   5.522   3.611   3.974  0.2157  0.4076 -0.3990
    9CHL1  H26A  660   5.537   3.540   4.059  0.2203  0.2683 -0.5145
    9CHL1  H26B  661   5.416   3.643   3.984  0.5396  0.9397  1.9973
    9CHL1  H26C  662   5.544   3.562   3.877 -0.6647 -1.1829  0.1539
    9CHL1   C27  663   5.608   3.812   3.869 -0.2573 -0.0331  0.3919
    9CHL1  H27A  664   5.657   3.759   3.786  0.3886  0.7813  0.2364
    9CHL1  H27B  665   5.506   3.839   3.833  0.0312  0.8085  0.1727
    9CHL1  H27C  666   5.666   3.906   3.884 -0.5913  0.4255 -1.0392
   10CHL1    C3  667   4.195   5.287   5.628 -0.0530 -0.3704  0.4915
   10CHL1    H3  668   4.148   5.194   5.590 -1.0590  0.8080 -1.2892
   10CHL1    O3  669   4.150   5.330   5.752  0.1341 -0.2915 -0.0781
   10CHL1   H3'  670   4.206   5.283   5.815  1.1722  0.2234 -0.5915
   10CHL1    C4  671   4.347   5.271   5.635 -0.2240  0.6893  0.9255
   10CHL1   H4A  672   4.395   5.357   5.688 -2.5464  1.1942  2.3456
   10CHL1   H4B  673   4.370   5.185   5.701  0.6110 -0.5992 -0.9442
   10CHL1    C5  674   4.407   5.247   5.497  0.2747 -0.6255  0.0751
   10CHL1    C6  675   4.487   5.143   5.480  0.8787 -1.5869 -0.5471
   10CHL1    H6  676   4.504   5.073   5.564 -1.3536 -2.1081 -0.4805
   10CHL1    C7  677   4.564   5.138   5.353 -0.0336  0.2977  0.7605
   10CHL1   H7A  678   4.665   5.105   5.387  0.0389  1.9449  2.3355
   10CHL1   H7B  679   4.521   5.065   5.282  0.6478  1.9915 -1.5393
   10CHL1    C8  680   4.561   5.263   5.262 -0.3831  0.0675 -1.0382
   10CHL1    H8  681   4.629   5.341   5.301 -1.1769  1.0112 -1.5077
   10CHL1   C14  682   4.600   5.224   5.120 -0.1172 -0.8024  0.2368
   10CHL1   H14  683   4.517   5.156   5.090  1.0800 -2.3731  0.3625
   10CHL1   C15  684   4.730   5.145   5.103  0.5423 -0.3992 -0.0866
   10CHL1  H15A  685   4.810   5.183   5.170 -2.3741  3.4223  1.6359
   10CHL1  H15B  686   4.709   5.038   5.126 -0.3026  0.1415  1.8545
   10CHL1   C16  687   4.765   5.163   4.953 -0.9771 -0.4342 -0.4683
   10CHL1  H16A  688   4.872   5.190   4.947 -1.2199  0.4080 -1.2119
   10CHL1  H16B  689   4.747   5.074   4.889 -1.9660 -1.7019  1.4511
   10CHL1   C17  690   4.664   5.266   4.897 -0.3493 -0.3231 -0.3946
   10CHL1   H17  691   4.581   5.205   4.855  1.1863 -2.7301 -0.1446
   10CHL1   C13  692   4.606   5.335   5.017  0.2620  0.1395  0.7696
   10CHL1   C18  693   4.695   5.455   5.057  0.6685  0.3314 -0.0688
   10CHL1  H18A  694   4.802   5.426   5.044  0.6258  0.9504 -2.2526
   10CHL1  H18B  695   4.687   5.533   4.979 -0.4084  0.1772 -0.1360
   10CHL1  H18C  696   4.664   5.486   5.159  1.1564 -1.5415  0.6908
   10CHL1   C12  697   4.460   5.384   5.000 -0.1180 -0.5513 -0.1535
   10CHL1  H12A  698   4.453   5.474   4.934  0.8721 -0.4038 -0.0775
   10CHL1  H12B  699   4.401   5.303   4.951  0.4757  0.1431 -2.1230
   10CHL1   C11  700   4.398   5.420   5.132  0.4337 -0.4759 -0.4517
   10CHL1  H11A  701   4.443   5.516   5.164 -2.6378  0.6322  1.0216
   10CHL1  H11B  702   4.288   5.434   5.119  0.4975  0.5765  0.0563
   10CHL1    C9  703   4.419   5.317   5.251  0.1086  0.5107 -0.5668
   10CHL1    H9  704   4.370   5.223   5.220 -0.1083 -0.8045  3.2604
   10CHL1   C10  705   4.368   5.357   5.390  0.2162 -0.6843 -0.1282
   10CHL1   C19  706   4.438   5.492   5.438  0.5527 -0.2935 -0.4433
   10CHL1  H19A  707   4.549   5.491   5.433  0.5247  1.1895 -3.0129
   10CHL1  H19B  708   4.416   5.575   5.367  0.0130  0.9809  1.1293
   10CHL1  H19C  709   4.422   5.518   5.545  0.9166  0.8471 -0.6454
   10CHL1    C1  710   4.218   5.365   5.380 -0.3160 -0.0327  0.0252
   10CHL1   H1A  711   4.187   5.446   5.311  1.1795 -0.5500 -1.3169
   10CHL1   H1B  712   4.176   5.266   5.349  0.3129 -0.0687 -0.7470
   10CHL1    C2  713   4.152   5.393   5.516 -0.2214 -0.3122 -0.6597
   10CHL1   H2A  714   4.041   5.404   5.523 -0.0001  1.9324  0.0681
   10CHL1   H2B  715   4.198   5.489   5.548 -2.4113  0.5373  0.1555
   10CHL1   C20  716   4.718   5.347   4.778 -0.1449  0.2567  0.8906
   10CHL1   H20  717   4.804   5.410   4.808  1.2794  0.1709 -2.5322
   10CHL1   C21  718   4.606   5.444   4.729  0.0591  0.3013 -0.1688
   10CHL1  H21A  719   4.605   5.535   4.793 -0.2187  0.3551 -0.2508
   10CHL1  H21B  720   4.507   5.394   4.731 -1.0035  2.2809 -0.3766
   10CHL1  H21C  721   4.630   5.486   4.629 -0.8041  1.8761  0.2441
   10CHL1   C22  722   4.775   5.270   4.663 -0.2089 -0.0878  0.6095
   10CHL1  H22A  723   4.840   5.343   4.609  1.1501  0.4312  2.8154
   10CHL1  H22B  724   4.864   5.210   4.693  1.6653  1.7562 -0.9336
   10CHL1   C23  725   4.672   5.195   4.575  0.1348  0.6439  0.7630
   10CHL1  H23A  726   4.584   5.152   4.628  0.1600  0.0774  0.3596
   10CHL1  H23B  727   4.623   5.264   4.502 -1.0976 -1.3268 -0.3708
   10CHL1   C24  728   4.737   5.078   4.504 -0.0720  0.9873 -0.0884
   10CHL1  H24A  729   4.846   5.094   4.492 -0.2654  0.4785 -3.3702
   10CHL1  H24B  730   4.722   4.984   4.562 -0.5979  0.5279 -0.9389
   10CHL1   C25  731   4.697   5.053   4.358  0.0496  0.2435  0.0157
   10CHL1   H25  732   4.725   5.138   4.292 -0.0695 -1.1549 -1.9040
   10CHL1   C26  733   4.757   4.928   4.304  0.1186 -0.2143  0.4107
   10CHL1  H26A  734   4.855   4.906   4.353  1.4657 -0.0292 -2.0750
   10CHL1  H26B  735   4.694   4.837   4.304  1.7286 -1.3828 -0.5449
   10CHL1  H26C  736   4.774   4.943   4.196  0.4243 -1.3812  0.2887
   10CHL1   C27  737   4.540   5.042   4.353 -0.2047 -0.0589  0.3191
   10CHL1  H27A  738   4.511   4.961   4.423  2.5148  0.6883  2.4629
   10CHL1  H27B  739   4.495   5.141   4.375  0.1843 -0.5736  4.2176
   10CHL1  H27C  740   4.514   5.010   4.250 -0.5166 -1.2500  0.7479
   11CHL1    C3  741   2.837   2.249   5.599 -0.4013 -0.2747  0.1043
   11CHL1    H3  742   2.731   2.218   5.591  0.0002 -1.4129 -1.0549
   11CHL1    O3  743   2.881   2.268   5.730  0.0683  0.2439 -0.2216
   11CHL1   H3'  744   2.931   2.350   5.732 -1.1497  1.0623  3.1017
   11CHL1    C4  745   2.932   2.148   5.524  0.6252 -0.1188 -0.7459
   11CHL1   H4A  746   3.037   2.181   5.540  1.1232 -1.9930  0.1821
   11CHL1   H4B  747   2.919   2.044   5.559 -1.1335  0.4542  0.4343
   11CHL1    C5  748   2.908   2.149   5.374 -0.0308 -0.3248 -0.0133
   11CHL1    C6  749   2.874   2.043   5.305  1.2493  0.1717 -0.4059
   11CHL1    H6  750   2.855   1.949   5.360  2.2419 -0.7871 -1.6368
   11CHL1    C7  751   2.859   2.036   5.158  0.3297  0.3509 -0.4006
   11CHL1   H7A  752   2.918   1.949   5.125 -2.1965 -1.1547 -1.2643
   11CHL1   H7B  753   2.758   2.020   5.112  0.3538  2.9034 -1.5035
   11CHL1    C8  754   2.908   2.160   5.086 -0.2415 -0.0553 -0.6416
   11CHL1    H8  755   3.019   2.164   5.091 -0.2391 -0.8213 -0.0091
   11CHL1   C14  756   2.860   2.154   4.944 -0.4829  0.2231  0.1348
   11CHL1   H14  757   2.749   2.147   4.943 -0.4125 -1.5680  1.2191
   11CHL1   C15  758   2.899   2.027   4.862  0.0932  0.1319  0.1248
   11CHL1  H15A  759   3.002   1.998   4.891  0.7527  1.0473 -1.2284
   11CHL1  H15B  760   2.828   1.949   4.897 -0.0745  1.0309  1.9562
   11CHL1   C16  761   2.891   2.071   4.716 -0.3759  0.7009  0.1131
   11CHL1  H16A  762   2.989   2.054   4.665 -0.7817  1.3810 -0.9447
   11CHL1  H16B  763   2.811   2.024   4.656 -1.6527  1.5923  1.0605
   11CHL1   C17  764   2.873   2.224   4.717 -0.5074  0.1937 -0.3934
   11CHL1   H17  765   2.764   2.244   4.720 -0.2644  1.7715 -1.2673
   11CHL1   C13  766   2.913   2.271   4.861  0.2613  0.1752  0.0580
   11CHL1   C18  767   3.068   2.278   4.859  0.3251 -0.3846  0.1280
   11CHL1  H18A  768   3.115   2.192   4.808  2.7077  0.0632  1.4384
   11CHL1  H18B  769   3.090   2.365   4.794  1.3738  1.9955  3.3849
   11CHL1  H18C  770   3.108   2.302   4.960  1.6809 -0.4293 -0.3845
   11CHL1   C12  771   2.846   2.396   4.918 -0.0110 -0.1279  0.3633
   11CHL1  H12A  772   2.884   2.482   4.857 -0.6313 -1.8259 -2.6203
   11CHL1  H12B  773   2.740   2.394   4.886  0.4429  1.8295 -1.5510
   11CHL1   C11  774   2.878   2.420   5.070 -0.5198  0.1356 -0.3576
   11CHL1  H11A  775   2.986   2.444   5.077 -0.7403  0.8627  0.8124
   11CHL1  H11B  776   2.811   2.497   5.114 -1.7291  0.4617 -2.6006
   11CHL1    C9  777   2.856   2.280   5.159 -0.6922  0.5549  0.0871
   11CHL1    H9  778   2.749   2.253   5.171 -0.0342 -2.1598  0.5428
   11CHL1   C10  779   2.919   2.283   5.303  0.3620  0.4917 -0.5272
   11CHL1   C19  780   3.066   2.326   5.312  0.8132 -0.5242 -0.3185
   11CHL1  H19A  781   3.135   2.251   5.268  1.2420 -1.4000  1.7081
   11CHL1  H19B  782   3.069   2.424   5.261  0.4086  0.0603  0.7409
   11CHL1  H19C  783   3.092   2.354   5.417  1.3009 -0.1489 -0.5365
   11CHL1    C1  784   2.833   2.384   5.381  0.3328  0.3799 -0.0054
   11CHL1   H1A  785   2.855   2.486   5.343  1.1385 -0.1404 -1.0028
   11CHL1   H1B  786   2.726   2.367   5.356 -0.1343  2.2866  0.5297
   11CHL1    C2  787   2.852   2.393   5.535  0.0690 -0.0972 -0.5970
   11CHL1   H2A  788   2.766   2.456   5.566 -0.4209 -0.7923 -0.5073
   11CHL1   H2B  789   2.950   2.433   5.568 -1.5780  2.3863  1.6315
   11CHL1   C20  790   2.931   2.293   4.587  0.4802 -0.1721  0.3751
   11CHL1   H20  791   3.041   2.295   4.594  0.4449 -0.3125  0.9995
   11CHL1   C21  792   2.857   2.432   4.572 -0.1744 -0.0834  0.1309
   11CHL1  H21A  793   2.907   2.487   4.489  0.1475  3.0098  2.1867
   11CHL1  H21B  794   2.866   2.494   4.664 -2.2541 -0.0412  0.3640
   11CHL1  H21C  795   2.747   2.425   4.555 -0.5843  1.7147  1.6399
   11CHL1   C22  796   2.903   2.220   4.460 -0.3295  0.6359 -0.5618
   11CHL1  H22A  797   2.923   2.112   4.477  0.6926  1.1201  1.6382
   11CHL1  H22B  798   2.793   2.218   4.445 -0.2932  0.1120 -0.7670
   11CHL1   C23  799   2.987   2.258   4.333  0.4432 -0.2940 -0.4810
   11CHL1  H23A  800   3.094   2.273   4.358  0.3803  1.8375 -1.2711
   11CHL1  H23B  801   2.977   2.159   4.282  1.0834 -1.1746  1.0264
   11CHL1   C24  802   2.933   2.374   4.250 -0.1526  0.7918 -0.6583
   11CHL1  H24A  803   2.822   2.375   4.257 -0.2360  2.3433 -1.6386
   11CHL1  H24B  804   2.977   2.469   4.288  0.3458  1.0624 -1.8476
   11CHL1   C25  805   2.968   2.363   4.102  0.0226  0.5475 -0.3722
   11CHL1   H25  806   2.963   2.260   4.061 -1.5882 -0.3837  1.9157
   11CHL1   C26  807   2.868   2.441   4.015 -0.2231 -0.0876  0.2784
   11CHL1  H26A  808   2.907   2.462   3.913  0.9727  1.7704  1.0811
   11CHL1  H26B  809   2.771   2.387   4.019  0.2555 -0.9693  4.1141
   11CHL1  H26C  810   2.859   2.537   4.068  1.3214 -0.5012  1.3479
   11CHL1   C27  811   3.116   2.407   4.091 -0.8921  0.4908 -0.3822
   11CHL1  H27A  812   3.171   2.323   4.139 -0.3956  1.0210 -0.0194
   11CHL1  H27B  813   3.146   2.416   3.984  0.9985  0.1685  0.0808
   11CHL1  H27C  814   3.151   2.503   4.133 -1.3223  0.4619  0.0410
   12CHL1    C3  815   4.539   1.782   5.634 -0.1821 -0.4276  0.1571
   12CHL1    H3  816   4.469   1.864   5.609 -0.4340 -0.6518  0.1237
   12CHL1    O3  817   4.505   1.738   5.765  0.3114 -0.1123  0.0744
   12CHL1   H3'  818   4.527   1.644   5.771 -0.0413 -0.3155 -1.4976
   12CHL1    C4  819   4.523   1.661   5.537  0.1733 -0.2322 -0.1023
   12CHL1   H4A  820   4.580   1.571   5.567 -0.0396  0.0848  1.3070
   12CHL1   H4B  821   4.414   1.642   5.535 -0.4006  2.5466 -2.3715
   12CHL1    C5  822   4.574   1.712   5.402  0.4308  0.3888  0.0659
   12CHL1    C6  823   4.486   1.710   5.295  0.5125 -0.6160 -0.7382
   12CHL1    H6  824   4.380   1.687   5.312  0.5049 -0.5893 -0.7510
   12CHL1    C7  825   4.526   1.736   5.149 -0.5042  0.7233 -1.1377
   12CHL1   H7A  826   4.469   1.662   5.089 -1.4765 -0.2148  0.8176
   12CHL1   H7B  827   4.488   1.836   5.120  0.0210  1.1135 -0.5137
   12CHL1    C8  828   4.684   1.730   5.131  0.4998  0.1428 -0.5921
   12CHL1    H8  829   4.709   1.622   5.121 -2.0632 -0.3659 -2.6100
   12CHL1   C14  830   4.724   1.802   5.006 -0.3364  0.0198 -0.3087
   12CHL1   H14  831   4.694   1.908   5.021  0.4541  0.6129 -2.5347
   12CHL1   C15  832   4.653   1.768   4.877  1.0631  0.2578 -0.4526
   12CHL1  H15A  833   4.634   1.659   4.877  1.1713  0.2259 -1.4829
   12CHL1  H15B  834   4.559   1.826   4.875  1.0918  0.5446  2.4502
   12CHL1   C16  835   4.746   1.797   4.766 -0.3377  0.0265  0.6345
   12CHL1  H16A  836   4.751   1.699   4.714 -0.4533  0.3503  0.0024
   12CHL1  H16B  837   4.710   1.876   4.697 -1.1749  0.3426  1.4151
   12CHL1   C17  838   4.876   1.857   4.835  0.1939 -0.3734  0.5065
   12CHL1   H17  839   4.856   1.966   4.843  1.6140  0.1040 -1.6072
   12CHL1   C13  840   4.877   1.795   4.976  0.2316  0.3703 -0.0061
   12CHL1   C18  841   4.920   1.647   4.971  0.4570 -0.4374  0.8333
   12CHL1  H18A  842   4.908   1.599   5.071 -0.6289 -2.5468 -0.2340
   12CHL1  H18B  843   4.860   1.585   4.901  0.8838  1.3231 -1.1624
   12CHL1  H18C  844   5.021   1.638   4.927 -0.1923 -2.8696 -0.3437
   12CHL1   C12  845   4.947   1.877   5.088 -0.2911 -0.2823  0.3477
   12CHL1  H12A  846   5.058   1.882   5.079 -0.2339 -0.3224  0.9783
   12CHL1  H12B  847   4.904   1.980   5.087  2.2291  0.8380 -0.3344
   12CHL1   C11  848   4.906   1.821   5.224 -0.9530 -0.6984 -0.4369
   12CHL1  H11A  849   4.956   1.722   5.236 -1.1652 -1.3155 -3.7273
   12CHL1  H11B  850   4.949   1.891   5.300  0.3214  0.7873 -2.4309
   12CHL1    C9  851   4.755   1.803   5.246 -0.4767 -0.6094  0.2922
   12CHL1    H9  852   4.708   1.904   5.241  0.7681 -0.0426 -0.1334
   12CHL1   C10  853   4.725   1.746   5.388  0.5932 -0.4603 -0.5645
   12CHL1   C19  854   4.805   1.621   5.415  0.4134 -0.3833 -0.3901
   12CHL1  H19A  855   4.912   1.648   5.427  0.5714 -1.4166  0.7261
   12CHL1  H19B  856   4.779   1.562   5.506 -2.8756 -0.6714 -1.4021
   12CHL1  H19C  857   4.807   1.554   5.327 -0.4769 -0.3326 -0.4546
   12CHL1    C1  858   4.739   1.866   5.497 -0.4599  0.1770 -0.2396
   12CHL1   H1A  859   4.844   1.900   5.499 -0.3883  0.0554 -1.2077
   12CHL1   H1B  860   4.681   1.955   5.464  1.4105  0.7162 -2.3334
   12CHL1    C2  861   4.692   1.825   5.639  0.4472  0.1985  0.4903
   12CHL1   H2A  862   4.703   1.907   5.712 -0.8524  1.4594 -0.6755
   12CHL1   H2B  863   4.752   1.740   5.679 -1.3911 -1.0044  0.8447
   12CHL1   C20  864   4.994   1.846   4.735 -0.0944 -0.0741 -0.2339
   12CHL1   H20  865   4.994   1.736   4.717 -0.0282 -0.5940  2.4438
   12CHL1   C21  866   5.130   1.890   4.803  0.4124  1.1849 -0.3002
   12CHL1  H21A  867   5.151   1.833   4.896 -3.1780  1.8054  1.0585
   12CHL1  H21B  868   5.137   1.998   4.828  0.4225  1.1132  0.0189
   12CHL1  H21C  869   5.206   1.861   4.728 -0.9690  0.2634 -1.3918
   12CHL1   C22  870   4.959   1.926   4.602 -0.2012 -0.1674  0.4342
   12CHL1  H22A  871   4.878   1.874   4.546 -1.4639  1.2816  0.8620
   12CHL1  H22B  872   4.937   2.032   4.624  0.2239 -0.5053  2.6891
   12CHL1   C23  873   5.080   1.934   4.498  0.7944  0.0443  0.1768
   12CHL1  H23A  874   5.144   2.019   4.530  0.9089  0.8169 -1.9453
   12CHL1  H23B  875   5.142   1.843   4.508 -2.5199 -2.3807  0.2484
   12CHL1   C24  876   5.038   1.944   4.352  1.0294  0.1200 -0.3668
   12CHL1  H24A  877   4.993   1.850   4.313 -3.2551  1.0793  1.7083
   12CHL1  H24B  878   4.965   2.024   4.331  0.3276 -0.9477 -2.1373
   12CHL1   C25  879   5.154   1.968   4.249  0.6605 -0.7427  0.2147
   12CHL1   H25  880   5.192   2.067   4.285  0.3249 -0.5979  0.1721
   12CHL1   C26  881   5.259   1.860   4.261  0.5890 -0.3251 -0.5982
   12CHL1  H26A  882   5.308   1.850   4.361  1.7910 -1.3362 -1.2602
   12CHL1  H26B  883   5.208   1.768   4.225 -1.1698 -0.0782  1.0976
   12CHL1  H26C  884   5.341   1.881   4.189  1.2838  0.9328  0.5113
   12CHL1   C27  885   5.092   1.974   4.107  0.0421 -0.0517 -0.4008
   12CHL1  H27A  886   5.002   2.039   4.101  0.2915  0.5118  1.2616
   12CHL1  H27B  887   5.156   2.029   4.035 -0.6473  1.2182 -0.0702
   12CHL1  H27C  888   5.075   1.873   4.065  0.6487 -1.4714  2.4715
   13CHL1    C3  889   3.843   0.777   5.524 -0.3795 -0.5425  0.6729
   13CHL1    H3  890   3.936   0.743   5.474 -1.1025 -0.7440 -0.5685
   13CHL1    O3  891   3.833   0.764   5.660 -0.1905 -0.1731  0.2768
   13CHL1   H3'  892   3.883   0.839   5.695  2.0831 -1.5654  0.2107
   13CHL1    C4  893   3.825   0.927   5.492 -0.3014 -0.1000 -0.6942
   13CHL1   H4A  894   3.734   0.963   5.544 -0.3067 -0.7929 -0.2159
   13CHL1   H4B  895   3.910   0.980   5.540 -0.5542  1.6817 -2.0844
   13CHL1    C5  896   3.818   0.963   5.342 -0.3885 -0.2301 -0.5025
   13CHL1    C6  897   3.903   1.054   5.283  0.0811 -0.3553 -0.1838
   13CHL1    H6  898   3.963   1.119   5.348 -0.0063 -0.2650 -0.1932
   13CHL1    C7  899   3.888   1.094   5.145  0.3770 -0.4466  0.0222
   13CHL1   H7A  900   3.883   1.205   5.141 -0.5241 -0.4672  0.3162
   13CHL1   H7B  901   3.977   1.064   5.086 -0.1911  1.8400 -2.2096
   13CHL1    C8  902   3.766   1.034   5.071  0.2828 -0.2949 -0.7686
   13CHL1    H8  903   3.679   1.095   5.101  0.3207 -0.8852  0.6597
   13CHL1   C14  904   3.793   1.041   4.923  0.3941 -1.1137 -0.3578
   13CHL1   H14  905   3.891   0.990   4.912  2.0440  1.4070  1.4416
   13CHL1   C15  906   3.818   1.182   4.866 -0.0740 -0.2231  0.0009
   13CHL1  H15A  907   3.743   1.263   4.875  0.0877 -0.2105  1.5550
   13CHL1  H15B  908   3.901   1.234   4.919 -1.8663  0.6434  2.1446
   13CHL1   C16  909   3.831   1.150   4.715 -0.0572  0.1652 -0.2452
   13CHL1  H16A  910   3.795   1.233   4.651  1.8989 -0.0235 -1.6735
   13CHL1  H16B  911   3.938   1.135   4.691  0.0451 -0.8044  0.7153
   13CHL1   C17  912   3.752   1.013   4.694  0.0156  0.1221  0.0260
   13CHL1   H17  913   3.834   0.939   4.680 -0.1626  0.0259 -0.5262
   13CHL1   C13  914   3.688   0.976   4.830  0.3023  0.3074 -0.3023
   13CHL1   C18  915   3.548   1.041   4.858 -0.3889 -0.1536  0.1725
   13CHL1  H18A  916   3.570   1.148   4.836 -0.4782  0.0199  0.9022
   13CHL1  H18B  917   3.473   1.009   4.783 -0.0108  2.4649 -1.4763
   13CHL1  H18C  918   3.502   1.028   4.958  0.9336  0.4910  0.8998
   13CHL1   C12  919   3.667   0.833   4.873  0.2625  0.1251 -0.2340
   13CHL1  H12A  920   3.575   0.800   4.821 -0.0749  1.8743 -0.8161
   13CHL1  H12B  921   3.749   0.765   4.842 -0.3283  0.4575 -2.6977
   13CHL1   C11  922   3.652   0.814   5.025 -0.0524  0.9914  0.2398
   13CHL1  H11A  923   3.549   0.847   5.052  0.1195  0.5428  1.5344
   13CHL1  H11B  924   3.655   0.706   5.050 -1.2375  0.6284 -1.1029
   13CHL1    C9  925   3.750   0.889   5.116 -0.1943 -0.7167 -0.0242
   13CHL1    H9  926   3.850   0.841   5.109  0.5984  0.7852  0.4347
   13CHL1   C10  927   3.716   0.883   5.263 -0.1579  0.0837 -0.1629
   13CHL1   C19  928   3.572   0.941   5.297 -0.3781  0.4574  0.3095
   13CHL1  H19A  929   3.566   1.048   5.267 -0.7472  0.5630  0.7542
   13CHL1  H19B  930   3.498   0.868   5.258  1.7900 -1.9483  0.4532
   13CHL1  H19C  931   3.566   0.935   5.408 -1.2080 -0.6587  0.2160
   13CHL1    C1  932   3.716   0.738   5.310 -0.0300  0.5089  0.6759
   13CHL1   H1A  933   3.632   0.678   5.271  0.2946  1.0042 -0.8701
   13CHL1   H1B  934   3.804   0.685   5.267  1.0518  1.5928  1.4690
   13CHL1    C2  935   3.728   0.704   5.462  0.8636  0.2054  0.1114
   13CHL1   H2A  936   3.733   0.594   5.469 -1.2415  0.0557 -0.0346
   13CHL1   H2B  937   3.626   0.731   5.498  1.5202  1.2207  1.2799
   13CHL1   C20  938   3.670   1.005   4.562  0.0248 -0.7913  0.3717
   13CHL1   H20  939   3.583   1.072   4.580 -1.4945 -1.9663 -2.0971
   13CHL1   C21  940   3.626   0.861   4.539  0.2642 -0.6880 -0.4223
   13CHL1  H21A  941   3.711   0.792   4.560  1.2854  1.1711  2.0664
   13CHL1  H21B  942   3.595   0.849   4.433 -1.5723  1.0744 -0.1391
   13CHL1  H21C  943   3.536   0.834   4.597 -1.0794 -0.1702 -2.1920
   13CHL1   C22  944   3.739   1.064   4.431 -0.4007 -0.5451  0.3086
   13CHL1  H22A  945   3.670   1.050   4.345  0.4170  0.3211 -0.5014
   13CHL1  H22B  946   3.749   1.173   4.447 -2.3271 -0.0561 -1.4584
   13CHL1   C23  947   3.877   1.007   4.402  0.2263  0.1306 -0.4250
   13CHL1  H23A  948   3.948   1.022   4.487 -1.7527  0.0243  1.3395
   13CHL1  H23B  949   3.862   0.897   4.400  1.1097 -0.0463  1.0240
   13CHL1   C24  950   3.932   1.034   4.258  0.2780  0.3545  0.1535
   13CHL1  H24A  951   3.858   0.988   4.190 -1.3224 -1.6458  3.0081
   13CHL1  H24B  952   3.922   1.143   4.242 -0.1797  0.4691  1.1022
   13CHL1   C25  953   4.079   0.990   4.226  0.5715  0.6292  0.5501
   13CHL1   H25  954   4.157   1.046   4.281  1.4398 -2.1012  2.2773
   13CHL1   C26  955   4.085   0.837   4.257 -0.4606  0.4134  0.2589
   13CHL1  H26A  956   4.178   0.791   4.218  0.8442  1.3285  2.1300
   13CHL1  H26B  957   4.060   0.805   4.361 -0.4898 -0.0285  0.1193
   13CHL1  H26C  958   4.000   0.796   4.198 -1.3997  0.5477  1.4725
   13CHL1   C27  959   4.096   1.006   4.070 -0.3249  0.8717  1.0489
   13CHL1  H27A  960   4.027   0.940   4.014  1.9005  0.0236 -0.8608
   13CHL1  H27B  961   4.073   1.109   4.033 -0.7321  0.3659 -0.1382
   13CHL1  H27C  962   4.203   0.979   4.061 -0.3003  1.0689  0.7308
   14CHL1    C3  963   2.499   6.040   5.603 -0.6922 -0.3934 -0.2211
   14CHL1    H3  964   2.586   6.109   5.605 -1.1150  0.2500 -2.0644
   14CHL1    O3  965   2.466   5.982   5.727 -0.4501  0.0140  0.6386
   14CHL1   H3'  966   2.432   5.894   5.707 -0.6143  0.4991 -1.4819
   14CHL1    C4  967   2.381   6.107   5.534  0.3143 -0.3558 -0.2938
   14CHL1   H4A  968   2.308   6.027   5.511 -0.6181  0.5176 -0.4711
   14CHL1   H4B  969   2.333   6.185   5.598 -0.6758  0.1950 -1.6452
   14CHL1    C5  970   2.420   6.167   5.400 -0.5362 -0.2248  0.0934
   14CHL1    C6  971   2.400   6.294   5.362  0.4658  0.4757 -0.2980
   14CHL1    H6  972   2.372   6.363   5.443 -0.2389 -1.4651  1.1892
   14CHL1    C7  973   2.429   6.359   5.239 -0.4978  0.4594 -0.5570
   14CHL1   H7A  974   2.330   6.395   5.203 -0.1259  2.3042  0.1605
   14CHL1   H7B  975   2.505   6.434   5.267 -1.4549  1.3640 -0.3127
   14CHL1    C8  976   2.478   6.261   5.126  0.1917 -0.4953  0.2265
   14CHL1    H8  977   2.384   6.221   5.081  0.7030  0.6787 -2.0372
   14CHL1   C14  978   2.556   6.330   5.013  0.6710 -0.3813 -0.5305
   14CHL1   H14  979   2.642   6.384   5.058 -0.7232  1.9190 -0.3984
   14CHL1   C15  980   2.488   6.460   4.946  0.5004  0.4813  0.0711
   14CHL1  H15A  981   2.385   6.427   4.919 -0.4433  2.0831  1.5557
   14CHL1  H15B  982   2.493   6.541   5.021 -0.2722  2.7971 -2.2220
   14CHL1   C16  983   2.576   6.475   4.816 -0.1113 -0.4563 -1.1333
   14CHL1  H16A  984   2.514   6.480   4.724 -0.2404  1.6843 -0.9814
   14CHL1  H16B  985   2.637   6.568   4.814 -1.9355  0.7759 -1.8928
   14CHL1   C17  986   2.666   6.345   4.802 -0.0292  0.5505  0.3086
   14CHL1   H17  987   2.766   6.374   4.842 -0.7018  0.9327  1.8019
   14CHL1   C13  988   2.601   6.240   4.898 -0.8576 -0.1475  0.2583
   14CHL1   C18  989   2.480   6.165   4.827 -0.9303 -0.1066  0.2279
   14CHL1  H18A  990   2.509   6.072   4.774 -0.9306  1.0854 -2.0007
   14CHL1  H18B  991   2.397   6.150   4.899 -0.5478  1.0934  0.9558
   14CHL1  H18C  992   2.446   6.243   4.755  0.2279  1.6020  1.4392
   14CHL1   C12  993   2.695   6.139   4.962  0.1644  0.0717 -1.1465
   14CHL1  H12A  994   2.725   6.069   4.881 -0.2961 -1.0723 -0.3622
   14CHL1  H12B  995   2.783   6.198   4.995  0.5064  0.5487 -2.7912
   14CHL1   C11  996   2.625   6.059   5.073 -0.0134  0.7698  0.9878
   14CHL1  H11A  997   2.543   5.996   5.034 -0.9754  1.6192  1.5665
   14CHL1  H11B  998   2.685   5.977   5.118  0.6685 -0.3577 -1.7592
   14CHL1    C9  999   2.566   6.147   5.187  0.2232  0.1286  0.1023
   14CHL1    H9 1000   2.656   6.198   5.227 -1.2615  0.7856  2.9233
   14CHL1   C10 1001   2.497   6.073   5.309  0.6132 -0.1687  0.2511
   14CHL1   C19 1002   2.383   5.984   5.240  0.4150  0.3933  0.1598
   14CHL1  H19A 1003   2.431   5.904   5.180 -0.6476  3.0414 -4.8344
   14CHL1  H19B 1004   2.311   5.937   5.309 -0.2567 -1.3332 -1.6256
   14CHL1  H19C 1005   2.329   6.051   5.169  0.3608  1.4283  1.1559
   14CHL1    C1 1006   2.602   5.987   5.379 -0.9012  0.2223 -0.2805
   14CHL1   H1A 1007   2.617   5.910   5.301  2.5713 -1.0356  1.4459
   14CHL1   H1B 1008   2.706   6.024   5.387 -0.4819 -0.5396 -1.7825
   14CHL1    C2 1009   2.543   5.928   5.510 -0.4114  0.6025  0.4630
   14CHL1   H2A 1010   2.615   5.861   5.563  0.7708  1.5369  0.0938
   14CHL1   H2B 1011   2.464   5.860   5.471  0.4268 -0.9366  1.3527
   14CHL1   C20 1012   2.697   6.299   4.654  0.2912  0.6741  0.5206
   14CHL1   H20 1013   2.598   6.263   4.619  0.7192 -0.1058  0.0883
   14CHL1   C21 1014   2.805   6.185   4.649 -0.0374  0.3261 -0.0719
   14CHL1  H21A 1015   2.898   6.215   4.702 -1.3674  0.4231  2.3031
   14CHL1  H21B 1016   2.831   6.159   4.543  0.4907  1.1360 -0.1504
   14CHL1  H21C 1017   2.765   6.087   4.684  1.9505 -0.2892  0.6508
   14CHL1   C22 1018   2.744   6.422   4.570 -0.1926 -0.1385 -0.1009
   14CHL1  H22A 1019   2.655   6.488   4.566  0.2571  0.5267  0.7539
   14CHL1  H22B 1020   2.824   6.484   4.615 -0.4119  0.8703 -1.0566
   14CHL1   C23 1021   2.768   6.394   4.421 -0.0070 -0.4506  0.0340
   14CHL1  H23A 1022   2.863   6.337   4.412  2.4724  2.9280  1.9735
   14CHL1  H23B 1023   2.680   6.348   4.372  1.1360 -2.2763 -0.4049
   14CHL1   C24 1024   2.784   6.528   4.346  0.1818 -0.1677  0.2739
   14CHL1  H24A 1025   2.692   6.588   4.364 -0.2876 -1.2404  1.6387
   14CHL1  H24B 1026   2.875   6.587   4.368  1.5738 -1.1809 -2.2965
   14CHL1   C25 1027   2.801   6.502   4.193  0.4113  0.5999 -0.2039
   14CHL1   H25 1028   2.823   6.603   4.150  1.1129  0.7077  0.3995
   14CHL1   C26 1029   2.922   6.416   4.143 -0.3266 -0.3974 -0.2688
   14CHL1  H26A 1030   2.926   6.316   4.191 -1.0096 -1.0900 -1.6012
   14CHL1  H26B 1031   2.919   6.400   4.033 -0.4255  0.8202 -0.4505
   14CHL1  H26C 1032   3.017   6.471   4.162 -1.4681  1.5969 -0.1197
   14CHL1   C27 1033   2.667   6.465   4.123 -0.0267 -0.2014  0.1386
   14CHL1  H27A 1034   2.676   6.453   4.013 -1.1934  0.4602 -0.0419
   14CHL1  H27B 1035   2.618   6.370   4.152 -0.5358  0.8244  2.9201
   14CHL1  H27C 1036   2.593   6.547   4.135  0.9834  0.5468  1.6601
   15CHL1    C3 1037   1.397   5.366   5.624 -0.3509 -0.4999 -0.2019
   15CHL1    H3 1038   1.307   5.302   5.641  0.1396 -1.2030 -0.1972
   15CHL1    O3 1039   1.461   5.403   5.747  0.3293  0.1172  0.4303
   15CHL1   H3' 1040   1.544   5.441   5.717 -0.7213 -0.2097 -3.5530
   15CHL1    C4 1041   1.494   5.261   5.550  0.6803 -0.6563 -0.2070
   15CHL1   H4A 1042   1.594   5.307   5.569  1.6661 -2.1136 -1.5917
   15CHL1   H4B 1043   1.504   5.167   5.609  2.5368 -0.5313 -0.2725
   15CHL1    C5 1044   1.470   5.238   5.405  0.3893 -0.1004 -0.1294
   15CHL1    C6 1045   1.461   5.112   5.351  0.0675  0.4912 -0.2755
   15CHL1    H6 1046   1.485   5.030   5.420  3.0555  3.1063  2.0483
   15CHL1    C7 1047   1.443   5.086   5.202 -0.5793 -0.1324 -0.2885
   15CHL1   H7A 1048   1.509   5.004   5.165 -0.3700  0.6811 -1.8010
   15CHL1   H7B 1049   1.339   5.052   5.183 -0.3066 -0.3119 -1.5290
   15CHL1    C8 1050   1.462   5.215   5.113 -0.3641  0.5133 -0.1333
   15CHL1    H8 1051   1.572   5.230   5.107 -0.3218  0.0307 -0.7006
   15CHL1   C14 1052   1.409   5.192   4.975  0.6000 -0.5149  0.7953
   15CHL1   H14 1053   1.305   5.167   5.004  0.2584 -0.8076 -0.6372
   15CHL1   C15 1054   1.453   5.074   4.890 -0.2849 -0.2782  0.1010
   15CHL1  H15A 1055   1.561   5.050   4.888 -0.2183 -0.0374  0.7093
   15CHL1  H15B 1056   1.396   4.986   4.927  1.8004 -1.1665  1.3560
   15CHL1   C16 1057   1.409   5.112   4.750  0.6866  0.0903 -0.8888
   15CHL1  H16A 1058   1.498   5.123   4.684  0.7940  0.9366 -0.6163
   15CHL1  H16B 1059   1.342   5.033   4.709  3.1525 -2.4669 -0.3779
   15CHL1   C17 1060   1.338   5.249   4.752  0.3201 -0.4045  0.1894
   15CHL1   H17 1061   1.231   5.229   4.776 -0.8992  1.7730 -2.8165
   15CHL1   C13 1062   1.398   5.318   4.880  0.5671 -0.4283 -0.2036
   15CHL1   C18 1063   1.542   5.365   4.846 -0.3520  0.5044 -0.2954
   15CHL1  H18A 1064   1.533   5.444   4.768 -2.1276  0.3945 -0.2540
   15CHL1  H18B 1065   1.603   5.405   4.930 -0.2984  0.0604 -0.1229
   15CHL1  H18C 1066   1.596   5.276   4.809 -1.0574  0.5996 -1.6009
   15CHL1   C12 1067   1.315   5.420   4.953  0.2501  0.4121  0.4434
   15CHL1  H12A 1068   1.304   5.506   4.884 -0.3369 -0.4203 -0.5335
   15CHL1  H12B 1069   1.210   5.384   4.963 -0.9524  3.0314 -1.5130
   15CHL1   C11 1070   1.364   5.458   5.093 -0.2221  0.7482 -0.1758
   15CHL1  H11A 1071   1.452   5.525   5.094  1.8075 -1.7494 -0.0507
   15CHL1  H11B 1072   1.290   5.528   5.136  0.0232  1.1098 -0.3428
   15CHL1    C9 1073   1.384   5.333   5.185 -0.8281 -0.4271  0.2597
   15CHL1    H9 1074   1.283   5.289   5.200 -0.0197 -1.8114  1.9951
   15CHL1   C10 1075   1.448   5.360   5.319  0.5004 -0.4887 -0.0257
   15CHL1   C19 1076   1.590   5.427   5.299 -0.2883 -0.5427  0.1518
   15CHL1  H19A 1077   1.620   5.459   5.401  1.6355  2.7043 -1.2827
   15CHL1  H19B 1078   1.670   5.355   5.269  0.1651 -0.2214  0.5788
   15CHL1  H19C 1079   1.586   5.514   5.231 -2.8231  0.1024  1.0243
   15CHL1    C1 1080   1.355   5.470   5.386  0.1221  0.0624 -0.0248
   15CHL1   H1A 1081   1.371   5.569   5.339  0.7972 -0.1599 -0.2764
   15CHL1   H1B 1082   1.251   5.436   5.363  0.4505 -0.8559 -0.2173
   15CHL1    C2 1083   1.376   5.493   5.538  0.4548 -0.6633 -0.4099
   15CHL1   H2A 1084   1.296   5.556   5.581  1.8183 -0.7171  2.4472
   15CHL1   H2B 1085   1.477   5.538   5.548  0.5386  0.1608 -3.8356
   15CHL1   C20 1086   1.346   5.312   4.613 -0.1004 -0.3828 -0.3432
   15CHL1   H20 1087   1.452   5.316   4.580  1.1463 -2.3530  2.9109
   15CHL1   C21 1088   1.295   5.453   4.610  0.1731 -0.4101  0.6624
   15CHL1  H21A 1089   1.347   5.528   4.673 -1.4639  0.9888  0.4242
   15CHL1  H21B 1090   1.186   5.463   4.633 -0.1021 -0.5710 -0.5459
   15CHL1  H21C 1091   1.315   5.489   4.508 -0.3418 -0.7926  0.4215
   15CHL1   C22 1092   1.263   5.237   4.501 -0.4702 -0.4107  0.0016
   15CHL1  H22A 1093   1.259   5.127   4.518  1.8630 -0.4983  0.2664
   15CHL1  H22B 1094   1.158   5.275   4.498 -0.6138 -0.8094 -0.1006
   15CHL1   C23 1095   1.331   5.241   4.365 -0.1637  0.3181  0.3700
   15CHL1  H23A 1096   1.382   5.339   4.357 -0.8387  0.6826  0.4966
   15CHL1  H23B 1097   1.412   5.165   4.364 -0.1788  0.3066 -0.1892
   15CHL1   C24 1098   1.238   5.229   4.234  0.6866 -0.4340 -0.2331
   15CHL1  H24A 1099   1.203   5.123   4.239  2.0301 -0.9082 -0.4758
   15CHL1  H24B 1100   1.147   5.290   4.253  1.2023  0.0497  0.7559
   15CHL1   C25 1101   1.306   5.245   4.095 -0.1748 -0.6346 -0.1990
   15CHL1   H25 1102   1.391   5.173   4.092  0.6440  0.1023  2.4741
   15CHL1   C26 1103   1.202   5.214   3.992  0.0934  0.2316  0.3843
   15CHL1  H26A 1104   1.243   5.223   3.889 -0.1342 -0.7722  0.1878
   15CHL1  H26B 1105   1.162   5.111   4.004 -0.9009  0.2424 -2.1881
   15CHL1  H26C 1106   1.107   5.271   4.002  0.7853  1.2698  1.2449
   15CHL1   C27 1107   1.357   5.391   4.086  0.2020  0.8247 -0.1101
   15CHL1  H27A 1108   1.384   5.416   3.981  3.0282 -0.8660  0.1140
   15CHL1  H27B 1109   1.274   5.456   4.121 -0.3744  0.2674 -0.4173
   15CHL1  H27C 1110   1.449   5.413   4.144  0.8678 -0.7571 -0.4930
   16CHL1    C3 1111   0.923   2.406   5.682  1.5041 -0.0001  0.2027
   16CHL1    H3 1112   1.001   2.329   5.702  1.1964 -0.5960 -0.8463
   16CHL1    O3 1113   0.862   2.453   5.803 -0.0422 -0.2713 -0.5553
   16CHL1   H3' 1114   0.822   2.535   5.773  0.1322 -1.1802 -3.5707
   16CHL1    C4 1115   0.992   2.529   5.616  0.5898 -0.1750 -0.0315
   16CHL1   H4A 1116   0.906   2.599   5.610 -0.5429 -1.4469  0.7732
   16CHL1   H4B 1117   1.071   2.568   5.683 -1.2725  3.5903  0.2599
   16CHL1    C5 1118   1.044   2.492   5.474  0.7567  0.7074 -0.2346
   16CHL1    C6 1119   1.174   2.505   5.441 -0.1733 -0.4266 -0.0235
   16CHL1    H6 1120   1.253   2.549   5.505  0.8789  0.2352 -1.7024
   16CHL1    C7 1121   1.231   2.471   5.302  0.4834 -0.7252 -0.3133
   16CHL1   H7A 1122   1.301   2.552   5.271 -0.5177  1.1847  2.0875
   16CHL1   H7B 1123   1.291   2.377   5.309  0.3422 -0.7220  1.6060
   16CHL1    C8 1124   1.127   2.450   5.190  0.0922  0.3906 -0.2406
   16CHL1    H8 1125   1.083   2.545   5.154 -1.8036 -0.8556 -1.3907
   16CHL1   C14 1126   1.184   2.366   5.068 -0.3303  0.3734 -0.2330
   16CHL1   H14 1127   1.209   2.264   5.104  2.3796  1.1988  0.4973
   16CHL1   C15 1128   1.313   2.416   5.004 -0.4664 -0.1554 -0.3672
   16CHL1  H15A 1129   1.304   2.524   4.978 -0.8058 -0.2316 -0.5705
   16CHL1  H15B 1130   1.405   2.401   5.065 -1.6375  1.1697  1.8773
   16CHL1   C16 1131   1.321   2.340   4.868  0.3511 -0.0496 -0.3600
   16CHL1  H16A 1132   1.336   2.426   4.799 -2.5577 -0.2456 -1.3871
   16CHL1  H16B 1133   1.407   2.270   4.871 -0.9298 -1.6763  2.1149
   16CHL1   C17 1134   1.182   2.263   4.855  0.1549  0.2170 -0.0438
   16CHL1   H17 1135   1.195   2.160   4.894  0.7179 -1.0483 -3.3042
   16CHL1   C13 1136   1.086   2.329   4.953 -0.3773 -0.2227  0.2065
   16CHL1   C18 1137   1.033   2.461   4.888 -0.2286  0.5489  0.2474
   16CHL1  H18A 1138   0.943   2.447   4.825  0.3756  0.0600 -0.5243
   16CHL1  H18B 1139   1.005   2.527   4.973  0.8805  1.4701 -0.0662
   16CHL1  H18C 1140   1.104   2.535   4.845  0.3308  0.0784  0.3540
   16CHL1   C12 1141   0.968   2.253   5.011  0.3352  0.3696 -0.7394
   16CHL1  H12A 1142   0.887   2.248   4.935 -0.4275  0.5101  0.0469
   16CHL1  H12B 1143   1.004   2.150   5.031 -0.5506 -0.0826 -1.3886
   16CHL1   C11 1144   0.907   2.323   5.138  0.3225 -0.4340 -0.1488
   16CHL1  H11A 1145   0.851   2.414   5.109 -0.4682 -0.0388  2.4054
   16CHL1  H11B 1146   0.839   2.254   5.192 -2.1299  0.6682 -1.6317
   16CHL1    C9 1147   1.006   2.375   5.249 -0.0856 -0.0875 -0.0333
   16CHL1    H9 1148   1.056   2.282   5.284 -1.0214  0.0315  1.6939
   16CHL1   C10 1149   0.943   2.428   5.378 -0.2238 -0.4909 -0.1645
   16CHL1   C19 1150   0.841   2.536   5.340  0.1303  0.4389  0.1284
   16CHL1  H19A 1151   0.798   2.598   5.421  0.8478 -0.5407  1.2749
   16CHL1  H19B 1152   0.899   2.606   5.276  1.7026 -0.9008  0.0513
   16CHL1  H19C 1153   0.746   2.496   5.297 -0.6462  0.9999  1.2633
   16CHL1    C1 1154   0.865   2.313   5.446 -0.1556  0.3990  0.1283
   16CHL1   H1A 1155   0.775   2.295   5.384  1.1723  0.5468 -1.9301
   16CHL1   H1B 1156   0.931   2.225   5.453 -0.0830  0.4492  0.0690
   16CHL1    C2 1157   0.821   2.344   5.593  0.0717 -0.2306  0.4301
   16CHL1   H2A 1158   0.804   2.241   5.630  1.3721 -1.9813 -3.2641
   16CHL1   H2B 1159   0.723   2.396   5.587 -0.5960 -1.4997  0.0502
   16CHL1   C20 1160   1.125   2.245   4.712  0.3576 -0.5811 -0.0109
   16CHL1   H20 1161   1.015   2.259   4.720  0.2393 -2.1893  2.2091
   16CHL1   C21 1162   1.140   2.095   4.678 -0.3649 -0.2376 -0.3239
   16CHL1  H21A 1163   1.247   2.064   4.691 -0.5109 -0.0184  1.7624
   16CHL1  H21B 1164   1.106   2.071   4.576 -0.5875  3.0452 -1.1160
   16CHL1  H21C 1165   1.087   2.033   4.754  0.3582  0.4341  0.7602
   16CHL1   C22 1166   1.192   2.339   4.603  0.4776  0.4035 -0.0924
   16CHL1  H22A 1167   1.226   2.435   4.647  2.0223 -0.4168  0.6006
   16CHL1  H22B 1168   1.276   2.285   4.554 -0.6854 -0.2906 -1.3738
   16CHL1   C23 1169   1.089   2.373   4.494 -0.5356  0.3898 -0.1090
   16CHL1  H23A 1170   1.060   2.275   4.451  1.0115 -0.7837  1.3687
   16CHL1  H23B 1171   0.997   2.412   4.542  0.3284  0.2176  1.7766
   16CHL1   C24 1172   1.147   2.462   4.387  0.3644 -0.1529 -0.8269
   16CHL1  H24A 1173   1.168   2.559   4.436 -3.0957 -0.0626  0.8036
   16CHL1  H24B 1174   1.250   2.427   4.362  2.0943  2.1165  2.4043
   16CHL1   C25 1175   1.061   2.502   4.265  0.3725  0.5616 -0.1363
   16CHL1   H25 1176   1.032   2.413   4.204  3.0158 -0.0688 -0.5880
   16CHL1   C26 1177   0.941   2.579   4.303  0.1092 -0.5091 -0.3398
   16CHL1  H26A 1178   0.878   2.521   4.374 -2.3710  0.0741 -1.9320
   16CHL1  H26B 1179   0.968   2.677   4.347  0.5434 -0.9045  0.3008
   16CHL1  H26C 1180   0.879   2.608   4.216 -2.0339  0.9877  1.5518
   16CHL1   C27 1181   1.144   2.591   4.172  0.5017 -0.0324  0.0514
   16CHL1  H27A 1182   1.202   2.521   4.108  1.0273  2.3131 -2.1953
   16CHL1  H27B 1183   1.073   2.654   4.114  0.8821 -0.2382 -0.6561
   16CHL1  H27C 1184   1.220   2.651   4.225  0.5307  0.3393 -0.4050
   17CHL1    C3 1185   1.902   5.894   5.463 -0.2339  0.9245  0.3689
   17CHL1    H3 1186   1.858   5.995   5.462 -2.2849  0.0754  0.1621
   17CHL1    O3 1187   1.963   5.851   5.579  0.2518 -0.0071  0.2786
   17CHL1   H3' 1188   1.896   5.811   5.635 -1.2821  1.6320 -0.2987
   17CHL1    C4 1189   1.799   5.785   5.435  0.2530 -0.2729  0.0895
   17CHL1   H4A 1190   1.832   5.679   5.437 -0.7860 -0.6082  0.2893
   17CHL1   H4B 1191   1.721   5.799   5.513 -0.0035 -2.8275  0.3892
   17CHL1    C5 1192   1.742   5.801   5.292 -0.1998 -0.1894 -0.6388
   17CHL1    C6 1193   1.610   5.811   5.272  0.2701  0.1711 -0.6091
   17CHL1    H6 1194   1.541   5.806   5.357 -1.2740  0.7738 -1.7922
   17CHL1    C7 1195   1.552   5.823   5.132  0.1506  0.6755 -0.0320
   17CHL1   H7A 1196   1.469   5.750   5.118  1.4464 -0.7594 -0.6410
   17CHL1   H7B 1197   1.496   5.916   5.112 -1.3988 -0.0690  0.6245
   17CHL1    C8 1198   1.657   5.790   5.018  0.1940 -0.5490 -0.4493
   17CHL1    H8 1199   1.659   5.679   5.018 -0.4969 -0.5725 -1.2298
   17CHL1   C14 1200   1.605   5.829   4.880 -0.5606  0.0045 -0.8247
   17CHL1   H14 1201   1.584   5.937   4.897  2.8615  0.4956  1.3682
   17CHL1   C15 1202   1.469   5.768   4.827 -0.0506 -0.3259 -0.1943
   17CHL1  H15A 1203   1.472   5.658   4.845 -1.4398 -0.5027 -0.9155
   17CHL1  H15B 1204   1.386   5.822   4.877  0.9189  0.7869  0.2566
   17CHL1   C16 1205   1.473   5.801   4.679  0.3859  0.1015  0.5093
   17CHL1  H16A 1206   1.426   5.720   4.618 -0.6654  0.5812  0.6472
   17CHL1  H16B 1207   1.415   5.888   4.642  3.5897  1.2454 -2.3912
   17CHL1   C17 1208   1.619   5.842   4.643  0.0242 -0.1497 -0.2976
   17CHL1   H17 1209   1.613   5.953   4.645 -0.7955 -0.1900  0.6584
   17CHL1   C13 1210   1.703   5.810   4.770  0.0642 -0.1055  0.1006
   17CHL1   C18 1211   1.749   5.665   4.755 -0.1622  0.1285  0.1207
   17CHL1  H18A 1212   1.666   5.597   4.727  0.3042 -0.3010 -0.2481
   17CHL1  H18B 1213   1.838   5.650   4.689 -0.3003 -2.4473  0.4301
   17CHL1  H18C 1214   1.782   5.618   4.850  1.0562 -0.0375 -0.3680
   17CHL1   C12 1215   1.826   5.901   4.795 -0.3500  0.2167  0.5300
   17CHL1  H12A 1216   1.900   5.873   4.717  0.6386 -0.5306  1.6834
   17CHL1  H12B 1217   1.799   6.008   4.787 -2.7144 -0.4457 -1.0933
   17CHL1   C11 1218   1.884   5.867   4.931  0.1925  0.1984 -0.3985
   17CHL1  H11A 1219   1.926   5.764   4.920 -0.5260  0.1278 -3.5375
   17CHL1  H11B 1220   1.968   5.936   4.953  0.2012 -0.1713  0.8048
   17CHL1    C9 1221   1.787   5.868   5.052  0.1883 -0.0955  0.5103
   17CHL1    H9 1222   1.759   5.975   5.050  2.7978  0.6711 -1.4121
   17CHL1   C10 1223   1.848   5.820   5.183  0.6613  0.5138  0.2253
   17CHL1   C19 1224   1.908   5.678   5.166 -0.4479  1.3099  0.7449
   17CHL1  H19A 1225   1.964   5.639   5.253  0.8468 -1.7031 -1.2842
   17CHL1  H19B 1226   1.842   5.606   5.113  1.4054 -1.1823  1.6392
   17CHL1  H19C 1227   2.001   5.684   5.104  0.6372 -0.6135  2.0858
   17CHL1    C1 1228   1.967   5.915   5.220  0.3126 -0.1546 -0.3060
   17CHL1   H1A 1229   2.048   5.888   5.148 -0.9586 -3.2417 -0.7386
   17CHL1   H1B 1230   1.920   6.014   5.202  1.7486  0.2180 -2.3637
   17CHL1    C2 1231   2.019   5.904   5.362  0.3458  0.1458 -0.8467
   17CHL1   H2A 1232   2.082   5.992   5.386 -2.2273  1.0546  3.6653
   17CHL1   H2B 1233   2.081   5.814   5.379  1.5719  1.3674  1.7355
   17CHL1   C20 1234   1.664   5.822   4.492 -0.1113  0.1570  0.1521
   17CHL1   H20 1235   1.594   5.885   4.432 -1.9404 -0.0148  1.9558
   17CHL1   C21 1236   1.642   5.677   4.456 -0.1276  0.0714 -0.6375
   17CHL1  H21A 1237   1.677   5.655   4.353 -0.0080  0.0554 -0.5931
   17CHL1  H21B 1238   1.537   5.641   4.470 -0.3795  1.1781  0.5855
   17CHL1  H21C 1239   1.709   5.612   4.516  0.5835 -0.3110 -1.8228
   17CHL1   C22 1240   1.806   5.871   4.465 -0.1781  0.4507  0.5295
   17CHL1  H22A 1241   1.826   5.967   4.518 -0.3982  1.5066 -1.2500
   17CHL1  H22B 1242   1.893   5.808   4.495  2.2410  3.0409 -0.5860
   17CHL1   C23 1243   1.836   5.912   4.313 -0.1948  0.5873 -0.3059
   17CHL1  H23A 1244   1.941   5.949   4.319  0.1241 -0.4384  0.7464
   17CHL1  H23B 1245   1.833   5.813   4.263  0.5894  1.2858 -1.8228
   17CHL1   C24 1246   1.753   6.016   4.243  0.1833  0.3253 -0.3425
   17CHL1  H24A 1247   1.647   5.982   4.237  0.2839  0.0604 -0.6064
   17CHL1  H24B 1248   1.757   6.114   4.295  0.6044 -0.5622  1.3604
   17CHL1   C25 1249   1.793   6.020   4.095  0.1214  0.2679 -0.2569
   17CHL1   H25 1250   1.724   6.098   4.056 -2.3873 -1.7492 -0.1287
   17CHL1   C26 1251   1.940   6.056   4.066 -0.5581 -0.4636 -0.8620
   17CHL1  H26A 1252   1.954   6.159   4.105 -0.4125 -0.7293 -0.2031
   17CHL1  H26B 1253   2.006   5.986   4.123 -0.2114  0.4901 -0.0673
   17CHL1  H26C 1254   1.952   6.042   3.956  0.3206 -0.3146 -0.7916
   17CHL1   C27 1255   1.750   5.887   4.029 -0.0125 -0.2272  0.2691
   17CHL1  H27A 1256   1.643   5.859   4.031 -0.4896  1.4380 -0.3389
   17CHL1  H27B 1257   1.764   5.888   3.919  1.8277  0.4330  0.4618
   17CHL1  H27C 1258   1.805   5.799   4.070  1.2724  0.4434  0.0550
   18CHL1    C3 1259   3.950   0.321   5.590  0.4325 -0.2159 -0.0420
   18CHL1    H3 1260   3.906   0.420   5.615 -0.6379 -0.9088  0.9382
   18CHL1    O3 1261   4.012   0.270   5.703  0.3486  0.2958  0.5608
   18CHL1   H3' 1262   4.055   0.186   5.685 -1.8789 -1.1109  1.3277
   18CHL1    C4 1263   3.833   0.224   5.558  0.1400 -0.2061  0.2795
   18CHL1   H4A 1264   3.867   0.120   5.538 -3.3064 -1.3942  0.0810
   18CHL1   H4B 1265   3.765   0.226   5.645 -1.4778  2.8702 -0.9001
   18CHL1    C5 1266   3.754   0.258   5.433 -0.0412  0.4036 -0.5732
   18CHL1    C6 1267   3.621   0.279   5.432 -0.1759  0.1674 -0.1498
   18CHL1    H6 1268   3.576   0.274   5.532  2.5218  0.8580  1.1819
   18CHL1    C7 1269   3.536   0.316   5.308  0.1473 -0.4850 -0.3659
   18CHL1   H7A 1270   3.445   0.252   5.311  0.5228 -1.0119  1.8394
   18CHL1   H7B 1271   3.493   0.419   5.308 -0.8509 -0.8817  0.4852
   18CHL1    C8 1272   3.613   0.302   5.175 -0.3083 -0.5111 -0.2329
   18CHL1    H8 1273   3.612   0.195   5.143 -0.8932 -0.3302 -0.8328
   18CHL1   C14 1274   3.555   0.386   5.064 -0.3951 -0.6027  0.2391
   18CHL1   H14 1275   3.575   0.489   5.102 -1.3977 -0.0681 -0.6315
   18CHL1   C15 1276   3.407   0.377   5.040 -0.5686 -0.0236 -0.5706
   18CHL1  H15A 1277   3.391   0.269   5.016  2.1042 -1.0324  1.6425
   18CHL1  H15B 1278   3.349   0.416   5.126 -0.4526 -0.5173 -0.2668
   18CHL1   C16 1279   3.378   0.450   4.904  0.5847 -0.1216 -0.8348
   18CHL1  H16A 1280   3.307   0.388   4.845 -0.4901 -0.2616  0.5684
   18CHL1  H16B 1281   3.337   0.552   4.920  2.1931  0.2891  1.0914
   18CHL1   C17 1282   3.524   0.462   4.839 -0.0990  0.2993 -0.4843
   18CHL1   H17 1283   3.558   0.566   4.858 -0.4876  0.2426  0.6149
   18CHL1   C13 1284   3.617   0.377   4.927  0.1937 -0.9340  1.0212
   18CHL1   C18 1285   3.610   0.229   4.886 -0.3276  0.2871  0.6488
   18CHL1  H18A 1286   3.507   0.188   4.886  0.0137 -0.6250  1.9954
   18CHL1  H18B 1287   3.650   0.210   4.784 -0.5901  0.4712  0.5102
   18CHL1  H18C 1288   3.677   0.168   4.951  1.3907  0.7243 -0.6298
   18CHL1   C12 1289   3.764   0.430   4.944  0.2428  0.1030 -0.5999
   18CHL1  H12A 1290   3.831   0.401   4.861  1.0396  0.0970  0.0300
   18CHL1  H12B 1291   3.746   0.540   4.948  0.1478  0.0592  1.4166
   18CHL1   C11 1292   3.835   0.361   5.065  0.1831  0.1333 -0.2297
   18CHL1  H11A 1293   3.868   0.261   5.033  1.9635  0.7359 -0.3804
   18CHL1  H11B 1294   3.924   0.427   5.077  1.7101 -1.7451 -0.8847
   18CHL1    C9 1295   3.753   0.350   5.197 -0.8644 -0.8681 -0.0679
   18CHL1    H9 1296   3.738   0.455   5.231  0.1425 -1.3488  2.0216
   18CHL1   C10 1297   3.832   0.284   5.306  0.3293  0.2897 -0.3071
   18CHL1   C19 1298   3.868   0.143   5.247 -0.7690  0.3688 -0.0783
   18CHL1  H19A 1299   3.955   0.145   5.178  0.1882  0.7354  1.1016
   18CHL1  H19B 1300   3.895   0.072   5.328 -2.2701 -1.6926 -1.2706
   18CHL1  H19C 1301   3.791   0.096   5.183 -1.1572 -1.2852  1.5229
   18CHL1    C1 1302   3.957   0.363   5.343 -0.3264  0.2388  0.6979
   18CHL1   H1A 1303   4.023   0.353   5.254 -1.6150  0.0808 -0.2632
   18CHL1   H1B 1304   3.939   0.470   5.369 -3.4402  0.1672 -0.7188
   18CHL1    C2 1305   4.044   0.322   5.462 -0.0473 -0.5240  0.5802
   18CHL1   H2A 1306   4.114   0.407   5.478  0.0539 -0.0507 -1.9848
   18CHL1   H2B 1307   4.096   0.226   5.440  1.5780  0.6902 -1.1196
   18CHL1   C20 1308   3.517   0.439   4.686  0.4499 -0.4795 -0.9158
   18CHL1   H20 1309   3.507   0.331   4.662 -0.3899 -0.3683 -1.0991
   18CHL1   C21 1310   3.658   0.477   4.630 -0.1498 -0.5726  0.4122
   18CHL1  H21A 1311   3.683   0.584   4.642  1.0935 -0.7223 -0.6076
   18CHL1  H21B 1312   3.663   0.460   4.521  0.9038  3.2769 -0.2948
   18CHL1  H21C 1313   3.737   0.411   4.672 -0.0081 -0.0088  1.0591
   18CHL1   C22 1314   3.406   0.509   4.622  0.0552 -1.1147 -0.3856
   18CHL1  H22A 1315   3.308   0.468   4.655 -0.2180 -1.5120 -1.6541
   18CHL1  H22B 1316   3.401   0.616   4.653 -1.6070 -0.0277 -3.9688
   18CHL1   C23 1317   3.409   0.500   4.470 -0.2104  0.5556 -0.1388
   18CHL1  H23A 1318   3.320   0.546   4.421 -2.1729 -2.3442  0.4648
   18CHL1  H23B 1319   3.491   0.562   4.427  0.2395  1.0041  1.3234
   18CHL1   C24 1320   3.415   0.356   4.418 -0.7190 -0.0899  0.7164
   18CHL1  H24A 1321   3.509   0.302   4.442 -0.5643 -0.5652 -0.8522
   18CHL1  H24B 1322   3.330   0.309   4.471 -1.7078 -0.3122 -1.0023
   18CHL1   C25 1323   3.397   0.338   4.268  0.1232  0.3240 -0.1427
   18CHL1   H25 1324   3.302   0.391   4.248  1.1048  1.5929 -1.6136
   18CHL1   C26 1325   3.512   0.393   4.188 -0.1151  0.3363 -0.3455
   18CHL1  H26A 1326   3.606   0.348   4.228 -0.8727 -0.7314  0.2779
   18CHL1  H26B 1327   3.505   0.357   4.083  1.9221 -3.1271  0.5291
   18CHL1  H26C 1328   3.508   0.503   4.201 -1.5291  0.3411 -0.6850
   18CHL1   C27 1329   3.381   0.185   4.232 -0.4209  0.0563 -0.2986
   18CHL1  H27A 1330   3.356   0.172   4.125  0.5515 -1.1379 -0.4057
   18CHL1  H27B 1331   3.476   0.138   4.268  0.9333  2.1936 -0.9375
   18CHL1  H27C 1332   3.295   0.151   4.293 -0.6597  1.7485  0.3535
   19CHL1    C3 1333   2.216   1.089   5.644 -0.1411  0.4847 -0.1989
   19CHL1    H3 1334   2.141   1.171   5.645 -0.0808  0.6223 -2.3621
   19CHL1    O3 1335   2.221   1.030   5.776 -0.0301  0.4172  0.1842
   19CHL1   H3' 1336   2.134   0.994   5.791  1.0352 -2.7360 -0.5260
   19CHL1    C4 1337   2.179   0.979   5.546  0.5332 -0.7721 -0.1955
   19CHL1   H4A 1338   2.235   0.883   5.549  0.0992 -1.0200  0.0098
   19CHL1   H4B 1339   2.081   0.942   5.583  1.7464 -2.3022  1.6560
   19CHL1    C5 1340   2.170   1.031   5.408  0.2058  0.4071 -0.4880
   19CHL1    C6 1341   2.052   1.027   5.335 -0.3993 -0.5457 -0.8460
   19CHL1    H6 1342   1.970   0.964   5.371 -1.2098  1.5853  1.3209
   19CHL1    C7 1343   2.035   1.078   5.191  0.0880 -0.1155 -0.8603
   19CHL1   H7A 1344   1.980   1.004   5.129 -0.9670 -0.3009  0.2777
   19CHL1   H7B 1345   2.000   1.184   5.190  1.0125  0.1929 -1.5662
   19CHL1    C8 1346   2.176   1.095   5.126 -0.3818 -0.1852  0.1415
   19CHL1    H8 1347   2.213   0.992   5.110 -0.8143 -0.2830 -0.2413
   19CHL1   C14 1348   2.169   1.161   4.982 -0.6970  0.0692  0.5962
   19CHL1   H14 1349   2.109   1.251   5.007  0.2394  0.7000  0.6218
   19CHL1   C15 1350   2.079   1.101   4.867 -0.3836  0.1850 -0.6968
   19CHL1  H15A 1351   2.085   0.990   4.876 -0.1815  0.3744  2.6554
   19CHL1  H15B 1352   1.973   1.123   4.890 -0.9374 -3.3842  0.7283
   19CHL1   C16 1353   2.127   1.164   4.742  0.2618 -0.1861 -0.2857
   19CHL1  H16A 1354   2.132   1.080   4.670 -3.1134 -0.2082 -0.6828
   19CHL1  H16B 1355   2.055   1.230   4.689 -2.4324 -1.8325  1.0909
   19CHL1   C17 1356   2.250   1.242   4.783  0.0001  0.1415 -0.1946
   19CHL1   H17 1357   2.208   1.342   4.810 -0.9922 -0.1196 -0.6875
   19CHL1   C13 1358   2.300   1.198   4.923 -0.3362  0.2507 -0.0515
   19CHL1   C18 1359   2.383   1.066   4.909  0.8571  0.3664 -0.5076
   19CHL1  H18A 1360   2.418   1.026   5.006 -0.2096  0.8432  0.0854
   19CHL1  H18B 1361   2.319   0.984   4.870  1.5088  1.1098 -3.4051
   19CHL1  H18C 1362   2.473   1.079   4.845  1.0268  1.5443 -0.0439
   19CHL1   C12 1363   2.376   1.296   5.007  0.3434 -0.5209  0.1532
   19CHL1  H12A 1364   2.464   1.341   4.957  0.6119 -0.0897  0.9875
   19CHL1  H12B 1365   2.303   1.379   5.023  0.4746 -0.2732 -0.4954
   19CHL1   C11 1366   2.404   1.238   5.147  0.1015  0.4735 -0.0388
   19CHL1  H11A 1367   2.488   1.167   5.129 -1.6342 -1.5969 -0.2917
   19CHL1  H11B 1368   2.444   1.321   5.210  0.0841  0.1238  0.4341
   19CHL1    C9 1369   2.280   1.176   5.214  0.0311 -0.3714 -0.3011
   19CHL1    H9 1370   2.216   1.262   5.244 -0.5049 -1.7483  2.9102
   19CHL1   C10 1371   2.302   1.108   5.354 -0.1550  0.0193  0.1500
   19CHL1   C19 1372   2.418   1.009   5.336 -0.5275 -0.0429  0.3140
   19CHL1  H19A 1373   2.522   1.047   5.347 -0.0655 -1.8629  3.1565
   19CHL1  H19B 1374   2.425   0.942   5.424 -0.0392  0.0811  0.3754
   19CHL1  H19C 1375   2.408   0.938   5.251  1.5302 -0.2861  0.2187
   19CHL1    C1 1376   2.352   1.205   5.461  0.3946 -0.1861  0.0661
   19CHL1   H1A 1377   2.454   1.241   5.436  0.6856 -0.8990  0.1799
   19CHL1   H1B 1378   2.280   1.289   5.451  1.2339  0.5172 -0.2052
   19CHL1    C2 1379   2.349   1.142   5.603  0.7048 -0.2119  0.2266
   19CHL1   H2A 1380   2.382   1.221   5.673 -0.0487  0.4268 -0.1250
   19CHL1   H2B 1381   2.421   1.057   5.607  0.5663 -0.3244  0.3310
   19CHL1   C20 1382   2.355   1.259   4.673  1.5050 -0.2000 -0.2742
   19CHL1   H20 1383   2.445   1.300   4.725  0.2857  2.7416 -0.2625
   19CHL1   C21 1384   2.294   1.383   4.592  0.0304  0.5319  0.1422
   19CHL1  H21A 1385   2.194   1.355   4.551 -1.8348  0.9650  3.9647
   19CHL1  H21B 1386   2.361   1.416   4.510  0.8489 -0.2940  0.4645
   19CHL1  H21C 1387   2.266   1.473   4.652 -0.5601 -0.3212  1.1891
   19CHL1   C22 1388   2.397   1.137   4.584  0.2085  0.3737  0.3080
   19CHL1  H22A 1389   2.431   1.055   4.651  1.1878  0.3149 -0.2594
   19CHL1  H22B 1390   2.302   1.112   4.532 -0.5111  2.8947  0.2649
   19CHL1   C23 1391   2.515   1.163   4.495 -0.0577 -0.0920 -0.1584
   19CHL1  H23A 1392   2.484   1.221   4.405  2.1962  0.1051 -0.8505
   19CHL1  H23B 1393   2.593   1.221   4.548  0.1647  0.3614 -0.9643
   19CHL1   C24 1394   2.577   1.040   4.426  0.0284  0.0424 -0.4958
   19CHL1  H24A 1395   2.659   0.987   4.480 -1.4255 -3.9417 -1.8163
   19CHL1  H24B 1396   2.496   0.964   4.414 -0.1200  0.1807 -0.3751
   19CHL1   C25 1397   2.629   1.076   4.281 -0.1363  0.3212 -0.0306
   19CHL1   H25 1398   2.665   1.181   4.290  1.4034 -0.2348  0.4865
   19CHL1   C26 1399   2.747   0.991   4.235  0.1253 -0.0506  0.0956
   19CHL1  H26A 1400   2.827   0.997   4.312 -0.9626 -0.7909  1.3280
   19CHL1  H26B 1401   2.714   0.886   4.221 -0.1642 -0.0277  0.5615
   19CHL1  H26C 1402   2.787   1.024   4.137 -0.1760 -2.1564 -0.7928
   19CHL1   C27 1403   2.518   1.082   4.172  0.5167 -0.6861 -0.0260
   19CHL1  H27A 1404   2.556   1.141   4.086 -0.1841 -1.0797 -0.6212
   19CHL1  H27B 1405   2.482   0.981   4.144  2.1272 -1.3510  0.2160
   19CHL1  H27C 1406   2.431   1.135   4.217  0.6360 -0.3251 -0.2246
   20CHL1    C3 1407   1.843   0.637   5.517  0.2752 -0.1452 -0.7495
   20CHL1    H3 1408   1.902   0.724   5.556 -1.3980  0.2753  1.0018
   20CHL1    O3 1409   1.813   0.554   5.623  0.4861 -0.3765 -0.6390
   20CHL1   H3' 1410   1.743   0.596   5.674  1.9699  2.2579 -0.5998
   20CHL1    C4 1411   1.705   0.683   5.452 -0.0005 -0.3167 -0.8943
   20CHL1   H4A 1412   1.627   0.604   5.460 -0.1533  0.0323  1.6110
   20CHL1   H4B 1413   1.662   0.756   5.524 -0.6466 -0.2753 -1.3113
   20CHL1    C5 1414   1.708   0.728   5.312  0.0199  0.4393 -0.1479
   20CHL1    C6 1415   1.652   0.844   5.275  0.0380 -0.0131 -0.0083
   20CHL1    H6 1416   1.598   0.913   5.341  0.2592 -0.1491  0.3192
   20CHL1    C7 1417   1.648   0.886   5.133 -0.5232 -0.3631 -0.2647
   20CHL1   H7A 1418   1.551   0.931   5.103 -1.6409 -0.2387  3.0959
   20CHL1   H7B 1419   1.715   0.974   5.129  2.0971 -2.3003 -2.2031
   20CHL1    C8 1420   1.695   0.788   5.022  1.1549  0.2969  0.4051
   20CHL1    H8 1421   1.611   0.717   5.009  2.4592 -1.4002  0.8282
   20CHL1   C14 1422   1.735   0.858   4.888 -0.7605  0.5388  0.2820
   20CHL1   H14 1423   1.821   0.924   4.912  1.7618 -2.5537  0.3563
   20CHL1   C15 1424   1.629   0.950   4.823 -0.0439  0.2478  0.3209
   20CHL1  H15A 1425   1.529   0.903   4.832  0.0203 -0.0689 -0.5446
   20CHL1  H15B 1426   1.616   1.047   4.876  0.9083 -0.8173  2.6488
   20CHL1   C16 1427   1.681   0.960   4.674 -0.2128 -0.3229 -0.8219
   20CHL1  H16A 1428   1.593   0.937   4.610 -2.0687  2.1234  0.6584
   20CHL1  H16B 1429   1.706   1.066   4.654 -0.8169  0.2688  1.2220
   20CHL1   C17 1430   1.804   0.866   4.664 -0.1810  0.0270 -0.4427
   20CHL1   H17 1431   1.898   0.919   4.688  1.5250 -1.6183 -3.0046
   20CHL1   C13 1432   1.789   0.765   4.772  0.0819  0.0856 -0.2120
   20CHL1   C18 1433   1.689   0.657   4.737  1.1055 -1.1452 -0.3744
   20CHL1  H18A 1434   1.730   0.592   4.657  0.0937  0.1784 -2.0341
   20CHL1  H18B 1435   1.669   0.597   4.828  3.7572  0.2665  1.2575
   20CHL1  H18C 1436   1.589   0.697   4.711  1.3860  1.4206  2.0523
   20CHL1   C12 1437   1.922   0.709   4.839 -0.8056  0.7933 -0.1253
   20CHL1  H12A 1438   1.966   0.637   4.767 -0.4271  1.2585 -0.3667
   20CHL1  H12B 1439   1.986   0.799   4.857  0.1077  0.1775 -0.2389
   20CHL1   C11 1440   1.890   0.624   4.972  0.9656 -0.6108  0.7433
   20CHL1  H11A 1441   1.822   0.541   4.946 -0.2724  0.0762  1.6631
   20CHL1  H11B 1442   1.990   0.585   5.003  0.6689 -0.8398  1.4295
   20CHL1    C9 1443   1.811   0.710   5.081 -0.7583  0.7594  0.0536
   20CHL1    H9 1444   1.882   0.791   5.107  0.0744 -0.4172  1.6504
   20CHL1   C10 1445   1.794   0.645   5.219  0.4392  0.4548 -0.1167
   20CHL1   C19 1446   1.723   0.508   5.199  0.2300  0.1325  0.1509
   20CHL1  H19A 1447   1.634   0.518   5.133 -0.4987 -0.6803  0.9945
   20CHL1  H19B 1448   1.780   0.422   5.158 -3.7749 -1.7009 -2.1881
   20CHL1  H19C 1449   1.690   0.470   5.297 -0.8970  0.2645 -0.1653
   20CHL1    C1 1450   1.940   0.626   5.281  0.2978 -0.4371 -0.7427
   20CHL1   H1A 1451   1.990   0.554   5.213  0.9923  1.7794 -2.7134
   20CHL1   H1B 1452   2.001   0.719   5.279  1.3234 -1.0456  0.4808
   20CHL1    C2 1453   1.936   0.563   5.427 -0.0751 -0.9934  0.3770
   20CHL1   H2A 1454   2.041   0.557   5.464  0.5505 -0.3040 -1.1693
   20CHL1   H2B 1455   1.889   0.463   5.417 -0.9992 -0.6208  0.9445
   20CHL1   C20 1456   1.824   0.798   4.523  0.4538 -0.5368 -0.3200
   20CHL1   H20 1457   1.748   0.718   4.506  2.0119 -2.1157 -0.1222
   20CHL1   C21 1458   1.967   0.732   4.514 -0.0329 -0.1858 -0.6333
   20CHL1  H21A 1459   1.997   0.728   4.407  0.0969  1.5714 -0.6924
   20CHL1  H21B 1460   1.988   0.631   4.556 -0.7234  0.3631  1.1329
   20CHL1  H21C 1461   2.043   0.797   4.563  0.2700 -0.1519 -1.1452
   20CHL1   C22 1462   1.814   0.896   4.407  0.0855 -0.6587  0.3203
   20CHL1  H22A 1463   1.817   0.833   4.315  1.3143 -1.4293  0.8631
   20CHL1  H22B 1464   1.721   0.956   4.407 -1.0513 -2.3326  0.8309
   20CHL1   C23 1465   1.930   1.001   4.404  0.3746 -0.0305  0.1082
   20CHL1  H23A 1466   1.933   1.063   4.496 -0.7096  0.7406 -0.3603
   20CHL1  H23B 1467   2.028   0.950   4.390 -1.1063 -3.1443  0.0800
   20CHL1   C24 1468   1.918   1.108   4.293 -0.4908  0.3997 -0.5191
   20CHL1  H24A 1469   1.832   1.172   4.322 -0.9675 -0.6960  0.5496
   20CHL1  H24B 1470   1.998   1.185   4.297  0.3704 -0.3833 -1.9566
   20CHL1   C25 1471   1.901   1.052   4.153  0.6612  0.0004 -0.0813
   20CHL1   H25 1472   1.808   0.992   4.145  0.1760  0.0980  3.1328
   20CHL1   C26 1473   1.901   1.163   4.048  0.5246 -0.3123 -0.2376
   20CHL1  H26A 1474   1.847   1.124   3.959 -0.9312  0.9440  0.0635
   20CHL1  H26B 1475   1.831   1.237   4.091  0.1850 -0.2784 -0.8349
   20CHL1  H26C 1476   2.005   1.198   4.026  0.7741 -1.6451 -1.3340
   20CHL1   C27 1477   2.019   0.966   4.113 -0.2267  0.6383 -0.2619
   20CHL1  H27A 1478   2.007   0.931   4.009 -0.9921 -2.0005  0.6301
   20CHL1  H27B 1479   2.114   1.023   4.109 -0.0799  0.3558 -0.7766
   20CHL1  H27C 1480   2.024   0.868   4.165  2.7610  0.0292 -1.5207
   21CHL1    C3 1481   6.850   2.197   5.411  0.1554  0.7109 -0.2223
   21CHL1    H3 1482   6.748   2.222   5.374  1.5648 -0.2782 -5.5408
   21CHL1    O3 1483   6.856   2.180   5.552 -0.7817 -0.2270  0.1712
   21CHL1   H3' 1484   6.883   2.268   5.580  2.4579 -0.7887 -0.8266
   21CHL1    C4 1485   6.905   2.063   5.353  0.6368  0.2271 -0.0797
   21CHL1   H4A 1486   7.003   2.029   5.391  0.9236  0.5106 -0.5485
   21CHL1   H4B 1487   6.825   1.994   5.385  0.3153  0.8156  0.4135
   21CHL1    C5 1488   6.931   2.070   5.202  1.1714  0.3421  0.8397
   21CHL1    C6 1489   6.868   1.980   5.123  0.4147 -0.2120 -0.1978
   21CHL1    H6 1490   6.810   1.896   5.166 -1.2961  0.7830 -0.4519
   21CHL1    C7 1491   6.884   1.965   4.977 -0.8340 -0.1446  0.1985
   21CHL1   H7A 1492   6.903   1.857   4.956 -0.5764  0.4203 -2.9957
   21CHL1   H7B 1493   6.792   2.000   4.926 -0.6810 -0.4881 -0.3256
   21CHL1    C8 1494   6.994   2.062   4.925  0.0770  0.3820  0.0719
   21CHL1    H8 1495   7.086   2.007   4.956  0.0061  0.0214 -0.3486
   21CHL1   C14 1496   6.982   2.076   4.772 -0.3342  0.9925 -0.3563
   21CHL1   H14 1497   6.881   2.119   4.760 -0.8771  0.0087  0.5389
   21CHL1   C15 1498   6.973   1.946   4.688  0.5052 -0.5264 -0.7900
   21CHL1  H15A 1499   7.031   1.861   4.729 -0.9422 -1.5939 -0.8743
   21CHL1  H15B 1500   6.865   1.921   4.685  1.0318 -3.1571  0.0035
   21CHL1   C16 1501   7.029   1.982   4.552  0.0010 -0.1051  0.5171
   21CHL1  H16A 1502   7.121   1.920   4.545 -1.0603 -1.6570 -0.3093
   21CHL1  H16B 1503   6.970   1.955   4.462  2.6875  0.1195 -1.4378
   21CHL1   C17 1504   7.074   2.137   4.557  0.1813 -0.1086  0.0612
   21CHL1   H17 1505   6.980   2.177   4.515  0.9543  0.3941 -1.2416
   21CHL1   C13 1506   7.089   2.161   4.713 -0.2386  0.1408  0.6297
   21CHL1   C18 1507   7.234   2.105   4.743  0.7746 -0.9356 -0.2109
   21CHL1  H18A 1508   7.252   2.072   4.847  0.5117 -1.7836 -0.4272
   21CHL1  H18B 1509   7.253   2.010   4.689  0.3641 -1.0207 -0.2073
   21CHL1  H18C 1510   7.306   2.188   4.725 -0.1099  0.2853  1.6403
   21CHL1   C12 1511   7.068   2.299   4.770 -0.0675 -0.1529 -0.2179
   21CHL1  H12A 1512   7.150   2.361   4.727  0.8341 -0.2937  1.2549
   21CHL1  H12B 1513   6.966   2.341   4.759  0.9348  2.9844  1.1891
   21CHL1   C11 1514   7.098   2.291   4.926 -0.0484  0.0482  1.0486
   21CHL1  H11A 1515   7.200   2.253   4.945 -0.3647 -0.8402  1.0146
   21CHL1  H11B 1516   7.086   2.394   4.967 -0.7238  1.4271 -2.2502
   21CHL1    C9 1517   6.987   2.199   4.995 -0.0811  0.2117 -0.3378
   21CHL1    H9 1518   6.889   2.238   4.963  0.1282  0.5503 -0.5679
   21CHL1   C10 1519   7.006   2.187   5.147 -0.0812  0.4366 -0.5879
   21CHL1   C19 1520   7.157   2.161   5.179  0.2455  0.3514 -0.1135
   21CHL1  H19A 1521   7.206   2.260   5.168  0.3967  0.3241  0.3272
   21CHL1  H19B 1522   7.175   2.132   5.284 -0.2902 -0.4744 -0.2378
   21CHL1  H19C 1523   7.205   2.082   5.117 -1.9023 -1.7400  0.7167
   21CHL1    C1 1524   6.960   2.314   5.219  1.1155 -0.5282  0.3945
   21CHL1   H1A 1525   7.033   2.394   5.194  0.8348 -0.6297 -0.8290
   21CHL1   H1B 1526   6.857   2.329   5.181  0.7561 -1.6609  0.8936
   21CHL1    C2 1527   6.947   2.305   5.372  0.0396  0.5373  0.6317
   21CHL1   H2A 1528   6.904   2.398   5.414 -1.7119 -0.2826  0.7085
   21CHL1   H2B 1529   7.048   2.283   5.413  0.4831  1.3794  0.0412
   21CHL1   C20 1530   7.183   2.163   4.457  0.2822 -0.2787 -0.1626
   21CHL1   H20 1531   7.282   2.141   4.502 -0.1168 -1.4495  0.1821
   21CHL1   C21 1532   7.175   2.313   4.434  0.5071 -0.4493  0.1681
   21CHL1  H21A 1533   7.182   2.372   4.527 -1.1282 -2.6325  1.7847
   21CHL1  H21B 1534   7.078   2.340   4.388  0.9737 -0.5539 -0.9143
   21CHL1  H21C 1535   7.257   2.348   4.367 -0.9306  1.0916 -0.8592
   21CHL1   C22 1536   7.168   2.079   4.328  0.0605 -0.3653 -0.4175
   21CHL1  H22A 1537   7.181   1.971   4.352 -0.0878 -0.2713  0.1083
   21CHL1  H22B 1538   7.065   2.091   4.287 -0.2044 -2.5427 -0.4867
   21CHL1   C23 1539   7.282   2.100   4.230 -0.4624  0.4538 -0.0848
   21CHL1  H23A 1540   7.299   2.207   4.205  0.7209 -0.0264 -1.5381
   21CHL1  H23B 1541   7.362   2.068   4.299 -2.7055  1.5676  3.2564
   21CHL1   C24 1542   7.266   2.025   4.095 -0.3272 -0.0812 -0.0268
   21CHL1  H24A 1543   7.256   1.918   4.123 -2.3120  0.3311  1.0636
   21CHL1  H24B 1544   7.173   2.056   4.042 -0.8046  0.5511  1.1524
   21CHL1   C25 1545   7.384   2.044   3.990 -0.3523 -0.1162  0.2919
   21CHL1   H25 1546   7.476   2.027   4.049 -0.8496 -0.0761  1.0910
   21CHL1   C26 1547   7.375   1.941   3.872  0.5100 -0.5638 -0.7480
   21CHL1  H26A 1548   7.461   1.945   3.801 -0.4757  0.4860 -1.9303
   21CHL1  H26B 1549   7.371   1.841   3.920 -0.2130  0.8627  2.4013
   21CHL1  H26C 1550   7.283   1.955   3.812 -0.2320  1.9805  0.8267
   21CHL1   C27 1551   7.373   2.179   3.919 -0.1426 -0.3321 -0.4766
   21CHL1  H27A 1552   7.370   2.259   3.997 -1.1129 -0.5927 -0.2203
   21CHL1  H27B 1553   7.448   2.199   3.840 -1.2400  0.6445 -1.3226
   21CHL1  H27C 1554   7.277   2.182   3.863 -0.0961 -0.8726 -0.5859
   22CHL1    C3 1555   0.953   5.187   5.618 -0.2902  0.5274  0.6567
   22CHL1    H3 1556   0.915   5.085   5.598  1.9019 -0.1233 -0.5138
   22CHL1    O3 1557   1.006   5.180   5.749  0.1268 -0.4753 -0.2600
   22CHL1   H3' 1558   0.998   5.268   5.787 -1.5008 -0.9497  0.5937
   22CHL1    C4 1559   1.065   5.211   5.513 -0.0457 -0.2906 -0.5259
   22CHL1   H4A 1560   1.118   5.306   5.535  0.8908 -0.8691 -0.2702
   22CHL1   H4B 1561   1.148   5.141   5.533 -0.4751 -0.0484  2.6577
   22CHL1    C5 1562   1.017   5.222   5.371 -0.2194  1.1465 -0.3147
   22CHL1    C6 1563   1.079   5.140   5.281  0.0725 -0.1808 -0.1900
   22CHL1    H6 1564   1.163   5.077   5.314  0.1651  0.5801  1.0888
   22CHL1    C7 1565   1.030   5.152   5.142 -0.5848 -0.7347  0.1834
   22CHL1   H7A 1566   1.116   5.138   5.073 -1.9703 -2.2016 -1.3252
   22CHL1   H7B 1567   0.964   5.068   5.110 -1.2619 -0.6880  1.3804
   22CHL1    C8 1568   0.947   5.274   5.109 -0.4106 -0.3533 -0.5245
   22CHL1    H8 1569   1.019   5.358   5.112 -1.3856  0.6505 -2.7172
   22CHL1   C14 1570   0.881   5.249   4.977  0.6340  0.2080  0.1735
   22CHL1   H14 1571   0.794   5.184   4.999  1.7051 -0.5080  2.5466
   22CHL1   C15 1572   0.953   5.174   4.866  0.7893  0.5317 -0.2897
   22CHL1  H15A 1573   1.062   5.193   4.873  1.1351 -1.6930  1.7015
   22CHL1  H15B 1574   0.937   5.064   4.879 -0.7735  1.0710  3.7087
   22CHL1   C16 1575   0.902   5.238   4.733 -0.1745  0.0795  0.7359
   22CHL1  H16A 1576   0.996   5.286   4.697  0.4646 -0.4317  1.6793
   22CHL1  H16B 1577   0.874   5.160   4.659  1.1300  1.4788 -1.3517
   22CHL1   C17 1578   0.791   5.335   4.768  1.1252  0.9268  0.9265
   22CHL1   H17 1579   0.696   5.278   4.762  1.7772 -0.0358 -1.2322
   22CHL1   C13 1580   0.823   5.377   4.909  0.3649 -0.1215 -0.8293
   22CHL1   C18 1581   0.933   5.489   4.900 -0.1448 -0.4718  0.1758
   22CHL1  H18A 1582   1.030   5.459   4.855  0.3829 -0.3027  1.1776
   22CHL1  H18B 1583   0.901   5.589   4.865  2.1718  0.4754  0.6108
   22CHL1  H18C 1584   0.959   5.520   5.003  2.2008 -0.6654 -0.2992
   22CHL1   C12 1585   0.711   5.422   5.008 -0.6672  0.1438  0.6157
   22CHL1  H12A 1586   0.650   5.510   4.978  2.0273  2.1536  0.6858
   22CHL1  H12B 1587   0.637   5.339   5.013  1.2907 -1.7444 -0.4695
   22CHL1   C11 1588   0.757   5.438   5.162  0.7797  0.2791 -0.0021
   22CHL1  H11A 1589   0.819   5.529   5.160  0.4791  0.4817 -0.2013
   22CHL1  H11B 1590   0.675   5.454   5.236 -0.2861 -1.4736 -0.7307
   22CHL1    C9 1591   0.837   5.313   5.210  0.0476  0.2821  0.7172
   22CHL1    H9 1592   0.757   5.237   5.219 -2.0876  2.2068 -0.7359
   22CHL1   C10 1593   0.895   5.316   5.350  0.4688  0.2025 -0.8699
   22CHL1   C19 1594   0.948   5.464   5.363  0.5444 -0.0502 -0.4069
   22CHL1  H19A 1595   1.013   5.490   5.277  0.8859 -0.8082 -0.3865
   22CHL1  H19B 1596   0.869   5.542   5.360 -0.8627 -1.4475 -1.3725
   22CHL1  H19C 1597   1.008   5.476   5.456 -0.9823  1.2802  0.4666
   22CHL1    C1 1598   0.781   5.281   5.459 -0.1151  0.3517  0.2170
   22CHL1   H1A 1599   0.698   5.354   5.448 -0.1280  0.6338  1.9510
   22CHL1   H1B 1600   0.742   5.178   5.443  0.3800 -0.1890  2.1962
   22CHL1    C2 1601   0.836   5.289   5.602  0.8363  0.0195  0.3023
   22CHL1   H2A 1602   0.760   5.256   5.676  1.2709  0.9927  1.2096
   22CHL1   H2B 1603   0.868   5.390   5.635  1.7958 -0.7636  1.8975
   22CHL1   C20 1604   0.768   5.442   4.664  0.0574  0.7514  0.0707
   22CHL1   H20 1605   0.856   5.510   4.663 -0.3807  1.3711  0.9788
   22CHL1   C21 1606   0.646   5.533   4.698 -0.1759 -0.4064 -0.1209
   22CHL1  H21A 1607   0.638   5.614   4.622  2.6624 -0.9413 -1.1083
   22CHL1  H21B 1608   0.671   5.586   4.792  0.0047  1.0433 -0.9576
   22CHL1  H21C 1609   0.554   5.471   4.708  0.4704 -1.9280 -2.7806
   22CHL1   C22 1610   0.743   5.387   4.521 -0.0158  0.1879  0.4250
   22CHL1  H22A 1611   0.800   5.296   4.494 -0.3294  0.4575 -1.3080
   22CHL1  H22B 1612   0.635   5.365   4.507 -0.2851  1.3584  0.5797
   22CHL1   C23 1613   0.782   5.477   4.400  0.3728  0.1611  0.3355
   22CHL1  H23A 1614   0.746   5.436   4.303 -1.3150 -0.7720  1.3033
   22CHL1  H23B 1615   0.737   5.578   4.410  0.4270  0.1873  0.3186
   22CHL1   C24 1616   0.933   5.511   4.391 -0.0017 -0.6072  0.1418
   22CHL1  H24A 1617   0.960   5.557   4.488 -1.2560 -1.8356  1.1102
   22CHL1  H24B 1618   0.995   5.419   4.383  1.6048  0.5215 -0.9124
   22CHL1   C25 1619   0.972   5.608   4.276 -1.0028 -0.3491  0.0895
   22CHL1   H25 1620   0.955   5.548   4.184 -0.0329 -1.4327  0.5853
   22CHL1   C26 1621   0.882   5.733   4.272 -0.1317  0.2574  0.2399
   22CHL1  H26A 1622   0.781   5.708   4.234  0.1541  1.0945 -1.1694
   22CHL1  H26B 1623   0.873   5.782   4.371  1.9074 -2.0004  1.6553
   22CHL1  H26C 1624   0.918   5.802   4.192  1.6942 -1.6097 -0.6616
   22CHL1   C27 1625   1.115   5.651   4.284 -0.4051  0.1762 -0.4047
   22CHL1  H27A 1626   1.132   5.740   4.348  3.3345 -0.9118  0.3619
   22CHL1  H27B 1627   1.165   5.570   4.342 -0.7290  0.2871  0.0305
   22CHL1  H27C 1628   1.155   5.660   4.181 -3.0941  1.4693 -1.4288
   23CHL1    C3 1629   0.237   2.118   5.366 -0.6946 -0.0014  0.7125
   23CHL1    H3 1630   0.163   2.050   5.320 -1.1936  0.0054  1.4955
   23CHL1    O3 1631   0.176   2.179   5.475  0.0023  0.8480 -0.2189
   23CHL1   H3' 1632   0.231   2.254   5.499 -2.3581  2.4875  0.3866
   23CHL1    C4 1633   0.344   2.014   5.404 -0.0381  0.4805 -0.3302
   23CHL1   H4A 1634   0.418   2.064   5.470  0.1806 -0.7953  0.4265
   23CHL1   H4B 1635   0.287   1.937   5.460 -1.4479  1.5061 -0.3184
   23CHL1    C5 1636   0.413   1.943   5.285 -0.0637  0.4719  0.3436
   23CHL1    C6 1637   0.418   1.809   5.271 -0.9525  0.4747 -0.2269
   23CHL1    H6 1638   0.370   1.745   5.346 -0.3124  2.4612  2.0185
   23CHL1    C7 1639   0.499   1.755   5.158 -0.7375 -0.0845  0.1069
   23CHL1   H7A 1640   0.563   1.672   5.195  0.1764  0.6468  0.1859
   23CHL1   H7B 1641   0.432   1.701   5.087 -0.5189 -0.2572  0.0320
   23CHL1    C8 1642   0.590   1.846   5.069  0.2207 -1.0011 -0.3964
   23CHL1    H8 1643   0.679   1.867   5.133  0.8952 -2.2991 -0.8776
   23CHL1   C14 1644   0.629   1.781   4.937 -0.2855 -0.0840 -0.0449
   23CHL1   H14 1645   0.531   1.774   4.885  0.1365 -1.8871 -0.6604
   23CHL1   C15 1646   0.676   1.632   4.933 -0.4341 -0.4435 -0.1550
   23CHL1  H15A 1647   0.759   1.608   5.002  0.4463 -2.2621 -1.7583
   23CHL1  H15B 1648   0.591   1.561   4.948 -0.8228  0.2642  1.2495
   23CHL1   C16 1649   0.731   1.623   4.793  0.1311 -0.4580  0.3149
   23CHL1  H16A 1650   0.820   1.556   4.792 -1.5143 -2.7870  0.7263
   23CHL1  H16B 1651   0.660   1.567   4.729 -1.1480 -0.1403  1.4089
   23CHL1   C17 1652   0.740   1.766   4.727 -0.2409 -0.2942 -0.0305
   23CHL1   H17 1653   0.655   1.777   4.657 -0.1290 -0.2185 -0.1549
   23CHL1   C13 1654   0.719   1.859   4.849 -0.6173 -0.2203 -1.0349
   23CHL1   C18 1655   0.849   1.888   4.930  0.8509  0.2541 -0.3935
   23CHL1  H18A 1656   0.895   1.791   4.958 -0.0633 -0.3536 -0.9604
   23CHL1  H18B 1657   0.915   1.957   4.872  0.1985  1.5592  0.3861
   23CHL1  H18C 1658   0.834   1.946   5.023  1.4291 -1.5208  0.8653
   23CHL1   C12 1659   0.654   1.999   4.819 -0.7438  0.5094 -0.1641
   23CHL1  H12A 1660   0.727   2.070   4.775  0.1155  2.9489  4.5145
   23CHL1  H12B 1661   0.572   1.977   4.747 -2.0754 -0.0859  1.4727
   23CHL1   C11 1662   0.596   2.071   4.945  0.1612  0.4015  0.3700
   23CHL1  H11A 1663   0.681   2.121   4.997 -1.8772  3.6364  0.8942
   23CHL1  H11B 1664   0.541   2.162   4.913  0.3602  0.5887  0.5537
   23CHL1    C9 1665   0.514   1.977   5.045  0.6177  0.4169 -0.1425
   23CHL1    H9 1666   0.426   1.953   4.982  2.2434  0.2873 -2.4538
   23CHL1   C10 1667   0.467   2.046   5.180  0.0605  0.9655 -0.1964
   23CHL1   C19 1668   0.588   2.124   5.234 -0.0003  0.8064  0.3478
   23CHL1  H19A 1669   0.646   2.187   5.163 -1.9769  0.2312 -1.8668
   23CHL1  H19B 1670   0.560   2.190   5.319  0.9019  0.5736  0.8467
   23CHL1  H19C 1671   0.656   2.046   5.276 -0.8448 -0.3732 -0.4137
   23CHL1    C1 1672   0.354   2.152   5.141  0.5758  0.6773  0.8934
   23CHL1   H1A 1673   0.401   2.226   5.073 -0.2311 -0.4529 -0.9786
   23CHL1   H1B 1674   0.271   2.103   5.085  0.5618  2.4185 -0.7124
   23CHL1    C2 1675   0.287   2.222   5.262 -0.2823  0.5857 -0.9763
   23CHL1   H2A 1676   0.195   2.273   5.225 -3.5546 -1.6864  3.0945
   23CHL1   H2B 1677   0.366   2.286   5.306  0.1179  0.7374 -1.8895
   23CHL1   C20 1678   0.871   1.780   4.638 -0.6304 -0.1866  0.5214
   23CHL1   H20 1679   0.960   1.772   4.704 -0.7143  0.3589  0.6995
   23CHL1   C21 1680   0.868   1.919   4.562  0.3317 -0.0266 -0.6459
   23CHL1  H21A 1681   0.955   1.923   4.493  0.7859 -0.9801 -0.1520
   23CHL1  H21B 1682   0.871   2.002   4.637 -0.7934 -2.8146  2.7466
   23CHL1  H21C 1683   0.771   1.922   4.509 -0.7222 -2.3113  0.9864
   23CHL1   C22 1684   0.876   1.662   4.529 -0.0350 -0.2312  0.4144
   23CHL1  H22A 1685   0.869   1.558   4.566 -1.0227 -0.3686 -0.1263
   23CHL1  H22B 1686   0.786   1.688   4.468 -0.5750 -1.3539  0.7168
   23CHL1   C23 1687   0.996   1.657   4.431 -0.0854 -0.2157 -0.1713
   23CHL1  H23A 1688   1.018   1.756   4.388 -0.4348  0.5636  1.3679
   23CHL1  H23B 1689   1.088   1.624   4.484 -0.7499  0.1282  1.2414
   23CHL1   C24 1690   0.974   1.565   4.309  0.3649  0.2037  0.0188
   23CHL1  H24A 1691   0.979   1.461   4.348  1.8579  0.1477 -0.2735
   23CHL1  H24B 1692   0.879   1.584   4.254 -0.5228  1.0211  1.7647
   23CHL1   C25 1693   1.091   1.568   4.203  0.2881 -0.2339  0.0505
   23CHL1   H25 1694   1.188   1.535   4.247 -0.6624 -1.7117  1.1152
   23CHL1   C26 1695   1.055   1.474   4.093  0.0853 -0.0404  0.5733
   23CHL1  H26A 1696   0.953   1.487   4.050  1.0156 -0.4985 -1.9497
   23CHL1  H26B 1697   1.132   1.476   4.013 -0.2004  0.2208  0.3026
   23CHL1  H26C 1698   1.050   1.369   4.129  0.5720 -0.4591 -0.5448
   23CHL1   C27 1699   1.112   1.713   4.145  0.1099 -0.0031  0.1790
   23CHL1  H27A 1700   1.152   1.787   4.217 -2.0024  1.9518 -0.5528
   23CHL1  H27B 1701   1.180   1.697   4.059 -0.5363  0.8274 -0.4988
   23CHL1  H27C 1702   1.020   1.754   4.099  1.2309  3.2725  0.6208
   24CHL1    C3 1703   1.472   6.840   5.554  0.1094  0.2959 -0.2072
   24CHL1    H3 1704   1.373   6.859   5.507 -0.6585 -0.8830  0.8679
   24CHL1    O3 1705   1.452   6.830   5.695 -0.2818  0.0589  0.8000
   24CHL1   H3' 1706   1.542   6.823   5.728  0.3437 -0.5343 -0.9253
   24CHL1    C4 1707   1.534   6.711   5.496  0.0320  0.2952 -0.5878
   24CHL1   H4A 1708   1.632   6.687   5.541 -1.1642 -3.3384  0.3593
   24CHL1   H4B 1709   1.478   6.623   5.532  2.4759 -2.0209 -2.0867
   24CHL1    C5 1710   1.527   6.715   5.343  1.1299 -0.6967 -0.5153
   24CHL1    C6 1711   1.467   6.623   5.267 -0.1886  0.1234 -0.3395
   24CHL1    H6 1712   1.417   6.537   5.314 -0.2540  0.4711  0.2338
   24CHL1    C7 1713   1.466   6.622   5.115 -0.0211  0.2708 -0.7121
   24CHL1   H7A 1714   1.495   6.520   5.081 -1.2563 -0.1780 -0.4582
   24CHL1   H7B 1715   1.365   6.648   5.079 -0.6492  0.5740  1.1504
   24CHL1    C8 1716   1.571   6.712   5.057  0.6700 -0.1076 -0.1633
   24CHL1    H8 1717   1.666   6.658   5.068  2.1479  2.6080  1.6546
   24CHL1   C14 1718   1.540   6.736   4.907 -0.7713 -0.3362 -0.1845
   24CHL1   H14 1719   1.444   6.789   4.894 -0.1089  0.7138 -0.9043
   24CHL1   C15 1720   1.523   6.616   4.813 -0.3119 -0.2230  0.3549
   24CHL1  H15A 1721   1.599   6.537   4.830 -0.3485 -0.5444 -0.8278
   24CHL1  H15B 1722   1.434   6.555   4.839  1.3025 -3.1392 -0.4955
   24CHL1   C16 1723   1.535   6.678   4.674 -0.8354 -0.4738 -0.1479
   24CHL1  H16A 1724   1.602   6.613   4.615 -1.4122 -0.3145 -0.9938
   24CHL1  H16B 1725   1.443   6.676   4.611  0.4528 -0.9907 -2.0849
   24CHL1   C17 1726   1.580   6.828   4.689  0.1024  0.2022  0.3021
   24CHL1   H17 1727   1.488   6.891   4.692  0.2114  0.4172 -0.4600
   24CHL1   C13 1728   1.640   6.833   4.833 -0.3447  0.0298  0.0583
   24CHL1   C18 1729   1.791   6.785   4.823 -0.3286  0.1625  0.3353
   24CHL1  H18A 1730   1.821   6.743   4.921 -1.0549  1.6720  1.2346
   24CHL1  H18B 1731   1.818   6.723   4.735 -1.2558 -1.0558  0.8793
   24CHL1  H18C 1732   1.848   6.878   4.807 -0.5788  0.7498  2.5978
   24CHL1   C12 1733   1.630   6.970   4.907  0.1647  0.2515  0.1396
   24CHL1  H12A 1734   1.682   7.054   4.856  0.5763  0.3093  0.6449
   24CHL1  H12B 1735   1.524   7.003   4.897  1.0039  2.8337 -0.9754
   24CHL1   C11 1736   1.672   6.943   5.056 -0.2218 -0.1230 -0.0934
   24CHL1  H11A 1737   1.777   6.909   5.064  0.4063  1.0501 -2.3354
   24CHL1  H11B 1738   1.671   7.044   5.101  3.0419  0.1489 -0.4043
   24CHL1    C9 1739   1.575   6.843   5.130  0.7241 -0.7730 -0.4727
   24CHL1    H9 1740   1.478   6.896   5.119  2.5294  2.8803 -0.3216
   24CHL1   C10 1741   1.601   6.834   5.286 -1.0060 -0.0629  0.2607
   24CHL1   C19 1742   1.754   6.805   5.308 -0.0590 -0.3367 -0.0161
   24CHL1  H19A 1743   1.790   6.724   5.241 -0.1941  0.5519 -1.1896
   24CHL1  H19B 1744   1.814   6.898   5.297  0.1825 -0.5181 -0.2462
   24CHL1  H19C 1745   1.782   6.765   5.408  0.4363 -2.0272 -0.7989
   24CHL1    C1 1746   1.554   6.964   5.353 -0.1638  0.2999 -0.2888
   24CHL1   H1A 1747   1.619   7.051   5.326 -0.8357  1.0024  0.3008
   24CHL1   H1B 1748   1.453   6.997   5.321  0.6463  2.7701 -0.5578
   24CHL1    C2 1749   1.560   6.956   5.517  0.2615 -0.2539 -0.0052
   24CHL1   H2A 1750   1.517   7.048   5.562  0.2140  0.1857 -0.9182
   24CHL1   H2B 1751   1.661   6.942   5.561 -1.1418 -2.1426  2.9444
   24CHL1   C20 1752   1.652   6.873   4.565 -0.2915 -0.6348  0.9081
   24CHL1   H20 1753   1.747   6.819   4.546  0.7394  1.6646 -0.9041
   24CHL1   C21 1754   1.685   7.019   4.591 -0.1574  0.4643  0.2486
   24CHL1  H21A 1755   1.590   7.070   4.617  0.4182  2.2490 -0.9527
   24CHL1  H21B 1756   1.729   7.071   4.503 -1.3130 -0.5537 -0.9797
   24CHL1  H21C 1757   1.752   7.041   4.677 -1.3834  0.3260  1.2684
   24CHL1   C22 1758   1.566   6.864   4.435  1.0012 -0.3799  0.1259
   24CHL1  H22A 1759   1.537   6.759   4.414 -0.3520  0.0415 -0.2267
   24CHL1  H22B 1760   1.480   6.935   4.438  0.4813 -0.8688 -1.9372
   24CHL1   C23 1761   1.646   6.901   4.301 -0.0251  0.0082 -0.0678
   24CHL1  H23A 1762   1.657   7.012   4.306  2.6472 -0.2248  1.5530
   24CHL1  H23B 1763   1.748   6.858   4.307  0.2569  0.7595  0.6785
   24CHL1   C24 1764   1.568   6.850   4.180 -0.4138  0.1516 -0.5034
   24CHL1  H24A 1765   1.535   6.744   4.186 -0.9389  0.2350 -1.5636
   24CHL1  H24B 1766   1.477   6.913   4.167 -0.0565  0.5505 -1.0994
   24CHL1   C25 1767   1.649   6.864   4.046  0.1273 -0.5723 -0.4516
   24CHL1   H25 1768   1.751   6.820   4.052  0.2073 -0.2331  0.8814
   24CHL1   C26 1769   1.579   6.787   3.935 -0.0912  0.0336 -0.1471
   24CHL1  H26A 1770   1.471   6.813   3.925  0.8800  4.9085 -0.1203
   24CHL1  H26B 1771   1.621   6.800   3.833  0.1473  1.4175  0.1133
   24CHL1  H26C 1772   1.597   6.679   3.957 -1.6757 -0.2761 -0.1839
   24CHL1   C27 1773   1.668   7.008   4.009 -0.1989  0.2174 -0.0424
   24CHL1  H27A 1774   1.722   7.028   3.914  2.0380  1.3494  1.3980
   24CHL1  H27B 1775   1.573   7.067   4.006  0.3684  1.1063 -1.4554
   24CHL1  H27C 1776   1.740   7.043   4.085  1.6918 -0.0367 -1.6463
   25CHL1    C3 1777   6.715   1.323   5.515 -0.0049  0.1255  0.0482
   25CHL1    H3 1778   6.763   1.225   5.491  0.3052  0.3995 -0.4554
   25CHL1    O3 1779   6.620   1.307   5.614 -0.9954  0.2142 -0.1295
   25CHL1   H3' 1780   6.607   1.400   5.637 -0.4103  0.0680  0.8035
   25CHL1    C4 1781   6.822   1.422   5.558  0.0706 -0.8916  0.1837
   25CHL1   H4A 1782   6.767   1.515   5.583  1.7049 -0.2042  1.3433
   25CHL1   H4B 1783   6.864   1.389   5.655 -0.6128 -0.1895  0.7266
   25CHL1    C5 1784   6.928   1.455   5.446  0.3793  0.5240  0.2663
   25CHL1    C6 1785   7.060   1.427   5.463 -0.2165  0.0131 -0.7354
   25CHL1    H6 1786   7.077   1.397   5.568 -3.3467 -1.1189 -0.4367
   25CHL1    C7 1787   7.167   1.465   5.367 -0.5005 -0.2610  0.5502
   25CHL1   H7A 1788   7.241   1.533   5.413  0.9331 -0.6797 -1.0515
   25CHL1   H7B 1789   7.219   1.370   5.340 -1.6177 -0.6540 -0.3010
   25CHL1    C8 1790   7.110   1.530   5.241 -0.0311  0.0886 -0.5788
   25CHL1    H8 1791   7.109   1.639   5.259  1.1794  0.7155 -3.7720
   25CHL1   C14 1792   7.210   1.514   5.131  0.1693 -0.6357  0.2485
   25CHL1   H14 1793   7.210   1.408   5.100 -0.1104 -0.2424 -1.1790
   25CHL1   C15 1794   7.356   1.545   5.163 -0.0884  0.1082  0.3770
   25CHL1  H15A 1795   7.350   1.640   5.221 -0.3540 -0.1315  0.7446
   25CHL1  H15B 1796   7.407   1.466   5.221  2.3332  2.4735  1.7010
   25CHL1   C16 1797   7.418   1.553   5.025  0.2923  0.0083 -0.8415
   25CHL1  H16A 1798   7.484   1.642   5.012 -1.1690  1.2342 -0.1954
   25CHL1  H16B 1799   7.484   1.464   5.011  0.3420  0.3216 -3.0554
   25CHL1   C17 1800   7.304   1.537   4.921  0.3729 -0.3587 -0.6112
   25CHL1   H17 1801   7.287   1.428   4.909 -0.4554 -0.3381  0.2226
   25CHL1   C13 1802   7.179   1.578   4.998  0.2928 -0.8690 -0.0615
   25CHL1   C18 1803   7.167   1.735   4.999 -0.2544  0.2759 -0.0213
   25CHL1  H18A 1804   7.091   1.770   5.072  2.6233  0.4614  3.1092
   25CHL1  H18B 1805   7.262   1.775   5.042 -1.0332 -0.1104  2.2062
   25CHL1  H18C 1806   7.140   1.761   4.895 -2.2098 -0.5443  0.2342
   25CHL1   C12 1807   7.049   1.511   4.956 -0.1445  0.0880  0.0927
   25CHL1  H12A 1808   7.011   1.562   4.865  0.1038  1.5571  0.7655
   25CHL1  H12B 1809   7.067   1.404   4.936 -0.4651  0.2888 -1.4173
   25CHL1   C11 1810   6.938   1.536   5.063  0.2415  1.2386 -0.2514
   25CHL1  H11A 1811   6.916   1.644   5.071  0.9512  1.3420  0.4296
   25CHL1  H11B 1812   6.840   1.486   5.043  0.3673 -0.0231  1.9952
   25CHL1    C9 1813   6.975   1.478   5.196 -0.6573  0.0367 -0.5198
   25CHL1    H9 1814   6.990   1.369   5.186  0.8035  0.0546  1.0693
   25CHL1   C10 1815   6.871   1.495   5.306 -0.0870 -0.1887 -0.6280
   25CHL1   C19 1816   6.824   1.643   5.311  0.2706 -0.2278 -0.2365
   25CHL1  H19A 1817   6.775   1.667   5.214 -2.8336 -3.5797  0.2770
   25CHL1  H19B 1818   6.747   1.662   5.389  0.3440  1.2688 -0.5010
   25CHL1  H19C 1819   6.907   1.716   5.323  0.0749  0.2360 -1.5015
   25CHL1    C1 1820   6.748   1.406   5.273  0.0489 -0.2747 -0.7327
   25CHL1   H1A 1821   6.700   1.456   5.187  0.7881  0.8937 -0.4862
   25CHL1   H1B 1822   6.779   1.303   5.244  0.1696 -0.4876  0.1180
   25CHL1    C2 1823   6.644   1.378   5.390 -0.1724 -0.3023  0.0688
   25CHL1   H2A 1824   6.564   1.314   5.346 -0.1792 -0.4599  0.3111
   25CHL1   H2B 1825   6.601   1.472   5.431  3.5040  0.4916  2.5948
   25CHL1   C20 1826   7.326   1.594   4.783  0.4214 -0.2061 -0.3356
   25CHL1   H20 1827   7.230   1.630   4.740  0.4965  2.6291  1.6194
   25CHL1   C21 1828   7.378   1.472   4.708  0.6938 -0.1089  0.4637
   25CHL1  H21A 1829   7.310   1.385   4.712  1.1532 -0.4842  0.2400
   25CHL1  H21B 1830   7.471   1.434   4.756 -0.1452 -1.6954  0.9164
   25CHL1  H21C 1831   7.394   1.489   4.599 -2.0897 -0.9614 -0.1413
   25CHL1   C22 1832   7.428   1.717   4.774  0.2653 -0.0825 -0.1126
   25CHL1  H22A 1833   7.413   1.788   4.858  2.4156 -2.0441  2.0776
   25CHL1  H22B 1834   7.529   1.671   4.783  0.5521  0.5143 -0.2712
   25CHL1   C23 1835   7.425   1.792   4.644 -0.3369  0.4004  0.2656
   25CHL1  H23A 1836   7.432   1.725   4.555 -0.4599  3.1706 -1.9705
   25CHL1  H23B 1837   7.327   1.838   4.617 -0.2251 -0.4618 -1.8249
   25CHL1   C24 1838   7.543   1.884   4.630  0.1805 -0.2384  0.0642
   25CHL1  H24A 1839   7.542   1.959   4.712  1.2038 -1.3768  1.1623
   25CHL1  H24B 1840   7.636   1.827   4.652  1.4422  0.9914 -1.8049
   25CHL1   C25 1841   7.565   1.964   4.500  0.1480 -0.0297  0.1182
   25CHL1   H25 1842   7.470   2.017   4.481  0.9679  1.2884 -0.4484
   25CHL1   C26 1843   7.680   2.067   4.513  0.1957  0.1916 -0.0474
   25CHL1  H26A 1844   7.659   2.134   4.600  2.3579  1.2466 -0.2629
   25CHL1  H26B 1845   7.775   2.012   4.525  0.1913  0.0536 -0.6134
   25CHL1  H26C 1846   7.685   2.135   4.425 -0.0113 -1.8891 -1.7373
   25CHL1   C27 1847   7.600   1.882   4.382 -0.6186  1.2580 -0.5704
   25CHL1  H27A 1848   7.527   1.798   4.371  0.4915 -0.0631  1.4709
   25CHL1  H27B 1849   7.580   1.943   4.291 -0.5834  1.0389 -0.7239
   25CHL1  H27C 1850   7.706   1.849   4.384 -1.1736 -0.6732 -1.0826
   26CHL1    C3 1851   2.027   0.050   5.523  0.1856  0.2779 -0.3968
   26CHL1    H3 1852   2.136   0.035   5.505  0.8228  4.0940 -0.5347
   26CHL1    O3 1853   2.008   0.051   5.667  0.5144 -0.0546  0.5931
   26CHL1   H3' 1854   1.985  -0.039   5.691  0.8557 -0.8757 -1.8941
   26CHL1    C4 1855   1.983   0.184   5.466  0.0955  0.0591 -0.3560
   26CHL1   H4A 1856   1.877   0.196   5.497  0.1887  0.6868 -0.2662
   26CHL1   H4B 1857   2.044   0.259   5.520  0.4538 -2.7726  3.6619
   26CHL1    C5 1858   1.997   0.182   5.320  0.3002  0.4868  0.7390
   26CHL1    C6 1859   2.076   0.275   5.255  0.1601 -0.0099 -0.3804
   26CHL1    H6 1860   2.133   0.351   5.311  1.2367  0.9780 -2.6824
   26CHL1    C7 1861   2.077   0.294   5.104  0.1816  0.0588 -0.4414
   26CHL1   H7A 1862   2.061   0.402   5.081  1.7147  0.7965  1.6657
   26CHL1   H7B 1863   2.176   0.256   5.072  0.0701 -0.2067 -0.4696
   26CHL1    C8 1864   1.974   0.204   5.023  0.2351 -0.5875 -0.1645
   26CHL1    H8 1865   1.878   0.258   5.033 -0.8184 -2.5548  0.7125
   26CHL1   C14 1866   2.010   0.186   4.878 -0.2203 -0.0837  0.6301
   26CHL1   H14 1867   2.113   0.146   4.872  0.3682  1.5079 -0.4384
   26CHL1   C15 1868   2.027   0.315   4.788  0.1361  0.8485 -0.3478
   26CHL1  H15A 1869   1.936   0.373   4.811 -0.1667  0.5630 -0.7944
   26CHL1  H15B 1870   2.120   0.374   4.800  0.1781  0.3237  2.4792
   26CHL1   C16 1871   2.010   0.262   4.647  0.0208 -0.4751  0.0088
   26CHL1  H16A 1872   1.917   0.299   4.598 -0.3177 -1.7456 -0.3473
   26CHL1  H16B 1873   2.099   0.299   4.591  1.3728 -0.0046  2.3265
   26CHL1   C17 1874   2.005   0.104   4.650 -0.3948 -0.1917  0.0311
   26CHL1   H17 1875   2.113   0.081   4.659 -0.1015 -0.1485 -2.6827
   26CHL1   C13 1876   1.949   0.077   4.793 -0.1301  0.7992 -0.2886
   26CHL1   C18 1877   1.792   0.109   4.785 -0.0800 -0.4710 -0.1190
   26CHL1  H18A 1878   1.770   0.203   4.731 -0.8848  0.9606  2.5212
   26CHL1  H18B 1879   1.736   0.018   4.753 -0.2719 -0.5469  0.4159
   26CHL1  H18C 1880   1.759   0.131   4.889  0.9221  1.0384 -0.0952
   26CHL1   C12 1881   1.970  -0.055   4.870 -0.2494 -0.3316 -0.4418
   26CHL1  H12A 1882   1.924  -0.138   4.812 -1.3753 -0.5657  0.7447
   26CHL1  H12B 1883   2.079  -0.076   4.867 -0.1639  0.1248 -0.6260
   26CHL1   C11 1884   1.920  -0.047   5.011 -0.3099 -0.6228 -0.3340
   26CHL1  H11A 1885   1.809  -0.045   5.008 -0.4415 -0.0326  2.4193
   26CHL1  H11B 1886   1.954  -0.146   5.049  1.2596 -0.2042 -0.5735
   26CHL1    C9 1887   1.974   0.070   5.092 -0.5791  0.4436 -0.8011
   26CHL1    H9 1888   2.082   0.044   5.102 -0.4954  1.3443  1.0830
   26CHL1   C10 1889   1.922   0.073   5.239 -0.4267 -0.2698  0.2060
   26CHL1   C19 1890   1.769   0.088   5.239  0.2191 -0.4150 -1.1159
   26CHL1  H19A 1891   1.712   0.012   5.182 -1.3222 -2.0892  2.3711
   26CHL1  H19B 1892   1.735   0.107   5.343  1.5249  1.7741 -1.0391
   26CHL1  H19C 1893   1.746   0.184   5.189  3.2730  0.7318 -0.5540
   26CHL1    C1 1894   1.949  -0.062   5.308 -0.2407  0.9793  0.1263
   26CHL1   H1A 1895   1.873  -0.128   5.261  1.5821 -0.2563 -1.2314
   26CHL1   H1B 1896   2.046  -0.106   5.277 -1.4609 -0.4043 -2.0534
   26CHL1    C2 1897   1.942  -0.067   5.465  0.2896  0.3551 -0.1701
   26CHL1   H2A 1898   1.963  -0.168   5.508 -3.6345 -1.1160 -1.2607
   26CHL1   H2B 1899   1.837  -0.051   5.500 -1.5976 -3.1602 -3.5151
   26CHL1   C20 1900   1.946   0.026   4.530 -0.2168  0.3785 -0.0156
   26CHL1   H20 1901   1.837   0.021   4.551 -0.2416  0.1408 -0.1991
   26CHL1   C21 1902   2.019  -0.114   4.525  0.3907  0.2912  0.3079
   26CHL1  H21A 1903   1.968  -0.179   4.452 -2.6409  1.0954  1.5429
   26CHL1  H21B 1904   2.015  -0.157   4.628 -0.3799 -1.4283 -0.4088
   26CHL1  H21C 1905   2.124  -0.099   4.490  0.8120  0.3332  1.5182
   26CHL1   C22 1906   1.960   0.099   4.392 -0.0235  0.5113  0.1395
   26CHL1  H22A 1907   1.921   0.203   4.393  0.9698  0.8960  0.6620
   26CHL1  H22B 1908   2.067   0.113   4.366  0.5482 -1.7206  1.0252
   26CHL1   C23 1909   1.879   0.040   4.277  0.0748  0.4005 -0.0626
   26CHL1  H23A 1910   1.889  -0.070   4.263 -1.4133  0.2174  0.1888
   26CHL1  H23B 1911   1.773   0.071   4.285 -0.6326 -1.1230 -2.5555
   26CHL1   C24 1912   1.930   0.093   4.136  0.3001 -0.0362 -0.5521
   26CHL1  H24A 1913   1.863   0.048   4.059 -0.4513  0.1851 -0.0381
   26CHL1  H24B 1914   1.899   0.200   4.141  1.0212  0.1329  0.4070
   26CHL1   C25 1915   2.078   0.072   4.102 -0.7922 -0.1677  0.5217
   26CHL1   H25 1916   2.144   0.119   4.179  0.4127 -1.5769  0.3881
   26CHL1   C26 1917   2.114  -0.075   4.101 -0.2289  0.5358  0.3103
   26CHL1  H26A 1918   2.105  -0.123   4.201  0.6187  1.2540  0.7449
   26CHL1  H26B 1919   2.041  -0.130   4.038 -1.2512 -2.4062  3.7130
   26CHL1  H26C 1920   2.216  -0.088   4.059 -0.0122  2.5391  0.1444
   26CHL1   C27 1921   2.100   0.127   3.966  0.1564  0.4263 -0.2798
   26CHL1  H27A 1922   2.062   0.231   3.955  0.9065  0.7647  0.2657
   26CHL1  H27B 1923   2.208   0.119   3.939 -0.4324 -1.5824 -2.4945
   26CHL1  H27C 1924   2.053   0.053   3.897 -0.1018  1.6121 -1.4204
   27CHL1    C3 1925   0.900   6.542   5.590 -0.0260  0.1175  0.0102
   27CHL1    H3 1926   0.910   6.652   5.579 -0.9431  0.2266  0.1671
   27CHL1    O3 1927   0.870   6.507   5.727  0.1836  0.5632 -0.4934
   27CHL1   H3' 1928   0.811   6.432   5.717 -1.8461  2.3570 -3.6920
   27CHL1    C4 1929   0.777   6.505   5.506 -0.4112  0.0672 -0.3722
   27CHL1   H4A 1930   0.752   6.398   5.525 -0.0586  0.1715  0.7567
   27CHL1   H4B 1931   0.691   6.557   5.554 -0.8615  0.0603 -1.1602
   27CHL1    C5 1932   0.796   6.536   5.363 -0.0058  0.0049  1.1218
   27CHL1    C6 1933   0.711   6.624   5.305 -0.0195 -0.3573 -0.7518
   27CHL1    H6 1934   0.643   6.680   5.372 -0.0871 -2.1013  0.7157
   27CHL1    C7 1935   0.725   6.660   5.165  0.2365 -0.9260  0.2766
   27CHL1   H7A 1936   0.626   6.661   5.115  1.0551  1.8456 -1.5067
   27CHL1   H7B 1937   0.755   6.766   5.163  0.3337 -0.9091  1.5074
   27CHL1    C8 1938   0.827   6.567   5.087  0.0268  0.5703 -0.6636
   27CHL1    H8 1939   0.774   6.471   5.072 -0.8710  1.1538 -1.3275
   27CHL1   C14 1940   0.865   6.624   4.948  0.6809 -0.5365  0.1128
   27CHL1   H14 1941   0.920   6.719   4.968  1.1359 -1.0475  1.4074
   27CHL1   C15 1942   0.755   6.678   4.850 -1.0300  0.5228  0.5073
   27CHL1  H15A 1943   0.667   6.610   4.848  0.5986 -1.7935 -3.5864
   27CHL1  H15B 1944   0.723   6.782   4.871  0.4276  0.8643  1.1512
   27CHL1   C16 1945   0.826   6.663   4.714  0.2194 -0.3491  0.5273
   27CHL1  H16A 1946   0.774   6.590   4.649  0.5267 -2.1582  2.2290
   27CHL1  H16B 1947   0.823   6.762   4.664 -2.2908  0.1954  1.5773
   27CHL1   C17 1948   0.970   6.619   4.733 -0.1412 -0.3425  0.2120
   27CHL1   H17 1949   1.039   6.703   4.757 -0.2331 -0.1748 -0.1204
   27CHL1   C13 1950   0.964   6.539   4.865 -0.1954 -0.6425 -0.3054
   27CHL1   C18 1951   0.895   6.405   4.837  0.2351 -0.3180  0.3722
   27CHL1  H18A 1952   0.830   6.412   4.747 -0.6719  0.0867  1.0451
   27CHL1  H18B 1953   0.973   6.327   4.823  1.5529  0.3303  3.5139
   27CHL1  H18C 1954   0.824   6.374   4.916  0.3387  2.1903  1.5342
   27CHL1   C12 1955   1.097   6.533   4.948 -0.2811 -0.3205  0.6877
   27CHL1  H12A 1956   1.170   6.469   4.893 -1.2245 -0.8492  0.0280
   27CHL1  H12B 1957   1.141   6.635   4.947  1.0119 -0.8273 -0.9628
   27CHL1   C11 1958   1.071   6.472   5.082  0.1330 -0.1473 -0.4127
   27CHL1  H11A 1959   1.038   6.366   5.075  0.7636 -0.2483 -2.8845
   27CHL1  H11B 1960   1.158   6.461   5.150  0.8860 -0.5925 -1.4082
   27CHL1    C9 1961   0.954   6.535   5.167  0.0413  0.0881 -0.1904
   27CHL1    H9 1962   1.008   6.627   5.200  0.0860 -0.4477  1.2771
   27CHL1   C10 1963   0.926   6.476   5.300 -0.6898  0.1217 -0.5617
   27CHL1   C19 1964   0.902   6.320   5.274 -0.2203  0.3471  0.5405
   27CHL1  H19A 1965   0.866   6.262   5.361 -0.2948 -0.4072  0.0096
   27CHL1  H19B 1966   0.837   6.296   5.187 -1.6564  1.8548  1.1377
   27CHL1  H19C 1967   0.997   6.268   5.251 -0.5555  0.5444 -1.4683
   27CHL1    C1 1968   1.051   6.498   5.395  0.4291 -0.2726  0.3855
   27CHL1   H1A 1969   1.132   6.434   5.355  0.6010  1.1076 -1.6356
   27CHL1   H1B 1970   1.106   6.594   5.385 -1.0090  0.4008 -1.6954
   27CHL1    C2 1971   1.031   6.468   5.540 -0.1805 -0.1404 -0.2914
   27CHL1   H2A 1972   1.118   6.507   5.597  1.3194 -1.8708 -1.3170
   27CHL1   H2B 1973   1.011   6.359   5.555 -1.8627 -0.5698 -4.3526
   27CHL1   C20 1974   1.030   6.547   4.604  0.3482 -0.1425 -0.8655
   27CHL1   H20 1975   0.966   6.461   4.575 -0.1954  0.5152 -1.6630
   27CHL1   C21 1976   1.166   6.494   4.639  0.3803 -0.3526 -0.3573
   27CHL1  H21A 1977   1.219   6.578   4.690 -4.5968  3.1200 -0.1085
   27CHL1  H21B 1978   1.221   6.479   4.544 -0.3664  0.1308 -0.8756
   27CHL1  H21C 1979   1.161   6.402   4.701  0.4810  0.7610  1.3750
   27CHL1   C22 1980   1.039   6.645   4.491  0.4749  0.5338  1.3807
   27CHL1  H22A 1981   0.949   6.710   4.501  1.3763  2.3279 -1.1684
   27CHL1  H22B 1982   1.128   6.710   4.505  2.8895 -2.7290  2.3425
   27CHL1   C23 1983   1.048   6.578   4.346 -0.0996 -0.3335 -0.5823
   27CHL1  H23A 1984   1.130   6.503   4.354  0.1890 -0.4846 -3.7049
   27CHL1  H23B 1985   0.950   6.529   4.331  0.2093 -0.6773 -1.6483
   27CHL1   C24 1986   1.071   6.694   4.244  0.2058  0.0648 -0.0705
   27CHL1  H24A 1987   0.981   6.748   4.205  0.4298 -0.0074 -0.6981
   27CHL1  H24B 1988   1.130   6.772   4.297  0.3604  0.7792 -1.2508
   27CHL1   C25 1989   1.157   6.650   4.127  0.5721  0.8666 -0.0247
   27CHL1   H25 1990   1.248   6.595   4.160  0.9752  0.9816 -0.9102
   27CHL1   C26 1991   1.085   6.559   4.026 -0.8036  0.0103  0.6550
   27CHL1  H26A 1992   1.042   6.472   4.080  1.8725 -0.9560  1.3669
   27CHL1  H26B 1993   1.002   6.617   3.981 -0.5916 -1.3962 -1.7186
   27CHL1  H26C 1994   1.147   6.534   3.937 -2.3768  0.3685 -0.5795
   27CHL1   C27 1995   1.216   6.774   4.053  0.6303  0.0036  0.1380
   27CHL1  H27A 1996   1.295   6.753   3.978  0.4844 -0.6909  0.1786
   27CHL1  H27B 1997   1.140   6.840   4.004  0.7738  0.1835  0.1571
   27CHL1  H27C 1998   1.260   6.837   4.133 -2.1266  2.5142 -0.1195
   28CHL1    C3 1999   0.772   0.711   5.552 -0.2990 -0.1338  0.8505
   28CHL1    H3 2000   0.737   0.615   5.509 -0.0259  0.3634 -0.5278
   28CHL1    O3 2001   0.805   0.688   5.688 -0.1471 -0.0050  0.5241
   28CHL1   H3' 2002   0.829   0.776   5.718  2.5318 -1.4796  3.2303
   28CHL1    C4 2003   0.894   0.753   5.470 -0.3739  0.5856 -0.0100
   28CHL1   H4A 2004   0.959   0.829   5.518  1.9156 -0.5825 -1.0743
   28CHL1   H4B 2005   0.964   0.666   5.472 -1.5016 -0.3642 -0.5586
   28CHL1    C5 2006   0.855   0.795   5.331  0.1841  0.2737 -0.5182
   28CHL1    C6 2007   0.916   0.741   5.221 -0.0907  0.1516  0.0624
   28CHL1    H6 2008   0.991   0.662   5.232  0.6376  0.4536 -2.2134
   28CHL1    C7 2009   0.902   0.790   5.079 -0.1806 -0.2466  0.6776
   28CHL1   H7A 2010   1.000   0.789   5.027 -0.8143 -0.2146 -0.5585
   28CHL1   H7B 2011   0.841   0.723   5.014 -1.6565  1.9419 -0.3269
   28CHL1    C8 2012   0.833   0.924   5.073 -0.0591 -1.1856 -0.3599
   28CHL1    H8 2013   0.908   1.001   5.101 -0.2482 -0.4094 -1.8700
   28CHL1   C14 2014   0.783   0.960   4.932  0.1242  0.6319 -0.3629
   28CHL1   H14 2015   0.714   0.875   4.909  2.4251 -1.2412 -0.7706
   28CHL1   C15 2016   0.886   0.947   4.818  0.6503 -0.3044  0.2125
   28CHL1  H15A 2017   0.985   0.992   4.839  1.2272 -0.4002 -2.0715
   28CHL1  H15B 2018   0.910   0.841   4.798 -1.3279 -0.4948 -1.4630
   28CHL1   C16 2019   0.808   1.016   4.702  0.5769 -0.3001 -0.1501
   28CHL1  H16A 2020   0.877   1.085   4.649 -0.1945  1.5973  1.2034
   28CHL1  H16B 2021   0.767   0.941   4.631  1.8930 -1.0101 -0.1745
   28CHL1   C17 2022   0.686   1.093   4.758 -0.0450  0.1731 -0.6335
   28CHL1   H17 2023   0.600   1.026   4.738 -0.2838  0.7641 -1.6647
   28CHL1   C13 2024   0.706   1.091   4.909 -0.0212 -0.1732 -0.4757
   28CHL1   C18 2025   0.800   1.208   4.947 -0.1104 -0.6337  0.1039
   28CHL1  H18A 2026   0.899   1.195   4.899 -0.8658  0.4377 -1.8637
   28CHL1  H18B 2027   0.759   1.305   4.911  2.0889  0.9152  1.5542
   28CHL1  H18C 2028   0.826   1.212   5.055 -1.6849 -2.1896  0.5901
   28CHL1   C12 2029   0.580   1.078   5.006  0.4666  0.2094  0.1110
   28CHL1  H12A 2030   0.517   1.169   4.992 -1.1687 -1.1216 -1.7369
   28CHL1  H12B 2031   0.522   0.992   4.965 -0.4947  1.2970 -0.8994
   28CHL1   C11 2032   0.622   1.053   5.149  0.5187 -0.1733  0.1398
   28CHL1  H11A 2033   0.682   1.141   5.182  0.5652 -0.2377  0.2266
   28CHL1  H11B 2034   0.529   1.045   5.209 -1.6540  0.4561 -2.9499
   28CHL1    C9 2035   0.710   0.926   5.178 -0.4587  0.0910  1.0904
   28CHL1    H9 2036   0.638   0.849   5.141 -2.3761  2.0378  0.5631
   28CHL1   C10 2037   0.749   0.909   5.322 -0.3255 -0.0976 -0.2923
   28CHL1   C19 2038   0.823   1.032   5.377 -0.0115 -0.3340 -0.1429
   28CHL1  H19A 2039   0.752   1.117   5.371  0.4166  0.2529  1.9916
   28CHL1  H19B 2040   0.863   1.017   5.480  3.0769  2.0547 -0.8365
   28CHL1  H19C 2041   0.910   1.059   5.313 -0.4361  0.4479 -0.4032
   28CHL1    C1 2042   0.629   0.870   5.401  0.7329  0.3017  0.0236
   28CHL1   H1A 2043   0.567   0.961   5.420  1.3218  0.5650  0.7424
   28CHL1   H1B 2044   0.553   0.814   5.342 -0.3086  1.2089  0.4654
   28CHL1    C2 2045   0.659   0.815   5.539 -0.1392 -0.0348  0.1064
   28CHL1   H2A 2046   0.568   0.767   5.581 -0.2278  0.7461  0.8379
   28CHL1   H2B 2047   0.681   0.894   5.615 -3.0903  0.1845  0.8695
   28CHL1   C20 2048   0.651   1.227   4.685  0.6910  0.3137 -0.3961
   28CHL1   H20 2049   0.733   1.300   4.705  0.6944  0.3604 -0.5739
   28CHL1   C21 2050   0.525   1.276   4.740 -0.5796 -0.3029  0.4706
   28CHL1  H21A 2051   0.535   1.327   4.838  0.2003 -0.1500  0.3101
   28CHL1  H21B 2052   0.445   1.198   4.742  1.8948 -2.9790  1.8953
   28CHL1  H21C 2053   0.487   1.346   4.663  2.0592 -0.2284 -0.8620
   28CHL1   C22 2054   0.641   1.219   4.529 -0.2567  0.1795 -0.3109
   28CHL1  H22A 2055   0.740   1.186   4.490  0.5348  3.1169 -1.0380
   28CHL1  H22B 2056   0.568   1.136   4.517 -0.0239 -0.2499  1.0338
   28CHL1   C23 2057   0.617   1.345   4.444 -0.1926  1.1132 -0.7670
   28CHL1  H23A 2058   0.617   1.435   4.509  0.7426  1.9583 -1.8849
   28CHL1  H23B 2059   0.704   1.359   4.376  1.4356 -3.1690  0.1109
   28CHL1   C24 2060   0.490   1.347   4.366 -0.1102  0.2511  0.0673
   28CHL1  H24A 2061   0.484   1.279   4.278 -0.3065 -0.9398  0.9797
   28CHL1  H24B 2062   0.420   1.310   4.444  1.3170 -0.4842  1.0329
   28CHL1   C25 2063   0.436   1.486   4.318  0.4406 -0.0563 -0.3425
   28CHL1   H25 2064   0.450   1.556   4.404 -0.2952  1.2249 -1.2305
   28CHL1   C26 2065   0.524   1.546   4.209  0.1498 -0.8496 -0.1032
   28CHL1  H26A 2066   0.628   1.559   4.246  0.3389  0.7184 -1.0808
   28CHL1  H26B 2067   0.525   1.493   4.112  1.0736 -0.6606 -0.2080
   28CHL1  H26C 2068   0.488   1.651   4.205 -2.0693 -1.5593 -0.0156
   28CHL1   C27 2069   0.280   1.477   4.281 -0.4154  0.4679  0.2594
   28CHL1  H27A 2070   0.249   1.577   4.242 -0.6048 -0.3842 -1.9261
   28CHL1  H27B 2071   0.272   1.403   4.199 -0.9128  1.3172 -0.4825
   28CHL1  H27C 2072   0.230   1.443   4.374 -1.5245  1.2396 -0.0370
   29CHL1    C3 2073   3.708   2.977   2.273 -0.1011 -0.4334  0.4486
   29CHL1    H3 2074   3.646   3.069   2.271  0.4265 -0.0664 -2.0556
   29CHL1    O3 2075   3.734   2.954   2.140 -0.6020  0.1817  0.0078
   29CHL1   H3' 2076   3.759   2.862   2.127 -0.2569  0.2077  0.4891
   29CHL1    C4 2077   3.841   3.009   2.340  0.3637 -0.0175 -0.0001
   29CHL1   H4A 2078   3.910   2.922   2.347 -1.2436 -1.2438  1.1423
   29CHL1   H4B 2079   3.900   3.088   2.288  1.4778 -1.0568 -0.3882
   29CHL1    C5 2080   3.818   3.052   2.481  0.6280 -0.5349 -0.3656
   29CHL1    C6 2081   3.861   3.174   2.524 -0.2509 -0.2366  0.4648
   29CHL1    H6 2082   3.918   3.239   2.455 -1.4399  1.1102  0.7147
   29CHL1    C7 2083   3.855   3.218   2.669  0.5062 -0.3532  0.7615
   29CHL1   H7A 2084   3.947   3.261   2.713  1.9305 -0.4308 -1.9425
   29CHL1   H7B 2085   3.788   3.307   2.664  2.2882  0.9952 -2.4986
   29CHL1    C8 2086   3.796   3.106   2.762 -0.4376 -0.1443  0.7204
   29CHL1    H8 2087   3.881   3.042   2.794 -1.4133 -1.4279  0.7812
   29CHL1   C14 2088   3.745   3.163   2.891  0.4962 -0.6617  0.3814
   29CHL1   H14 2089   3.652   3.219   2.865  1.9602  1.0307 -1.5324
   29CHL1   C15 2090   3.832   3.264   2.960  0.3366  0.2729 -0.1873
   29CHL1  H15A 2091   3.939   3.234   2.954 -0.2237 -1.7182 -1.2726
   29CHL1  H15B 2092   3.810   3.363   2.915 -1.6709 -0.5318 -1.1446
   29CHL1   C16 2093   3.784   3.257   3.105 -0.6856 -0.3016  0.4708
   29CHL1  H16A 2094   3.871   3.218   3.161 -0.5294 -0.0606  0.3977
   29CHL1  H16B 2095   3.761   3.352   3.160  0.6248 -0.1747  0.8484
   29CHL1   C17 2096   3.661   3.159   3.118  0.4037  0.1146  0.5031
   29CHL1   H17 2097   3.572   3.220   3.094  0.1797  0.3538  1.8610
   29CHL1   C13 2098   3.693   3.064   2.993  0.7547  0.0480 -0.0787
   29CHL1   C18 2099   3.814   2.966   3.042  0.0637  0.0235 -0.7356
   29CHL1  H18A 2100   3.789   2.924   3.142  1.2527  2.7180  0.8036
   29CHL1  H18B 2101   3.818   2.885   2.966 -1.1541 -0.7935  0.0283
   29CHL1  H18C 2102   3.916   3.007   3.056  0.1610 -0.0883 -1.1173
   29CHL1   C12 2103   3.570   2.985   2.928  0.2162  0.5463  0.0387
   29CHL1  H12A 2104   3.518   2.925   3.006 -1.2735  0.4093 -0.9987
   29CHL1  H12B 2105   3.491   3.059   2.901 -0.3393  0.2037  0.7104
   29CHL1   C11 2106   3.617   2.922   2.801  0.3914 -0.1973 -0.3951
   29CHL1  H11A 2107   3.693   2.842   2.817  2.0883  1.7681  2.3766
   29CHL1  H11B 2108   3.529   2.874   2.752  0.3503  1.4476 -2.0135
   29CHL1    C9 2109   3.688   3.021   2.697 -0.2722  0.4549 -0.1120
   29CHL1    H9 2110   3.610   3.095   2.669  1.2032  1.9257 -0.4640
   29CHL1   C10 2111   3.733   2.952   2.567  0.0874 -0.0049  0.1553
   29CHL1   C19 2112   3.818   2.824   2.613  0.0296 -0.2596  0.4470
   29CHL1  H19A 2113   3.886   2.848   2.697  0.4340 -2.1822  0.7216
   29CHL1  H19B 2114   3.747   2.742   2.637  1.2477 -1.5166 -0.1024
   29CHL1  H19C 2115   3.866   2.779   2.523 -1.6427 -0.2520 -0.4838
   29CHL1    C1 2116   3.602   2.910   2.489 -0.1863 -0.2408 -0.1560
   29CHL1   H1A 2117   3.553   2.833   2.552  1.6797  0.4073  2.2468
   29CHL1   H1B 2118   3.542   3.004   2.493  0.0036 -0.0578 -1.2147
   29CHL1    C2 2119   3.627   2.869   2.347  0.2526 -0.3906  0.2252
   29CHL1   H2A 2120   3.532   2.866   2.289 -0.5459 -0.3906  1.4900
   29CHL1   H2B 2121   3.671   2.767   2.347 -2.5889 -1.8334 -3.3536
   29CHL1   C20 2122   3.633   3.100   3.260  0.1372  0.6387 -0.4389
   29CHL1   H20 2123   3.720   3.053   3.311 -0.7004 -0.3911  0.0904
   29CHL1   C21 2124   3.534   2.984   3.253  0.8017  0.8353 -0.0336
   29CHL1  H21A 2125   3.496   2.964   3.356  0.6877  1.5296  0.0600
   29CHL1  H21B 2126   3.581   2.890   3.216 -1.7210 -0.1895 -0.8293
   29CHL1  H21C 2127   3.444   3.009   3.194  1.4229 -0.2283 -1.4833
   29CHL1   C22 2128   3.576   3.212   3.352 -0.6224 -0.1009 -0.0363
   29CHL1  H22A 2129   3.634   3.306   3.340 -3.5676  1.8462  0.0354
   29CHL1  H22B 2130   3.476   3.234   3.309 -0.6058 -0.5200 -0.2938
   29CHL1   C23 2131   3.581   3.174   3.502 -0.0397 -0.0475 -0.5278
   29CHL1  H23A 2132   3.485   3.121   3.518 -1.8706  2.9317 -0.8588
   29CHL1  H23B 2133   3.673   3.114   3.519  1.2391  1.4280 -1.8483
   29CHL1   C24 2134   3.580   3.297   3.596 -0.1838  0.4542 -0.0513
   29CHL1  H24A 2135   3.670   3.356   3.570 -0.5530  0.8875 -0.3537
   29CHL1  H24B 2136   3.504   3.373   3.570  0.2167  1.3385  1.2336
   29CHL1   C25 2137   3.577   3.273   3.752 -0.8466  0.1096  0.0176
   29CHL1   H25 2138   3.518   3.181   3.776 -1.7174  0.1363 -1.8663
   29CHL1   C26 2139   3.719   3.233   3.798 -0.5127  0.2156  0.2699
   29CHL1  H26A 2140   3.765   3.153   3.736  1.3627  2.1074 -0.9233
   29CHL1  H26B 2141   3.777   3.327   3.793  0.9241 -0.6409  0.4256
   29CHL1  H26C 2142   3.727   3.204   3.905  1.0410  1.6641  0.5866
   29CHL1   C27 2143   3.532   3.405   3.828 -0.2496  0.8716  0.0460
   29CHL1  H27A 2144   3.426   3.389   3.857  0.0442 -1.5200 -0.0287
   29CHL1  H27B 2145   3.585   3.413   3.925 -2.3787  1.2657  1.2352
   29CHL1  H27C 2146   3.550   3.497   3.767  0.8425  1.8928  1.8289
   30CHL1    C3 2147   4.353   5.004   2.294  0.4766 -0.2173 -0.5284
   30CHL1    H3 2148   4.324   4.898   2.278  0.8585 -0.2326 -1.1714
   30CHL1    O3 2149   4.371   5.065   2.166  0.0244 -0.3024 -0.0811
   30CHL1   H3' 2150   4.280   5.072   2.137  0.4501 -0.1556 -1.4390
   30CHL1    C4 2151   4.238   5.076   2.368  0.0889  0.3610 -0.9762
   30CHL1   H4A 2152   4.272   5.182   2.375  1.5786 -0.1387 -0.0275
   30CHL1   H4B 2153   4.143   5.070   2.311 -0.4658 -2.0803  0.0839
   30CHL1    C5 2154   4.216   5.025   2.515  0.4359 -0.0277 -0.1315
   30CHL1    C6 2155   4.096   4.988   2.559  0.3348  0.2835  0.0024
   30CHL1    H6 2156   4.010   5.001   2.492  0.9054  0.6953 -0.6638
   30CHL1    C7 2157   4.067   4.935   2.695  0.8079 -0.1411  0.3388
   30CHL1   H7A 2158   3.976   4.983   2.736  0.1787 -0.0008 -1.1832
   30CHL1   H7B 2159   4.038   4.828   2.689 -2.3483  0.6633 -0.1604
   30CHL1    C8 2160   4.186   4.942   2.795 -0.1945 -0.1829 -0.4298
   30CHL1    H8 2161   4.175   5.048   2.826 -2.6313  0.1860 -2.2645
   30CHL1   C14 2162   4.176   4.855   2.907  0.1173  1.0618 -0.1907
   30CHL1   H14 2163   4.167   4.754   2.864 -0.2811  0.4381  1.2791
   30CHL1   C15 2164   4.046   4.863   2.996 -0.1562  0.5412  1.1704
   30CHL1  H15A 2165   4.030   4.972   3.011  0.0848  1.0680 -1.7492
   30CHL1  H15B 2166   3.964   4.812   2.940  2.9408 -2.5792 -0.9767
   30CHL1   C16 2167   4.084   4.784   3.119 -1.1311 -0.1498  0.1631
   30CHL1  H16A 2168   4.084   4.857   3.202  0.9130  1.1143 -0.8598
   30CHL1  H16B 2169   4.002   4.709   3.125  0.3394 -1.7239  1.4357
   30CHL1   C17 2170   4.231   4.731   3.104 -0.4168 -0.8258  0.5485
   30CHL1   H17 2171   4.219   4.643   3.037 -0.1510  0.3196 -1.0813
   30CHL1   C13 2172   4.291   4.840   3.006 -1.1599  0.0510  0.3383
   30CHL1   C18 2173   4.311   4.970   3.089 -0.2118 -0.0746 -0.5690
   30CHL1  H18A 2174   4.392   4.962   3.165 -1.5065 -2.1793  0.7003
   30CHL1  H18B 2175   4.330   5.056   3.021 -0.8925  1.6600  1.3220
   30CHL1  H18C 2176   4.227   5.008   3.152  1.0622  4.1839 -1.1543
   30CHL1   C12 2177   4.426   4.806   2.931 -0.1164  0.0514 -0.0638
   30CHL1  H12A 2178   4.516   4.825   2.994  2.0332 -1.2495 -2.5322
   30CHL1  H12B 2179   4.430   4.701   2.896 -0.8506 -0.0932  0.2775
   30CHL1   C11 2180   4.443   4.892   2.815 -0.0698 -0.3750 -0.5818
   30CHL1  H11A 2181   4.454   4.995   2.855 -0.4270 -1.0896  1.4919
   30CHL1  H11B 2182   4.534   4.859   2.760 -0.5641 -0.6996 -1.2207
   30CHL1    C9 2183   4.321   4.905   2.721 -1.3943  0.2544 -0.3324
   30CHL1    H9 2184   4.300   4.802   2.685 -2.7834  0.7088 -0.9077
   30CHL1   C10 2185   4.344   5.002   2.598 -0.6192 -0.1266  0.5747
   30CHL1   C19 2186   4.397   5.146   2.650  0.2449 -0.8981 -0.0606
   30CHL1  H19A 2187   4.419   5.208   2.560 -1.1588 -2.3944 -1.5083
   30CHL1  H19B 2188   4.323   5.200   2.714 -0.6574 -1.0766 -0.9212
   30CHL1  H19C 2189   4.489   5.155   2.712 -0.9991  1.7430  1.6241
   30CHL1    C1 2190   4.460   4.942   2.512 -0.1748  0.6297  0.4100
   30CHL1   H1A 2191   4.546   4.957   2.581  1.0426 -0.8545 -0.7127
   30CHL1   H1B 2192   4.449   4.832   2.498  1.6098  0.4974 -0.2468
   30CHL1    C2 2193   4.483   5.004   2.377  0.4166 -0.1826  0.4216
   30CHL1   H2A 2194   4.558   4.933   2.336 -0.1143 -0.3329 -0.2895
   30CHL1   H2B 2195   4.522   5.108   2.378  0.5614 -0.2322  1.2136
   30CHL1   C20 2196   4.293   4.709   3.244 -0.0221 -0.5577  0.0315
   30CHL1   H20 2197   4.302   4.809   3.292  0.0610 -1.0568  1.0751
   30CHL1   C21 2198   4.434   4.646   3.231  0.3627  0.2136 -0.9311
   30CHL1  H21A 2199   4.493   4.700   3.153 -2.3980  0.8121 -2.7717
   30CHL1  H21B 2200   4.417   4.542   3.196  0.4795  0.1423 -0.7767
   30CHL1  H21C 2201   4.478   4.651   3.333  0.9729  1.4005 -1.2239
   30CHL1   C22 2202   4.210   4.617   3.335 -0.0802 -0.3055  0.6391
   30CHL1  H22A 2203   4.112   4.669   3.340 -0.2511 -0.4933 -0.5162
   30CHL1  H22B 2204   4.197   4.520   3.281 -0.9538  0.6494 -0.9624
   30CHL1   C23 2205   4.252   4.617   3.480  0.4212  0.5885 -0.6263
   30CHL1  H23A 2206   4.342   4.556   3.501  1.3183  1.6032 -1.4845
   30CHL1  H23B 2207   4.272   4.724   3.501 -2.8596  1.1548  0.1736
   30CHL1   C24 2208   4.142   4.562   3.565 -0.0485  0.2020 -0.1549
   30CHL1  H24A 2209   4.046   4.615   3.547 -0.4036 -0.6390 -0.7630
   30CHL1  H24B 2210   4.136   4.455   3.535  2.7380 -0.6732  1.9960
   30CHL1   C25 2211   4.165   4.567   3.718 -0.3580  0.2644 -0.7939
   30CHL1   H25 2212   4.210   4.665   3.742 -0.2901 -0.2899  1.5174
   30CHL1   C26 2213   4.039   4.546   3.799 -0.1007 -0.0226 -0.7229
   30CHL1  H26A 2214   4.016   4.441   3.771  1.4703 -0.6604  0.2292
   30CHL1  H26B 2215   4.049   4.547   3.909 -0.7667  0.9117 -0.6625
   30CHL1  H26C 2216   3.953   4.608   3.766 -0.1497 -1.8980 -4.6957
   30CHL1   C27 2217   4.259   4.452   3.764  0.4139  0.2894 -0.4002
   30CHL1  H27A 2218   4.364   4.456   3.726  0.3530  0.1791 -0.5841
   30CHL1  H27B 2219   4.262   4.449   3.875 -0.7714  1.1297 -0.3362
   30CHL1  H27C 2220   4.216   4.355   3.731  0.7869  0.1405 -0.4537
   31CHL1    C3 2221   3.630   4.524   2.265  0.5689  0.2903 -0.0967
   31CHL1    H3 2222   3.644   4.417   2.290  0.3860  0.2018 -0.3697
   31CHL1    O3 2223   3.634   4.555   2.129 -0.0338 -0.7792  0.5410
   31CHL1   H3' 2224   3.610   4.648   2.134 -1.7313 -0.4832 -5.6840
   31CHL1    C4 2225   3.496   4.568   2.322  0.2643 -0.6996  0.2627
   31CHL1   H4A 2226   3.470   4.674   2.303  0.6341 -0.0268  3.0625
   31CHL1   H4B 2227   3.419   4.508   2.269  1.4284 -2.9455  0.9954
   31CHL1    C5 2228   3.493   4.546   2.473  0.3107 -0.5006 -0.1751
   31CHL1    C6 2229   3.396   4.473   2.538  0.1588  0.8571  0.0786
   31CHL1    H6 2230   3.333   4.410   2.473  2.8701 -1.2486 -0.7128
   31CHL1    C7 2231   3.383   4.459   2.686  0.0726 -0.2941 -0.1174
   31CHL1   H7A 2232   3.280   4.478   2.721 -0.3014 -1.6288 -0.4106
   31CHL1   H7B 2233   3.399   4.349   2.700 -1.6832 -0.4480  0.9336
   31CHL1    C8 2234   3.471   4.556   2.764  1.0897  0.1119  0.5767
   31CHL1    H8 2235   3.419   4.653   2.775  1.3073  0.1242  1.6652
   31CHL1   C14 2236   3.496   4.501   2.905  0.2821 -0.5753 -0.4017
   31CHL1   H14 2237   3.543   4.401   2.891 -1.3502 -1.2401 -1.5691
   31CHL1   C15 2238   3.368   4.460   2.990 -0.6678 -0.6744  0.3281
   31CHL1  H15A 2239   3.294   4.543   2.983 -0.3654 -0.3961  0.3876
   31CHL1  H15B 2240   3.322   4.366   2.954 -0.0448 -0.6727 -0.4956
   31CHL1   C16 2241   3.422   4.448   3.139  0.0132  0.5983  0.5738
   31CHL1  H16A 2242   3.359   4.509   3.207 -0.7422  4.1161 -2.9154
   31CHL1  H16B 2243   3.425   4.341   3.169  0.9230 -0.3527 -2.5008
   31CHL1   C17 2244   3.567   4.501   3.124 -0.0108 -0.1179 -0.6266
   31CHL1   H17 2245   3.626   4.410   3.099 -1.8898 -1.4276 -0.5436
   31CHL1   C13 2246   3.580   4.582   2.999 -0.6489 -0.6763 -0.3090
   31CHL1   C18 2247   3.525   4.729   3.021 -0.3473 -0.3357 -0.8481
   31CHL1  H18A 2248   3.583   4.776   3.104 -0.3216  0.8102 -1.4996
   31CHL1  H18B 2249   3.536   4.794   2.932  0.1025  1.0792  0.2000
   31CHL1  H18C 2250   3.418   4.716   3.046 -0.2802  0.5292 -0.0124
   31CHL1   C12 2251   3.725   4.575   2.931 -0.1932 -0.4980  0.2050
   31CHL1  H12A 2252   3.803   4.629   2.989 -0.2502  1.1933 -1.1979
   31CHL1  H12B 2253   3.750   4.467   2.921 -0.4861 -0.4601 -1.2524
   31CHL1   C11 2254   3.710   4.645   2.786  0.2979  0.6196  0.0493
   31CHL1  H11A 2255   3.708   4.755   2.802  1.4590  0.1300  5.7214
   31CHL1  H11B 2256   3.812   4.627   2.744 -0.0329 -2.3489  0.3382
   31CHL1    C9 2257   3.604   4.576   2.696  1.2281  0.0491  0.3038
   31CHL1    H9 2258   3.644   4.472   2.693 -0.4870 -0.6340 -2.2897
   31CHL1   C10 2259   3.599   4.622   2.548 -0.0262 -0.3791 -0.7399
   31CHL1   C19 2260   3.576   4.774   2.542 -0.2579 -0.2612 -0.0547
   31CHL1  H19A 2261   3.482   4.799   2.595  0.0357 -2.3712  1.5981
   31CHL1  H19B 2262   3.655   4.830   2.597 -1.6296  0.0341  1.6803
   31CHL1  H19C 2263   3.585   4.809   2.437  3.1300 -0.4623  0.0489
   31CHL1    C1 2264   3.742   4.582   2.486  0.3493  0.0007  0.0699
   31CHL1   H1A 2265   3.812   4.650   2.539  1.8277 -1.6226  0.2949
   31CHL1   H1B 2266   3.766   4.478   2.514 -0.7873  0.4777  3.2296
   31CHL1    C2 2267   3.746   4.602   2.332 -0.1683 -0.1582  0.2747
   31CHL1   H2A 2268   3.845   4.573   2.290  1.0750  4.0361 -0.0845
   31CHL1   H2B 2269   3.740   4.709   2.305  1.2752  0.4360  2.1360
   31CHL1   C20 2270   3.617   4.562   3.262  0.1738  0.2900  0.1006
   31CHL1   H20 2271   3.552   4.649   3.288  0.2959  0.7238 -0.9795
   31CHL1   C21 2272   3.760   4.617   3.248  0.1139 -0.1736  0.1764
   31CHL1  H21A 2273   3.821   4.533   3.207 -1.7776 -0.9168 -1.2693
   31CHL1  H21B 2274   3.805   4.645   3.345 -2.7913  1.5931  1.1162
   31CHL1  H21C 2275   3.754   4.705   3.181 -0.0937  0.9204  1.5974
   31CHL1   C22 2276   3.599   4.477   3.390 -0.4254  0.5416  0.6139
   31CHL1  H22A 2277   3.495   4.438   3.390 -0.9090  1.7692  1.1654
   31CHL1  H22B 2278   3.652   4.380   3.379 -1.6492 -0.1009  0.1757
   31CHL1   C23 2279   3.618   4.554   3.517 -0.4715 -0.0350 -0.1265
   31CHL1  H23A 2280   3.705   4.622   3.509  0.0942 -0.8748 -1.4662
   31CHL1  H23B 2281   3.526   4.616   3.516 -0.1816  0.3904 -1.0328
   31CHL1   C24 2282   3.642   4.465   3.631  0.5756  0.2885  0.9360
   31CHL1  H24A 2283   3.553   4.400   3.630  0.6886  0.1238 -0.7993
   31CHL1  H24B 2284   3.729   4.402   3.603  1.4635  2.9615 -3.3185
   31CHL1   C25 2285   3.646   4.541   3.765 -0.1478 -0.4947 -0.6527
   31CHL1   H25 2286   3.731   4.613   3.773 -0.7060 -0.0191  1.6961
   31CHL1   C26 2287   3.512   4.603   3.792 -0.3016  0.2090  0.0599
   31CHL1  H26A 2288   3.438   4.522   3.776  1.3950 -1.1425 -1.3392
   31CHL1  H26B 2289   3.494   4.637   3.897  0.7483  1.8997 -0.2676
   31CHL1  H26C 2290   3.499   4.693   3.729  0.7326  0.6389  0.4347
   31CHL1   C27 2291   3.680   4.441   3.877 -0.0194 -0.9970  0.2710
   31CHL1  H27A 2292   3.655   4.478   3.978 -0.4262  0.9060 -0.4765
   31CHL1  H27B 2293   3.630   4.344   3.856 -3.1139  0.4654  0.1475
   31CHL1  H27C 2294   3.790   4.436   3.871  0.1417  2.0954 -2.0054
   32CHL1    C3 2295   3.538   2.339   2.161 -0.5942 -0.3625 -0.4401
   32CHL1    H3 2296   3.430   2.318   2.141 -1.4045  1.9014  1.0900
   32CHL1    O3 2297   3.607   2.321   2.043  0.0715  0.7846 -0.2081
   32CHL1   H3' 2298   3.579   2.392   1.984 -0.6536  0.2098 -0.5730
   32CHL1    C4 2299   3.551   2.486   2.215  0.1821  0.1420 -0.2729
   32CHL1   H4A 2300   3.661   2.490   2.226  0.1993 -0.6881 -0.0527
   32CHL1   H4B 2301   3.516   2.557   2.138 -1.1727  2.2330  2.1103
   32CHL1    C5 2302   3.478   2.514   2.345  0.3956  0.3799  0.5761
   32CHL1    C6 2303   3.395   2.620   2.354  0.6635 -0.7103  0.5000
   32CHL1    H6 2304   3.386   2.695   2.274  1.3496  0.1593  1.2152
   32CHL1    C7 2305   3.315   2.647   2.479  0.0161 -0.1482  0.1595
   32CHL1   H7A 2306   3.323   2.752   2.515  2.0365 -0.9268  2.2287
   32CHL1   H7B 2307   3.208   2.617   2.472  0.0281  0.2507 -3.7174
   32CHL1    C8 2308   3.371   2.572   2.603  0.0285 -0.8243 -0.3322
   32CHL1    H8 2309   3.456   2.635   2.637  0.7855 -0.6750 -2.3373
   32CHL1   C14 2310   3.273   2.561   2.717 -0.5119  0.1102 -1.2051
   32CHL1   H14 2311   3.193   2.498   2.673 -1.4298 -0.5016  1.2110
   32CHL1   C15 2312   3.206   2.692   2.755  0.6384  0.4121  0.4652
   32CHL1  H15A 2313   3.289   2.765   2.763 -1.1033  2.5453  0.0798
   32CHL1  H15B 2314   3.135   2.718   2.673  0.3004 -0.7430  0.3678
   32CHL1   C16 2315   3.139   2.664   2.890 -0.6686 -0.1291 -1.0601
   32CHL1  H16A 2316   3.168   2.747   2.959  1.3441 -1.5125 -0.1311
   32CHL1  H16B 2317   3.028   2.660   2.894 -0.6298 -1.6229  2.8700
   32CHL1   C17 2318   3.181   2.516   2.932 -0.0516 -0.2640 -0.2755
   32CHL1   H17 2319   3.109   2.446   2.884 -0.3201 -0.5758  0.5650
   32CHL1   C13 2320   3.310   2.498   2.848 -0.2594  0.1339 -0.2681
   32CHL1   C18 2321   3.417   2.586   2.925  0.0473 -0.4335 -0.0178
   32CHL1  H18A 2322   3.378   2.685   2.958  1.6698 -0.0425  0.8198
   32CHL1  H18B 2323   3.445   2.535   3.019  2.4421  2.4983  1.0319
   32CHL1  H18C 2324   3.503   2.602   2.855 -0.4997 -2.6268 -1.2735
   32CHL1   C12 2325   3.355   2.355   2.827 -0.3687  0.0249  0.6793
   32CHL1  H12A 2326   3.404   2.315   2.918  0.3743 -1.7661 -0.4618
   32CHL1  H12B 2327   3.262   2.294   2.819 -0.6876  0.5734  0.0192
   32CHL1   C11 2328   3.450   2.339   2.703 -0.0020 -0.4025  0.5122
   32CHL1  H11A 2329   3.543   2.387   2.740 -0.0252  0.0694 -0.0263
   32CHL1  H11B 2330   3.475   2.233   2.683 -1.0702 -0.8201  1.3018
   32CHL1    C9 2331   3.409   2.422   2.574  0.1487 -1.0443 -0.3068
   32CHL1    H9 2332   3.310   2.380   2.544 -0.6824  1.8850 -2.0807
   32CHL1   C10 2333   3.505   2.409   2.452 -0.1245 -0.1375  0.1393
   32CHL1   C19 2334   3.654   2.429   2.497 -0.0285  0.1355  0.3917
   32CHL1  H19A 2335   3.726   2.437   2.413 -0.2388 -1.1057  0.0695
   32CHL1  H19B 2336   3.654   2.518   2.563 -0.4187  1.7386 -1.6631
   32CHL1  H19C 2337   3.681   2.342   2.560  1.6474  0.8229  0.6755
   32CHL1    C1 2338   3.502   2.266   2.402  0.2345  0.5286 -0.3049
   32CHL1   H1A 2339   3.531   2.187   2.475  0.3123  0.2838 -0.5967
   32CHL1   H1B 2340   3.397   2.240   2.377  0.6157  0.5702 -2.0570
   32CHL1    C2 2341   3.585   2.243   2.273 -0.1365  0.3627  0.0853
   32CHL1   H2A 2342   3.577   2.139   2.235  0.0432  0.4021 -0.0594
   32CHL1   H2B 2343   3.689   2.267   2.304 -0.0098 -2.0318  1.8064
   32CHL1   C20 2344   3.167   2.501   3.088 -1.1366  0.2082 -0.0373
   32CHL1   H20 2345   3.228   2.578   3.141 -3.6230  0.8667  2.0890
   32CHL1   C21 2346   3.222   2.360   3.126  0.6626  0.8973 -0.2324
   32CHL1  H21A 2347   3.331   2.353   3.103 -0.0169 -0.7080 -3.6400
   32CHL1  H21B 2348   3.164   2.295   3.058 -0.7699  1.5210  0.3507
   32CHL1  H21C 2349   3.196   2.344   3.232 -0.5510  1.1197 -0.4879
   32CHL1   C22 2350   3.023   2.527   3.141 -0.0745  0.8685  0.7663
   32CHL1  H22A 2351   3.004   2.637   3.137 -1.4061  0.6129 -1.5097
   32CHL1  H22B 2352   2.958   2.475   3.068  1.7036  1.0144 -1.0341
   32CHL1   C23 2353   2.981   2.478   3.283  0.2727  0.0321  0.4203
   32CHL1  H23A 2354   2.872   2.495   3.293  0.1784 -0.8360  0.9398
   32CHL1  H23B 2355   2.991   2.368   3.289  0.8408  0.0101 -0.6825
   32CHL1   C24 2356   3.066   2.533   3.392 -0.0633 -0.7443 -0.8204
   32CHL1  H24A 2357   3.175   2.515   3.381  0.3980  0.5619  1.0067
   32CHL1  H24B 2358   3.063   2.644   3.393 -0.2317 -0.7388  0.3823
   32CHL1   C25 2359   3.036   2.483   3.536 -0.6878  0.2380  0.3519
   32CHL1   H25 2360   3.021   2.373   3.531  0.8173  0.0625 -1.3365
   32CHL1   C26 2361   3.150   2.519   3.632  0.6682 -0.0060  0.2692
   32CHL1  H26A 2362   3.151   2.630   3.637 -3.8177  0.2900 -1.1197
   32CHL1  H26B 2363   3.120   2.496   3.736 -1.4348  1.0671 -0.0477
   32CHL1  H26C 2364   3.240   2.460   3.604  0.2009  0.4907 -2.5597
   32CHL1   C27 2365   2.913   2.543   3.594 -0.8431 -0.3211  0.0175
   32CHL1  H27A 2366   2.826   2.536   3.525 -0.6602  2.0404 -0.5541
   32CHL1  H27B 2367   2.890   2.498   3.692  2.1198 -0.4224  0.7656
   32CHL1  H27C 2368   2.930   2.653   3.606  5.7655 -0.8773 -0.4888
   33CHL1    C3 2369   2.139   2.916   2.272  0.5686  0.3620  0.7933
   33CHL1    H3 2370   2.042   2.872   2.302  1.6928 -2.0008  1.1848
   33CHL1    O3 2371   2.153   2.906   2.128  0.0885 -0.5763 -0.1251
   33CHL1   H3' 2372   2.148   2.812   2.114  3.2672 -0.5306 -2.5855
   33CHL1    C4 2373   2.136   3.059   2.313  0.6414  0.6098  0.7332
   33CHL1   H4A 2374   2.233   3.108   2.288  0.8249  0.0588  0.3715
   33CHL1   H4B 2375   2.053   3.108   2.258 -1.4075 -0.1097  3.0101
   33CHL1    C5 2376   2.121   3.076   2.461 -0.1193 -0.1372 -0.3628
   33CHL1    C6 2377   2.021   3.146   2.517 -0.2918 -0.8540 -0.3496
   33CHL1    H6 2378   1.957   3.198   2.445  0.3127 -2.1956 -1.9156
   33CHL1    C7 2379   1.994   3.169   2.664  0.2661 -0.4694  0.0156
   33CHL1   H7A 2380   1.961   3.275   2.678  1.2574 -0.4629  3.0157
   33CHL1   H7B 2381   1.908   3.103   2.687  0.8850 -1.2283  0.1534
   33CHL1    C8 2382   2.114   3.124   2.754  0.4462 -0.6472 -0.5084
   33CHL1    H8 2383   2.205   3.188   2.751  1.9813 -2.6808 -0.0196
   33CHL1   C14 2384   2.065   3.089   2.893  0.0561  0.2147 -0.0352
   33CHL1   H14 2385   1.991   3.008   2.876 -1.7915  1.8705 -0.2590
   33CHL1   C15 2386   1.990   3.196   2.968  0.0774 -0.1586  0.2096
   33CHL1  H15A 2387   2.036   3.296   2.952 -0.3923  0.1108  0.5028
   33CHL1  H15B 2388   1.883   3.196   2.938 -0.0948  3.5176  0.3427
   33CHL1   C16 2389   1.991   3.162   3.121  0.3278  0.9969  0.1269
   33CHL1  H16A 2390   2.038   3.246   3.176  2.3929 -1.0811  1.7829
   33CHL1  H16B 2391   1.889   3.139   3.157 -0.2968  0.0024 -2.0869
   33CHL1   C17 2392   2.090   3.032   3.119 -0.4730 -0.3603 -0.1154
   33CHL1   H17 2393   2.033   2.937   3.109 -1.1639  0.1387 -1.0974
   33CHL1   C13 2394   2.173   3.041   2.991 -0.5788 -0.5960 -0.0777
   33CHL1   C18 2395   2.281   3.154   3.003  0.3111 -0.2019 -0.1761
   33CHL1  H18A 2396   2.341   3.165   2.910 -0.2433 -1.6159 -0.7318
   33CHL1  H18B 2397   2.229   3.252   3.014  1.5171  0.4814 -0.4022
   33CHL1  H18C 2398   2.354   3.128   3.083  1.2211  0.1221 -0.8896
   33CHL1   C12 2399   2.235   2.907   2.935  0.2181 -0.7645 -0.1796
   33CHL1  H12A 2400   2.327   2.881   2.992  1.9476  1.6256 -1.6942
   33CHL1  H12B 2401   2.161   2.824   2.941  0.1457 -0.9833 -2.9060
   33CHL1   C11 2402   2.277   2.926   2.791 -0.3152 -0.1939 -0.1599
   33CHL1  H11A 2403   2.374   2.979   2.793 -0.4737  0.1283 -1.0641
   33CHL1  H11B 2404   2.284   2.817   2.767 -2.3981 -0.9160  2.0217
   33CHL1    C9 2405   2.166   2.986   2.698 -0.0203  0.7508 -0.0458
   33CHL1    H9 2406   2.081   2.916   2.714  0.1394  0.9068  1.6753
   33CHL1   C10 2407   2.209   2.990   2.552 -0.5700  0.0239  0.7821
   33CHL1   C19 2408   2.352   3.045   2.550  0.1913 -0.3790  0.4392
   33CHL1  H19A 2409   2.424   2.977   2.600 -0.2995  0.5748  2.5281
   33CHL1  H19B 2410   2.392   3.063   2.448  0.7022  3.6281  1.1971
   33CHL1  H19C 2411   2.344   3.143   2.601  1.2092 -0.1132  0.1121
   33CHL1    C1 2412   2.213   2.845   2.500 -0.2771 -0.8006 -0.0978
   33CHL1   H1A 2413   2.271   2.774   2.563 -3.0393 -2.6718  0.5079
   33CHL1   H1B 2414   2.108   2.812   2.518 -0.0946 -0.5402  1.5779
   33CHL1    C2 2415   2.243   2.836   2.350  0.4725 -0.4376  0.0826
   33CHL1   H2A 2416   2.221   2.729   2.327 -1.2791  0.0667 -0.7940
   33CHL1   H2B 2417   2.344   2.875   2.327 -0.0943  1.3206  0.4401
   33CHL1   C20 2418   2.162   3.022   3.252  0.2581 -0.0027 -0.2013
   33CHL1   H20 2419   2.246   3.094   3.253 -0.3061  0.6673 -0.0504
   33CHL1   C21 2420   2.221   2.878   3.258 -0.0710  0.0053 -0.0382
   33CHL1  H21A 2421   2.304   2.856   3.189  2.6890  0.6782  2.8314
   33CHL1  H21B 2422   2.138   2.806   3.241  0.6632 -0.2126 -3.3492
   33CHL1  H21C 2423   2.263   2.867   3.361  2.0679  0.5672 -0.8008
   33CHL1   C22 2424   2.070   3.042   3.374  0.3564 -0.4878 -0.3229
   33CHL1  H22A 2425   2.021   3.140   3.362  1.4146  0.0226 -0.6087
   33CHL1  H22B 2426   1.994   2.961   3.384  1.4348 -1.4459  0.4797
   33CHL1   C23 2427   2.127   3.054   3.517 -0.0015  0.6606  0.1250
   33CHL1  H23A 2428   2.173   2.954   3.532 -0.2538  0.5000 -0.1650
   33CHL1  H23B 2429   2.205   3.133   3.530 -0.8476  1.1983  2.4450
   33CHL1   C24 2430   2.031   3.060   3.639  0.3532  0.2994  0.0881
   33CHL1  H24A 2431   2.057   3.157   3.686 -0.9461  1.9973 -2.4723
   33CHL1  H24B 2432   1.924   3.061   3.607  0.8378  0.6791 -1.6413
   33CHL1   C25 2433   2.041   2.948   3.740  0.1438  0.5704 -0.5750
   33CHL1   H25 2434   2.030   2.851   3.686 -0.0930  0.3792 -0.1922
   33CHL1   C26 2435   2.165   2.955   3.825 -0.5657  0.8713 -0.1894
   33CHL1  H26A 2436   2.202   2.856   3.860  0.6672  0.0776 -3.3351
   33CHL1  H26B 2437   2.251   2.991   3.764  0.0786  1.4286  1.0105
   33CHL1  H26C 2438   2.154   3.026   3.909 -0.4368 -0.1697  0.7319
   33CHL1   C27 2439   1.923   2.957   3.840  0.3096  0.8991  0.5706
   33CHL1  H27A 2440   1.938   2.892   3.929  0.9280  2.1400  1.4072
   33CHL1  H27B 2441   1.895   3.059   3.875 -1.8600  0.2534  0.8755
   33CHL1  H27C 2442   1.824   2.930   3.797  1.4879 -1.5330 -0.7894
   34CHL1    C3 2443   4.952   5.088   2.208  0.0898  0.3719 -0.0610
   34CHL1    H3 2444   5.047   5.030   2.215 -0.1316  0.0368  0.2146
   34CHL1    O3 2445   4.915   5.081   2.071 -0.0201 -0.5651 -0.2403
   34CHL1   H3' 2446   4.901   4.987   2.057 -0.1710 -0.4970 -0.5422
   34CHL1    C4 2447   4.842   5.012   2.290 -0.0552 -0.6957 -1.2270
   34CHL1   H4A 2448   4.745   5.052   2.253  0.6450  2.5707  0.1222
   34CHL1   H4B 2449   4.839   4.903   2.267 -2.2942 -0.3914 -2.6824
   34CHL1    C5 2450   4.845   5.041   2.440 -0.1090  0.5503  0.3117
   34CHL1    C6 2451   4.843   4.941   2.528  0.3532 -0.4501  0.0956
   34CHL1    H6 2452   4.831   4.842   2.482  1.7185  0.5598 -2.6458
   34CHL1    C7 2453   4.844   4.965   2.675  0.6760  0.8581 -0.4501
   34CHL1   H7A 2454   4.773   4.902   2.732 -1.3007  3.4585  0.1114
   34CHL1   H7B 2455   4.942   4.937   2.718 -0.2127 -2.2613 -0.1821
   34CHL1    C8 2456   4.805   5.108   2.717 -0.2931 -0.1260  0.2072
   34CHL1    H8 2457   4.699   5.121   2.688 -0.3264 -0.7647  0.0227
   34CHL1   C14 2458   4.834   5.128   2.864  0.2990 -0.1121  0.4308
   34CHL1   H14 2459   4.944   5.125   2.881  0.3601  0.5588  0.1795
   34CHL1   C15 2460   4.769   5.033   2.967  0.6314  0.1388  0.6999
   34CHL1  H15A 2461   4.662   5.026   2.939  0.8793 -1.0991  0.0013
   34CHL1  H15B 2462   4.822   4.936   2.953  0.1795  0.1357 -1.2535
   34CHL1   C16 2463   4.780   5.098   3.101  0.0431 -0.2415 -0.0563
   34CHL1  H16A 2464   4.679   5.097   3.148 -0.0745 -0.6073 -0.3040
   34CHL1  H16B 2465   4.849   5.041   3.167 -2.5122  0.8670  3.9547
   34CHL1   C17 2466   4.819   5.245   3.076 -0.4031 -0.0032  0.8365
   34CHL1   H17 2467   4.929   5.256   3.081 -0.1168 -2.7057  1.7732
   34CHL1   C13 2468   4.794   5.267   2.921  0.3509 -0.3944 -0.6700
   34CHL1   C18 2469   4.649   5.295   2.911  0.4738 -0.8509  0.9280
   34CHL1  H18A 2470   4.588   5.220   2.967 -0.4872 -1.3922 -0.7818
   34CHL1  H18B 2471   4.625   5.395   2.954  1.0589 -0.2055 -0.2104
   34CHL1  H18C 2472   4.613   5.299   2.806  2.6179 -1.9344  0.1073
   34CHL1   C12 2473   4.878   5.364   2.840  0.5781  0.0741 -0.0963
   34CHL1  H12A 2474   4.866   5.463   2.887  1.9162  0.7875 -1.1592
   34CHL1  H12B 2475   4.985   5.340   2.860  1.3466  2.2864 -1.2245
   34CHL1   C11 2476   4.848   5.359   2.688 -0.1055  0.1246 -0.1121
   34CHL1  H11A 2477   4.742   5.387   2.672 -0.6594 -0.4671  2.1650
   34CHL1  H11B 2478   4.913   5.433   2.636  1.2154 -1.5927 -1.0037
   34CHL1    C9 2479   4.874   5.216   2.636 -0.3130  0.1272 -0.0571
   34CHL1    H9 2480   4.983   5.207   2.658 -0.1467  0.7929 -0.5821
   34CHL1   C10 2481   4.858   5.193   2.478 -0.3684 -0.8280  0.0869
   34CHL1   C19 2482   4.728   5.270   2.435  0.3955 -0.4775  0.4855
   34CHL1  H19A 2483   4.712   5.232   2.332 -0.5722 -0.7061  0.7023
   34CHL1  H19B 2484   4.642   5.240   2.500 -0.5062 -1.2525 -1.0131
   34CHL1  H19C 2485   4.731   5.381   2.424 -0.3503 -0.4303  0.6451
   34CHL1    C1 2486   4.981   5.248   2.400 -0.5111 -0.1616 -0.7024
   34CHL1   H1A 2487   4.999   5.355   2.426  0.2743 -0.5356  0.3696
   34CHL1   H1B 2488   5.074   5.194   2.428 -0.2283  0.3918 -0.5471
   34CHL1    C2 2489   4.965   5.232   2.246 -0.1813 -0.7977  0.6026
   34CHL1   H2A 2490   5.051   5.281   2.196 -2.4898  3.5935  0.4282
   34CHL1   H2B 2491   4.879   5.294   2.213  0.9710  0.7671  0.4271
   34CHL1   C20 2492   4.768   5.350   3.176 -0.0865  0.3895 -0.5022
   34CHL1   H20 2493   4.658   5.349   3.160 -0.0319 -2.3155 -1.1587
   34CHL1   C21 2494   4.820   5.492   3.137  0.0934 -0.1887 -0.3004
   34CHL1  H21A 2495   4.924   5.481   3.099 -0.2441 -0.1078 -1.2602
   34CHL1  H21B 2496   4.818   5.554   3.229  2.8265 -1.9982  1.1500
   34CHL1  H21C 2497   4.755   5.534   3.058 -0.2813  1.9905  1.1011
   34CHL1   C22 2498   4.802   5.317   3.325 -0.3639 -0.1283 -0.4025
   34CHL1  H22A 2499   4.846   5.216   3.337  2.7917  1.2940  1.0278
   34CHL1  H22B 2500   4.879   5.389   3.360 -0.9289  0.8970 -1.2118
   34CHL1   C23 2501   4.674   5.324   3.407  0.2490  0.5642  0.2011
   34CHL1  H23A 2502   4.640   5.428   3.425 -1.9762 -0.5637  3.3370
   34CHL1  H23B 2503   4.599   5.265   3.350 -0.8418  1.3880  0.7626
   34CHL1   C24 2504   4.685   5.266   3.549  0.2598  0.6268 -0.4901
   34CHL1  H24A 2505   4.593   5.284   3.609  1.5659  0.3242  1.7225
   34CHL1  H24B 2506   4.705   5.157   3.548  0.6087  0.6935 -1.0037
   34CHL1   C25 2507   4.788   5.331   3.657 -0.8973  0.0610  0.0989
   34CHL1   H25 2508   4.894   5.311   3.630 -0.8364 -1.4872  1.2904
   34CHL1   C26 2509   4.781   5.481   3.663 -0.7775 -0.8134 -0.6013
   34CHL1  H26A 2510   4.682   5.528   3.645  0.8955  2.7134 -1.3416
   34CHL1  H26B 2511   4.795   5.518   3.767 -0.0075  0.6617 -1.1981
   34CHL1  H26C 2512   4.859   5.537   3.608  1.1419 -1.1309  1.6379
   34CHL1   C27 2513   4.771   5.256   3.791 -0.5485 -0.0506 -0.4211
   34CHL1  H27A 2514   4.670   5.281   3.829 -1.9182 -1.4578 -2.9133
   34CHL1  H27B 2515   4.782   5.147   3.773 -0.6399 -0.1698  0.2058
   34CHL1  H27C 2516   4.860   5.283   3.852 -1.3882 -1.2805  1.4478
   35CHL1    C3 2517   2.526   4.649   2.289 -0.6345 -0.6931  0.5649
   35CHL1    H3 2518   2.538   4.759   2.274  1.1438 -1.1772 -2.3470
   35CHL1    O3 2519   2.538   4.592   2.163  0.3080  0.1754  0.0009
   35CHL1   H3' 2520   2.560   4.499   2.173  0.3889  0.0295 -1.3259
   35CHL1    C4 2521   2.644   4.595   2.372 -0.2679  0.6093 -0.1739
   35CHL1   H4A 2522   2.652   4.484   2.363 -0.1771  0.6233 -0.2679
   35CHL1   H4B 2523   2.736   4.630   2.321  0.3916  0.0139  0.5928
   35CHL1    C5 2524   2.641   4.637   2.515 -0.8831 -0.2368  0.5980
   35CHL1    C6 2525   2.746   4.704   2.567 -0.9405  0.1552 -0.5560
   35CHL1    H6 2526   2.832   4.730   2.503 -0.1778 -0.1556  0.3257
   35CHL1    C7 2527   2.743   4.750   2.710 -0.1573  0.8514 -0.4438
   35CHL1   H7A 2528   2.842   4.741   2.760  0.3889  1.2246 -1.4133
   35CHL1   H7B 2529   2.715   4.858   2.710  0.0126  0.9013 -0.9912
   35CHL1    C8 2530   2.632   4.678   2.799 -0.0097 -0.3813 -0.1671
   35CHL1    H8 2531   2.674   4.578   2.826  1.6649  0.7598  1.7758
   35CHL1   C14 2532   2.597   4.751   2.929  0.1301  0.4465  0.2465
   35CHL1   H14 2533   2.551   4.845   2.893 -0.4625 -0.0366 -0.2896
   35CHL1   C15 2534   2.720   4.799   3.022  0.0255 -0.0760  0.4581
   35CHL1  H15A 2535   2.798   4.721   3.013  0.9724  0.7149  1.5014
   35CHL1  H15B 2536   2.753   4.890   2.967  2.1693  0.9930  3.3073
   35CHL1   C16 2537   2.662   4.814   3.164  0.3295  0.1503  0.4278
   35CHL1  H16A 2538   2.704   4.738   3.233 -0.6912 -1.9707 -1.1665
   35CHL1  H16B 2539   2.679   4.921   3.186  1.9123 -0.2993  1.5271
   35CHL1   C17 2540   2.509   4.782   3.150  0.0862  0.3785 -0.7369
   35CHL1   H17 2541   2.470   4.881   3.118  0.3870 -0.4015 -3.8593
   35CHL1   C13 2542   2.495   4.691   3.025  0.3761 -1.4744 -0.2481
   35CHL1   C18 2543   2.553   4.556   3.076  0.0540 -0.9288  0.0174
   35CHL1  H18A 2544   2.473   4.512   3.139  0.3445 -0.4482  0.7345
   35CHL1  H18B 2545   2.575   4.487   2.992 -0.6672 -0.4011 -0.6175
   35CHL1  H18C 2546   2.641   4.567   3.143 -1.3032  2.3647  1.4481
   35CHL1   C12 2547   2.360   4.687   2.948 -0.2788  0.6205 -0.1062
   35CHL1  H12A 2548   2.282   4.633   3.005  0.0448 -0.3682 -0.5741
   35CHL1  H12B 2549   2.331   4.794   2.937  0.0804  0.9725  2.0122
   35CHL1   C11 2550   2.382   4.624   2.809  0.3081  0.8961 -0.8637
   35CHL1  H11A 2551   2.392   4.515   2.829 -0.5342  1.1998  1.6827
   35CHL1  H11B 2552   2.282   4.619   2.760 -0.6417 -2.5878  1.0771
   35CHL1    C9 2553   2.499   4.675   2.721  0.4625  0.3204 -0.0969
   35CHL1    H9 2554   2.482   4.784   2.702 -0.0833  0.2601  0.0202
   35CHL1   C10 2555   2.507   4.607   2.581  0.6590 -0.6011  0.5522
   35CHL1   C19 2556   2.492   4.450   2.605 -0.7250 -0.6706 -0.0899
   35CHL1  H19A 2557   2.563   4.408   2.679 -1.2227  1.9587  2.0733
   35CHL1  H19B 2558   2.390   4.423   2.639 -1.0943  1.3184  0.5271
   35CHL1  H19C 2559   2.496   4.397   2.508  0.8250  1.4601 -1.2845
   35CHL1    C1 2560   2.390   4.652   2.494 -0.1221  0.9696 -0.1167
   35CHL1   H1A 2561   2.298   4.620   2.547  0.6208  1.8620  1.7877
   35CHL1   H1B 2562   2.382   4.763   2.491  2.3150  1.1673 -1.5271
   35CHL1    C2 2563   2.397   4.609   2.345  0.0217 -0.3948 -0.0146
   35CHL1   H2A 2564   2.318   4.648   2.277 -0.5853 -1.4511  0.0623
   35CHL1   H2B 2565   2.382   4.499   2.344 -2.0092 -0.1688  0.8831
   35CHL1   C20 2566   2.439   4.740   3.282 -0.6837  0.2231 -0.2330
   35CHL1   H20 2567   2.489   4.645   3.308  3.8774  2.1576 -0.9432
   35CHL1   C21 2568   2.287   4.728   3.266 -0.2764 -0.2690 -0.4552
   35CHL1  H21A 2569   2.255   4.624   3.242 -2.2734  0.1650  0.1759
   35CHL1  H21B 2570   2.252   4.800   3.189 -0.0357 -1.5051 -1.7707
   35CHL1  H21C 2571   2.227   4.753   3.356  2.1717 -0.5941  1.3527
   35CHL1   C22 2572   2.485   4.824   3.406  0.2106 -0.2263  0.2992
   35CHL1  H22A 2573   2.594   4.843   3.400 -0.2720  3.0653 -0.0494
   35CHL1  H22B 2574   2.442   4.926   3.397 -1.6782 -0.9815  0.2709
   35CHL1   C23 2575   2.460   4.754   3.545  0.1602  0.1721  0.0003
   35CHL1  H23A 2576   2.351   4.748   3.566 -0.1841 -0.3340 -1.6995
   35CHL1  H23B 2577   2.495   4.648   3.538 -0.7947 -0.0781 -1.9018
   35CHL1   C24 2578   2.532   4.829   3.655  0.3549  0.2054  0.6305
   35CHL1  H24A 2579   2.642   4.841   3.653  1.0018 -4.1845  0.7718
   35CHL1  H24B 2580   2.478   4.924   3.677 -0.1228 -0.3844  2.1627
   35CHL1   C25 2581   2.522   4.763   3.797  0.0748 -0.8628 -0.3906
   35CHL1   H25 2582   2.575   4.665   3.792  0.4139 -0.8687  2.2029
   35CHL1   C26 2583   2.601   4.855   3.901 -0.2191  0.4505  0.3471
   35CHL1  H26A 2584   2.560   4.958   3.901 -1.2669  0.0595  1.7623
   35CHL1  H26B 2585   2.596   4.803   3.999 -1.3586 -1.8320 -0.8333
   35CHL1  H26C 2586   2.707   4.857   3.866 -1.2173 -0.2488 -3.1584
   35CHL1   C27 2587   2.370   4.733   3.834  0.7276 -0.2399  0.2144
   35CHL1  H27A 2588   2.301   4.814   3.804  1.6674  0.1412 -0.9795
   35CHL1  H27B 2589   2.343   4.644   3.772  0.2024 -0.5905  0.9242
   35CHL1  H27C 2590   2.368   4.722   3.945  1.1623  2.7584  0.5937
   36CHL1    C3 2591   2.995   1.690   2.244  0.3883 -0.2422  0.7100
   36CHL1    H3 2592   2.901   1.748   2.256 -0.9601 -1.5314 -2.5053
   36CHL1    O3 2593   3.008   1.650   2.110 -0.2371 -0.4520  0.0068
   36CHL1   H3' 2594   3.085   1.594   2.097  0.4960  0.3777  0.6204
   36CHL1    C4 2595   3.110   1.780   2.290  0.0753 -0.7077  0.5494
   36CHL1   H4A 2596   3.211   1.737   2.271  0.3213 -0.0809  0.4204
   36CHL1   H4B 2597   3.108   1.871   2.227 -0.3559  0.5566  2.3191
   36CHL1    C5 2598   3.110   1.813   2.439 -0.5291  0.8631 -0.3312
   36CHL1    C6 2599   3.125   1.940   2.484  0.1430  0.1661 -0.0020
   36CHL1    H6 2600   3.145   2.017   2.409 -1.2667  1.6757  1.1196
   36CHL1    C7 2601   3.120   1.980   2.626  0.2980 -0.0411  0.4156
   36CHL1   H7A 2602   3.193   2.061   2.643  1.0997 -0.6430 -0.1133
   36CHL1   H7B 2603   3.019   2.027   2.635  0.9543  1.5265 -0.2144
   36CHL1    C8 2604   3.129   1.864   2.730  0.0810  0.3563  0.1533
   36CHL1    H8 2605   3.229   1.815   2.728 -0.1144 -0.0898  1.0079
   36CHL1   C14 2606   3.083   1.909   2.870  0.7157  0.3974 -0.0414
   36CHL1   H14 2607   2.973   1.923   2.858  0.8747  1.6490 -0.1762
   36CHL1   C15 2608   3.138   2.042   2.926 -0.2854  0.1461 -0.1909
   36CHL1  H15A 2609   3.247   2.038   2.908 -0.2411  0.5473 -0.0341
   36CHL1  H15B 2610   3.087   2.128   2.878  0.0914 -0.2205 -1.2652
   36CHL1   C16 2611   3.099   2.040   3.074 -0.2043  0.1642  0.3891
   36CHL1  H16A 2612   3.176   2.078   3.143 -2.3464  3.0110  1.4145
   36CHL1  H16B 2613   3.019   2.116   3.088  1.4536  2.5199 -1.9830
   36CHL1   C17 2614   3.048   1.890   3.097 -0.1102 -0.1117 -0.4204
   36CHL1   H17 2615   2.940   1.901   3.074 -0.0891 -0.5735 -0.7469
   36CHL1   C13 2616   3.099   1.803   2.978  0.6090  0.1400 -0.0708
   36CHL1   C18 2617   3.247   1.774   3.007  0.1939  0.2617 -0.4254
   36CHL1  H18A 2618   3.293   1.728   2.916  0.0999  1.0983 -0.9067
   36CHL1  H18B 2619   3.301   1.862   3.047 -1.6613  1.2570 -0.0004
   36CHL1  H18C 2620   3.238   1.693   3.083 -0.0371 -0.4248 -1.1584
   36CHL1   C12 2621   3.015   1.685   2.940 -0.2848  0.3397 -0.6789
   36CHL1  H12A 2622   3.034   1.611   3.021 -0.2580  1.4918  0.4056
   36CHL1  H12B 2623   2.911   1.724   2.935 -0.0104  1.1123 -0.4290
   36CHL1   C11 2624   3.048   1.629   2.803 -0.0214  0.0267  0.2860
   36CHL1  H11A 2625   3.153   1.592   2.812  0.2562  0.5829 -0.5682
   36CHL1  H11B 2626   2.995   1.536   2.775  2.2986 -2.9949  4.6161
   36CHL1    C9 2627   3.048   1.741   2.688  0.4125  0.4135 -0.5778
   36CHL1    H9 2628   2.941   1.770   2.689  0.1267 -0.5826  0.8019
   36CHL1   C10 2629   3.087   1.695   2.541  0.2248 -0.1926  0.7580
   36CHL1   C19 2630   3.220   1.618   2.531  0.6276 -0.5245  0.2715
   36CHL1  H19A 2631   3.237   1.587   2.426  0.4414  1.2077 -0.3161
   36CHL1  H19B 2632   3.309   1.678   2.561  0.6522  0.7436 -2.1013
   36CHL1  H19C 2633   3.214   1.528   2.596 -3.4916  0.8976  2.2191
   36CHL1    C1 2634   2.971   1.602   2.486 -0.3511 -0.3801 -0.1425
   36CHL1   H1A 2635   2.976   1.514   2.553  0.3930  0.7711  1.3903
   36CHL1   H1B 2636   2.872   1.646   2.512  0.0128  0.1483  0.3878
   36CHL1    C2 2637   2.987   1.567   2.338  0.4426 -0.6883  0.0068
   36CHL1   H2A 2638   2.900   1.506   2.304  0.1582  0.9134 -2.4139
   36CHL1   H2B 2639   3.084   1.515   2.321  1.2044  0.1467  1.6561
   36CHL1   C20 2640   3.071   1.838   3.239  0.0805  1.0685  0.2647
   36CHL1   H20 2641   3.169   1.787   3.247  0.5440  2.2002  2.4014
   36CHL1   C21 2642   2.959   1.733   3.282  0.0350 -0.2443 -0.0813
   36CHL1  H21A 2643   2.858   1.778   3.290  0.8192  2.1242 -2.2516
   36CHL1  H21B 2644   3.000   1.683   3.372 -0.3748 -0.7828 -0.1895
   36CHL1  H21C 2645   2.966   1.658   3.201  0.8409  2.2123 -2.4321
   36CHL1   C22 2646   3.083   1.956   3.345  0.8888  0.2080 -0.1402
   36CHL1  H22A 2647   3.177   2.013   3.326  0.9172  0.0008 -0.6074
   36CHL1  H22B 2648   2.998   2.027   3.341 -0.1147 -0.8850  0.9708
   36CHL1   C23 2649   3.101   1.907   3.485 -0.4819 -0.0338 -0.2100
   36CHL1  H23A 2650   3.019   1.839   3.517 -0.4015 -1.6929 -3.1906
   36CHL1  H23B 2651   3.197   1.854   3.499 -1.3559 -1.6054  0.0863
   36CHL1   C24 2652   3.104   2.029   3.577  0.2462  0.2284 -0.2189
   36CHL1  H24A 2653   3.165   2.115   3.544 -0.6867  1.5079  1.2778
   36CHL1  H24B 2654   3.003   2.075   3.580  1.2824  2.5842  0.6876
   36CHL1   C25 2655   3.143   1.991   3.727 -0.2936  0.0687 -0.8667
   36CHL1   H25 2656   3.246   1.950   3.732  0.0316  0.9643  0.1659
   36CHL1   C26 2657   3.142   2.111   3.821  0.3499  0.1795  0.1383
   36CHL1  H26A 2658   3.214   2.191   3.793 -0.3010  0.7154 -0.0158
   36CHL1  H26B 2659   3.047   2.168   3.829  0.2497  0.1118 -0.5517
   36CHL1  H26C 2660   3.175   2.085   3.924  1.7570 -1.1281 -0.6035
   36CHL1   C27 2661   3.055   1.876   3.784 -0.4908  0.3664  0.2360
   36CHL1  H27A 2662   2.952   1.912   3.760 -0.1042  1.5872  0.3269
   36CHL1  H27B 2663   3.063   1.779   3.732 -1.4897  0.4053 -0.0229
   36CHL1  H27C 2664   3.069   1.858   3.893 -0.0001 -1.4889 -0.1014
   37CHL1    C3 2665   5.526   4.626   2.437 -0.4276  0.0595 -0.1271
   37CHL1    H3 2666   5.483   4.728   2.447 -2.8597 -0.6110 -2.5064
   37CHL1    O3 2667   5.556   4.603   2.300 -0.0494 -0.4067 -0.1686
   37CHL1   H3' 2668   5.541   4.511   2.280 -0.0402 -0.4045 -0.1854
   37CHL1    C4 2669   5.661   4.619   2.515  0.2286 -0.4827 -0.3102
   37CHL1   H4A 2670   5.721   4.530   2.490  1.1479  0.6646 -2.4869
   37CHL1   H4B 2671   5.724   4.703   2.478  1.8488 -1.0360  1.0462
   37CHL1    C5 2672   5.631   4.636   2.664 -0.3734 -0.2847 -0.6401
   37CHL1    C6 2673   5.687   4.738   2.741 -0.3443 -0.0020 -0.1420
   37CHL1    H6 2674   5.757   4.806   2.690 -0.1980  1.6493  2.1233
   37CHL1    C7 2675   5.671   4.763   2.885 -0.1895  0.0072 -0.2099
   37CHL1   H7A 2676   5.764   4.784   2.941 -0.5110  0.4384  0.1676
   37CHL1   H7B 2677   5.606   4.853   2.891 -1.0710 -0.4668 -1.8419
   37CHL1    C8 2678   5.599   4.650   2.960  0.3288  0.1783  0.3938
   37CHL1    H8 2679   5.673   4.566   2.964 -1.9951 -2.2097 -2.2432
   37CHL1   C14 2680   5.550   4.702   3.093  0.3076  0.4042  0.5378
   37CHL1   H14 2681   5.475   4.779   3.066  0.1068 -0.0848 -0.3419
   37CHL1   C15 2682   5.649   4.771   3.191  0.5024  0.5259 -0.2865
   37CHL1  H15A 2683   5.754   4.735   3.186  0.4619  0.3704 -0.0107
   37CHL1  H15B 2684   5.641   4.879   3.167  0.4193  1.3521  3.0124
   37CHL1   C16 2685   5.582   4.743   3.321 -0.3929  0.3882 -0.0370
   37CHL1  H16A 2686   5.650   4.672   3.374 -2.0336 -0.1213  1.4661
   37CHL1  H16B 2687   5.578   4.843   3.369 -0.9535  0.4915 -0.3031
   37CHL1   C17 2688   5.448   4.674   3.307 -0.3221 -0.6821 -0.2746
   37CHL1   H17 2689   5.373   4.755   3.293  1.0755  1.2192  2.3439
   37CHL1   C13 2690   5.472   4.597   3.174  0.0997  0.0708  0.8716
   37CHL1   C18 2691   5.575   4.473   3.205 -0.5426  0.3184 -0.6228
   37CHL1  H18A 2692   5.666   4.513   3.253 -0.5277 -0.9522  0.4818
   37CHL1  H18B 2693   5.514   4.395   3.255  1.8585 -1.0620  0.3076
   37CHL1  H18C 2694   5.603   4.420   3.111 -1.7466 -2.4690  0.4557
   37CHL1   C12 2695   5.345   4.551   3.085  0.0222 -0.3805 -0.6151
   37CHL1  H12A 2696   5.278   4.480   3.137 -2.1033  3.2130  2.0917
   37CHL1  H12B 2697   5.288   4.646   3.080  1.1328  0.4726  1.3600
   37CHL1   C11 2698   5.391   4.499   2.949 -0.0762 -0.2897  0.4031
   37CHL1  H11A 2699   5.449   4.405   2.958 -0.1649 -0.4956 -0.9935
   37CHL1  H11B 2700   5.298   4.490   2.888  0.3030  0.6146 -0.3291
   37CHL1    C9 2701   5.484   4.603   2.877 -0.3547 -0.8991 -0.6703
   37CHL1    H9 2702   5.420   4.692   2.863 -0.9663 -1.4520 -1.4722
   37CHL1   C10 2703   5.521   4.555   2.731 -0.1357  0.1265 -0.3086
   37CHL1   C19 2704   5.570   4.404   2.733 -0.1264 -0.2363  0.4291
   37CHL1  H19A 2705   5.481   4.339   2.746  0.0043 -0.5308 -0.1241
   37CHL1  H19B 2706   5.608   4.379   2.632 -1.4909  0.7936 -0.3608
   37CHL1  H19C 2707   5.653   4.382   2.804 -0.1453 -0.7548  0.2939
   37CHL1    C1 2708   5.396   4.544   2.639  0.3237 -0.5198  0.0524
   37CHL1   H1A 2709   5.333   4.459   2.674  0.8876 -0.8544  0.2737
   37CHL1   H1B 2710   5.341   4.638   2.661  2.6133  0.4900  1.9530
   37CHL1    C2 2711   5.420   4.527   2.483  0.5768  0.3580 -0.1035
   37CHL1   H2A 2712   5.322   4.546   2.434 -0.8727 -1.0062  2.0944
   37CHL1   H2B 2713   5.451   4.424   2.456 -2.2307 -0.6322  0.1190
   37CHL1   C20 2714   5.409   4.599   3.432 -0.5591 -0.0004 -0.4695
   37CHL1   H20 2715   5.470   4.507   3.447 -0.8461  0.2276  2.6860
   37CHL1   C21 2716   5.261   4.558   3.418 -0.4201 -0.3964  0.5372
   37CHL1  H21A 2717   5.185   4.635   3.445 -2.0899 -1.7260 -0.1942
   37CHL1  H21B 2718   5.245   4.469   3.483 -2.6658  1.0290  2.1029
   37CHL1  H21C 2719   5.242   4.534   3.312  0.8594 -0.7296  0.3685
   37CHL1   C22 2720   5.415   4.697   3.555 -0.4672  0.6983  0.0897
   37CHL1  H22A 2721   5.522   4.726   3.557  0.1814 -1.5348 -0.0660
   37CHL1  H22B 2722   5.357   4.791   3.542 -1.3797  0.4293  1.9406
   37CHL1   C23 2723   5.380   4.631   3.690 -0.8072 -1.3279  0.2669
   37CHL1  H23A 2724   5.269   4.619   3.688 -0.7393 -1.9559  0.1225
   37CHL1  H23B 2725   5.435   4.536   3.707  1.6661 -0.3682 -1.6451
   37CHL1   C24 2726   5.432   4.720   3.795 -0.6213  0.7626  0.0555
   37CHL1  H24A 2727   5.536   4.755   3.774 -0.5552 -0.3340 -1.5828
   37CHL1  H24B 2728   5.373   4.814   3.797  0.4387  1.4337  1.2600
   37CHL1   C25 2729   5.433   4.654   3.934  0.4997 -0.4070 -0.5263
   37CHL1   H25 2730   5.492   4.559   3.934  0.4999 -0.4572  1.5625
   37CHL1   C26 2731   5.507   4.737   4.041 -0.3824 -0.6947 -0.0856
   37CHL1  H26A 2732   5.596   4.784   3.995 -0.9472 -0.4118 -0.9078
   37CHL1  H26B 2733   5.445   4.812   4.095  0.9559 -0.0703  0.6231
   37CHL1  H26C 2734   5.545   4.669   4.120  1.6554  1.9496  1.3606
   37CHL1   C27 2735   5.293   4.627   3.989  0.0617  0.3217 -0.0193
   37CHL1  H27A 2736   5.292   4.583   4.091  0.4010  1.6983  0.5948
   37CHL1  H27B 2737   5.251   4.730   3.995  2.6676  1.4700 -0.0308
   37CHL1  H27C 2738   5.243   4.554   3.923  1.1275 -0.4945  0.0568
   38CHL1    C3 2739   3.182   4.809   2.155  0.4466  0.4148 -0.3212
   38CHL1    H3 2740   3.285   4.776   2.183 -0.3361 -0.2513  1.9452
   38CHL1    O3 2741   3.148   4.769   2.023  0.5673 -0.0627 -0.2627
   38CHL1   H3' 2742   3.162   4.674   2.018 -2.0693 -0.5454  0.0435
   38CHL1    C4 2743   3.077   4.747   2.246 -0.2111  0.0568 -0.1364
   38CHL1   H4A 2744   2.980   4.779   2.203  0.0256  2.0769  0.7275
   38CHL1   H4B 2745   3.082   4.636   2.236  1.9676  0.1215 -0.1182
   38CHL1    C5 2746   3.103   4.789   2.384  0.1532  0.1716 -0.2578
   38CHL1    C6 2747   3.118   4.698   2.482  0.1760 -0.8338  0.9105
   38CHL1    H6 2748   3.104   4.591   2.462  0.8533 -0.6127 -0.9402
   38CHL1    C7 2749   3.141   4.725   2.623 -0.0569 -0.1216 -0.8810
   38CHL1   H7A 2750   3.085   4.655   2.688 -1.0966  0.8200 -0.7339
   38CHL1   H7B 2751   3.247   4.710   2.651  0.5656 -0.4153 -3.1906
   38CHL1    C8 2752   3.106   4.868   2.672  0.4193 -0.1199  0.3695
   38CHL1    H8 2753   2.995   4.866   2.675  0.4390 -0.8006  0.9457
   38CHL1   C14 2754   3.161   4.887   2.806 -0.1129 -0.5421 -0.4370
   38CHL1   H14 2755   3.270   4.870   2.795  0.3313  1.1140  1.0001
   38CHL1   C15 2756   3.126   4.798   2.918  0.6223 -0.0126 -0.4448
   38CHL1  H15A 2757   3.018   4.773   2.913  0.7866 -0.6776 -0.8569
   38CHL1  H15B 2758   3.172   4.697   2.913  0.4724 -0.0658 -0.7755
   38CHL1   C16 2759   3.157   4.871   3.045 -0.2015  0.1263  0.1969
   38CHL1  H16A 2760   3.059   4.878   3.097 -0.6022 -0.6499 -0.4363
   38CHL1  H16B 2761   3.238   4.827   3.106 -2.3836 -0.2287  3.0858
   38CHL1   C17 2762   3.208   5.005   2.996 -0.3644 -0.8795 -0.7241
   38CHL1   H17 2763   3.316   4.995   2.973 -0.6911 -2.3783 -1.7324
   38CHL1   C13 2764   3.146   5.033   2.857 -0.0242 -0.0276 -0.1508
   38CHL1   C18 2765   3.003   5.083   2.867 -0.2521 -0.0190 -0.0166
   38CHL1  H18A 2766   2.948   5.094   2.772 -0.9414 -0.5289  0.3158
   38CHL1  H18B 2767   2.937   5.014   2.924 -1.5777  1.7765  0.6983
   38CHL1  H18C 2768   3.000   5.178   2.926 -1.5121 -1.5958  2.6564
   38CHL1   C12 2769   3.218   5.124   2.754  0.5920 -0.5008  1.1095
   38CHL1  H12A 2770   3.194   5.229   2.781  0.3982 -0.7506  1.9642
   38CHL1  H12B 2771   3.328   5.115   2.767  0.4123 -0.4292  3.0236
   38CHL1   C11 2772   3.162   5.116   2.613 -0.3635 -0.5732  0.2484
   38CHL1  H11A 2773   3.057   5.152   2.602 -0.6879 -1.5102  0.2296
   38CHL1  H11B 2774   3.222   5.187   2.552 -0.5712  0.4577  1.2013
   38CHL1    C9 2775   3.162   4.969   2.565  0.3585  0.6167  0.3970
   38CHL1    H9 2776   3.271   4.950   2.567  0.1814 -0.4032  0.9626
   38CHL1   C10 2777   3.108   4.941   2.414 -0.1703 -0.2957 -0.4524
   38CHL1   C19 2778   2.962   4.981   2.414 -0.6102  0.2401 -0.6192
   38CHL1  H19A 2779   2.915   4.927   2.498  0.6330 -0.9949 -0.6850
   38CHL1  H19B 2780   2.948   5.089   2.434  2.1129  1.4863 -4.2977
   38CHL1  H19C 2781   2.910   4.975   2.316  1.7248  0.2172 -1.9396
   38CHL1    C1 2782   3.206   5.006   2.317 -0.3736  0.6088  0.6988
   38CHL1   H1A 2783   3.210   5.116   2.337  0.2327  0.5318  1.0105
   38CHL1   H1B 2784   3.309   4.967   2.329 -0.9894 -1.6991 -0.8487
   38CHL1    C2 2785   3.175   4.969   2.169 -0.1720  0.0118 -0.3305
   38CHL1   H2A 2786   3.255   5.019   2.110  1.0581  0.5692  1.7020
   38CHL1   H2B 2787   3.077   5.002   2.128 -0.6525  0.0424  0.8227
   38CHL1   C20 2788   3.199   5.110   3.110  1.2021 -0.5194  0.7653
   38CHL1   H20 2789   3.092   5.114   3.139  0.1805  0.8541 -2.6486
   38CHL1   C21 2790   3.238   5.248   3.059 -0.1089  0.0695 -0.5625
   38CHL1  H21A 2791   3.172   5.278   2.976 -2.4781 -0.8350  0.8944
   38CHL1  H21B 2792   3.343   5.251   3.022  0.5739  2.8500  1.2714
   38CHL1  H21C 2793   3.232   5.329   3.135  0.5297  2.1449 -2.6195
   38CHL1   C22 2794   3.278   5.064   3.231  0.1800  0.1864  0.1925
   38CHL1  H22A 2795   3.282   4.955   3.251  0.7761  0.5604  2.4311
   38CHL1  H22B 2796   3.381   5.095   3.203 -0.0992  1.5842  0.6035
   38CHL1   C23 2797   3.253   5.139   3.363 -0.0515  0.2324  0.4083
   38CHL1  H23A 2798   3.242   5.246   3.334  0.7172  0.2272  0.0697
   38CHL1  H23B 2799   3.163   5.093   3.409  1.2205 -2.8247  0.0615
   38CHL1   C24 2800   3.352   5.117   3.482 -0.0404 -0.1570  0.7700
   38CHL1  H24A 2801   3.448   5.110   3.427 -0.1040 -0.2677  0.6736
   38CHL1  H24B 2802   3.357   5.210   3.544  0.1854  0.0442  0.4573
   38CHL1   C25 2803   3.330   4.992   3.575  0.3295  0.3315  0.1767
   38CHL1   H25 2804   3.223   5.001   3.605  0.8443 -1.2887  2.9065
   38CHL1   C26 2805   3.352   4.856   3.506  0.0262 -0.3865 -0.2295
   38CHL1  H26A 2806   3.284   4.856   3.418 -0.7137 -1.8236  0.3197
   38CHL1  H26B 2807   3.460   4.838   3.483  0.7648 -0.1825  2.7663
   38CHL1  H26C 2808   3.315   4.771   3.566 -0.5456  0.7096  1.0076
   38CHL1   C27 2809   3.408   5.006   3.706 -0.1692  0.5640  0.5501
   38CHL1  H27A 2810   3.383   5.103   3.754 -1.9923 -0.0795  0.9814
   38CHL1  H27B 2811   3.401   4.918   3.773  0.3736  0.3288  0.3083
   38CHL1  H27C 2812   3.511   5.016   3.665 -0.6289  0.6517 -0.6368
   39CHL1    C3 2813   4.599   5.923   2.130  0.1495 -0.0384  0.1973
   39CHL1    H3 2814   4.699   5.887   2.162 -0.1679 -0.0514  1.2021
   39CHL1    O3 2815   4.606   5.941   1.988 -0.3646 -0.3128 -0.0343
   39CHL1   H3' 2816   4.560   6.023   1.971 -1.8199 -1.4334 -2.0135
   39CHL1    C4 2817   4.481   5.834   2.177 -0.5445  0.0117  0.0183
   39CHL1   H4A 2818   4.387   5.878   2.138 -0.3823  0.7565  0.4460
   39CHL1   H4B 2819   4.480   5.732   2.133  0.5953  0.3125 -0.7430
   39CHL1    C5 2820   4.481   5.825   2.330  0.4975 -0.7218  0.0600
   39CHL1    C6 2821   4.490   5.704   2.388 -0.7532  0.3955  0.2924
   39CHL1    H6 2822   4.504   5.613   2.327  0.2278  1.3548 -0.9693
   39CHL1    C7 2823   4.497   5.684   2.538  0.2232 -0.3804  0.2522
   39CHL1   H7A 2824   4.433   5.597   2.566  1.4434 -1.0646  0.9897
   39CHL1   H7B 2825   4.599   5.651   2.566  0.1097 -1.4808 -0.5317
   39CHL1    C8 2826   4.462   5.812   2.616  0.0507 -0.1806  0.0425
   39CHL1    H8 2827   4.352   5.828   2.614  0.1376  0.5422  0.3605
   39CHL1   C14 2828   4.504   5.802   2.752 -1.1480 -0.5918 -0.1462
   39CHL1   H14 2829   4.615   5.792   2.754 -1.2850 -2.6899 -0.6101
   39CHL1   C15 2830   4.458   5.677   2.833  0.2157  0.0642  0.3761
   39CHL1  H15A 2831   4.355   5.660   2.793 -0.0933 -0.7943  1.4946
   39CHL1  H15B 2832   4.518   5.588   2.803  1.4337  0.2613  2.1001
   39CHL1   C16 2833   4.477   5.711   2.978  0.3277  0.5001 -0.3601
   39CHL1  H16A 2834   4.390   5.691   3.045  0.3570  1.4773 -0.0183
   39CHL1  H16B 2835   4.559   5.647   3.017 -0.1496  0.5782  0.8386
   39CHL1   C17 2836   4.519   5.862   2.977  0.4089 -0.2267 -0.0406
   39CHL1   H17 2837   4.630   5.863   2.969  0.4475  0.5174  0.4381
   39CHL1   C13 2838   4.468   5.917   2.845  0.0870 -0.6021  0.8430
   39CHL1   C18 2839   4.311   5.933   2.848 -0.2412 -0.0420  0.5145
   39CHL1  H18A 2840   4.279   5.960   2.745  0.4624 -1.2628 -0.0460
   39CHL1  H18B 2841   4.261   5.840   2.883 -0.0971 -0.1223  0.5080
   39CHL1  H18C 2842   4.285   6.018   2.915 -0.4377  0.5085 -0.2547
   39CHL1   C12 2843   4.536   6.042   2.789 -0.3896 -0.0884 -0.3780
   39CHL1  H12A 2844   4.497   6.127   2.849  1.3594 -0.0667  0.7798
   39CHL1  H12B 2845   4.646   6.041   2.798 -0.4668  2.0627  1.6757
   39CHL1   C11 2846   4.500   6.067   2.644 -0.1838  0.1844  0.3086
   39CHL1  H11A 2847   4.393   6.096   2.632  0.4651  2.2257 -1.1441
   39CHL1  H11B 2848   4.561   6.149   2.600  1.0495  0.3977  2.3322
   39CHL1    C9 2849   4.521   5.943   2.556 -0.2185  0.0547 -0.2412
   39CHL1    H9 2850   4.629   5.914   2.555 -0.9078 -2.7863 -1.5476
   39CHL1   C10 2851   4.479   5.962   2.410 -0.7034  0.3885 -0.1692
   39CHL1   C19 2852   4.334   6.028   2.394  0.1732  0.5475 -0.6542
   39CHL1  H19A 2853   4.327   6.127   2.445 -0.4309 -0.7003  1.8315
   39CHL1  H19B 2854   4.320   6.047   2.285  4.2823  0.7284 -1.2937
   39CHL1  H19C 2855   4.266   5.960   2.449  0.5946 -0.1217 -0.9544
   39CHL1    C1 2856   4.585   6.056   2.346 -0.0747 -0.9268 -0.2106
   39CHL1   H1A 2857   4.560   6.161   2.375 -1.8069 -0.7438 -2.1375
   39CHL1   H1B 2858   4.689   6.029   2.374 -0.0097  0.7934  1.4307
   39CHL1    C2 2859   4.583   6.062   2.195  0.0681 -0.1974  0.8084
   39CHL1   H2A 2860   4.668   6.125   2.162  0.7053 -2.3314 -2.0700
   39CHL1   H2B 2861   4.487   6.105   2.159  0.5690 -0.2300 -0.6349
   39CHL1   C20 2862   4.487   5.941   3.107  0.1183 -0.0061  0.2896
   39CHL1   H20 2863   4.472   6.048   3.083 -0.8259  0.2654  1.9138
   39CHL1   C21 2864   4.609   5.920   3.203  0.0047  0.9000  0.5295
   39CHL1  H21A 2865   4.579   5.939   3.308 -3.0512 -2.7836  0.5572
   39CHL1  H21B 2866   4.692   5.983   3.164 -1.7945  1.8277 -2.0616
   39CHL1  H21C 2867   4.632   5.811   3.199 -1.3423  0.4979  2.3760
   39CHL1   C22 2868   4.364   5.901   3.188 -0.0565 -0.1938 -0.4935
   39CHL1  H22A 2869   4.272   5.886   3.128 -1.8169  1.2880  1.6929
   39CHL1  H22B 2870   4.395   5.805   3.234  0.2004  0.0648 -0.1275
   39CHL1   C23 2871   4.324   6.013   3.294  0.3274 -0.5986  0.0288
   39CHL1  H23A 2872   4.401   6.022   3.373  0.7205  0.0349 -0.4198
   39CHL1  H23B 2873   4.314   6.104   3.231 -2.0560 -0.6805  0.2130
   39CHL1   C24 2874   4.197   5.972   3.369 -0.0204  0.6433 -0.0282
   39CHL1  H24A 2875   4.124   5.928   3.298  0.9913  0.3126 -0.8938
   39CHL1  H24B 2876   4.231   5.887   3.432 -1.9309 -0.6023 -0.6127
   39CHL1   C25 2877   4.139   6.079   3.457  0.4916  0.8126  1.2009
   39CHL1   H25 2878   4.131   6.175   3.402 -0.0521  0.6045  0.9013
   39CHL1   C26 2879   3.991   6.054   3.506 -0.1525  0.1377 -1.0965
   39CHL1  H26A 2880   3.973   6.129   3.586  1.2053 -0.2435 -0.3938
   39CHL1  H26B 2881   3.920   6.068   3.422  0.4316 -1.0050 -1.8135
   39CHL1  H26C 2882   3.980   5.947   3.535 -1.2642  0.5893  0.2620
   39CHL1   C27 2883   4.235   6.093   3.581 -0.3777 -0.1170  0.4507
   39CHL1  H27A 2884   4.232   6.000   3.642 -1.7051  0.3394  1.1365
   39CHL1  H27B 2885   4.336   6.124   3.548 -0.4398 -0.6241 -0.2221
   39CHL1  H27C 2886   4.198   6.173   3.650 -2.8247 -0.7136 -0.0503
   40CHL1    C3 2887   5.757   2.576   2.198 -0.2851 -0.1379 -0.3190
   40CHL1    H3 2888   5.837   2.646   2.230 -0.4864  0.0265 -0.1801
   40CHL1    O3 2889   5.791   2.546   2.066  0.4408  0.6576  0.3732
   40CHL1   H3' 2890   5.740   2.468   2.041  2.7913 -1.2548  1.1994
   40CHL1    C4 2891   5.767   2.446   2.270  0.0704  0.5041 -0.2312
   40CHL1   H4A 2892   5.692   2.372   2.232 -0.5325  1.6678 -1.3753
   40CHL1   H4B 2893   5.866   2.398   2.258 -1.0452 -1.9525 -0.3357
   40CHL1    C5 2894   5.732   2.468   2.420  0.1464 -0.2025  0.4306
   40CHL1    C6 2895   5.820   2.437   2.511  0.0641  0.1848 -0.4372
   40CHL1    H6 2896   5.912   2.386   2.479 -0.0488 -0.4795  0.2813
   40CHL1    C7 2897   5.800   2.458   2.658  0.6797 -0.0154  0.2743
   40CHL1   H7A 2898   5.844   2.377   2.719 -2.0182 -2.2131 -0.5277
   40CHL1   H7B 2899   5.862   2.546   2.685 -1.5966  1.2443  1.7447
   40CHL1    C8 2900   5.648   2.480   2.690 -0.9233 -0.2150  0.2099
   40CHL1    H8 2901   5.596   2.382   2.682 -0.0404 -0.6158 -0.9969
   40CHL1   C14 2902   5.631   2.538   2.831 -0.1351 -0.6617 -0.6151
   40CHL1   H14 2903   5.678   2.639   2.832 -0.6938 -0.3936 -1.1353
   40CHL1   C15 2904   5.694   2.463   2.952  0.3000  0.5247  0.1877
   40CHL1  H15A 2905   5.667   2.356   2.943  0.6984  0.4061  0.3728
   40CHL1  H15B 2906   5.804   2.477   2.942  0.8944 -0.8452  3.4779
   40CHL1   C16 2907   5.633   2.529   3.074  0.0599 -0.1017 -0.0010
   40CHL1  H16A 2908   5.609   2.442   3.139 -0.5165 -1.1526 -1.5506
   40CHL1  H16B 2909   5.699   2.607   3.117 -0.6146  1.2990 -1.3906
   40CHL1   C17 2910   5.503   2.611   3.020 -0.6436 -0.5043  0.2737
   40CHL1   H17 2911   5.545   2.714   3.008  1.0779 -1.1395  0.5103
   40CHL1   C13 2912   5.486   2.566   2.878  0.2993  0.1770 -1.0028
   40CHL1   C18 2913   5.408   2.432   2.875  0.4476 -0.4092  0.1909
   40CHL1  H18A 2914   5.433   2.364   2.959 -0.3601 -1.8950 -0.7444
   40CHL1  H18B 2915   5.303   2.463   2.890  0.3597 -1.0510  0.9506
   40CHL1  H18C 2916   5.424   2.371   2.784 -0.1765 -0.2407 -0.0354
   40CHL1   C12 2917   5.433   2.672   2.781 -0.0231 -0.5755 -1.0238
   40CHL1  H12A 2918   5.328   2.698   2.807  0.8087  1.8400  0.2920
   40CHL1  H12B 2919   5.493   2.764   2.798 -0.7571  0.3077 -2.9532
   40CHL1   C11 2920   5.437   2.626   2.637  0.1031 -0.6899  0.5329
   40CHL1  H11A 2921   5.363   2.544   2.622  0.1033 -0.8305  1.2826
   40CHL1  H11B 2922   5.407   2.712   2.574  0.5962 -1.4148 -0.7249
   40CHL1    C9 2923   5.578   2.579   2.591 -0.4466  0.4491 -0.1923
   40CHL1    H9 2924   5.648   2.664   2.607  1.5782 -1.5017  2.2229
   40CHL1   C10 2925   5.595   2.536   2.448  0.2419 -0.2345 -0.0896
   40CHL1   C19 2926   5.485   2.440   2.417  0.0908  0.0958 -0.4555
   40CHL1  H19A 2927   5.497   2.393   2.317  0.2148 -0.0708 -0.3619
   40CHL1  H19B 2928   5.476   2.359   2.493  0.2824  0.8465  0.3792
   40CHL1  H19C 2929   5.391   2.499   2.412 -0.2871 -0.5529 -1.2747
   40CHL1    C1 2930   5.592   2.668   2.360  0.6822  0.1408  0.2208
   40CHL1   H1A 2931   5.495   2.719   2.378 -0.1614 -0.9243 -1.1270
   40CHL1   H1B 2932   5.670   2.738   2.397  0.8789  0.0642 -0.0458
   40CHL1    C2 2933   5.613   2.637   2.213 -0.6353  0.8491  0.3875
   40CHL1   H2A 2934   5.600   2.731   2.156 -0.1409  0.9846  0.4910
   40CHL1   H2B 2935   5.533   2.566   2.182  0.0364 -0.6908  1.9993
   40CHL1   C20 2936   5.386   2.605   3.121 -0.0300 -0.3590 -0.5217
   40CHL1   H20 2937   5.338   2.504   3.118  0.1965 -0.4765 -0.2340
   40CHL1   C21 2938   5.271   2.704   3.080 -0.1141 -0.3953 -0.0645
   40CHL1  H21A 2939   5.213   2.664   2.994 -1.7020  0.6541  0.4753
   40CHL1  H21B 2940   5.314   2.801   3.050  2.5123 -1.6840 -0.6911
   40CHL1  H21C 2941   5.195   2.720   3.160  0.3042 -1.7057  0.6247
   40CHL1   C22 2942   5.423   2.628   3.273  0.2926  0.5192  0.0519
   40CHL1  H22A 2943   5.521   2.584   3.304  1.2494  2.2929 -0.3430
   40CHL1  H22B 2944   5.443   2.736   3.288  0.8297  0.1561  2.4591
   40CHL1   C23 2945   5.319   2.598   3.376  0.2031  0.3503 -0.5492
   40CHL1  H23A 2946   5.354   2.623   3.478  0.5303 -0.5154 -0.4431
   40CHL1  H23B 2947   5.220   2.647   3.363 -0.2137  0.0471  1.2264
   40CHL1   C24 2948   5.284   2.445   3.385  0.0256 -0.5521 -0.5507
   40CHL1  H24A 2949   5.201   2.443   3.459  0.3548  1.1795 -0.0849
   40CHL1  H24B 2950   5.240   2.427   3.285 -1.9644  1.6859 -0.1784
   40CHL1   C25 2951   5.384   2.335   3.418  0.4168  0.3023 -0.0946
   40CHL1   H25 2952   5.472   2.349   3.351  0.5882 -0.6122 -0.0725
   40CHL1   C26 2953   5.433   2.341   3.563  0.1655  1.2857  0.0056
   40CHL1  H26A 2954   5.458   2.441   3.603  2.4075  0.5883  0.5047
   40CHL1  H26B 2955   5.352   2.301   3.629  3.1647 -0.3445  3.0221
   40CHL1  H26C 2956   5.524   2.277   3.572  0.6010  2.0122  0.9730
   40CHL1   C27 2957   5.320   2.196   3.392  0.7330  0.3011  0.1815
   40CHL1  H27A 2958   5.219   2.200   3.437  0.4898 -1.5949 -0.1293
   40CHL1  H27B 2959   5.303   2.192   3.282 -0.3682 -0.3098  0.3702
   40CHL1  H27C 2960   5.364   2.104   3.435 -2.3062 -0.9288  0.8899
   41CHL1    C3 2961   4.848   5.644   1.937  0.0362  0.2289  0.2777
   41CHL1    H3 2962   4.748   5.692   1.941  1.1803  3.1705 -2.1743
   41CHL1    O3 2963   4.850   5.584   1.812  0.0471 -0.4925  0.3941
   41CHL1   H3' 2964   4.762   5.550   1.793 -0.0532 -0.2014  0.3269
   41CHL1    C4 2965   4.972   5.734   1.953 -0.1579 -0.4523  0.1446
   41CHL1   H4A 2966   5.067   5.688   1.920  0.2660 -1.0582  2.1190
   41CHL1   H4B 2967   4.958   5.812   1.874 -0.8232  0.8869  1.5348
   41CHL1    C5 2968   4.978   5.796   2.089 -0.0681  0.0224 -0.0400
   41CHL1    C6 2969   4.979   5.930   2.116 -0.3022  0.3824  0.0844
   41CHL1    H6 2970   4.973   6.001   2.032  2.2488 -0.2877 -0.7482
   41CHL1    C7 2971   4.990   5.991   2.253  0.8420  0.2291  0.2706
   41CHL1   H7A 2972   5.069   6.069   2.250  1.7651 -0.7048 -1.3344
   41CHL1   H7B 2973   4.892   6.043   2.259  0.5764 -0.3226  0.7593
   41CHL1    C8 2974   5.025   5.898   2.363 -0.1760 -0.0865 -0.0261
   41CHL1    H8 2975   5.135   5.879   2.364 -0.1262 -0.0291 -1.7565
   41CHL1   C14 2976   5.000   5.956   2.503  0.4222  0.6111 -0.1824
   41CHL1   H14 2977   4.890   5.967   2.508  0.3725 -0.3897  2.4407
   41CHL1   C15 2978   5.058   6.094   2.542 -0.1558  0.2103  0.3315
   41CHL1  H15A 2979   5.159   6.110   2.498  0.4076 -2.1502  0.6386
   41CHL1  H15B 2980   4.986   6.174   2.514  0.2372  1.2274  2.0334
   41CHL1   C16 2981   5.065   6.089   2.693  0.1428  0.8546 -0.0443
   41CHL1  H16A 2982   5.174   6.097   2.711  0.0036  1.3459  0.6468
   41CHL1  H16B 2983   5.015   6.177   2.739  0.9136  1.0878  0.3587
   41CHL1   C17 2984   4.999   5.953   2.738 -0.8719 -0.2458 -0.2338
   41CHL1   H17 2985   4.889   5.967   2.737 -0.6725  1.7261 -0.0559
   41CHL1   C13 2986   5.022   5.858   2.621 -0.4109 -0.3639  0.7001
   41CHL1   C18 2987   5.171   5.811   2.639 -0.1913  0.4440  0.3688
   41CHL1  H18A 2988   5.248   5.891   2.643  0.8533 -0.5476  0.6008
   41CHL1  H18B 2989   5.188   5.755   2.734 -0.6403  1.7243  1.2411
   41CHL1  H18C 2990   5.190   5.731   2.565 -1.1629  1.2018 -0.7266
   41CHL1   C12 2991   4.920   5.736   2.606  0.3988 -0.2920  0.3050
   41CHL1  H12A 2992   4.935   5.656   2.681  0.2725 -1.6214 -1.0424
   41CHL1  H12B 2993   4.814   5.765   2.621  0.6141 -0.7531  3.2034
   41CHL1   C11 2994   4.939   5.673   2.471  0.5106 -0.5017 -0.2030
   41CHL1  H11A 2995   5.038   5.624   2.482  1.6918  1.5444 -1.0642
   41CHL1  H11B 2996   4.865   5.591   2.467  1.1614 -1.1918  1.2237
   41CHL1    C9 2997   4.941   5.769   2.346  0.0282  0.6784 -0.9617
   41CHL1    H9 2998   4.836   5.804   2.341  0.3990  1.6780 -2.4200
   41CHL1   C10 2999   4.968   5.696   2.209 -0.1627  0.0904  0.2085
   41CHL1   C19 3000   5.107   5.628   2.218 -0.2080  0.9630  0.1282
   41CHL1  H19A 3001   5.178   5.709   2.246  0.8027 -0.3049  1.3252
   41CHL1  H19B 3002   5.109   5.550   2.297 -0.9089 -0.1601 -0.9234
   41CHL1  H19C 3003   5.148   5.580   2.126  1.1576  2.2253  0.0414
   41CHL1    C1 3004   4.864   5.584   2.180  1.0492 -0.6815 -0.8240
   41CHL1   H1A 3005   4.878   5.499   2.250  0.8942 -1.3803 -1.6205
   41CHL1   H1B 3006   4.759   5.616   2.198 -0.7578 -3.5097 -4.7677
   41CHL1    C2 3007   4.863   5.532   2.037 -0.6845 -0.6239 -0.4796
   41CHL1   H2A 3008   4.785   5.456   2.019  0.7639 -2.3135  0.1377
   41CHL1   H2B 3009   4.961   5.485   2.015 -0.5659  0.4153 -2.4573
   41CHL1   C20 3010   5.029   5.915   2.883 -0.8541 -0.2536  0.9319
   41CHL1   H20 3011   5.138   5.890   2.888 -0.2194  1.1535 -2.9523
   41CHL1   C21 3012   4.946   5.783   2.913 -0.3181 -0.4566 -0.1509
   41CHL1  H21A 3013   4.844   5.793   2.872 -0.3043  0.5483  0.0337
   41CHL1  H21B 3014   4.935   5.759   3.021  2.8890  2.5967  1.0557
   41CHL1  H21C 3015   4.999   5.698   2.866  1.6909  0.5628  0.1566
   41CHL1   C22 3016   5.001   6.023   2.994 -0.5125  0.2837 -0.3121
   41CHL1  H22A 3017   5.061   6.113   2.968 -0.8299  0.9122  1.0405
   41CHL1  H22B 3018   4.893   6.046   3.001 -0.6338 -0.3212 -0.1340
   41CHL1   C23 3019   5.042   5.966   3.137 -0.1253  0.8505 -0.3515
   41CHL1  H23A 3020   4.964   5.890   3.159  0.3556  0.8692  1.6123
   41CHL1  H23B 3021   5.144   5.922   3.137  0.5623  2.3045  1.4460
   41CHL1   C24 3022   5.020   6.073   3.243  0.2763  0.0510  0.5870
   41CHL1  H24A 3023   5.113   6.133   3.242  1.3054 -1.3958  2.7123
   41CHL1  H24B 3024   4.928   6.129   3.214  0.9578 -0.1962 -2.4210
   41CHL1   C25 3025   5.006   6.001   3.382 -0.2198 -0.4128 -0.4334
   41CHL1   H25 3026   4.941   5.912   3.370  0.7585 -1.2259  0.1263
   41CHL1   C26 3027   5.140   5.973   3.441  0.0798  1.0240  0.2831
   41CHL1  H26A 3028   5.199   5.914   3.368 -0.0357  1.7031 -0.3764
   41CHL1  H26B 3029   5.201   6.065   3.452 -0.2388  1.5811 -2.0116
   41CHL1  H26C 3030   5.134   5.921   3.539  0.8676  0.3742 -0.0118
   41CHL1   C27 3031   4.926   6.085   3.486  0.4784  0.0217  0.1443
   41CHL1  H27A 3032   4.915   6.025   3.579 -1.7681 -1.8201 -1.1736
   41CHL1  H27B 3033   4.974   6.183   3.505 -0.3674  0.3493  0.6416
   41CHL1  H27C 3034   4.826   6.117   3.449  1.4323  4.1503  0.6703
   42CHL1    C3 3035   6.293   5.090   2.289  0.6720  0.4267 -0.0615
   42CHL1    H3 3036   6.289   5.198   2.313 -2.4803  0.3006  0.4441
   42CHL1    O3 3037   6.329   5.068   2.156  0.2697 -0.2502 -0.3905
   42CHL1   H3' 3038   6.419   5.037   2.154  1.3138  2.4259  0.6894
   42CHL1    C4 3039   6.377   5.002   2.377  0.2574  0.2448  0.0628
   42CHL1   H4A 3040   6.366   4.900   2.335  1.8719 -0.3312  0.9789
   42CHL1   H4B 3041   6.485   5.021   2.361  0.0953  0.5695 -0.6762
   42CHL1    C5 3042   6.345   5.016   2.528  0.2873  0.6319  0.3417
   42CHL1    C6 3043   6.436   5.056   2.614 -0.3592  0.9723 -0.3751
   42CHL1    H6 3044   6.533   5.089   2.571 -0.7432  2.1737 -0.3648
   42CHL1    C7 3045   6.418   5.053   2.767 -0.1525  1.0616 -0.6270
   42CHL1   H7A 3046   6.499   4.997   2.819 -1.5324 -1.7127 -1.2858
   42CHL1   H7B 3047   6.405   5.149   2.822 -1.8763 -0.8497  2.6390
   42CHL1    C8 3048   6.287   4.983   2.811 -0.5630  0.0622  0.2839
   42CHL1    H8 3049   6.302   4.873   2.805  0.6269  0.2377 -0.0893
   42CHL1   C14 3050   6.261   5.022   2.954  0.8449  0.2247 -0.2084
   42CHL1   H14 3051   6.247   5.132   2.960  0.3090  0.0935  1.9273
   42CHL1   C15 3052   6.363   4.992   3.073  0.2902  0.2531  0.0765
   42CHL1  H15A 3053   6.399   4.887   3.070 -1.6306 -0.4300 -0.1807
   42CHL1  H15B 3054   6.446   5.066   3.065 -0.2841  0.7329 -1.8347
   42CHL1   C16 3055   6.280   5.007   3.184 -0.1444 -1.1190  0.2912
   42CHL1  H16A 3056   6.280   4.910   3.238  1.0657 -1.0643  0.4135
   42CHL1  H16B 3057   6.317   5.091   3.246  0.9905 -1.7725  0.5239
   42CHL1   C17 3058   6.133   5.036   3.151 -1.3358 -0.0243 -0.3877
   42CHL1   H17 3059   6.113   5.145   3.145  0.0539  0.2372 -0.6314
   42CHL1   C13 3060   6.123   4.983   3.011 -0.6292 -0.0907  0.2751
   42CHL1   C18 3061   6.121   4.825   3.018 -1.0995 -0.3110  1.0107
   42CHL1  H18A 3062   6.165   4.771   2.932 -2.6523  1.5675 -1.0730
   42CHL1  H18B 3063   6.179   4.790   3.107  2.7214  0.4039 -0.9607
   42CHL1  H18C 3064   6.017   4.786   3.019 -1.5340  0.8096  0.3931
   42CHL1   C12 3065   6.020   5.039   2.915 -0.8015 -0.1116 -0.1168
   42CHL1  H12A 3066   5.928   4.986   2.948 -1.3290  0.5065 -0.5537
   42CHL1  H12B 3067   6.001   5.147   2.934 -1.4125  0.1360 -1.9619
   42CHL1   C11 3068   6.029   4.999   2.762 -0.6706 -0.3103 -0.3547
   42CHL1  H11A 3069   6.023   4.888   2.754 -0.9857 -0.2057 -1.8465
   42CHL1  H11B 3070   5.951   5.043   2.697  0.0172  0.2317 -0.8331
   42CHL1    C9 3071   6.175   5.028   2.710  0.1849  0.1587  0.4746
   42CHL1    H9 3072   6.174   5.139   2.709 -2.6234  0.2202  0.5771
   42CHL1   C10 3073   6.199   4.977   2.566  0.2449  0.2896  0.2271
   42CHL1   C19 3074   6.197   4.821   2.557 -0.1165  1.1852 -0.1908
   42CHL1  H19A 3075   6.212   4.786   2.452  2.5264  1.0624  0.1815
   42CHL1  H19B 3076   6.282   4.772   2.609  0.5248 -0.2010 -2.3988
   42CHL1  H19C 3077   6.099   4.777   2.587  0.7221  0.9694  2.4703
   42CHL1    C1 3078   6.106   5.056   2.459 -0.2253  0.5611  0.1532
   42CHL1   H1A 3079   6.001   5.023   2.475 -1.0070  2.6518 -0.3182
   42CHL1   H1B 3080   6.109   5.163   2.486  1.1637  0.3094  1.1032
   42CHL1    C2 3081   6.145   5.047   2.313 -0.6952  0.6109  0.1409
   42CHL1   H2A 3082   6.085   5.099   2.235  2.8918  2.9051 -1.3609
   42CHL1   H2B 3083   6.155   4.941   2.280  1.7880  0.1927  1.9693
   42CHL1   C20 3084   6.039   4.981   3.261  0.8738 -0.0797  0.1515
   42CHL1   H20 3085   6.038   4.871   3.252  0.2515 -0.0415 -0.2727
   42CHL1   C21 3086   5.891   5.027   3.240  0.0967  0.8611 -0.1625
   42CHL1  H21A 3087   5.846   4.971   3.155  2.6170  0.9117 -1.6457
   42CHL1  H21B 3088   5.873   5.129   3.200 -0.8446  0.6866 -0.2135
   42CHL1  H21C 3089   5.820   5.003   3.321  0.4848 -2.7956 -0.7041
   42CHL1   C22 3090   6.079   5.022   3.403 -0.0064  0.2002 -0.1471
   42CHL1  H22A 3091   6.186   5.004   3.427 -0.3843 -1.6218  0.2968
   42CHL1  H22B 3092   6.058   5.129   3.423 -0.0792 -0.3314  3.1442
   42CHL1   C23 3093   6.007   4.939   3.510 -0.5998 -0.3072  0.0624
   42CHL1  H23A 3094   5.902   4.974   3.511 -0.6493 -0.3319  2.5051
   42CHL1  H23B 3095   6.026   4.835   3.477  3.4803  0.6066 -1.1464
   42CHL1   C24 3096   6.067   4.972   3.646 -0.0712  0.2791  0.3140
   42CHL1  H24A 3097   6.177   4.980   3.638 -0.0931 -0.3087 -0.6653
   42CHL1  H24B 3098   6.030   5.075   3.665 -0.3311  0.0321  1.2004
   42CHL1   C25 3099   6.028   4.893   3.769 -0.2357  0.0326  0.5737
   42CHL1   H25 3100   6.085   4.928   3.857 -1.4419  1.9929  0.6208
   42CHL1   C26 3101   5.877   4.914   3.794  0.2194  0.5325 -0.0062
   42CHL1  H26A 3102   5.850   4.835   3.868 -1.4205 -0.5256 -1.6512
   42CHL1  H26B 3103   5.850   5.010   3.843 -1.3934 -0.1659  0.5580
   42CHL1  H26C 3104   5.817   4.903   3.701 -0.0911  0.4718  0.1969
   42CHL1   C27 3105   6.064   4.743   3.750  0.3123 -0.6706 -0.5702
   42CHL1  H27A 3106   6.073   4.709   3.856 -1.5818 -0.7882 -0.4098
   42CHL1  H27B 3107   5.977   4.683   3.716 -1.7249  1.0870  1.2043
   42CHL1  H27C 3108   6.159   4.737   3.694  1.8447  0.7957  1.6827
   43CHL1    C3 3109   2.484   5.849   2.064  0.2855  0.2796 -0.5614
   43CHL1    H3 3110   2.594   5.848   2.072  0.2539 -0.7929 -0.0223
   43CHL1    O3 3111   2.433   5.853   1.931 -0.0189  0.5307  0.2767
   43CHL1   H3' 3112   2.338   5.865   1.940 -0.6435 -0.8914 -2.9256
   43CHL1    C4 3113   2.409   5.724   2.124  0.4594 -0.4082 -0.2943
   43CHL1   H4A 3114   2.301   5.744   2.105  0.9620  0.7693 -2.2062
   43CHL1   H4B 3115   2.432   5.641   2.054  1.6528 -0.4157  0.0787
   43CHL1    C5 3116   2.436   5.708   2.271 -0.2488 -0.0169 -0.1301
   43CHL1    C6 3117   2.485   5.599   2.336  0.0746  0.1036  0.7409
   43CHL1    H6 3118   2.509   5.511   2.275 -2.0068  1.1213 -1.7429
   43CHL1    C7 3119   2.505   5.588   2.480  0.1973 -0.6933  0.3762
   43CHL1   H7A 3120   2.449   5.496   2.510 -2.2093  0.0867 -1.4384
   43CHL1   H7B 3121   2.612   5.584   2.511  0.1449 -0.6795  0.5584
   43CHL1    C8 3122   2.445   5.701   2.569 -0.3110 -0.3697  0.1609
   43CHL1    H8 3123   2.340   5.674   2.594 -0.4324  0.9458  1.2038
   43CHL1   C14 3124   2.524   5.706   2.711 -0.5008 -0.5224  0.1542
   43CHL1   H14 3125   2.627   5.731   2.679 -0.4776 -0.8960 -0.0738
   43CHL1   C15 3126   2.547   5.573   2.789 -0.6665  0.0086 -0.3750
   43CHL1  H15A 3127   2.447   5.524   2.792 -0.9072  0.4049 -1.6204
   43CHL1  H15B 3128   2.631   5.518   2.740  2.2319  2.0468  1.9423
   43CHL1   C16 3129   2.582   5.619   2.932 -0.0685  0.0365 -0.4513
   43CHL1  H16A 3130   2.504   5.587   3.004  0.2876 -0.5136 -0.2975
   43CHL1  H16B 3131   2.680   5.588   2.976  0.3831  2.4643  0.4247
   43CHL1   C17 3132   2.572   5.775   2.936  0.6595  0.5762 -0.6897
   43CHL1   H17 3133   2.671   5.822   2.921  0.4707  2.4307  2.8114
   43CHL1   C13 3134   2.475   5.806   2.811 -0.5256 -0.6524 -0.0824
   43CHL1   C18 3135   2.325   5.776   2.860 -0.1763  0.0758  0.0952
   43CHL1  H18A 3136   2.276   5.857   2.918 -0.3906  0.6831 -0.9252
   43CHL1  H18B 3137   2.259   5.775   2.771  1.7057 -0.6515 -1.3550
   43CHL1  H18C 3138   2.328   5.677   2.911  1.0261 -0.6893 -1.3852
   43CHL1   C12 3139   2.490   5.946   2.745 -0.4362  0.0708  0.2017
   43CHL1  H12A 3140   2.451   6.022   2.817  2.1487  0.9080  0.8237
   43CHL1  H12B 3141   2.596   5.955   2.717 -0.0645  0.1650  1.5434
   43CHL1   C11 3142   2.414   5.963   2.605 -0.0489 -0.3217  0.8735
   43CHL1  H11A 3143   2.306   5.960   2.630 -0.3573  1.2421 -0.1260
   43CHL1  H11B 3144   2.425   6.063   2.558 -1.5447  0.2865  1.7353
   43CHL1    C9 3145   2.450   5.841   2.506 -0.8675 -0.6057 -0.7397
   43CHL1    H9 3146   2.559   5.854   2.490 -0.9449  1.2795  0.0178
   43CHL1   C10 3147   2.404   5.838   2.358 -0.0976 -0.3082  0.2535
   43CHL1   C19 3148   2.248   5.865   2.364 -0.3498  0.3544  0.1191
   43CHL1  H19A 3149   2.210   5.785   2.432 -0.0459 -0.5847 -0.7833
   43CHL1  H19B 3150   2.230   5.967   2.404  0.8287  0.7254 -0.2675
   43CHL1  H19C 3151   2.200   5.847   2.266  1.1756  2.1216 -1.0051
   43CHL1    C1 3152   2.476   5.955   2.287  0.2191  0.2803  0.2234
   43CHL1   H1A 3153   2.450   6.046   2.345 -0.7365  0.9476 -1.1781
   43CHL1   H1B 3154   2.585   5.940   2.300  0.4361  0.1441 -1.5614
   43CHL1    C2 3155   2.433   5.975   2.140 -0.1826 -1.0156 -0.1079
   43CHL1   H2A 3156   2.467   6.071   2.097 -2.1385 -0.0223  0.4559
   43CHL1   H2B 3157   2.323   5.977   2.122  0.4204 -0.9869 -5.2358
   43CHL1   C20 3158   2.526   5.836   3.071 -0.6840  0.0882 -0.3275
   43CHL1   H20 3159   2.428   5.797   3.106  0.1280 -1.9429 -0.2091
   43CHL1   C21 3160   2.526   5.993   3.075 -0.3181  0.5649  0.0028
   43CHL1  H21A 3161   2.442   6.038   3.019 -1.1348  0.7720  1.3446
   43CHL1  H21B 3162   2.629   6.025   3.048 -0.4036  0.4238 -0.5009
   43CHL1  H21C 3163   2.513   6.032   3.179  0.3891 -1.0409  0.7265
   43CHL1   C22 3164   2.626   5.788   3.180 -0.2767 -0.3675  0.0702
   43CHL1  H22A 3165   2.662   5.686   3.155  0.5424  0.2554 -1.4814
   43CHL1  H22B 3166   2.714   5.853   3.158 -1.3986  1.4419  0.6913
   43CHL1   C23 3167   2.572   5.793   3.325 -0.0901 -0.4350  0.6847
   43CHL1  H23A 3168   2.533   5.896   3.342  0.8952  0.4103 -1.7270
   43CHL1  H23B 3169   2.483   5.727   3.333  0.7578 -1.8252 -0.7191
   43CHL1   C24 3170   2.679   5.750   3.428  0.0180  0.3316 -0.1105
   43CHL1  H24A 3171   2.668   5.639   3.435 -2.9308  0.6046  0.6993
   43CHL1  H24B 3172   2.779   5.783   3.392 -0.1015  1.6566  0.6993
   43CHL1   C25 3173   2.667   5.816   3.568 -1.0457  0.5059  0.7562
   43CHL1   H25 3174   2.658   5.926   3.557  1.0081  0.9041  2.3434
   43CHL1   C26 3175   2.538   5.768   3.643 -0.6162 -0.1993 -0.4161
   43CHL1  H26A 3176   2.451   5.781   3.575 -0.9143 -0.9117 -0.1780
   43CHL1  H26B 3177   2.546   5.661   3.671 -0.8449  0.2235  1.3851
   43CHL1  H26C 3178   2.519   5.825   3.737  0.4830  0.1063 -0.3640
   43CHL1   C27 3179   2.801   5.789   3.645  0.6556 -0.4451 -0.3531
   43CHL1  H27A 3180   2.889   5.838   3.599  0.7460 -0.9868 -0.7612
   43CHL1  H27B 3181   2.793   5.833   3.747 -0.8963 -1.4515  0.0059
   43CHL1  H27C 3182   2.813   5.679   3.652 -2.0483 -0.7852  0.4533
   44CHL1    C3 3183   5.883   5.700   2.372 -0.1144  0.1203  1.0842
   44CHL1    H3 3184   5.825   5.795   2.378 -0.3472  0.1282 -0.7856
   44CHL1    O3 3185   5.910   5.683   2.236 -0.1444 -0.6236  0.3376
   44CHL1   H3' 3186   5.960   5.604   2.217  2.2933  1.3550 -2.5852
   44CHL1    C4 3187   6.015   5.707   2.448 -0.0299  0.2092 -0.0258
   44CHL1   H4A 3188   6.064   5.611   2.423 -1.5608 -0.3342 -1.0848
   44CHL1   H4B 3189   6.084   5.783   2.406  1.7605 -0.7869  1.0096
   44CHL1    C5 3190   5.993   5.721   2.600 -0.3446  0.0097  0.3848
   44CHL1    C6 3191   6.041   5.829   2.667 -0.7524 -0.1128  0.2380
   44CHL1    H6 3192   6.084   5.912   2.609 -1.8251 -0.3386 -0.9102
   44CHL1    C7 3193   6.009   5.857   2.811  0.0373 -0.3748  0.5188
   44CHL1   H7A 3194   6.099   5.892   2.865 -0.4299  0.5560  0.7135
   44CHL1   H7B 3195   5.944   5.947   2.806 -1.4361 -1.4602 -1.8725
   44CHL1    C8 3196   5.938   5.738   2.890 -0.8738 -0.5189 -0.1233
   44CHL1    H8 3197   6.014   5.664   2.922 -1.7815 -0.7741  1.5738
   44CHL1   C14 3198   5.882   5.791   3.025  0.7327  0.4443  0.4574
   44CHL1   H14 3199   5.815   5.875   2.999  2.0485  1.2424 -0.5062
   44CHL1   C15 3200   5.986   5.857   3.116  0.2006  0.4217 -0.4509
   44CHL1  H15A 3201   6.075   5.792   3.104  0.2452  0.6078 -1.1971
   44CHL1  H15B 3202   6.009   5.964   3.094  0.6393  0.5088  0.3871
   44CHL1   C16 3203   5.915   5.852   3.253  0.3887  0.2553  0.4715
   44CHL1  H16A 3204   5.990   5.824   3.330 -0.3993 -0.9672  0.8303
   44CHL1  H16B 3205   5.880   5.956   3.274 -0.0298  0.0700  0.7036
   44CHL1   C17 3206   5.783   5.760   3.239  0.8202 -0.5874 -0.6947
   44CHL1   H17 3207   5.717   5.846   3.214  3.4551  1.9876  0.5140
   44CHL1   C13 3208   5.804   5.680   3.109  0.4578 -0.1830  0.6246
   44CHL1   C18 3209   5.895   5.562   3.127  0.4130  0.2188 -0.3442
   44CHL1  H18A 3210   5.850   5.490   3.199  3.0386 -1.8334 -0.6021
   44CHL1  H18B 3211   5.919   5.506   3.035 -0.1575  0.0143 -0.3686
   44CHL1  H18C 3212   5.993   5.599   3.166  0.6529  0.1092 -0.8330
   44CHL1   C12 3213   5.678   5.650   3.029 -0.2993  0.7866  0.3166
   44CHL1  H12A 3214   5.618   5.578   3.088 -3.0807 -0.7699 -3.9739
   44CHL1  H12B 3215   5.614   5.740   3.017  0.5350  1.5504  1.2965
   44CHL1   C11 3216   5.726   5.585   2.887  0.1403 -0.2167  0.5074
   44CHL1  H11A 3217   5.763   5.482   2.904 -0.8693 -0.4528  1.3800
   44CHL1  H11B 3218   5.635   5.569   2.825  0.8864 -0.2093 -0.6151
   44CHL1    C9 3219   5.832   5.678   2.810 -0.7845  0.3363 -0.3264
   44CHL1    H9 3220   5.768   5.766   2.790  1.4026  2.0759  0.0132
   44CHL1   C10 3221   5.885   5.627   2.671 -0.6231 -0.7357  0.1280
   44CHL1   C19 3222   5.969   5.491   2.694  0.3347 -0.8501 -0.0562
   44CHL1  H19A 3223   6.007   5.434   2.606  0.9990 -0.5641  0.0381
   44CHL1  H19B 3224   6.053   5.508   2.765 -0.6669  0.3461  0.8832
   44CHL1  H19C 3225   5.903   5.420   2.748 -1.9540  0.8790 -0.4381
   44CHL1    C1 3226   5.766   5.612   2.574  0.2434 -0.1656  0.9263
   44CHL1   H1A 3227   5.703   5.526   2.606  0.6317 -0.1053  1.8768
   44CHL1   H1B 3228   5.711   5.709   2.581 -0.7561 -0.7153  0.9758
   44CHL1    C2 3229   5.802   5.587   2.422  0.6571  0.3102 -0.5485
   44CHL1   H2A 3230   5.714   5.576   2.354 -0.1688 -3.3475  0.8731
   44CHL1   H2B 3231   5.867   5.497   2.420 -1.9390 -1.6916  0.1238
   44CHL1   C20 3232   5.724   5.686   3.357  0.2667  0.2957  0.0620
   44CHL1   H20 3233   5.646   5.609   3.334 -0.3884  0.4975  1.4985
   44CHL1   C21 3234   5.646   5.795   3.430  0.5092 -0.0198  0.1023
   44CHL1  H21A 3235   5.542   5.819   3.399  0.0945 -1.2801  0.4383
   44CHL1  H21B 3236   5.701   5.891   3.437  0.7192 -0.1426  0.1397
   44CHL1  H21C 3237   5.647   5.765   3.537 -0.0593 -1.1169 -0.1881
   44CHL1   C22 3238   5.833   5.625   3.448  0.3264  0.7163 -0.0021
   44CHL1  H22A 3239   5.909   5.575   3.385 -0.2675 -0.5251  0.2449
   44CHL1  H22B 3240   5.891   5.709   3.492 -0.5836  1.0571  0.5762
   44CHL1   C23 3241   5.797   5.531   3.556  1.2191 -0.4706  0.6305
   44CHL1  H23A 3242   5.711   5.575   3.612 -1.0170 -0.1265 -2.8076
   44CHL1  H23B 3243   5.760   5.438   3.508 -1.9489 -0.0257  1.9279
   44CHL1   C24 3244   5.908   5.505   3.655 -0.1616  0.6208 -0.8103
   44CHL1  H24A 3245   6.001   5.501   3.594 -0.9792 -0.1525 -2.0494
   44CHL1  H24B 3246   5.910   5.598   3.716 -2.1275  1.3521 -1.7965
   44CHL1   C25 3247   5.885   5.385   3.746  0.0961  0.6301 -0.0207
   44CHL1   H25 3248   5.833   5.303   3.691 -2.5014  2.6782 -0.8023
   44CHL1   C26 3249   6.016   5.349   3.818 -0.3176  0.1557 -0.2759
   44CHL1  H26A 3250   6.009   5.285   3.908 -1.3570  0.3897 -0.1690
   44CHL1  H26B 3251   6.078   5.286   3.751  0.5225  0.3533  0.3097
   44CHL1  H26C 3252   6.070   5.442   3.844 -0.7057  0.3808 -0.2511
   44CHL1   C27 3253   5.779   5.420   3.855 -0.0243 -0.6815  0.8363
   44CHL1  H27A 3254   5.813   5.512   3.908 -0.0048 -0.3507  0.2658
   44CHL1  H27B 3255   5.676   5.439   3.818  0.2409  0.3598  0.6035
   44CHL1  H27C 3256   5.771   5.336   3.927  0.0074 -0.8502  0.6458
   45CHL1    C3 3257   1.190   4.906   2.285  0.0200 -0.3263  0.3584
   45CHL1    H3 3258   1.245   4.829   2.343  2.8016  1.0923 -0.1944
   45CHL1    O3 3259   1.159   4.865   2.146 -0.1845 -0.2243 -0.1303
   45CHL1   H3' 3260   1.232   4.807   2.122  0.4083  0.3435  0.2513
   45CHL1    C4 3261   1.054   4.926   2.359 -0.8624  0.9278  0.3499
   45CHL1   H4A 3262   0.994   4.997   2.297  1.8425  2.2066 -1.0244
   45CHL1   H4B 3263   1.001   4.829   2.350 -0.5600  0.6847  1.1757
   45CHL1    C5 3264   1.058   4.985   2.494 -0.4625  0.3898 -0.5609
   45CHL1    C6 3265   1.015   4.917   2.602  0.1324 -0.4051  0.0832
   45CHL1    H6 3266   0.966   4.818   2.600  1.3705 -1.0359 -0.1168
   45CHL1    C7 3267   1.013   4.984   2.734 -0.1073  1.1339  0.6226
   45CHL1   H7A 3268   0.919   4.962   2.789  0.0085  0.8812  0.7203
   45CHL1   H7B 3269   1.090   4.942   2.802 -0.6378 -0.8822  0.0695
   45CHL1    C8 3270   1.041   5.135   2.743 -0.6083  0.1474 -0.6766
   45CHL1    H8 3271   0.951   5.184   2.700 -1.2468  1.0024  1.4523
   45CHL1   C14 3272   1.058   5.185   2.888  0.0844  0.6878  0.0857
   45CHL1   H14 3273   1.144   5.123   2.921 -1.0169 -0.1583  1.4833
   45CHL1   C15 3274   0.946   5.164   2.987  0.4143 -0.3853 -0.2652
   45CHL1  H15A 3275   0.850   5.198   2.944 -0.2175  0.0082  1.3882
   45CHL1  H15B 3276   0.940   5.059   3.023 -3.1012 -0.2275 -0.0893
   45CHL1   C16 3277   0.987   5.266   3.103  0.3309  0.3920 -0.4522
   45CHL1  H16A 3278   0.893   5.321   3.126  0.8635  0.7059  1.0322
   45CHL1  H16B 3279   1.015   5.218   3.199 -0.3799  0.2751 -0.2980
   45CHL1   C17 3280   1.106   5.349   3.046 -0.8518  0.8489 -0.0669
   45CHL1   H17 3281   1.200   5.296   3.071 -3.1120 -2.4025  2.4227
   45CHL1   C13 3282   1.098   5.333   2.895 -0.3395 -0.1450  0.4178
   45CHL1   C18 3283   0.976   5.425   2.848 -0.1565  0.0550  0.0299
   45CHL1  H18A 3284   0.884   5.441   2.908  0.4696  0.3157  0.9418
   45CHL1  H18B 3285   1.016   5.528   2.834 -0.0726 -0.0170 -0.2657
   45CHL1  H18C 3286   0.952   5.398   2.743  1.8630  0.0896 -0.4804
   45CHL1   C12 3287   1.226   5.352   2.801  0.5589  0.3682  0.5631
   45CHL1  H12A 3288   1.266   5.455   2.812  2.4344 -0.1704 -0.8031
   45CHL1  H12B 3289   1.304   5.285   2.842  0.8927  2.2963  3.3083
   45CHL1   C11 3290   1.194   5.324   2.658  0.2086  0.3333  0.0831
   45CHL1  H11A 3291   1.116   5.388   2.613  0.4689 -0.8377 -2.1869
   45CHL1  H11B 3292   1.286   5.347   2.600  0.7861  0.0825  0.8708
   45CHL1    C9 3293   1.155   5.173   2.650  1.1502  0.1375 -0.0901
   45CHL1    H9 3294   1.242   5.119   2.693  0.7648  0.7817  1.5763
   45CHL1   C10 3295   1.135   5.123   2.504 -0.1491 -0.4083 -0.1207
   45CHL1   C19 3296   1.067   5.238   2.420 -0.0830  0.4718 -0.5511
   45CHL1  H19A 3297   0.980   5.283   2.472  0.7656  0.4995  0.8957
   45CHL1  H19B 3298   1.152   5.310   2.417  1.7413 -1.5902 -1.3473
   45CHL1  H19C 3299   1.054   5.210   2.313 -0.0882 -2.1276  0.0682
   45CHL1    C1 3300   1.280   5.096   2.426 -0.5931  0.1494  0.3173
   45CHL1   H1A 3301   1.334   5.193   2.419 -0.1660 -0.1977 -2.2153
   45CHL1   H1B 3302   1.341   5.033   2.494  0.4683  0.5669 -0.2336
   45CHL1    C2 3303   1.267   5.034   2.287  0.5922 -0.0418 -0.1569
   45CHL1   H2A 3304   1.368   5.032   2.239 -0.0634 -3.0216 -1.6998
   45CHL1   H2B 3305   1.215   5.101   2.215 -0.0092 -2.1229 -1.7767
   45CHL1   C20 3306   1.104   5.490   3.110 -0.3162  0.2728  0.2189
   45CHL1   H20 3307   1.001   5.531   3.105  0.5383  2.3830 -1.7959
   45CHL1   C21 3308   1.204   5.583   3.054 -0.6079  0.1020 -0.0170
   45CHL1  H21A 3309   1.205   5.678   3.111 -0.8497  0.5242 -0.6992
   45CHL1  H21B 3310   1.189   5.609   2.947  1.7530  0.7241 -0.2445
   45CHL1  H21C 3311   1.307   5.542   3.055 -1.4594 -2.2616 -0.8074
   45CHL1   C22 3312   1.133   5.470   3.263  0.3111  0.5915 -0.0159
   45CHL1  H22A 3313   1.049   5.406   3.297 -0.6745  1.3354 -0.9599
   45CHL1  H22B 3314   1.224   5.408   3.274  1.0877  1.9352  1.5908
   45CHL1   C23 3315   1.141   5.590   3.352 -0.6519  0.4045  0.3850
   45CHL1  H23A 3316   1.219   5.660   3.315 -0.0085 -0.5704 -0.1201
   45CHL1  H23B 3317   1.046   5.647   3.364 -0.1355  1.1015  1.4143
   45CHL1   C24 3318   1.190   5.546   3.493 -0.2021 -0.1818 -0.0724
   45CHL1  H24A 3319   1.138   5.458   3.535 -3.1479  1.9760  1.1698
   45CHL1  H24B 3320   1.297   5.526   3.473 -0.0732  0.3236  0.0962
   45CHL1   C25 3321   1.173   5.660   3.589 -0.3533  0.2095 -0.1265
   45CHL1   H25 3322   1.064   5.677   3.600  0.0204  1.7431  1.7770
   45CHL1   C26 3323   1.229   5.606   3.727  0.2314 -0.2138  0.0327
   45CHL1  H26A 3324   1.339   5.601   3.716  0.1503  0.3979 -1.1562
   45CHL1  H26B 3325   1.200   5.679   3.806 -0.4184  0.2365 -0.6128
   45CHL1  H26C 3326   1.173   5.512   3.752 -1.9056  1.1647  0.7300
   45CHL1   C27 3327   1.244   5.791   3.553  0.7569  0.5056  0.4626
   45CHL1  H27A 3328   1.199   5.833   3.460 -1.3502 -0.9705  0.7483
   45CHL1  H27B 3329   1.227   5.867   3.633  0.5989  0.2430  0.6794
   45CHL1  H27C 3330   1.353   5.775   3.538  0.6107 -1.2372  1.0834
   46CHL1    C3 3331   4.702   6.609   2.061 -0.3616 -0.8921  0.4842
   46CHL1    H3 3332   4.596   6.640   2.079 -0.4785 -1.0774  0.1130
   46CHL1    O3 3333   4.734   6.636   1.928 -0.6296  0.2663  0.3397
   46CHL1   H3' 3334   4.830   6.625   1.927 -0.8160 -2.0567 -1.3157
   46CHL1    C4 3335   4.782   6.708   2.143  0.3219  0.2794 -0.6144
   46CHL1   H4A 3336   4.891   6.693   2.125  0.1795 -2.3867  0.2277
   46CHL1   H4B 3337   4.761   6.813   2.116 -0.9443  0.2212  0.0723
   46CHL1    C5 3338   4.760   6.676   2.293  0.0122 -0.3148  0.0660
   46CHL1    C6 3339   4.716   6.780   2.369  0.0486 -0.0756  0.0526
   46CHL1    H6 3340   4.713   6.879   2.322  0.4255 -0.1939 -0.2244
   46CHL1    C7 3341   4.692   6.773   2.519  0.1777  0.0071  0.7030
   46CHL1   H7A 3342   4.722   6.856   2.586 -1.8393  1.9507 -0.6554
   46CHL1   H7B 3343   4.583   6.760   2.535 -0.2927  0.1919 -1.9383
   46CHL1    C8 3344   4.755   6.643   2.575 -0.3603 -0.2297 -0.3682
   46CHL1    H8 3345   4.863   6.665   2.588 -0.0097 -0.6559 -2.3088
   46CHL1   C14 3346   4.692   6.610   2.713 -0.6785 -0.0843  0.4790
   46CHL1   H14 3347   4.584   6.584   2.706 -1.1941  1.0315  2.9403
   46CHL1   C15 3348   4.689   6.732   2.809  0.3447 -0.7663 -0.1496
   46CHL1  H15A 3349   4.789   6.780   2.815 -0.4817  1.0810 -0.2897
   46CHL1  H15B 3350   4.622   6.810   2.766  1.1666 -0.0647 -0.1826
   46CHL1   C16 3351   4.653   6.664   2.940 -0.5966  0.2705 -0.7262
   46CHL1  H16A 3352   4.735   6.690   3.011 -0.8949  2.1241 -1.0127
   46CHL1  H16B 3353   4.553   6.704   2.965 -0.4839  0.3884 -0.4532
   46CHL1   C17 3354   4.656   6.506   2.915  0.3785  0.4016  0.2880
   46CHL1   H17 3355   4.557   6.471   2.878  0.7824 -1.9345  1.2327
   46CHL1   C13 3356   4.754   6.491   2.797 -0.6230 -0.2706 -0.4262
   46CHL1   C18 3357   4.901   6.529   2.832  0.3548 -0.6801 -0.2656
   46CHL1  H18A 3358   4.964   6.537   2.741 -1.4491 -0.8714 -1.5664
   46CHL1  H18B 3359   4.918   6.622   2.891  1.0253 -1.0021  0.0684
   46CHL1  H18C 3360   4.940   6.455   2.905 -0.2510  1.5750  2.5453
   46CHL1   C12 3361   4.728   6.365   2.703  0.4751 -0.6894 -0.0473
   46CHL1  H12A 3362   4.780   6.279   2.750  2.7065 -0.1046 -1.3252
   46CHL1  H12B 3363   4.617   6.354   2.698  0.4002  0.3522 -3.2792
   46CHL1   C11 3364   4.788   6.388   2.563 -0.6411  0.4472 -0.7704
   46CHL1  H11A 3365   4.898   6.403   2.566  0.0655 -3.4863  1.2781
   46CHL1  H11B 3366   4.762   6.299   2.501  0.4479 -0.8760  0.6049
   46CHL1    C9 3367   4.735   6.524   2.488  0.7435  0.4179  0.5796
   46CHL1    H9 3368   4.624   6.511   2.486  0.9481 -1.5781  0.2216
   46CHL1   C10 3369   4.789   6.535   2.346 -0.1770 -0.4643 -0.4294
   46CHL1   C19 3370   4.940   6.502   2.335  0.0881  0.2408  0.0409
   46CHL1  H19A 3371   4.949   6.392   2.345 -0.6486  0.2845  1.3167
   46CHL1  H19B 3372   4.989   6.517   2.236 -1.0847 -0.6678 -0.7033
   46CHL1  H19C 3373   5.009   6.548   2.409  1.5310 -2.0229  0.1979
   46CHL1    C1 3374   4.702   6.445   2.251  0.1002 -0.4208 -0.5957
   46CHL1   H1A 3375   4.713   6.338   2.276  0.0774 -0.2887 -0.0078
   46CHL1   H1B 3376   4.594   6.462   2.270  0.0751  1.1767 -1.9600
   46CHL1    C2 3377   4.730   6.462   2.097  0.4352 -0.4232  0.6908
   46CHL1   H2A 3378   4.652   6.408   2.040  1.6300 -2.2108  0.6529
   46CHL1   H2B 3379   4.827   6.423   2.061 -0.1004 -0.0605 -1.2238
   46CHL1   C20 3380   4.698   6.430   3.051  0.7245 -0.9430 -0.6876
   46CHL1   H20 3381   4.792   6.481   3.084 -0.2708 -0.6290  1.8383
   46CHL1   C21 3382   4.743   6.288   3.016  0.2655  0.2837 -0.2708
   46CHL1  H21A 3383   4.748   6.239   3.115 -2.2976  0.1438 -0.1483
   46CHL1  H21B 3384   4.842   6.282   2.966 -0.2138 -1.9192 -1.0819
   46CHL1  H21C 3385   4.662   6.249   2.951  0.4759 -0.7641  0.0759
   46CHL1   C22 3386   4.598   6.441   3.167 -0.6272 -0.3042  0.4985
   46CHL1  H22A 3387   4.634   6.390   3.259 -3.0194 -2.2165  0.4952
   46CHL1  H22B 3388   4.579   6.545   3.199  0.8002 -0.1222  0.8125
   46CHL1   C23 3389   4.457   6.373   3.150 -0.0185  0.3738 -0.0218
   46CHL1  H23A 3390   4.408   6.411   3.058 -2.4008 -0.0305  0.9955
   46CHL1  H23B 3391   4.484   6.266   3.136  0.2721  0.2052  1.5463
   46CHL1   C24 3392   4.375   6.374   3.282  0.2321 -0.3494  0.2266
   46CHL1  H24A 3393   4.288   6.306   3.271  0.8930 -1.7191  2.6197
   46CHL1  H24B 3394   4.436   6.331   3.364 -0.4161 -2.3010 -0.2590
   46CHL1   C25 3395   4.329   6.514   3.335 -0.3061  0.0898 -0.1540
   46CHL1   H25 3396   4.416   6.578   3.362  0.2662 -1.0262  0.7315
   46CHL1   C26 3397   4.251   6.584   3.225 -0.2074  0.3455 -0.1116
   46CHL1  H26A 3398   4.160   6.524   3.199 -0.2571  0.4829 -0.2567
   46CHL1  H26B 3399   4.221   6.681   3.269  1.4024  0.2005  1.4144
   46CHL1  H26C 3400   4.324   6.601   3.143 -0.1260 -1.7478 -0.5289
   46CHL1   C27 3401   4.244   6.485   3.455 -0.1275  0.1193 -0.5013
   46CHL1  H27A 3402   4.295   6.421   3.530  0.6186  0.4994 -0.6717
   46CHL1  H27B 3403   4.216   6.582   3.500  3.8208  1.3441 -0.2972
   46CHL1  H27C 3404   4.148   6.431   3.442 -0.7713  1.2779 -0.6461
   47CHL1    C3 3405   1.321   1.427   2.272  0.1015  0.0804 -1.0463
   47CHL1    H3 3406   1.316   1.320   2.242  1.7561  0.1163 -1.5391
   47CHL1    O3 3407   1.329   1.499   2.148 -0.9152 -0.3710 -0.4689
   47CHL1   H3' 3408   1.313   1.591   2.169  0.0799 -0.5165  1.0638
   47CHL1    C4 3409   1.197   1.460   2.344  0.6403 -0.8626  0.1520
   47CHL1   H4A 3410   1.190   1.571   2.336  1.8872 -0.8278 -0.5392
   47CHL1   H4B 3411   1.099   1.434   2.298 -0.1186  1.2476  0.4406
   47CHL1    C5 3412   1.194   1.424   2.492 -0.4628 -0.4659 -0.6830
   47CHL1    C6 3413   1.093   1.358   2.552  0.1912  0.0687  0.0960
   47CHL1    H6 3414   1.007   1.326   2.491  0.6185 -1.0508  0.0564
   47CHL1    C7 3415   1.073   1.331   2.694  0.0064 -0.3083 -0.6020
   47CHL1   H7A 3416   0.965   1.348   2.717 -0.4026 -0.7087 -2.0564
   47CHL1   H7B 3417   1.094   1.223   2.711  3.0318 -0.0124 -1.8256
   47CHL1    C8 3418   1.164   1.415   2.782 -0.6232  0.1630 -0.1652
   47CHL1    H8 3419   1.126   1.520   2.782  0.6517  0.6648  1.1543
   47CHL1   C14 3420   1.158   1.373   2.928  0.3750  0.5422 -0.2906
   47CHL1   H14 3421   1.174   1.263   2.926  1.1527  0.6415  0.1061
   47CHL1   C15 3422   1.027   1.385   3.008  0.6679 -0.1842 -0.1673
   47CHL1  H15A 3423   0.987   1.485   2.981  0.3572 -0.9737 -2.9420
   47CHL1  H15B 3424   0.956   1.307   2.973  0.8891  1.2717 -4.4542
   47CHL1   C16 3425   1.078   1.383   3.150 -0.3489  0.6634 -0.0122
   47CHL1  H16A 3426   1.032   1.467   3.207  0.1564  1.1691 -0.3357
   47CHL1  H16B 3427   1.055   1.284   3.196  1.4875 -0.4133 -1.2548
   47CHL1   C17 3428   1.233   1.380   3.148  0.2551  0.7225 -0.2762
   47CHL1   H17 3429   1.261   1.272   3.151 -0.5395  0.4731 -1.1786
   47CHL1   C13 3430   1.271   1.435   3.013  0.6226  0.2463  0.3664
   47CHL1   C18 3431   1.243   1.587   3.017 -0.0656 -0.6029 -0.6255
   47CHL1  H18A 3432   1.137   1.609   3.040 -0.2007 -1.0805 -0.7775
   47CHL1  H18B 3433   1.307   1.649   3.083 -0.4875  0.6854 -1.3871
   47CHL1  H18C 3434   1.264   1.636   2.920  0.0677  1.2255  0.2814
   47CHL1   C12 3435   1.414   1.402   2.960  0.0546  0.6093 -0.5956
   47CHL1  H12A 3436   1.488   1.452   3.026  2.1542  1.2418 -3.2338
   47CHL1  H12B 3437   1.434   1.292   2.955 -0.7185  0.2754  1.9389
   47CHL1   C11 3438   1.418   1.463   2.817  0.5174  0.7320  0.1697
   47CHL1  H11A 3439   1.415   1.574   2.818  1.2927  0.7793 -0.9316
   47CHL1  H11B 3440   1.513   1.432   2.768  0.7005 -1.4281  1.7328
   47CHL1    C9 3441   1.307   1.417   2.725  0.2830 -0.5560 -0.1350
   47CHL1    H9 3442   1.330   1.310   2.708  0.5081 -0.6889  0.9434
   47CHL1   C10 3443   1.315   1.479   2.581  0.4470 -0.5698  0.2802
   47CHL1   C19 3444   1.301   1.637   2.586  0.3950  0.4321  0.2486
   47CHL1  H19A 3445   1.211   1.665   2.644 -2.3112 -1.7919 -2.5747
   47CHL1  H19B 3446   1.392   1.685   2.629 -0.1823  1.3009  0.5363
   47CHL1  H19C 3447   1.288   1.684   2.486  1.6948  0.4959  0.0801
   47CHL1    C1 3448   1.438   1.426   2.504 -0.2692  0.3119  1.0202
   47CHL1   H1A 3449   1.532   1.464   2.551  0.8293  0.4522 -1.1369
   47CHL1   H1B 3450   1.440   1.315   2.513  0.5009  0.4044  2.4422
   47CHL1    C2 3451   1.447   1.467   2.357  0.1417  0.1943 -0.7134
   47CHL1   H2A 3452   1.533   1.413   2.310  0.8053  1.2278 -0.7077
   47CHL1   H2B 3453   1.454   1.577   2.353 -1.2249  0.3635  0.7144
   47CHL1   C20 3454   1.309   1.443   3.267  0.4050 -0.4357 -0.5916
   47CHL1   H20 3455   1.395   1.503   3.233 -1.1551  0.9517 -2.3214
   47CHL1   C21 3456   1.381   1.340   3.350  0.8155 -0.3063  0.3566
   47CHL1  H21A 3457   1.301   1.272   3.385  0.4151 -0.1400 -0.2110
   47CHL1  H21B 3458   1.429   1.376   3.443 -0.2440  0.1460  0.7392
   47CHL1  H21C 3459   1.452   1.273   3.295 -1.0070 -1.8215 -0.2756
   47CHL1   C22 3460   1.219   1.537   3.360 -0.1896 -0.4994  0.0953
   47CHL1  H22A 3461   1.158   1.610   3.302  0.9192 -0.9840 -1.7461
   47CHL1  H22B 3462   1.162   1.467   3.425  3.0732 -3.4983  0.0142
   47CHL1   C23 3463   1.308   1.633   3.445 -0.3630 -0.7591  0.0418
   47CHL1  H23A 3464   1.395   1.588   3.498  0.3255  1.8316  1.2929
   47CHL1  H23B 3465   1.343   1.711   3.375  1.2281 -1.4279  0.0438
   47CHL1   C24 3466   1.221   1.709   3.546  0.1455  0.0443  0.5304
   47CHL1  H24A 3467   1.275   1.802   3.577 -0.9632  1.0493 -0.4284
   47CHL1  H24B 3468   1.125   1.741   3.500 -0.7537  1.0393  2.9532
   47CHL1   C25 3469   1.180   1.622   3.668  0.0558  0.2405  0.3253
   47CHL1   H25 3470   1.158   1.522   3.624 -0.2366 -0.1673  1.3730
   47CHL1   C26 3471   1.294   1.601   3.764  0.0528 -0.1854 -0.7507
   47CHL1  H26A 3472   1.301   1.686   3.834  1.3720 -2.5184  2.1517
   47CHL1  H26B 3473   1.276   1.517   3.835 -2.2712  0.7062 -0.2024
   47CHL1  H26C 3474   1.395   1.591   3.719  1.7413  0.4243  2.6204
   47CHL1   C27 3475   1.064   1.677   3.742  0.0458  0.1218 -0.0201
   47CHL1  H27A 3476   1.056   1.612   3.831 -0.0233 -0.6004 -0.5474
   47CHL1  H27B 3477   1.102   1.774   3.780  0.1007  0.4855 -0.9890
   47CHL1  H27C 3478   0.976   1.685   3.675 -0.2191  1.8814  0.4888
   48CHL1    C3 3479   6.129   2.239   2.318 -0.8178 -0.4538 -0.2126
   48CHL1    H3 3480   6.115   2.342   2.357  0.5399 -1.0127  1.9413
   48CHL1    O3 3481   6.110   2.236   2.180 -0.1329  0.0503 -0.4236
   48CHL1   H3' 3482   6.193   2.267   2.144 -1.2766  2.4224 -1.1856
   48CHL1    C4 3483   6.284   2.201   2.348  0.6982  0.0394 -0.2049
   48CHL1   H4A 3484   6.295   2.100   2.305  0.6354 -0.1736  0.2776
   48CHL1   H4B 3485   6.339   2.279   2.290 -1.1948  0.9766 -0.8188
   48CHL1    C5 3486   6.312   2.203   2.497 -0.8647  0.7957 -0.5539
   48CHL1    C6 3487   6.409   2.270   2.547  0.5070  0.1208 -0.6025
   48CHL1    H6 3488   6.468   2.328   2.475 -2.1997  3.2245 -0.5796
   48CHL1    C7 3489   6.440   2.282   2.695  0.1327 -0.5222  0.6112
   48CHL1   H7A 3490   6.549   2.274   2.715  0.1218  1.3273  1.7121
   48CHL1   H7B 3491   6.413   2.385   2.729  1.2959 -1.0890  3.5174
   48CHL1    C8 3492   6.364   2.179   2.780 -0.1687 -0.3240  0.4888
   48CHL1    H8 3493   6.428   2.088   2.773 -1.2471 -1.2606  2.1879
   48CHL1   C14 3494   6.362   2.212   2.925  0.1445  0.5105  0.1819
   48CHL1   H14 3495   6.301   2.304   2.936 -1.8806 -0.8409  0.7704
   48CHL1   C15 3496   6.496   2.241   2.989  0.0117  0.4034  0.6624
   48CHL1  H15A 3497   6.571   2.162   2.966  0.5759  0.3319  2.5873
   48CHL1  H15B 3498   6.540   2.340   2.966 -1.4524  1.0048  0.3646
   48CHL1   C16 3499   6.468   2.241   3.139  0.1994 -0.2628  0.7627
   48CHL1  H16A 3500   6.556   2.188   3.181  0.8877  0.6342  0.4917
   48CHL1  H16B 3501   6.469   2.341   3.188  0.1039  0.3296 -0.4263
   48CHL1   C17 3502   6.329   2.174   3.156  0.8011  0.2259  0.3589
   48CHL1   H17 3503   6.249   2.251   3.167  0.4670  0.1222 -1.1937
   48CHL1   C13 3504   6.298   2.109   3.023 -0.1335 -0.2662  0.7932
   48CHL1   C18 3505   6.369   1.967   3.014 -1.0077 -0.5298 -0.6257
   48CHL1  H18A 3506   6.368   1.932   2.908  0.3350  0.4404 -0.9869
   48CHL1  H18B 3507   6.473   1.981   3.049 -1.5595  2.6901  0.0014
   48CHL1  H18C 3508   6.314   1.894   3.078 -0.0332 -0.8542 -0.1424
   48CHL1   C12 3509   6.147   2.108   2.984 -0.3906 -0.0856  0.6705
   48CHL1  H12A 3510   6.084   2.038   3.042 -2.1700  1.0594  0.1900
   48CHL1  H12B 3511   6.103   2.209   2.999  1.2217  0.7717 -0.1116
   48CHL1   C11 3512   6.131   2.076   2.830 -0.7549 -0.0912 -0.0030
   48CHL1  H11A 3513   6.159   1.969   2.816  4.5087  1.1211 -0.9974
   48CHL1  H11B 3514   6.027   2.095   2.795 -0.6819 -0.4055 -0.4054
   48CHL1    C9 3515   6.220   2.159   2.733  0.0185 -0.1534  0.0557
   48CHL1    H9 3516   6.178   2.262   2.736 -1.2095 -0.5023 -2.3913
   48CHL1   C10 3517   6.210   2.118   2.586 -0.6959  0.0406  0.3373
   48CHL1   C19 3518   6.240   1.970   2.575  0.7450  0.0381 -0.2211
   48CHL1  H19A 3519   6.343   1.943   2.605  0.2796 -0.2884  1.1774
   48CHL1  H19B 3520   6.165   1.911   2.632 -1.5830  1.1550 -1.9479
   48CHL1  H19C 3521   6.221   1.943   2.469 -3.3805 -0.4277  0.4675
   48CHL1    C1 3522   6.065   2.147   2.542  0.7965 -0.1108  0.1410
   48CHL1   H1A 3523   6.000   2.068   2.586  0.1301  0.7170  0.6810
   48CHL1   H1B 3524   6.026   2.246   2.576  2.3016  0.5930 -0.0999
   48CHL1    C2 3525   6.046   2.135   2.389 -0.0404  0.1968 -0.7068
   48CHL1   H2A 3526   5.939   2.155   2.366 -0.0540 -0.6512 -1.4312
   48CHL1   H2B 3527   6.058   2.031   2.353  0.2237 -0.4127  1.0634
   48CHL1   C20 3528   6.337   2.089   3.279  0.7223  0.2124  0.7963
   48CHL1   H20 3529   6.400   2.001   3.253  0.7944  0.5178 -0.0931
   48CHL1   C21 3530   6.202   2.023   3.314  0.1245 -0.6408 -0.1787
   48CHL1  H21A 3531   6.203   1.952   3.400 -0.0714  1.3014  1.5002
   48CHL1  H21B 3532   6.160   1.972   3.225 -0.7995  0.9575 -0.7036
   48CHL1  H21C 3533   6.140   2.108   3.350 -0.2008 -1.1943  0.6009
   48CHL1   C22 3534   6.409   2.156   3.402  0.1568  0.7627  0.0748
   48CHL1  H22A 3535   6.427   2.072   3.472 -0.6717 -0.2900 -0.9443
   48CHL1  H22B 3536   6.505   2.203   3.369  0.2078 -0.4875 -1.6820
   48CHL1   C23 3537   6.328   2.264   3.464 -0.1467  0.2538 -0.0860
   48CHL1  H23A 3538   6.320   2.339   3.382  2.5429  0.0712 -0.6149
   48CHL1  H23B 3539   6.222   2.235   3.481 -0.3914  0.7708 -0.6907
   48CHL1   C24 3540   6.401   2.324   3.586  0.1148  0.2526  0.4422
   48CHL1  H24A 3541   6.500   2.369   3.565  0.5402 -2.3158 -4.4182
   48CHL1  H24B 3542   6.333   2.406   3.617  0.5826  1.0125 -0.4951
   48CHL1   C25 3543   6.404   2.232   3.710 -0.1837  0.0604  0.4036
   48CHL1   H25 3544   6.465   2.145   3.678 -2.0617 -1.5364  0.9522
   48CHL1   C26 3545   6.475   2.309   3.818  0.3488 -0.2835 -0.2506
   48CHL1  H26A 3546   6.506   2.239   3.898  0.0016  0.6759  0.7484
   48CHL1  H26B 3547   6.567   2.350   3.772  2.5071 -1.9050  2.3482
   48CHL1  H26C 3548   6.417   2.392   3.864 -1.1793 -0.7762 -1.2003
   48CHL1   C27 3549   6.267   2.184   3.752  0.1349  0.1684 -0.8434
   48CHL1  H27A 3550   6.192   2.266   3.755  1.2283  1.1851  1.0826
   48CHL1  H27B 3551   6.238   2.106   3.679  0.3155 -0.2989 -0.4227
   48CHL1  H27C 3552   6.280   2.136   3.852  1.1086 -0.2253 -1.1476
   49CHL1    C3 3553   0.652   6.150   2.284 -0.2078  0.1429 -0.0050
   49CHL1    H3 3554   0.721   6.236   2.302 -1.3276  0.8003  1.3453
   49CHL1    O3 3555   0.631   6.158   2.142  0.3777 -0.5406 -0.7811
   49CHL1   H3' 3556   0.712   6.114   2.116  1.7451  1.0362  0.5974
   49CHL1    C4 3557   0.725   6.024   2.319  0.4395  0.1430  0.4257
   49CHL1   H4A 3558   0.667   5.938   2.280 -1.2704  2.1095 -1.6375
   49CHL1   H4B 3559   0.817   6.025   2.256 -1.6176 -1.0335 -2.8277
   49CHL1    C5 3560   0.750   6.006   2.463  0.3796  0.9948  0.0698
   49CHL1    C6 3561   0.877   5.975   2.500 -0.3261 -0.2229 -0.1715
   49CHL1    H6 3562   0.952   5.969   2.419  1.5954  3.0479  1.2143
   49CHL1    C7 3563   0.922   5.952   2.639  0.3787  0.4716 -0.9074
   49CHL1   H7A 3564   0.971   5.852   2.650 -0.1608  0.3201  0.3984
   49CHL1   H7B 3565   0.993   6.028   2.678 -0.4843  0.3792  1.0065
   49CHL1    C8 3566   0.799   5.943   2.739 -0.0698 -0.3346  0.4119
   49CHL1    H8 3567   0.756   5.843   2.720  2.4656 -1.2468 -0.9636
   49CHL1   C14 3568   0.846   5.962   2.880 -0.1058 -0.3065 -0.4762
   49CHL1   H14 3569   0.884   6.066   2.883 -0.9558  0.0115 -0.3638
   49CHL1   C15 3570   0.964   5.880   2.929 -0.6531 -0.1564 -0.2547
   49CHL1  H15A 3571   0.947   5.779   2.885 -0.7213  0.5859 -2.0133
   49CHL1  H15B 3572   1.064   5.910   2.892  0.8377 -0.3635  3.2206
   49CHL1   C16 3573   0.945   5.872   3.082  0.3266  0.2584 -0.4770
   49CHL1  H16A 3574   0.906   5.771   3.107  0.6322  0.2806  0.1123
   49CHL1  H16B 3575   1.036   5.894   3.141  0.1357 -1.6030  0.5707
   49CHL1   C17 3576   0.820   5.969   3.114 -0.4391  0.8529 -0.8460
   49CHL1   H17 3577   0.857   6.072   3.136 -2.7148  1.3667  0.9981
   49CHL1   C13 3578   0.739   5.965   2.981  0.9232  0.0974 -0.1349
   49CHL1   C18 3579   0.656   5.829   2.979  0.2383 -0.0767 -0.0410
   49CHL1  H18A 3580   0.718   5.739   2.999  1.0476  0.4499 -0.1332
   49CHL1  H18B 3581   0.571   5.845   3.049  0.9592  2.1684  0.3990
   49CHL1  H18C 3582   0.607   5.820   2.880 -0.0655 -1.1506  0.1927
   49CHL1   C12 3583   0.647   6.087   2.955 -0.0004 -0.6565 -0.3362
   49CHL1  H12A 3584   0.564   6.093   3.028 -0.0675 -1.0893 -0.3720
   49CHL1  H12B 3585   0.708   6.179   2.968  0.3331 -0.6987 -1.4330
   49CHL1   C11 3586   0.586   6.071   2.817  0.2617  0.5785 -0.0276
   49CHL1  H11A 3587   0.521   5.981   2.819 -0.6668  1.2128 -0.5441
   49CHL1  H11B 3588   0.522   6.160   2.795  0.6499  0.7117 -0.6381
   49CHL1    C9 3589   0.698   6.055   2.705  0.6431  0.3856  0.7858
   49CHL1    H9 3590   0.750   6.154   2.708  0.4194  0.5026  0.7640
   49CHL1   C10 3591   0.633   6.030   2.563  0.5327 -0.7314  0.3865
   49CHL1   C19 3592   0.537   5.910   2.568 -0.6718  0.1408 -0.0577
   49CHL1  H19A 3593   0.512   5.887   2.462  0.3846 -1.3267 -0.0146
   49CHL1  H19B 3594   0.576   5.820   2.619  2.0814  0.6945 -1.0177
   49CHL1  H19C 3595   0.446   5.941   2.623 -0.6909  0.0146 -0.0168
   49CHL1    C1 3596   0.557   6.155   2.523 -0.5488  0.0948  0.2127
   49CHL1   H1A 3597   0.471   6.166   2.592  2.1398  2.6182  3.4933
   49CHL1   H1B 3598   0.607   6.250   2.550  0.7338 -0.8860  1.4490
   49CHL1    C2 3599   0.521   6.162   2.375 -0.5332 -0.6757 -0.5348
   49CHL1   H2A 3600   0.478   6.261   2.350  1.1220  0.0483 -0.6582
   49CHL1   H2B 3601   0.443   6.085   2.353  0.3965 -1.9872  0.6135
   49CHL1   C20 3602   0.743   5.929   3.244 -1.0188  0.1537 -0.8535
   49CHL1   H20 3603   0.682   5.836   3.237 -0.5597 -0.3010  0.7504
   49CHL1   C21 3604   0.661   6.050   3.291  0.1870 -0.8031  0.0986
   49CHL1  H21A 3605   0.657   6.073   3.399 -1.6302  0.4847 -0.2066
   49CHL1  H21B 3606   0.559   6.045   3.247 -0.3246  0.4498  1.0991
   49CHL1  H21C 3607   0.700   6.145   3.248 -1.3152 -0.0184  0.4025
   49CHL1   C22 3608   0.844   5.899   3.359  0.7059 -0.7093 -0.3604
   49CHL1  H22A 3609   0.915   5.824   3.318  0.7137 -0.3853 -0.9547
   49CHL1  H22B 3610   0.900   5.989   3.395  0.2809 -1.7142  3.1368
   49CHL1   C23 3611   0.781   5.825   3.479 -0.2023  0.0207  0.6529
   49CHL1  H23A 3612   0.859   5.787   3.548 -0.2956 -0.1728  0.6530
   49CHL1  H23B 3613   0.722   5.898   3.538 -0.0756  1.6999 -1.1854
   49CHL1   C24 3614   0.700   5.703   3.448 -0.2891  0.2106  0.3958
   49CHL1  H24A 3615   0.608   5.736   3.395  1.3485 -0.6641 -3.3864
   49CHL1  H24B 3616   0.758   5.639   3.378  0.3783  0.0143  1.1168
   49CHL1   C25 3617   0.668   5.613   3.571 -0.0862 -0.8085  0.6465
   49CHL1   H25 3618   0.630   5.681   3.649 -0.8395 -0.1761 -0.2609
   49CHL1   C26 3619   0.543   5.531   3.547  0.2873  0.3055 -0.4691
   49CHL1  H26A 3620   0.456   5.601   3.542 -0.7988 -0.9455  0.1858
   49CHL1  H26B 3621   0.552   5.475   3.452 -1.0529  1.0895 -1.0880
   49CHL1  H26C 3622   0.521   5.465   3.634  2.1662 -2.1210 -1.7366
   49CHL1   C27 3623   0.784   5.531   3.624  0.0728 -0.1246 -0.1211
   49CHL1  H27A 3624   0.875   5.583   3.661  0.8279 -2.2419  1.1874
   49CHL1  H27B 3625   0.748   5.452   3.694  0.4623 -1.6912 -1.6123
   49CHL1  H27C 3626   0.816   5.473   3.535  2.1856 -0.3512  0.7409
   50CHL1    C3 3627   5.149   6.954   2.282  0.2759 -0.0527 -0.4547
   50CHL1    H3 3628   5.166   7.064   2.286 -1.3571  0.1939  1.3529
   50CHL1    O3 3629   5.115   6.925   2.145  0.8532  0.1431 -0.1844
   50CHL1   H3' 3630   5.024   6.953   2.136  0.5131 -0.3635  1.4285
   50CHL1    C4 3631   5.272   6.877   2.322 -0.7604  0.3710 -0.4531
   50CHL1   H4A 3632   5.251   6.769   2.309  1.9348 -0.6902  2.6588
   50CHL1   H4B 3633   5.353   6.909   2.253 -0.3971 -1.2526 -0.8258
   50CHL1    C5 3634   5.307   6.910   2.465 -0.0879 -0.7717 -0.0046
   50CHL1    C6 3635   5.430   6.963   2.485 -0.3196 -0.0455 -0.6702
   50CHL1    H6 3636   5.499   6.975   2.401  0.5478 -0.2922 -0.0172
   50CHL1    C7 3637   5.481   6.993   2.625  0.7836 -0.2512  0.9651
   50CHL1   H7A 3638   5.574   6.936   2.647 -0.8241 -3.1188  0.8416
   50CHL1   H7B 3639   5.502   7.102   2.629 -0.6795  0.0348  1.2440
   50CHL1    C8 3640   5.389   6.938   2.739  0.0010 -0.2095 -0.7324
   50CHL1    H8 3641   5.404   6.828   2.743 -1.5562 -0.4019  1.6379
   50CHL1   C14 3642   5.426   7.018   2.869 -0.0607  0.3053  0.1942
   50CHL1   H14 3643   5.402   7.127   2.859 -0.2096  0.3500  0.9843
   50CHL1   C15 3644   5.575   7.009   2.925 -0.4270  0.5998  0.3903
   50CHL1  H15A 3645   5.620   6.907   2.928 -1.2360  0.1921 -0.4426
   50CHL1  H15B 3646   5.649   7.057   2.859  1.4178 -1.4306  0.8729
   50CHL1   C16 3647   5.563   7.050   3.074 -0.1872  0.6038  0.4113
   50CHL1  H16A 3648   5.615   6.974   3.137 -0.3856  0.1066 -0.0260
   50CHL1  H16B 3649   5.591   7.157   3.089  1.9249  0.4943 -2.1509
   50CHL1   C17 3650   5.414   7.041   3.111 -0.6406 -0.0424 -0.1480
   50CHL1   H17 3651   5.382   7.148   3.108 -1.0932 -0.1037  1.5191
   50CHL1   C13 3652   5.347   6.974   2.988  0.6357  0.6012 -0.0878
   50CHL1   C18 3653   5.350   6.827   3.016 -0.9232  0.5029 -0.3713
   50CHL1  H18A 3654   5.293   6.798   3.106  1.1447 -1.8757  0.2864
   50CHL1  H18B 3655   5.300   6.771   2.935  0.1270 -0.3075 -0.4881
   50CHL1  H18C 3656   5.456   6.795   3.031 -1.4698 -1.4802 -0.5356
   50CHL1   C12 3657   5.200   7.006   2.967  0.5911  0.5685  0.0328
   50CHL1  H12A 3658   5.126   6.962   3.037 -0.9730  0.3038 -1.7086
   50CHL1  H12B 3659   5.187   7.115   2.950 -2.2426 -0.0516 -2.6221
   50CHL1   C11 3660   5.152   6.946   2.833 -0.2439  0.4326  0.2529
   50CHL1  H11A 3661   5.121   6.840   2.840  0.3203  0.2761  0.4459
   50CHL1  H11B 3662   5.057   7.002   2.815 -0.8046  0.3148  2.4824
   50CHL1    C9 3663   5.240   6.962   2.704 -0.6658 -0.4013 -0.2609
   50CHL1    H9 3664   5.244   7.065   2.664 -1.9352 -1.6331 -3.9005
   50CHL1   C10 3665   5.196   6.890   2.570  0.2264  0.3236  0.0659
   50CHL1   C19 3666   5.177   6.738   2.598 -0.4233  0.6809 -0.7630
   50CHL1  H19A 3667   5.181   6.675   2.506  0.1069 -0.0344 -0.2597
   50CHL1  H19B 3668   5.263   6.714   2.664 -0.0412  1.0727 -1.1133
   50CHL1  H19C 3669   5.082   6.703   2.644  0.3423 -0.6722 -0.1629
   50CHL1    C1 3670   5.063   6.951   2.512  0.3167 -0.1032 -0.0842
   50CHL1   H1A 3671   4.982   6.913   2.578 -1.8649 -0.3774 -2.7674
   50CHL1   H1B 3672   5.076   7.061   2.519  0.0296 -0.1838  3.3215
   50CHL1    C2 3673   5.034   6.918   2.369 -0.7191  0.7048  0.5032
   50CHL1   H2A 3674   4.944   6.971   2.331 -0.9699  0.0092  0.1193
   50CHL1   H2B 3675   5.021   6.809   2.354  0.0642  0.8082 -1.0211
   50CHL1   C20 3676   5.385   6.989   3.247  0.2187  0.1165 -1.3109
   50CHL1   H20 3677   5.385   6.879   3.264 -2.2267  0.3321  0.6828
   50CHL1   C21 3678   5.248   7.029   3.288  0.0211  0.0190 -0.0291
   50CHL1  H21A 3679   5.169   6.979   3.228 -0.0064  0.8337 -0.6843
   50CHL1  H21B 3680   5.247   7.138   3.265  2.4219 -0.3464 -2.2089
   50CHL1  H21C 3681   5.231   7.016   3.397  0.1659 -0.1020 -0.0208
   50CHL1   C22 3682   5.482   7.052   3.362 -0.6800  0.0457  0.2645
   50CHL1  H22A 3683   5.584   7.017   3.337 -0.7907  0.4804 -0.8883
   50CHL1  H22B 3684   5.491   7.162   3.350  1.9263 -0.0945  0.4023
   50CHL1   C23 3685   5.457   7.006   3.512 -0.0179  0.8237  0.3047
   50CHL1  H23A 3686   5.367   7.066   3.539  0.3712  2.2031 -1.3444
   50CHL1  H23B 3687   5.429   6.898   3.516 -0.9715  1.0345 -0.3024
   50CHL1   C24 3688   5.571   7.039   3.609 -0.2850  0.3703  0.0997
   50CHL1  H24A 3689   5.604   7.144   3.592  1.4352 -0.0938  0.3707
   50CHL1  H24B 3690   5.535   7.025   3.713 -3.2205 -0.3144 -0.9093
   50CHL1   C25 3691   5.701   6.948   3.604 -0.3107 -0.6977  0.3790
   50CHL1   H25 3692   5.721   6.934   3.496  1.6130  0.9672  0.4713
   50CHL1   C26 3693   5.823   7.012   3.660 -0.1101 -0.0878  0.3530
   50CHL1  H26A 3694   5.839   7.112   3.613  0.0542 -0.1035  0.3727
   50CHL1  H26B 3695   5.825   7.034   3.768  0.3629 -1.1299  0.5691
   50CHL1  H26C 3696   5.913   6.953   3.631  0.7909  0.7464  1.3398
   50CHL1   C27 3697   5.679   6.814   3.675 -0.3824  0.3650 -0.8461
   50CHL1  H27A 3698   5.656   6.829   3.782  0.6091 -0.7465 -0.4526
   50CHL1  H27B 3699   5.604   6.758   3.614 -1.5788  0.4100  0.5314
   50CHL1  H27C 3700   5.775   6.758   3.671  0.2345  1.3810 -0.5376
   51CHL1    C3 3701   1.313   0.059   2.152 -0.7323  0.2569  0.1610
   51CHL1    H3 3702   1.391   0.110   2.212  0.0210  2.5006 -2.5501
   51CHL1    O3 3703   1.314   0.111   2.021  0.0664  0.2416 -0.0773
   51CHL1   H3' 3704   1.225   0.094   1.989  0.5759 -0.6184 -1.1060
   51CHL1    C4 3705   1.344  -0.095   2.145 -0.1995 -0.6472  0.7609
   51CHL1   H4A 3706   1.253  -0.134   2.095 -0.0018 -1.2025  0.8358
   51CHL1   H4B 3707   1.434  -0.111   2.082 -1.2482 -0.3565 -0.8824
   51CHL1    C5 3708   1.349  -0.142   2.284  0.1308  0.0388  0.2787
   51CHL1    C6 3709   1.461  -0.201   2.328 -0.4868 -0.0807  0.3692
   51CHL1    H6 3710   1.548  -0.208   2.261 -1.7361 -0.7042 -1.2495
   51CHL1    C7 3711   1.473  -0.261   2.469  0.0632  0.2374  0.1703
   51CHL1   H7A 3712   1.522  -0.358   2.449 -1.4976 -0.6052  0.2643
   51CHL1   H7B 3713   1.548  -0.214   2.537  2.3187 -3.1579  0.2687
   51CHL1    C8 3714   1.341  -0.277   2.538  1.2338 -0.5488  0.0382
   51CHL1    H8 3715   1.300  -0.377   2.512  1.6756 -0.4608 -1.0326
   51CHL1   C14 3716   1.359  -0.280   2.690 -0.4945 -0.2819 -0.6687
   51CHL1   H14 3717   1.395  -0.178   2.715  0.7100 -0.7379 -0.4410
   51CHL1   C15 3718   1.474  -0.359   2.749 -0.8311  0.7485  0.0077
   51CHL1  H15A 3719   1.487  -0.452   2.689  0.2796  0.9103 -0.0322
   51CHL1  H15B 3720   1.570  -0.303   2.748 -1.0036  1.0907  0.9821
   51CHL1   C16 3721   1.436  -0.382   2.893 -0.0211  0.2726 -0.2981
   51CHL1  H16A 3722   1.420  -0.490   2.915  0.6077 -0.0669 -1.4145
   51CHL1  H16B 3723   1.512  -0.342   2.963  1.8016 -1.2732 -1.2851
   51CHL1   C17 3724   1.297  -0.314   2.918  0.4956  0.2308 -0.1952
   51CHL1   H17 3725   1.318  -0.206   2.933 -2.8407  0.8889  0.5335
   51CHL1   C13 3726   1.231  -0.308   2.773  0.4654 -0.0622 -0.4042
   51CHL1   C18 3727   1.180  -0.451   2.728  0.4077  0.3730  0.0076
   51CHL1  H18A 3728   1.132  -0.447   2.627  2.5703 -2.3196 -1.2677
   51CHL1  H18B 3729   1.261  -0.527   2.723 -0.4961 -0.6019 -0.0979
   51CHL1  H18C 3730   1.107  -0.491   2.801  0.3622  0.8966  0.2465
   51CHL1   C12 3731   1.124  -0.197   2.747  0.3522 -0.3139  0.0748
   51CHL1  H12A 3732   1.024  -0.229   2.783 -0.5750 -0.5926 -2.5359
   51CHL1  H12B 3733   1.167  -0.107   2.796  2.8143 -1.0141 -0.6671
   51CHL1   C11 3734   1.109  -0.175   2.593  0.3009  0.2277 -1.2290
   51CHL1  H11A 3735   1.044  -0.258   2.556 -0.9680  1.3331 -1.5492
   51CHL1  H11B 3736   1.041  -0.087   2.584 -0.5229 -0.1474  0.7365
   51CHL1    C9 3737   1.243  -0.161   2.512  0.1106 -0.3873  0.2072
   51CHL1    H9 3738   1.292  -0.074   2.561  0.1626 -1.4284  2.0963
   51CHL1   C10 3739   1.222  -0.130   2.363  0.3041 -0.1724 -0.1579
   51CHL1   C19 3740   1.126  -0.237   2.308  0.0178  0.2407 -0.6031
   51CHL1  H19A 3741   1.111  -0.229   2.198  0.8230  0.4306 -0.7015
   51CHL1  H19B 3742   1.159  -0.342   2.322 -2.1080 -0.3693  0.3206
   51CHL1  H19C 3743   1.024  -0.222   2.352 -0.8609 -0.6643 -2.2305
   51CHL1    C1 3744   1.161   0.012   2.353 -0.1924 -0.1458 -0.0214
   51CHL1   H1A 3745   1.054   0.023   2.380  0.2713  3.4085  0.7822
   51CHL1   H1B 3746   1.216   0.082   2.419 -1.6201 -0.7680  1.9359
   51CHL1    C2 3747   1.181   0.076   2.212  0.5610 -0.1065 -0.0409
   51CHL1   H2A 3748   1.168   0.186   2.226  2.4701  0.0366  0.8724
   51CHL1   H2B 3749   1.105   0.036   2.142 -0.1640 -0.1764  0.7689
   51CHL1   C20 3750   1.213  -0.370   3.030  0.8265  0.7020 -0.0570
   51CHL1   H20 3751   1.177  -0.469   2.997  1.5646  0.2969  0.3231
   51CHL1   C21 3752   1.100  -0.279   3.057  0.1245  0.7904  0.6370
   51CHL1  H21A 3753   1.134  -0.174   3.069  1.6065  0.2037  1.8428
   51CHL1  H21B 3754   1.039  -0.306   3.146 -1.3470  1.2724 -0.1945
   51CHL1  H21C 3755   1.031  -0.281   2.969  0.7695  0.4306  0.1326
   51CHL1   C22 3756   1.293  -0.397   3.164 -0.5725 -0.6062 -0.7711
   51CHL1  H22A 3757   1.378  -0.469   3.157  0.6359  0.4414  1.5970
   51CHL1  H22B 3758   1.351  -0.303   3.179 -1.6007 -0.0926  0.0853
   51CHL1   C23 3759   1.214  -0.419   3.294  0.4044 -0.5521  0.3849
   51CHL1  H23A 3760   1.147  -0.332   3.312 -0.9689 -1.4056 -0.3622
   51CHL1  H23B 3761   1.151  -0.509   3.278  0.9483 -1.0227  0.8579
   51CHL1   C24 3762   1.306  -0.439   3.415  0.2666  0.2434 -0.2941
   51CHL1  H24A 3763   1.386  -0.514   3.397 -0.2828 -0.6279  0.7529
   51CHL1  H24B 3764   1.351  -0.341   3.438  0.3646  0.4198 -1.2013
   51CHL1   C25 3765   1.240  -0.489   3.550 -0.5697  0.5033  0.4271
   51CHL1   H25 3766   1.208  -0.591   3.521 -1.8911  1.0881 -0.2148
   51CHL1   C26 3767   1.335  -0.503   3.668 -0.3364  0.0849  0.1264
   51CHL1  H26A 3768   1.393  -0.595   3.645  1.2513  0.6171  1.7901
   51CHL1  H26B 3769   1.406  -0.418   3.677 -0.6992  0.3950  0.0952
   51CHL1  H26C 3770   1.279  -0.523   3.762 -0.1384  1.0596  0.4623
   51CHL1   C27 3771   1.119  -0.411   3.601 -0.2510 -0.2822  0.7868
   51CHL1  H27A 3772   1.151  -0.310   3.635  0.3823  0.9235 -2.9822
   51CHL1  H27B 3773   1.047  -0.393   3.518  1.1581  0.4441 -0.3166
   51CHL1  H27C 3774   1.065  -0.463   3.683 -0.3959  0.5973  1.2557
   52CHL1    C3 3775   6.446   0.565   2.349 -0.5712  0.5763  0.0449
   52CHL1    H3 3776   6.515   0.481   2.325 -0.3746  1.3465 -2.3800
   52CHL1    O3 3777   6.410   0.613   2.225 -0.3616  0.0986 -0.0610
   52CHL1   H3' 3778   6.325   0.658   2.234 -0.1681  0.5171 -0.2634
   52CHL1    C4 3779   6.317   0.538   2.422  0.7772 -0.2930 -0.4072
   52CHL1   H4A 3780   6.247   0.624   2.417 -1.2539 -1.7918  0.8729
   52CHL1   H4B 3781   6.258   0.462   2.365  2.8577 -1.5131 -1.0411
   52CHL1    C5 3782   6.339   0.493   2.563 -0.0879  0.1438 -0.1336
   52CHL1    C6 3783   6.301   0.380   2.615  0.0957 -0.1078  0.2647
   52CHL1    H6 3784   6.236   0.312   2.558 -0.7211  0.0955  0.9473
   52CHL1    C7 3785   6.311   0.349   2.764  0.1653 -0.2551 -0.0683
   52CHL1   H7A 3786   6.215   0.311   2.803  0.7093 -0.8328  0.7564
   52CHL1   H7B 3787   6.389   0.271   2.782 -1.0557 -1.2904  0.9124
   52CHL1    C8 3788   6.351   0.466   2.860 -0.0391 -0.3147  0.2431
   52CHL1    H8 3789   6.264   0.535   2.871 -1.2885 -1.8867  0.6666
   52CHL1   C14 3790   6.400   0.422   2.991  0.0896 -0.4837 -0.8932
   52CHL1   H14 3791   6.481   0.350   2.967 -0.2304 -0.1601 -3.1766
   52CHL1   C15 3792   6.297   0.345   3.081  0.1821 -0.1170 -0.7219
   52CHL1  H15A 3793   6.208   0.409   3.097  0.5339  0.1684  0.1557
   52CHL1  H15B 3794   6.269   0.238   3.067 -2.2461  0.2945  0.4596
   52CHL1   C16 3795   6.370   0.338   3.222  0.4968 -0.0332  0.2909
   52CHL1  H16A 3796   6.305   0.374   3.305  0.7482 -0.7521  0.8082
   52CHL1  H16B 3797   6.403   0.234   3.240  0.2099  0.0694  1.5256
   52CHL1   C17 3798   6.494   0.430   3.206 -0.8499  0.1127  0.9316
   52CHL1   H17 3799   6.566   0.355   3.168 -1.0811  0.2196  0.2599
   52CHL1   C13 3800   6.469   0.521   3.087 -0.1350 -0.0266  0.4317
   52CHL1   C18 3801   6.365   0.628   3.123  0.1607  0.7225  0.1179
   52CHL1  H18A 3802   6.420   0.711   3.171 -0.0281  1.8635 -1.5284
   52CHL1  H18B 3803   6.324   0.665   3.026 -0.0143 -0.6838 -0.3711
   52CHL1  H18C 3804   6.273   0.595   3.176  0.3965  0.2025  0.2116
   52CHL1   C12 3805   6.589   0.576   3.008 -0.2183 -0.5052  0.7961
   52CHL1  H12A 3806   6.626   0.643   3.088 -1.3847 -0.6627  1.4811
   52CHL1  H12B 3807   6.668   0.499   2.991 -1.0032 -1.4796  1.4534
   52CHL1   C11 3808   6.538   0.645   2.884  0.6899 -0.2444 -0.0283
   52CHL1  H11A 3809   6.478   0.732   2.919  1.2914  0.3732 -0.4997
   52CHL1  H11B 3810   6.630   0.675   2.829  0.9323  1.5287  1.2528
   52CHL1    C9 3811   6.463   0.547   2.791  0.0945  0.6401 -1.3237
   52CHL1    H9 3812   6.537   0.467   2.768 -0.1403 -0.0651  0.2259
   52CHL1   C10 3813   6.421   0.600   2.649 -0.0161 -0.0209  0.1548
   52CHL1   C19 3814   6.346   0.733   2.667 -1.2596  0.0017  0.4267
   52CHL1  H19A 3815   6.419   0.810   2.700  0.8505 -0.4858 -2.6174
   52CHL1  H19B 3816   6.311   0.764   2.565 -2.6697 -0.3111  0.7877
   52CHL1  H19C 3817   6.256   0.728   2.732  0.3219 -0.0049  2.7283
   52CHL1    C1 3818   6.556   0.626   2.574  0.7982  0.3739 -0.0005
   52CHL1   H1A 3819   6.606   0.709   2.629 -1.9763  2.1077  0.1268
   52CHL1   H1B 3820   6.622   0.537   2.575  2.3261  1.3015  4.0726
   52CHL1    C2 3821   6.533   0.668   2.426  1.0170  0.1951  0.1116
   52CHL1   H2A 3822   6.632   0.662   2.376 -0.2277 -3.4257 -2.3337
   52CHL1   H2B 3823   6.483   0.767   2.417 -1.3997 -0.9834 -0.2815
   52CHL1   C20 3824   6.551   0.499   3.332  0.7267  0.1203  0.8068
   52CHL1   H20 3825   6.593   0.596   3.297  2.5160 -0.1175  2.1356
   52CHL1   C21 3826   6.673   0.413   3.379 -0.1052  0.1768 -0.0203
   52CHL1  H21A 3827   6.628   0.327   3.433 -0.3089  0.8523  0.9048
   52CHL1  H21B 3828   6.743   0.465   3.446 -0.8245  0.0426  0.8546
   52CHL1  H21C 3829   6.732   0.375   3.293  1.1677 -0.0455  0.9258
   52CHL1   C22 3830   6.452   0.528   3.449 -0.8695  0.1639  1.1254
   52CHL1  H22A 3831   6.351   0.566   3.423 -0.5386 -1.1753 -2.6847
   52CHL1  H22B 3832   6.426   0.428   3.489 -0.4887 -0.3167  0.1849
   52CHL1   C23 3833   6.514   0.615   3.559 -0.0477  0.2235  0.2529
   52CHL1  H23A 3834   6.604   0.573   3.609 -0.3658  0.7541  1.3009
   52CHL1  H23B 3835   6.549   0.708   3.509 -1.5832  0.3788 -0.5819
   52CHL1   C24 3836   6.405   0.664   3.664 -0.6676  0.3376  1.1959
   52CHL1  H24A 3837   6.321   0.706   3.606  0.9006  3.7360  1.1218
   52CHL1  H24B 3838   6.370   0.579   3.726 -2.2288 -0.1264 -0.2606
   52CHL1   C25 3839   6.450   0.780   3.763 -0.1689  0.3589 -0.5865
   52CHL1   H25 3840   6.472   0.872   3.703 -2.3274  0.5311 -1.1797
   52CHL1   C26 3841   6.324   0.812   3.855 -0.0764 -0.4723  0.0387
   52CHL1  H26A 3842   6.335   0.902   3.920  0.0490  0.0020 -0.6264
   52CHL1  H26B 3843   6.233   0.833   3.796 -0.1242  1.1640  0.6135
   52CHL1  H26C 3844   6.306   0.726   3.923 -0.4105 -0.1401  0.3785
   52CHL1   C27 3845   6.559   0.729   3.852 -0.0640  0.7302 -0.2582
   52CHL1  H27A 3846   6.543   0.645   3.923  0.8077  1.4676  0.8556
   52CHL1  H27B 3847   6.650   0.702   3.795  0.7227  1.1262  0.7618
   52CHL1  H27C 3848   6.589   0.808   3.925 -0.2217  1.4442 -0.9466
   53CHL1    C3 3849   1.938   0.094   2.207 -0.0970 -0.0607 -0.3680
   53CHL1    H3 3850   1.934   0.205   2.197 -0.7975 -0.2672 -3.6851
   53CHL1    O3 3851   1.955   0.041   2.077 -0.1877 -0.3427  0.3912
   53CHL1   H3' 3852   1.969  -0.052   2.095  0.8516 -0.5123 -1.1468
   53CHL1    C4 3853   2.046   0.032   2.292  0.6684  0.5648 -0.8920
   53CHL1   H4A 3854   2.042  -0.079   2.298  0.6098  0.6427  2.2585
   53CHL1   H4B 3855   2.149   0.056   2.256  1.9760 -3.4369 -0.2695
   53CHL1    C5 3856   2.022   0.075   2.433 -0.5302  0.5237 -0.3832
   53CHL1    C6 3857   2.112   0.149   2.503  0.1913 -0.0091  0.0494
   53CHL1    H6 3858   2.203   0.185   2.453  0.2345  1.8808  1.3749
   53CHL1    C7 3859   2.091   0.195   2.651  0.2503 -0.1204  0.6799
   53CHL1   H7A 3860   2.187   0.186   2.707  0.1960 -0.2069  0.7592
   53CHL1   H7B 3861   2.050   0.298   2.659 -0.0622 -0.3104  1.6713
   53CHL1    C8 3862   1.986   0.107   2.724 -0.3043 -0.2057  0.1968
   53CHL1    H8 3863   2.028   0.006   2.740 -2.3122 -1.0991  0.0732
   53CHL1   C14 3864   1.945   0.173   2.857 -0.6176 -0.0754 -0.4922
   53CHL1   H14 3865   1.909   0.278   2.848  0.8702  0.5753  0.7466
   53CHL1   C15 3866   2.051   0.188   2.965 -0.1350  1.0056  0.3516
   53CHL1  H15A 3867   2.116   0.098   2.966 -0.5594  0.5737 -2.4897
   53CHL1  H15B 3868   2.131   0.264   2.951  0.4955  0.4145  0.7179
   53CHL1   C16 3869   1.971   0.216   3.092  0.1757 -0.5415 -0.1785
   53CHL1  H16A 3870   2.009   0.174   3.187 -0.2468 -0.6563 -0.0574
   53CHL1  H16B 3871   1.967   0.327   3.099  2.6522 -0.3110 -1.3922
   53CHL1   C17 3872   1.823   0.170   3.059 -0.3603 -0.2291 -0.5954
   53CHL1   H17 3873   1.773   0.264   3.025 -1.9525 -1.6810 -2.4710
   53CHL1   C13 3874   1.837   0.089   2.924 -0.2838  0.0717  0.0818
   53CHL1   C18 3875   1.882  -0.057   2.950  0.5771 -0.5947 -0.4581
   53CHL1  H18A 3876   1.794  -0.112   2.990  0.0243  0.8235  0.3751
   53CHL1  H18B 3877   1.917  -0.115   2.862 -0.8992 -1.4580 -0.5044
   53CHL1  H18C 3878   1.955  -0.074   3.032 -0.5857 -0.1443  0.7216
   53CHL1   C12 3879   1.706   0.094   2.842 -0.3856  0.5548  0.3062
   53CHL1  H12A 3880   1.633   0.015   2.872  0.1536 -1.6305 -3.4372
   53CHL1  H12B 3881   1.667   0.197   2.831  2.1546  1.3970 -1.9439
   53CHL1   C11 3882   1.739   0.036   2.703 -0.0160  1.3382 -0.0693
   53CHL1  H11A 3883   1.755  -0.073   2.716  2.4101  1.5537 -0.6910
   53CHL1  H11B 3884   1.642   0.044   2.650 -0.4295 -0.3499  0.3765
   53CHL1    C9 3885   1.864   0.093   2.630  0.3412 -0.0169 -0.1529
   53CHL1    H9 3886   1.835   0.197   2.605 -0.8762 -0.7300 -1.8544
   53CHL1   C10 3887   1.890   0.024   2.492  1.4183 -0.4261 -0.4152
   53CHL1   C19 3888   1.897  -0.128   2.506  0.0649  0.2973 -0.3450
   53CHL1  H19A 3889   1.795  -0.166   2.527 -0.0016  0.1733 -0.8739
   53CHL1  H19B 3890   1.925  -0.176   2.409 -2.8332 -0.7019 -0.7640
   53CHL1  H19C 3891   1.966  -0.162   2.586 -2.7315 -0.4572  1.9070
   53CHL1    C1 3892   1.776   0.058   2.400  1.1000  0.5543  0.1384
   53CHL1   H1A 3893   1.695  -0.012   2.431 -0.8298  2.4899 -0.3268
   53CHL1   H1B 3894   1.751   0.164   2.423  1.9604  0.4723  1.6266
   53CHL1    C2 3895   1.803   0.042   2.255  0.2940  0.3492  0.4154
   53CHL1   H2A 3896   1.725   0.088   2.190  1.3270 -1.4564 -2.2969
   53CHL1   H2B 3897   1.803  -0.066   2.229 -1.0629  0.5080 -0.3455
   53CHL1   C20 3898   1.762   0.110   3.189  0.7410  0.3050  0.3972
   53CHL1   H20 3899   1.832   0.030   3.222  1.8954  2.0476  2.4143
   53CHL1   C21 3900   1.620   0.048   3.159 -0.6330 -0.5818 -0.0495
   53CHL1  H21A 3901   1.562   0.119   3.097  0.6724  0.7440  0.1939
   53CHL1  H21B 3902   1.579   0.025   3.260 -0.2810 -1.0001  0.0036
   53CHL1  H21C 3903   1.637  -0.048   3.106 -0.6221  0.0311 -1.1743
   53CHL1   C22 3904   1.758   0.214   3.301 -0.1048  0.2741 -0.2811
   53CHL1  H22A 3905   1.859   0.259   3.313  0.7706 -1.6151 -0.2000
   53CHL1  H22B 3906   1.699   0.301   3.267 -0.7902  0.4642  1.3191
   53CHL1   C23 3907   1.707   0.172   3.446 -0.2844  0.2655  0.3307
   53CHL1  H23A 3908   1.600   0.142   3.448  0.2767 -1.8450  2.0387
   53CHL1  H23B 3909   1.762   0.078   3.469 -0.2562  0.4683  1.1171
   53CHL1   C24 3910   1.724   0.288   3.541 -1.0842 -0.5730 -0.0632
   53CHL1  H24A 3911   1.831   0.309   3.564 -1.0546 -0.2115 -0.5178
   53CHL1  H24B 3912   1.694   0.386   3.498 -2.2364 -0.1224  1.6460
   53CHL1   C25 3913   1.635   0.274   3.663  0.1555  0.1480 -0.8916
   53CHL1   H25 3914   1.607   0.169   3.685  1.6952  0.0824  1.0587
   53CHL1   C26 3915   1.701   0.313   3.800  0.5036  0.6925  0.3499
   53CHL1  H26A 3916   1.631   0.336   3.883 -0.8708  0.6688 -0.7680
   53CHL1  H26B 3917   1.770   0.233   3.835 -0.4372 -0.2292  0.1397
   53CHL1  H26C 3918   1.758   0.407   3.787  0.3353  0.5838 -1.3670
   53CHL1   C27 3919   1.506   0.362   3.653  0.2979  0.5465  0.7103
   53CHL1  H27A 3920   1.444   0.354   3.744  0.2336  0.4424  0.6585
   53CHL1  H27B 3921   1.524   0.470   3.639  1.5208  0.5799  2.3517
   53CHL1  H27C 3922   1.449   0.314   3.570 -1.0881 -0.0058  1.9319
   54CHL1    C3 3923   0.679   6.775   2.277  0.5230  0.0899  0.0480
   54CHL1    H3 3924   0.740   6.682   2.268  1.2084  0.3099  1.9076
   54CHL1    O3 3925   0.653   6.824   2.147 -0.0834  0.0549  0.0826
   54CHL1   H3' 3926   0.587   6.894   2.156  1.4428  1.5754  0.0205
   54CHL1    C4 3927   0.545   6.734   2.339  0.0995  0.4881  0.3872
   54CHL1   H4A 3928   0.470   6.817   2.340 -1.0291 -0.4899  1.4697
   54CHL1   H4B 3929   0.508   6.650   2.277 -1.8984  0.8715  0.9785
   54CHL1    C5 3930   0.569   6.688   2.482  0.8130  0.0144  0.5622
   54CHL1    C6 3931   0.529   6.571   2.527  0.8495  0.1063 -0.3961
   54CHL1    H6 3932   0.478   6.507   2.454 -0.8996  2.5379 -1.4414
   54CHL1    C7 3933   0.532   6.517   2.663 -0.2570 -0.1667 -0.5476
   54CHL1   H7A 3934   0.440   6.463   2.695 -0.6393 -0.4178 -2.0232
   54CHL1   H7B 3935   0.617   6.449   2.681  0.1636 -0.0026 -1.8811
   54CHL1    C8 3936   0.550   6.639   2.759  0.4930 -1.0660  0.6531
   54CHL1    H8 3937   0.465   6.710   2.749  1.3932  0.1754  1.4986
   54CHL1   C14 3938   0.556   6.598   2.899 -0.6041 -0.2628 -0.3370
   54CHL1   H14 3939   0.643   6.529   2.902 -1.1601 -1.0301 -1.2696
   54CHL1   C15 3940   0.443   6.501   2.947  0.3468 -0.2655 -0.1875
   54CHL1  H15A 3941   0.351   6.544   2.902  0.3394 -0.2661 -0.1727
   54CHL1  H15B 3942   0.462   6.399   2.908 -3.7718 -2.0492  1.8758
   54CHL1   C16 3943   0.444   6.515   3.109  0.3398 -0.8407  0.3749
   54CHL1  H16A 3944   0.356   6.570   3.149  0.8116  1.7465 -1.8473
   54CHL1  H16B 3945   0.456   6.418   3.161 -3.5583 -2.1210 -0.7018
   54CHL1   C17 3946   0.564   6.610   3.135 -0.0817 -0.5345  0.1831
   54CHL1   H17 3947   0.656   6.549   3.129 -0.5314 -1.1292 -0.7854
   54CHL1   C13 3948   0.566   6.703   3.005 -0.1052 -0.0189 -0.0156
   54CHL1   C18 3949   0.441   6.798   3.009  0.1122 -0.6247 -0.7056
   54CHL1  H18A 3950   0.341   6.753   3.029 -0.2077  0.3376 -0.0895
   54CHL1  H18B 3951   0.464   6.884   3.075 -0.1559 -2.1961  1.5647
   54CHL1  H18C 3952   0.434   6.842   2.907  1.4487  0.8396 -0.2025
   54CHL1   C12 3953   0.692   6.789   2.973  0.0145 -0.5156  0.1599
   54CHL1  H12A 3954   0.717   6.871   3.044  1.3045 -0.9433  0.2324
   54CHL1  H12B 3955   0.783   6.725   2.981  1.1506  1.2076  1.9784
   54CHL1   C11 3956   0.696   6.838   2.825  0.1232  0.4491 -0.6351
   54CHL1  H11A 3957   0.617   6.915   2.813  0.5187  1.0017  0.2798
   54CHL1  H11B 3958   0.789   6.892   2.795  1.9747 -2.1076  0.1058
   54CHL1    C9 3959   0.665   6.731   2.719  0.1297  0.6001 -0.0903
   54CHL1    H9 3960   0.750   6.660   2.713  0.2811  0.8378 -0.9302
   54CHL1   C10 3961   0.644   6.789   2.574 -0.1711 -0.1801  0.5022
   54CHL1   C19 3962   0.557   6.913   2.583  0.5744  0.6767 -0.9581
   54CHL1  H19A 3963   0.467   6.901   2.646  1.1492  0.1582 -0.2225
   54CHL1  H19B 3964   0.619   6.994   2.628  0.0512  1.2408 -1.2384
   54CHL1  H19C 3965   0.529   6.965   2.489  0.5608  1.1692 -0.6844
   54CHL1    C1 3966   0.775   6.831   2.494 -0.1793  0.1476 -0.0658
   54CHL1   H1A 3967   0.837   6.904   2.551  0.1281  0.0014 -0.2063
   54CHL1   H1B 3968   0.845   6.745   2.486  0.2674  0.5537 -0.6885
   54CHL1    C2 3969   0.747   6.882   2.357  0.0475 -0.4994  0.5614
   54CHL1   H2A 3970   0.839   6.898   2.298 -0.4736 -1.6058 -0.5913
   54CHL1   H2B 3971   0.691   6.978   2.353  0.4303 -0.3186 -0.9064
   54CHL1   C20 3972   0.557   6.682   3.277  0.5524  0.1457  0.3877
   54CHL1   H20 3973   0.468   6.748   3.272  2.4890  2.8302 -1.3145
   54CHL1   C21 3974   0.676   6.768   3.298  0.2053  0.1051 -0.2747
   54CHL1  H21A 3975   0.767   6.716   3.259  0.8120  0.0113  1.1939
   54CHL1  H21B 3976   0.696   6.783   3.406 -2.4749 -0.3549  0.3474
   54CHL1  H21C 3977   0.654   6.864   3.247 -0.0734 -1.1476 -2.6743
   54CHL1   C22 3978   0.539   6.590   3.406 -0.5242  0.2917  0.3915
   54CHL1  H22A 3979   0.522   6.657   3.494 -1.1200  1.2631 -0.4479
   54CHL1  H22B 3980   0.442   6.536   3.407 -0.5248  0.2934  0.5145
   54CHL1   C23 3981   0.663   6.497   3.432  0.3700  0.4881 -0.1089
   54CHL1  H23A 3982   0.674   6.416   3.357  1.2563  0.0246  0.5153
   54CHL1  H23B 3983   0.754   6.559   3.445 -0.4093  1.4861  0.7812
   54CHL1   C24 3984   0.650   6.419   3.564 -0.4591 -0.2457 -0.2086
   54CHL1  H24A 3985   0.558   6.357   3.553 -0.6320 -0.0863  0.2974
   54CHL1  H24B 3986   0.733   6.344   3.567 -0.5573 -0.3398  0.4209
   54CHL1   C25 3987   0.645   6.508   3.692 -0.1942 -0.1592  0.0977
   54CHL1   H25 3988   0.557   6.574   3.676 -1.0816 -1.1679  0.7263
   54CHL1   C26 3989   0.616   6.421   3.817 -0.2203 -0.9066 -0.1961
   54CHL1  H26A 3990   0.517   6.377   3.793 -1.1451 -0.2390  2.1237
   54CHL1  H26B 3991   0.694   6.346   3.842  0.4467  0.5448  2.4079
   54CHL1  H26C 3992   0.610   6.487   3.906 -2.8298  1.2482 -1.8299
   54CHL1   C27 3993   0.765   6.592   3.715  0.8325  0.6643  0.4747
   54CHL1  H27A 3994   0.851   6.521   3.710 -1.9370 -2.8913 -0.6069
   54CHL1  H27B 3995   0.790   6.668   3.638  0.1623  0.4328  0.0257
   54CHL1  H27C 3996   0.762   6.639   3.816  1.1953  0.5429  0.5439
   55CHL1    C3 3997   6.620   6.618   2.202 -0.0934  0.0830  0.3008
   55CHL1    H3 3998   6.510   6.613   2.217  0.1263 -0.2257  2.1094
   55CHL1    O3 3999   6.664   6.622   2.071  0.0959  0.5869 -0.3154
   55CHL1   H3' 4000   6.725   6.696   2.073  0.6366  0.1795 -0.9108
   55CHL1    C4 4001   6.678   6.750   2.277  0.1715 -0.9683  0.2730
   55CHL1   H4A 4002   6.784   6.766   2.247 -0.1816  0.7296 -0.2007
   55CHL1   H4B 4003   6.626   6.835   2.228 -0.7814 -1.8297 -0.2617
   55CHL1    C5 4004   6.659   6.751   2.429 -0.6213 -0.5468 -0.6772
   55CHL1    C6 4005   6.573   6.838   2.490  0.3010  0.4161  0.3535
   55CHL1    H6 4006   6.516   6.914   2.435 -0.4247  0.9429  1.7843
   55CHL1    C7 4007   6.571   6.848   2.640 -0.6993  0.5849 -0.8830
   55CHL1   H7A 4008   6.577   6.954   2.675  0.1759  0.8467 -1.7959
   55CHL1   H7B 4009   6.474   6.807   2.678  0.5863 -0.3782  1.5925
   55CHL1    C8 4010   6.687   6.763   2.710  0.8001 -0.3257  0.2406
   55CHL1    H8 4011   6.786   6.810   2.694  1.7613 -1.9355  1.1846
   55CHL1   C14 4012   6.664   6.762   2.859 -0.4916  0.1432  0.0549
   55CHL1   H14 4013   6.559   6.727   2.867 -1.6318  3.2129  0.1541
   55CHL1   C15 4014   6.661   6.898   2.929 -0.1109  0.2627  0.1718
   55CHL1  H15A 4015   6.749   6.957   2.895  1.9169 -2.0884  1.0767
   55CHL1  H15B 4016   6.568   6.958   2.916 -0.8543 -0.9345 -0.1602
   55CHL1   C16 4017   6.681   6.868   3.073 -0.1622  0.0323 -0.4577
   55CHL1  H16A 4018   6.760   6.929   3.120  2.5033 -2.4015 -1.4731
   55CHL1  H16B 4019   6.585   6.889   3.124 -0.6817 -1.2798 -0.8297
   55CHL1   C17 4020   6.711   6.713   3.081 -0.6075 -0.5464 -0.0237
   55CHL1   H17 4021   6.617   6.654   3.080 -1.3402  0.5781 -0.3957
   55CHL1   C13 4022   6.759   6.672   2.936 -0.0108 -0.2447  0.1553
   55CHL1   C18 4023   6.906   6.722   2.916 -0.2631  0.1458 -0.2121
   55CHL1  H18A 4024   6.968   6.661   2.986  1.5970 -1.0297 -2.7187
   55CHL1  H18B 4025   6.938   6.701   2.812  2.8273 -2.0030  0.9949
   55CHL1  H18C 4026   6.921   6.828   2.945 -2.7481  0.5120 -0.1052
   55CHL1   C12 4027   6.740   6.525   2.887  0.4950  0.4097  0.4148
   55CHL1  H12A 4028   6.797   6.454   2.952  1.2318 -2.3848 -2.9794
   55CHL1  H12B 4029   6.632   6.504   2.901 -0.2193  3.6165  0.3930
   55CHL1   C11 4030   6.767   6.512   2.738 -0.3520  0.3926  0.4892
   55CHL1  H11A 4031   6.877   6.526   2.727 -0.2416  0.4060  1.5409
   55CHL1  H11B 4032   6.753   6.407   2.706  3.1524 -0.2119  0.5808
   55CHL1    C9 4033   6.693   6.617   2.648  0.0597 -0.2310 -0.8767
   55CHL1    H9 4034   6.586   6.586   2.646 -0.4078  1.1802  0.6382
   55CHL1   C10 4035   6.730   6.628   2.500 -0.1438 -0.1626  0.0326
   55CHL1   C19 4036   6.884   6.642   2.485 -0.4615  0.2592  0.6462
   55CHL1  H19A 4037   6.919   6.676   2.385 -2.0502  1.6835  0.5232
   55CHL1  H19B 4038   6.922   6.707   2.566  1.6244 -0.3904  0.2515
   55CHL1  H19C 4039   6.933   6.544   2.503 -2.0979 -1.5519 -3.5456
   55CHL1    C1 4040   6.675   6.498   2.427  0.4212  0.1366  0.4992
   55CHL1   H1A 4041   6.727   6.410   2.471  2.2589  1.6329  1.4395
   55CHL1   H1B 4042   6.566   6.485   2.444  0.1253 -0.3553 -1.4841
   55CHL1    C2 4043   6.686   6.499   2.274 -0.0430  0.9907 -0.3684
   55CHL1   H2A 4044   6.628   6.414   2.232 -3.0356  2.6222  0.2100
   55CHL1   H2B 4045   6.794   6.489   2.250 -0.0191  0.5396 -0.0895
   55CHL1   C20 4046   6.805   6.697   3.194 -1.0059 -0.4333 -0.9810
   55CHL1   H20 4047   6.894   6.762   3.178 -1.9693  1.5580  1.1392
   55CHL1   C21 4048   6.844   6.543   3.207  0.1175  0.0240  0.1438
   55CHL1  H21A 4049   6.911   6.513   3.124  0.5789  1.4297 -0.0190
   55CHL1  H21B 4050   6.749   6.485   3.213 -1.2427  1.8808 -2.0136
   55CHL1  H21C 4051   6.897   6.543   3.305 -1.6150  1.7673  1.1479
   55CHL1   C22 4052   6.768   6.753   3.336  0.2880  1.0754  0.2188
   55CHL1  H22A 4053   6.854   6.733   3.404 -0.4766  0.3316  0.9987
   55CHL1  H22B 4054   6.744   6.861   3.333  2.4384  1.5746 -1.5973
   55CHL1   C23 4055   6.652   6.679   3.405 -0.1685  0.1098 -0.3425
   55CHL1  H23A 4056   6.571   6.662   3.331  0.8715 -0.5473 -1.3610
   55CHL1  H23B 4057   6.689   6.583   3.447  1.3369 -0.6734 -3.2189
   55CHL1   C24 4058   6.601   6.765   3.530 -0.1415  0.3484  0.0164
   55CHL1  H24A 4059   6.682   6.771   3.605  1.3569 -1.3001 -1.3717
   55CHL1  H24B 4060   6.592   6.871   3.496  0.7676  0.6940  0.8071
   55CHL1   C25 4061   6.473   6.719   3.602  0.2369  0.2259  0.2528
   55CHL1   H25 4062   6.476   6.608   3.603  0.1985  0.2167 -0.3377
   55CHL1   C26 4063   6.473   6.763   3.746  0.1512  0.0236  0.6282
   55CHL1  H26A 4064   6.567   6.735   3.799 -0.8467 -0.8428  1.9936
   55CHL1  H26B 4065   6.454   6.872   3.745  0.8295  0.1542  1.1811
   55CHL1  H26C 4066   6.385   6.722   3.800 -1.7312  2.0692 -0.7147
   55CHL1   C27 4067   6.350   6.778   3.540 -0.7995  0.5324 -0.0663
   55CHL1  H27A 4068   6.323   6.729   3.444 -2.7118 -0.7478  1.0613
   55CHL1  H27B 4069   6.264   6.765   3.610 -0.3612 -0.2549  0.3525
   55CHL1  H27C 4070   6.360   6.885   3.512 -0.6969  0.7013  0.5996
   56CHL1    C3 4071   0.156   0.316   2.243  0.0864 -1.0739 -0.0393
   56CHL1    H3 4072   0.245   0.293   2.306  2.4507  0.2397 -2.6883
   56CHL1    O3 4073   0.192   0.306   2.108 -0.3619 -0.0093 -0.1020
   56CHL1   H3' 4074   0.239   0.389   2.092  2.3289 -1.3104  0.4174
   56CHL1    C4 4075   0.041   0.223   2.271 -0.3540  0.1844  0.5282
   56CHL1   H4A 4076  -0.047   0.245   2.206  1.1623  3.0528 -0.7080
   56CHL1   H4B 4077   0.082   0.122   2.248 -0.0601  0.4744 -0.2792
   56CHL1    C5 4078   0.005   0.232   2.419 -0.4205  0.1816 -0.0614
   56CHL1    C6 4079  -0.012   0.122   2.495  0.4931  0.6320 -0.5709
   56CHL1    H6 4080  -0.003   0.022   2.451  3.1590 -0.3185  1.7797
   56CHL1    C7 4081  -0.055   0.124   2.642 -0.2366 -0.3656  0.1311
   56CHL1   H7A 4082  -0.140   0.057   2.667 -0.9861  0.9381  1.2402
   56CHL1   H7B 4083   0.032   0.087   2.700 -0.1077  0.2518  0.3372
   56CHL1    C8 4084  -0.086   0.272   2.694 -0.0546 -0.1933 -0.6807
   56CHL1    H8 4085  -0.190   0.297   2.666 -0.4004  1.7343  2.0484
   56CHL1   C14 4086  -0.072   0.271   2.844  0.0457 -0.8016  0.0893
   56CHL1   H14 4087   0.036   0.266   2.867  0.7515  1.6331 -2.1867
   56CHL1   C15 4088  -0.141   0.165   2.927  0.2402 -0.3914 -0.3204
   56CHL1  H15A 4089  -0.245   0.157   2.889 -0.1895  1.7701  0.2500
   56CHL1  H15B 4090  -0.091   0.066   2.936 -2.7061 -1.9757 -0.1291
   56CHL1   C16 4091  -0.155   0.217   3.069 -0.1522 -0.0054  0.0335
   56CHL1  H16A 4092  -0.263   0.224   3.096 -0.2225  1.8546 -0.5220
   56CHL1  H16B 4093  -0.104   0.165   3.152 -0.1690 -1.1730 -0.6651
   56CHL1   C17 4094  -0.103   0.366   3.057  0.2834 -0.1580 -0.0494
   56CHL1   H17 4095   0.006   0.369   3.079  0.2029 -0.8323  0.4484
   56CHL1   C13 4096  -0.119   0.404   2.906  0.8069  0.1411 -0.6078
   56CHL1   C18 4097  -0.271   0.433   2.888 -0.1860  0.2901  0.0636
   56CHL1  H18A 4098  -0.336   0.350   2.926  0.0991 -0.1745 -0.4477
   56CHL1  H18B 4099  -0.285   0.525   2.949 -0.9985 -0.0875  0.4599
   56CHL1  H18C 4100  -0.300   0.458   2.784  0.2421 -0.9110 -0.3665
   56CHL1   C12 4101  -0.033   0.518   2.842 -0.1352  0.0902 -0.6960
   56CHL1  H12A 4102  -0.061   0.621   2.875  1.6009  0.5827 -0.6121
   56CHL1  H12B 4103   0.071   0.501   2.878 -0.5193  0.8422  0.8922
   56CHL1   C11 4104  -0.036   0.511   2.689  0.3328  0.2358 -0.1821
   56CHL1  H11A 4105  -0.142   0.537   2.665  0.0325 -0.9159 -0.1708
   56CHL1  H11B 4106   0.027   0.596   2.654  1.7205 -0.4955  0.4768
   56CHL1    C9 4107   0.000   0.372   2.631 -0.0436  0.0882  0.9614
   56CHL1    H9 4108   0.107   0.354   2.655 -0.0638 -2.1978 -0.3544
   56CHL1   C10 4109  -0.018   0.373   2.475 -0.3812  0.3425  0.2454
   56CHL1   C19 4110  -0.154   0.423   2.422  0.0898 -0.5231 -0.1005
   56CHL1  H19A 4111  -0.156   0.401   2.313  0.1407 -0.9311 -0.0203
   56CHL1  H19B 4112  -0.240   0.370   2.468  1.5841 -2.1674  0.8915
   56CHL1  H19C 4113  -0.161   0.532   2.442 -0.6434 -0.7822  1.1446
   56CHL1    C1 4114   0.081   0.478   2.418 -1.0461  0.2667  0.2486
   56CHL1   H1A 4115   0.056   0.585   2.437 -2.4248 -0.2070  1.2642
   56CHL1   H1B 4116   0.182   0.461   2.459 -1.1049 -0.5101  0.0917
   56CHL1    C2 4117   0.123   0.457   2.270 -0.2899  0.1749 -0.7230
   56CHL1   H2A 4118   0.203   0.532   2.252 -0.6710  0.5954 -0.6489
   56CHL1   H2B 4119   0.036   0.485   2.207 -1.0379  2.6426  1.2580
   56CHL1   C20 4120  -0.167   0.447   3.175 -0.0110 -0.4994  0.6426
   56CHL1   H20 4121  -0.277   0.454   3.172 -0.0969 -1.7920 -0.0718
   56CHL1   C21 4122  -0.105   0.587   3.166  0.2617  0.3430 -0.2926
   56CHL1  H21A 4123  -0.149   0.649   3.246  2.3824  0.4774  0.8135
   56CHL1  H21B 4124  -0.131   0.643   3.073 -3.7096  2.1089  1.6487
   56CHL1  H21C 4125   0.005   0.589   3.175  0.2085  2.2465  0.2780
   56CHL1   C22 4126  -0.134   0.388   3.311  0.0610  0.2414  0.3532
   56CHL1  H22A 4127  -0.170   0.285   3.335  1.2322 -0.1273  0.6147
   56CHL1  H22B 4128  -0.024   0.377   3.320  0.1614  0.4294 -0.5558
   56CHL1   C23 4129  -0.173   0.475   3.429  0.0295 -0.3503 -0.4703
   56CHL1  H23A 4130  -0.090   0.539   3.467  3.0387 -4.0981 -0.1989
   56CHL1  H23B 4131  -0.266   0.537   3.425  1.9778  3.1840  2.3394
   56CHL1   C24 4132  -0.208   0.385   3.542  0.3338  0.0712  0.1739
   56CHL1  H24A 4133  -0.299   0.330   3.509 -0.7116  1.4417  0.6692
   56CHL1  H24B 4134  -0.130   0.310   3.570 -0.9980 -1.4422 -0.0002
   56CHL1   C25 4135  -0.256   0.454   3.672 -0.0215 -0.3325  0.7987
   56CHL1   H25 4136  -0.341   0.514   3.633 -1.5532 -2.2903  0.9477
   56CHL1   C26 4137  -0.309   0.359   3.775  0.3237  0.4131  0.4055
   56CHL1  H26A 4138  -0.394   0.295   3.743  0.5498  0.0030  0.6211
   56CHL1  H26B 4139  -0.228   0.305   3.829 -0.7471 -1.0014  0.6609
   56CHL1  H26C 4140  -0.351   0.423   3.856 -1.3145  1.8006 -1.4423
   56CHL1   C27 4141  -0.151   0.544   3.735 -0.5888 -0.0487  0.1443
   56CHL1  H27A 4142  -0.195   0.589   3.827 -0.1187  1.7760 -0.4695
   56CHL1  H27B 4143  -0.061   0.482   3.755 -2.1021 -2.8653 -1.1880
   56CHL1  H27C 4144  -0.126   0.618   3.656  0.5327 -0.5773 -0.0166
   57SAPC     N 4145   4.339   3.478   6.072 -0.2499  0.8800  0.1424
   57SAPC   C12 4146   4.320   3.485   5.922  0.6804  0.1846  0.5263
   57SAPC  H12A 4147   4.349   3.582   5.887  0.4403  0.3811  0.8651
   57SAPC  H12B 4148   4.218   3.461   5.896 -0.6817  0.3629  4.8649
   57SAPC   C13 4149   4.480   3.521   6.109 -0.5031  0.6530  0.0074
   57SAPC  H13A 4150   4.505   3.621   6.076  0.3701  0.4066 -0.1214
   57SAPC  H13B 4151   4.496   3.510   6.216  0.0908 -0.6626 -0.1966
   57SAPC  H13C 4152   4.550   3.458   6.055 -1.5716  0.7281 -1.5234
   57SAPC   C14 4153   4.249   3.567   6.139  0.3367  0.2356 -0.6015
   57SAPC  H14A 4154   4.289   3.667   6.151 -0.8200  0.5140  1.2734
   57SAPC  H14B 4155   4.151   3.573   6.095 -0.1642  0.8143  0.5438
   57SAPC  H14C 4156   4.224   3.533   6.238 -2.3683  3.8967  0.1736
   57SAPC   C15 4157   4.312   3.335   6.127 -0.1465 -0.5417  0.0682
   57SAPC  H15A 4158   4.205   3.326   6.131 -0.6679  2.4528 -2.6229
   57SAPC  H15B 4159   4.358   3.268   6.055  0.6633  1.7359 -1.6794
   57SAPC  H15C 4160   4.345   3.317   6.228 -2.8178 -0.0283  1.1329
   57SAPC   C11 4161   4.412   3.380   5.843  0.5865 -0.1949 -0.2816
   57SAPC  H11A 4162   4.515   3.401   5.880  0.2261 -0.9037  1.1811
   57SAPC  H11B 4163   4.417   3.410   5.736 -1.2705 -0.0128 -0.3429
   57SAPC     P 4164   4.258   3.184   5.790  0.1769  0.3516  0.1497
   57SAPC   O13 4165   4.225   3.056   5.857 -0.3116 -0.2948  0.1531
   57SAPC   O14 4166   4.143   3.276   5.789 -0.2992  0.3519 -0.3976
   57SAPC   O12 4167   4.378   3.244   5.872  0.0962  0.5062  0.1154
   57SAPC   O11 4168   4.308   3.157   5.643 -0.1684  0.0458  0.4549
   57SAPC    C1 4169   4.436   3.105   5.609 -0.1368  0.1603  0.0642
   57SAPC    HA 4170   4.482   3.045   5.691 -0.3649  0.9467  0.7840
   57SAPC    HB 4171   4.436   3.032   5.525  1.7976 -1.9969  1.7838
   57SAPC    C2 4172   4.538   3.215   5.574 -0.0906 -0.2814 -0.1658
   57SAPC    HS 4173   4.559   3.260   5.673  1.5725  0.7185 -0.9246
   57SAPC   O21 4174   4.472   3.315   5.488 -0.0452  0.0695  0.4538
   57SAPC   C21 4175   4.538   3.426   5.487 -0.3997 -0.5923  0.5623
   57SAPC   O22 4176   4.638   3.449   5.553  0.8027 -0.1892  0.0122
   57SAPC   C22 4177   4.464   3.531   5.399 -0.6045 -0.2615  0.1303
   57SAPC   H2R 4178   4.399   3.481   5.324 -0.3372 -1.6563  0.8092
   57SAPC   H2S 4179   4.410   3.602   5.465  0.5242 -1.1406  2.0883
   57SAPC    C3 4180   4.675   3.155   5.516 -0.3185  0.0123 -0.1935
   57SAPC    HX 4181   4.716   3.091   5.597 -0.9843 -0.3782 -0.1638
   57SAPC    HY 4182   4.749   3.239   5.509 -0.0840 -0.2236 -0.6012
   57SAPC   O31 4183   4.658   3.083   5.392  0.0335 -1.2727  0.1642
   57SAPC   C31 4184   4.649   3.166   5.292  0.0527 -0.2623  0.2602
   57SAPC   O32 4185   4.675   3.287   5.289  0.7927  0.5429  0.7301
   57SAPC   C32 4186   4.582   3.091   5.177  0.2818  0.6393 -0.4873
   57SAPC   H2X 4187   4.484   3.049   5.208 -0.0632  1.5916 -0.2736
   57SAPC   H2Y 4188   4.649   3.003   5.165  0.3853  0.4560  1.1702
   57SAPC   C23 4189   4.560   3.604   5.297 -0.3977 -0.2381 -0.8330
   57SAPC   H3R 4190   4.621   3.528   5.245 -0.2052  0.9913 -2.4685
   57SAPC   H3S 4191   4.631   3.667   5.356 -1.8035  0.0379  0.6454
   57SAPC   C24 4192   4.494   3.689   5.189 -0.4552 -0.3989  1.1260
   57SAPC   H4R 4193   4.438   3.760   5.254  3.4067  2.3444  1.8229
   57SAPC   H4S 4194   4.413   3.638   5.133  0.4250  0.6004 -1.1764
   57SAPC   C25 4195   4.578   3.772   5.089  0.1914  0.4313  0.3026
   57SAPC   H5R 4196   4.603   3.876   5.116 -3.1045  1.6678 -0.8912
   57SAPC   C26 4197   4.601   3.736   4.959  0.2491  0.7822 -0.2725
   57SAPC   H6R 4198   4.672   3.798   4.902 -0.6916  0.4838 -1.8171
   57SAPC   C27 4199   4.548   3.616   4.883  0.2543  0.6313 -0.3536
   57SAPC   H7R 4200   4.450   3.633   4.835 -0.3813  3.5028  1.7162
   57SAPC   H7S 4201   4.529   3.540   4.962 -1.6111  1.2857 -0.1306
   57SAPC   C28 4202   4.644   3.545   4.792  0.3445 -0.0508  0.1771
   57SAPC   H8R 4203   4.671   3.443   4.823 -1.5424  0.3213  3.6084
   57SAPC   C29 4204   4.682   3.593   4.670  0.8829 -0.2960  0.6702
   57SAPC   H9R 4205   4.747   3.535   4.601 -1.8035 -0.8247 -1.5797
   57SAPC  C210 4206   4.646   3.722   4.615  0.0683 -0.2051 -0.0409
   57SAPC  H10R 4207   4.686   3.801   4.683 -1.8661  1.0270 -0.2467
   57SAPC  H10S 4208   4.538   3.720   4.591  0.6414 -0.5378 -2.9202
   57SAPC  C211 4209   4.715   3.747   4.488 -0.4038 -0.3961  0.1986
   57SAPC  H11R 4210   4.809   3.694   4.467 -0.8321  0.0036 -3.2828
   57SAPC  C212 4211   4.681   3.820   4.387  0.0169 -0.4816  0.1329
   57SAPC  H12R 4212   4.751   3.828   4.303  2.1915  1.0531  1.9684
   57SAPC  C213 4213   4.554   3.894   4.370  0.0358 -0.0968 -0.0430
   57SAPC  H13R 4214   4.490   3.898   4.462 -1.4108  2.1448 -1.0637
   57SAPC  H13S 4215   4.490   3.842   4.296 -0.6050  2.2442 -1.2513
   57SAPC  C214 4216   4.578   4.037   4.333  0.2814  0.0329  0.6634
   57SAPC  H14R 4217   4.590   4.107   4.417  0.6553 -2.9422  3.2677
   57SAPC  C215 4218   4.578   4.080   4.204  0.2500  0.0864 -0.3911
   57SAPC  H15R 4219   4.603   4.186   4.185 -0.3237 -0.0010 -1.7098
   57SAPC  C216 4220   4.563   4.001   4.076  0.3739  0.1257 -0.7474
   57SAPC  H16R 4221   4.493   4.062   4.016 -0.8071 -0.2424  0.2331
   57SAPC  H16S 4222   4.506   3.906   4.085 -2.7773  1.8929 -0.9668
   57SAPC  C217 4223   4.703   3.978   4.016 -0.3149 -0.7997  0.2642
   57SAPC  H17R 4224   4.760   3.897   4.067  0.9186  0.4594  0.9598
   57SAPC  H17S 4225   4.768   4.068   4.025 -1.3554 -0.0814  0.8766
   57SAPC  C218 4226   4.688   3.947   3.867 -0.2430  0.3889  0.5630
   57SAPC  H18R 4227   4.630   4.027   3.817 -0.6340 -0.6531 -0.7016
   57SAPC  H18S 4228   4.633   3.852   3.848  0.1852  0.2980 -0.2756
   57SAPC  C219 4229   4.827   3.942   3.804  0.2963  0.1347 -0.3589
   57SAPC  H19R 4230   4.866   3.850   3.850  3.1004  0.6380 -1.5062
   57SAPC  H19S 4231   4.895   4.023   3.840  2.5517  0.1174 -3.9993
   57SAPC  C220 4232   4.839   3.931   3.654  0.1440  0.5345  0.2064
   57SAPC  H20R 4233   4.746   3.881   3.620 -0.1595  0.5142  1.0536
   57SAPC  H20S 4234   4.936   3.889   3.621 -1.0938 -4.4717  2.0395
   57SAPC  H20T 4235   4.837   4.035   3.616  3.1507  0.9247  0.9172
   57SAPC   C33 4236   4.562   3.169   5.047  0.8826 -0.4714 -0.1116
   57SAPC   H3X 4237   4.640   3.247   5.034 -0.0622  0.8115  1.5204
   57SAPC   H3Y 4238   4.458   3.209   5.044 -0.3187 -3.1286  1.5782
   57SAPC   C34 4239   4.587   3.084   4.922  0.2283  0.3294  0.3210
   57SAPC   H4X 4240   4.514   3.000   4.922 -0.2573  0.7482  0.5623
   57SAPC   H4Y 4241   4.692   3.048   4.925  0.8851  2.2059  2.4061
   57SAPC   C35 4242   4.566   3.153   4.792 -0.8451  0.3476  0.3032
   57SAPC   H5X 4243   4.610   3.090   4.712 -1.3439  2.0364 -1.3873
   57SAPC   H5Y 4244   4.630   3.243   4.783  1.3522 -0.8085  3.0291
   57SAPC   C36 4245   4.414   3.171   4.762 -0.0128  0.4095 -1.0654
   57SAPC   H6X 4246   4.372   3.228   4.847  1.4103 -1.0031  0.6780
   57SAPC   H6Y 4247   4.355   3.077   4.766 -0.7220  0.8580 -0.8646
   57SAPC   C37 4248   4.395   3.247   4.636  0.6549  0.6466 -0.1446
   57SAPC   H7X 4249   4.441   3.189   4.553  1.6692  0.5314  0.4780
   57SAPC   H7Y 4250   4.464   3.334   4.641  2.3705 -0.6291 -0.5909
   57SAPC   C38 4251   4.249   3.283   4.597 -0.6130 -0.7035  1.1826
   57SAPC   H8X 4252   4.214   3.366   4.662 -1.5591  1.1001 -1.4579
   57SAPC   H8Y 4253   4.175   3.201   4.597 -0.3368 -1.0329 -1.1902
   57SAPC   C39 4254   4.258   3.332   4.453  0.6687  0.2415  0.8500
   57SAPC   H9X 4255   4.157   3.317   4.410  1.8206  0.6620 -2.2263
   57SAPC   H9Y 4256   4.332   3.278   4.390 -0.5433 -0.4634  0.0031
   57SAPC  C310 4257   4.267   3.473   4.455  0.4784 -0.1975 -0.2390
   57SAPC  H10X 4258   4.354   3.518   4.508 -0.0520  1.7144 -0.9297
   57SAPC  H10Y 4259   4.183   3.518   4.512 -0.5064 -1.1778 -0.8820
   57SAPC  C311 4260   4.240   3.532   4.310 -0.5152 -0.4338  0.1089
   57SAPC  H11X 4261   4.140   3.499   4.274  0.2094 -1.4301 -1.0723
   57SAPC  H11Y 4262   4.323   3.504   4.241 -0.7571 -0.7457 -0.0557
   57SAPC  C312 4263   4.241   3.690   4.313  0.3888 -0.1863  0.9787
   57SAPC  H12X 4264   4.343   3.720   4.347  0.3589 -1.0142  1.8300
   57SAPC  H12Y 4265   4.156   3.719   4.379 -0.9083  3.0468 -1.8035
   57SAPC  C313 4266   4.201   3.749   4.184 -0.4099  0.0195 -0.0909
   57SAPC  H13X 4267   4.106   3.701   4.153 -0.6100  0.6977 -0.5506
   57SAPC  H13Y 4268   4.277   3.722   4.108 -1.6385  1.0027 -1.7281
   57SAPC  C314 4269   4.175   3.909   4.188 -0.1301  0.0309 -0.5190
   57SAPC  H14X 4270   4.272   3.959   4.210  0.3388 -1.6716  1.6705
   57SAPC  H14Y 4271   4.101   3.931   4.269 -0.6977  1.1289 -1.3059
   57SAPC  C315 4272   4.120   3.960   4.050  0.8437  0.0363 -0.2547
   57SAPC  H15X 4273   4.093   4.068   4.052 -2.4462 -0.6598 -1.2371
   57SAPC  H15Y 4274   4.023   3.912   4.025 -0.4251  2.8846 -1.2333
   57SAPC  C316 4275   4.211   3.937   3.925 -0.2726 -0.1593 -0.3286
   57SAPC  H16X 4276   4.219   3.827   3.908 -0.6587 -0.0861 -1.0303
   57SAPC  H16Y 4277   4.314   3.975   3.943 -0.1616  0.1888 -1.6266
   57SAPC  C317 4278   4.149   3.993   3.796 -0.0814  0.3663  0.2136
   57SAPC  H17X 4279   4.171   4.102   3.794  0.5379  0.2379 -1.6488
   57SAPC  H17Y 4280   4.041   3.969   3.808  0.2641 -0.2015  2.9594
   57SAPC  C318 4281   4.219   3.939   3.672  0.3752 -0.6841 -0.4933
   57SAPC  H18X 4282   4.210   3.829   3.665 -0.1862 -0.6081 -1.0406
   57SAPC  H18Y 4283   4.326   3.969   3.668  0.2499 -0.3247 -2.8328
   57SAPC  H18Z 4284   4.174   3.990   3.584  2.5194  0.0375 -1.2315
   58SAPC     N 4285   3.342   2.184   5.856 -0.8856 -0.0029 -0.3277
   58SAPC   C12 4286   3.381   2.035   5.895 -0.4494 -0.3121  0.2957
   58SAPC  H12A 4287   3.488   2.030   5.882 -0.4579 -0.4575  0.2794
   58SAPC  H12B 4288   3.342   1.963   5.825 -0.7209  0.4279 -0.3304
   58SAPC   C13 4289   3.428   2.281   5.935 -0.1318 -0.2325  0.2450
   58SAPC  H13A 4290   3.425   2.257   6.041  0.3270 -2.0885 -0.1272
   58SAPC  H13B 4291   3.530   2.252   5.916 -0.1432  0.7153 -1.4450
   58SAPC  H13C 4292   3.404   2.386   5.926 -1.2848 -0.6713 -2.8411
   58SAPC   C14 4293   3.360   2.213   5.712 -0.3712 -0.1711 -0.4382
   58SAPC  H14A 4294   3.466   2.224   5.694 -0.1064 -0.6730  0.7514
   58SAPC  H14B 4295   3.318   2.132   5.654 -1.5407  0.3284 -0.3101
   58SAPC  H14C 4296   3.318   2.308   5.683  2.6311  1.2150 -0.6113
   58SAPC   C15 4297   3.200   2.201   5.884 -0.4537 -0.0835  0.1692
   58SAPC  H15A 4298   3.179   2.305   5.868 -1.0969 -0.5569 -2.6353
   58SAPC  H15B 4299   3.136   2.145   5.817  0.1089  0.9239 -1.2315
   58SAPC  H15C 4300   3.175   2.180   5.987 -0.3103  0.4633  0.3144
   58SAPC   C11 4301   3.341   1.977   6.031 -0.5139  1.4930  0.0495
   58SAPC  H11A 4302   3.380   2.034   6.117  0.7773  0.3610  0.2539
   58SAPC  H11B 4303   3.394   1.880   6.044  1.0445  2.1775 -0.8493
   58SAPC     P 4304   3.120   1.841   5.976 -0.2599  0.1109  0.0258
   58SAPC   O13 4305   3.117   1.716   6.058 -0.2914  0.3037  0.4165
   58SAPC   O14 4306   2.985   1.880   5.927 -0.1144  0.6172 -0.5056
   58SAPC   O12 4307   3.199   1.956   6.046 -0.4720 -0.3869  0.6534
   58SAPC   O11 4308   3.206   1.811   5.844  0.0171  0.1035 -0.8526
   58SAPC    C1 4309   3.142   1.810   5.714  0.1328  0.3125  0.1028
   58SAPC    HA 4310   3.040   1.766   5.719 -0.0621  0.5551 -1.1692
   58SAPC    HB 4311   3.126   1.908   5.663 -4.0749 -0.2279  0.0064
   58SAPC    C2 4312   3.198   1.708   5.604 -0.4022 -0.6718 -0.5509
   58SAPC    HS 4313   3.191   1.612   5.660  0.7927 -0.0852  0.6815
   58SAPC   O21 4314   3.337   1.724   5.564  0.0678 -0.3155 -0.3947
   58SAPC   C21 4315   3.432   1.693   5.653  0.8219 -0.4822  0.2296
   58SAPC   O22 4316   3.415   1.648   5.764  0.4237 -0.2297 -0.0693
   58SAPC   C22 4317   3.565   1.726   5.596  0.5627 -0.0987  0.0831
   58SAPC   H2R 4318   3.570   1.833   5.566 -1.1532 -0.4702 -1.7273
   58SAPC   H2S 4319   3.641   1.694   5.671 -1.0009 -1.0221  1.3214
   58SAPC    C3 4320   3.124   1.708   5.469 -0.3095 -0.6142 -0.0787
   58SAPC    HX 4321   3.018   1.685   5.491  0.1506 -2.1871  0.6385
   58SAPC    HY 4322   3.169   1.624   5.412  1.7805 -1.1806  2.2172
   58SAPC   O31 4323   3.138   1.837   5.401  0.3609  0.3393  0.5647
   58SAPC   C31 4324   3.210   1.837   5.288  0.5335  0.0065 -0.0540
   58SAPC   O32 4325   3.232   1.740   5.216 -0.1707  0.3285 -0.6279
   58SAPC   C32 4326   3.241   1.982   5.255 -0.3048 -0.2412 -0.2387
   58SAPC   H2X 4327   3.267   2.035   5.349  0.8886  0.7224 -1.0859
   58SAPC   H2Y 4328   3.148   2.032   5.220 -1.2667 -1.2034  0.8355
   58SAPC   C23 4329   3.579   1.638   5.468 -0.4682  0.4514 -0.2005
   58SAPC   H3R 4330   3.666   1.676   5.411 -0.6849  1.3332  0.0314
   58SAPC   H3S 4331   3.490   1.636   5.400 -0.9641  0.5937  0.4304
   58SAPC   C24 4332   3.599   1.490   5.502 -0.1603 -0.2409  0.2004
   58SAPC   H4R 4333   3.500   1.457   5.540  0.0103 -1.9778 -0.7578
   58SAPC   H4S 4334   3.670   1.474   5.585  0.6137  0.3308 -0.3301
   58SAPC   C25 4335   3.644   1.401   5.388 -0.0268 -0.1778  0.4862
   58SAPC   H5R 4336   3.752   1.409   5.372  0.1811  0.3448  2.0028
   58SAPC   C26 4337   3.573   1.318   5.311  0.0264 -0.0882  0.8902
   58SAPC   H6R 4338   3.630   1.289   5.222  0.2257 -2.6716  1.7587
   58SAPC   C27 4339   3.425   1.297   5.312 -0.0237  0.0900 -0.3493
   58SAPC   H7R 4340   3.378   1.315   5.412 -0.5821  2.7261 -1.0117
   58SAPC   H7S 4341   3.400   1.192   5.286  0.1509 -0.2708  0.8537
   58SAPC   C28 4342   3.378   1.412   5.226  0.3577 -0.2382 -0.2115
   58SAPC   H8R 4343   3.370   1.512   5.271 -1.3076 -1.2981  2.0499
   58SAPC   C29 4344   3.323   1.388   5.105  0.1238 -1.1307 -0.6221
   58SAPC   H9R 4345   3.298   1.472   5.039 -3.1540 -2.3782 -1.1802
   58SAPC  C210 4346   3.308   1.249   5.040 -0.1526  0.7389 -0.0784
   58SAPC  H10R 4347   3.257   1.183   5.113 -0.1825  0.3034 -0.4838
   58SAPC  H10S 4348   3.410   1.209   5.023 -0.9863 -1.1221 -1.0447
   58SAPC  C211 4349   3.218   1.271   4.925  0.1634  0.1014  0.7416
   58SAPC  H11R 4350   3.110   1.271   4.947 -0.3289 -0.5635 -1.3904
   58SAPC  C212 4351   3.248   1.312   4.804 -0.8653  0.2826 -0.0907
   58SAPC  H12R 4352   3.167   1.332   4.733 -1.5972 -3.8127 -0.6549
   58SAPC  C213 4353   3.387   1.344   4.753  0.5356 -0.1027  0.1623
   58SAPC  H13R 4354   3.413   1.276   4.670  1.1241  0.4080 -0.0842
   58SAPC  H13S 4355   3.471   1.335   4.826  0.6239 -0.9482 -0.0348
   58SAPC  C214 4356   3.383   1.490   4.710 -0.1891  0.0130 -0.5074
   58SAPC  H14R 4357   3.391   1.559   4.795 -1.8268 -1.2168  0.7067
   58SAPC  C215 4358   3.368   1.542   4.592  0.5891  0.0763  0.5274
   58SAPC  H15R 4359   3.374   1.652   4.583  0.1525  0.2292  1.8691
   58SAPC  C216 4360   3.349   1.474   4.461  0.0754 -0.5133  0.6092
   58SAPC  H16R 4361   3.273   1.535   4.406 -0.1982  0.1400  1.6956
   58SAPC  H16S 4362   3.306   1.374   4.483  0.3682 -0.2528  2.5528
   58SAPC  C217 4363   3.474   1.452   4.377 -0.4385 -1.4305  0.2850
   58SAPC  H17R 4364   3.563   1.446   4.443  2.6413 -1.5029 -3.4883
   58SAPC  H17S 4365   3.491   1.538   4.309 -2.3427 -0.1757  1.3017
   58SAPC  C218 4366   3.478   1.331   4.289  0.4875  0.1820  0.4674
   58SAPC  H18R 4367   3.445   1.250   4.358 -1.3813 -0.5392 -1.1764
   58SAPC  H18S 4368   3.582   1.311   4.254 -0.1225 -0.9665 -0.7514
   58SAPC  C219 4369   3.394   1.353   4.159 -0.4165 -0.0023 -0.0603
   58SAPC  H19R 4370   3.441   1.422   4.086  2.4308 -0.5334  1.1390
   58SAPC  H19S 4371   3.302   1.399   4.200 -0.2865  0.0889  0.1289
   58SAPC  C220 4372   3.359   1.216   4.093  0.1602 -0.1566  0.9748
   58SAPC  H20R 4373   3.328   1.154   4.180 -0.8098  0.8645  1.3939
   58SAPC  H20S 4374   3.449   1.167   4.049  0.9065  1.4531  0.6435
   58SAPC  H20T 4375   3.271   1.235   4.027 -0.4644 -0.6754  1.6381
   58SAPC   C33 4376   3.356   2.002   5.159  0.7062 -0.3384  0.7005
   58SAPC   H3X 4377   3.453   1.959   5.191  0.9581  1.4713  2.5946
   58SAPC   H3Y 4378   3.375   2.111   5.149  1.1104 -0.3993  0.7997
   58SAPC   C34 4379   3.326   1.952   5.006 -0.0761  0.7801 -0.0451
   58SAPC   H4X 4380   3.215   1.957   5.006 -0.1701 -0.4313  1.2839
   58SAPC   H4Y 4381   3.354   1.845   4.990  1.8803  1.4596 -1.5772
   58SAPC   C35 4382   3.392   2.039   4.905 -0.6243  0.0984 -0.9314
   58SAPC   H5X 4383   3.499   2.057   4.928 -0.8133  0.4540 -0.2879
   58SAPC   H5Y 4384   3.348   2.138   4.928  0.0888  0.2842 -0.2961
   58SAPC   C36 4385   3.356   2.001   4.754 -0.1670 -0.5905  0.2273
   58SAPC   H6X 4386   3.247   1.994   4.736 -0.7659  0.7124  2.8076
   58SAPC   H6Y 4387   3.401   1.901   4.739  0.9560 -0.9946  4.8603
   58SAPC   C37 4388   3.408   2.105   4.653 -0.5284 -0.5171 -0.4078
   58SAPC   H7X 4389   3.485   2.165   4.706 -2.2173  0.0587  1.5117
   58SAPC   H7Y 4390   3.331   2.181   4.629  0.1935  0.3530  0.0060
   58SAPC   C38 4391   3.455   2.046   4.524  0.0205  0.2419 -0.9143
   58SAPC   H8X 4392   3.525   1.963   4.546  0.9465  1.6647  2.0158
   58SAPC   H8Y 4393   3.518   2.121   4.472  2.2738 -1.9052 -1.4387
   58SAPC   C39 4394   3.337   2.010   4.431 -0.4575 -0.2800 -0.4713
   58SAPC   H9X 4395   3.255   2.084   4.426  1.4984  2.0144 -0.6061
   58SAPC   H9Y 4396   3.299   1.915   4.474  0.0985 -0.3628 -0.1421
   58SAPC  C310 4397   3.381   1.989   4.284 -0.2428  0.4857  0.1872
   58SAPC  H10X 4398   3.451   2.068   4.247 -0.9813  0.8740 -0.4234
   58SAPC  H10Y 4399   3.293   1.972   4.218  1.3775 -0.4624 -1.8364
   58SAPC  C311 4400   3.457   1.853   4.282 -0.8417  0.0733  0.3659
   58SAPC  H11X 4401   3.402   1.767   4.326 -3.3307  1.5183  0.2906
   58SAPC  H11Y 4402   3.549   1.869   4.342 -0.2128 -0.6583 -0.3816
   58SAPC  C312 4403   3.505   1.826   4.137 -0.1912  0.1148  0.5111
   58SAPC  H12X 4404   3.583   1.747   4.124 -0.7699 -0.1442 -1.7918
   58SAPC  H12Y 4405   3.548   1.922   4.102  2.4822 -1.3561 -0.5458
   58SAPC  C313 4406   3.392   1.800   4.035  0.5284  0.4327 -0.2085
   58SAPC  H13X 4407   3.339   1.892   4.002 -0.7662  0.0641  0.7509
   58SAPC  H13Y 4408   3.316   1.734   4.082  0.1060  1.1499  0.1286
   58SAPC  C314 4409   3.436   1.708   3.917 -0.4223 -0.1473 -0.1134
   58SAPC  H14X 4410   3.501   1.629   3.959 -0.1760  0.9152  1.5996
   58SAPC  H14Y 4411   3.502   1.765   3.847  1.1812 -1.8224 -0.0309
   58SAPC  C315 4412   3.318   1.630   3.853 -0.3502  0.6281  0.2066
   58SAPC  H15X 4413   3.257   1.710   3.805 -1.4135  2.3402  4.0154
   58SAPC  H15Y 4414   3.251   1.586   3.929  0.8863 -1.0621  0.3752
   58SAPC  C316 4415   3.370   1.520   3.755  1.3121 -0.1594 -0.4781
   58SAPC  H16X 4416   3.274   1.483   3.714  2.1217 -3.1690  0.1401
   58SAPC  H16Y 4417   3.414   1.427   3.796  1.9195  0.5757  0.5826
   58SAPC  C317 4418   3.465   1.570   3.642 -0.2162  0.6986  0.1949
   58SAPC  H17X 4419   3.562   1.596   3.690  0.5893  0.3420 -1.1803
   58SAPC  H17Y 4420   3.419   1.657   3.590  0.0748  0.2078 -0.9186
   58SAPC  C318 4421   3.494   1.452   3.547 -0.1891  0.2020  1.0176
   58SAPC  H18X 4422   3.401   1.399   3.516  2.1045 -3.2719 -0.5561
   58SAPC  H18Y 4423   3.550   1.380   3.609  1.0970  0.6687  0.4310
   58SAPC  H18Z 4424   3.557   1.487   3.462 -0.0285 -0.7450  0.7315
   59SAPC     N 4425   1.991   4.131   6.007  0.3926 -0.1691  0.1433
   59SAPC   C12 4426   1.988   4.066   5.868 -0.7314 -0.4192  0.6600
   59SAPC  H12A 4427   1.916   3.986   5.872 -1.5739  0.3536  1.2938
   59SAPC  H12B 4428   2.082   4.015   5.850  0.1232  1.6465 -1.1267
   59SAPC   C13 4429   2.096   4.241   6.004 -0.2338  0.0750  0.1399
   59SAPC  H13A 4430   2.075   4.307   5.921 -3.9009 -0.4406  0.4880
   59SAPC  H13B 4431   2.110   4.297   6.096  2.0969 -0.2842  0.0603
   59SAPC  H13C 4432   2.191   4.195   5.983 -0.2681  0.5870 -1.2449
   59SAPC   C14 4433   1.864   4.196   6.041  0.1037  0.2000 -0.0185
   59SAPC  H14A 4434   1.779   4.129   6.041 -0.8085  1.2032  2.8243
   59SAPC  H14B 4435   1.866   4.247   6.136  2.8538 -1.0610  0.7027
   59SAPC  H14C 4436   1.852   4.269   5.963 -1.1152  1.5806  1.4113
   59SAPC   C15 4437   2.029   4.036   6.113 -0.3306 -0.2357 -0.7155
   59SAPC  H15A 4438   2.133   4.011   6.099 -0.1673 -1.0523  1.6413
   59SAPC  H15B 4439   2.000   4.068   6.212 -0.3972  0.6429 -1.0090
   59SAPC  H15C 4440   1.976   3.943   6.098 -1.4667  0.4331 -1.0398
   59SAPC   C11 4441   1.940   4.152   5.753 -0.4298  0.4771 -0.2822
   59SAPC  H11A 4442   1.933   4.088   5.663 -1.2252  1.3760 -0.8822
   59SAPC  H11B 4443   2.008   4.238   5.736  1.0421 -0.8962 -1.5859
   59SAPC     P 4444   1.681   4.106   5.759 -0.1064 -0.1354 -0.6791
   59SAPC   O13 4445   1.700   3.988   5.849 -0.0773  0.2866  0.3384
   59SAPC   O14 4446   1.559   4.184   5.782  0.3834  0.1484  0.2567
   59SAPC   O12 4447   1.805   4.204   5.774  0.7166  0.7769 -0.0829
   59SAPC   O11 4448   1.684   4.057   5.603  0.4728 -0.4052  0.2473
   59SAPC    C1 4449   1.680   4.155   5.494  0.5076  0.0197  0.1081
   59SAPC    HA 4450   1.706   4.257   5.530 -0.0976  0.1741  0.1159
   59SAPC    HB 4451   1.755   4.128   5.416  1.3195 -2.8224  1.7158
   59SAPC    C2 4452   1.540   4.158   5.418  0.1888 -0.4951 -0.7533
   59SAPC    HS 4453   1.467   4.183   5.498  0.2383  0.2651 -0.9346
   59SAPC   O21 4454   1.520   4.030   5.361 -0.0669  0.4707  0.0709
   59SAPC   C21 4455   1.391   3.986   5.338 -0.4587  0.0903 -0.3107
   59SAPC   O22 4456   1.285   4.037   5.370 -0.3071  0.6604  0.2080
   59SAPC   C22 4457   1.400   3.846   5.281 -0.3719  0.9098 -0.0727
   59SAPC   H2R 4458   1.506   3.813   5.274 -0.9145 -1.5834  2.0423
   59SAPC   H2S 4459   1.341   3.777   5.345  0.1453 -0.8346 -1.4164
   59SAPC    C3 4460   1.541   4.278   5.324  0.3959 -0.3125  0.6519
   59SAPC    HX 4461   1.563   4.364   5.392  0.9188  0.0997 -0.0294
   59SAPC    HY 4462   1.440   4.306   5.286 -0.1835 -3.0017  0.0068
   59SAPC   O31 4463   1.638   4.269   5.217 -0.1568  0.0972 -0.0404
   59SAPC   C31 4464   1.598   4.239   5.091  0.2615  0.1009  0.1770
   59SAPC   O32 4465   1.489   4.212   5.055  0.1297 -0.6446 -0.1245
   59SAPC   C32 4466   1.720   4.235   4.990  0.2238 -0.4942 -0.4983
   59SAPC   H2X 4467   1.817   4.233   5.044 -0.0822 -1.9351  0.0285
   59SAPC   H2Y 4468   1.724   4.331   4.934 -0.6925  0.2269  0.6079
   59SAPC   C23 4469   1.327   3.844   5.139  0.3927 -0.6548 -0.7783
   59SAPC   H3R 4470   1.258   3.930   5.148  1.4259  0.0014  1.7872
   59SAPC   H3S 4471   1.277   3.748   5.113  2.5346 -1.6935 -1.2730
   59SAPC   C24 4472   1.419   3.888   5.026  0.4474  0.4186  0.3147
   59SAPC   H4R 4473   1.485   3.970   5.062  2.2798  0.0247 -1.9052
   59SAPC   H4S 4474   1.364   3.925   4.937  0.9460 -1.4468 -0.8361
   59SAPC   C25 4475   1.498   3.766   4.980  0.4339  0.0096 -0.1674
   59SAPC   H5R 4476   1.549   3.707   5.058  1.1167 -0.6641 -1.0926
   59SAPC   C26 4477   1.528   3.733   4.848  0.8456  0.1097 -0.4131
   59SAPC   H6R 4478   1.591   3.643   4.835 -1.1444 -1.5713  0.9908
   59SAPC   C27 4479   1.476   3.812   4.728 -0.1739 -0.1461  0.5366
   59SAPC   H7R 4480   1.503   3.917   4.749  0.1136  0.1634 -1.2264
   59SAPC   H7S 4481   1.367   3.791   4.722 -0.2277  0.5489 -2.0734
   59SAPC   C28 4482   1.555   3.782   4.608 -0.3802  0.2089  1.0724
   59SAPC   H8R 4483   1.630   3.702   4.616  1.9174  2.0011 -0.9079
   59SAPC   C29 4484   1.535   3.841   4.485  0.4873 -0.2853  0.2173
   59SAPC   H9R 4485   1.583   3.798   4.396 -1.8940 -0.1441 -1.2328
   59SAPC  C210 4486   1.432   3.948   4.454 -0.5660  0.2675 -0.1244
   59SAPC  H10R 4487   1.340   3.915   4.505 -0.4175  2.0331  1.3779
   59SAPC  H10S 4488   1.423   3.930   4.344  1.9290 -0.8134 -0.2176
   59SAPC  C211 4489   1.445   4.090   4.496  0.3025 -0.3589 -0.1845
   59SAPC  H11R 4490   1.439   4.109   4.604 -2.0507  1.1766 -0.5043
   59SAPC  C212 4491   1.476   4.199   4.416  1.1620 -0.0899  0.2754
   59SAPC  H12R 4492   1.474   4.300   4.459  2.7731 -0.3982  1.1323
   59SAPC  C213 4493   1.500   4.190   4.263  0.3491  0.4783 -0.8506
   59SAPC  H13R 4494   1.507   4.084   4.231 -0.5173 -0.3824  1.5485
   59SAPC  H13S 4495   1.599   4.236   4.242  1.5933 -2.0088 -0.7418
   59SAPC  C214 4496   1.382   4.256   4.191 -0.4486  0.0049 -0.3557
   59SAPC  H14R 4497   1.288   4.251   4.248  0.4323  2.2093  1.4529
   59SAPC  C215 4498   1.391   4.347   4.085  0.2148  0.7770 -0.5497
   59SAPC  H15R 4499   1.297   4.375   4.034 -0.0897 -0.3277 -0.6387
   59SAPC  C216 4500   1.518   4.395   4.013 -0.2335  0.5853 -0.4760
   59SAPC  H16R 4501   1.604   4.397   4.083  0.4267  0.3531 -1.2608
   59SAPC  H16S 4502   1.509   4.500   3.977  0.0080  0.9418  0.4718
   59SAPC  C217 4503   1.568   4.310   3.893 -0.6556  0.5375 -0.2792
   59SAPC  H17R 4504   1.592   4.209   3.934  0.3733  0.9901  0.2619
   59SAPC  H17S 4505   1.664   4.352   3.859 -1.2933  0.8833 -1.7015
   59SAPC  C218 4506   1.471   4.320   3.776  0.9536  0.3441 -0.4627
   59SAPC  H18R 4507   1.485   4.422   3.733 -0.9194 -0.1394 -2.3850
   59SAPC  H18S 4508   1.370   4.320   3.822  2.9509 -1.9101  4.7334
   59SAPC  C219 4509   1.488   4.202   3.683 -0.3026  0.1881  1.0530
   59SAPC  H19R 4510   1.404   4.193   3.611 -0.8755 -1.2468  1.8563
   59SAPC  H19S 4511   1.483   4.104   3.734  2.3503 -1.3638 -1.3373
   59SAPC  C220 4512   1.618   4.210   3.601 -0.3456  0.5436  0.1775
   59SAPC  H20R 4513   1.601   4.147   3.511 -2.8915  0.7952  0.4042
   59SAPC  H20S 4514   1.707   4.169   3.653 -0.4520 -2.3285 -1.6868
   59SAPC  H20T 4515   1.642   4.312   3.564  0.3862  0.2950 -0.0445
   59SAPC   C33 4516   1.705   4.123   4.885 -0.2381  0.3175  0.5113
   59SAPC   H3X 4517   1.615   4.140   4.823 -0.8673 -2.5389  0.5294
   59SAPC   H3Y 4518   1.693   4.025   4.936 -0.2279  1.3064  2.5056
   59SAPC   C34 4519   1.829   4.107   4.785 -0.0561 -0.0679 -0.4776
   59SAPC   H4X 4520   1.815   4.018   4.720 -0.2132 -0.9148  0.6842
   59SAPC   H4Y 4521   1.917   4.081   4.847 -1.4472 -0.0772  1.6203
   59SAPC   C35 4522   1.859   4.231   4.697 -0.2667 -0.3823 -0.5833
   59SAPC   H5X 4523   1.899   4.308   4.766 -0.7941 -1.2927  0.7888
   59SAPC   H5Y 4524   1.776   4.274   4.638 -0.9038 -0.9935 -0.1582
   59SAPC   C36 4525   1.981   4.215   4.596  0.1885 -0.4878 -0.3114
   59SAPC   H6X 4526   2.072   4.193   4.657  0.8109 -0.3065 -1.1482
   59SAPC   H6Y 4527   1.993   4.314   4.547  0.6356 -0.7620 -0.7676
   59SAPC   C37 4528   1.963   4.115   4.485 -0.2211  0.8603  0.8220
   59SAPC   H7X 4529   1.957   4.012   4.527 -1.0589  1.0334  1.1480
   59SAPC   H7Y 4530   2.058   4.121   4.427 -1.8416  1.2329 -2.0006
   59SAPC   C38 4531   1.841   4.149   4.397 -0.2377  0.4418  1.0799
   59SAPC   H8X 4532   1.839   4.258   4.378 -2.1924  0.2085 -0.3589
   59SAPC   H8Y 4533   1.755   4.097   4.446  0.6583 -2.3155 -0.0406
   59SAPC   C39 4534   1.846   4.076   4.262  0.2418  0.1812  0.3799
   59SAPC   H9X 4535   1.738   4.073   4.236 -0.2386  4.0112  1.3241
   59SAPC   H9Y 4536   1.863   3.967   4.268 -0.9049 -0.1207 -1.1324
   59SAPC  C310 4537   1.945   4.143   4.164 -0.3496 -0.3578 -0.6440
   59SAPC  H10X 4538   2.046   4.099   4.176 -0.5617 -0.6423  0.1278
   59SAPC  H10Y 4539   1.958   4.250   4.190  2.8112 -0.3196 -1.9329
   59SAPC  C311 4540   1.880   4.133   4.025  0.0953 -0.1528 -0.2046
   59SAPC  H11X 4541   1.775   4.168   4.017  0.6784  1.3145 -2.4522
   59SAPC  H11Y 4542   1.886   4.028   3.989  1.8033 -0.1409 -0.0422
   59SAPC  C312 4543   1.969   4.207   3.913  0.1094  0.2580  0.0026
   59SAPC  H12X 4544   1.918   4.180   3.818 -0.2421 -1.3215  0.6135
   59SAPC  H12Y 4545   2.071   4.162   3.910 -0.4223 -0.9863  0.0473
   59SAPC  C313 4546   1.975   4.362   3.935  0.5645  0.4233  0.3635
   59SAPC  H13X 4547   2.050   4.385   4.013 -1.1089 -0.0034  2.1872
   59SAPC  H13Y 4548   1.878   4.397   3.976  1.0130  1.0132  0.9346
   59SAPC  C314 4549   1.999   4.431   3.805 -0.2897 -0.2137  0.4805
   59SAPC  H14X 4550   1.999   4.542   3.808 -1.3580 -0.1394 -1.1266
   59SAPC  H14Y 4551   1.918   4.400   3.736  0.7105 -2.8540  0.3629
   59SAPC  C315 4552   2.137   4.383   3.749  0.7430 -0.3300 -0.2547
   59SAPC  H15X 4553   2.113   4.280   3.713  0.2450 -0.0828 -0.6381
   59SAPC  H15Y 4554   2.209   4.392   3.833  0.4058 -1.9408  0.2368
   59SAPC  C316 4555   2.191   4.478   3.644  0.5556  0.4381  0.4821
   59SAPC  H16X 4556   2.194   4.583   3.677  3.6152  0.6485 -0.1826
   59SAPC  H16Y 4557   2.109   4.481   3.568  0.1990 -0.4244  0.8093
   59SAPC  C317 4558   2.324   4.436   3.583  0.3009  1.3683 -0.3682
   59SAPC  H17X 4559   2.402   4.432   3.661 -0.6829 -1.1113  0.5924
   59SAPC  H17Y 4560   2.347   4.503   3.497  2.5754  1.0486 -0.0762
   59SAPC  C318 4561   2.321   4.296   3.530  0.1787 -0.1734  0.1492
   59SAPC  H18X 4562   2.254   4.293   3.441  2.3286  0.6822 -1.5640
   59SAPC  H18Y 4563   2.274   4.227   3.604 -0.0921 -1.7136 -1.4012
   59SAPC  H18Z 4564   2.423   4.255   3.512  1.0735  1.6190  0.9419
   60SAPC     N 4565   1.206   4.940   5.876  0.8603 -0.4936  0.0843
   60SAPC   C12 4566   1.096   4.875   5.795 -0.4271 -0.3486 -0.1478
   60SAPC  H12A 4567   1.035   4.956   5.757  0.1653 -1.2545 -3.3674
   60SAPC  H12B 4568   1.029   4.817   5.858  1.1990 -1.3862  0.6993
   60SAPC   C13 4569   1.292   5.016   5.782 -0.4450  0.4452  0.2349
   60SAPC  H13A 4570   1.233   5.084   5.724  0.0246 -1.0329 -2.1134
   60SAPC  H13B 4571   1.379   5.063   5.826  0.1194 -0.2282 -0.1366
   60SAPC  H13C 4572   1.320   4.944   5.707 -2.7138 -0.2422 -0.0254
   60SAPC   C14 4573   1.151   5.025   5.983 -0.2809 -0.4963 -0.6688
   60SAPC  H14A 4574   1.106   4.966   6.061  1.1684  0.9048  1.2913
   60SAPC  H14B 4575   1.232   5.080   6.029  0.4240 -2.2771  0.3248
   60SAPC  H14C 4576   1.077   5.095   5.946 -0.4984  0.8562  2.1220
   60SAPC   C15 4577   1.301   4.835   5.926  0.3042 -0.5590  0.4906
   60SAPC  H15A 4578   1.321   4.767   5.845 -1.6384 -1.3318  0.6138
   60SAPC  H15B 4579   1.396   4.873   5.963  0.7181 -0.5326 -0.5580
   60SAPC  H15C 4580   1.259   4.755   5.985 -0.7021 -0.6975 -0.3869
   60SAPC   C11 4581   1.135   4.778   5.680 -0.3504 -0.7037  0.3600
   60SAPC  H11A 4582   1.209   4.823   5.610 -0.4558  1.4678  1.5514
   60SAPC  H11B 4583   1.037   4.753   5.635  0.2400 -2.2528 -0.1419
   60SAPC     P 4584   1.137   4.522   5.775  0.3104 -0.4893 -0.2766
   60SAPC   O13 4585   1.238   4.416   5.800  0.3188 -0.3102  0.4408
   60SAPC   O14 4586   1.043   4.554   5.883 -0.5912  0.6887 -0.2149
   60SAPC   O12 4587   1.204   4.659   5.721  0.3286  0.0203 -0.1886
   60SAPC   O11 4588   1.058   4.481   5.646 -0.0438 -0.7535  0.0835
   60SAPC    C1 4589   1.139   4.441   5.536 -0.3890 -0.3064 -0.2360
   60SAPC    HA 4590   1.199   4.524   5.494 -0.9368 -0.2977 -1.0400
   60SAPC    HB 4591   1.210   4.360   5.564  0.4214  0.9616  1.5498
   60SAPC    C2 4592   1.045   4.381   5.427 -0.7392  0.1750  0.0645
   60SAPC    HS 4593   0.994   4.287   5.457 -1.1713 -0.4490 -2.4404
   60SAPC   O21 4594   1.125   4.352   5.315 -0.5007 -0.0811  0.4929
   60SAPC   C21 4595   1.083   4.262   5.220 -0.0317 -0.5779  0.5686
   60SAPC   O22 4596   0.972   4.212   5.224  0.4905  0.4852 -0.0310
   60SAPC   C22 4597   1.180   4.264   5.106  0.0750  0.1501 -0.4481
   60SAPC   H2R 4598   1.193   4.369   5.073  0.1830  0.1488 -0.4129
   60SAPC   H2S 4599   1.272   4.228   5.158  0.9922  0.3833 -1.8544
   60SAPC    C3 4600   0.918   4.476   5.392  0.1194  0.0968 -0.0171
   60SAPC    HX 4601   0.869   4.478   5.492 -3.4411  0.7941 -1.6208
   60SAPC    HY 4602   0.850   4.417   5.327  0.3082 -2.3793  1.9038
   60SAPC   O31 4603   0.958   4.607   5.348  0.0969  0.0738 -0.7812
   60SAPC   C31 4604   0.988   4.631   5.217 -0.1980  0.1963  0.0924
   60SAPC   O32 4605   0.959   4.551   5.128  0.2475 -0.1181  0.2813
   60SAPC   C32 4606   1.060   4.766   5.186  0.1346  0.7252 -0.1282
   60SAPC   H2X 4607   1.126   4.791   5.272 -0.8767 -0.8344  1.1680
   60SAPC   H2Y 4608   0.985   4.848   5.187  0.5701  1.1225  0.7891
   60SAPC   C23 4609   1.132   4.165   4.996 -0.2950 -0.0762  0.3484
   60SAPC   H3R 4610   1.077   4.076   5.034  0.3320 -0.9301 -0.6804
   60SAPC   H3S 4611   1.230   4.130   4.958  0.5243  2.4913 -0.0767
   60SAPC   C24 4612   1.054   4.236   4.890 -0.2775 -0.1906 -0.1601
   60SAPC   H4R 4613   1.086   4.341   4.871  2.7493 -0.7087  1.4787
   60SAPC   H4S 4614   0.954   4.249   4.936 -0.0178  3.6588 -0.3529
   60SAPC   C25 4615   1.054   4.165   4.753  0.4728 -0.6354  0.1242
   60SAPC   H5R 4616   1.004   4.067   4.761 -2.3889  0.7537  0.6161
   60SAPC   C26 4617   1.097   4.216   4.633 -0.0489  0.2748  0.6099
   60SAPC   H6R 4618   1.091   4.142   4.552 -1.2663  0.0961  0.8458
   60SAPC   C27 4619   1.169   4.342   4.608 -0.2016  0.5254 -0.1222
   60SAPC   H7R 4620   1.278   4.324   4.594 -0.2782 -2.3300  2.0127
   60SAPC   H7S 4621   1.169   4.411   4.696  0.9103  0.3898  0.0014
   60SAPC   C28 4622   1.114   4.409   4.483 -0.1820  0.5976  0.0495
   60SAPC   H8R 4623   1.077   4.341   4.405 -0.2242 -0.3764  0.9008
   60SAPC   C29 4624   1.112   4.541   4.463 -0.3811 -0.2071  0.0117
   60SAPC   H9R 4625   1.079   4.584   4.367 -0.4066 -0.6607 -0.1882
   60SAPC  C210 4626   1.150   4.644   4.563  0.2750  0.0832 -0.9931
   60SAPC  H10R 4627   1.220   4.714   4.514  1.0476 -0.8088 -1.2028
   60SAPC  H10S 4628   1.210   4.598   4.644 -0.2751 -0.4466 -0.8766
   60SAPC  C211 4629   1.042   4.732   4.620 -0.7953  0.2715  1.0186
   60SAPC  H11R 4630   0.992   4.699   4.713 -2.1363  0.3551  0.3533
   60SAPC  C212 4631   0.996   4.852   4.572 -0.5411 -0.3551 -0.0113
   60SAPC  H12R 4632   0.931   4.904   4.644  0.1584 -2.0704  1.9763
   60SAPC  C213 4633   1.057   4.925   4.460 -0.6810  0.2125 -0.4927
   60SAPC  H13R 4634   1.167   4.918   4.475 -1.0627 -2.1720  1.8593
   60SAPC  H13S 4635   1.041   5.032   4.483  2.1492  0.4225  0.9316
   60SAPC  C214 4636   1.002   4.882   4.324  0.6052 -0.2677 -0.0345
   60SAPC  H14R 4637   1.065   4.804   4.279  1.6159  0.5852 -0.1148
   60SAPC  C215 4638   0.887   4.909   4.265  0.0622 -0.3647 -0.1102
   60SAPC  H15R 4639   0.863   4.872   4.164 -0.1675  2.1461 -1.0260
   60SAPC  C216 4640   0.785   5.001   4.321 -0.2696 -0.1959 -0.1859
   60SAPC  H16R 4641   0.828   5.078   4.389 -1.1100  0.8560 -0.8013
   60SAPC  H16S 4642   0.697   4.951   4.368 -0.4752 -0.2640 -0.6321
   60SAPC  C217 4643   0.724   5.081   4.203  0.1473  0.2093  0.2910
   60SAPC  H17R 4644   0.648   5.148   4.249 -0.8551 -2.0764  2.1432
   60SAPC  H17S 4645   0.676   5.010   4.132  1.4429 -1.3088  0.8681
   60SAPC  C218 4646   0.818   5.181   4.119 -0.1737 -0.4344 -0.1571
   60SAPC  H18R 4647   0.901   5.119   4.079 -1.6474 -1.5247 -1.7060
   60SAPC  H18S 4648   0.853   5.269   4.176 -1.8657 -0.9368  1.7621
   60SAPC  C219 4649   0.747   5.249   4.001 -0.5456  0.3766  0.4342
   60SAPC  H19R 4650   0.817   5.329   3.969 -0.2742  0.0582  0.2216
   60SAPC  H19S 4651   0.654   5.303   4.026 -0.0684  1.3757  0.1164
   60SAPC  C220 4652   0.718   5.158   3.882 -0.2338 -0.3613  0.1418
   60SAPC  H20R 4653   0.674   5.210   3.795 -1.5931  2.1118  2.1706
   60SAPC  H20S 4654   0.649   5.074   3.904  0.2616 -0.5125  1.2001
   60SAPC  H20T 4655   0.816   5.113   3.852  0.6502  0.3188  1.8601
   60SAPC   C33 4656   1.135   4.749   5.053  0.5837 -0.5780  0.3655
   60SAPC   H3X 4657   1.141   4.851   5.009  1.8688  0.6487  3.1662
   60SAPC   H3Y 4658   1.084   4.684   4.978  1.6616 -0.6715 -0.3165
   60SAPC   C34 4659   1.281   4.687   5.079  0.7255  0.1295  1.2015
   60SAPC   H4X 4660   1.276   4.583   5.117  0.0483  0.1136  1.0798
   60SAPC   H4Y 4661   1.334   4.754   5.151  0.8495  0.8546  0.4455
   60SAPC   C35 4662   1.365   4.676   4.941 -0.2266 -0.0577 -0.1666
   60SAPC   H5X 4663   1.423   4.772   4.942 -1.3935  0.6603  0.4920
   60SAPC   H5Y 4664   1.290   4.674   4.860  0.7279 -0.5966 -1.0659
   60SAPC   C36 4665   1.463   4.559   4.926 -0.0407  0.4064 -0.9800
   60SAPC   H6X 4666   1.418   4.467   4.968  1.7197  0.1040  0.3372
   60SAPC   H6Y 4667   1.551   4.589   4.986  1.5995 -1.9367 -2.0587
   60SAPC   C37 4668   1.527   4.545   4.789  0.6335 -1.0171 -0.2156
   60SAPC   H7X 4669   1.437   4.547   4.725  0.7929 -0.6643 -0.4287
   60SAPC   H7Y 4670   1.565   4.441   4.772 -2.1880 -2.1628  0.0055
   60SAPC   C38 4671   1.626   4.654   4.752 -0.2779 -0.3372 -0.1679
   60SAPC   H8X 4672   1.703   4.658   4.832 -0.7868  3.0905  0.3023
   60SAPC   H8Y 4673   1.572   4.751   4.757 -0.5062 -0.3440 -1.8709
   60SAPC   C39 4674   1.691   4.642   4.615  0.3017  0.2593 -0.1457
   60SAPC   H9X 4675   1.727   4.537   4.609 -0.8446 -0.1497 -0.0057
   60SAPC   H9Y 4676   1.783   4.704   4.617  0.2565  0.3998 -1.7541
   60SAPC  C310 4677   1.593   4.673   4.504  0.8291 -0.1469 -0.5689
   60SAPC  H10X 4678   1.512   4.598   4.518  0.4719  0.4294  0.6196
   60SAPC  H10Y 4679   1.642   4.654   4.406 -1.1015  0.3645 -1.6966
   60SAPC  C311 4680   1.537   4.818   4.499  0.6081 -0.4133 -0.3234
   60SAPC  H11X 4681   1.624   4.887   4.506  1.4360 -1.5919  2.0837
   60SAPC  H11Y 4682   1.469   4.843   4.582 -1.9888  0.6497 -2.6166
   60SAPC  C312 4683   1.459   4.835   4.370 -0.1243  0.5685 -0.1744
   60SAPC  H12X 4684   1.396   4.926   4.376  0.6628  1.1508 -0.5810
   60SAPC  H12Y 4685   1.394   4.748   4.348  2.0469 -1.2952  0.3649
   60SAPC  C313 4686   1.541   4.866   4.243 -0.3905 -0.1011 -0.1866
   60SAPC  H13X 4687   1.605   4.784   4.204  1.5414  1.6703 -0.9082
   60SAPC  H13Y 4688   1.596   4.959   4.269  0.2201 -0.5779  0.2327
   60SAPC  C314 4689   1.457   4.901   4.123  0.5748  0.2746  0.1774
   60SAPC  H14X 4690   1.523   4.941   4.042 -0.1483  0.4345 -0.3418
   60SAPC  H14Y 4691   1.382   4.979   4.147 -0.4599 -0.6263 -0.0816
   60SAPC  C315 4692   1.367   4.777   4.067  0.3727 -0.5031 -0.0393
   60SAPC  H15X 4693   1.304   4.731   4.147  2.5335 -2.4195  0.6435
   60SAPC  H15Y 4694   1.442   4.707   4.027 -0.2132 -2.0934  1.5038
   60SAPC  C316 4695   1.288   4.816   3.937 -0.0022 -0.4209  0.2778
   60SAPC  H16X 4696   1.357   4.862   3.863 -1.4425  2.9730  0.8350
   60SAPC  H16Y 4697   1.217   4.896   3.968  2.8229  1.9341  1.1284
   60SAPC  C317 4698   1.212   4.701   3.862 -0.1844  0.3509 -0.2102
   60SAPC  H17X 4699   1.288   4.623   3.842 -1.8381 -1.7720  1.3267
   60SAPC  H17Y 4700   1.161   4.736   3.770  1.3905  1.1684 -0.8158
   60SAPC  C318 4701   1.103   4.631   3.948  0.1051  0.0505  0.2576
   60SAPC  H18X 4702   1.018   4.703   3.957  0.2725  0.4560 -1.1447
   60SAPC  H18Y 4703   1.145   4.603   4.047  0.8666  0.5104  0.0702
   60SAPC  H18Z 4704   1.061   4.537   3.906 -0.2458  0.1011  0.4884
   61SAPC     N 4705   6.241   4.492   5.917 -0.2351  0.2206 -0.2481
   61SAPC   C12 4706   6.163   4.625   5.906  0.6015  0.5326 -0.4947
   61SAPC  H12A 4707   6.079   4.609   5.839  1.1364  0.4802 -1.1682
   61SAPC  H12B 4708   6.215   4.696   5.843  0.3581 -0.6280 -2.0874
   61SAPC   C13 4709   6.298   4.443   5.786  0.1564 -0.3871  1.2742
   61SAPC  H13A 4710   6.341   4.344   5.786  0.1310 -0.4236 -0.0201
   61SAPC  H13B 4711   6.219   4.439   5.713  0.4649  2.4955  0.6465
   61SAPC  H13C 4712   6.365   4.516   5.744 -0.4218 -0.3178  0.4470
   61SAPC   C14 4713   6.355   4.501   6.018 -0.2564 -0.3265  0.3270
   61SAPC  H14A 4714   6.422   4.585   6.008 -0.7978 -0.0973 -1.9292
   61SAPC  H14B 4715   6.303   4.498   6.112 -1.7940 -3.5332 -0.4819
   61SAPC  H14C 4716   6.405   4.405   6.012 -2.5194 -1.6723  1.5447
   61SAPC   C15 4717   6.147   4.389   5.963  0.2742  0.0036  0.0449
   61SAPC  H15A 4718   6.094   4.419   6.052 -1.4536 -0.3867 -0.8184
   61SAPC  H15B 4719   6.068   4.380   5.891 -1.7760  0.0067  2.1708
   61SAPC  H15C 4720   6.193   4.291   5.968  0.9711  0.3589  0.8415
   61SAPC   C11 4721   6.107   4.695   6.035  0.0910 -0.0430  0.4241
   61SAPC  H11A 4722   6.024   4.641   6.085  0.5690 -1.3926 -0.2117
   61SAPC  H11B 4723   6.061   4.787   5.993  0.6295  0.4234  0.8399
   61SAPC     P 4724   6.295   4.853   6.120 -0.1516 -0.2768  0.0757
   61SAPC   O13 4725   6.235   4.954   6.031  0.5518  0.3929  0.1245
   61SAPC   O14 4726   6.333   4.901   6.254  0.3559  0.2014  0.2353
   61SAPC   O12 4727   6.204   4.727   6.132  0.3641 -0.0933 -0.2887
   61SAPC   O11 4728   6.418   4.788   6.047  0.7851  0.2731  0.6389
   61SAPC    C1 4729   6.450   4.824   5.906 -0.5971  0.0706 -0.6964
   61SAPC    HA 4730   6.381   4.763   5.842  1.1161 -3.4099  0.4935
   61SAPC    HB 4731   6.425   4.929   5.882  0.6464 -0.1170 -3.1111
   61SAPC    C2 4732   6.602   4.813   5.877  0.2772  0.5357  0.4481
   61SAPC    HS 4733   6.673   4.798   5.962  0.4298 -0.8569  0.0939
   61SAPC   O21 4734   6.652   4.924   5.809  0.5472 -0.2959 -0.3711
   61SAPC   C21 4735   6.681   5.027   5.890  0.6513 -0.4379  0.2792
   61SAPC   O22 4736   6.675   5.025   6.013 -0.6594 -0.5735  0.0432
   61SAPC   C22 4737   6.731   5.147   5.814 -0.3317 -0.0156 -0.0686
   61SAPC   H2R 4738   6.644   5.217   5.804 -1.6374 -1.4678  0.6944
   61SAPC   H2S 4739   6.808   5.202   5.872  1.9080 -1.9541 -1.0730
   61SAPC    C3 4740   6.638   4.687   5.793 -0.1273  0.2950  0.3202
   61SAPC    HX 4741   6.599   4.603   5.854 -0.0206 -0.7403 -1.0013
   61SAPC    HY 4742   6.748   4.682   5.783 -0.1117  0.0285  0.6266
   61SAPC   O31 4743   6.560   4.686   5.673 -0.6539  0.1614  0.3522
   61SAPC   C31 4744   6.624   4.732   5.573  0.6205  0.3689  0.8591
   61SAPC   O32 4745   6.740   4.771   5.563  0.4802  0.2672  0.0511
   61SAPC   C32 4746   6.522   4.737   5.456  0.2678 -0.2544 -0.3071
   61SAPC   H2X 4747   6.464   4.829   5.475 -0.1934 -0.8878  1.6497
   61SAPC   H2Y 4748   6.448   4.654   5.451  0.7724 -0.6700 -1.0028
   61SAPC   C23 4749   6.786   5.107   5.674 -0.3415 -0.5556 -0.3551
   61SAPC   H3R 4750   6.714   5.044   5.619  1.8435 -2.8719 -0.7315
   61SAPC   H3S 4751   6.871   5.036   5.686 -0.1863 -0.2556  0.3810
   61SAPC   C24 4752   6.853   5.227   5.605  0.0313  0.0127 -1.1362
   61SAPC   H4R 4753   6.924   5.194   5.526  0.1630  3.9667 -2.9296
   61SAPC   H4S 4754   6.925   5.275   5.674 -0.9438 -2.5275  1.8750
   61SAPC   C25 4755   6.763   5.333   5.551  0.2017  0.1118  0.2067
   61SAPC   H5R 4756   6.757   5.422   5.614 -3.1437 -0.4018  0.8351
   61SAPC   C26 4757   6.703   5.335   5.426 -0.0314 -0.0426 -0.3808
   61SAPC   H6R 4758   6.640   5.423   5.406 -0.4870 -0.3619 -0.3541
   61SAPC   C27 4759   6.718   5.231   5.322  0.1071  0.4394 -0.1843
   61SAPC   H7R 4760   6.646   5.150   5.346  2.1797 -1.4569 -0.0423
   61SAPC   H7S 4761   6.818   5.182   5.326 -0.1515 -0.0033  2.5134
   61SAPC   C28 4762   6.699   5.290   5.185 -0.1577 -0.7219 -0.0063
   61SAPC   H8R 4763   6.698   5.400   5.184 -0.1949 -0.7286 -0.6700
   61SAPC   C29 4764   6.712   5.223   5.059 -0.0161  0.2381 -0.3783
   61SAPC   H9R 4765   6.698   5.274   4.963  0.8850 -1.0208 -1.1970
   61SAPC  C210 4766   6.752   5.075   5.051  0.4924 -0.1986 -0.6374
   61SAPC  H10R 4767   6.667   5.015   5.012 -0.2216  0.2112  0.2703
   61SAPC  H10S 4768   6.771   5.038   5.154  0.6159  0.4617 -0.4217
   61SAPC  C211 4769   6.886   5.044   4.989 -0.1579  0.4856  0.4962
   61SAPC  H11R 4770   6.950   5.133   4.978 -1.3477  1.2894 -0.0980
   61SAPC  C212 4771   6.932   4.920   4.963 -0.6051 -0.2516 -0.2582
   61SAPC  H12R 4772   7.031   4.909   4.916 -0.2115  2.0460 -0.0778
   61SAPC  C213 4773   6.869   4.786   4.989 -0.0247  0.4095 -0.5145
   61SAPC  H13R 4774   6.805   4.763   5.076  1.6261 -2.4502  0.0613
   61SAPC  H13S 4775   6.948   4.711   5.010 -0.9923 -0.8863 -1.2885
   61SAPC  C214 4776   6.772   4.753   4.873 -0.8591  0.3827  0.0435
   61SAPC  H14R 4777   6.677   4.806   4.889  0.5155  2.3669  2.3748
   61SAPC  C215 4778   6.810   4.686   4.763  0.0892 -0.0662 -0.1070
   61SAPC  H15R 4779   6.734   4.670   4.685  0.2017  0.4616 -0.3292
   61SAPC  C216 4780   6.940   4.619   4.731 -1.2320 -0.0536 -0.0816
   61SAPC  H16R 4781   6.926   4.527   4.670 -0.9556  1.1732 -2.1128
   61SAPC  H16S 4782   6.988   4.599   4.828  0.5324  0.1147 -0.8924
   61SAPC  C217 4783   7.040   4.708   4.657 -0.3822 -0.0526 -0.6718
   61SAPC  H17R 4784   7.058   4.801   4.716 -0.1402 -0.3081 -0.3359
   61SAPC  H17S 4785   7.009   4.737   4.554  1.0985 -0.1475 -1.1686
   61SAPC  C218 4786   7.191   4.654   4.654 -0.6606 -0.7769 -0.3327
   61SAPC  H18R 4787   7.213   4.610   4.754 -1.6883  0.1029  0.2983
   61SAPC  H18S 4788   7.264   4.736   4.639 -0.2945 -1.1366 -0.5533
   61SAPC  C219 4789   7.221   4.556   4.547  0.4536 -0.5123  0.4056
   61SAPC  H19R 4790   7.164   4.579   4.454  1.1985 -1.6351 -0.3652
   61SAPC  H19S 4791   7.179   4.460   4.584 -0.7159  0.3635  1.4106
   61SAPC  C220 4792   7.370   4.537   4.523  0.2230 -0.6915  0.8617
   61SAPC  H20R 4793   7.416   4.626   4.475 -0.3733 -0.8177  0.0348
   61SAPC  H20S 4794   7.390   4.447   4.462 -0.6862  0.1028 -0.6672
   61SAPC  H20T 4795   7.431   4.526   4.615 -0.2674 -0.9101  1.1710
   61SAPC   C33 4796   6.587   4.735   5.324 -0.5957  0.2470 -0.1607
   61SAPC   H3X 4797   6.648   4.643   5.314 -2.3451 -0.8135 -1.6378
   61SAPC   H3Y 4798   6.659   4.818   5.311 -2.7339  1.8784 -2.7496
   61SAPC   C34 4799   6.503   4.711   5.197 -0.5815  0.3455 -0.0485
   61SAPC   H4X 4800   6.437   4.622   5.209  2.1618 -1.7574  0.2568
   61SAPC   H4Y 4801   6.564   4.702   5.105  1.8056  1.7270  1.3222
   61SAPC   C35 4802   6.412   4.835   5.170  0.3240 -0.1492  0.0522
   61SAPC   H5X 4803   6.472   4.912   5.223  0.2007  0.2355 -0.3570
   61SAPC   H5Y 4804   6.312   4.829   5.217  0.5172  0.6161  0.5786
   61SAPC   C36 4805   6.392   4.863   5.019  0.1172 -0.0629  0.0534
   61SAPC   H6X 4806   6.300   4.809   4.992  1.1868 -1.6531 -0.5459
   61SAPC   H6Y 4807   6.473   4.826   4.952 -1.2580 -0.6554 -1.3376
   61SAPC   C37 4808   6.376   5.012   4.985  0.1809 -0.2624  0.1674
   61SAPC   H7X 4809   6.464   5.075   5.010 -0.0273  0.3814 -0.6526
   61SAPC   H7Y 4810   6.294   5.052   5.049  0.2234  0.7544 -0.3865
   61SAPC   C38 4811   6.337   5.030   4.834 -0.3765 -0.1273 -0.4401
   61SAPC   H8X 4812   6.312   5.136   4.810 -0.2708 -0.4404 -2.0381
   61SAPC   H8Y 4813   6.257   4.960   4.802 -0.8257  0.4823 -0.6930
   61SAPC   C39 4814   6.455   5.001   4.738  0.6031  0.7122 -0.3009
   61SAPC   H9X 4815   6.487   4.897   4.758  1.0022  0.5827 -1.5246
   61SAPC   H9Y 4816   6.537   5.069   4.771 -2.1079  3.6761  0.8419
   61SAPC  C310 4817   6.434   5.031   4.590  0.0350  0.0382 -0.4605
   61SAPC  H10X 4818   6.425   5.141   4.597  0.9557  0.0586  0.9697
   61SAPC  H10Y 4819   6.339   4.979   4.565  0.0798  0.5355 -1.7406
   61SAPC  C311 4820   6.555   4.992   4.496  0.1362  0.5362 -0.1007
   61SAPC  H11X 4821   6.631   5.073   4.504 -0.3983  0.9360  1.1876
   61SAPC  H11Y 4822   6.508   4.996   4.395 -0.0067  1.9341  0.0024
   61SAPC  C312 4823   6.611   4.863   4.530 -0.0111 -0.4215 -0.0619
   61SAPC  H12X 4824   6.541   4.778   4.518  2.1361 -2.6865  2.2307
   61SAPC  H12Y 4825   6.643   4.861   4.636 -0.4173  0.3438  0.0778
   61SAPC  C313 4826   6.726   4.836   4.439  0.0981  0.4271 -0.5397
   61SAPC  H13X 4827   6.783   4.748   4.475  1.0656  0.7694 -1.1699
   61SAPC  H13Y 4828   6.800   4.919   4.450 -0.7318  0.8655  2.4393
   61SAPC  C314 4829   6.710   4.818   4.284  0.4536 -0.9340 -0.4373
   61SAPC  H14X 4830   6.658   4.909   4.247  1.2161 -1.4210 -2.8852
   61SAPC  H14Y 4831   6.648   4.726   4.277 -1.2682  0.2946 -2.6613
   61SAPC  C315 4832   6.840   4.799   4.199  0.6143  0.2149  0.1882
   61SAPC  H15X 4833   6.908   4.723   4.242  1.0244 -0.2464 -1.2211
   61SAPC  H15Y 4834   6.892   4.898   4.199 -0.1182  0.6760 -2.4451
   61SAPC  C316 4835   6.804   4.763   4.055  0.1588 -0.4520 -0.0478
   61SAPC  H16X 4836   6.807   4.653   4.035 -0.7015 -0.1983 -1.7594
   61SAPC  H16Y 4837   6.884   4.793   3.985 -0.2118  1.1847  0.2046
   61SAPC  C317 4838   6.680   4.825   3.994  0.4570 -0.3748  0.5176
   61SAPC  H17X 4839   6.695   4.934   4.009 -2.9895  0.0505  1.7183
   61SAPC  H17Y 4840   6.590   4.790   4.049 -0.3502  0.6590 -0.0910
   61SAPC  C318 4841   6.657   4.789   3.847 -0.0761  0.0406  0.0988
   61SAPC  H18X 4842   6.738   4.832   3.784  0.8992  1.9114  2.4685
   61SAPC  H18Y 4843   6.554   4.808   3.810 -0.4765 -3.4469 -0.9761
   61SAPC  H18Z 4844   6.661   4.678   3.847  0.0206  0.0280  1.1161
   62SAPC     N 4845   7.167   2.298   6.002 -0.1583  0.1812 -0.1596
   62SAPC   C12 4846   7.293   2.296   5.910  0.1667 -0.1661  0.0474
   62SAPC  H12A 4847   7.322   2.195   5.886  1.6282  0.3901 -0.6151
   62SAPC  H12B 4848   7.377   2.330   5.970 -0.8855  1.0224  0.8977
   62SAPC   C13 4849   7.130   2.437   6.035  0.5149 -0.1039 -0.4721
   62SAPC  H13A 4850   7.099   2.488   5.945  1.2189 -1.3661 -1.4657
   62SAPC  H13B 4851   7.044   2.438   6.100  0.9950  2.6922  0.2705
   62SAPC  H13C 4852   7.205   2.502   6.079  1.5515  0.2296 -2.5965
   62SAPC   C14 4853   7.048   2.233   5.939  0.3404  0.3368  0.9633
   62SAPC  H14A 4854   6.975   2.219   6.018  0.2100  0.1981  0.8158
   62SAPC  H14B 4855   7.005   2.293   5.860  2.5718 -0.6875 -1.1422
   62SAPC  H14C 4856   7.077   2.139   5.896 -1.4083  0.0987  0.2255
   62SAPC   C15 4857   7.181   2.214   6.123 -0.2561 -0.2945  0.0452
   62SAPC  H15A 4858   7.091   2.201   6.181 -0.2603 -1.1341 -0.1285
   62SAPC  H15B 4859   7.228   2.126   6.080  1.5196  0.5330  0.1872
   62SAPC  H15C 4860   7.252   2.261   6.190 -0.9582  1.7519 -0.5760
   62SAPC   C11 4861   7.288   2.379   5.776 -0.7764  0.8468  0.1265
   62SAPC  H11A 4862   7.203   2.357   5.708 -0.3167  0.9069 -0.4773
   62SAPC  H11B 4863   7.378   2.348   5.717  0.3869  0.5350  2.0033
   62SAPC     P 4864   7.440   2.584   5.849  0.0663  0.6419 -0.0555
   62SAPC   O13 4865   7.403   2.708   5.915  0.1490  0.0334 -0.2594
   62SAPC   O14 4866   7.515   2.489   5.930 -0.4202  0.1168 -0.8448
   62SAPC   O12 4867   7.311   2.520   5.798 -0.1343  0.3425 -0.2888
   62SAPC   O11 4868   7.507   2.602   5.712  0.2879  0.5665 -0.3262
   62SAPC    C1 4869   7.516   2.734   5.655 -0.7136  0.0842 -1.0755
   62SAPC    HA 4870   7.426   2.794   5.680  0.3546  0.4582  2.3190
   62SAPC    HB 4871   7.606   2.778   5.702  0.7322 -2.8942 -0.8002
   62SAPC    C2 4872   7.538   2.742   5.497  0.1250  0.3263  0.4222
   62SAPC    HS 4873   7.529   2.846   5.458 -0.1293  0.1282 -0.0563
   62SAPC   O21 4874   7.450   2.653   5.421 -0.5948 -0.3761  0.4783
   62SAPC   C21 4875   7.325   2.672   5.429  0.4414 -0.2379 -0.6033
   62SAPC   O22 4876   7.266   2.756   5.497  0.5803 -0.0229 -0.0078
   62SAPC   C22 4877   7.251   2.563   5.341  0.1416 -0.0230  0.0629
   62SAPC   H2R 4878   7.321   2.477   5.337  0.5847  0.2980  0.7797
   62SAPC   H2S 4879   7.159   2.534   5.396  0.0626  1.8076  0.9701
   62SAPC    C3 4880   7.687   2.698   5.461 -0.3444 -0.1163  0.3126
   62SAPC    HX 4881   7.704   2.602   5.513 -0.1327  1.2907  3.0347
   62SAPC    HY 4882   7.764   2.763   5.507  2.1609 -3.4880  1.2655
   62SAPC   O31 4883   7.709   2.669   5.325 -0.1947  0.1988  0.3207
   62SAPC   C31 4884   7.714   2.774   5.248  0.2896  0.6218  0.0183
   62SAPC   O32 4885   7.724   2.893   5.286 -0.3198  0.6718 -0.5190
   62SAPC   C32 4886   7.713   2.736   5.102 -0.4517  0.1183  0.7417
   62SAPC   H2X 4887   7.612   2.763   5.065 -0.2133 -0.8983 -0.7877
   62SAPC   H2Y 4888   7.707   2.626   5.087 -0.7542  0.2999 -0.6776
   62SAPC   C23 4889   7.222   2.632   5.199 -0.9196  0.6173 -0.0762
   62SAPC   H3R 4890   7.155   2.717   5.224 -1.6779 -0.1444  0.5902
   62SAPC   H3S 4891   7.167   2.560   5.135  1.6779  1.1035 -3.0890
   62SAPC   C24 4892   7.355   2.671   5.131  0.2191 -0.1972 -0.2887
   62SAPC   H4R 4893   7.424   2.723   5.200  0.7114 -0.7890 -0.3346
   62SAPC   H4S 4894   7.325   2.746   5.054  1.0268  1.9008  1.3270
   62SAPC   C25 4895   7.422   2.558   5.060 -0.1724  0.9306 -0.2051
   62SAPC   H5R 4896   7.466   2.487   5.132 -0.4720  0.8905 -0.0621
   62SAPC   C26 4897   7.435   2.528   4.928  0.3762  0.2545 -0.5057
   62SAPC   H6R 4898   7.501   2.445   4.899 -0.6516 -0.6080 -0.4538
   62SAPC   C27 4899   7.373   2.612   4.817 -0.4840  0.1448 -0.4110
   62SAPC   H7R 4900   7.272   2.638   4.856 -0.1692  0.6596  0.0747
   62SAPC   H7S 4901   7.355   2.544   4.731 -0.6413  1.3217 -1.3216
   62SAPC   C28 4902   7.440   2.736   4.773 -0.0635 -0.0623  0.0568
   62SAPC   H8R 4903   7.512   2.781   4.843  0.0128 -0.6296  0.3523
   62SAPC   C29 4904   7.430   2.790   4.647 -0.9414  0.9453 -0.3437
   62SAPC   H9R 4905   7.499   2.871   4.620 -0.3804  0.9232  0.9636
   62SAPC  C210 4906   7.349   2.723   4.537  0.3262 -0.3776  0.1618
   62SAPC  H10R 4907   7.259   2.668   4.572  0.7266 -1.1135  0.0429
   62SAPC  H10S 4908   7.421   2.660   4.481  0.0785  0.9738 -1.7769
   62SAPC  C211 4909   7.301   2.826   4.437 -0.4188 -0.1574  0.0152
   62SAPC  H11R 4910   7.312   2.931   4.470  2.0182 -0.2614 -0.2560
   62SAPC  C212 4911   7.243   2.800   4.318 -0.6369 -0.1680 -0.1105
   62SAPC  H12R 4912   7.217   2.877   4.244  0.5920 -0.1774 -0.5800
   62SAPC  C213 4913   7.221   2.662   4.257 -0.9170  0.2959 -0.5976
   62SAPC  H13R 4914   7.114   2.659   4.227 -1.0825 -0.6820  0.0724
   62SAPC  H13S 4915   7.227   2.577   4.328  0.6194  1.5152  0.8093
   62SAPC  C214 4916   7.303   2.646   4.132 -0.4721  0.0107  0.2574
   62SAPC  H14R 4917   7.396   2.705   4.124  0.5527 -1.5660  0.1378
   62SAPC  C215 4918   7.264   2.577   4.022  0.4212  0.2644 -0.5205
   62SAPC  H15R 4919   7.322   2.572   3.928  0.6287 -2.7483 -0.3522
   62SAPC  C216 4920   7.141   2.490   4.014 -0.1716  0.0510  0.3126
   62SAPC  H16R 4921   7.055   2.535   4.068 -1.1600  1.1684 -2.0396
   62SAPC  H16S 4922   7.173   2.395   4.061  2.2610  0.6740  0.0387
   62SAPC  C217 4923   7.098   2.474   3.865 -0.0668  0.5933 -0.2116
   62SAPC  H17R 4924   7.010   2.407   3.862  0.0970  0.3987 -0.7793
   62SAPC  H17S 4925   7.168   2.412   3.805 -0.7279 -1.1115  0.7150
   62SAPC  C218 4926   7.048   2.602   3.795 -0.1428 -0.0066  0.0268
   62SAPC  H18R 4927   7.009   2.574   3.694  2.3839  0.4446 -1.1552
   62SAPC  H18S 4928   7.140   2.662   3.784  0.2784 -0.2870  1.8044
   62SAPC  C219 4929   6.947   2.684   3.879 -0.3733  0.7114 -0.1551
   62SAPC  H19R 4930   6.997   2.733   3.966 -0.0252  1.2371 -0.6438
   62SAPC  H19S 4931   6.881   2.607   3.923  0.4783 -0.1000 -0.2758
   62SAPC  C220 4932   6.885   2.802   3.811 -0.1824 -0.0441 -0.0417
   62SAPC  H20R 4933   6.960   2.878   3.782  0.6562 -1.5484 -2.0955
   62SAPC  H20S 4934   6.811   2.842   3.884 -1.2095 -0.5583 -0.7613
   62SAPC  H20T 4935   6.837   2.777   3.713 -2.2451 -0.7631  1.0816
   62SAPC   C33 4936   7.828   2.810   5.021  0.0459  0.1097  0.0841
   62SAPC   H3X 4937   7.923   2.774   5.066  1.1503 -0.6950 -2.7235
   62SAPC   H3Y 4938   7.816   2.919   5.036 -0.3444  0.0630  0.1140
   62SAPC   C34 4939   7.832   2.790   4.872 -0.3856 -0.1399  0.3415
   62SAPC   H4X 4940   7.926   2.825   4.825 -0.1672 -0.3241  0.6354
   62SAPC   H4Y 4941   7.752   2.852   4.827 -1.2337 -1.0309  0.5941
   62SAPC   C35 4942   7.814   2.651   4.832 -0.2015  0.6770  0.3713
   62SAPC   H5X 4943   7.712   2.618   4.861 -0.5535 -0.2171 -1.6983
   62SAPC   H5Y 4944   7.888   2.594   4.893  0.8124  1.3768 -0.1918
   62SAPC   C36 4945   7.837   2.622   4.684 -0.1705  0.3470 -0.5348
   62SAPC   H6X 4946   7.937   2.666   4.664 -0.3109  0.8579 -0.1240
   62SAPC   H6Y 4947   7.764   2.683   4.627  0.4542 -0.0520 -1.7920
   62SAPC   C37 4948   7.834   2.472   4.646 -0.7226 -0.4741  0.1631
   62SAPC   H7X 4949   7.781   2.418   4.726  0.3229 -2.4053 -0.4003
   62SAPC   H7Y 4950   7.938   2.439   4.625 -1.9485 -3.8131 -1.2783
   62SAPC   C38 4951   7.755   2.441   4.519  0.0768 -0.8079  0.2687
   62SAPC   H8X 4952   7.648   2.448   4.547 -0.5352 -2.4528 -1.4934
   62SAPC   H8Y 4953   7.775   2.333   4.503  1.2493 -0.5666 -0.0199
   62SAPC   C39 4954   7.784   2.527   4.394 -0.8885 -0.0919  0.6506
   62SAPC   H9X 4955   7.887   2.504   4.362 -0.6806  0.0310  1.2252
   62SAPC   H9Y 4956   7.773   2.636   4.412  1.2768  0.3599 -0.4637
   62SAPC  C310 4957   7.678   2.503   4.281  0.0721  0.4454  0.1158
   62SAPC  H10X 4958   7.604   2.585   4.293  0.9394  1.3804 -0.7738
   62SAPC  H10Y 4959   7.626   2.408   4.305  3.0660 -1.6112 -0.9442
   62SAPC  C311 4960   7.732   2.486   4.136 -0.2318  0.7301 -1.2397
   62SAPC  H11X 4961   7.803   2.401   4.131 -1.4738 -0.3822 -0.5659
   62SAPC  H11Y 4962   7.794   2.574   4.108  3.6665 -2.5040 -4.0826
   62SAPC  C312 4963   7.637   2.478   4.019  0.4510 -0.3565 -0.7338
   62SAPC  H12X 4964   7.552   2.550   4.018  2.3888  2.1851  1.3752
   62SAPC  H12Y 4965   7.595   2.377   4.036 -0.1441  0.0994  0.5903
   62SAPC  C313 4966   7.700   2.470   3.880 -0.0714  0.3600 -0.7374
   62SAPC  H13X 4967   7.753   2.373   3.868 -0.4223  0.0612  0.0732
   62SAPC  H13Y 4968   7.768   2.558   3.887 -1.4797  1.3728  0.9375
   62SAPC  C314 4969   7.597   2.502   3.777 -0.4219 -0.2360  0.3125
   62SAPC  H14X 4970   7.555   2.604   3.793 -0.3181 -0.1072 -0.2377
   62SAPC  H14Y 4971   7.514   2.428   3.785  1.2787 -2.1175  1.3998
   62SAPC  C315 4972   7.641   2.486   3.636  0.4299 -0.0832  0.2771
   62SAPC  H15X 4973   7.662   2.379   3.612  0.4521 -0.0227  0.0226
   62SAPC  H15Y 4974   7.743   2.528   3.619  0.0621  0.7265  0.0540
   62SAPC  C316 4975   7.540   2.547   3.536 -0.1889  0.9299  0.3771
   62SAPC  H16X 4976   7.577   2.537   3.432 -3.1525 -2.4095 -0.5463
   62SAPC  H16Y 4977   7.504   2.647   3.569 -1.5851  0.4562  0.3360
   62SAPC  C317 4978   7.423   2.457   3.520  0.1967 -0.0800 -0.4236
   62SAPC  H17X 4979   7.353   2.457   3.606 -2.9036  2.9798 -2.6762
   62SAPC  H17Y 4980   7.457   2.352   3.501  0.7226 -0.5507  2.6322
   62SAPC  C318 4981   7.326   2.505   3.410  0.0296 -0.5812 -0.7573
   62SAPC  H18X 4982   7.304   2.614   3.416  2.8647  0.0091  0.6715
   62SAPC  H18Y 4983   7.236   2.443   3.392  0.1865 -0.3241 -2.6507
   62SAPC  H18Z 4984   7.388   2.499   3.319  0.0269  0.2965 -0.8300
   63SAPC     N 4985   1.514   6.664   6.088  0.2599 -0.4252 -0.0986
   63SAPC   C12 4986   1.510   6.666   5.935 -0.0902  0.0315  0.2093
   63SAPC  H12A 4987   1.546   6.767   5.922  1.3979 -0.1762  2.2139
   63SAPC  H12B 4988   1.405   6.650   5.913 -0.2395 -0.2569  1.1052
   63SAPC   C13 4989   1.473   6.528   6.144  0.1560 -0.1531 -0.0025
   63SAPC  H13A 4990   1.537   6.447   6.114  2.3125  1.8327 -1.0539
   63SAPC  H13B 4991   1.461   6.540   6.251  0.0084  0.9864 -0.1427
   63SAPC  H13C 4992   1.374   6.513   6.105 -0.1764  2.6212 -0.4211
   63SAPC   C14 4993   1.652   6.707   6.130 -0.4172  0.2755 -0.3433
   63SAPC  H14A 4994   1.690   6.804   6.103 -0.2455 -0.0648 -1.4076
   63SAPC  H14B 4995   1.658   6.686   6.235  2.7899 -1.3244 -0.7091
   63SAPC  H14C 4996   1.722   6.645   6.075  1.8907  0.7613  1.8624
   63SAPC   C15 4997   1.416   6.745   6.150 -0.1461 -0.5694  0.2186
   63SAPC  H15A 4998   1.315   6.714   6.125 -0.1244  0.4902 -1.2800
   63SAPC  H15B 4999   1.419   6.749   6.258  1.2232  2.0021  0.1624
   63SAPC  H15C 5000   1.436   6.849   6.130  3.7388 -1.5536 -1.9345
   63SAPC   C11 5001   1.605   6.565   5.858 -1.0016  0.7504  0.3249
   63SAPC  H11A 5002   1.583   6.566   5.749 -0.2245  0.9129  0.1660
   63SAPC  H11B 5003   1.582   6.463   5.895 -0.0502 -0.0488 -1.1943
   63SAPC     P 5004   1.814   6.711   5.817  0.2789  0.6820 -0.0632
   63SAPC   O13 5005   1.719   6.819   5.797 -0.3475  0.5952  0.0879
   63SAPC   O14 5006   1.933   6.746   5.895 -0.3951  0.0232  0.4464
   63SAPC   O12 5007   1.747   6.582   5.880  1.1052  0.1105  0.3999
   63SAPC   O11 5008   1.861   6.662   5.672 -0.1763 -0.0855 -0.3471
   63SAPC    C1 5009   1.946   6.543   5.661 -0.2934  0.2480  0.6847
   63SAPC    HA 5010   2.041   6.563   5.715  0.5078 -1.2357 -0.1235
   63SAPC    HB 5011   1.899   6.460   5.718 -1.9329  0.9485  0.4318
   63SAPC    C2 5012   1.982   6.525   5.512 -0.3313 -0.6910  0.2145
   63SAPC    HS 5013   2.069   6.455   5.514  1.7435  1.6031 -2.1309
   63SAPC   O21 5014   2.019   6.650   5.463  0.1618  0.6357  0.3936
   63SAPC   C21 5015   2.094   6.657   5.358  0.0868  0.5442 -0.2487
   63SAPC   O22 5016   2.155   6.561   5.314  0.0438  0.3384 -0.1116
   63SAPC   C22 5017   2.090   6.799   5.294  0.3754  0.4785 -0.3746
   63SAPC   H2R 5018   2.021   6.803   5.207  0.4818 -2.0102 -0.6479
   63SAPC   H2S 5019   2.070   6.883   5.364 -1.6280  0.6974 -1.1207
   63SAPC    C3 5020   1.857   6.464   5.438 -0.3125 -0.9697  0.3627
   63SAPC    HX 5021   1.781   6.543   5.455  0.2140 -0.5011  0.5922
   63SAPC    HY 5022   1.817   6.378   5.496 -2.8520 -0.7413 -0.9119
   63SAPC   O31 5023   1.884   6.445   5.296  0.5001 -0.0088 -0.7241
   63SAPC   C31 5024   1.934   6.320   5.271  0.1827 -0.0556 -0.8854
   63SAPC   O32 5025   1.939   6.234   5.361  0.0048 -0.7585  0.3646
   63SAPC   C32 5026   1.958   6.296   5.123  0.4426  0.7141 -0.9083
   63SAPC   H2X 5027   1.917   6.200   5.086 -1.6188  1.4393 -0.6645
   63SAPC   H2Y 5028   2.067   6.280   5.108  0.5032 -0.5311  0.6833
   63SAPC   C23 5029   2.230   6.836   5.241  0.2299  0.2707 -0.1167
   63SAPC   H3R 5030   2.298   6.828   5.329 -2.7374 -1.9207  2.2029
   63SAPC   H3S 5031   2.217   6.941   5.206 -0.8750  0.3393  0.4492
   63SAPC   C24 5032   2.281   6.757   5.120  0.0649 -0.8371 -0.3644
   63SAPC   H4R 5033   2.302   6.655   5.157 -3.0932 -1.2055  0.7059
   63SAPC   H4S 5034   2.380   6.792   5.084  0.5946 -0.3699  1.4197
   63SAPC   C25 5035   2.183   6.755   4.999  0.0731  0.4864  0.3214
   63SAPC   H5R 5036   2.106   6.678   5.015  0.9048 -0.4185  0.0618
   63SAPC   C26 5037   2.182   6.827   4.889  0.0612 -0.5756 -0.0139
   63SAPC   H6R 5038   2.093   6.819   4.823 -1.1552  4.7640  0.5634
   63SAPC   C27 5039   2.292   6.933   4.873  0.2818  0.0268 -0.4637
   63SAPC   H7R 5040   2.394   6.890   4.879 -0.1758 -0.9210  0.9551
   63SAPC   H7S 5041   2.293   7.013   4.950  0.4537 -0.2805 -0.1461
   63SAPC   C28 5042   2.287   7.007   4.744 -0.4709  1.4325  0.6884
   63SAPC   H8R 5043   2.250   7.111   4.735  0.4962  1.7361  0.1544
   63SAPC   C29 5044   2.338   6.962   4.629 -0.1271 -0.2310  0.5317
   63SAPC   H9R 5045   2.314   7.012   4.534  0.3004  0.0450  0.5689
   63SAPC  C210 5046   2.412   6.830   4.610 -0.1364 -0.0445  0.7748
   63SAPC  H10R 5047   2.492   6.811   4.684  0.8598  0.1173 -0.2209
   63SAPC  H10S 5048   2.479   6.838   4.521  1.1805  1.6726  1.8657
   63SAPC  C211 5049   2.314   6.712   4.602 -0.2414  0.0885 -1.1238
   63SAPC  H11R 5050   2.233   6.713   4.677  0.8363 -0.3269  0.0768
   63SAPC  C212 5051   2.279   6.640   4.492 -0.3670  0.3523  0.0427
   63SAPC  H12R 5052   2.200   6.564   4.500 -1.0904  1.2703  2.4912
   63SAPC  C213 5053   2.341   6.650   4.352  0.0386  0.0148 -0.4991
   63SAPC  H13R 5054   2.452   6.650   4.361 -0.0962  0.8135  1.9294
   63SAPC  H13S 5055   2.321   6.751   4.311  1.8139  1.0159  0.9314
   63SAPC  C214 5056   2.283   6.548   4.254 -0.5588 -0.6491  0.6306
   63SAPC  H14R 5057   2.348   6.462   4.236  0.7806  0.3115  0.6838
   63SAPC  C215 5058   2.159   6.554   4.199 -0.0172 -0.2201  0.1819
   63SAPC  H15R 5059   2.122   6.477   4.130 -1.7938 -0.0734  0.9122
   63SAPC  C216 5060   2.044   6.651   4.237  0.0858 -0.0777 -0.8353
   63SAPC  H16R 5061   2.034   6.732   4.161  1.1067 -0.8474 -1.8101
   63SAPC  H16S 5062   2.066   6.705   4.332 -1.8540  0.0064 -0.3981
   63SAPC  C217 5063   1.904   6.592   4.249 -0.1544  0.2682 -0.0824
   63SAPC  H17R 5064   1.876   6.532   4.159 -0.4454  2.7905 -1.7699
   63SAPC  H17S 5065   1.833   6.676   4.250  0.1752  0.5566 -0.5063
   63SAPC  C218 5066   1.901   6.512   4.380 -0.2668 -0.2884  0.7140
   63SAPC  H18R 5067   1.895   6.588   4.460  1.6833 -0.9196  1.5138
   63SAPC  H18S 5068   1.988   6.444   4.395 -1.2591 -1.4200  1.5789
   63SAPC  C219 5069   1.784   6.413   4.392 -0.3135  0.1197 -0.4215
   63SAPC  H19R 5070   1.796   6.333   4.315  0.3385  1.3995 -1.7153
   63SAPC  H19S 5071   1.687   6.459   4.362 -0.0317  1.5122  0.7073
   63SAPC  C220 5072   1.775   6.351   4.526  0.1420 -0.5268 -0.4553
   63SAPC  H20R 5073   1.880   6.316   4.542  1.2869  2.3432 -0.9581
   63SAPC  H20S 5074   1.698   6.272   4.533  1.6144 -2.0288 -0.3832
   63SAPC  H20T 5075   1.765   6.430   4.603  1.2736 -0.4590 -0.3479
   63SAPC   C33 5076   1.915   6.422   5.032  0.2177  0.6750 -0.3422
   63SAPC   H3X 5077   1.981   6.507   5.059 -0.5204  1.9833 -2.3929
   63SAPC   H3Y 5078   1.810   6.442   5.064 -0.2788 -2.3572  0.1921
   63SAPC   C34 5079   1.938   6.396   4.880 -0.2255  0.6788  0.0824
   63SAPC   H4X 5080   1.900   6.481   4.819 -0.5041  0.8998  0.5605
   63SAPC   H4Y 5081   1.889   6.305   4.841 -1.5588  1.3691  0.0906
   63SAPC   C35 5082   2.093   6.396   4.847 -0.4476  0.2511 -0.2342
   63SAPC   H5X 5083   2.144   6.320   4.910 -1.5111 -2.1717 -2.1306
   63SAPC   H5Y 5084   2.133   6.498   4.869 -0.4727  0.3586 -0.6827
   63SAPC   C36 5085   2.132   6.352   4.704  0.2337  0.3115 -0.0977
   63SAPC   H6X 5086   2.235   6.392   4.689 -0.4340  1.2539 -2.8516
   63SAPC   H6Y 5087   2.066   6.397   4.627 -1.1756  0.7939  1.3548
   63SAPC   C37 5088   2.134   6.197   4.691  0.6813  0.7094 -0.2718
   63SAPC   H7X 5089   2.041   6.164   4.742  0.8005  1.6776  0.6253
   63SAPC   H7Y 5090   2.217   6.159   4.755 -0.5057  0.1201  0.9743
   63SAPC   C38 5091   2.125   6.143   4.539  0.2279  0.1079 -0.1630
   63SAPC   H8X 5092   2.042   6.197   4.488 -1.3319  0.8528  2.9295
   63SAPC   H8Y 5093   2.095   6.036   4.546  0.1781  0.2455  3.1571
   63SAPC   C39 5094   2.269   6.139   4.473  0.5360  0.7711  0.1358
   63SAPC   H9X 5095   2.330   6.066   4.530  0.1496  0.9064  0.7318
   63SAPC   H9Y 5096   2.312   6.241   4.483  0.1269  0.6999  4.9519
   63SAPC  C310 5097   2.243   6.091   4.326 -0.6263 -0.3087 -0.0627
   63SAPC  H10X 5098   2.172   6.166   4.285  0.0311 -0.2836 -1.2138
   63SAPC  H10Y 5099   2.200   5.990   4.311 -0.0527 -0.4631 -0.7655
   63SAPC  C311 5100   2.373   6.089   4.239  0.1601  0.5701 -0.0225
   63SAPC  H11X 5101   2.404   6.195   4.227 -1.1191  0.9014 -0.5744
   63SAPC  H11Y 5102   2.333   6.073   4.136  0.3939  1.6430 -0.2929
   63SAPC  C312 5103   2.479   5.987   4.278  1.3879 -0.3796 -0.1804
   63SAPC  H12X 5104   2.461   5.880   4.255 -1.6227 -0.1753  0.8458
   63SAPC  H12Y 5105   2.490   5.987   4.389 -1.6758  1.2975  0.2462
   63SAPC  C313 5106   2.616   6.033   4.217 -0.5521  0.2465  0.1047
   63SAPC  H13X 5107   2.618   6.143   4.236  1.1850 -0.2881  4.0806
   63SAPC  H13Y 5108   2.608   6.013   4.108  3.4160  1.6800 -0.6124
   63SAPC  C314 5109   2.731   5.961   4.282  0.5526 -0.7590  0.1829
   63SAPC  H14X 5110   2.713   5.853   4.263 -1.4562 -0.5764  0.8288
   63SAPC  H14Y 5111   2.735   5.976   4.392 -2.9920 -0.2288  0.3675
   63SAPC  C315 5112   2.864   6.014   4.213 -0.0089  0.7788  0.0874
   63SAPC  H15X 5113   2.887   6.122   4.227  0.8289  0.8088 -1.3156
   63SAPC  H15Y 5114   2.859   6.003   4.103  1.7841  0.9952 -0.0396
   63SAPC  C316 5115   2.986   5.913   4.252 -1.1103  0.5457  0.0271
   63SAPC  H16X 5116   2.992   5.904   4.363  1.2397  2.8350  0.2066
   63SAPC  H16Y 5117   3.085   5.964   4.243 -0.1780 -1.2071 -0.1482
   63SAPC  C317 5118   2.990   5.773   4.188 -0.7526 -0.5080  0.7839
   63SAPC  H17X 5119   2.901   5.716   4.222 -0.6033 -1.4707 -0.3657
   63SAPC  H17Y 5120   3.081   5.719   4.220 -1.3539 -2.5070 -0.6547
   63SAPC  C318 5121   2.996   5.771   4.032 -0.2114  0.2679  0.0177
   63SAPC  H18X 5122   3.056   5.684   3.999  0.7236  1.2664 -0.9889
   63SAPC  H18Y 5123   3.043   5.864   3.992 -1.5464  0.9087 -0.1191
   63SAPC  H18Z 5124   2.897   5.774   3.982  0.5016  0.6738 -1.4053
   64SAPC     N 5125   2.136   0.585   5.938 -0.1353  0.5160 -0.1130
   64SAPC   C12 5126   2.048   0.524   6.051 -0.3080  0.0215 -0.6054
   64SAPC  H12A 5127   2.101   0.520   6.144  0.8238 -1.0442 -1.2631
   64SAPC  H12B 5128   2.024   0.422   6.026  1.8587 -1.1428  1.6293
   64SAPC   C13 5129   2.175   0.725   5.956  0.6481  0.0456 -0.2875
   64SAPC  H13A 5130   2.208   0.742   6.058  1.5693 -0.8253 -0.4303
   64SAPC  H13B 5131   2.255   0.733   5.884  0.7511 -2.0448 -0.4702
   64SAPC  H13C 5132   2.093   0.793   5.937  1.0611 -0.0232 -2.5040
   64SAPC   C14 5133   2.263   0.506   5.931  0.0861  0.4258  0.1904
   64SAPC  H14A 5134   2.326   0.537   5.850 -2.3055  1.1152 -1.5345
   64SAPC  H14B 5135   2.317   0.501   6.025 -2.1432  0.7404  1.5736
   64SAPC  H14C 5136   2.228   0.405   5.911 -1.0083  0.6612  0.7981
   64SAPC   C15 5137   2.083   0.568   5.795  0.3213  0.3810  0.1642
   64SAPC  H15A 5138   2.001   0.635   5.777 -0.3709 -1.0680 -2.6172
   64SAPC  H15B 5139   2.166   0.579   5.727 -0.0815 -0.2861 -0.4540
   64SAPC  H15C 5140   2.056   0.465   5.774 -2.1841  1.3758 -2.0620
   64SAPC   C11 5141   1.919   0.610   6.075  0.0306 -0.1430 -0.9100
   64SAPC  H11A 5142   1.959   0.713   6.090 -0.0876 -0.4052  1.4767
   64SAPC  H11B 5143   1.880   0.569   6.170  1.7834  1.5684  0.6306
   64SAPC     P 5144   1.700   0.699   5.966 -0.1138  0.2186  0.2363
   64SAPC   O13 5145   1.584   0.657   6.051  0.4696 -0.0908  0.1635
   64SAPC   O14 5146   1.758   0.836   6.000 -0.1968  0.0810  0.9242
   64SAPC   O12 5147   1.817   0.587   5.980 -0.2944 -0.0925  0.3254
   64SAPC   O11 5148   1.663   0.701   5.809  0.3361 -0.0664 -0.4549
   64SAPC    C1 5149   1.528   0.735   5.786  0.2273  0.0463  0.8769
   64SAPC    HA 5150   1.491   0.816   5.852  1.2397 -1.0217  2.8470
   64SAPC    HB 5151   1.536   0.780   5.684  1.0128  3.6119  2.3583
   64SAPC    C2 5152   1.442   0.610   5.784  0.7573  0.8893 -0.4369
   64SAPC    HS 5153   1.457   0.562   5.883  0.1975  0.1893 -0.6787
   64SAPC   O21 5154   1.496   0.509   5.694  0.3691  0.2862  0.1236
   64SAPC   C21 5155   1.463   0.383   5.710 -0.6477 -0.4117 -0.2872
   64SAPC   O22 5156   1.386   0.342   5.798 -0.2285  0.3414 -0.3722
   64SAPC   C22 5157   1.532   0.282   5.606 -0.4785  0.1318 -0.0650
   64SAPC   H2R 5158   1.579   0.341   5.525  1.1720 -0.7682  0.2093
   64SAPC   H2S 5159   1.618   0.246   5.666 -0.5984  0.2428  0.1784
   64SAPC    C3 5160   1.294   0.641   5.749  0.4385  0.0520 -0.1066
   64SAPC    HX 5161   1.249   0.698   5.833  0.4511 -1.6119  1.0829
   64SAPC    HY 5162   1.246   0.543   5.772 -0.3228  0.4055 -0.1776
   64SAPC   O31 5163   1.276   0.693   5.619 -0.1103 -0.4026 -0.1191
   64SAPC   C31 5164   1.243   0.604   5.521  0.8920 -0.0207 -0.8590
   64SAPC   O32 5165   1.186   0.499   5.533 -0.3317  0.0124  0.3448
   64SAPC   C32 5166   1.283   0.673   5.390  0.0726 -0.4557  0.2628
   64SAPC   H2X 5167   1.361   0.748   5.411 -0.6835  0.6916 -0.8382
   64SAPC   H2Y 5168   1.194   0.731   5.358  0.6541  0.3208  0.0301
   64SAPC   C23 5169   1.449   0.163   5.553 -0.0440 -0.4834 -0.0213
   64SAPC   H3R 5170   1.410   0.093   5.629  0.5956 -0.3376  0.4461
   64SAPC   H3S 5171   1.517   0.104   5.488 -0.5803 -0.0995 -0.9572
   64SAPC   C24 5172   1.341   0.209   5.448  0.3123  0.1010 -0.1803
   64SAPC   H4R 5173   1.390   0.230   5.350 -0.1866 -2.0210 -0.9347
   64SAPC   H4S 5174   1.302   0.311   5.472  2.0657  1.3311 -2.1441
   64SAPC   C25 5175   1.229   0.115   5.435 -0.2005  0.3149 -1.3884
   64SAPC   H5R 5176   1.171   0.091   5.525  1.2813  1.6037 -0.0303
   64SAPC   C26 5177   1.189   0.074   5.319 -0.0583 -0.5520  0.1228
   64SAPC   H6R 5178   1.105   0.006   5.301  1.0636 -1.7939 -0.5722
   64SAPC   C27 5179   1.245   0.120   5.185 -0.3000  0.1605  0.1546
   64SAPC   H7R 5180   1.274   0.227   5.194  0.3440  0.0109 -0.0898
   64SAPC   H7S 5181   1.159   0.127   5.116  0.8772  0.6955 -1.3003
   64SAPC   C28 5182   1.364   0.046   5.133  0.0662 -0.7354 -0.0994
   64SAPC   H8R 5183   1.424  -0.005   5.210  0.8351  0.4422  0.0964
   64SAPC   C29 5184   1.400   0.041   5.004 -0.1514  0.1900  0.0898
   64SAPC   H9R 5185   1.489  -0.020   4.981 -1.3985 -1.3682 -0.7998
   64SAPC  C210 5186   1.331   0.099   4.881 -0.1701 -0.6278  0.3739
   64SAPC  H10R 5187   1.226   0.116   4.912  0.5623  2.0735  1.6896
   64SAPC  H10S 5188   1.338   0.029   4.795  0.8954  1.8263 -1.6784
   64SAPC  C211 5189   1.383   0.244   4.846 -0.2667 -0.8353  0.7857
   64SAPC  H11R 5190   1.420   0.316   4.920  0.5900  1.0065 -1.3011
   64SAPC  C212 5191   1.406   0.282   4.714  0.7014 -0.3106  0.1200
   64SAPC  H12R 5192   1.452   0.379   4.692  2.3337 -0.8802  0.8460
   64SAPC  C213 5193   1.378   0.193   4.596 -0.6319  0.8804  0.0347
   64SAPC  H13R 5194   1.290   0.126   4.605 -0.5352  0.7663  0.1394
   64SAPC  H13S 5195   1.470   0.132   4.597 -0.3816  1.2430  1.0316
   64SAPC  C214 5196   1.347   0.264   4.466  0.0095 -0.2023  0.1245
   64SAPC  H14R 5197   1.250   0.315   4.458 -0.8564 -1.7614  0.4779
   64SAPC  C215 5198   1.440   0.287   4.375 -0.4420 -0.1715  0.8540
   64SAPC  H15R 5199   1.412   0.322   4.274 -1.0776 -0.7633  0.8131
   64SAPC  C216 5200   1.588   0.257   4.383 -0.0170 -0.1766 -0.7469
   64SAPC  H16R 5201   1.621   0.189   4.301  3.0348  0.0086  0.1921
   64SAPC  H16S 5202   1.616   0.209   4.479  0.3891  0.2408 -0.6540
   64SAPC  C217 5203   1.673   0.389   4.361  0.0371 -0.3917 -0.5056
   64SAPC  H17R 5204   1.777   0.354   4.372 -0.4092 -1.3216  1.0113
   64SAPC  H17S 5205   1.647   0.459   4.443  1.0988  0.7987 -1.1596
   64SAPC  C218 5206   1.675   0.456   4.218 -0.8519  0.0359  1.0771
   64SAPC  H18R 5207   1.580   0.512   4.203  1.1802  3.6383  0.5030
   64SAPC  H18S 5208   1.692   0.389   4.131 -1.6038  0.8017  0.3142
   64SAPC  C219 5209   1.793   0.553   4.208 -0.2630 -0.0700 -0.1917
   64SAPC  H19R 5210   1.887   0.502   4.237  1.1608  0.7352 -3.0331
   64SAPC  H19S 5211   1.763   0.626   4.286 -0.3732 -0.5029  0.1787
   64SAPC  C220 5212   1.814   0.618   4.071  0.5491  0.5046 -0.0566
   64SAPC  H20R 5213   1.887   0.698   4.095  1.7348 -0.6331  0.2213
   64SAPC  H20S 5214   1.718   0.663   4.036 -1.2424 -1.6515  1.7665
   64SAPC  H20T 5215   1.844   0.541   3.997  1.8907  0.5170  0.4520
   64SAPC   C33 5216   1.322   0.569   5.290 -0.4398 -0.0682  0.4131
   64SAPC   H3X 5217   1.247   0.488   5.278 -0.7913  0.3709 -0.4354
   64SAPC   H3Y 5218   1.402   0.505   5.333  0.1432  0.7201  0.5371
   64SAPC   C34 5219   1.368   0.611   5.156  0.0522  0.1079  0.2893
   64SAPC   H4X 5220   1.422   0.527   5.107  3.0024  1.3027  1.2605
   64SAPC   H4Y 5221   1.441   0.694   5.169 -1.6163  2.2739 -2.6940
   64SAPC   C35 5222   1.256   0.650   5.063  0.0405 -0.8425  0.5217
   64SAPC   H5X 5223   1.205   0.739   5.104 -0.0990 -0.1788 -1.0234
   64SAPC   H5Y 5224   1.185   0.564   5.063  0.6770 -1.4066 -0.9742
   64SAPC   C36 5225   1.311   0.701   4.937  0.6754 -0.0067  0.0332
   64SAPC   H6X 5226   1.352   0.613   4.883 -0.3079 -1.8318  2.1235
   64SAPC   H6Y 5227   1.393   0.773   4.960  1.1261 -0.6917  0.6392
   64SAPC   C37 5228   1.211   0.785   4.851  0.4754  0.9151  0.0129
   64SAPC   H7X 5229   1.182   0.877   4.905  0.3207  2.4916 -2.5841
   64SAPC   H7Y 5230   1.121   0.723   4.832 -0.0284  1.8080 -0.5684
   64SAPC   C38 5231   1.263   0.839   4.723 -0.3373 -0.3630 -0.2739
   64SAPC   H8X 5232   1.341   0.914   4.747 -0.0203 -1.1536  1.3270
   64SAPC   H8Y 5233   1.178   0.892   4.675 -3.0030 -3.4870  0.6298
   64SAPC   C39 5234   1.303   0.745   4.613 -0.3065  0.0682 -0.4971
   64SAPC   H9X 5235   1.219   0.672   4.610 -0.7396  0.4740  0.9592
   64SAPC   H9Y 5236   1.395   0.687   4.637 -1.3655 -1.5668 -0.1970
   64SAPC  C310 5237   1.326   0.798   4.473 -1.0558  0.4031  0.6793
   64SAPC  H10X 5238   1.418   0.860   4.476 -0.9197  0.1717  1.3323
   64SAPC  H10Y 5239   1.237   0.858   4.445 -0.7816  0.1423 -0.8676
   64SAPC  C311 5240   1.334   0.690   4.361 -0.0246 -0.2230  0.0426
   64SAPC  H11X 5241   1.245   0.624   4.358 -1.4006  1.5707 -1.7143
   64SAPC  H11Y 5242   1.429   0.638   4.387  1.0456  2.2153  1.4149
   64SAPC  C312 5243   1.352   0.749   4.221  0.6857  0.5930 -0.1606
   64SAPC  H12X 5244   1.391   0.678   4.146  4.3090  2.1857 -0.0097
   64SAPC  H12Y 5245   1.435   0.823   4.233 -0.6287  2.1870 -0.4719
   64SAPC  C313 5246   1.226   0.822   4.161 -1.0075  0.5810 -0.4549
   64SAPC  H13X 5247   1.173   0.878   4.242  0.1269 -0.7779  1.3236
   64SAPC  H13Y 5248   1.157   0.746   4.121  0.7991 -0.1032 -2.4463
   64SAPC  C314 5249   1.254   0.902   4.038 -0.6434 -0.6230  0.4294
   64SAPC  H14X 5250   1.312   0.835   3.971 -0.0147  0.0552  0.2844
   64SAPC  H14Y 5251   1.323   0.988   4.057  2.0156 -2.6041  0.4055
   64SAPC  C315 5252   1.131   0.953   3.955 -0.9816 -0.1990 -0.5767
   64SAPC  H15X 5253   1.049   0.958   4.030  1.4494  0.0301  2.2290
   64SAPC  H15Y 5254   1.099   0.868   3.892  0.3259  0.0408 -1.6023
   64SAPC  C316 5255   1.140   1.082   3.869 -0.7361  0.6495  0.5469
   64SAPC  H16X 5256   1.168   1.169   3.932  0.8601  0.3960  0.2516
   64SAPC  H16Y 5257   1.040   1.095   3.822 -1.1438 -1.3685  0.7364
   64SAPC  C317 5258   1.252   1.063   3.760 -0.3386  0.2823  1.1097
   64SAPC  H17X 5259   1.237   0.967   3.708 -0.8207 -0.4301  2.5245
   64SAPC  H17Y 5260   1.348   1.058   3.817 -0.4749 -0.8689  1.2512
   64SAPC  C318 5261   1.247   1.184   3.661  0.2648  0.4148  0.1495
   64SAPC  H18X 5262   1.264   1.283   3.709 -0.3625  0.2814  0.6523
   64SAPC  H18Y 5263   1.149   1.183   3.610  0.0801 -1.1823  0.4867
   64SAPC  H18Z 5264   1.323   1.189   3.580 -0.2409  1.6723 -0.2737
   65SAPC     N 5265   2.778   1.616   1.855  0.3104  0.3148  0.6644
   65SAPC   C12 5266   2.763   1.762   1.894 -0.3230  0.1335 -0.5305
   65SAPC  H12A 5267   2.753   1.811   1.798 -0.5548 -0.2197 -0.6892
   65SAPC  H12B 5268   2.855   1.800   1.936  0.4521  0.4920 -2.4471
   65SAPC   C13 5269   2.909   1.586   1.787  0.4395  0.2214  0.5783
   65SAPC  H13A 5270   2.916   1.636   1.692  0.5989 -0.0995  0.4206
   65SAPC  H13B 5271   2.996   1.609   1.848 -2.0503  1.9979  3.7945
   65SAPC  H13C 5272   2.914   1.480   1.769 -1.1955 -0.2054  2.2612
   65SAPC   C14 5273   2.769   1.525   1.975  0.1706  0.4086  0.0264
   65SAPC  H14A 5274   2.817   1.579   2.055  1.5261  0.0228 -0.4970
   65SAPC  H14B 5275   2.667   1.496   1.994  0.8416 -1.6514  0.7716
   65SAPC  H14C 5276   2.821   1.431   1.964 -0.6926 -0.4146  2.4078
   65SAPC   C15 5277   2.675   1.575   1.758 -0.0713  0.4523 -0.5779
   65SAPC  H15A 5278   2.665   1.470   1.733 -2.6632  0.7500 -1.0484
   65SAPC  H15B 5279   2.577   1.598   1.797  0.2544 -1.9085  2.0118
   65SAPC  H15C 5280   2.679   1.627   1.664  0.7798 -1.5673 -1.7168
   65SAPC   C11 5281   2.653   1.803   1.998 -0.1667  0.9143 -0.5916
   65SAPC  H11A 5282   2.659   1.914   2.011 -0.3244  0.7247  1.4576
   65SAPC  H11B 5283   2.662   1.755   2.097 -1.5098  0.2466 -0.7640
   65SAPC     P 5284   2.416   1.875   1.906  0.1465  0.1973 -0.1889
   65SAPC   O13 5285   2.491   1.988   1.852  0.2227 -0.0133 -0.1445
   65SAPC   O14 5286   2.327   1.799   1.814  0.5400  0.4823 -0.2905
   65SAPC   O12 5287   2.521   1.767   1.951  0.2392 -0.3700  0.0905
   65SAPC   O11 5288   2.329   1.911   2.033  0.1656  0.1772 -0.4705
   65SAPC    C1 5289   2.228   2.011   2.025  0.1750 -0.7928  0.4458
   65SAPC    HA 5290   2.211   2.041   1.920 -1.3812 -2.3447  0.2199
   65SAPC    HB 5291   2.137   1.970   2.073  0.3552  1.2250  2.6800
   65SAPC    C2 5292   2.267   2.151   2.088 -0.0547  0.4204 -0.1175
   65SAPC    HS 5293   2.349   2.192   2.026  0.6121  0.4985  0.7940
   65SAPC   O21 5294   2.308   2.127   2.224 -0.4721  0.5740 -0.2215
   65SAPC   C21 5295   2.438   2.096   2.235 -0.0949 -0.4142  0.0127
   65SAPC   O22 5296   2.533   2.139   2.164  0.7894 -0.3668  0.0440
   65SAPC   C22 5297   2.463   1.990   2.337 -0.1564 -0.1043  0.3757
   65SAPC   H2R 5298   2.432   2.028   2.437  1.4573  0.9600  0.4957
   65SAPC   H2S 5299   2.403   1.899   2.312 -1.3142  0.1635  1.9802
   65SAPC    C3 5300   2.146   2.247   2.093  0.0178 -0.4616  0.2464
   65SAPC    HX 5301   2.112   2.275   1.991  0.7739  2.0771  0.6257
   65SAPC    HY 5302   2.182   2.329   2.158 -0.0013 -2.1330  2.4489
   65SAPC   O31 5303   2.040   2.182   2.163 -0.3306  0.1803 -0.0517
   65SAPC   C31 5304   1.952   2.264   2.208  0.7591 -0.2251 -0.2458
   65SAPC   O32 5305   1.943   2.381   2.179 -0.8330 -0.4077  0.4487
   65SAPC   C32 5306   1.858   2.192   2.311 -0.2096  0.0205  0.0986
   65SAPC   H2X 5307   1.913   2.106   2.356  0.8621  0.6559  0.0465
   65SAPC   H2Y 5308   1.778   2.156   2.244  0.4738 -1.5542  0.0917
   65SAPC   C23 5309   2.616   1.947   2.345  0.6422 -0.2022 -0.6605
   65SAPC   H3R 5310   2.667   2.044   2.359  0.0543  0.4085 -2.4551
   65SAPC   H3S 5311   2.647   1.906   2.246  0.8799 -1.0111 -0.2651
   65SAPC   C24 5312   2.660   1.850   2.456  0.8702 -0.1043  0.0641
   65SAPC   H4R 5313   2.765   1.879   2.477  0.8540 -0.2643  0.3735
   65SAPC   H4S 5314   2.669   1.742   2.432 -0.4032 -0.0056 -0.9945
   65SAPC   C25 5315   2.582   1.875   2.585 -0.7603  0.6847  0.8623
   65SAPC   H5R 5316   2.587   1.976   2.628  0.3178  0.2036  1.9377
   65SAPC   C26 5317   2.510   1.775   2.647 -0.1311 -0.2557  0.1429
   65SAPC   H6R 5318   2.448   1.793   2.735 -2.3640 -0.3886 -1.3065
   65SAPC   C27 5319   2.488   1.628   2.606  0.1106 -0.1264  0.1580
   65SAPC   H7R 5320   2.586   1.584   2.579 -0.7592 -2.9505  1.2295
   65SAPC   H7S 5321   2.427   1.631   2.513  1.5880 -1.7923 -0.9169
   65SAPC   C28 5322   2.415   1.534   2.705 -0.6584 -0.3804  0.0628
   65SAPC   H8R 5323   2.314   1.499   2.677 -0.5212 -0.5314 -0.2557
   65SAPC   C29 5324   2.476   1.479   2.812 -0.1354  0.0001 -0.6591
   65SAPC   H9R 5325   2.414   1.430   2.889 -0.9257  0.6242 -0.8956
   65SAPC  C210 5326   2.622   1.488   2.843  0.5527 -0.1416 -0.0077
   65SAPC  H10R 5327   2.645   1.547   2.934  2.4841  1.0647 -1.2067
   65SAPC  H10S 5328   2.680   1.539   2.763 -0.4042 -1.5139 -1.6454
   65SAPC  C211 5329   2.697   1.354   2.843  0.3053  0.1866  0.2233
   65SAPC  H11R 5330   2.711   1.314   2.742 -2.6335  0.2562 -0.3155
   65SAPC  C212 5331   2.715   1.273   2.951 -0.2590 -0.3078 -0.4653
   65SAPC  H12R 5332   2.762   1.175   2.932  1.1456  0.5552 -1.7119
   65SAPC  C213 5333   2.687   1.308   3.098 -0.0040  0.6151  0.7211
   65SAPC  H13R 5334   2.590   1.359   3.118  0.2944  0.5206  2.5782
   65SAPC  H13S 5335   2.760   1.380   3.140  0.1443  1.3608 -0.7425
   65SAPC  C214 5336   2.692   1.184   3.181  0.0561 -0.2657 -0.1481
   65SAPC  H14R 5337   2.790   1.136   3.199 -0.1580 -1.0275 -0.9305
   65SAPC  C215 5338   2.587   1.098   3.206  0.1006 -0.3749  0.1616
   65SAPC  H15R 5339   2.619   1.006   3.258  1.4149 -0.0922 -0.1177
   65SAPC  C216 5340   2.446   1.114   3.145 -0.3481 -1.1417  0.6464
   65SAPC  H16R 5341   2.393   1.017   3.157  0.2456 -1.2608  2.6868
   65SAPC  H16S 5342   2.459   1.122   3.035 -1.1610  2.2792  0.6930
   65SAPC  C217 5343   2.354   1.226   3.202  0.2930 -0.0086  0.1952
   65SAPC  H17R 5344   2.394   1.327   3.180 -0.4472  0.2469 -0.0019
   65SAPC  H17S 5345   2.330   1.221   3.310  1.1353  1.3099  0.4588
   65SAPC  C218 5346   2.223   1.224   3.122  0.7446 -0.5472  0.2311
   65SAPC  H18R 5347   2.181   1.122   3.115 -1.6984  0.4717 -1.0282
   65SAPC  H18S 5348   2.259   1.237   3.018 -0.3483  0.7694 -0.0110
   65SAPC  C219 5349   2.119   1.329   3.156  0.8394 -0.7128  0.5991
   65SAPC  H19R 5350   2.170   1.424   3.184 -0.1643  0.2778 -0.7799
   65SAPC  H19S 5351   2.054   1.300   3.242  0.1338 -1.7114 -0.2539
   65SAPC  C220 5352   2.038   1.349   3.028  0.2843  0.6943  0.5383
   65SAPC  H20R 5353   2.104   1.377   2.943 -1.7878 -0.9940 -1.7989
   65SAPC  H20S 5354   1.955   1.423   3.038 -0.7573 -0.6230  2.2504
   65SAPC  H20T 5355   1.991   1.251   3.009  0.2747  0.9105 -0.6670
   65SAPC   C33 5356   1.785   2.271   2.421  0.1214 -0.1702 -0.4328
   65SAPC   H3X 5357   1.728   2.351   2.370 -0.1442 -0.2057 -0.1919
   65SAPC   H3Y 5358   1.859   2.310   2.495 -1.4595  1.5757  0.3115
   65SAPC   C34 5359   1.680   2.181   2.491 -0.3302  0.6710  0.9809
   65SAPC   H4X 5360   1.588   2.162   2.432  1.0936  0.2139 -1.2078
   65SAPC   H4Y 5361   1.665   2.226   2.591 -1.4679  1.1676  0.5990
   65SAPC   C35 5362   1.735   2.039   2.531  0.6803  0.1512 -0.1871
   65SAPC   H5X 5363   1.830   2.059   2.585  1.7894  2.6326 -2.7466
   65SAPC   H5Y 5364   1.749   1.983   2.436 -0.2574  2.2243 -1.6233
   65SAPC   C36 5365   1.627   1.973   2.618 -0.6287  0.3012  0.0330
   65SAPC   H6X 5366   1.541   1.933   2.561 -3.0748  2.1513  2.1979
   65SAPC   H6Y 5367   1.577   2.040   2.692  0.8982  0.6672  0.7914
   65SAPC   C37 5368   1.692   1.859   2.702  0.4742 -0.4849 -0.3808
   65SAPC   H7X 5369   1.800   1.884   2.711  0.3712 -0.3604  0.6044
   65SAPC   H7Y 5370   1.675   1.765   2.645  2.0950 -0.9800 -0.1038
   65SAPC   C38 5371   1.634   1.849   2.842 -0.0464  0.6394 -0.2001
   65SAPC   H8X 5372   1.530   1.816   2.820  0.1558  0.9244 -1.7246
   65SAPC   H8Y 5373   1.632   1.946   2.896 -2.0361  0.5382 -0.0057
   65SAPC   C39 5374   1.706   1.737   2.924  0.6573 -0.1842 -0.1691
   65SAPC   H9X 5375   1.815   1.757   2.914  0.8034  1.1297  2.9548
   65SAPC   H9Y 5376   1.694   1.641   2.869  0.0101  0.4512 -1.1773
   65SAPC  C310 5377   1.668   1.720   3.064 -0.3047  0.0819 -0.5784
   65SAPC  H10X 5378   1.563   1.684   3.072  0.0661 -0.7513  0.8215
   65SAPC  H10Y 5379   1.683   1.818   3.113 -0.8651 -1.0682  2.0713
   65SAPC  C311 5380   1.749   1.607   3.128  0.6509 -0.5094  0.2465
   65SAPC  H11X 5381   1.851   1.646   3.148  0.9940 -0.8925 -0.7154
   65SAPC  H11Y 5382   1.765   1.519   3.061  0.2178  1.3334 -2.4500
   65SAPC  C312 5383   1.671   1.565   3.256  0.3940 -0.7175 -0.0319
   65SAPC  H12X 5384   1.573   1.522   3.226 -1.0986  0.6294  2.5054
   65SAPC  H12Y 5385   1.649   1.653   3.321 -0.7337 -1.4678  0.6358
   65SAPC  C313 5386   1.728   1.458   3.343  0.2856 -0.2210  0.1231
   65SAPC  H13X 5387   1.732   1.354   3.303  1.4325 -1.3072  2.8036
   65SAPC  H13Y 5388   1.666   1.451   3.435 -2.8761  0.7940 -1.7872
   65SAPC  C314 5389   1.862   1.517   3.382  0.3123 -0.3660  0.3360
   65SAPC  H14X 5390   1.852   1.614   3.435 -1.3410  0.2509 -1.0312
   65SAPC  H14Y 5391   1.931   1.522   3.295 -0.3135  2.1892 -0.0686
   65SAPC  C315 5392   1.927   1.415   3.479  0.8343 -0.2373 -0.4004
   65SAPC  H15X 5393   1.957   1.314   3.443 -1.3157 -1.0468 -0.0175
   65SAPC  H15Y 5394   1.868   1.396   3.571  1.3094  0.2854  0.0216
   65SAPC  C316 5395   2.058   1.479   3.521  0.2091 -0.5281 -0.6041
   65SAPC  H16X 5396   2.037   1.584   3.550  0.4624 -0.6341 -0.0064
   65SAPC  H16Y 5397   2.127   1.473   3.434  1.2550  1.3696  0.0412
   65SAPC  C317 5398   2.127   1.412   3.656  0.2633  0.0847 -1.0808
   65SAPC  H17X 5399   2.113   1.301   3.653  0.9454 -0.2131  2.5163
   65SAPC  H17Y 5400   2.075   1.454   3.744  0.3151 -2.8890  0.5149
   65SAPC  C318 5401   2.274   1.452   3.671  0.1013  1.0250  0.4234
   65SAPC  H18X 5402   2.315   1.422   3.769  3.2731 -1.8713 -1.5585
   65SAPC  H18Y 5403   2.281   1.560   3.647 -0.9426  1.2714  1.1727
   65SAPC  H18Z 5404   2.343   1.405   3.597 -1.2728 -1.7860  0.7864
   66SAPC     N 5405   5.913   3.018   1.294 -0.0208 -0.9197 -0.3063
   66SAPC   C12 5406   5.895   2.873   1.353  0.4868 -0.4287  0.0554
   66SAPC  H12A 5407   5.896   2.811   1.265  3.6440 -2.9483  1.6709
   66SAPC  H12B 5408   5.799   2.856   1.400  0.4487  0.4861  0.3385
   66SAPC   C13 5409   5.790   3.059   1.230  0.0372 -0.5266  0.2724
   66SAPC  H13A 5410   5.745   2.971   1.188  2.2675 -2.2487  1.2265
   66SAPC  H13B 5411   5.738   3.103   1.314 -0.4185  1.8393 -1.1848
   66SAPC  H13C 5412   5.801   3.142   1.162  1.3601  1.6118  2.8751
   66SAPC   C14 5413   5.953   3.119   1.397  0.3293 -0.0057 -0.6086
   66SAPC  H14A 5414   6.029   3.067   1.454  0.4742 -2.4244 -2.8074
   66SAPC  H14B 5415   5.993   3.215   1.366 -1.7007  1.5103  1.1971
   66SAPC  H14C 5416   5.874   3.144   1.466  0.0482 -0.8722 -0.6059
   66SAPC   C15 5417   6.017   3.017   1.183 -0.1668  0.0779  0.5703
   66SAPC  H15A 5418   5.972   2.970   1.097 -1.7236 -1.7948  2.2930
   66SAPC  H15B 5419   6.042   3.116   1.149 -0.1222 -0.5696 -1.4222
   66SAPC  H15C 5420   6.108   2.972   1.221  0.0142 -2.2109 -2.1987
   66SAPC   C11 5421   6.001   2.811   1.448  0.0650  0.3483  0.0383
   66SAPC  H11A 5422   6.100   2.822   1.398  0.9005  1.0569  1.7550
   66SAPC  H11B 5423   5.981   2.702   1.455  2.1056 -0.5005 -4.0769
   66SAPC     P 5424   5.901   2.849   1.676 -0.0597 -0.0079 -0.2706
   66SAPC   O13 5425   5.766   2.877   1.626 -0.2301 -0.5919  0.6112
   66SAPC   O14 5426   5.923   2.711   1.714  0.0721 -0.4303  0.2100
   66SAPC   O12 5427   6.005   2.886   1.571 -0.1784  0.1198  0.4067
   66SAPC   O11 5428   5.934   2.944   1.795  0.1532 -0.1383 -0.1411
   66SAPC    C1 5429   5.853   2.940   1.910 -0.3162 -0.4220 -0.8672
   66SAPC    HA 5430   5.758   2.884   1.902 -0.4258 -0.5304  0.7787
   66SAPC    HB 5431   5.903   2.898   2.000  0.5210 -1.7316 -1.9080
   66SAPC    C2 5432   5.808   3.084   1.946  0.1477 -0.2347 -0.2984
   66SAPC    HS 5433   5.740   3.118   1.865 -0.5719 -0.9658 -0.0043
   66SAPC   O21 5434   5.924   3.167   1.958  0.2493  0.0619 -0.0246
   66SAPC   C21 5435   5.903   3.283   1.900 -0.6137  0.1860 -0.5180
   66SAPC   O22 5436   5.798   3.329   1.853  0.1455  0.3997  0.1887
   66SAPC   C22 5437   6.042   3.356   1.890  0.4155  0.7514  0.7378
   66SAPC   H2R 5438   6.116   3.296   1.834 -1.1691  0.9361 -1.6721
   66SAPC   H2S 5439   6.028   3.436   1.815  3.6459 -1.6834 -2.8060
   66SAPC    C3 5440   5.729   3.094   2.076 -0.3388  0.0305 -0.0060
   66SAPC    HX 5441   5.632   3.043   2.055 -0.5437  0.9160 -1.3156
   66SAPC    HY 5442   5.704   3.202   2.080 -2.0155 -0.0468 -3.8780
   66SAPC   O31 5443   5.807   3.045   2.186 -0.0678 -0.1309 -0.1851
   66SAPC   C31 5444   5.731   3.017   2.291 -0.1657  0.4222  0.8485
   66SAPC   O32 5445   5.609   3.020   2.288  0.3445 -0.2926 -0.5736
   66SAPC   C32 5446   5.818   2.981   2.413 -0.6062  0.0842 -0.3420
   66SAPC   H2X 5447   5.907   3.048   2.420 -1.3779  0.9565  1.9326
   66SAPC   H2Y 5448   5.854   2.878   2.389 -0.7931 -0.2625  0.8253
   66SAPC   C23 5449   6.091   3.403   2.027  0.1562 -0.4593 -0.1473
   66SAPC   H3R 5450   6.180   3.464   2.003  0.5189 -1.8418 -2.6867
   66SAPC   H3S 5451   6.118   3.324   2.100  0.3414  0.6064  0.9738
   66SAPC   C24 5452   5.997   3.502   2.109  0.1470  0.0501 -0.5505
   66SAPC   H4R 5453   6.003   3.605   2.068  0.8235  0.1601 -0.1971
   66SAPC   H4S 5454   6.063   3.512   2.198 -0.5225 -1.8495  0.2129
   66SAPC   C25 5455   5.859   3.449   2.159 -0.5024 -1.0104 -0.8262
   66SAPC   H5R 5456   5.790   3.451   2.073  0.0374  1.5768 -1.2760
   66SAPC   C26 5457   5.824   3.415   2.285 -0.0049 -0.4696 -0.6461
   66SAPC   H6R 5458   5.726   3.366   2.296 -1.0985  1.4994 -1.1244
   66SAPC   C27 5459   5.910   3.428   2.415 -0.3154  0.3475  0.5202
   66SAPC   H7R 5460   6.019   3.438   2.394 -0.1202 -0.8432  0.8847
   66SAPC   H7S 5461   5.891   3.333   2.470 -0.5932  1.7649  3.0602
   66SAPC   C28 5462   5.864   3.549   2.491  0.4193 -0.1724 -0.2707
   66SAPC   H8R 5463   5.896   3.644   2.445  1.7990 -1.3719 -1.9342
   66SAPC   C29 5464   5.793   3.542   2.611  0.1911  0.5542  0.1010
   66SAPC   H9R 5465   5.780   3.632   2.673  2.0973  0.3193  0.9351
   66SAPC  C210 5466   5.745   3.416   2.686  0.8722 -0.2067  0.4529
   66SAPC  H10R 5467   5.778   3.320   2.642  0.5204  0.2705 -0.8920
   66SAPC  H10S 5468   5.635   3.427   2.671  0.9555  1.4040  0.8260
   66SAPC  C211 5469   5.795   3.416   2.828 -0.1196  0.7299  0.5800
   66SAPC  H11R 5470   5.901   3.391   2.841 -0.3770  0.4069  2.2066
   66SAPC  C212 5471   5.730   3.485   2.926  0.7732  0.3587  0.3752
   66SAPC  H12R 5472   5.772   3.495   3.027  2.5198  1.9537 -0.4501
   66SAPC  C213 5473   5.603   3.566   2.913  0.5406 -0.2985  0.0464
   66SAPC  H13R 5474   5.559   3.560   2.811 -2.3287 -0.3309  1.2001
   66SAPC  H13S 5475   5.627   3.674   2.909  0.2418 -0.2596 -0.7182
   66SAPC  C214 5476   5.488   3.536   3.005 -0.1835 -0.1230 -0.3599
   66SAPC  H14R 5477   5.405   3.477   2.963 -0.6487  0.8087 -0.7665
   66SAPC  C215 5478   5.473   3.566   3.134 -0.1874  0.8298 -0.3701
   66SAPC  H15R 5479   5.383   3.538   3.190 -0.1160  0.2569 -0.5383
   66SAPC  C216 5480   5.569   3.644   3.225  0.2389  0.4875 -0.0325
   66SAPC  H16R 5481   5.529   3.746   3.241  0.9083  0.7903 -0.2651
   66SAPC  H16S 5482   5.660   3.659   3.164  0.7895 -2.8878 -0.2247
   66SAPC  C217 5483   5.599   3.596   3.367  0.0247  0.2975 -0.1500
   66SAPC  H17R 5484   5.702   3.634   3.385 -0.2033  0.9946 -0.2952
   66SAPC  H17S 5485   5.588   3.488   3.388  0.9914  0.1812 -0.1740
   66SAPC  C218 5486   5.522   3.678   3.470 -0.8348  0.1069 -0.8440
   66SAPC  H18R 5487   5.550   3.785   3.462  0.3731 -0.1515 -0.3608
   66SAPC  H18S 5488   5.562   3.652   3.571 -1.8425  2.0797  0.1228
   66SAPC  C219 5489   5.370   3.653   3.484  0.2334 -0.4113 -0.3917
   66SAPC  H19R 5490   5.349   3.627   3.591  0.9820 -0.4532 -0.2476
   66SAPC  H19S 5491   5.349   3.556   3.434  1.3496 -0.1866 -1.3302
   66SAPC  C220 5492   5.283   3.769   3.430  0.4023 -0.6023  0.4547
   66SAPC  H20R 5493   5.291   3.771   3.320 -0.8894 -0.4110  0.3511
   66SAPC  H20S 5494   5.308   3.869   3.471 -2.1163 -0.0669  0.8173
   66SAPC  H20T 5495   5.178   3.747   3.458  0.5679 -2.5638 -0.2739
   66SAPC   C33 5496   5.735   3.002   2.541  0.0763 -1.0413 -0.0029
   66SAPC   H3X 5497   5.628   2.972   2.538 -0.3917  0.3088  1.5843
   66SAPC   H3Y 5498   5.726   3.112   2.557 -0.1220 -1.0018 -0.3668
   66SAPC   C34 5499   5.792   2.943   2.665  0.3863  0.6418  0.2853
   66SAPC   H4X 5500   5.901   2.965   2.673  0.7289 -0.7507 -0.1807
   66SAPC   H4Y 5501   5.798   2.834   2.644  1.1355  0.9594 -1.3418
   66SAPC   C35 5502   5.714   2.985   2.786 -0.4352  0.7078 -0.4023
   66SAPC   H5X 5503   5.613   2.942   2.804 -0.1669  0.5781  0.8815
   66SAPC   H5Y 5504   5.691   3.093   2.772  1.4083  0.8260 -3.0393
   66SAPC   C36 5505   5.792   2.968   2.921  0.2921  0.3460  0.6841
   66SAPC   H6X 5506   5.881   3.035   2.922  0.8974 -0.3972 -0.8485
   66SAPC   H6Y 5507   5.842   2.869   2.931 -0.6741 -0.4333 -1.6621
   66SAPC   C37 5508   5.707   2.985   3.049  0.2363 -0.1362  0.3406
   66SAPC   H7X 5509   5.623   2.914   3.036  0.6538 -0.7076  0.7200
   66SAPC   H7Y 5510   5.665   3.085   3.074  1.6508  0.6176 -0.1768
   66SAPC   C38 5511   5.787   2.960   3.175 -0.2677 -0.5442 -0.0886
   66SAPC   H8X 5512   5.858   3.045   3.188  0.2798 -0.1250 -4.3328
   66SAPC   H8Y 5513   5.851   2.871   3.155  0.7911 -0.0244  0.8042
   66SAPC   C39 5514   5.695   2.934   3.289  0.0044  0.2901 -1.1981
   66SAPC   H9X 5515   5.637   2.841   3.307 -2.4982  1.8446 -0.5996
   66SAPC   H9Y 5516   5.610   3.004   3.273  1.1906  2.8763  2.5698
   66SAPC  C310 5517   5.749   2.988   3.420  0.0721  0.7683  0.2258
   66SAPC  H10X 5518   5.661   3.021   3.479  0.0425 -0.0516  0.6713
   66SAPC  H10Y 5519   5.817   3.074   3.409  2.7834 -1.1800  0.6598
   66SAPC  C311 5520   5.820   2.875   3.497  0.5086  0.6024 -0.2634
   66SAPC  H11X 5521   5.900   2.843   3.426  0.0985  0.7111 -0.7813
   66SAPC  H11Y 5522   5.744   2.796   3.510  1.2859 -0.4082 -1.5714
   66SAPC  C312 5523   5.884   2.915   3.640  0.2087  0.1202  0.3954
   66SAPC  H12X 5524   5.943   2.832   3.685  2.9171  1.8007  0.1717
   66SAPC  H12Y 5525   5.803   2.947   3.710 -0.3360  1.4839 -0.8316
   66SAPC  C313 5526   5.982   3.032   3.625 -0.4535 -0.4300  0.2725
   66SAPC  H13X 5527   5.934   3.118   3.573 -0.2823 -0.3819  0.1936
   66SAPC  H13Y 5528   6.067   3.012   3.557 -0.8051 -0.4400 -0.1655
   66SAPC  C314 5529   6.023   3.103   3.757  0.5726 -0.3784  0.2632
   66SAPC  H14X 5530   6.079   3.025   3.813  1.4353 -0.6534 -0.9366
   66SAPC  H14Y 5531   5.932   3.134   3.813  0.6293 -0.2925  0.3063
   66SAPC  C315 5532   6.126   3.217   3.737  0.2797 -0.3588  0.6716
   66SAPC  H15X 5533   6.220   3.186   3.687  0.2132  1.8335 -0.9357
   66SAPC  H15Y 5534   6.150   3.259   3.838  0.6867 -0.3410  0.5722
   66SAPC  C316 5535   6.075   3.346   3.673 -0.3731 -0.0488  0.0792
   66SAPC  H16X 5536   6.053   3.337   3.565  0.1960 -1.1726  0.0476
   66SAPC  H16Y 5537   6.160   3.417   3.677 -0.7347  0.3647  3.4091
   66SAPC  C317 5538   5.955   3.406   3.743  0.8227 -0.2034 -0.2546
   66SAPC  H17X 5539   5.976   3.405   3.852 -0.4865  1.4106  0.0473
   66SAPC  H17Y 5540   5.866   3.345   3.718 -1.0312  2.8827 -1.8353
   66SAPC  C318 5541   5.914   3.553   3.711 -0.5071 -0.5970 -0.1786
   66SAPC  H18X 5542   5.813   3.582   3.745 -1.1477  2.5598 -3.9904
   66SAPC  H18Y 5543   5.907   3.562   3.600 -1.5865  1.4666 -0.0111
   66SAPC  H18Z 5544   5.984   3.631   3.749 -2.0047  1.0702 -0.7176
   67SAPC     N 5545   1.802   1.827   1.753  0.3734  0.5138  0.2862
   67SAPC   C12 5546   1.776   1.905   1.873 -0.6951 -0.4665 -0.1326
   67SAPC  H12A 5547   1.809   1.843   1.955  0.8136 -0.1119 -0.4453
   67SAPC  H12B 5548   1.671   1.917   1.894 -0.2328  2.7664  0.9016
   67SAPC   C13 5549   1.691   1.726   1.730 -0.1861  0.0419  0.0018
   67SAPC  H13A 5550   1.606   1.771   1.681  0.2416 -0.2738 -1.0571
   67SAPC  H13B 5551   1.725   1.635   1.681  0.2752  0.2252 -0.0266
   67SAPC  H13C 5552   1.645   1.701   1.824 -0.5543  1.2771  0.1593
   67SAPC   C14 5553   1.801   1.914   1.637  0.4393 -0.1912 -0.1108
   67SAPC  H14A 5554   1.717   1.982   1.636  0.4423 -0.1769  0.3724
   67SAPC  H14B 5555   1.891   1.974   1.643 -0.1343  0.6671  0.1774
   67SAPC  H14C 5556   1.798   1.854   1.547 -0.2065 -1.1297  0.5194
   67SAPC   C15 5557   1.931   1.754   1.759  0.3802 -0.3605  0.5171
   67SAPC  H15A 5558   1.945   1.691   1.673  0.3248 -1.7995  1.5310
   67SAPC  H15B 5559   2.014   1.822   1.772 -1.1012  1.4619  1.0461
   67SAPC  H15C 5560   1.939   1.685   1.842 -0.2031 -0.9569  0.0893
   67SAPC   C11 5561   1.855   2.045   1.889 -0.3130 -0.2535  0.0758
   67SAPC  H11A 5562   1.959   2.030   1.855  0.1290 -0.0935  1.3053
   67SAPC  H11B 5563   1.859   2.060   1.999  0.9625  0.7380 -0.0908
   67SAPC     P 5564   1.628   2.196   1.890 -0.1800  0.1245 -0.0625
   67SAPC   O13 5565   1.622   2.342   1.906  0.1538  0.1336 -0.4021
   67SAPC   O14 5566   1.544   2.120   1.799 -0.1485  0.1639 -0.0718
   67SAPC   O12 5567   1.781   2.157   1.826 -0.2329  0.1151  0.1271
   67SAPC   O11 5568   1.619   2.125   2.029  0.3286  0.4954 -0.1609
   67SAPC    C1 5569   1.493   2.083   2.073  1.0577 -0.1001  0.3577
   67SAPC    HA 5570   1.436   2.035   1.991  1.9437 -0.5161 -0.0233
   67SAPC    HB 5571   1.513   2.012   2.156  0.4643  0.1717  0.7425
   67SAPC    C2 5572   1.388   2.188   2.113  0.1226  0.4093  0.7414
   67SAPC    HS 5573   1.379   2.260   2.029 -0.5928 -0.6461 -0.1099
   67SAPC   O21 5574   1.408   2.250   2.240 -0.4971 -0.0561  0.1699
   67SAPC   C21 5575   1.427   2.378   2.240 -0.3448 -0.2865 -0.1804
   67SAPC   O22 5576   1.446   2.451   2.146  0.1617 -0.0731 -0.0284
   67SAPC   C22 5577   1.425   2.434   2.388 -0.0293  0.2142 -0.7987
   67SAPC   H2R 5578   1.375   2.366   2.460  2.6109  1.2208  2.2102
   67SAPC   H2S 5579   1.533   2.433   2.415  0.1208  3.7083 -0.8750
   67SAPC    C3 5580   1.247   2.124   2.128  1.3504  0.2192  0.6705
   67SAPC    HX 5581   1.233   2.072   2.031  1.0699  1.4367  0.0419
   67SAPC    HY 5582   1.176   2.210   2.127  1.5620  0.3925 -0.7869
   67SAPC   O31 5583   1.237   2.038   2.241  0.3116 -0.1355  0.1886
   67SAPC   C31 5584   1.207   2.092   2.356  0.1979 -0.3350 -0.3837
   67SAPC   O32 5585   1.162   2.203   2.377  0.5131  0.1147  0.0904
   67SAPC   C32 5586   1.231   1.987   2.469  0.4786 -0.5264  0.0008
   67SAPC   H2X 5587   1.342   1.990   2.459  0.3628  2.8542 -1.6374
   67SAPC   H2Y 5588   1.177   1.893   2.445  0.4621 -0.6399  0.4709
   67SAPC   C23 5589   1.369   2.578   2.394  0.2103  0.3389  0.0222
   67SAPC   H3R 5590   1.286   2.588   2.320  2.0792 -1.3099 -2.4826
   67SAPC   H3S 5591   1.450   2.646   2.361  2.3383 -0.9696  2.3027
   67SAPC   C24 5592   1.327   2.594   2.538 -0.2617 -0.6073  0.0966
   67SAPC   H4R 5593   1.414   2.583   2.606 -0.8821  0.6412  1.1595
   67SAPC   H4S 5594   1.257   2.511   2.563  0.1009 -1.1760 -0.7344
   67SAPC   C25 5595   1.269   2.736   2.562 -1.2418 -0.1217  0.5779
   67SAPC   H5R 5596   1.196   2.762   2.484  1.0189  0.6153 -1.3795
   67SAPC   C26 5597   1.308   2.818   2.654  0.4698 -0.0506  0.5490
   67SAPC   H6R 5598   1.266   2.920   2.655 -2.1097 -0.9497 -1.9484
   67SAPC   C27 5599   1.409   2.800   2.765  0.1119 -0.7173  0.8647
   67SAPC   H7R 5600   1.504   2.849   2.735  0.2233 -0.4403  1.6206
   67SAPC   H7S 5601   1.434   2.692   2.772  0.9269 -0.6873 -1.0911
   67SAPC   C28 5602   1.361   2.850   2.901 -0.4528 -0.2161  0.6025
   67SAPC   H8R 5603   1.259   2.884   2.882 -0.6669 -2.0144 -2.1546
   67SAPC   C29 5604   1.425   2.836   3.020 -0.2120 -0.7775  0.5919
   67SAPC   H9R 5605   1.363   2.866   3.105  0.4603  0.3486  0.6969
   67SAPC  C210 5606   1.551   2.760   3.060 -0.0812  0.1482  0.4042
   67SAPC  H10R 5607   1.596   2.727   2.963 -0.0721 -1.9877  1.0850
   67SAPC  H10S 5608   1.528   2.672   3.123  3.5957 -0.4785  1.1144
   67SAPC  C211 5609   1.659   2.841   3.126 -0.0236 -0.0736 -0.1085
   67SAPC  H11R 5610   1.690   2.934   3.076  0.9961 -0.3372 -0.0059
   67SAPC  C212 5611   1.720   2.805   3.239  0.1245 -0.3521 -0.8379
   67SAPC  H12R 5612   1.808   2.860   3.274  0.8662 -1.7180 -0.4736
   67SAPC  C213 5613   1.692   2.677   3.326 -0.8032 -0.4474  0.3202
   67SAPC  H13R 5614   1.781   2.667   3.392 -0.3597 -1.2412 -0.3778
   67SAPC  H13S 5615   1.692   2.584   3.266 -0.8174  0.7057 -1.5643
   67SAPC  C214 5616   1.575   2.687   3.409 -0.4443  0.4268  0.1691
   67SAPC  H14R 5617   1.479   2.695   3.355 -0.7948 -0.0553  0.6979
   67SAPC  C215 5618   1.575   2.680   3.543 -0.2113 -0.1410  0.5018
   67SAPC  H15R 5619   1.474   2.667   3.584 -0.8620 -2.8422 -1.7154
   67SAPC  C216 5620   1.690   2.663   3.636  0.2355 -0.7680 -0.4720
   67SAPC  H16R 5621   1.768   2.730   3.594 -0.7215  1.8341  1.6015
   67SAPC  H16S 5622   1.733   2.561   3.637  0.8089 -0.5331  1.6236
   67SAPC  C217 5623   1.641   2.678   3.781 -0.4539  0.0172  0.3502
   67SAPC  H17R 5624   1.583   2.773   3.792  1.5518  1.5580 -1.3255
   67SAPC  H17S 5625   1.733   2.700   3.840 -0.1624 -0.8255  0.2212
   67SAPC  C218 5626   1.572   2.550   3.833 -0.3760 -0.1322 -0.3082
   67SAPC  H18R 5627   1.656   2.504   3.889  1.9011  0.2352 -3.1608
   67SAPC  H18S 5628   1.548   2.488   3.744  1.6488 -2.0882  0.4289
   67SAPC  C219 5629   1.453   2.584   3.915  0.3438 -0.0881 -0.5667
   67SAPC  H19R 5630   1.473   2.665   3.988  3.6818 -1.2044 -0.0774
   67SAPC  H19S 5631   1.426   2.491   3.970 -2.8192  0.3378 -1.1855
   67SAPC  C220 5632   1.322   2.615   3.843  0.6512 -0.3709  0.4709
   67SAPC  H20R 5633   1.295   2.548   3.758  0.0302  0.2688  0.1521
   67SAPC  H20S 5634   1.323   2.713   3.792  2.7038 -0.4841  0.2160
   67SAPC  H20T 5635   1.235   2.621   3.912 -0.5399 -1.2375 -0.8883
   67SAPC   C33 5636   1.187   2.048   2.602 -0.2326  0.9479 -0.1456
   67SAPC   H3X 5637   1.076   2.048   2.594 -0.2038 -1.4814 -1.5425
   67SAPC   H3Y 5638   1.233   2.148   2.616  0.5439  0.7436 -1.1312
   67SAPC   C34 5639   1.241   1.968   2.723 -0.5829 -0.1446 -0.0956
   67SAPC   H4X 5640   1.345   1.935   2.701 -0.9103 -1.1728 -0.1956
   67SAPC   H4Y 5641   1.192   1.868   2.725 -0.2735 -0.3861 -2.2407
   67SAPC   C35 5642   1.214   2.048   2.851 -0.2920  0.2807  0.5084
   67SAPC   H5X 5643   1.108   2.080   2.841 -1.1368 -2.4721 -0.2068
   67SAPC   H5Y 5644   1.261   2.148   2.866 -1.4255  1.0235 -0.6634
   67SAPC   C36 5645   1.235   1.978   2.986 -0.2301 -0.2202  0.2066
   67SAPC   H6X 5646   1.345   1.978   2.999 -0.0733  1.7600 -0.6167
   67SAPC   H6Y 5647   1.203   1.873   2.968  0.3129 -0.1308 -1.4957
   67SAPC   C37 5648   1.158   2.024   3.110  0.1814  0.5170 -0.0180
   67SAPC   H7X 5649   1.061   1.972   3.124  0.8501 -0.7829 -0.0813
   67SAPC   H7Y 5650   1.140   2.133   3.107 -2.0453  0.1824 -0.7381
   67SAPC   C38 5651   1.229   2.000   3.244 -0.8458  0.3103 -0.2065
   67SAPC   H8X 5652   1.308   2.077   3.252 -0.8934  0.1915  2.5741
   67SAPC   H8Y 5653   1.266   1.895   3.238 -1.4011 -0.0415  1.6877
   67SAPC   C39 5654   1.142   2.018   3.369  0.2191 -0.0250 -0.2127
   67SAPC   H9X 5655   1.209   1.969   3.442  2.0604  1.1889 -1.0210
   67SAPC   H9Y 5656   1.041   1.974   3.354 -0.1475  0.9266 -0.6672
   67SAPC  C310 5657   1.139   2.168   3.404  1.0626 -0.0062  0.3384
   67SAPC  H10X 5658   1.062   2.220   3.343  0.8439  0.4006  0.9573
   67SAPC  H10Y 5659   1.238   2.214   3.387 -0.1139  2.8409  0.5293
   67SAPC  C311 5660   1.096   2.207   3.545  0.1381  0.2546 -0.8228
   67SAPC  H11X 5661   1.011   2.145   3.577  2.8247 -2.1290  2.3750
   67SAPC  H11Y 5662   1.086   2.318   3.551  0.4477  0.2099  2.4459
   67SAPC  C312 5663   1.203   2.179   3.647 -1.1324  0.4220  0.2107
   67SAPC  H12X 5664   1.291   2.246   3.631 -1.1284 -0.2914 -3.7299
   67SAPC  H12Y 5665   1.245   2.078   3.628 -2.0789  0.3475 -1.7170
   67SAPC  C313 5666   1.170   2.199   3.791 -0.0036 -0.2147  0.0198
   67SAPC  H13X 5667   1.107   2.111   3.818 -0.6602  0.2259 -0.0534
   67SAPC  H13Y 5668   1.117   2.296   3.797  0.6722  0.3895 -2.5660
   67SAPC  C314 5669   1.294   2.206   3.870 -0.5390 -0.0502 -0.4405
   67SAPC  H14X 5670   1.350   2.293   3.830 -0.9840  1.5416  2.1680
   67SAPC  H14Y 5671   1.346   2.114   3.837  1.2959  0.7839 -0.0397
   67SAPC  C315 5672   1.268   2.208   4.022 -0.2280 -0.1085  0.7841
   67SAPC  H15X 5673   1.197   2.125   4.038  0.0035 -0.3300  0.6687
   67SAPC  H15Y 5674   1.211   2.299   4.052 -0.7255  0.1354 -0.8463
   67SAPC  C316 5675   1.395   2.196   4.110  0.3381  0.7153 -0.0598
   67SAPC  H16X 5676   1.421   2.300   4.139  1.3244  0.2029  0.9454
   67SAPC  H16Y 5677   1.479   2.148   4.056  0.5250  0.5437  0.3815
   67SAPC  C317 5678   1.370   2.116   4.241  0.3199 -0.4541  0.6119
   67SAPC  H17X 5679   1.374   2.011   4.206 -0.6860  0.1521 -1.4794
   67SAPC  H17Y 5680   1.265   2.139   4.268  0.4206  1.0714 -0.2088
   67SAPC  C318 5681   1.473   2.142   4.347 -0.4414  0.0676  0.2861
   67SAPC  H18X 5682   1.457   2.248   4.377 -1.3308 -0.2160  0.8295
   67SAPC  H18Y 5683   1.571   2.122   4.299 -0.9736 -2.0095 -0.0482
   67SAPC  H18Z 5684   1.455   2.079   4.437 -3.2230  0.2987 -0.0356
   68SAPC     N 5685   4.246   0.217   1.879  0.3272  0.0436 -1.0181
   68SAPC   C12 5686   4.257   0.348   1.960 -0.1268  0.1827  0.0702
   68SAPC  H12A 5687   4.317   0.420   1.906  2.1795 -1.2115  0.6360
   68SAPC  H12B 5688   4.308   0.323   2.052 -1.2060 -0.2996  0.5544
   68SAPC   C13 5689   4.384   0.164   1.866  0.3673  0.3677 -0.5113
   68SAPC  H13A 5690   4.383   0.094   1.784 -0.0557  1.6657 -1.6442
   68SAPC  H13B 5691   4.454   0.244   1.845  2.1560 -0.4013  1.9332
   68SAPC  H13C 5692   4.421   0.101   1.946  0.3841  0.0105 -0.7980
   68SAPC   C14 5693   4.147   0.130   1.954 -0.5833 -0.0991  0.5268
   68SAPC  H14A 5694   4.064   0.192   1.985 -0.4399  0.2830  0.1558
   68SAPC  H14B 5695   4.102   0.059   1.886 -1.5150  0.2848  0.7285
   68SAPC  H14C 5696   4.192   0.094   2.045 -0.4035  1.0535  0.9088
   68SAPC   C15 5697   4.196   0.262   1.744 -0.5523  1.5698  0.7135
   68SAPC  H15A 5698   4.169   0.179   1.680 -0.0777  1.0147  1.2156
   68SAPC  H15B 5699   4.113   0.330   1.731  0.4277  2.6115 -0.2732
   68SAPC  H15C 5700   4.275   0.315   1.692 -1.6258  2.0257 -0.5150
   68SAPC   C11 5701   4.124   0.427   1.992  0.3164 -0.0504  0.1933
   68SAPC  H11A 5702   4.160   0.508   2.059 -0.2325  0.8993 -0.6468
   68SAPC  H11B 5703   4.051   0.360   2.044  0.0397  0.2704  0.2205
   68SAPC     P 5704   4.106   0.630   1.828  0.2829  0.0624  0.1830
   68SAPC   O13 5705   4.252   0.649   1.843 -0.0468  0.0612 -0.0693
   68SAPC   O14 5706   4.052   0.646   1.691 -0.1438  0.0747 -0.6642
   68SAPC   O12 5707   4.064   0.484   1.874 -0.2454 -0.3397 -0.4394
   68SAPC   O11 5708   4.028   0.724   1.922  0.5410 -0.6417 -0.4086
   68SAPC    C1 5709   3.898   0.684   1.966  0.4682 -0.9642 -0.3173
   68SAPC    HA 5710   3.844   0.643   1.878  1.2845  1.5337 -2.0934
   68SAPC    HB 5711   3.906   0.610   2.048  0.1496 -0.3335  0.2913
   68SAPC    C2 5712   3.808   0.802   2.009 -0.2808 -0.2054  0.1637
   68SAPC    HS 5713   3.807   0.880   1.930  0.9050  1.4338  1.6905
   68SAPC   O21 5714   3.857   0.871   2.124 -0.4526  0.2821  0.1773
   68SAPC   C21 5715   3.808   0.993   2.137 -0.7080  0.0408 -0.3210
   68SAPC   O22 5716   3.728   1.039   2.062  0.3776  0.1976  0.3350
   68SAPC   C22 5717   3.876   1.064   2.259  0.7295  0.1703  0.2719
   68SAPC   H2R 5718   3.984   1.073   2.235  0.9928 -2.5862  0.1741
   68SAPC   H2S 5719   3.831   1.165   2.269  1.4079  0.4171  0.9199
   68SAPC    C3 5720   3.654   0.746   2.023 -0.6806 -0.0602  0.3345
   68SAPC    HX 5721   3.630   0.720   1.918  1.8377  1.4192 -0.7004
   68SAPC    HY 5722   3.596   0.833   2.061 -0.9516 -0.6521  1.3144
   68SAPC   O31 5723   3.644   0.627   2.105  0.1880  0.0271 -0.2512
   68SAPC   C31 5724   3.622   0.636   2.242 -0.2695 -0.4377 -0.2093
   68SAPC   O32 5725   3.591   0.739   2.298  0.8960  0.2731  0.3475
   68SAPC   C32 5726   3.632   0.503   2.311  0.2645  0.8287 -0.0592
   68SAPC   H2X 5727   3.606   0.424   2.238  0.4637 -0.7897  1.5258
   68SAPC   H2Y 5728   3.549   0.498   2.385 -1.6257  0.1965 -2.1373
   68SAPC   C23 5729   3.864   0.989   2.395  0.4633  0.7537  0.0323
   68SAPC   H3R 5730   3.948   1.029   2.457 -0.2347 -1.0293  2.2768
   68SAPC   H3S 5731   3.900   0.884   2.388 -0.8189  0.3722 -1.4189
   68SAPC   C24 5732   3.717   1.002   2.441  0.0008  0.1489  0.5655
   68SAPC   H4R 5733   3.646   0.973   2.361  1.2343  0.6254 -0.7455
   68SAPC   H4S 5734   3.700   1.110   2.458 -3.2758 -0.0926 -0.5282
   68SAPC   C25 5735   3.698   0.911   2.557 -0.5537 -0.1270 -0.0394
   68SAPC   H5R 5736   3.625   0.831   2.536 -2.6304  1.5696  0.4274
   68SAPC   C26 5737   3.728   0.943   2.686 -0.1230 -0.4898  0.3415
   68SAPC   H6R 5738   3.710   0.872   2.768 -0.0847 -1.4107 -0.4419
   68SAPC   C27 5739   3.793   1.075   2.723 -0.1176 -0.1619 -0.3634
   68SAPC   H7R 5740   3.745   1.121   2.812  1.8854 -0.8394  1.1383
   68SAPC   H7S 5741   3.780   1.157   2.650  1.4150  0.7735  0.3708
   68SAPC   C28 5742   3.942   1.060   2.745  0.5601 -0.6014  0.7843
   68SAPC   H8R 5743   3.998   1.083   2.653 -1.5602  2.0217  0.0180
   68SAPC   C29 5744   4.008   1.022   2.850 -0.5801  0.6399 -0.4806
   68SAPC   H9R 5745   4.116   1.002   2.842 -0.5834  1.0800 -1.9145
   68SAPC  C210 5746   3.941   0.999   2.983 -0.4393 -0.3456  0.3517
   68SAPC  H10R 5747   3.899   0.896   2.981  0.7965 -0.8635  0.0196
   68SAPC  H10S 5748   3.856   1.070   2.991 -0.0062  0.4603 -1.5566
   68SAPC  C211 5749   4.038   1.006   3.097 -0.0448 -0.3658  0.3404
   68SAPC  H11R 5750   4.123   0.935   3.096  2.1268  2.1064  0.1932
   68SAPC  C212 5751   4.038   1.080   3.215  0.1841 -0.0323 -0.3391
   68SAPC  H12R 5752   4.122   1.075   3.286 -1.7006 -2.2057  1.9638
   68SAPC  C213 5753   3.939   1.179   3.252  0.5485 -0.1437  0.9795
   68SAPC  H13R 5754   3.850   1.181   3.185 -0.1705  4.3016  1.7990
   68SAPC  H13S 5755   3.983   1.280   3.241  0.0010 -0.0312 -0.4276
   68SAPC  C214 5756   3.908   1.173   3.398  0.6135  0.3428  0.3534
   68SAPC  H14R 5757   3.992   1.175   3.469 -0.1482 -1.9273  1.4472
   68SAPC  C215 5758   3.780   1.163   3.448  0.2865  0.4740 -0.2143
   68SAPC  H15R 5759   3.777   1.176   3.557  3.6682 -0.0147  0.0676
   68SAPC  C216 5760   3.652   1.159   3.376  0.1575  0.5620  0.0080
   68SAPC  H16R 5761   3.657   1.235   3.295  0.6326  0.3094 -0.2090
   68SAPC  H16S 5762   3.561   1.177   3.437 -0.8918 -3.4408 -0.1149
   68SAPC  C217 5763   3.630   1.024   3.316  0.6788  0.1167  0.2103
   68SAPC  H17R 5764   3.608   0.954   3.400 -0.8061 -0.9387 -0.9909
   68SAPC  H17S 5765   3.722   0.988   3.265  0.2436  1.5411 -1.6963
   68SAPC  C218 5766   3.522   1.015   3.214  0.1032 -0.8869 -0.2642
   68SAPC  H18R 5767   3.423   1.045   3.255  0.8437 -0.2585  1.1310
   68SAPC  H18S 5768   3.506   0.906   3.203 -1.6812 -0.8026  0.9925
   68SAPC  C219 5769   3.546   1.084   3.073  0.2451  0.8569 -1.2185
   68SAPC  H19R 5770   3.656   1.079   3.057  0.7217  0.8624  1.6019
   68SAPC  H19S 5771   3.509   1.188   3.084  0.6280  0.7805  1.2524
   68SAPC  C220 5772   3.467   1.014   2.957 -0.8821 -0.3373 -0.2736
   68SAPC  H20R 5773   3.495   0.906   2.959  2.5759  0.4376  2.5763
   68SAPC  H20S 5774   3.492   1.051   2.856  2.4002 -1.4875  0.0088
   68SAPC  H20T 5775   3.357   1.027   2.968 -0.6970  0.5746  0.5639
   68SAPC   C33 5776   3.773   0.476   2.369 -0.0623 -0.4861 -0.3490
   68SAPC   H3X 5777   3.851   0.482   2.290  0.9766 -0.3611  0.6545
   68SAPC   H3Y 5778   3.786   0.370   2.400 -0.6473 -0.4254  0.1043
   68SAPC   C34 5779   3.811   0.557   2.497 -0.2206 -0.1584  0.1754
   68SAPC   H4X 5780   3.804   0.667   2.485  1.5091  0.1266  1.4539
   68SAPC   H4Y 5781   3.914   0.534   2.531 -0.2820  1.2782  1.4724
   68SAPC   C35 5782   3.723   0.513   2.618 -0.3486  0.5829  0.8207
   68SAPC   H5X 5783   3.720   0.402   2.618  1.4255  0.3837 -2.6424
   68SAPC   H5Y 5784   3.621   0.556   2.612  0.1312  1.6994  0.2954
   68SAPC   C36 5785   3.778   0.544   2.756 -0.7822 -0.2516  0.4736
   68SAPC   H6X 5786   3.772   0.654   2.772  1.5765 -0.0488  0.4129
   68SAPC   H6Y 5787   3.887   0.521   2.751 -0.1641  2.1837  1.1536
   68SAPC   C37 5788   3.719   0.457   2.875  0.7373 -0.8100 -0.0020
   68SAPC   H7X 5789   3.725   0.350   2.845  3.3735 -1.1547  1.4691
   68SAPC   H7Y 5790   3.613   0.489   2.889  1.6547  1.4865  2.5715
   68SAPC   C38 5791   3.784   0.474   3.011 -0.4458 -0.3843  0.2525
   68SAPC   H8X 5792   3.885   0.428   3.011 -1.2527 -2.2915  1.4424
   68SAPC   H8Y 5793   3.720   0.418   3.082 -2.5795  0.7532 -0.6893
   68SAPC   C39 5794   3.786   0.617   3.075 -0.2153  0.4841  0.2253
   68SAPC   H9X 5795   3.685   0.662   3.073  0.3918  2.0489 -2.9816
   68SAPC   H9Y 5796   3.848   0.684   3.011  1.1151 -0.6713  0.2418
   68SAPC  C310 5797   3.834   0.614   3.219  0.4380 -0.0189  0.6309
   68SAPC  H10X 5798   3.942   0.593   3.235  0.8589  1.4770 -0.1116
   68SAPC  H10Y 5799   3.769   0.540   3.270 -1.0350  0.8808  0.1175
   68SAPC  C311 5800   3.812   0.746   3.290 -0.2151  0.1860 -0.1201
   68SAPC  H11X 5801   3.710   0.782   3.265 -0.1938 -0.5797 -1.3917
   68SAPC  H11Y 5802   3.891   0.814   3.252 -0.0264  0.5757  0.9384
   68SAPC  C312 5803   3.823   0.743   3.450  0.4399  0.0661 -0.2850
   68SAPC  H12X 5804   3.732   0.702   3.499 -0.2142 -1.0532 -2.2954
   68SAPC  H12Y 5805   3.826   0.849   3.483 -1.3521  0.5102 -1.4065
   68SAPC  C313 5806   3.945   0.675   3.507  0.2479  0.3212  0.7382
   68SAPC  H13X 5807   4.042   0.713   3.467 -0.7718  0.6835 -1.5529
   68SAPC  H13Y 5808   3.937   0.567   3.483 -1.5731  0.5757  0.0269
   68SAPC  C314 5809   3.951   0.686   3.666  0.0291 -0.3916  0.3204
   68SAPC  H14X 5810   3.979   0.790   3.693  0.6099 -0.4812  0.0987
   68SAPC  H14Y 5811   4.046   0.635   3.695 -0.3609 -0.5287  1.3801
   68SAPC  C315 5812   3.833   0.640   3.750  0.0374 -0.4160 -0.1356
   68SAPC  H15X 5813   3.834   0.529   3.749  0.2556 -0.4329  0.8559
   68SAPC  H15Y 5814   3.736   0.684   3.717  0.6243  0.2129 -1.0987
   68SAPC  C316 5815   3.863   0.670   3.898 -0.4690  0.5437 -0.2920
   68SAPC  H16X 5816   3.904   0.768   3.932  0.2859  0.0743  0.1761
   68SAPC  H16Y 5817   3.942   0.593   3.915  1.0207  1.8376 -1.0397
   68SAPC  C317 5818   3.746   0.633   4.006  0.1187 -0.1081  0.2572
   68SAPC  H17X 5819   3.786   0.635   4.109  1.1096 -0.7531 -0.1036
   68SAPC  H17Y 5820   3.711   0.531   3.979 -1.6167 -0.2132  2.6109
   68SAPC  C318 5821   3.635   0.738   4.000  0.6532  0.2697  0.7952
   68SAPC  H18X 5822   3.670   0.843   3.991 -0.2391  0.3679 -2.6756
   68SAPC  H18Y 5823   3.560   0.729   4.082 -1.9795 -1.8158 -1.6620
   68SAPC  H18Z 5824   3.572   0.716   3.911 -0.1495  2.0651  0.8710
   69SAPC     N 5825   4.046   6.764   1.697 -0.3524 -0.0923  0.2311
   69SAPC   C12 5826   4.146   6.652   1.652 -0.3718 -0.0286  0.3821
   69SAPC  H12A 5827   4.244   6.695   1.665 -1.1035  1.8285 -0.0220
   69SAPC  H12B 5828   4.126   6.637   1.547  1.6341  0.8618 -0.1750
   69SAPC   C13 5829   4.054   6.876   1.606 -0.2244 -0.2041 -0.2256
   69SAPC  H13A 5830   4.025   6.857   1.504 -0.7482  2.0688 -0.5527
   69SAPC  H13B 5831   3.985   6.956   1.626 -0.7855  0.3093 -3.6632
   69SAPC  H13C 5832   4.157   6.909   1.608 -0.1936 -0.2300 -1.0506
   69SAPC   C14 5833   3.907   6.710   1.714 -0.0952 -0.0613 -1.2271
   69SAPC  H14A 5834   3.850   6.732   1.624  0.2061  1.2822 -1.1061
   69SAPC  H14B 5835   3.906   6.605   1.740 -0.8403  0.2692  0.1524
   69SAPC  H14C 5836   3.854   6.752   1.798  1.5805  0.9346 -0.6317
   69SAPC   C15 5837   4.091   6.807   1.832 -0.2038  0.3112 -0.7014
   69SAPC  H15A 5838   4.094   6.719   1.894  2.0572  0.2409 -0.8471
   69SAPC  H15B 5839   4.189   6.850   1.823 -0.6671  1.2158 -1.7549
   69SAPC  H15C 5840   4.016   6.869   1.880 -1.2115 -1.0129 -0.4931
   69SAPC   C11 5841   4.149   6.517   1.728  0.3790 -0.1324 -0.2566
   69SAPC  H11A 5842   4.224   6.453   1.678  2.0485  1.1346  0.5378
   69SAPC  H11B 5843   4.048   6.472   1.713  1.2143 -1.8047 -1.1026
   69SAPC     P 5844   4.312   6.555   1.929  0.3444  0.2059  0.0416
   69SAPC   O13 5845   4.363   6.427   1.996  0.7885  0.1198  0.0858
   69SAPC   O14 5846   4.393   6.610   1.817 -0.3817 -0.0773  0.1934
   69SAPC   O12 5847   4.168   6.529   1.875  0.2625 -0.1137  0.3323
   69SAPC   O11 5848   4.295   6.678   2.029  0.0749  0.5937  0.2875
   69SAPC    C1 5849   4.230   6.672   2.156 -0.1850  0.5231 -0.4446
   69SAPC    HA 5850   4.143   6.740   2.154  1.0478  2.1374 -0.8110
   69SAPC    HB 5851   4.209   6.567   2.186 -0.1283  0.3239 -1.0796
   69SAPC    C2 5852   4.321   6.733   2.265 -0.3602  0.0063 -0.0535
   69SAPC    HS 5853   4.423   6.689   2.263  0.8360  2.6125 -0.8080
   69SAPC   O21 5854   4.259   6.722   2.394 -0.1092 -0.0331  0.2120
   69SAPC   C21 5855   4.264   6.603   2.448 -0.0030  0.3839 -0.2180
   69SAPC   O22 5856   4.309   6.502   2.396  0.1981  0.2487 -0.0767
   69SAPC   C22 5857   4.190   6.596   2.585  0.0697  0.7324 -0.2150
   69SAPC   H2R 5858   4.263   6.612   2.668  0.7409  2.3696 -1.0573
   69SAPC   H2S 5859   4.111   6.674   2.585  0.2894  0.9836 -1.4973
   69SAPC    C3 5860   4.348   6.886   2.233 -0.2708  0.3874  0.4670
   69SAPC    HX 5861   4.246   6.924   2.211  0.0004  0.4912 -0.6677
   69SAPC    HY 5862   4.417   6.885   2.145 -0.6339 -3.3177  0.0617
   69SAPC   O31 5863   4.413   6.953   2.337 -0.0817 -0.6647 -0.3843
   69SAPC   C31 5864   4.338   7.006   2.429 -0.6757 -0.6660 -0.3929
   69SAPC   O32 5865   4.217   7.018   2.422  0.4935 -0.4077 -0.7691
   69SAPC   C32 5866   4.423   7.052   2.545 -0.2931  0.8490  0.7083
   69SAPC   H2X 5867   4.463   7.149   2.508  0.9170 -0.4942 -1.7786
   69SAPC   H2Y 5868   4.504   6.982   2.575 -0.7363 -1.8715 -3.4685
   69SAPC   C23 5869   4.120   6.459   2.588  0.1842 -0.3020  0.3011
   69SAPC   H3R 5870   4.191   6.375   2.570 -1.0764 -1.6688  1.3903
   69SAPC   H3S 5871   4.035   6.451   2.517 -0.8843 -1.0689  1.5892
   69SAPC   C24 5872   4.072   6.431   2.734  0.2165 -0.1587  0.0845
   69SAPC   H4R 5873   4.022   6.528   2.755  0.3141 -0.2975  1.0029
   69SAPC   H4S 5874   4.163   6.428   2.798 -0.1301  0.7873  0.6411
   69SAPC   C25 5875   3.972   6.320   2.755 -0.5826 -0.2286 -0.3797
   69SAPC   H5R 5876   4.006   6.229   2.704  1.3111  0.5473 -0.5953
   69SAPC   C26 5877   3.855   6.321   2.821 -0.0324  0.0099  0.4214
   69SAPC   H6R 5878   3.793   6.230   2.831 -1.8540  1.4120  3.4246
   69SAPC   C27 5879   3.794   6.444   2.888  0.0244  0.2975  0.0138
   69SAPC   H7R 5880   3.880   6.500   2.932 -0.3692  2.4546 -1.7714
   69SAPC   H7S 5881   3.741   6.399   2.974  0.1135 -1.2437 -0.7001
   69SAPC   C28 5882   3.712   6.523   2.785 -0.3556  0.0860 -0.3252
   69SAPC   H8R 5883   3.763   6.525   2.688  0.8664 -0.0396  0.2939
   69SAPC   C29 5884   3.592   6.576   2.809 -0.4118  0.3784  0.2039
   69SAPC   H9R 5885   3.540   6.632   2.729 -0.4267  0.4202  0.2431
   69SAPC  C210 5886   3.522   6.562   2.943 -0.1652 -0.7107  0.3106
   69SAPC  H10R 5887   3.543   6.648   3.010 -2.0808 -0.2447  0.3560
   69SAPC  H10S 5888   3.549   6.468   2.996 -1.1279  0.6437  3.3771
   69SAPC  C211 5889   3.370   6.552   2.942 -0.4829 -0.0398  0.3547
   69SAPC  H11R 5890   3.307   6.638   2.969 -0.9886  0.4380 -2.1372
   69SAPC  C212 5891   3.301   6.436   2.916 -0.0351  0.0665  0.1941
   69SAPC  H12R 5892   3.192   6.435   2.925 -0.5502  0.4390 -4.1499
   69SAPC  C213 5893   3.361   6.307   2.876 -0.5348  0.1524  0.1297
   69SAPC  H13R 5894   3.468   6.283   2.897 -0.1641  0.5893 -1.1494
   69SAPC  H13S 5895   3.378   6.307   2.766  1.6673 -1.9341  0.3670
   69SAPC  C214 5896   3.285   6.185   2.915  0.0285  0.3810  0.5318
   69SAPC  H14R 5897   3.185   6.198   2.960 -1.2084  1.5362 -2.2743
   69SAPC  C215 5898   3.332   6.058   2.904 -0.9335 -0.4948 -0.2171
   69SAPC  H15R 5899   3.269   5.980   2.949  0.7456 -1.2961  0.8240
   69SAPC  C216 5900   3.466   6.009   2.850 -0.0472 -0.0901  0.6653
   69SAPC  H16R 5901   3.536   5.988   2.934 -0.2294 -0.3394  0.7557
   69SAPC  H16S 5902   3.509   6.095   2.795 -2.0183  1.1773  1.0014
   69SAPC  C217 5903   3.466   5.876   2.773 -0.3725 -0.0331 -0.3576
   69SAPC  H17R 5904   3.572   5.859   2.746 -0.7141  0.1736 -1.9202
   69SAPC  H17S 5905   3.415   5.885   2.675  1.4270  0.2987 -1.2985
   69SAPC  C218 5906   3.424   5.754   2.851 -0.4508  0.0290  0.4549
   69SAPC  H18R 5907   3.313   5.755   2.855 -0.5836  0.7417 -1.7338
   69SAPC  H18S 5908   3.470   5.760   2.951 -3.1172  2.4038  1.6809
   69SAPC  C219 5909   3.478   5.628   2.790  0.1505  0.6433 -0.7185
   69SAPC  H19R 5910   3.588   5.637   2.798  0.1047 -0.0401  2.0228
   69SAPC  H19S 5911   3.456   5.628   2.681 -0.0876  4.1089 -0.7701
   69SAPC  C220 5912   3.440   5.500   2.860  0.5095 -0.4470  0.0115
   69SAPC  H20R 5913   3.329   5.491   2.870 -0.2231  2.7802 -3.1934
   69SAPC  H20S 5914   3.475   5.499   2.966 -1.6452 -1.1301  0.7727
   69SAPC  H20T 5915   3.479   5.410   2.808  0.3882  0.5179 -1.8316
   69SAPC   C33 5916   4.341   7.074   2.670  0.6130  1.0934 -0.4907
   69SAPC   H3X 5917   4.251   7.136   2.652  1.6108  2.1654 -2.0360
   69SAPC   H3Y 5918   4.402   7.124   2.748 -0.9456 -3.4576  4.1843
   69SAPC   C34 5919   4.289   6.941   2.728  1.1345  0.1031 -0.5769
   69SAPC   H4X 5920   4.367   6.862   2.729 -0.2022 -1.2610  0.4856
   69SAPC   H4Y 5921   4.209   6.910   2.658 -0.0919  0.3062  0.6873
   69SAPC   C35 5922   4.223   6.969   2.869 -0.2543  0.9534 -0.6069
   69SAPC   H5X 5923   4.163   7.062   2.868 -1.2988  0.5031  3.0329
   69SAPC   H5Y 5924   4.303   6.975   2.946  0.7006 -1.5126 -1.3159
   69SAPC   C36 5925   4.136   6.852   2.901  0.1974  0.4445 -0.3445
   69SAPC   H6X 5926   4.201   6.763   2.909  0.9955  0.8557 -1.8727
   69SAPC   H6Y 5927   4.060   6.842   2.821  0.0774 -0.5360 -0.1182
   69SAPC   C37 5928   4.058   6.858   3.036  0.3035 -0.1605  0.5424
   69SAPC   H7X 5929   3.997   6.951   3.031 -0.6243 -0.7280  1.0149
   69SAPC   H7Y 5930   4.137   6.862   3.114  0.3257 -1.1895  0.5829
   69SAPC   C38 5931   3.968   6.738   3.065 -0.1102  0.2197  0.2274
   69SAPC   H8X 5932   4.031   6.649   3.045  0.7682  0.1709  2.7945
   69SAPC   H8Y 5933   3.876   6.734   3.004  0.2945 -0.7845 -0.3506
   69SAPC   C39 5934   3.923   6.722   3.213  0.2583 -0.0584 -0.7374
   69SAPC   H9X 5935   4.001   6.755   3.285  1.9857 -2.1331 -1.5717
   69SAPC   H9Y 5936   3.899   6.616   3.236  1.3336  0.0516  1.1037
   69SAPC  C310 5937   3.799   6.813   3.230  0.3256 -0.1711  0.4272
   69SAPC  H10X 5938   3.709   6.768   3.182  0.4756 -1.3484  1.2216
   69SAPC  H10Y 5939   3.829   6.902   3.171  0.6148 -0.4597  0.1327
   69SAPC  C311 5940   3.770   6.855   3.378  0.3437  0.3676  0.6804
   69SAPC  H11X 5941   3.748   6.762   3.435 -2.3946 -0.3963 -1.3983
   69SAPC  H11Y 5942   3.675   6.911   3.368 -0.2955 -1.1192 -4.3176
   69SAPC  C312 5943   3.877   6.941   3.455 -0.4415 -0.1082  0.3170
   69SAPC  H12X 5944   3.877   7.042   3.407 -0.0226  0.1444  0.8343
   69SAPC  H12Y 5945   3.977   6.892   3.454  0.0485  0.6272  3.4614
   69SAPC  C313 5946   3.844   6.970   3.607  0.2019  0.6427 -0.5495
   69SAPC  H13X 5947   3.933   7.027   3.642  1.7655 -1.5139 -0.8503
   69SAPC  H13Y 5948   3.842   6.871   3.657  0.5792  0.1558 -1.4736
   69SAPC  C314 5949   3.712   7.048   3.613 -0.7042 -0.3800 -0.3355
   69SAPC  H14X 5950   3.628   6.986   3.575 -0.9752 -0.8784  1.0222
   69SAPC  H14Y 5951   3.718   7.134   3.542  1.2988 -0.0665  0.1615
   69SAPC  C315 5952   3.663   7.105   3.748  0.0354 -0.1639  0.4096
   69SAPC  H15X 5953   3.598   7.195   3.738  1.6351  0.8544 -1.7021
   69SAPC  H15Y 5954   3.747   7.135   3.814 -0.6260 -0.3687  1.3598
   69SAPC  C316 5955   3.584   6.986   3.824 -0.2203 -0.1364  0.1025
   69SAPC  H16X 5956   3.656   6.902   3.834  3.0528  2.4537  0.1485
   69SAPC  H16Y 5957   3.503   6.957   3.753 -0.9997  0.3013  0.8023
   69SAPC  C317 5958   3.508   7.028   3.955  0.5422 -0.0467  0.1338
   69SAPC  H17X 5959   3.480   6.935   4.009  1.7524  0.2349  1.2790
   69SAPC  H17Y 5960   3.415   7.078   3.918 -0.1134 -0.2031  1.5188
   69SAPC  C318 5961   3.579   7.122   4.049 -0.3847 -0.0608 -0.0732
   69SAPC  H18X 5962   3.529   7.133   4.148  2.2128 -0.6262  1.3969
   69SAPC  H18Y 5963   3.583   7.221   4.000 -3.8995 -0.1251 -0.7991
   69SAPC  H18Z 5964   3.683   7.087   4.063 -1.0210 -1.3262  1.9379
   70SAPC     N 5965   6.680   3.447   1.502  0.2964  0.2764  0.0892
   70SAPC   C12 5966   6.707   3.365   1.634 -1.1655  0.2781  0.6474
   70SAPC  H12A 5967   6.627   3.293   1.645 -0.9670 -0.3495 -1.5091
   70SAPC  H12B 5968   6.722   3.443   1.706  1.1679 -0.3225  0.9064
   70SAPC   C13 5969   6.803   3.524   1.470 -0.0524 -0.1492  0.5044
   70SAPC  H13A 5970   6.803   3.602   1.544  0.7908  2.4354 -2.0154
   70SAPC  H13B 5971   6.894   3.469   1.491  0.9640  1.2996  0.0155
   70SAPC  H13C 5972   6.804   3.563   1.369 -1.2686  1.6888  1.1659
   70SAPC   C14 5973   6.647   3.351   1.397  0.0031  0.5239  0.4223
   70SAPC  H14A 5974   6.718   3.271   1.406  0.0513  0.5554  0.3240
   70SAPC  H14B 5975   6.544   3.321   1.413  0.0104  0.2396 -0.0503
   70SAPC  H14C 5976   6.642   3.391   1.297 -3.6839 -0.6291 -0.0242
   70SAPC   C15 5977   6.564   3.538   1.518  0.1423 -0.0815 -1.0470
   70SAPC  H15A 5978   6.477   3.490   1.560  1.3676 -1.3319  0.1611
   70SAPC  H15B 5979   6.593   3.620   1.582 -0.0531 -0.9214  0.1316
   70SAPC  H15C 5980   6.538   3.572   1.418 -0.3019 -3.3172 -2.1529
   70SAPC   C11 5981   6.838   3.279   1.648 -0.3831  1.2799 -0.6264
   70SAPC  H11A 5982   6.841   3.191   1.580  1.4088  1.1484 -0.4394
   70SAPC  H11B 5983   6.831   3.238   1.752 -0.9978  0.3255 -1.0327
   70SAPC     P 5984   7.038   3.428   1.757  0.3851  0.2766 -0.2541
   70SAPC   O13 5985   7.159   3.347   1.788 -0.2256 -0.5467 -0.3821
   70SAPC   O14 5986   7.059   3.568   1.717  0.5790  0.1932 -0.1909
   70SAPC   O12 5987   6.961   3.356   1.635 -0.0279 -0.4348 -0.3869
   70SAPC   O11 5988   6.930   3.413   1.879 -0.0527 -0.1213 -0.4547
   70SAPC    C1 5989   6.972   3.345   1.998 -0.3622 -0.2672  0.7843
   70SAPC    HA 5990   7.033   3.253   1.981  0.4276  0.4002 -0.0769
   70SAPC    HB 5991   7.036   3.410   2.062 -2.1970  1.6397  0.7831
   70SAPC    C2 5992   6.855   3.301   2.089 -0.7606 -0.9531  0.8969
   70SAPC    HS 5993   6.786   3.238   2.029  0.3439 -1.1703 -0.1781
   70SAPC   O21 5994   6.792   3.421   2.136 -0.0650 -0.2508 -0.6855
   70SAPC   C21 5995   6.677   3.402   2.198  0.2196 -0.3565  0.0236
   70SAPC   O22 5996   6.629   3.290   2.214  1.1988 -0.1513 -0.2466
   70SAPC   C22 5997   6.617   3.534   2.243  0.2214 -0.1287  0.1840
   70SAPC   H2R 5998   6.675   3.580   2.327  2.0670  0.8002 -1.5118
   70SAPC   H2S 5999   6.628   3.604   2.157 -1.5226 -0.4064 -0.2909
   70SAPC    C3 6000   6.904   3.210   2.207  0.4866  0.1448  0.0439
   70SAPC    HX 6001   6.914   3.114   2.153  1.1772  1.8817 -3.2311
   70SAPC    HY 6002   6.828   3.207   2.288  1.9027 -1.2284  1.3812
   70SAPC   O31 6003   7.037   3.256   2.260 -0.3773  0.0230 -0.4259
   70SAPC   C31 6004   7.029   3.351   2.350 -0.4062 -0.3533 -0.7580
   70SAPC   O32 6005   6.930   3.408   2.391 -0.4285 -0.0105  0.1356
   70SAPC   C32 6006   7.169   3.373   2.398  0.0062 -0.0924  0.1977
   70SAPC   H2X 6007   7.234   3.403   2.313  0.0158  0.3687  0.3615
   70SAPC   H2Y 6008   7.194   3.271   2.433 -2.6501 -0.4697  1.2146
   70SAPC   C23 6009   6.467   3.524   2.299  0.1291  0.3689 -0.3406
   70SAPC   H3R 6010   6.470   3.454   2.385  3.2023  0.0396 -0.6184
   70SAPC   H3S 6011   6.392   3.493   2.223 -1.1194  0.8195  0.6640
   70SAPC   C24 6012   6.425   3.664   2.354  0.2960  0.2735 -0.8804
   70SAPC   H4R 6013   6.434   3.736   2.270  0.7753  0.7331 -0.4414
   70SAPC   H4S 6014   6.509   3.690   2.421  0.6800 -3.7712  0.4517
   70SAPC   C25 6015   6.290   3.669   2.410 -0.5332 -0.4367  0.0314
   70SAPC   H5R 6016   6.213   3.632   2.341 -1.4683  0.7407  0.4030
   70SAPC   C26 6017   6.251   3.716   2.528 -0.3500  0.0610  0.0391
   70SAPC   H6R 6018   6.146   3.700   2.558 -0.5636  2.6832  0.9092
   70SAPC   C27 6019   6.333   3.774   2.644 -0.0095 -0.3691  0.1918
   70SAPC   H7R 6020   6.316   3.883   2.645  0.2803 -0.3152  1.6128
   70SAPC   H7S 6021   6.439   3.757   2.616  0.1941  1.1450 -0.0181
   70SAPC   C28 6022   6.294   3.727   2.780 -0.6187  0.2696 -0.3985
   70SAPC   H8R 6023   6.248   3.627   2.784  0.9006 -0.6178 -2.7379
   70SAPC   C29 6024   6.316   3.789   2.897  0.3910 -0.0663  1.0237
   70SAPC   H9R 6025   6.277   3.744   2.989  0.4423 -3.5988 -0.5388
   70SAPC  C210 6026   6.376   3.927   2.921 -0.1535 -0.0335 -0.7533
   70SAPC  H10R 6027   6.417   3.968   2.826  0.8999  2.6550  0.7542
   70SAPC  H10S 6028   6.466   3.922   2.985 -0.0769  0.6280 -0.8020
   70SAPC  C211 6029   6.274   4.025   2.983  0.3234 -0.0526  0.8162
   70SAPC  H11R 6030   6.172   4.028   2.942  0.7547  0.9059 -0.2540
   70SAPC  C212 6031   6.295   4.125   3.070 -0.5725 -0.5829 -0.0798
   70SAPC  H12R 6032   6.208   4.188   3.094 -1.1526 -1.3235 -0.1520
   70SAPC  C213 6033   6.424   4.162   3.126 -0.0713 -0.8570 -0.4215
   70SAPC  H13R 6034   6.432   4.272   3.135 -0.6889 -0.7476 -1.1073
   70SAPC  H13S 6035   6.501   4.136   3.051 -0.4646  0.8313 -1.4591
   70SAPC  C214 6036   6.457   4.086   3.248 -0.4228 -0.0578 -0.5058
   70SAPC  H14R 6037   6.390   3.999   3.260 -2.4337  1.2819 -1.4469
   70SAPC  C215 6038   6.554   4.119   3.338  0.4105 -0.6538 -0.5171
   70SAPC  H15R 6039   6.564   4.055   3.427 -1.2509 -0.1656  0.0661
   70SAPC  C216 6040   6.647   4.236   3.330 -1.2514  0.1009  0.3499
   70SAPC  H16R 6041   6.622   4.296   3.240  0.2276  0.2215 -0.0059
   70SAPC  H16S 6042   6.747   4.188   3.319  0.5498  3.5112  0.4342
   70SAPC  C217 6043   6.636   4.323   3.453  0.1512 -0.6990 -0.0310
   70SAPC  H17R 6044   6.647   4.259   3.543 -0.0760  1.3919  1.5715
   70SAPC  H17S 6045   6.549   4.391   3.441 -0.0045 -1.2724 -2.9518
   70SAPC  C218 6046   6.757   4.412   3.464 -1.5690 -0.2359  0.4168
   70SAPC  H18R 6047   6.747   4.476   3.374 -3.8596  1.1503  1.5622
   70SAPC  H18S 6048   6.855   4.361   3.462  0.0554  2.6682 -0.1123
   70SAPC  C219 6049   6.762   4.498   3.592 -0.1927 -1.0434 -0.2161
   70SAPC  H19R 6050   6.790   4.432   3.677  0.7708 -0.3855 -0.0086
   70SAPC  H19S 6051   6.660   4.535   3.615  1.1715  1.6310  2.1073
   70SAPC  C220 6052   6.857   4.613   3.585 -0.7838 -0.9078 -0.3458
   70SAPC  H20R 6053   6.944   4.588   3.520  0.5893  1.4199  0.4649
   70SAPC  H20S 6054   6.897   4.644   3.684 -0.5894  0.3152 -0.7878
   70SAPC  H20T 6055   6.799   4.698   3.544 -0.3779 -0.7295 -0.5632
   70SAPC   C33 6056   7.166   3.482   2.508  1.0484 -0.9177 -0.3446
   70SAPC   H3X 6057   7.083   3.456   2.577  0.8882 -1.3890 -0.7154
   70SAPC   H3Y 6058   7.137   3.582   2.469  1.9411 -1.1450 -1.6528
   70SAPC   C34 6059   7.300   3.496   2.579  0.2046  0.9207  0.8251
   70SAPC   H4X 6060   7.382   3.516   2.507 -0.3028 -0.4556 -0.1822
   70SAPC   H4Y 6061   7.321   3.392   2.613 -3.6973 -0.1443  0.4672
   70SAPC   C35 6062   7.303   3.595   2.692  0.3365  0.5560 -0.0191
   70SAPC   H5X 6063   7.222   3.561   2.760  0.1984  0.3068 -0.3044
   70SAPC   H5Y 6064   7.303   3.701   2.662  0.6234  1.6956  3.5333
   70SAPC   C36 6065   7.436   3.566   2.776  0.9139 -0.0708 -0.2869
   70SAPC   H6X 6066   7.532   3.612   2.744  0.4442  4.1130  3.3679
   70SAPC   H6Y 6067   7.450   3.456   2.776 -1.9295 -0.5382 -1.4317
   70SAPC   C37 6068   7.412   3.614   2.921  0.2686  0.2531  0.1985
   70SAPC   H7X 6069   7.303   3.610   2.941 -0.0518  0.2214 -1.4376
   70SAPC   H7Y 6070   7.461   3.541   2.989 -2.2180 -0.7373  1.0409
   70SAPC   C38 6071   7.466   3.754   2.953 -0.1894 -0.7599  0.1766
   70SAPC   H8X 6072   7.576   3.756   2.969 -0.0655 -0.8068 -0.6468
   70SAPC   H8Y 6073   7.411   3.791   3.042 -1.6159  1.5211 -1.5237
   70SAPC   C39 6074   7.432   3.865   2.852  0.2183 -0.5027  0.8475
   70SAPC   H9X 6075   7.457   3.824   2.752  2.5331  0.0639  1.1399
   70SAPC   H9Y 6076   7.512   3.942   2.857 -0.6446  0.4779 -0.1309
   70SAPC  C310 6077   7.292   3.915   2.849  0.9161  0.3056  0.1535
   70SAPC  H10X 6078   7.222   3.829   2.860  0.8914  0.2638 -0.2984
   70SAPC  H10Y 6079   7.272   3.948   2.744 -1.8523 -1.2837  0.0675
   70SAPC  C311 6080   7.254   4.023   2.950 -0.1396  0.9878 -0.6115
   70SAPC  H11X 6081   7.325   4.106   2.971  0.3343  0.7890 -1.3827
   70SAPC  H11Y 6082   7.249   3.984   3.054  0.8369  0.0016 -0.9187
   70SAPC  C312 6083   7.132   4.103   2.907 -0.0548 -0.3874  1.1886
   70SAPC  H12X 6084   7.036   4.046   2.916 -1.3054  1.6049  1.1242
   70SAPC  H12Y 6085   7.152   4.125   2.800  1.1374 -1.9694  1.0542
   70SAPC  C313 6086   7.116   4.231   2.988 -0.0129  0.5319 -0.1528
   70SAPC  H13X 6087   7.176   4.311   2.941 -2.4989  2.0027 -1.0054
   70SAPC  H13Y 6088   7.158   4.211   3.089 -1.2094 -1.8799 -0.0706
   70SAPC  C314 6089   6.971   4.277   2.997  0.4545  0.8301 -0.3791
   70SAPC  H14X 6090   6.960   4.369   3.057  2.5550  1.9442 -1.5874
   70SAPC  H14Y 6091   6.903   4.200   3.040  0.3566  2.0252  1.6990
   70SAPC  C315 6092   6.903   4.312   2.862  0.5293 -0.5654  0.5085
   70SAPC  H15X 6093   6.899   4.230   2.787 -0.3599 -0.6564  0.6521
   70SAPC  H15Y 6094   6.961   4.388   2.806  1.0254 -3.3982 -3.2249
   70SAPC  C316 6095   6.755   4.362   2.877  0.0450  0.9234 -0.2408
   70SAPC  H16X 6096   6.685   4.280   2.905 -1.7000  2.6024  0.5495
   70SAPC  H16Y 6097   6.717   4.399   2.780  1.9088 -0.0186 -1.3740
   70SAPC  C317 6098   6.719   4.472   2.974 -1.1261 -0.4831  0.0724
   70SAPC  H17X 6099   6.792   4.551   2.948 -0.2023 -1.8707 -1.7071
   70SAPC  H17Y 6100   6.744   4.432   3.075  2.7661 -0.5977 -0.7937
   70SAPC  C318 6101   6.578   4.526   2.960 -0.0343 -0.1415  0.4783
   70SAPC  H18X 6102   6.547   4.523   2.854 -0.5138  1.2521  0.5621
   70SAPC  H18Y 6103   6.575   4.632   2.995 -1.1129  0.2886 -0.8351
   70SAPC  H18Z 6104   6.506   4.467   3.021 -2.2191  1.7124 -0.1828
   71SAPC     N 6105   5.460   0.990   1.739  0.7144  0.5183 -0.0338
   71SAPC   C12 6106   5.469   0.934   1.883 -0.0308  0.2276 -0.4755
   71SAPC  H12A 6107   5.367   0.912   1.910  0.3514  0.0232  0.8819
   71SAPC  H12B 6108   5.492   1.014   1.952  1.1543  0.1776 -0.7750
   71SAPC   C13 6109   5.376   0.901   1.655  0.5830 -0.1473 -0.5197
   71SAPC  H13A 6110   5.278   0.890   1.700  1.2105  0.8636  1.1623
   71SAPC  H13B 6111   5.357   0.944   1.557 -0.9408 -1.8195 -1.0169
   71SAPC  H13C 6112   5.422   0.805   1.638  1.2012 -0.0461  0.5409
   71SAPC   C14 6113   5.396   1.128   1.751 -0.0910  0.3375  0.2067
   71SAPC  H14A 6114   5.306   1.126   1.812 -0.4657  1.8229 -0.2633
   71SAPC  H14B 6115   5.472   1.187   1.799  1.5756  0.1779 -2.0729
   71SAPC  H14C 6116   5.360   1.171   1.658 -2.2047 -0.6735  0.4826
   71SAPC   C15 6117   5.593   1.022   1.678 -0.6058 -0.4469 -0.1938
   71SAPC  H15A 6118   5.660   0.938   1.690  1.7895  1.4575  0.6106
   71SAPC  H15B 6119   5.595   1.048   1.573  2.8901 -1.8578 -0.5994
   71SAPC  H15C 6120   5.642   1.101   1.733 -1.6235  0.4725 -0.5857
   71SAPC   C11 6121   5.570   0.820   1.921 -0.3421  0.4124  0.4183
   71SAPC  H11A 6122   5.559   0.801   2.030 -1.9964 -0.6216  0.1033
   71SAPC  H11B 6123   5.670   0.860   1.894 -0.0592 -0.3140  0.3645
   71SAPC     P 6124   5.617   0.580   1.873  0.0979  0.2783 -0.0518
   71SAPC   O13 6125   5.517   0.470   1.868 -0.4491  0.1455 -0.4288
   71SAPC   O14 6126   5.736   0.549   1.789  0.2438 -0.1041 -0.5982
   71SAPC   O12 6127   5.545   0.709   1.834 -0.3291 -0.6222 -0.2847
   71SAPC   O11 6128   5.669   0.599   2.024  0.4739 -0.1064 -0.1787
   71SAPC    C1 6129   5.719   0.498   2.107  0.0714  0.1052  0.5469
   71SAPC    HA 6130   5.641   0.420   2.115 -1.4665  1.4073 -0.7253
   71SAPC    HB 6131   5.809   0.444   2.070 -1.3460 -2.5401  0.7339
   71SAPC    C2 6132   5.744   0.561   2.245  0.5603  0.4825 -0.4666
   71SAPC    HS 6133   5.765   0.490   2.328  0.0816  2.8249  1.8044
   71SAPC   O21 6134   5.637   0.652   2.277 -0.2251  0.0170 -0.3285
   71SAPC   C21 6135   5.522   0.592   2.293  0.4703 -0.7179 -0.3825
   71SAPC   O22 6136   5.499   0.473   2.301  0.3754 -0.4400  0.1141
   71SAPC   C22 6137   5.412   0.695   2.289  0.4450  0.1213 -0.2099
   71SAPC   H2R 6138   5.451   0.793   2.321 -1.7269  1.9425 -2.6881
   71SAPC   H2S 6139   5.382   0.717   2.184 -0.3637  1.2257  0.2318
   71SAPC    C3 6140   5.886   0.641   2.245  0.0513  0.2405 -0.0118
   71SAPC    HX 6141   5.861   0.721   2.172 -1.0159  0.5905  0.7172
   71SAPC    HY 6142   5.969   0.577   2.208 -0.5677 -1.7809  1.8525
   71SAPC   O31 6143   5.910   0.692   2.379  0.3662  0.3374 -0.3223
   71SAPC   C31 6144   5.948   0.602   2.466  0.1558 -0.0561  0.3462
   71SAPC   O32 6145   5.992   0.491   2.433 -0.0646 -0.1387 -0.5160
   71SAPC   C32 6146   5.960   0.672   2.603 -0.1480  0.1333  0.0354
   71SAPC   H2X 6147   5.878   0.746   2.610 -0.0350  0.1176  3.1658
   71SAPC   H2Y 6148   6.056   0.726   2.594 -0.3344  0.7328  1.4317
   71SAPC   C23 6149   5.283   0.646   2.369 -0.4617 -0.3477  0.6838
   71SAPC   H3R 6150   5.300   0.634   2.478 -0.4055  0.2009  0.7352
   71SAPC   H3S 6151   5.246   0.549   2.329  1.0105 -0.7149  0.1319
   71SAPC   C24 6152   5.173   0.755   2.359  0.0425 -0.1664  0.4585
   71SAPC   H4R 6153   5.132   0.747   2.256  0.2703  0.7659  0.2848
   71SAPC   H4S 6154   5.216   0.855   2.380  1.3695 -0.0033 -2.5100
   71SAPC   C25 6155   5.055   0.722   2.449 -0.3505  0.1608 -0.8459
   71SAPC   H5R 6156   4.989   0.638   2.421 -2.1028  1.1090  0.2162
   71SAPC   C26 6157   5.020   0.787   2.562 -0.2873  0.2811  0.7370
   71SAPC   H6R 6158   4.928   0.756   2.612 -0.1882  0.3965  0.9905
   71SAPC   C27 6159   5.076   0.909   2.615 -0.1483  0.2719  0.6333
   71SAPC   H7R 6160   5.017   0.999   2.586  0.3671  0.8958  1.4714
   71SAPC   H7S 6161   5.176   0.922   2.568 -0.0648  1.8622  1.1920
   71SAPC   C28 6162   5.092   0.903   2.762  0.0675  0.6686 -0.0357
   71SAPC   H8R 6163   5.120   0.802   2.797 -2.9218 -0.7470 -1.3607
   71SAPC   C29 6164   5.077   1.008   2.852  0.5874 -0.0569  0.2086
   71SAPC   H9R 6165   5.084   0.990   2.961 -0.4048  1.4388  0.5490
   71SAPC  C210 6166   5.024   1.147   2.823 -0.9557  0.2685  0.2829
   71SAPC  H10R 6167   4.929   1.164   2.878 -1.4599 -0.1271 -0.4419
   71SAPC  H10S 6168   5.001   1.153   2.715 -0.5402  2.9632  0.2807
   71SAPC  C211 6169   5.116   1.262   2.843 -0.1912 -0.1340 -0.1301
   71SAPC  H11R 6170   5.190   1.281   2.765  1.2748  1.4660  1.5681
   71SAPC  C212 6171   5.110   1.341   2.959 -0.3490 -0.3609  0.0450
   71SAPC  H12R 6172   5.167   1.435   2.968 -0.2420 -0.5352  1.3721
   71SAPC  C213 6173   5.016   1.325   3.076 -0.7126 -0.3247  0.0580
   71SAPC  H13R 6174   4.916   1.287   3.046 -0.7274 -0.3048  0.0834
   71SAPC  H13S 6175   4.998   1.418   3.134 -1.2129 -1.3817  1.6820
   71SAPC  C214 6176   5.056   1.220   3.179  0.2424 -0.7824 -0.3730
   71SAPC  H14R 6177   5.119   1.140   3.135  0.6897  0.4575 -2.0921
   71SAPC  C215 6178   5.026   1.215   3.311  0.3592 -0.5061 -1.1293
   71SAPC  H15R 6179   5.060   1.126   3.367  2.1563  0.2239 -0.9687
   71SAPC  C216 6180   4.932   1.309   3.387 -0.3525  0.1116  0.5124
   71SAPC  H16R 6181   4.838   1.256   3.414 -0.8890  0.7481 -0.0607
   71SAPC  H16S 6182   4.898   1.388   3.315  1.3963 -0.3963 -0.9500
   71SAPC  C217 6183   4.998   1.382   3.502 -1.0741 -0.0867 -0.1883
   71SAPC  H17R 6184   5.078   1.454   3.478 -0.1403 -0.5868  1.2442
   71SAPC  H17S 6185   5.046   1.307   3.568  0.9678 -0.0018 -1.5154
   71SAPC  C218 6186   4.900   1.467   3.592 -0.0221 -0.3229 -0.3549
   71SAPC  H18R 6187   4.848   1.538   3.523 -0.6543 -0.4854 -0.0546
   71SAPC  H18S 6188   4.962   1.526   3.663 -1.4263 -1.6266  2.0803
   71SAPC  C219 6189   4.807   1.373   3.670 -0.7668 -0.2847 -0.3764
   71SAPC  H19R 6190   4.854   1.278   3.705 -0.8542 -1.2223 -2.6445
   71SAPC  H19S 6191   4.737   1.339   3.591 -0.4797 -0.3560 -0.6024
   71SAPC  C220 6192   4.718   1.436   3.784  0.3473  0.2301 -0.0042
   71SAPC  H20R 6193   4.780   1.448   3.875  1.0630 -0.2325 -0.4224
   71SAPC  H20S 6194   4.638   1.364   3.813 -0.5653  1.3638  0.3605
   71SAPC  H20T 6195   4.685   1.530   3.734 -0.3809 -0.8517 -1.6808
   71SAPC   C33 6196   5.969   0.579   2.728  0.0167  0.2294  0.6867
   71SAPC   H3X 6197   6.064   0.523   2.737  1.0881  2.1277  1.9631
   71SAPC   H3Y 6198   5.885   0.506   2.732 -0.5732  0.5867 -2.4423
   71SAPC   C34 6199   5.958   0.664   2.852 -0.1562 -0.6693  0.7937
   71SAPC   H4X 6200   5.867   0.726   2.836  0.7883  0.5915  0.2224
   71SAPC   H4Y 6201   6.048   0.727   2.863  1.7732 -2.8686 -1.2813
   71SAPC   C35 6202   5.946   0.580   2.981  0.2430 -0.1694  1.1519
   71SAPC   H5X 6203   6.027   0.504   2.979  0.1718 -0.3139  2.7100
   71SAPC   H5Y 6204   5.853   0.520   2.981  1.7722 -2.6601  0.8724
   71SAPC   C36 6205   5.937   0.653   3.116  0.1809 -0.7252  0.4857
   71SAPC   H6X 6206   5.850   0.721   3.122  0.1255 -0.8694  1.5040
   71SAPC   H6Y 6207   6.029   0.714   3.130  0.0512 -0.5102  0.4070
   71SAPC   C37 6208   5.938   0.558   3.242 -1.1023 -0.3505 -0.0963
   71SAPC   H7X 6209   6.031   0.499   3.248 -1.1371 -0.2509  2.6686
   71SAPC   H7Y 6210   5.861   0.478   3.242 -0.6435 -0.7993  0.8024
   71SAPC   C38 6211   5.929   0.631   3.379  0.0264 -0.4551  0.3876
   71SAPC   H8X 6212   5.835   0.690   3.383  0.0379 -0.4249  0.2254
   71SAPC   H8Y 6213   6.010   0.706   3.389 -2.2762  2.0486  1.4822
   71SAPC   C39 6214   5.929   0.534   3.501  0.0186  0.0480  1.4537
   71SAPC   H9X 6215   6.003   0.452   3.487 -1.2056 -0.9053  0.3294
   71SAPC   H9Y 6216   5.830   0.484   3.513  0.3169 -0.6402  1.1396
   71SAPC  C310 6217   5.955   0.598   3.632 -0.2531  0.3890  0.2110
   71SAPC  H10X 6218   5.894   0.688   3.654 -0.4812  0.2769  0.0444
   71SAPC  H10Y 6219   6.060   0.635   3.628 -0.2744  0.4589  0.2985
   71SAPC  C311 6220   5.947   0.506   3.752  0.7649  0.3808 -0.2282
   71SAPC  H11X 6221   5.979   0.400   3.747 -2.4157 -0.7970  1.6095
   71SAPC  H11Y 6222   5.839   0.504   3.776  0.6495  0.7795 -0.7081
   71SAPC  C312 6223   6.002   0.563   3.886 -0.1218  0.3891 -0.2235
   71SAPC  H12X 6224   5.961   0.664   3.908  0.9347  0.6555  0.6400
   71SAPC  H12Y 6225   6.109   0.573   3.859  0.4098 -3.2234  0.0517
   71SAPC  C313 6226   5.991   0.470   4.004 -0.9125  0.5196 -0.1117
   71SAPC  H13X 6227   6.048   0.379   3.978 -1.3121  0.1013  0.4577
   71SAPC  H13Y 6228   5.889   0.433   4.028 -1.1157  0.1970 -1.3593
   71SAPC  C314 6229   6.053   0.537   4.126  0.1584  0.1851  0.0080
   71SAPC  H14X 6230   5.995   0.629   4.150 -0.8680  0.2293 -2.3529
   71SAPC  H14Y 6231   6.160   0.564   4.116  0.5941 -1.3546  0.2382
   71SAPC  C315 6232   6.036   0.455   4.254  0.4477 -0.2142 -0.0293
   71SAPC  H15X 6233   6.087   0.357   4.242  1.1001  0.2310 -1.0671
   71SAPC  H15Y 6234   5.928   0.429   4.261  0.2252  0.7547  0.2470
   71SAPC  C316 6235   6.057   0.538   4.382  0.4962 -0.3581 -0.3864
   71SAPC  H16X 6236   6.005   0.636   4.380  0.4611 -0.3740 -0.2680
   71SAPC  H16Y 6237   6.166   0.543   4.400  0.5654 -2.5598  0.1469
   71SAPC  C317 6238   5.997   0.456   4.501 -0.2400 -0.3399  0.0565
   71SAPC  H17X 6239   6.061   0.488   4.587  0.6436  0.0251 -0.7211
   71SAPC  H17Y 6240   6.010   0.349   4.478 -0.0931 -0.2447 -0.3094
   71SAPC  C318 6241   5.847   0.488   4.533 -0.4242 -0.3182  0.4492
   71SAPC  H18X 6242   5.791   0.437   4.451  1.2675 -2.5132  0.5756
   71SAPC  H18Y 6243   5.821   0.595   4.551 -1.1481 -0.5002  0.5073
   71SAPC  H18Z 6244   5.822   0.435   4.627  0.7971 -0.5315  0.6659
   72SAPC     N 6245   5.061   0.138   1.861 -0.0258  0.5422 -0.0440
   72SAPC   C12 6246   5.095   0.018   1.949  0.2351 -0.0098 -0.0371
   72SAPC  H12A 6247   5.007  -0.036   1.982  1.3276 -1.5521  0.4624
   72SAPC  H12B 6248   5.133   0.051   2.044  0.2293  0.7552 -0.2949
   72SAPC   C13 6249   5.182   0.213   1.826 -0.7493 -0.2597  0.2874
   72SAPC  H13A 6250   5.155   0.294   1.759 -2.4030 -0.2968  0.8824
   72SAPC  H13B 6251   5.237   0.249   1.912  0.8488 -1.3661 -0.2158
   72SAPC  H13C 6252   5.245   0.141   1.775 -0.2318  1.1325 -1.1429
   72SAPC   C14 6253   5.003   0.091   1.738 -0.5260 -0.2702  0.6658
   72SAPC  H14A 6254   4.960   0.167   1.674  0.6821 -0.5999 -0.5650
   72SAPC  H14B 6255   5.083   0.044   1.684 -0.4983  1.2980 -0.7227
   72SAPC  H14C 6256   4.927   0.015   1.752  0.1533 -1.7137 -2.5671
   72SAPC   C15 6257   4.960   0.229   1.929  0.0284 -0.4158 -0.6705
   72SAPC  H15A 6258   4.938   0.314   1.867 -1.5640  0.2292  0.7019
   72SAPC  H15B 6259   4.868   0.176   1.944  0.4654 -0.8498  0.6380
   72SAPC  H15C 6260   4.992   0.269   2.024  1.5739 -2.0128 -0.4659
   72SAPC   C11 6261   5.194  -0.084   1.885 -0.1291  0.2070 -0.1651
   72SAPC  H11A 6262   5.153  -0.121   1.788 -0.9074 -0.2450  0.3227
   72SAPC  H11B 6263   5.207  -0.165   1.959  1.8239  0.2995 -0.3718
   72SAPC     P 6264   5.448  -0.087   1.793 -0.5838  0.1972  0.0767
   72SAPC   O13 6265   5.409  -0.180   1.689 -0.2733  0.7217  0.8418
   72SAPC   O14 6266   5.545   0.017   1.752  0.1150  0.3975 -0.5652
   72SAPC   O12 6267   5.316  -0.018   1.857  0.1518 -0.8456 -0.6774
   72SAPC   O11 6268   5.514  -0.173   1.912  0.0783  0.9569 -0.0452
   72SAPC    C1 6269   5.517  -0.120   2.046  0.2495  0.6594 -0.1282
   72SAPC    HA 6270   5.429  -0.060   2.076  0.1752  0.4845  0.0059
   72SAPC    HB 6271   5.520  -0.197   2.126 -0.2010  2.2671  1.5232
   72SAPC    C2 6272   5.646  -0.042   2.064 -0.7430  0.2297  0.1984
   72SAPC    HS 6273   5.698  -0.046   1.966 -0.8094  1.3698  0.0955
   72SAPC   O21 6274   5.725  -0.110   2.160 -0.0742 -0.0872  0.0653
   72SAPC   C21 6275   5.860  -0.084   2.153  0.2466 -0.2559 -0.0668
   72SAPC   O22 6276   5.905  -0.007   2.071 -0.2943  0.1372  0.1895
   72SAPC   C22 6277   5.941  -0.148   2.269 -0.7667  0.2177 -0.2290
   72SAPC   H2R 6278   5.987  -0.246   2.244  0.7475  1.1264 -1.1724
   72SAPC   H2S 6279   6.026  -0.076   2.269 -1.6400  1.2820 -0.8321
   72SAPC    C3 6280   5.618   0.107   2.098 -0.5905  0.5929 -0.0411
   72SAPC    HX 6281   5.560   0.150   2.014 -2.1065 -1.0529  0.1067
   72SAPC    HY 6282   5.723   0.144   2.094  0.2445 -1.5756  0.4078
   72SAPC   O31 6283   5.556   0.117   2.230 -0.0962  0.1625  0.2502
   72SAPC   C31 6284   5.637   0.149   2.333  0.1279  0.6117 -0.0222
   72SAPC   O32 6285   5.756   0.167   2.321  0.0706  0.5067 -0.8853
   72SAPC   C32 6286   5.547   0.154   2.461 -0.2321  0.1692  0.0745
   72SAPC   H2X 6287   5.511   0.051   2.479 -1.7293  0.3831 -1.4630
   72SAPC   H2Y 6288   5.463   0.226   2.451  1.5538  2.1603 -1.7076
   72SAPC   C23 6289   5.876  -0.134   2.402  0.2302 -0.0924 -0.0588
   72SAPC   H3R 6290   5.803  -0.215   2.423  0.2639 -0.1980 -0.3406
   72SAPC   H3S 6291   5.827  -0.034   2.399  0.9573  0.2904  0.4544
   72SAPC   C24 6292   5.959  -0.133   2.536  0.8969  0.7860  0.0885
   72SAPC   H4R 6293   6.000  -0.236   2.539 -0.4761  0.1804 -0.7215
   72SAPC   H4S 6294   5.890  -0.112   2.621 -0.3271 -1.1118 -0.3652
   72SAPC   C25 6295   6.069  -0.032   2.532  0.3773  0.5523  0.5268
   72SAPC   H5R 6296   6.058   0.042   2.451 -0.0253  2.0166  1.8609
   72SAPC   C26 6297   6.172  -0.031   2.619 -0.4126  0.3680 -0.1051
   72SAPC   H6R 6298   6.236   0.058   2.612 -0.9903  1.2031  3.4866
   72SAPC   C27 6299   6.213  -0.120   2.733  0.2424 -0.2139  0.0317
   72SAPC   H7R 6300   6.301  -0.178   2.698 -0.1939 -0.7374 -0.1928
   72SAPC   H7S 6301   6.148  -0.209   2.744  2.5317 -1.9720  0.1462
   72SAPC   C28 6302   6.242  -0.056   2.864  0.3202  0.2222 -0.0563
   72SAPC   H8R 6303   6.348  -0.069   2.893  0.5573  0.6622 -0.7061
   72SAPC   C29 6304   6.153  -0.003   2.947  0.3459  0.5428 -0.1756
   72SAPC   H9R 6305   6.184   0.031   3.047 -1.9893  1.5424  0.2690
   72SAPC  C210 6306   6.006   0.008   2.912  0.0175 -0.1312  0.3683
   72SAPC  H10R 6307   5.949  -0.083   2.941  0.5298 -1.2025 -1.8217
   72SAPC  H10S 6308   5.995   0.014   2.801 -0.6539 -2.0726  0.2828
   72SAPC  C211 6309   5.950   0.131   2.986 -0.8712 -0.7017  0.6300
   72SAPC  H11R 6310   5.959   0.221   2.924  0.2174 -1.7302 -0.7957
   72SAPC  C212 6311   5.896   0.139   3.106  0.3057 -0.2879 -0.5579
   72SAPC  H12R 6312   5.869   0.237   3.147 -1.8128 -0.7915 -0.5977
   72SAPC  C213 6313   5.885   0.029   3.196  0.2832  0.2610  0.1083
   72SAPC  H13R 6314   5.967  -0.043   3.178 -0.8531 -1.2235  0.7093
   72SAPC  H13S 6315   5.796  -0.031   3.170  1.3326 -1.4036  0.2361
   72SAPC  C214 6316   5.877   0.079   3.339  0.6863 -0.0186  0.3971
   72SAPC  H14R 6317   5.774   0.106   3.363 -0.0069 -1.3662 -0.8930
   72SAPC  C215 6318   5.979   0.080   3.417 -0.3688  0.1413  0.2648
   72SAPC  H15R 6319   5.974   0.106   3.524  1.8178 -2.0663  1.0050
   72SAPC  C216 6320   6.122   0.044   3.382  0.3991  0.5945 -0.0819
   72SAPC  H16R 6321   6.187   0.119   3.333  3.6956 -1.9635  0.0020
   72SAPC  H16S 6322   6.118  -0.046   3.316  0.7085  0.9856 -0.6452
   72SAPC  C217 6323   6.198  -0.014   3.501 -0.1958  0.0947 -0.8381
   72SAPC  H17R 6324   6.289  -0.068   3.467  1.3321  1.5564  0.7505
   72SAPC  H17S 6325   6.135  -0.100   3.533  0.0471 -1.2444 -3.6455
   72SAPC  C218 6326   6.239   0.082   3.609  0.0265 -0.5469 -0.4547
   72SAPC  H18R 6327   6.165   0.076   3.692  0.1746 -0.8991 -0.3482
   72SAPC  H18S 6328   6.224   0.187   3.574 -0.6007 -0.1108  1.0483
   72SAPC  C219 6329   6.374   0.055   3.678 -0.1976  0.0937  0.1400
   72SAPC  H19R 6330   6.452   0.068   3.600 -0.0884  0.8624  0.3739
   72SAPC  H19S 6331   6.384  -0.050   3.715  1.7723 -0.2593 -1.2468
   72SAPC  C220 6332   6.405   0.159   3.784  0.2463 -0.1180  0.1742
   72SAPC  H20R 6333   6.432   0.258   3.740 -0.8149 -0.2456 -0.8008
   72SAPC  H20S 6334   6.493   0.128   3.844  0.5673 -0.6063 -0.5412
   72SAPC  H20T 6335   6.327   0.181   3.860 -1.1942  2.5674 -1.8810
   72SAPC   C33 6336   5.628   0.190   2.582 -0.3978  0.5531 -0.1103
   72SAPC   H3X 6337   5.673   0.291   2.571 -1.1087  0.8516 -0.4093
   72SAPC   H3Y 6338   5.697   0.108   2.610  0.8654  1.4557 -0.4800
   72SAPC   C34 6339   5.530   0.210   2.695 -0.0407  0.3124  0.1280
   72SAPC   H4X 6340   5.456   0.128   2.705 -0.1095  0.3348 -0.1875
   72SAPC   H4Y 6341   5.465   0.296   2.669 -0.6686 -0.7111 -1.9205
   72SAPC   C35 6342   5.603   0.229   2.828  0.4916  0.0422 -0.1488
   72SAPC   H5X 6343   5.665   0.320   2.844  0.7518 -0.5251  2.6373
   72SAPC   H5Y 6344   5.671   0.142   2.837  1.4453  0.7407 -0.4387
   72SAPC   C36 6345   5.496   0.230   2.941 -0.8779 -0.4712 -0.5635
   72SAPC   H6X 6346   5.455   0.126   2.940  1.0317 -1.2483 -0.8746
   72SAPC   H6Y 6347   5.412   0.300   2.920  0.9925  1.0087 -3.8615
   72SAPC   C37 6348   5.567   0.260   3.077  0.0691  0.3878  0.2130
   72SAPC   H7X 6349   5.629   0.351   3.061  0.9143 -0.0082  1.1686
   72SAPC   H7Y 6350   5.638   0.180   3.102  0.1524  0.2904 -0.3302
   72SAPC   C38 6351   5.459   0.278   3.186  0.1619 -0.2859 -0.6600
   72SAPC   H8X 6352   5.422   0.174   3.201  0.3660 -0.5585 -1.9284
   72SAPC   H8Y 6353   5.371   0.337   3.156 -0.3925  0.2622  1.8288
   72SAPC   C39 6354   5.522   0.341   3.307  0.1043  0.0734 -0.1274
   72SAPC   H9X 6355   5.563   0.441   3.281 -0.7732  0.5262  0.1861
   72SAPC   H9Y 6356   5.606   0.278   3.345 -0.5824 -1.6687 -1.3536
   72SAPC  C310 6357   5.425   0.362   3.433  0.2099  0.3941  0.4401
   72SAPC  H10X 6358   5.340   0.427   3.400  1.4306  1.7998 -0.0408
   72SAPC  H10Y 6359   5.463   0.428   3.514 -0.8381 -0.1156  1.3707
   72SAPC  C311 6360   5.384   0.220   3.477 -0.2419  0.0138 -0.2853
   72SAPC  H11X 6361   5.478   0.164   3.498  0.4032  0.6188 -1.4664
   72SAPC  H11Y 6362   5.329   0.180   3.390  1.6462 -0.2362 -1.4145
   72SAPC  C312 6363   5.287   0.225   3.594 -0.2848 -0.1434 -0.7538
   72SAPC  H12X 6364   5.202   0.287   3.558 -0.1119 -0.6323 -2.0652
   72SAPC  H12Y 6365   5.343   0.274   3.677 -2.2201  0.8789  0.0009
   72SAPC  C313 6366   5.235   0.086   3.627  0.3399  0.2349 -0.2527
   72SAPC  H13X 6367   5.310   0.021   3.678 -0.8380 -0.2637  0.9127
   72SAPC  H13Y 6368   5.209   0.031   3.534 -0.0357 -0.9370  0.5207
   72SAPC  C314 6369   5.127   0.099   3.726 -0.6573  0.2561  0.1365
   72SAPC  H14X 6370   5.073   0.191   3.697  0.9287  0.9428 -0.7489
   72SAPC  H14Y 6371   5.175   0.127   3.822 -1.2833 -1.2756  0.9317
   72SAPC  C315 6372   5.033  -0.018   3.742  0.0293 -0.0202 -0.1941
   72SAPC  H15X 6373   4.957  -0.019   3.661  0.3892 -0.8926 -0.5401
   72SAPC  H15Y 6374   4.974   0.006   3.833 -0.8646 -0.7113 -0.5735
   72SAPC  C316 6375   5.098  -0.155   3.749 -0.2440  0.3923  0.0632
   72SAPC  H16X 6376   5.188  -0.141   3.812  0.8169 -1.3657 -0.9893
   72SAPC  H16Y 6377   5.131  -0.168   3.643 -0.1013 -1.6236  0.3212
   72SAPC  C317 6378   5.008  -0.267   3.799  0.2766 -0.0273  0.4245
   72SAPC  H17X 6379   5.069  -0.356   3.773  1.5165  1.2950 -1.4612
   72SAPC  H17Y 6380   4.916  -0.250   3.739  0.5442 -0.6862 -0.1895
   72SAPC  C318 6381   4.968  -0.259   3.954  0.0743 -0.0240  0.0103
   72SAPC  H18X 6382   5.061  -0.273   4.014  0.3803 -0.8817 -0.6406
   72SAPC  H18Y 6383   4.893  -0.335   3.984  0.7148 -0.7185 -0.0999
   72SAPC  H18Z 6384   4.926  -0.157   3.966 -0.8796 -0.4964  0.8402
   73SLPC     N 6385   4.849   4.234   5.992 -0.2430  0.1072  0.1197
   73SLPC   C13 6386   4.761   4.328   5.913  0.3605 -0.2911 -1.3215
   73SLPC  H13A 6387   4.798   4.429   5.919  1.3135 -0.6821 -0.3573
   73SLPC  H13B 6388   4.764   4.288   5.812  2.2340 -2.5204 -0.4652
   73SLPC  H13C 6389   4.659   4.320   5.945 -0.2081  1.7782 -2.4517
   73SLPC   C14 6390   4.857   4.276   6.131 -0.0675 -0.3281 -0.1673
   73SLPC  H14A 6391   4.759   4.265   6.176  0.0085 -1.5476 -0.2635
   73SLPC  H14B 6392   4.924   4.216   6.190 -1.0399  1.0121  2.4837
   73SLPC  H14C 6393   4.887   4.380   6.135  1.9059 -0.8163 -1.0147
   73SLPC   C15 6394   4.981   4.245   5.923  0.6449  0.3120 -1.1098
   73SLPC  H15A 6395   4.982   4.210   5.821 -0.0937  1.2379 -1.4425
   73SLPC  H15B 6396   5.022   4.345   5.932 -0.6511  0.6737  1.6324
   73SLPC  H15C 6397   5.050   4.187   5.982 -0.0618  1.4960  0.9723
   73SLPC   C12 6398   4.797   4.093   5.966  0.5063 -0.1083  0.2496
   73SLPC  H12A 6399   4.693   4.084   5.997 -1.0999  0.4965 -4.2256
   73SLPC  H12B 6400   4.859   4.027   6.025  1.5471  0.6709  0.0390
   73SLPC   C11 6401   4.798   4.031   5.821 -0.2785  0.1307  0.6148
   73SLPC  H11A 6402   4.779   3.922   5.826 -2.2880  0.4129  0.0997
   73SLPC  H11B 6403   4.896   4.053   5.773 -2.0522  1.4227 -2.7065
   73SLPC     P 6404   4.572   4.045   5.692  0.1025  0.1736  0.2690
   73SLPC   O13 6405   4.513   3.956   5.799 -0.0493 -1.3186  0.2368
   73SLPC   O14 6406   4.483   4.147   5.632  0.3595  0.5309 -0.0489
   73SLPC   O12 6407   4.708   4.107   5.735  0.0026 -0.0487  0.5750
   73SLPC   O11 6408   4.615   3.947   5.577  0.2485  1.0961  0.9914
   73SLPC    C1 6409   4.642   3.987   5.440  0.4469  0.2074 -0.1573
   73SLPC    HA 6410   4.610   3.904   5.374 -0.0174 -1.5463  2.1458
   73SLPC    HB 6411   4.586   4.079   5.411 -1.1251 -0.5872  0.2358
   73SLPC    C2 6412   4.800   4.013   5.440  0.3418 -0.0972  0.1610
   73SLPC    HS 6413   4.847   3.958   5.524 -0.5955  1.7154  1.9688
   73SLPC   O21 6414   4.817   4.159   5.443 -0.5158  0.5989 -0.1587
   73SLPC   C21 6415   4.941   4.210   5.453 -0.2543  0.5250  0.2154
   73SLPC   O22 6416   5.046   4.149   5.464 -0.3410 -0.4818  0.2964
   73SLPC   C22 6417   4.926   4.369   5.447 -0.2879  0.4962 -0.2125
   73SLPC   H2R 6418   4.820   4.394   5.471 -0.2168 -1.3991  2.4676
   73SLPC   H2S 6419   4.990   4.410   5.527  0.5218 -0.3296 -0.4174
   73SLPC    C3 6420   4.853   3.965   5.304 -0.3141  0.0359  0.0272
   73SLPC    HX 6421   4.848   3.854   5.303 -0.7026  0.0456  0.4430
   73SLPC    HY 6422   4.963   3.972   5.294  0.1045 -3.7465  0.6885
   73SLPC   O31 6423   4.781   4.019   5.189 -0.0725  0.2553 -0.4599
   73SLPC   C31 6424   4.856   4.084   5.100 -0.1592 -0.2529  0.0623
   73SLPC   O32 6425   4.981   4.074   5.090  0.1496 -0.2665 -0.7668
   73SLPC   C32 6426   4.765   4.182   5.027 -0.3169 -0.3642  0.6701
   73SLPC   H2X 6427   4.817   4.228   4.940  1.2041 -1.7857  0.7697
   73SLPC   H2Y 6428   4.730   4.251   5.106  1.7698 -1.3076  2.5373
   73SLPC   C23 6429   4.964   4.428   5.312 -0.2818  0.2325 -0.0483
   73SLPC   H3R 6430   4.975   4.538   5.310 -0.8453  0.2893 -0.0050
   73SLPC   H3S 6431   4.878   4.414   5.244 -1.6062  2.0522  1.1730
   73SLPC   C24 6432   5.095   4.368   5.248 -0.5575  0.4476  0.5269
   73SLPC   H4R 6433   5.106   4.259   5.265 -1.7641 -0.1680 -2.0581
   73SLPC   H4S 6434   5.180   4.426   5.291  0.9382  0.9056 -2.6647
   73SLPC   C25 6435   5.093   4.388   5.095 -0.5994  0.0293 -0.2146
   73SLPC   H5R 6436   5.121   4.491   5.066  1.9380 -1.1071 -2.2670
   73SLPC   H5S 6437   5.001   4.352   5.044  0.8948 -4.8749  0.0062
   73SLPC   C26 6438   5.208   4.306   5.020 -0.2130 -0.2025  1.2344
   73SLPC   H6R 6439   5.177   4.200   5.005 -0.6233  0.0350  0.3206
   73SLPC   H6S 6440   5.294   4.311   5.090  1.9605 -1.1517 -1.1889
   73SLPC   C27 6441   5.262   4.361   4.886 -0.2002  0.1558  0.5873
   73SLPC   H7R 6442   5.350   4.304   4.850 -0.1445  0.5344  0.1089
   73SLPC   H7S 6443   5.292   4.467   4.900 -1.1595  0.6244 -0.6943
   73SLPC   C28 6444   5.162   4.362   4.771  0.6711  0.2860 -0.3692
   73SLPC   H8R 6445   5.198   4.412   4.679 -1.0513  2.0680 -0.1338
   73SLPC   H8S 6446   5.080   4.431   4.800  1.4092  0.2753  1.8954
   73SLPC   C29 6447   5.108   4.229   4.732 -0.3537 -0.0196  0.1337
   73SLPC   H9R 6448   5.083   4.171   4.823  0.1479 -1.3552 -0.5619
   73SLPC  C210 6449   5.100   4.167   4.614  0.2446  0.0694  0.2643
   73SLPC  H10R 6450   5.069   4.061   4.610  0.6091 -0.0130 -0.4636
   73SLPC  C211 6451   5.142   4.219   4.479  0.7263 -0.3360  0.1143
   73SLPC  H11R 6452   5.232   4.175   4.433 -0.1924 -1.0437 -1.0664
   73SLPC  H11S 6453   5.168   4.327   4.492 -0.4499  0.0821 -0.7756
   73SLPC  C212 6454   5.034   4.220   4.374  0.3272 -0.5613  0.2967
   73SLPC  H12R 6455   4.963   4.304   4.381  0.7241 -0.3242  1.9949
   73SLPC  C213 6456   5.012   4.139   4.264  0.1639  0.7418 -0.2152
   73SLPC  H13R 6457   4.922   4.151   4.202  0.5348  2.2503 -0.5117
   73SLPC  C214 6458   5.111   4.036   4.233  0.2316  0.4620  0.9290
   73SLPC  H14R 6459   5.215   4.068   4.212  1.1693 -3.0466 -0.6884
   73SLPC  H14S 6460   5.073   3.998   4.136  0.2228  0.3740  0.9667
   73SLPC  C215 6461   5.110   3.910   4.318 -0.1644 -0.6626 -0.3066
   73SLPC  H15R 6462   5.007   3.874   4.335  0.4629 -1.7080  1.4860
   73SLPC  H15S 6463   5.150   3.929   4.420 -0.0574 -1.6554 -0.1513
   73SLPC  C216 6464   5.192   3.797   4.256  0.9907  0.0964 -0.6491
   73SLPC  H16R 6465   5.299   3.824   4.249  0.7728  1.4027  0.5199
   73SLPC  H16S 6466   5.148   3.767   4.159  1.8567  0.9875 -1.3278
   73SLPC  C217 6467   5.172   3.668   4.342 -0.3438  0.0106  0.7985
   73SLPC  H17R 6468   5.065   3.641   4.352 -0.7484  0.6590 -1.2877
   73SLPC  H17S 6469   5.193   3.704   4.445  0.0076  2.0685  0.0743
   73SLPC  C218 6470   5.245   3.544   4.285 -0.0970  0.5065  0.2959
   73SLPC  H18R 6471   5.353   3.565   4.270  0.0485  0.5304  1.2896
   73SLPC  H18S 6472   5.204   3.480   4.204 -0.3126 -0.9623  1.5151
   73SLPC  H18T 6473   5.251   3.477   4.374  0.0988 -2.9135 -2.1049
   73SLPC   C33 6474   4.632   4.112   4.965  0.2584  0.1971 -0.4786
   73SLPC   H3X 6475   4.543   4.104   5.030  1.3121 -0.6466  0.9245
   73SLPC   H3Y 6476   4.664   4.008   4.943 -1.7964 -0.3621 -1.0285
   73SLPC   C34 6477   4.597   4.170   4.828  0.0040 -0.1991  0.0514
   73SLPC   H4X 6478   4.688   4.157   4.765 -0.0045 -1.5489  0.2816
   73SLPC   H4Y 6479   4.563   4.273   4.850  0.3092 -0.2856  0.9983
   73SLPC   C35 6480   4.478   4.089   4.767  0.0188  0.4885 -0.4423
   73SLPC   H5X 6481   4.416   4.053   4.852  0.4221 -0.3810 -0.5003
   73SLPC   H5Y 6482   4.507   3.992   4.720 -1.5306 -1.8364  2.9952
   73SLPC   C36 6483   4.395   4.166   4.662 -0.1838 -0.9655 -0.2559
   73SLPC   H6X 6484   4.466   4.198   4.583  1.7246  0.5674  1.9663
   73SLPC   H6Y 6485   4.357   4.256   4.714 -0.8199 -1.6323  0.4644
   73SLPC   C37 6486   4.288   4.077   4.603  0.1865 -0.7765  0.3897
   73SLPC   H7X 6487   4.236   4.027   4.688 -0.8349 -0.2712  0.0904
   73SLPC   H7Y 6488   4.331   3.997   4.540 -0.1818  0.9924 -2.2473
   73SLPC   C38 6489   4.182   4.164   4.521 -0.1991  0.2045  0.1646
   73SLPC   H8X 6490   4.137   4.241   4.588 -0.4145  0.0671  0.1772
   73SLPC   H8Y 6491   4.098   4.102   4.486 -0.3216  1.4321 -1.8822
   73SLPC   C39 6492   4.248   4.231   4.390  0.1295 -0.2915 -0.2613
   73SLPC   H9X 6493   4.313   4.165   4.329 -1.7418 -0.8721 -1.7213
   73SLPC   H9Y 6494   4.315   4.306   4.437 -1.3140  0.0334  1.3601
   73SLPC  C310 6495   4.156   4.314   4.303  0.6399 -0.9852  0.8917
   73SLPC  H10X 6496   4.079   4.252   4.252 -0.7288  2.1488 -1.1419
   73SLPC  H10Y 6497   4.227   4.358   4.229  2.0110 -0.1599  2.6404
   73SLPC  C311 6498   4.082   4.431   4.379 -1.3174  0.5977  0.2314
   73SLPC  H11X 6499   4.167   4.500   4.398 -1.1973  0.3508  0.5946
   73SLPC  H11Y 6500   4.042   4.401   4.478  1.7781  2.3837  2.2047
   73SLPC  C312 6501   3.985   4.501   4.288  0.0151  0.6948  0.1991
   73SLPC  H12X 6502   3.916   4.421   4.252 -0.6088  1.1517  0.3673
   73SLPC  H12Y 6503   4.031   4.536   4.192 -0.4858 -1.7416 -1.0222
   73SLPC  C313 6504   3.896   4.604   4.355  0.2089 -0.2671 -0.4200
   73SLPC  H13X 6505   3.966   4.682   4.390 -0.6675  0.0795  0.6190
   73SLPC  H13Y 6506   3.836   4.568   4.442  1.5236 -0.1311  0.5740
   73SLPC  C314 6507   3.807   4.689   4.259 -0.1836 -0.0300  0.3177
   73SLPC  H14X 6508   3.735   4.752   4.314 -0.0535 -0.8765  1.5040
   73SLPC  H14Y 6509   3.753   4.612   4.200  0.8311 -0.3998 -0.1625
   73SLPC  C315 6510   3.882   4.777   4.165 -0.2182 -0.0754  0.2272
   73SLPC  H15X 6511   3.968   4.717   4.129 -0.0589  1.2445 -1.6716
   73SLPC  H15Y 6512   3.919   4.862   4.226 -0.6186 -1.7289  2.9553
   73SLPC  C316 6513   3.809   4.821   4.044 -0.1445  0.3445  0.1939
   73SLPC  H16X 6514   3.705   4.854   4.069  0.0999  0.7274  0.7245
   73SLPC  H16Y 6515   3.811   4.727   3.986 -1.2642  0.0810  0.5486
   73SLPC  C317 6516   3.883   4.937   3.976  0.0930 -0.5726 -0.3111
   73SLPC  H17X 6517   3.985   4.907   3.943 -0.1463 -1.9884  0.1510
   73SLPC  H17Y 6518   3.893   5.013   4.056  0.5479 -2.1858  1.2377
   73SLPC  C318 6519   3.814   4.984   3.849 -0.1317 -0.5260  0.1703
   73SLPC  H18X 6520   3.723   5.045   3.869  0.1096  0.1248 -0.6438
   73SLPC  H18Y 6521   3.778   4.902   3.783 -2.8416  0.0211  0.8332
   73SLPC  H18Z 6522   3.884   5.046   3.789 -1.8000  0.0720 -1.2848
   74SLPC     N 6523   2.617   4.179   5.841 -0.0408 -0.1275  0.2576
   74SLPC   C13 6524   2.509   4.240   5.925  0.1246 -0.6243  0.1928
   74SLPC  H13A 6525   2.426   4.173   5.912 -0.5810  0.5064 -1.5167
   74SLPC  H13B 6526   2.538   4.236   6.029  1.5740  3.0619  0.0934
   74SLPC  H13C 6527   2.478   4.340   5.898  0.6376 -0.2392  0.9919
   74SLPC   C14 6528   2.751   4.245   5.875  0.5792 -0.1279 -0.4763
   74SLPC  H14A 6529   2.786   4.206   5.970 -0.1572  1.4599  0.4834
   74SLPC  H14B 6530   2.833   4.238   5.805 -0.4204  1.6479 -1.9157
   74SLPC  H14C 6531   2.734   4.352   5.876 -0.9396 -0.3415  0.7563
   74SLPC   C15 6532   2.575   4.213   5.698 -0.0875 -0.4743  0.0204
   74SLPC  H15A 6533   2.646   4.165   5.633  4.5765  1.9767  2.7701
   74SLPC  H15B 6534   2.475   4.174   5.684 -0.4366 -0.0964  1.3242
   74SLPC  H15C 6535   2.566   4.321   5.690 -1.2207 -0.2776  2.7524
   74SLPC   C12 6536   2.631   4.028   5.851 -1.0675 -0.0177 -0.7612
   74SLPC  H12A 6537   2.534   3.982   5.841 -1.8662  0.6980  2.4779
   74SLPC  H12B 6538   2.662   4.006   5.952 -0.6274 -0.4559 -0.9914
   74SLPC   C11 6539   2.725   3.951   5.759 -0.6917  0.1283  0.4491
   74SLPC  H11A 6540   2.721   3.848   5.799 -0.1995 -0.5242 -1.1036
   74SLPC  H11B 6541   2.828   3.993   5.759 -0.1604 -1.0812 -0.9863
   74SLPC     P 6542   2.551   3.859   5.580  0.0382  0.1331 -0.4001
   74SLPC   O13 6543   2.600   3.724   5.568  0.6920  0.0018  0.0024
   74SLPC   O14 6544   2.442   3.886   5.675 -0.5937 -0.1071  0.2281
   74SLPC   O12 6545   2.675   3.949   5.624 -0.3145  0.2258  0.0855
   74SLPC   O11 6546   2.516   3.919   5.441  0.3882  1.0579  0.7360
   74SLPC    C1 6547   2.615   3.941   5.337 -0.3279 -0.4623 -0.4127
   74SLPC    HA 6548   2.716   3.907   5.370 -0.6457 -1.5797 -0.5777
   74SLPC    HB 6549   2.584   3.885   5.247 -0.4343 -0.2983 -0.4777
   74SLPC    C2 6550   2.604   4.090   5.311 -0.0638  0.3487  0.8740
   74SLPC    HS 6551   2.614   4.151   5.404 -0.1968  0.3109  0.9134
   74SLPC   O21 6552   2.483   4.114   5.240  0.2762 -0.2118 -0.0149
   74SLPC   C21 6553   2.418   4.230   5.250  0.4322 -0.9951 -0.1013
   74SLPC   O22 6554   2.469   4.325   5.310 -0.5263 -0.1928 -0.2833
   74SLPC   C22 6555   2.286   4.231   5.171 -0.1516 -1.1994  0.1773
   74SLPC   H2R 6556   2.284   4.145   5.101 -3.0638 -0.0771 -1.2534
   74SLPC   H2S 6557   2.208   4.214   5.249  1.5208 -0.7593  2.0551
   74SLPC    C3 6558   2.723   4.137   5.222  0.0292  0.2658 -0.3787
   74SLPC    HX 6559   2.817   4.137   5.282 -0.0244 -0.9090 -0.2716
   74SLPC    HY 6560   2.711   4.243   5.193  1.7875  0.8999  0.9979
   74SLPC   O31 6561   2.735   4.050   5.107  0.2470  0.0353  0.1735
   74SLPC   C31 6562   2.681   4.090   4.992  0.3016  0.0612  0.2285
   74SLPC   O32 6563   2.655   4.206   4.963 -0.3812  0.0034  0.0606
   74SLPC   C32 6564   2.640   3.965   4.916 -0.4714 -0.4458  0.5354
   74SLPC   H2X 6565   2.618   3.890   4.995  1.6186  0.0008  1.6020
   74SLPC   H2Y 6566   2.729   3.941   4.855  0.7027  1.7583  1.2734
   74SLPC   C23 6567   2.286   4.376   5.114  0.3524  0.2591 -0.1274
   74SLPC   H3R 6568   2.309   4.457   5.187  1.8281  1.4875 -1.8300
   74SLPC   H3S 6569   2.186   4.389   5.068  1.6191 -0.1902 -3.2674
   74SLPC   C24 6570   2.384   4.411   4.997  0.0679  0.0669  0.0791
   74SLPC   H4R 6571   2.485   4.368   5.011  0.2787  0.8704  1.1284
   74SLPC   H4S 6572   2.391   4.521   4.984  0.5627 -0.0894 -1.0820
   74SLPC   C25 6573   2.334   4.355   4.865 -0.1444  0.1218 -0.4720
   74SLPC   H5R 6574   2.241   4.404   4.828 -0.1920 -0.2494 -0.8508
   74SLPC   H5S 6575   2.320   4.245   4.859 -0.6150  0.2273 -1.6885
   74SLPC   C26 6576   2.432   4.388   4.753 -1.0557  0.4805  0.3569
   74SLPC   H6R 6577   2.529   4.348   4.790 -0.7726  0.3211 -0.5315
   74SLPC   H6S 6578   2.452   4.494   4.729  2.9180 -0.2304 -0.1063
   74SLPC   C27 6579   2.389   4.300   4.630 -0.9042  0.1459  0.1062
   74SLPC   H7R 6580   2.279   4.318   4.631 -0.7339  1.3657 -0.8763
   74SLPC   H7S 6581   2.406   4.193   4.653  0.3092  0.2564 -0.1958
   74SLPC   C28 6582   2.451   4.342   4.499 -0.3870 -0.1507  0.4185
   74SLPC   H8R 6583   2.431   4.264   4.423  4.3288 -2.9848  1.7020
   74SLPC   H8S 6584   2.560   4.358   4.513 -0.4673  1.7005 -0.6939
   74SLPC   C29 6585   2.404   4.478   4.466  0.5639  0.5541 -0.1727
   74SLPC   H9R 6586   2.391   4.550   4.548  0.5411 -0.7045  0.9889
   74SLPC  C210 6587   2.399   4.535   4.350  0.0444  0.1152  0.3895
   74SLPC  H10R 6588   2.383   4.643   4.338  0.3292  0.0675 -0.4562
   74SLPC  C211 6589   2.435   4.475   4.215  0.0821  0.7335  0.2313
   74SLPC  H11R 6590   2.526   4.417   4.242 -1.6233 -1.3543  1.9114
   74SLPC  H11S 6591   2.464   4.559   4.150  0.1999 -0.3528 -1.1632
   74SLPC  C212 6592   2.339   4.382   4.141  0.1515  0.4315  0.2534
   74SLPC  H12R 6593   2.239   4.378   4.188  1.2377 -2.3354  2.6344
   74SLPC  C213 6594   2.381   4.289   4.053  0.4435  0.1328 -1.1191
   74SLPC  H13R 6595   2.311   4.214   4.013 -1.6686  1.9862 -1.0316
   74SLPC  C214 6596   2.529   4.259   4.022  0.2502 -0.0801 -0.5410
   74SLPC  H14R 6597   2.574   4.172   4.074  1.0999  0.7834  0.2068
   74SLPC  H14S 6598   2.595   4.344   4.051  1.5222 -1.4528  0.7856
   74SLPC  C215 6599   2.550   4.228   3.869 -0.0677  0.2872 -0.5761
   74SLPC  H15R 6600   2.506   4.308   3.807 -1.2411 -0.8229 -1.2364
   74SLPC  H15S 6601   2.500   4.139   3.824 -1.3032  1.3554 -1.4076
   74SLPC  C216 6602   2.696   4.214   3.826 -0.4352  0.3080 -0.1253
   74SLPC  H16R 6603   2.729   4.116   3.867  1.4738  2.0625  2.9293
   74SLPC  H16S 6604   2.754   4.296   3.874 -1.4394  0.2659  1.2302
   74SLPC  C217 6605   2.719   4.198   3.673  0.6330  0.4935  0.2478
   74SLPC  H17R 6606   2.640   4.127   3.640  1.5417 -0.3639 -0.1232
   74SLPC  H17S 6607   2.820   4.153   3.664 -0.0915 -0.8068 -2.3350
   74SLPC  C218 6608   2.712   4.325   3.581  0.4843  0.7781  0.4376
   74SLPC  H18R 6609   2.711   4.291   3.476  1.5720  0.8251  0.4011
   74SLPC  H18S 6610   2.804   4.386   3.594  2.5047 -2.1273  0.8035
   74SLPC  H18T 6611   2.617   4.373   3.612  0.0289 -1.4642  2.8973
   74SLPC   C33 6612   2.524   3.972   4.821 -0.1402 -0.6313  0.6912
   74SLPC   H3X 6613   2.541   4.048   4.743  2.5799 -1.4674  0.3734
   74SLPC   H3Y 6614   2.427   3.987   4.874 -1.4019  0.1111 -1.6990
   74SLPC   C34 6615   2.515   3.839   4.748 -0.0356  0.1529  0.1616
   74SLPC   H4X 6616   2.504   3.767   4.833  3.6207 -1.4382 -0.5264
   74SLPC   H4Y 6617   2.612   3.805   4.707 -0.8329 -1.2972 -0.6183
   74SLPC   C35 6618   2.399   3.827   4.651  1.0355  0.6454  0.5211
   74SLPC   H5X 6619   2.310   3.885   4.684 -1.1929 -1.9445 -0.5959
   74SLPC   H5Y 6620   2.368   3.721   4.644  0.3511  0.6534  2.7426
   74SLPC   C36 6621   2.452   3.866   4.514 -0.6621 -0.2330 -0.6295
   74SLPC   H6X 6622   2.547   3.812   4.491 -0.5224 -0.9157  1.3088
   74SLPC   H6Y 6623   2.472   3.975   4.520 -1.0286 -0.0524 -2.2606
   74SLPC   C37 6624   2.355   3.842   4.401  0.0381 -0.4657 -0.9754
   74SLPC   H7X 6625   2.257   3.888   4.427  1.4977  1.9151  0.8430
   74SLPC   H7Y 6626   2.342   3.733   4.388  1.7047 -0.5289 -2.4668
   74SLPC   C38 6627   2.400   3.901   4.266  0.0204  0.9497  0.7456
   74SLPC   H8X 6628   2.498   3.858   4.234 -1.7813 -1.9163 -1.3873
   74SLPC   H8Y 6629   2.400   4.010   4.284 -0.3706  1.1516 -0.4124
   74SLPC   C39 6630   2.297   3.867   4.156 -0.3272 -0.1650  0.3671
   74SLPC   H9X 6631   2.210   3.932   4.180  0.4036  1.5283 -1.2832
   74SLPC   H9Y 6632   2.268   3.760   4.157 -2.0722  0.2697 -0.8675
   74SLPC  C310 6633   2.356   3.906   4.022 -0.9782 -0.5954  0.0292
   74SLPC  H10X 6634   2.452   3.849   4.015 -0.5207  0.0361  0.9503
   74SLPC  H10Y 6635   2.395   4.010   4.022 -0.1151 -0.9039 -0.0478
   74SLPC  C311 6636   2.264   3.855   3.909 -0.0266  0.3312 -0.5535
   74SLPC  H11X 6637   2.169   3.912   3.912 -0.1929  0.0922 -1.1440
   74SLPC  H11Y 6638   2.241   3.746   3.914 -4.0413  0.9207 -2.3122
   74SLPC  C312 6639   2.336   3.882   3.780 -0.4966  0.5008 -0.1591
   74SLPC  H12X 6640   2.445   3.866   3.796 -0.0905  2.4609 -0.7610
   74SLPC  H12Y 6641   2.327   3.992   3.770 -1.0746  0.2506 -3.6225
   74SLPC  C313 6642   2.280   3.802   3.659  0.0639  0.0776  0.1377
   74SLPC  H13X 6643   2.171   3.824   3.669  0.3837  1.6369  0.4189
   74SLPC  H13Y 6644   2.290   3.691   3.670  0.3416 -0.2336 -2.7215
   74SLPC  C314 6645   2.328   3.852   3.520 -0.3669 -0.1040  0.1684
   74SLPC  H14X 6646   2.324   3.962   3.509 -1.8189 -0.1388  0.2188
   74SLPC  H14Y 6647   2.257   3.808   3.448 -2.0651  1.4748  0.8066
   74SLPC  C315 6648   2.469   3.793   3.491  0.3290 -0.3098 -0.0526
   74SLPC  H15X 6649   2.459   3.682   3.482  3.2394 -0.8336  1.7389
   74SLPC  H15Y 6650   2.533   3.812   3.580 -0.7850  2.2958  0.2637
   74SLPC  C316 6651   2.541   3.854   3.372 -0.3982 -0.1038 -0.2454
   74SLPC  H16X 6652   2.469   3.847   3.288  0.1564 -2.3922 -0.5800
   74SLPC  H16Y 6653   2.626   3.793   3.335 -0.3865 -1.1578  1.4249
   74SLPC  C317 6654   2.602   3.993   3.400  0.2020 -0.3063 -0.1632
   74SLPC  H17X 6655   2.713   3.991   3.407  0.0755 -0.4235  2.9223
   74SLPC  H17Y 6656   2.563   4.050   3.487  0.9989  2.8086 -1.6851
   74SLPC  C318 6657   2.559   4.097   3.293 -0.0192 -0.4188  0.4229
   74SLPC  H18X 6658   2.449   4.113   3.300 -0.0241 -1.1226  2.4700
   74SLPC  H18Y 6659   2.574   4.054   3.192 -0.8505  0.9858 -0.3341
   74SLPC  H18Z 6660   2.608   4.197   3.297 -0.5571 -0.1823  1.5494
   75SLPC     N 6661   5.771   4.051   5.891  0.0736 -0.2981 -0.4502
   75SLPC   C13 6662   5.637   4.020   5.958  0.2477 -1.1340 -0.0765
   75SLPC  H13A 6663   5.625   3.913   5.965  0.5239 -1.0857  1.6316
   75SLPC  H13B 6664   5.635   4.051   6.061 -2.5587  1.7062 -0.8334
   75SLPC  H13C 6665   5.552   4.072   5.918 -1.7031 -1.7508  2.9299
   75SLPC   C14 6666   5.887   3.979   5.954 -0.4059 -0.4074  0.2159
   75SLPC  H14A 6667   5.876   3.874   5.932 -0.2716 -0.1152 -1.3587
   75SLPC  H14B 6668   5.979   4.013   5.910  0.4931 -0.6714  1.8182
   75SLPC  H14C 6669   5.881   3.984   6.062  1.1914 -1.5647  0.3819
   75SLPC   C15 6670   5.794   4.191   5.915 -0.2174 -0.2531  0.0327
   75SLPC  H15A 6671   5.793   4.213   6.021 -1.3529 -0.1999  0.0252
   75SLPC  H15B 6672   5.887   4.222   5.870 -0.2596  0.1080  0.1871
   75SLPC  H15C 6673   5.710   4.241   5.869  0.2378  0.0889 -0.4308
   75SLPC   C12 6674   5.761   4.027   5.745  0.0179 -0.7152  0.8635
   75SLPC  H12A 6675   5.697   4.102   5.700  1.5061 -0.6771 -1.3761
   75SLPC  H12B 6676   5.713   3.932   5.726 -2.2489  0.1458  1.9320
   75SLPC   C11 6677   5.894   4.039   5.666 -0.4615  0.6640  0.1244
   75SLPC  H11A 6678   5.869   4.017   5.560  2.7551  0.5766 -0.7106
   75SLPC  H11B 6679   5.961   3.954   5.690 -0.5524  0.6689  0.3961
   75SLPC     P 6680   6.090   4.184   5.597  0.1801 -0.2330 -0.2743
   75SLPC   O13 6681   6.120   4.326   5.591 -0.3026  0.1634  0.2873
   75SLPC   O14 6682   6.195   4.098   5.649  0.4893 -0.0237 -0.0296
   75SLPC   O12 6683   5.952   4.165   5.680  0.2557  0.2286  0.0091
   75SLPC   O11 6684   6.050   4.129   5.454 -0.1947 -0.4606 -0.6342
   75SLPC    C1 6685   6.046   4.214   5.346  0.2178 -0.2350 -0.2655
   75SLPC    HA 6686   6.134   4.280   5.333  0.1245 -0.2181 -0.8332
   75SLPC    HB 6687   6.046   4.150   5.255  1.2209 -0.3427 -0.1994
   75SLPC    C2 6688   5.913   4.303   5.342 -0.7742 -0.7977 -0.1604
   75SLPC    HS 6689   5.885   4.309   5.449 -0.1774 -0.1279 -0.0282
   75SLPC   O21 6690   5.816   4.232   5.270  0.6421 -0.0666 -0.0008
   75SLPC   C21 6691   5.697   4.294   5.275  0.1797  1.0077  0.4816
   75SLPC   O22 6692   5.665   4.383   5.353 -0.0831 -0.2964 -0.8012
   75SLPC   C22 6693   5.599   4.232   5.171 -0.3823  0.7003 -0.0800
   75SLPC   H2R 6694   5.569   4.135   5.216  0.6542  1.4762  2.4897
   75SLPC   H2S 6695   5.502   4.286   5.170 -0.8200 -0.0590  0.2467
   75SLPC    C3 6696   5.938   4.449   5.295 -0.2609 -0.1531  0.0305
   75SLPC    HX 6697   6.031   4.484   5.344  0.0731  3.0522 -2.5326
   75SLPC    HY 6698   5.866   4.521   5.338  0.8438  0.7191  0.4818
   75SLPC   O31 6699   5.943   4.455   5.151  0.0751  0.1210 -0.2861
   75SLPC   C31 6700   6.019   4.539   5.096  0.4430 -0.8713 -0.1173
   75SLPC   O32 6701   6.092   4.624   5.149 -0.1733 -0.4303  0.1327
   75SLPC   C32 6702   5.965   4.550   4.954  0.0337 -0.0938 -0.3045
   75SLPC   H2X 6703   5.860   4.586   4.941 -0.8160 -2.6743 -1.2466
   75SLPC   H2Y 6704   5.968   4.445   4.920 -1.6742  0.5894 -2.8753
   75SLPC   C23 6705   5.661   4.209   5.039 -0.3837  0.2295  0.6068
   75SLPC   H3R 6706   5.617   4.124   4.983  0.0969  0.1853  0.2947
   75SLPC   H3S 6707   5.768   4.181   5.048 -0.9636 -2.9774 -0.9981
   75SLPC   C24 6708   5.654   4.330   4.936  0.0033 -0.6359  0.1135
   75SLPC   H4R 6709   5.722   4.412   4.967  0.3968 -1.0391  0.3339
   75SLPC   H4S 6710   5.550   4.368   4.926 -0.7991 -1.7675  3.0517
   75SLPC   C25 6711   5.697   4.301   4.790  0.0901 -0.1362  0.0877
   75SLPC   H5R 6712   5.677   4.199   4.752  2.6359 -0.3344 -0.8893
   75SLPC   H5S 6713   5.808   4.295   4.788  0.0055 -2.3326 -1.0369
   75SLPC   C26 6714   5.659   4.412   4.693  0.2664 -0.1131  0.5606
   75SLPC   H6R 6715   5.711   4.503   4.730 -1.3869  1.3135 -0.4738
   75SLPC   H6S 6716   5.550   4.435   4.694  0.3106  0.0980  1.7944
   75SLPC   C27 6717   5.716   4.396   4.551  0.8152  0.1046  0.1300
   75SLPC   H7R 6718   5.821   4.360   4.558  0.6423 -1.0518 -2.2725
   75SLPC   H7S 6719   5.714   4.493   4.498 -0.5639 -0.1561 -0.3372
   75SLPC   C28 6720   5.639   4.286   4.478 -0.5404  0.3200 -0.6244
   75SLPC   H8R 6721   5.650   4.184   4.519 -0.5229  0.3721 -0.5004
   75SLPC   H8S 6722   5.694   4.291   4.381 -0.5409  0.1870 -0.6304
   75SLPC   C29 6723   5.495   4.321   4.448  0.3428 -0.1890  0.2694
   75SLPC   H9R 6724   5.441   4.338   4.542 -1.6438 -0.6893 -0.7124
   75SLPC  C210 6725   5.423   4.350   4.330  0.2246 -0.0221 -1.3165
   75SLPC  H10R 6726   5.317   4.379   4.340  0.2496  0.3972 -2.2044
   75SLPC  C211 6727   5.495   4.329   4.202  0.5148  0.0999 -0.8758
   75SLPC  H11R 6728   5.604   4.327   4.219  0.4874  0.1427 -0.6994
   75SLPC  H11S 6729   5.463   4.406   4.128 -2.5176  1.0748  1.2181
   75SLPC  C212 6730   5.456   4.188   4.154 -0.4230 -0.1489  0.7445
   75SLPC  H12R 6731   5.446   4.121   4.241 -2.9709  2.4808  2.6874
   75SLPC  C213 6732   5.422   4.150   4.028 -0.0469  0.2226 -0.1696
   75SLPC  H13R 6733   5.407   4.044   4.007 -1.0842 -0.0997  1.9734
   75SLPC  C214 6734   5.408   4.245   3.909  0.6785  0.6746  0.0504
   75SLPC  H14R 6735   5.501   4.225   3.851  1.2234  0.4761  0.9692
   75SLPC  H14S 6736   5.417   4.355   3.924  0.4580  0.8324 -0.9102
   75SLPC  C215 6737   5.278   4.215   3.819  0.5518 -0.0238 -0.3620
   75SLPC  H15R 6738   5.257   4.302   3.754 -3.0037 -0.1352  0.4326
   75SLPC  H15S 6739   5.190   4.214   3.888 -2.2188 -0.6264 -3.6373
   75SLPC  C216 6740   5.300   4.087   3.740  0.6312  0.2268  0.2746
   75SLPC  H16R 6741   5.298   4.000   3.809 -0.3149  0.5715  0.7016
   75SLPC  H16S 6742   5.400   4.093   3.693  0.0818  0.0183 -0.9505
   75SLPC  C217 6743   5.189   4.058   3.640  0.0711 -0.2276  0.5733
   75SLPC  H17R 6744   5.090   4.089   3.681 -0.1053  1.9422 -1.3005
   75SLPC  H17S 6745   5.179   3.949   3.619 -1.3021 -0.4127  2.0062
   75SLPC  C218 6746   5.202   4.136   3.508  0.6612 -0.1841 -0.0931
   75SLPC  H18R 6747   5.210   4.246   3.495 -0.1299 -0.1021  0.0991
   75SLPC  H18S 6748   5.117   4.097   3.448  1.0920 -1.4922  0.1163
   75SLPC  H18T 6749   5.294   4.100   3.457  0.0913 -0.3618 -1.0287
   75SLPC   C33 6750   6.058   4.633   4.865 -0.5673 -0.2783  0.0715
   75SLPC   H3X 6751   6.166   4.618   4.888 -0.2383  0.4634 -0.9254
   75SLPC   H3Y 6752   6.031   4.739   4.886 -0.8508 -0.5426  1.1303
   75SLPC   C34 6753   6.046   4.601   4.711  0.2990  0.2175  0.5398
   75SLPC   H4X 6754   5.939   4.620   4.691 -0.4171 -0.7165  3.0878
   75SLPC   H4Y 6755   6.083   4.499   4.688 -0.0394  0.0379  0.7811
   75SLPC   C35 6756   6.132   4.689   4.626  0.3670 -0.2011  0.0061
   75SLPC   H5X 6757   6.241   4.673   4.640  0.8949  3.2593  0.7309
   75SLPC   H5Y 6758   6.113   4.797   4.641  1.0554 -0.0180 -0.4049
   75SLPC   C36 6759   6.109   4.670   4.475 -0.4542  0.2342  0.4102
   75SLPC   H6X 6760   6.147   4.572   4.437  2.1938  1.1840  0.3942
   75SLPC   H6Y 6761   6.178   4.747   4.435  2.0957 -2.1678 -0.1609
   75SLPC   C37 6762   5.963   4.698   4.425 -0.7140 -0.2179 -0.1804
   75SLPC   H7X 6763   5.933   4.803   4.442 -0.3794  0.3073 -2.4607
   75SLPC   H7Y 6764   5.894   4.634   4.484 -0.3517  1.6468  2.4030
   75SLPC   C38 6765   5.933   4.667   4.269 -0.2612 -0.9351 -0.9308
   75SLPC   H8X 6766   6.009   4.722   4.209  0.5837  3.2923  3.4305
   75SLPC   H8Y 6767   5.833   4.711   4.248 -0.0442  0.0070 -0.0633
   75SLPC   C39 6768   5.949   4.517   4.230  0.4269 -0.2269  0.5157
   75SLPC   H9X 6769   5.868   4.451   4.267 -1.4156 -0.2299 -3.1184
   75SLPC   H9Y 6770   6.049   4.473   4.251 -0.1330 -1.1788  1.2975
   75SLPC  C310 6771   5.933   4.503   4.077  0.2349  0.2976  0.3394
   75SLPC  H10X 6772   6.010   4.567   4.029  0.9561 -0.3716  0.5755
   75SLPC  H10Y 6773   5.837   4.554   4.056  0.3863  0.0789 -0.9870
   75SLPC  C311 6774   5.928   4.365   4.024  0.1989  0.3946 -0.6663
   75SLPC  H11X 6775   5.851   4.304   4.077  0.0998  1.9344  1.0568
   75SLPC  H11Y 6776   6.020   4.312   4.055 -1.0398 -1.1048  0.6176
   75SLPC  C312 6777   5.907   4.356   3.871  0.2312  0.0019  0.6675
   75SLPC  H12X 6778   5.922   4.250   3.840  0.1834  0.6497 -1.8239
   75SLPC  H12Y 6779   5.986   4.413   3.818  0.5309 -0.4758  0.5900
   75SLPC  C313 6780   5.770   4.408   3.834  0.1991  0.2742 -0.0314
   75SLPC  H13X 6781   5.742   4.498   3.893 -0.6977 -0.3453  0.4924
   75SLPC  H13Y 6782   5.690   4.336   3.860  0.8884 -0.2330  0.7272
   75SLPC  C314 6783   5.753   4.443   3.683 -0.4261  0.4638 -0.3593
   75SLPC  H14X 6784   5.830   4.519   3.660  0.5673 -0.9087 -1.7373
   75SLPC  H14Y 6785   5.655   4.494   3.667 -0.5246  0.4146  0.0687
   75SLPC  C315 6786   5.779   4.332   3.577  0.0596 -0.1427 -0.0796
   75SLPC  H15X 6787   5.863   4.276   3.624 -0.0024  0.5358  0.8686
   75SLPC  H15Y 6788   5.805   4.386   3.483  1.7585  4.1005  2.5055
   75SLPC  C316 6789   5.649   4.253   3.543 -0.4706  0.2029  0.3144
   75SLPC  H16X 6790   5.579   4.325   3.496  0.7642  1.0648 -0.2685
   75SLPC  H16Y 6791   5.600   4.220   3.637  1.0963  0.8743  1.4204
   75SLPC  C317 6792   5.674   4.130   3.452 -0.0623  0.1059 -0.3196
   75SLPC  H17X 6793   5.627   4.041   3.499  0.1782 -0.7582 -1.6625
   75SLPC  H17Y 6794   5.785   4.122   3.451  0.0990  1.2700  1.9953
   75SLPC  C318 6795   5.625   4.124   3.306 -0.5505  0.2050 -0.0937
   75SLPC  H18X 6796   5.665   4.041   3.243  1.5318  1.4123 -0.4532
   75SLPC  H18Y 6797   5.648   4.220   3.254  0.7373 -0.4094 -0.7064
   75SLPC  H18Z 6798   5.516   4.104   3.311 -0.1241 -2.7353 -0.5335
   76SLPC     N 6799   7.089   3.163   5.583  0.3666 -0.2353  0.6449
   76SLPC   C13 6800   7.153   3.094   5.694 -0.2373 -0.4387 -0.1706
   76SLPC  H13A 6801   7.194   3.178   5.749  0.3185  0.8524 -2.4240
   76SLPC  H13B 6802   7.082   3.051   5.763  0.7573 -0.8402  0.6267
   76SLPC  H13C 6803   7.242   3.036   5.676  0.4876 -0.4158  2.7353
   76SLPC   C14 6804   7.017   3.062   5.504  0.8483  0.2343  0.7644
   76SLPC  H14A 6805   6.962   2.985   5.557 -0.4736 -0.5474 -1.5952
   76SLPC  H14B 6806   6.945   3.120   5.448 -0.4680 -0.7582  1.3787
   76SLPC  H14C 6807   7.078   2.997   5.444  2.9437  0.4931  2.4974
   76SLPC   C15 6808   7.192   3.219   5.488 -0.3507  0.0655 -0.5506
   76SLPC  H15A 6809   7.160   3.256   5.392  0.0971  2.4668  0.1725
   76SLPC  H15B 6810   7.232   3.306   5.536  0.1733  0.1602 -1.1490
   76SLPC  H15C 6811   7.281   3.161   5.469  0.3694  1.5633 -1.9601
   76SLPC   C12 6812   6.996   3.272   5.630 -0.5387 -0.5348 -0.8074
   76SLPC  H12A 6813   6.917   3.243   5.698 -0.7458  3.9197  1.2199
   76SLPC  H12B 6814   6.937   3.308   5.547  0.5335 -0.3350 -1.4963
   76SLPC   C11 6815   7.066   3.393   5.709  0.5210  0.0717 -0.1403
   76SLPC  H11A 6816   7.121   3.332   5.784  1.4252 -2.0207 -2.3705
   76SLPC  H11B 6817   6.988   3.456   5.758  0.0332  0.3674 -1.2670
   76SLPC     P 6818   7.117   3.609   5.569  0.5541  0.3371  0.1953
   76SLPC   O13 6819   7.115   3.707   5.679 -0.0918 -0.4426  0.4774
   76SLPC   O14 6820   7.214   3.630   5.462 -0.0827 -0.2490  0.5436
   76SLPC   O12 6821   7.145   3.465   5.626  0.0926 -0.1855 -0.0334
   76SLPC   O11 6822   6.978   3.602   5.502  0.4444 -0.2546 -0.8314
   76SLPC    C1 6823   6.943   3.519   5.398  0.4672  0.1470 -0.3912
   76SLPC    HA 6824   7.009   3.430   5.385 -0.9955 -1.3112  1.5126
   76SLPC    HB 6825   6.847   3.469   5.425  0.5442 -0.3240 -0.9705
   76SLPC    C2 6826   6.909   3.586   5.269  0.1338  0.0284 -0.4850
   76SLPC    HS 6827   6.870   3.515   5.193 -1.2052  0.3215 -0.0955
   76SLPC   O21 6828   7.032   3.646   5.219 -0.1320  0.3613  0.0181
   76SLPC   C21 6829   7.117   3.556   5.161 -0.6226  0.1581 -1.1906
   76SLPC   O22 6830   7.098   3.434   5.168 -0.1429 -0.1257  0.2751
   76SLPC   C22 6831   7.247   3.628   5.119 -0.2265  0.9932 -0.2417
   76SLPC   H2R 6832   7.269   3.710   5.190 -0.7377 -0.4216  1.6394
   76SLPC   H2S 6833   7.334   3.559   5.110  0.3623  1.4334  1.6700
   76SLPC    C3 6834   6.803   3.700   5.269 -0.0684  0.4157  0.3566
   76SLPC    HX 6835   6.838   3.766   5.352 -1.6402 -3.2108  4.2720
   76SLPC    HY 6836   6.708   3.661   5.312  0.2273  0.1797  0.8042
   76SLPC   O31 6837   6.780   3.748   5.135  0.6911  0.0681  0.8826
   76SLPC   C31 6838   6.838   3.858   5.101 -0.1668  0.3957  0.0081
   76SLPC   O32 6839   6.877   3.950   5.177  0.3963  0.1931 -0.1812
   76SLPC   C32 6840   6.869   3.859   4.952 -0.0764 -0.6130  0.3019
   76SLPC   H2X 6841   6.929   3.769   4.927 -2.3370 -1.8873 -0.7998
   76SLPC   H2Y 6842   6.928   3.952   4.932  0.3694 -1.0296 -0.3521
   76SLPC   C23 6843   7.231   3.698   4.976  0.1751 -0.0170  0.1472
   76SLPC   H3R 6844   7.328   3.750   4.963  2.0053 -2.8634  1.4505
   76SLPC   H3S 6845   7.148   3.772   4.978 -0.9975 -1.2112 -1.8204
   76SLPC   C24 6846   7.202   3.593   4.867  0.3616  0.7361  0.2680
   76SLPC   H4R 6847   7.107   3.622   4.818  0.2138  1.4901  0.9829
   76SLPC   H4S 6848   7.185   3.491   4.907  2.0785  0.2444 -0.1796
   76SLPC   C25 6849   7.308   3.578   4.754  0.4696  0.3297  0.0695
   76SLPC   H5R 6850   7.408   3.582   4.802  0.3693  3.8232  0.2443
   76SLPC   H5S 6851   7.309   3.662   4.680 -1.4447  1.9568  1.7682
   76SLPC   C26 6852   7.288   3.450   4.670  0.0273  0.1906 -0.1907
   76SLPC   H6R 6853   7.280   3.362   4.737  2.6456  0.6107  0.7646
   76SLPC   H6S 6854   7.380   3.432   4.611  0.1647  0.4970 -0.0681
   76SLPC   C27 6855   7.162   3.450   4.576  0.8735  0.4616  0.3986
   76SLPC   H7R 6856   7.180   3.544   4.518  0.6535  0.3354  0.1242
   76SLPC   H7S 6857   7.069   3.478   4.631  1.2425  0.5464  0.9752
   76SLPC   C28 6858   7.155   3.339   4.471  0.6895  0.6366 -0.3932
   76SLPC   H8R 6859   7.254   3.325   4.422  0.3822 -1.8255 -0.4436
   76SLPC   H8S 6860   7.078   3.364   4.395  0.0522 -2.6477 -1.0097
   76SLPC   C29 6861   7.118   3.204   4.526  0.1430  0.6215 -0.0806
   76SLPC   H9R 6862   7.178   3.174   4.613 -0.1100  0.3693  0.0092
   76SLPC  C210 6863   7.021   3.120   4.482  0.1856 -0.1991  0.5457
   76SLPC  H10R 6864   7.011   3.023   4.534  0.2216 -2.1612 -2.7714
   76SLPC  C211 6865   6.927   3.150   4.366 -1.1686 -0.1284 -0.1358
   76SLPC  H11R 6866   6.896   3.255   4.349  1.0499  0.9316  1.7314
   76SLPC  H11S 6867   6.829   3.103   4.391 -0.6189  0.1525  3.0569
   76SLPC  C212 6868   6.984   3.075   4.239 -0.1362  0.0787 -0.0406
   76SLPC  H12R 6869   7.032   2.977   4.250  3.8806  1.8705  0.6240
   76SLPC  C213 6870   6.975   3.113   4.114 -0.6015  0.0105  0.2107
   76SLPC  H13R 6871   7.006   3.036   4.041 -2.5084 -1.3564  0.7630
   76SLPC  C214 6872   6.919   3.244   4.063  0.0949  0.8765 -0.3011
   76SLPC  H14R 6873   6.854   3.296   4.138 -0.3522 -2.3474  1.7519
   76SLPC  H14S 6874   6.857   3.198   3.983  0.2944 -1.6288  0.8786
   76SLPC  C215 6875   7.017   3.332   4.000  0.3028 -0.3052  0.5114
   76SLPC  H15R 6876   6.971   3.427   3.964  1.2857  0.1012  0.3110
   76SLPC  H15S 6877   7.060   3.292   3.906 -2.5034 -0.6717 -0.7159
   76SLPC  C216 6878   7.122   3.381   4.101  0.2002 -0.4267  0.4535
   76SLPC  H16R 6879   7.164   3.293   4.154 -1.5789 -2.2591 -1.0044
   76SLPC  H16S 6880   7.061   3.440   4.173 -1.8640  0.9702 -2.2062
   76SLPC  C217 6881   7.233   3.471   4.042 -0.0726  0.1517  0.0168
   76SLPC  H17R 6882   7.174   3.551   3.993 -1.2640 -0.8090 -0.1779
   76SLPC  H17S 6883   7.297   3.413   3.972 -0.6184  0.0730 -0.4296
   76SLPC  C218 6884   7.327   3.520   4.155  0.3285 -1.1322  0.2089
   76SLPC  H18R 6885   7.418   3.556   4.104 -1.2323  1.0704 -1.1792
   76SLPC  H18S 6886   7.344   3.441   4.232 -2.1185 -1.5641  0.3839
   76SLPC  H18T 6887   7.286   3.606   4.212  0.7926 -1.6833  1.4006
   76SLPC   C33 6888   6.744   3.852   4.858  0.4628 -0.5037 -0.2059
   76SLPC   H3X 6889   6.686   3.767   4.898 -1.0597  1.0637  1.0876
   76SLPC   H3Y 6890   6.770   3.808   4.759 -2.0336 -1.2521 -0.5882
   76SLPC   C34 6891   6.665   3.986   4.843  0.0449  0.1831 -0.3553
   76SLPC   H4X 6892   6.709   4.040   4.756  0.7955 -0.1516 -0.1912
   76SLPC   H4Y 6893   6.681   4.053   4.929  1.1879 -1.1496  0.5154
   76SLPC   C35 6894   6.515   3.972   4.821  0.5520 -0.4056 -0.6105
   76SLPC   H5X 6895   6.461   4.069   4.828  2.8815  1.0115 -0.9523
   76SLPC   H5Y 6896   6.472   3.898   4.892  1.7855 -0.2703  0.3088
   76SLPC   C36 6897   6.482   3.919   4.680  0.5392 -0.3859  0.3875
   76SLPC   H6X 6898   6.392   3.854   4.684  0.3336 -0.3028 -1.7623
   76SLPC   H6Y 6899   6.562   3.852   4.642  0.8508  0.6735 -0.8837
   76SLPC   C37 6900   6.454   4.037   4.580  0.0935  0.0497  0.3568
   76SLPC   H7X 6901   6.550   4.092   4.583 -0.6314  1.4722 -1.4174
   76SLPC   H7Y 6902   6.368   4.099   4.613 -0.5003 -0.4116 -0.2939
   76SLPC   C38 6903   6.428   3.991   4.441 -0.0565  0.3950 -0.0104
   76SLPC   H8X 6904   6.361   3.902   4.444 -0.1997  0.3223  5.4345
   76SLPC   H8Y 6905   6.525   3.959   4.399  0.1911  0.4261  0.5295
   76SLPC   C39 6906   6.382   4.107   4.353  0.2700 -0.0767  0.2505
   76SLPC   H9X 6907   6.456   4.190   4.359  0.2240  0.0611 -0.8828
   76SLPC   H9Y 6908   6.285   4.143   4.395 -0.3982 -1.6627  0.1088
   76SLPC  C310 6909   6.349   4.069   4.207  0.0775 -0.4756  0.4359
   76SLPC  H10X 6910   6.321   4.164   4.156  4.4463  0.4289 -0.6927
   76SLPC  H10Y 6911   6.267   3.995   4.194  0.5725 -0.5444 -3.8022
   76SLPC  C311 6912   6.478   4.017   4.137  0.3476  0.3164  0.2640
   76SLPC  H11X 6913   6.500   3.914   4.171  2.2142  0.6098  0.0350
   76SLPC  H11Y 6914   6.568   4.079   4.160  1.4209 -1.8011  2.1526
   76SLPC  C312 6915   6.462   4.006   3.989 -0.1728 -0.2283 -0.0278
   76SLPC  H12X 6916   6.414   4.095   3.943  0.3553  0.0293 -0.0794
   76SLPC  H12Y 6917   6.385   3.931   3.958 -2.0248  1.6145 -0.1420
   76SLPC  C313 6918   6.589   3.962   3.918 -0.3878 -0.2543 -0.1708
   76SLPC  H13X 6919   6.559   3.916   3.821 -1.4552  1.9600 -0.9594
   76SLPC  H13Y 6920   6.646   3.881   3.967 -0.1783 -0.5698 -0.9124
   76SLPC  C314 6921   6.681   4.085   3.877  1.0439  0.0849 -0.6540
   76SLPC  H14X 6922   6.730   4.132   3.965 -2.2638  0.2915  1.2571
   76SLPC  H14Y 6923   6.623   4.155   3.814 -2.1825 -1.3251  0.5196
   76SLPC  C315 6924   6.781   4.025   3.780  0.5044 -0.0189 -0.1061
   76SLPC  H15X 6925   6.735   3.989   3.685  0.3923 -3.3696  1.1029
   76SLPC  H15Y 6926   6.827   3.931   3.817  2.0416  0.6937 -0.1053
   76SLPC  C316 6927   6.909   4.119   3.751 -0.5844 -0.9248 -0.5905
   76SLPC  H16X 6928   6.952   4.144   3.850 -2.2561  0.7849 -0.2412
   76SLPC  H16Y 6929   6.874   4.215   3.706  0.1059  0.7031  2.1167
   76SLPC  C317 6930   7.013   4.057   3.654 -0.7404  0.2592 -0.0333
   76SLPC  H17X 6931   7.021   3.948   3.673  0.8094  0.4175  0.3844
   76SLPC  H17Y 6932   7.118   4.089   3.673 -0.7099 -0.8709  1.9184
   76SLPC  C318 6933   6.983   4.066   3.500  0.0774 -0.0107 -0.2709
   76SLPC  H18X 6934   7.077   4.061   3.441  0.7470  1.2234  0.6391
   76SLPC  H18Y 6935   6.942   4.165   3.469  1.7471  0.8583  0.1893
   76SLPC  H18Z 6936   6.917   3.988   3.457  1.9211 -1.6163 -0.3321
   77SLPC     N 6937   1.127   4.013   5.735  0.1271 -0.3708 -0.1286
   77SLPC   C13 6938   1.207   4.138   5.707  0.8733  0.3898  0.3365
   77SLPC  H13A 6939   1.225   4.192   5.799 -0.1613 -1.4731  1.7050
   77SLPC  H13B 6940   1.295   4.117   5.648  0.4601  1.0381 -0.5252
   77SLPC  H13C 6941   1.157   4.205   5.639  1.5696 -0.3535 -0.9492
   77SLPC   C14 6942   1.198   3.925   5.839  0.7686 -0.2861  0.8162
   77SLPC  H14A 6943   1.128   3.859   5.890  2.8430 -3.6371 -0.3586
   77SLPC  H14B 6944   1.280   3.869   5.798  0.7675  0.4436 -0.2216
   77SLPC  H14C 6945   1.236   3.988   5.918 -0.9506  2.4778 -0.4103
   77SLPC   C15 6946   1.118   3.939   5.600 -0.1545 -0.4160 -1.0202
   77SLPC  H15A 6947   1.218   3.942   5.558  0.0010  0.1012 -0.6269
   77SLPC  H15B 6948   1.084   3.840   5.626  1.1805 -0.7288 -0.3561
   77SLPC  H15C 6949   1.054   3.984   5.526  0.7648 -0.8574 -2.1150
   77SLPC   C12 6950   0.987   4.044   5.784 -0.2645  0.1957  0.5623
   77SLPC  H12A 6951   1.003   4.101   5.874 -0.8550  2.2443 -0.5811
   77SLPC  H12B 6952   0.938   3.950   5.804 -0.9296  0.2387 -0.8071
   77SLPC   C11 6953   0.895   4.133   5.708 -0.2966  0.1085 -0.5593
   77SLPC  H11A 6954   0.896   4.110   5.599 -1.9559  2.6097 -1.2125
   77SLPC  H11B 6955   0.932   4.237   5.720 -0.0060 -0.1956  1.5490
   77SLPC     P 6956   0.657   4.026   5.739  0.1414  0.2568  0.4142
   77SLPC   O13 6957   0.722   3.898   5.774 -0.5642 -0.5611 -0.5861
   77SLPC   O14 6958   0.533   4.058   5.812  0.0528  0.1185  0.6168
   77SLPC   O12 6959   0.762   4.141   5.757  0.1005  0.1849 -0.1198
   77SLPC   O11 6960   0.626   4.020   5.585  0.5388  0.2935 -0.1942
   77SLPC    C1 6961   0.596   4.135   5.506  0.4552  0.3368 -0.1629
   77SLPC    HA 6962   0.560   4.218   5.570  0.0180 -0.9418  1.3244
   77SLPC    HB 6963   0.686   4.177   5.456  1.9196  1.1421  2.9122
   77SLPC    C2 6964   0.483   4.106   5.403 -0.0430  0.4916 -0.3598
   77SLPC    HS 6965   0.398   4.071   5.466  1.0740 -2.3641 -0.2675
   77SLPC   O21 6966   0.532   4.005   5.320  0.4377 -0.7407  0.1606
   77SLPC   C21 6967   0.441   3.932   5.258 -0.3957 -0.4458 -0.3258
   77SLPC   O22 6968   0.321   3.956   5.266  0.2864  0.3652  0.6570
   77SLPC   C22 6969   0.511   3.822   5.175 -0.3100 -0.1255  0.2493
   77SLPC   H2R 6970   0.577   3.867   5.098 -3.0426  0.1348 -2.1213
   77SLPC   H2S 6971   0.565   3.754   5.244  2.7287 -0.6605 -2.4113
   77SLPC    C3 6972   0.442   4.230   5.316  0.1518  0.4658 -1.0810
   77SLPC    HX 6973   0.413   4.313   5.383 -0.6005 -1.8188  1.6249
   77SLPC    HY 6974   0.359   4.195   5.251  1.7224  1.1915 -3.5968
   77SLPC   O31 6975   0.556   4.278   5.240 -0.1162  0.2254 -0.3882
   77SLPC   C31 6976   0.564   4.230   5.117  0.5140 -0.4886 -0.0798
   77SLPC   O32 6977   0.485   4.148   5.066 -0.0415  0.0497  0.2918
   77SLPC   C32 6978   0.686   4.276   5.047 -0.1689  0.0745  0.4068
   77SLPC   H2X 6979   0.760   4.194   5.048 -0.7171 -0.4305  0.4377
   77SLPC   H2Y 6980   0.719   4.363   5.107 -1.8300  0.1251  1.3301
   77SLPC   C23 6981   0.401   3.740   5.096 -0.0081 -0.2561 -0.0888
   77SLPC   H3R 6982   0.350   3.794   5.013  2.4347  1.4612 -0.5939
   77SLPC   H3S 6983   0.312   3.717   5.158  0.9593  1.9126  2.2749
   77SLPC   C24 6984   0.453   3.604   5.045 -0.0725  0.1820 -0.0685
   77SLPC   H4R 6985   0.370   3.537   5.013  0.6324 -0.6984 -0.0753
   77SLPC   H4S 6986   0.507   3.550   5.125 -0.7462 -0.0492  0.2374
   77SLPC   C25 6987   0.563   3.627   4.937  0.5420 -0.2187  0.5268
   77SLPC   H5R 6988   0.617   3.533   4.912 -0.2034  0.1621 -2.9961
   77SLPC   H5S 6989   0.640   3.704   4.956 -0.8779  1.0519  1.3341
   77SLPC   C26 6990   0.487   3.657   4.805 -0.3066 -0.2912  0.0054
   77SLPC   H6R 6991   0.415   3.738   4.831 -1.7752 -2.1821  2.3081
   77SLPC   H6S 6992   0.433   3.563   4.781  0.0320 -0.1510 -1.3966
   77SLPC   C27 6993   0.588   3.692   4.693  0.0849 -0.7916 -0.2923
   77SLPC   H7R 6994   0.640   3.595   4.674  0.2856 -0.7783  0.1855
   77SLPC   H7S 6995   0.657   3.768   4.735 -1.5835  2.9585 -3.6385
   77SLPC   C28 6996   0.521   3.742   4.564  0.9909 -0.5299 -0.1351
   77SLPC   H8R 6997   0.606   3.765   4.497  1.3603  0.8108  0.7391
   77SLPC   H8S 6998   0.480   3.841   4.594  1.7111 -0.2920  0.0785
   77SLPC   C29 6999   0.419   3.647   4.499  0.2471 -0.6854 -1.2033
   77SLPC   H9R 7000   0.363   3.592   4.577 -1.7143  3.1016  0.3031
   77SLPC  C210 7001   0.392   3.640   4.371  0.5317  0.1345  0.2844
   77SLPC  H10R 7002   0.327   3.556   4.345 -1.2075  0.6633  2.5706
   77SLPC  C211 7003   0.453   3.719   4.258 -0.4729  0.6525 -0.4896
   77SLPC  H11R 7004   0.508   3.809   4.293 -0.6801  0.6453 -0.1402
   77SLPC  H11S 7005   0.364   3.765   4.209 -1.9290 -0.9496  0.5375
   77SLPC  C212 7006   0.507   3.626   4.155 -0.6514  0.2670  0.6694
   77SLPC  H12R 7007   0.485   3.519   4.167 -1.1795  0.5073  2.0227
   77SLPC  C213 7008   0.579   3.668   4.049  0.7420 -0.1699 -0.0828
   77SLPC  H13R 7009   0.610   3.594   3.975 -1.9255 -1.3769 -0.0973
   77SLPC  C214 7010   0.614   3.815   4.017  0.2660  0.4304  0.6084
   77SLPC  H14R 7011   0.721   3.820   3.985 -0.2697  0.3531 -1.3118
   77SLPC  H14S 7012   0.613   3.884   4.104  0.0631 -0.8151  1.6317
   77SLPC  C215 7013   0.534   3.858   3.895 -0.1416 -0.2061  0.1026
   77SLPC  H15R 7014   0.424   3.845   3.904 -0.5063  0.9358 -1.9812
   77SLPC  H15S 7015   0.566   3.808   3.801  1.4084 -0.0325  0.5211
   77SLPC  C216 7016   0.537   4.007   3.870 -0.1656 -0.0349 -0.5826
   77SLPC  H16R 7017   0.641   4.038   3.847  0.1847  0.7459  1.7938
   77SLPC  H16S 7018   0.520   4.056   3.969  3.6691 -2.5457  1.5807
   77SLPC  C217 7019   0.434   4.064   3.767 -0.0521  0.5942 -0.2890
   77SLPC  H17R 7020   0.350   3.995   3.789  0.9227 -0.5428 -0.0056
   77SLPC  H17S 7021   0.471   4.032   3.667  1.0542 -0.9637  0.5748
   77SLPC  C218 7022   0.390   4.210   3.785 -0.4057  0.0694  0.4768
   77SLPC  H18R 7023   0.484   4.267   3.772 -0.2783 -0.4240 -1.0262
   77SLPC  H18S 7024   0.349   4.227   3.887 -2.8380  1.2799 -0.6142
   77SLPC  H18T 7025   0.321   4.244   3.705  0.8543 -0.3107 -0.8125
   77SLPC   C33 7026   0.670   4.326   4.906  0.1142  0.4209  0.3155
   77SLPC   H3X 7027   0.742   4.403   4.870  1.7790 -0.4250  1.6502
   77SLPC   H3Y 7028   0.566   4.362   4.890 -0.7586 -2.4794 -1.3055
   77SLPC   C34 7029   0.681   4.219   4.804  0.0460  1.1849  1.6818
   77SLPC   H4X 7030   0.625   4.131   4.841 -1.1254  0.6308 -1.0989
   77SLPC   H4Y 7031   0.780   4.177   4.777 -0.4328  0.1840  1.4396
   77SLPC   C35 7032   0.629   4.268   4.668  0.3055 -0.5551  0.6153
   77SLPC   H5X 7033   0.712   4.335   4.637 -0.0194 -0.3134  0.2535
   77SLPC   H5Y 7034   0.531   4.320   4.676  0.4944 -0.2251  0.8234
   77SLPC   C36 7035   0.603   4.155   4.571 -0.0464  0.1848 -0.2996
   77SLPC   H6X 7036   0.530   4.096   4.630  0.8027 -1.0512 -0.4634
   77SLPC   H6Y 7037   0.693   4.091   4.565  0.0815  0.0181  2.2982
   77SLPC   C37 7038   0.532   4.189   4.440  0.4379  0.1731  0.3666
   77SLPC   H7X 7039   0.430   4.228   4.459  0.3135 -1.1921  2.9922
   77SLPC   H7Y 7040   0.521   4.089   4.392  0.8518 -0.4949  1.5997
   77SLPC   C38 7041   0.602   4.301   4.362 -0.8489 -0.0516  0.1322
   77SLPC   H8X 7042   0.584   4.400   4.409  2.9576  0.1412  1.5004
   77SLPC   H8Y 7043   0.557   4.309   4.261  0.9336  0.0412 -0.6868
   77SLPC   C39 7044   0.753   4.282   4.335 -0.8098  0.1464  0.1030
   77SLPC   H9X 7045   0.779   4.192   4.275  2.2156  0.4338  0.8374
   77SLPC   H9Y 7046   0.803   4.259   4.431  0.0822 -2.8790 -0.9682
   77SLPC  C310 7047   0.807   4.410   4.268 -0.3883 -0.0807 -0.3877
   77SLPC  H10X 7048   0.863   4.455   4.353  1.6248 -2.1833 -0.5160
   77SLPC  H10Y 7049   0.729   4.486   4.245 -1.2841 -0.5820  0.8600
   77SLPC  C311 7050   0.902   4.391   4.148 -0.1729 -0.7442  0.2003
   77SLPC  H11X 7051   0.988   4.325   4.174 -0.3524 -1.6209 -1.3347
   77SLPC  H11Y 7052   0.942   4.489   4.116 -0.0248 -0.2282  1.8857
   77SLPC  C312 7053   0.830   4.343   4.029  0.2862 -0.2860 -0.0130
   77SLPC  H12X 7054   0.806   4.437   3.974 -2.2092 -1.0712 -0.4155
   77SLPC  H12Y 7055   0.736   4.290   4.054 -0.5083  1.2343  0.3927
   77SLPC  C313 7056   0.906   4.249   3.934 -0.0268  0.0711  0.3708
   77SLPC  H13X 7057   0.997   4.302   3.897 -0.1500  1.0221  1.3602
   77SLPC  H13Y 7058   0.847   4.210   3.849 -0.0536  0.8690  0.0109
   77SLPC  C314 7059   0.937   4.121   4.017 -0.0049  0.1934  0.4148
   77SLPC  H14X 7060   0.858   4.102   4.092 -0.4741 -0.3175 -0.1939
   77SLPC  H14Y 7061   1.027   4.143   4.079  0.5921  0.4097 -0.5013
   77SLPC  C315 7062   0.961   3.991   3.924  0.4559  0.0447 -0.2421
   77SLPC  H15X 7063   0.869   3.965   3.868  0.0921 -0.5869  0.6302
   77SLPC  H15Y 7064   0.973   3.900   3.987  1.8924  0.8193  0.6619
   77SLPC  C316 7065   1.078   3.993   3.830  0.4266  0.5849 -0.4883
   77SLPC  H16X 7066   1.070   4.078   3.759 -0.3036 -0.1139 -1.2855
   77SLPC  H16Y 7067   1.067   3.903   3.766  2.3306 -0.2264  0.2523
   77SLPC  C317 7068   1.216   3.993   3.899 -0.6722  0.1796 -0.0513
   77SLPC  H17X 7069   1.219   4.095   3.942  0.2895 -0.2864  1.0440
   77SLPC  H17Y 7070   1.298   3.982   3.824 -0.9439 -2.5979 -0.0559
   77SLPC  C318 7071   1.242   3.895   4.011 -0.1000  0.5116 -0.0592
   77SLPC  H18X 7072   1.232   3.790   3.976  0.0081  0.6717 -0.5790
   77SLPC  H18Y 7073   1.167   3.909   4.092 -0.2929  1.7484 -0.4309
   77SLPC  H18Z 7074   1.343   3.907   4.056 -0.1467  0.6065  0.0196
   78SLPC     N 7075   3.310   0.635   5.959 -0.0974 -0.0179  0.0911
   78SLPC   C13 7076   3.379   0.760   5.923  0.0833  0.3524  0.3175
   78SLPC  H13A 7077   3.485   0.739   5.930  0.6141  2.7922  0.3408
   78SLPC  H13B 7078   3.367   0.785   5.818 -0.4447 -3.0649 -0.5555
   78SLPC  H13C 7079   3.353   0.846   5.983 -2.5461 -0.1910  0.0495
   78SLPC   C14 7080   3.343   0.597   6.095 -0.1784  0.3714  0.3422
   78SLPC  H14A 7081   3.333   0.678   6.165 -0.8585  0.4120  0.2053
   78SLPC  H14B 7082   3.289   0.507   6.124 -0.9864  1.0713  1.0617
   78SLPC  H14C 7083   3.447   0.567   6.100 -0.3502 -0.1193  1.1919
   78SLPC   C15 7084   3.367   0.526   5.869  0.6599 -0.8595 -1.0802
   78SLPC  H15A 7085   3.329   0.538   5.769  1.6381 -0.5791 -1.4342
   78SLPC  H15B 7086   3.473   0.541   5.852  0.5550  0.2771 -0.8150
   78SLPC  H15C 7087   3.337   0.427   5.902 -2.8447 -0.6191 -3.0455
   78SLPC   C12 7088   3.159   0.656   5.954 -0.3758  0.4446 -0.6833
   78SLPC  H12A 7089   3.149   0.744   6.016  3.4034 -0.7475  1.9946
   78SLPC  H12B 7090   3.099   0.578   5.999 -1.6483  0.6715 -1.9321
   78SLPC   C11 7091   3.101   0.669   5.812 -1.1609 -0.2501 -0.3104
   78SLPC  H11A 7092   3.165   0.741   5.757 -0.5142  1.9167  2.9757
   78SLPC  H11B 7093   2.997   0.710   5.813 -1.2363 -0.4527  0.2599
   78SLPC     P 7094   3.020   0.426   5.783  0.6309  0.3299 -0.2083
   78SLPC   O13 7095   3.107   0.311   5.746 -0.3003  0.3191 -0.0684
   78SLPC   O14 7096   2.971   0.432   5.926 -0.1204  0.4343 -0.0095
   78SLPC   O12 7097   3.096   0.556   5.738  0.2392  0.3321  0.3127
   78SLPC   O11 7098   2.897   0.427   5.686  0.2465 -0.5675 -0.2179
   78SLPC    C1 7099   2.822   0.548   5.668 -0.1460  0.3029  0.8145
   78SLPC    HA 7100   2.764   0.580   5.757 -2.9184  0.9984 -1.1110
   78SLPC    HB 7101   2.895   0.627   5.637 -0.1231 -0.3437 -0.9285
   78SLPC    C2 7102   2.727   0.546   5.544  0.0411 -0.5271 -0.1179
   78SLPC    HS 7103   2.654   0.465   5.568 -0.3368 -0.4744 -1.0360
   78SLPC   O21 7104   2.800   0.516   5.424 -0.4224 -0.3794 -0.2873
   78SLPC   C21 7105   2.823   0.390   5.400 -0.0083 -0.2900 -0.3185
   78SLPC   O22 7106   2.786   0.293   5.463 -0.4234  0.4270 -0.5530
   78SLPC   C22 7107   2.927   0.381   5.286 -0.1893  1.1721 -1.0183
   78SLPC   H2R 7108   2.986   0.475   5.288 -0.3544  1.2836  1.6247
   78SLPC   H2S 7109   3.000   0.300   5.306  0.3959  2.0668  0.6354
   78SLPC    C3 7110   2.641   0.674   5.514 -0.3014  0.3165  0.4880
   78SLPC    HX 7111   2.716   0.739   5.464  0.0071  1.6136  2.5218
   78SLPC    HY 7112   2.601   0.728   5.603 -0.6815  2.1657 -0.7450
   78SLPC   O31 7113   2.546   0.654   5.408 -1.1348  0.3863 -0.4440
   78SLPC   C31 7114   2.431   0.616   5.450 -0.9959  0.2644  0.2655
   78SLPC   O32 7115   2.394   0.618   5.569  0.3047 -0.3925  0.1582
   78SLPC   C32 7116   2.337   0.585   5.335  0.1908 -0.5313  0.1163
   78SLPC   H2X 7117   2.309   0.674   5.275 -0.7843 -0.9374 -0.0583
   78SLPC   H2Y 7118   2.249   0.545   5.389 -0.7472 -0.9757 -1.6606
   78SLPC   C23 7119   2.871   0.358   5.143 -0.3156 -0.5839  0.0101
   78SLPC   H3R 7120   2.812   0.444   5.105  0.3447 -0.0197  0.2576
   78SLPC   H3S 7121   2.794   0.278   5.153 -1.4372  0.6819  2.3154
   78SLPC   C24 7122   2.989   0.320   5.042 -0.0510 -0.2982 -0.4163
   78SLPC   H4R 7123   3.055   0.252   5.099 -2.5635 -0.9325  1.9600
   78SLPC   H4S 7124   3.044   0.412   5.014  0.2552 -0.3712 -0.0675
   78SLPC   C25 7125   2.931   0.252   4.918 -0.2805 -1.2004  0.4693
   78SLPC   H5R 7126   2.837   0.297   4.878 -0.1340 -4.2692 -4.0079
   78SLPC   H5S 7127   2.915   0.148   4.954  1.5701 -1.7526 -0.1616
   78SLPC   C26 7128   3.041   0.236   4.807 -0.2087  0.0522 -0.1305
   78SLPC   H6R 7129   3.133   0.205   4.860 -1.5592 -1.3196  1.5558
   78SLPC   H6S 7130   3.066   0.334   4.761  0.9379 -0.6902 -1.1426
   78SLPC   C27 7131   3.003   0.150   4.681 -0.4839 -0.6843 -0.1684
   78SLPC   H7R 7132   2.899   0.179   4.653 -1.9438 -0.6732  4.3408
   78SLPC   H7S 7133   2.980   0.051   4.727 -0.0179 -0.7202 -0.0107
   78SLPC   C28 7134   3.112   0.154   4.578  0.2095 -0.1682  0.0464
   78SLPC   H8R 7135   3.208   0.123   4.626  0.1216 -1.0722 -0.3418
   78SLPC   H8S 7136   3.126   0.261   4.551  3.2891  0.4415  3.3153
   78SLPC   C29 7137   3.062   0.070   4.469  0.0354 -0.0538 -0.0494
   78SLPC   H9R 7138   3.087  -0.037   4.471 -0.2400 -0.1085  1.3073
   78SLPC  C210 7139   2.978   0.119   4.372 -0.8101  0.0156  0.6903
   78SLPC  H10R 7140   2.961   0.057   4.283  1.3398 -0.2111  0.3841
   78SLPC  C211 7141   2.922   0.261   4.360  0.7442  0.2109  0.5757
   78SLPC  H11R 7142   2.876   0.294   4.456  0.7194  0.2064  0.5654
   78SLPC  H11S 7143   2.839   0.251   4.287  1.0887  0.2869  0.1774
   78SLPC  C212 7144   3.025   0.359   4.312 -0.2154  0.0566 -0.7732
   78SLPC  H12R 7145   3.112   0.306   4.270  1.1238  0.6605  1.0984
   78SLPC  C213 7146   3.034   0.492   4.339 -0.7122  0.0367 -0.1651
   78SLPC  H13R 7147   3.119   0.553   4.303 -0.4079 -0.3861 -0.1655
   78SLPC  C214 7148   2.925   0.563   4.413 -0.5812 -0.0004 -0.0357
   78SLPC  H14R 7149   2.826   0.515   4.400  0.2313 -1.2430 -2.2432
   78SLPC  H14S 7150   2.922   0.670   4.382  1.6032 -0.2791 -1.4529
   78SLPC  C215 7151   2.927   0.568   4.564  0.3150  0.1967  0.3409
   78SLPC  H15R 7152   2.907   0.473   4.617 -1.0588 -0.2551 -0.9190
   78SLPC  H15S 7153   2.833   0.623   4.584 -1.2677 -2.8202  1.8562
   78SLPC  C216 7154   3.045   0.650   4.614  0.5743  0.9411  0.2823
   78SLPC  H16R 7155   3.027   0.755   4.581  0.2517  0.7800 -0.0589
   78SLPC  H16S 7156   3.139   0.627   4.559 -1.3135  0.8812 -3.1838
   78SLPC  C217 7157   3.061   0.654   4.764  0.3733  0.1701  0.0279
   78SLPC  H17R 7158   3.154   0.711   4.785  0.7780 -0.2307 -0.6278
   78SLPC  H17S 7159   3.076   0.549   4.797 -0.7699 -0.2409 -0.7244
   78SLPC  C218 7160   2.932   0.696   4.838  0.6949 -0.6577 -0.0270
   78SLPC  H18R 7161   2.953   0.695   4.947  0.3256  0.8251  0.0667
   78SLPC  H18S 7162   2.855   0.617   4.822 -0.8429  1.0235 -1.2136
   78SLPC  H18T 7163   2.895   0.795   4.806  1.5240 -0.2298  0.3220
   78SLPC   C33 7164   2.401   0.496   5.225 -0.0683  0.1966 -0.5021
   78SLPC   H3X 7165   2.326   0.422   5.191 -0.0490  1.1299 -2.7314
   78SLPC   H3Y 7166   2.484   0.433   5.264  0.0069  0.6667  0.1120
   78SLPC   C34 7167   2.448   0.581   5.103 -0.5193 -0.1512 -0.4539
   78SLPC   H4X 7168   2.530   0.528   5.050 -0.0222 -0.4137  0.5686
   78SLPC   H4Y 7169   2.499   0.671   5.141 -0.1895 -0.8724  0.8443
   78SLPC   C35 7170   2.344   0.607   4.996 -0.1098 -0.7823 -0.6648
   78SLPC   H5X 7171   2.250   0.643   5.043 -0.4753  0.2127 -2.0875
   78SLPC   H5Y 7172   2.319   0.509   4.949  1.3470 -0.5704 -1.9407
   78SLPC   C36 7173   2.384   0.725   4.910  0.2384  0.0365  0.1661
   78SLPC   H6X 7174   2.412   0.805   4.983 -1.0121  2.1455 -1.5427
   78SLPC   H6Y 7175   2.292   0.767   4.864 -0.0053 -1.4395 -0.7339
   78SLPC   C37 7176   2.505   0.696   4.818  0.0726  0.0359  0.1455
   78SLPC   H7X 7177   2.579   0.625   4.863 -1.7684 -2.5031 -0.6407
   78SLPC   H7Y 7178   2.563   0.787   4.792 -1.0675  0.5833 -0.5431
   78SLPC   C38 7179   2.464   0.629   4.690  0.7367  0.4587 -0.4586
   78SLPC   H8X 7180   2.421   0.528   4.709  4.1534 -1.0686 -0.0095
   78SLPC   H8Y 7181   2.557   0.602   4.635 -0.7235 -1.3879 -2.2010
   78SLPC   C39 7182   2.367   0.709   4.598 -0.1109 -0.4077 -0.4816
   78SLPC   H9X 7183   2.420   0.806   4.595  2.4842 -1.6214  1.9632
   78SLPC   H9Y 7184   2.268   0.730   4.644 -1.0879 -1.0548 -2.1989
   78SLPC  C310 7185   2.333   0.642   4.467 -0.7242  0.0506 -0.1333
   78SLPC  H10X 7186   2.250   0.699   4.421 -1.4969 -2.0643 -1.4859
   78SLPC  H10Y 7187   2.299   0.536   4.478 -0.0797 -0.1196  0.3357
   78SLPC  C311 7188   2.455   0.644   4.363  0.3947  0.1410  0.3814
   78SLPC  H11X 7189   2.535   0.583   4.411 -0.5239 -0.1913  1.5342
   78SLPC  H11Y 7190   2.499   0.746   4.354  0.4392  0.1118  0.2646
   78SLPC  C312 7191   2.434   0.586   4.225 -0.3335 -0.7671  0.1652
   78SLPC  H12X 7192   2.404   0.479   4.231 -2.2584 -0.2841 -0.0089
   78SLPC  H12Y 7193   2.518   0.598   4.153 -0.7257 -0.1973 -0.2100
   78SLPC  C313 7194   2.324   0.657   4.145  0.1109  0.4060  0.1364
   78SLPC  H13X 7195   2.343   0.766   4.152  0.0346  0.4527 -0.3512
   78SLPC  H13Y 7196   2.229   0.645   4.202 -0.8689  0.7884 -1.3486
   78SLPC  C314 7197   2.308   0.599   4.006 -0.4914 -0.1260  0.6415
   78SLPC  H14X 7198   2.289   0.490   4.014 -1.2750  0.1153  2.6761
   78SLPC  H14Y 7199   2.408   0.614   3.960 -0.7856 -1.1876 -0.3827
   78SLPC  C315 7200   2.198   0.662   3.920  0.6173 -0.3131  0.6140
   78SLPC  H15X 7201   2.201   0.773   3.908  1.7965 -0.3937 -0.0193
   78SLPC  H15Y 7202   2.110   0.645   3.984 -0.2776 -2.0920 -0.9969
   78SLPC  C316 7203   2.185   0.607   3.780  0.2291  0.4762 -0.3049
   78SLPC  H16X 7204   2.274   0.623   3.717 -1.1182  1.1165 -2.1314
   78SLPC  H16Y 7205   2.109   0.668   3.728 -0.5941  0.7989  1.2098
   78SLPC  C317 7206   2.151   0.455   3.776 -0.0005 -0.5768 -0.1024
   78SLPC  H17X 7207   2.052   0.434   3.823 -1.8598  0.4519 -3.2264
   78SLPC  H17Y 7208   2.226   0.401   3.837  2.4311  2.1406 -0.4770
   78SLPC  C318 7209   2.149   0.398   3.637  0.3438  0.6017  0.0633
   78SLPC  H18X 7210   2.081   0.450   3.566 -0.1015  0.0048  0.0487
   78SLPC  H18Y 7211   2.101   0.298   3.637  0.3748  0.5831  0.4171
   78SLPC  H18Z 7212   2.246   0.380   3.588  0.1281 -0.7225  0.0824
   79SLPC     N 7213   7.193   4.000   5.452  0.5683  0.1432 -0.1023
   79SLPC   C13 7214   7.220   4.146   5.481 -0.3400  1.0620 -0.5438
   79SLPC  H13A 7215   7.304   4.181   5.423  0.3731  0.4167  0.0787
   79SLPC  H13B 7216   7.134   4.204   5.452 -0.1932  2.3625  1.3923
   79SLPC  H13C 7217   7.244   4.163   5.585  1.6483 -1.4166 -0.4892
   79SLPC   C14 7218   7.321   3.911   5.481  0.1309 -0.2790 -0.3741
   79SLPC  H14A 7219   7.374   3.938   5.571  1.9123 -1.0746 -1.1263
   79SLPC  H14B 7220   7.289   3.808   5.480  0.5711 -0.4292  0.3897
   79SLPC  H14C 7221   7.391   3.915   5.399 -0.1766  1.7200 -0.5887
   79SLPC   C15 7222   7.158   3.983   5.313  0.3299  1.0247 -0.5364
   79SLPC  H15A 7223   7.070   4.039   5.284 -0.3070 -0.0917 -0.8042
   79SLPC  H15B 7224   7.245   4.004   5.253  1.6846  1.3162  1.4329
   79SLPC  H15C 7225   7.126   3.882   5.294  1.2030  0.7924 -0.7997
   79SLPC   C12 7226   7.079   3.958   5.547  0.4770 -0.5788 -0.6351
   79SLPC  H12A 7227   7.109   3.978   5.649  0.3829 -0.7538 -0.5730
   79SLPC  H12B 7228   7.085   3.850   5.546  0.8589 -0.6320  1.5998
   79SLPC   C11 7229   6.939   4.018   5.526 -0.0127  1.2098  0.9003
   79SLPC  H11A 7230   6.868   3.958   5.587  0.1791 -0.9216 -0.8350
   79SLPC  H11B 7231   6.915   3.991   5.421  1.5158  1.7314  0.3896
   79SLPC     P 7232   6.888   4.212   5.681 -0.1802  0.0115 -0.1913
   79SLPC   O13 7233   6.741   4.242   5.673  0.4992 -0.0275 -0.2747
   79SLPC   O14 7234   6.928   4.116   5.785 -0.0863  1.1117  0.5245
   79SLPC   O12 7235   6.937   4.155   5.545 -0.7643 -0.3670 -0.3257
   79SLPC   O11 7236   6.967   4.347   5.704  0.7783  0.4196  0.7268
   79SLPC    C1 7237   6.928   4.465   5.642  0.6809  0.5229 -0.5052
   79SLPC    HA 7238   6.817   4.466   5.630  0.5598 -0.6806  0.2316
   79SLPC    HB 7239   6.948   4.547   5.715  2.7297 -1.1635  0.9590
   79SLPC    C2 7240   7.015   4.505   5.524 -0.2489  0.5282 -0.5596
   79SLPC    HS 7241   6.999   4.609   5.489 -0.0887  0.7996  0.1534
   79SLPC   O21 7242   7.012   4.402   5.421 -0.7514 -0.2798  0.5037
   79SLPC   C21 7243   6.895   4.393   5.347  0.8671  0.7979 -0.2439
   79SLPC   O22 7244   6.790   4.448   5.377  0.6083 -0.3516  0.3645
   79SLPC   C22 7245   6.910   4.297   5.233  0.2075  0.4456 -0.2306
   79SLPC   H2R 7246   7.015   4.261   5.224  0.1530  0.2221  0.0140
   79SLPC   H2S 7247   6.854   4.210   5.271 -0.0526  1.1537  1.0980
   79SLPC    C3 7248   7.174   4.515   5.575 -0.0684 -0.1559  0.2726
   79SLPC    HX 7249   7.199   4.410   5.599 -1.1948 -0.2634  1.0781
   79SLPC    HY 7250   7.177   4.576   5.667  0.5398  0.9661 -0.4617
   79SLPC   O31 7251   7.261   4.579   5.470  0.1353 -0.0512 -0.5351
   79SLPC   C31 7252   7.357   4.508   5.417 -0.1301  0.1592  0.7399
   79SLPC   O32 7253   7.392   4.394   5.438 -0.2819  0.0108 -0.7287
   79SLPC   C32 7254   7.428   4.597   5.306  0.2598 -0.1939  0.4826
   79SLPC   H2X 7255   7.503   4.529   5.261  0.6085  1.4955 -1.6380
   79SLPC   H2Y 7256   7.487   4.665   5.371  0.5534 -0.2911  0.3142
   79SLPC   C23 7257   6.868   4.362   5.095 -0.2795  0.2013 -0.1474
   79SLPC   H3R 7258   6.892   4.470   5.087 -0.2396  0.1728 -0.3962
   79SLPC   H3S 7259   6.757   4.360   5.086 -0.1582 -0.5758 -1.6954
   79SLPC   C24 7260   6.928   4.266   4.983  0.6360 -0.2048  0.5656
   79SLPC   H4R 7261   6.909   4.166   5.029 -0.0015  0.6583  2.2648
   79SLPC   H4S 7262   7.034   4.291   4.962  0.5339 -1.1858 -1.2739
   79SLPC   C25 7263   6.848   4.286   4.847 -0.2326 -0.3443 -0.6596
   79SLPC   H5R 7264   6.833   4.394   4.827 -1.9316 -0.4764 -0.2273
   79SLPC   H5S 7265   6.744   4.247   4.845 -0.5135  0.4031 -0.8699
   79SLPC   C26 7266   6.922   4.225   4.727 -0.8699 -0.2865  0.4088
   79SLPC   H6R 7267   6.942   4.118   4.751  0.7905 -0.3198 -0.9827
   79SLPC   H6S 7268   7.015   4.284   4.716 -1.3739  0.6696  1.0819
   79SLPC   C27 7269   6.852   4.232   4.587  0.4904  0.0738  0.0499
   79SLPC   H7R 7270   6.828   4.339   4.573 -0.0484 -0.0609 -0.0725
   79SLPC   H7S 7271   6.762   4.167   4.586  1.5168 -1.4249 -1.0269
   79SLPC   C28 7272   6.947   4.170   4.480  0.1518 -0.9047 -0.3445
   79SLPC   H8R 7273   6.952   4.065   4.518  2.3798 -0.4537  0.8087
   79SLPC   H8S 7274   7.045   4.221   4.495 -0.3205  0.2996 -1.1888
   79SLPC   C29 7275   6.893   4.182   4.341 -0.6767 -0.3375 -0.2698
   79SLPC   H9R 7276   6.829   4.098   4.311  0.0285 -0.5674 -1.1842
   79SLPC  C210 7277   6.901   4.285   4.265 -0.6099 -0.4411 -0.2611
   79SLPC  H10R 7278   6.873   4.283   4.159  0.0549  0.6391 -0.4725
   79SLPC  C211 7279   6.964   4.409   4.307 -0.1139 -0.2645 -0.5126
   79SLPC  H11R 7280   6.968   4.441   4.414  3.2888 -0.7714 -0.3689
   79SLPC  H11S 7281   6.913   4.493   4.256  1.9829  0.1415 -2.0760
   79SLPC  C212 7282   7.105   4.410   4.260  0.1803 -0.5974  0.9897
   79SLPC  H12R 7283   7.177   4.360   4.326  2.0413  1.5816  0.7386
   79SLPC  C213 7284   7.147   4.443   4.136  0.0778 -0.3162  0.3188
   79SLPC  H13R 7285   7.253   4.439   4.109 -0.2809 -1.3256 -1.0509
   79SLPC  C214 7286   7.061   4.490   4.024  0.0654  0.2047  0.4099
   79SLPC  H14R 7287   7.103   4.589   3.997  1.8943 -0.1474  1.7795
   79SLPC  H14S 7288   6.951   4.504   4.036  0.0659  1.6966 -0.9904
   79SLPC  C215 7289   7.087   4.393   3.900 -0.0218 -0.0369  0.2770
   79SLPC  H15R 7290   6.999   4.405   3.833  0.0177  0.3448  0.2925
   79SLPC  H15S 7291   7.093   4.284   3.919  0.1075 -0.0629  0.0928
   79SLPC  C216 7292   7.209   4.448   3.824  0.0677 -0.2643  0.8270
   79SLPC  H16R 7293   7.304   4.432   3.880  0.5495 -1.9771 -0.4112
   79SLPC  H16S 7294   7.210   4.559   3.813  2.3335 -0.2727  0.3376
   79SLPC  C217 7295   7.235   4.381   3.687  0.2761 -0.4400 -0.2168
   79SLPC  H17R 7296   7.150   4.381   3.616 -0.3439 -2.3350  0.4701
   79SLPC  H17S 7297   7.251   4.272   3.703  0.6557 -0.4914 -0.8747
   79SLPC  C218 7298   7.365   4.436   3.617 -0.4575  0.1762  0.4775
   79SLPC  H18R 7299   7.450   4.424   3.687 -0.6187  0.8582  0.7951
   79SLPC  H18S 7300   7.356   4.545   3.597 -1.3777  0.5555  2.6583
   79SLPC  H18T 7301   7.385   4.378   3.524  0.9857  0.5118  0.5522
   79SLPC   C33 7302   7.338   4.674   5.206 -0.1414 -0.1277  0.3175
   79SLPC   H3X 7303   7.405   4.710   5.125  1.2205  1.7095  2.1525
   79SLPC   H3Y 7304   7.284   4.760   5.251 -1.6972 -2.0584  2.3663
   79SLPC   C34 7305   7.228   4.586   5.139 -0.4225 -0.1787  1.0868
   79SLPC   H4X 7306   7.192   4.631   5.045  0.6111  1.1396  1.3031
   79SLPC   H4Y 7307   7.139   4.579   5.206 -1.5526 -0.7349 -0.4113
   79SLPC   C35 7308   7.286   4.446   5.090 -0.1148 -0.3968  0.1370
   79SLPC   H5X 7309   7.211   4.388   5.033 -0.5438 -1.1731  1.4580
   79SLPC   H5Y 7310   7.318   4.378   5.172 -1.7803 -0.6161  0.6264
   79SLPC   C36 7311   7.402   4.461   4.988  0.1483 -0.3921  0.2664
   79SLPC   H6X 7312   7.488   4.509   5.038 -0.4163  3.4467 -2.0661
   79SLPC   H6Y 7313   7.364   4.528   4.909 -0.7484 -0.5813  0.5321
   79SLPC   C37 7314   7.463   4.334   4.918  0.5433 -0.3031  0.5331
   79SLPC   H7X 7315   7.472   4.258   4.998  0.5633  0.3460  1.1563
   79SLPC   H7Y 7316   7.560   4.348   4.865  1.1502 -3.3950  0.6614
   79SLPC   C38 7317   7.372   4.287   4.809 -0.3337  0.1910  0.5501
   79SLPC   H8X 7318   7.376   4.358   4.723  3.4410 -1.8456 -1.1965
   79SLPC   H8Y 7319   7.268   4.272   4.843 -1.6382 -0.9569 -3.3592
   79SLPC   C39 7320   7.403   4.145   4.753 -0.0959 -0.5683  0.2552
   79SLPC   H9X 7321   7.426   4.086   4.844 -0.4310  0.4986  1.0523
   79SLPC   H9Y 7322   7.492   4.159   4.687 -1.8520 -0.6014 -2.2634
   79SLPC  C310 7323   7.292   4.075   4.678  0.2334 -0.0466 -0.8596
   79SLPC  H10X 7324   7.244   4.153   4.615 -1.2058  0.8244  1.2326
   79SLPC  H10Y 7325   7.207   4.057   4.747 -2.0610  0.9837 -3.2229
   79SLPC  C311 7326   7.340   3.943   4.613 -1.1464  0.2215 -0.0229
   79SLPC  H11X 7327   7.363   3.866   4.690  0.4117  0.7593  0.0858
   79SLPC  H11Y 7328   7.434   3.968   4.560 -0.2448  0.6097  1.7117
   79SLPC  C312 7329   7.258   3.884   4.505  0.5419 -0.2048 -0.0093
   79SLPC  H12X 7330   7.155   3.868   4.542 -0.3492  4.2247 -0.0265
   79SLPC  H12Y 7331   7.296   3.782   4.483  2.0491 -0.3540  2.8601
   79SLPC  C313 7332   7.240   3.963   4.371  0.2088 -0.0926 -0.1404
   79SLPC  H13X 7333   7.171   4.048   4.391  1.6884  0.7072  1.8557
   79SLPC  H13Y 7334   7.196   3.901   4.290 -0.5177  1.8381 -1.3152
   79SLPC  C314 7335   7.372   4.018   4.307 -0.4791  0.2450  0.4282
   79SLPC  H14X 7336   7.451   3.942   4.290 -0.4231  0.5287 -0.6538
   79SLPC  H14Y 7337   7.417   4.086   4.383 -1.5247  0.2745  1.0511
   79SLPC  C315 7338   7.351   4.098   4.176  0.2368 -0.1957  0.0120
   79SLPC  H15X 7339   7.391   4.198   4.203 -1.3137  0.7445 -0.9636
   79SLPC  H15Y 7340   7.242   4.121   4.165  0.7643  1.8730 -1.3953
   79SLPC  C316 7341   7.401   4.042   4.044 -0.0682 -0.3512  0.4204
   79SLPC  H16X 7342   7.512   4.038   4.042 -0.0187  0.3620  1.2231
   79SLPC  H16Y 7343   7.374   4.111   3.961  0.5199  3.9303  3.4597
   79SLPC  C317 7344   7.356   3.905   4.009  0.9657 -0.1910  1.1933
   79SLPC  H17X 7345   7.365   3.834   4.094 -0.2242 -0.2732  1.2675
   79SLPC  H17Y 7346   7.417   3.873   3.922  1.1577 -0.0881  1.2886
   79SLPC  C318 7347   7.211   3.890   3.958 -0.0477  0.3244 -0.4922
   79SLPC  H18X 7348   7.198   3.967   3.879  1.4079 -0.0102 -1.0836
   79SLPC  H18Y 7349   7.139   3.911   4.040  1.5684  1.8905  0.6262
   79SLPC  H18Z 7350   7.203   3.785   3.923  0.8662 -0.2972  1.0346
   80SLPC     N 7351   6.045   7.119   5.910  0.2551  0.8715  0.9457
   80SLPC   C13 7352   5.928   7.044   5.962 -0.2090 -1.1243 -0.0403
   80SLPC  H13A 7353   5.845   7.112   5.970  2.1850  1.7912  2.3018
   80SLPC  H13B 7354   5.908   6.959   5.898 -2.5650 -1.3940  0.9465
   80SLPC  H13C 7355   5.955   6.994   6.054  1.1692 -0.5797 -0.1287
   80SLPC   C14 7356   6.023   7.155   5.764  0.1693 -0.0938  0.1711
   80SLPC  H14A 7357   5.973   7.250   5.755 -0.6440 -0.4117  1.1583
   80SLPC  H14B 7358   6.115   7.167   5.709 -0.7390 -1.7479 -1.8567
   80SLPC  H14C 7359   5.971   7.075   5.714  0.7197  0.2053 -0.9194
   80SLPC   C15 7360   6.158   7.018   5.907 -1.1868 -0.1181 -0.9948
   80SLPC  H15A 7361   6.142   6.929   5.847  1.4141 -1.2119 -0.1770
   80SLPC  H15B 7362   6.245   7.070   5.870 -0.2278 -0.4058  0.7336
   80SLPC  H15C 7363   6.177   6.978   6.006 -3.2954 -1.7939 -1.1821
   80SLPC   C12 7364   6.072   7.232   5.996 -0.4631 -0.0966  0.2765
   80SLPC  H12A 7365   6.179   7.249   6.000 -0.1612 -1.8680  0.3773
   80SLPC  H12B 7366   6.046   7.200   6.095  1.4280 -0.4849  0.6867
   80SLPC   C11 7367   5.996   7.370   5.973  0.3567 -0.2310 -0.5531
   80SLPC  H11A 7368   6.016   7.417   5.874  2.2734  0.9943  0.3580
   80SLPC  H11B 7369   6.048   7.434   6.047  0.2668 -1.2478  0.4214
   80SLPC     P 7370   5.746   7.409   5.911  0.0706 -0.1993 -0.2132
   80SLPC   O13 7371   5.633   7.315   5.913  0.1787 -0.1853 -0.1074
   80SLPC   O14 7372   5.733   7.550   5.948 -0.4364  0.2661  0.3296
   80SLPC   O12 7373   5.859   7.358   6.006  0.0503 -0.1013 -0.3629
   80SLPC   O11 7374   5.811   7.388   5.764 -0.0247 -0.5022 -0.3196
   80SLPC    C1 7375   5.812   7.496   5.675  0.5984  0.2362  0.9601
   80SLPC    HA 7376   5.840   7.589   5.728 -4.1084  0.4994  3.5017
   80SLPC    HB 7377   5.891   7.477   5.599  0.8079 -0.4334  1.3280
   80SLPC    C2 7378   5.671   7.516   5.602  0.2190  0.8723 -0.4329
   80SLPC    HS 7379   5.598   7.527   5.685  1.4903  0.4176  0.7941
   80SLPC   O21 7380   5.656   7.415   5.509 -0.4593  0.5801 -0.0922
   80SLPC   C21 7381   5.530   7.367   5.497 -0.5907  0.5607  0.0450
   80SLPC   O22 7382   5.433   7.397   5.561  0.0423 -0.6240 -0.3084
   80SLPC   C22 7383   5.535   7.271   5.374 -0.2193  0.2020 -0.4247
   80SLPC   H2R 7384   5.560   7.339   5.290  0.5999  1.5738  0.8771
   80SLPC   H2S 7385   5.627   7.208   5.379  0.7721  1.6835  1.4431
   80SLPC    C3 7386   5.676   7.653   5.527  0.2111 -0.0522 -1.0083
   80SLPC    HX 7387   5.762   7.648   5.456  0.2454 -1.9339 -0.8855
   80SLPC    HY 7388   5.702   7.728   5.604 -0.8047  0.9335 -1.6044
   80SLPC   O31 7389   5.555   7.687   5.451  0.2968  0.0615 -0.2374
   80SLPC   C31 7390   5.449   7.717   5.521  0.0343 -0.2306  0.2193
   80SLPC   O32 7391   5.442   7.726   5.643  0.0499 -0.8551 -0.0673
   80SLPC   C32 7392   5.336   7.730   5.421 -0.5900 -0.0148 -0.4115
   80SLPC   H2X 7393   5.332   7.625   5.385  1.3068 -0.5074  0.6812
   80SLPC   H2Y 7394   5.376   7.787   5.334  3.2234 -0.1044  1.0911
   80SLPC   C23 7395   5.408   7.187   5.355  0.5254  0.2498 -0.0850
   80SLPC   H3R 7396   5.378   7.144   5.454 -1.2121 -3.2291 -1.9145
   80SLPC   H3S 7397   5.432   7.104   5.285  0.5256  0.2375 -0.0703
   80SLPC   C24 7398   5.289   7.257   5.287  1.0861  0.1671  0.1447
   80SLPC   H4R 7399   5.261   7.350   5.340  2.1438  0.2699  0.5530
   80SLPC   H4S 7400   5.194   7.200   5.300  1.8897 -1.1639  0.3623
   80SLPC   C25 7401   5.326   7.304   5.144 -0.6125  0.4989 -0.5624
   80SLPC   H5R 7402   5.365   7.218   5.085  0.0252  0.2948  0.1285
   80SLPC   H5S 7403   5.417   7.368   5.152  0.3746 -0.8334 -0.6101
   80SLPC   C26 7404   5.213   7.382   5.072 -0.4422  0.2700  0.3911
   80SLPC   H6R 7405   5.261   7.461   5.009 -2.9596  1.3514 -0.3309
   80SLPC   H6S 7406   5.160   7.435   5.154 -0.5848 -0.8987  1.0581
   80SLPC   C27 7407   5.111   7.296   5.002  0.6848 -0.0863 -0.8800
   80SLPC   H7R 7408   5.073   7.221   5.074  0.5604 -1.0218 -1.8863
   80SLPC   H7S 7409   5.161   7.236   4.922  1.2283 -1.1479  0.2311
   80SLPC   C28 7410   4.988   7.370   4.939 -0.5099 -0.1494 -0.7181
   80SLPC   H8R 7411   4.940   7.447   5.003 -1.8215 -0.5829 -1.1431
   80SLPC   H8S 7412   4.908   7.292   4.939 -0.4451 -0.2171 -1.2230
   80SLPC   C29 7413   5.006   7.423   4.798 -0.2290 -0.0962 -0.5542
   80SLPC   H9R 7414   5.090   7.493   4.789  2.2189 -2.7273  0.1003
   80SLPC  C210 7415   4.933   7.411   4.689  0.8080  0.5664 -0.0006
   80SLPC  H10R 7416   4.970   7.449   4.592  1.8207 -0.5822 -0.0948
   80SLPC  C211 7417   4.798   7.341   4.682 -0.5238 -0.8637  0.0603
   80SLPC  H11R 7418   4.733   7.402   4.615 -0.2456  0.3443  0.8645
   80SLPC  H11S 7419   4.740   7.347   4.777  0.8587  0.2290  0.8670
   80SLPC  C212 7420   4.797   7.193   4.651  0.2732 -0.2348 -0.1782
   80SLPC  H12R 7421   4.787   7.136   4.745  0.8355  2.6243  1.7509
   80SLPC  C213 7422   4.763   7.134   4.531  0.9223 -0.5323 -0.1781
   80SLPC  H13R 7423   4.767   7.026   4.510  1.9570 -0.3563 -0.9531
   80SLPC  C214 7424   4.728   7.222   4.412  0.4135  0.1416 -0.0882
   80SLPC  H14R 7425   4.770   7.176   4.320 -2.5978  1.1151 -2.1101
   80SLPC  H14S 7426   4.768   7.326   4.416 -0.2612  0.3949  0.2349
   80SLPC  C215 7427   4.580   7.218   4.389  0.2113  0.5495  0.7093
   80SLPC  H15R 7428   4.540   7.116   4.371 -1.9566  1.1702  1.6950
   80SLPC  H15S 7429   4.554   7.269   4.294 -4.0457 -1.6041  0.4984
   80SLPC  C216 7430   4.496   7.278   4.502  0.5142  0.0576 -0.8149
   80SLPC  H16R 7431   4.534   7.381   4.520 -1.6180  1.2127 -2.4336
   80SLPC  H16S 7432   4.500   7.221   4.598 -1.0092 -2.5149 -2.1700
   80SLPC  C217 7433   4.350   7.308   4.456  0.5550  0.5321  0.9010
   80SLPC  H17R 7434   4.286   7.334   4.544 -0.3624 -2.0969  1.0942
   80SLPC  H17S 7435   4.314   7.211   4.418  0.5346  1.2900 -1.1030
   80SLPC  C218 7436   4.329   7.422   4.357 -0.8642  0.2327 -0.1974
   80SLPC  H18R 7437   4.412   7.430   4.283 -1.6190  1.1747 -0.9692
   80SLPC  H18S 7438   4.326   7.516   4.416 -0.5369 -0.1172  0.3846
   80SLPC  H18T 7439   4.232   7.409   4.305 -1.3800 -1.1638  1.0434
   80SLPC   C33 7440   5.205   7.788   5.465 -0.2379 -0.1522 -0.4734
   80SLPC   H3X 7441   5.206   7.898   5.478 -1.3717 -0.3353  1.6866
   80SLPC   H3Y 7442   5.177   7.750   5.566 -0.3788  0.4594 -0.2769
   80SLPC   C34 7443   5.090   7.755   5.368 -0.5464  0.0975  0.0509
   80SLPC   H4X 7444   4.998   7.783   5.423  0.0020  2.1534  0.0215
   80SLPC   H4Y 7445   5.081   7.649   5.335  0.5792  0.0425 -0.1332
   80SLPC   C35 7446   5.081   7.844   5.244  0.0824  0.3298 -0.0844
   80SLPC   H5X 7447   5.178   7.854   5.192 -0.1114 -2.4223 -1.1851
   80SLPC   H5Y 7448   5.058   7.945   5.284 -3.6377 -0.4935  0.2508
   80SLPC   C36 7449   4.970   7.809   5.143  0.0585 -0.1330  0.2580
   80SLPC   H6X 7450   4.905   7.898   5.126  0.2720  0.1130  0.7107
   80SLPC   H6Y 7451   4.916   7.721   5.185  2.3429 -1.5365  0.4239
   80SLPC   C37 7452   5.011   7.776   4.998  0.5660  0.1374  0.1274
   80SLPC   H7X 7453   4.918   7.747   4.944  0.7785  0.4658 -0.4214
   80SLPC   H7Y 7454   5.068   7.681   5.005 -1.0742 -0.9041 -0.1073
   80SLPC   C38 7455   5.084   7.880   4.908 -0.1693 -0.5633 -0.1842
   80SLPC   H8X 7456   5.184   7.883   4.956  0.5159 -2.4984 -1.3697
   80SLPC   H8Y 7457   5.034   7.976   4.930 -0.0230 -0.6943  0.7756
   80SLPC   C39 7458   5.095   7.848   4.758  0.1689  0.3579  0.6980
   80SLPC   H9X 7459   5.156   7.755   4.755 -0.8574 -0.4046  2.2492
   80SLPC   H9Y 7460   5.147   7.936   4.714  0.8983 -0.5438 -0.2853
   80SLPC  C310 7461   4.962   7.826   4.683  0.4528  0.5243  0.5248
   80SLPC  H10X 7462   4.894   7.910   4.709 -0.0453  0.0365  0.8202
   80SLPC  H10Y 7463   4.920   7.738   4.737 -0.1451  0.5943  0.1820
   80SLPC  C311 7464   4.974   7.775   4.534 -0.1489 -0.1494  0.4306
   80SLPC  H11X 7465   4.878   7.728   4.503 -0.2718  0.7402 -0.6214
   80SLPC  H11Y 7466   5.046   7.691   4.530  1.4428  1.1512  0.8421
   80SLPC  C312 7467   5.009   7.880   4.431 -0.5350  0.0936  0.2344
   80SLPC  H12X 7468   5.104   7.929   4.461  2.0703 -2.0825 -3.6983
   80SLPC  H12Y 7469   4.930   7.958   4.438  0.0664  0.6478  1.0781
   80SLPC  C313 7470   5.019   7.825   4.290 -0.1397 -0.4175  0.6786
   80SLPC  H13X 7471   4.921   7.794   4.249  0.3322 -1.2841  0.1650
   80SLPC  H13Y 7472   5.078   7.731   4.292 -0.8621 -0.8836  0.4328
   80SLPC  C314 7473   5.071   7.924   4.190 -0.4187  0.0607  0.3305
   80SLPC  H14X 7474   5.170   7.959   4.225 -0.6484  0.6249  0.4293
   80SLPC  H14Y 7475   5.007   8.015   4.185  0.9569  1.3651  3.3666
   80SLPC  C315 7476   5.091   7.880   4.047 -0.4204  0.1966  0.5929
   80SLPC  H15X 7477   4.988   7.889   4.007 -0.5639  0.7891  1.0697
   80SLPC  H15Y 7478   5.114   7.772   4.050 -1.4112 -0.0326  0.3674
   80SLPC  C316 7479   5.190   7.960   3.966 -0.0808  0.4946 -0.0240
   80SLPC  H16X 7480   5.221   7.888   3.888 -1.3498 -0.6461  0.4896
   80SLPC  H16Y 7481   5.285   7.982   4.020  1.2270  0.1122 -2.0757
   80SLPC  C317 7482   5.127   8.080   3.896  0.1104  0.1588 -0.2917
   80SLPC  H17X 7483   5.074   8.142   3.971 -0.5297 -0.2933 -0.3664
   80SLPC  H17Y 7484   5.052   8.052   3.819 -0.5036  1.8745 -0.3582
   80SLPC  C318 7485   5.229   8.152   3.809 -0.0202 -0.6756  0.8088
   80SLPC  H18X 7486   5.317   8.192   3.862 -1.1209  2.4038  0.5137
   80SLPC  H18Y 7487   5.184   8.235   3.750  0.7221 -1.0093 -0.2531
   80SLPC  H18Z 7488   5.286   8.078   3.749 -2.4236 -2.2307  0.2864
   81SLPC     N 7489   4.531   4.421   1.766  0.3601  0.2335  0.0319
   81SLPC   C13 7490   4.661   4.385   1.826 -0.0696  0.2039 -0.3340
   81SLPC  H13A 7491   4.725   4.344   1.750  0.2827 -0.6197  0.3943
   81SLPC  H13B 7492   4.710   4.478   1.853  1.7354 -0.4284 -1.3036
   81SLPC  H13C 7493   4.641   4.315   1.906  3.2385  2.0400  2.3855
   81SLPC   C14 7494   4.465   4.301   1.707 -0.7091  0.1288 -0.0922
   81SLPC  H14A 7495   4.526   4.250   1.633 -2.6557 -2.1509 -0.2332
   81SLPC  H14B 7496   4.444   4.221   1.776  0.6779  0.8883  1.2856
   81SLPC  H14C 7497   4.373   4.329   1.658 -0.5406  1.7321  0.4496
   81SLPC   C15 7498   4.546   4.516   1.654 -0.4498  0.3275  0.5922
   81SLPC  H15A 7499   4.636   4.507   1.594 -0.9338  2.6343 -0.5946
   81SLPC  H15B 7500   4.466   4.505   1.582 -0.1643  0.3756  0.2651
   81SLPC  H15C 7501   4.548   4.617   1.692 -2.0792 -0.2091  2.2103
   81SLPC   C12 7502   4.440   4.479   1.872  0.4067 -0.0454  0.3294
   81SLPC  H12A 7503   4.350   4.520   1.828 -0.0716 -0.5270  0.8350
   81SLPC  H12B 7504   4.489   4.567   1.911 -0.3725  1.3512 -1.6950
   81SLPC   C11 7505   4.399   4.382   1.982 -0.3611  0.0290  0.1594
   81SLPC  H11A 7506   4.480   4.338   2.043 -0.0497  1.5141  0.8570
   81SLPC  H11B 7507   4.349   4.291   1.940  0.5909 -0.9027  1.0193
   81SLPC     P 7508   4.163   4.397   2.114  0.0281 -0.1091 -0.4879
   81SLPC   O13 7509   4.091   4.511   2.163  0.4909 -0.7501  0.4185
   81SLPC   O14 7510   4.110   4.324   1.998  0.2248 -0.2693 -0.1018
   81SLPC   O12 7511   4.307   4.439   2.075 -0.2802 -0.0368  0.2658
   81SLPC   O11 7512   4.197   4.294   2.228 -0.0913 -0.1836 -0.1979
   81SLPC    C1 7513   4.099   4.204   2.275 -0.4408 -0.1787  0.1119
   81SLPC    HA 7514   4.030   4.162   2.199 -0.2909 -0.2260  0.0028
   81SLPC    HB 7515   4.156   4.125   2.328  1.3442  0.8066 -0.2676
   81SLPC    C2 7516   4.007   4.280   2.375  0.0010  0.0760  0.2562
   81SLPC    HS 7517   3.979   4.379   2.333 -1.0214  0.4271  1.6924
   81SLPC   O21 7518   4.070   4.289   2.499  0.3729  0.0686 -0.8929
   81SLPC   C21 7519   4.094   4.414   2.541 -0.6327 -0.1803  0.2506
   81SLPC   O22 7520   4.057   4.514   2.478 -0.4647 -0.3592  0.0068
   81SLPC   C22 7521   4.195   4.401   2.655  0.4771 -0.3732 -0.2813
   81SLPC   H2R 7522   4.237   4.299   2.670  0.4511 -0.7579 -2.4146
   81SLPC   H2S 7523   4.273   4.476   2.631 -0.8299  1.2637  0.4045
   81SLPC    C3 7524   3.872   4.200   2.392 -0.2899  0.0298 -0.1051
   81SLPC    HX 7525   3.826   4.197   2.291 -1.2523 -0.3392  0.3309
   81SLPC    HY 7526   3.801   4.259   2.453 -0.8318 -1.9749  1.3215
   81SLPC   O31 7527   3.884   4.066   2.447  0.1109 -0.0792  0.0931
   81SLPC   C31 7528   3.852   4.043   2.571  0.3147  0.0691  0.5121
   81SLPC   O32 7529   3.817   4.131   2.649  0.1909  0.2580 -0.1103
   81SLPC   C32 7530   3.857   3.896   2.602 -0.3637  0.0040  0.3787
   81SLPC   H2X 7531   3.949   3.849   2.560 -0.2630  0.9730 -0.5107
   81SLPC   H2Y 7532   3.768   3.855   2.551 -0.6918  0.5055  0.5436
   81SLPC   C23 7533   4.146   4.452   2.792  0.0503  0.4470 -0.2597
   81SLPC   H3R 7534   4.114   4.558   2.779 -4.4786 -0.9004 -2.3213
   81SLPC   H3S 7535   4.237   4.445   2.855 -0.2675  0.7112  0.2303
   81SLPC   C24 7536   4.034   4.363   2.848 -0.3951  0.0344 -0.9133
   81SLPC   H4R 7537   4.044   4.258   2.814  1.7775  0.2152 -0.9440
   81SLPC   H4S 7538   3.935   4.402   2.813 -1.5778 -1.6512  0.4139
   81SLPC   C25 7539   4.032   4.377   2.994  0.3118  0.5559 -0.1431
   81SLPC   H5R 7540   4.017   4.480   3.034  0.5535  0.5578 -0.0548
   81SLPC   H5S 7541   4.125   4.338   3.043  0.7083 -1.6181 -2.4585
   81SLPC   C26 7542   3.928   4.284   3.058 -0.0071  0.5617  0.3799
   81SLPC   H6R 7543   3.837   4.283   2.994 -0.4949  3.4869  0.8880
   81SLPC   H6S 7544   3.901   4.329   3.156  2.5746 -0.3039  1.5747
   81SLPC   C27 7545   3.985   4.150   3.098  0.6945  0.6590 -0.1484
   81SLPC   H7R 7546   4.042   4.092   3.022  1.0687  0.1230  0.5338
   81SLPC   H7S 7547   3.891   4.091   3.105  1.3821 -0.2766  1.4474
   81SLPC   C28 7548   4.054   4.143   3.238 -0.1872 -0.6537 -0.1472
   81SLPC   H8R 7549   4.023   4.229   3.300  0.4329 -0.4633 -0.0899
   81SLPC   H8S 7550   4.164   4.156   3.225 -0.3077  0.6516  0.0188
   81SLPC   C29 7551   4.010   4.021   3.314  0.4596  0.8187  0.8386
   81SLPC   H9R 7552   3.908   4.025   3.356 -0.6265 -0.6243 -1.4583
   81SLPC  C210 7553   4.074   3.902   3.317  0.7259 -0.4846  0.3498
   81SLPC  H10R 7554   4.019   3.821   3.368 -1.8868  1.8854  1.6181
   81SLPC  C211 7555   4.206   3.862   3.262  0.7021  0.3907  0.3016
   81SLPC  H11R 7556   4.281   3.938   3.294  0.9226  0.7004 -0.8741
   81SLPC  H11S 7557   4.191   3.879   3.153  3.9225 -1.1149 -0.5243
   81SLPC  C212 7558   4.250   3.718   3.292  0.3530 -0.5604 -0.5037
   81SLPC  H12R 7559   4.167   3.646   3.285 -0.0692 -0.1410  0.0254
   81SLPC  C213 7560   4.366   3.670   3.339  0.5495 -0.8650 -0.0672
   81SLPC  H13R 7561   4.366   3.563   3.364  0.2972 -1.1785 -1.3275
   81SLPC  C214 7562   4.491   3.746   3.372  0.4298  0.4118 -0.8486
   81SLPC  H14R 7563   4.556   3.689   3.441  2.0907  0.7472 -2.0524
   81SLPC  H14S 7564   4.445   3.825   3.436 -3.2400 -2.2287  0.1197
   81SLPC  C215 7565   4.567   3.801   3.256  0.1100  0.5639  0.2161
   81SLPC  H15R 7566   4.502   3.837   3.174  1.9165  0.5406 -1.3138
   81SLPC  H15S 7567   4.628   3.714   3.221 -1.2763 -0.1053 -0.6280
   81SLPC  C216 7568   4.669   3.902   3.300  0.1041  0.1613 -0.1083
   81SLPC  H16R 7569   4.745   3.856   3.366  1.1874 -2.7490 -3.0957
   81SLPC  H16S 7570   4.624   3.991   3.349  1.8301 -0.0643  2.0206
   81SLPC  C217 7571   4.752   3.980   3.194  0.1709  0.0001 -0.0486
   81SLPC  H17R 7572   4.779   4.075   3.245 -1.8814  0.8857 -0.5223
   81SLPC  H17S 7573   4.674   3.989   3.116 -0.5578 -2.1929  0.3618
   81SLPC  C218 7574   4.881   3.913   3.150 -0.0971 -0.6620 -0.0358
   81SLPC  H18R 7575   4.845   3.814   3.117  1.0649 -0.8661 -0.7325
   81SLPC  H18S 7576   4.954   3.904   3.234 -0.2792  1.6478  0.4467
   81SLPC  H18T 7577   4.924   3.978   3.071  0.4151 -0.9794 -0.0242
   81SLPC   C33 7578   3.864   3.875   2.746  0.4394  0.7720 -0.1273
   81SLPC   H3X 7579   3.787   3.932   2.802 -0.3552 -0.2426 -0.1567
   81SLPC   H3Y 7580   3.961   3.910   2.787  0.0749  0.6917  0.8309
   81SLPC   C34 7581   3.851   3.720   2.780 -0.0341 -0.1726  0.0656
   81SLPC   H4X 7582   3.918   3.680   2.701 -0.4969  2.4289 -1.7622
   81SLPC   H4Y 7583   3.746   3.686   2.768 -0.8816  0.9862  3.3478
   81SLPC   C35 7584   3.891   3.682   2.923  0.1003  0.1635  0.0679
   81SLPC   H5X 7585   3.987   3.736   2.935 -0.3506  1.2558 -1.1017
   81SLPC   H5Y 7586   3.902   3.571   2.928 -2.3758 -0.1144  0.2831
   81SLPC   C36 7587   3.787   3.716   3.035  0.0856  0.0410 -0.6773
   81SLPC   H6X 7588   3.687   3.678   3.004 -0.8032  2.3286 -0.7557
   81SLPC   H6Y 7589   3.779   3.824   3.056  2.2188 -0.3604  2.9360
   81SLPC   C37 7590   3.837   3.652   3.169 -0.2716  0.1186  0.3713
   81SLPC   H7X 7591   3.928   3.712   3.192  0.0379 -0.8378  1.7565
   81SLPC   H7Y 7592   3.871   3.547   3.152  1.1340  0.6422 -0.2443
   81SLPC   C38 7593   3.741   3.673   3.279  0.0675  1.0892 -0.3625
   81SLPC   H8X 7594   3.646   3.646   3.227  0.8430 -2.4520 -0.2140
   81SLPC   H8Y 7595   3.748   3.780   3.308  2.3635  1.2054 -1.1443
   81SLPC   C39 7596   3.760   3.586   3.406  0.4792 -0.3907  0.2519
   81SLPC   H9X 7597   3.768   3.478   3.380  0.7848  0.0996 -1.8344
   81SLPC   H9Y 7598   3.672   3.604   3.471 -0.4984  1.3650 -1.4763
   81SLPC  C310 7599   3.882   3.622   3.489  0.0184  0.0453  0.2625
   81SLPC  H10X 7600   3.866   3.730   3.509  2.3219  0.0740  2.3716
   81SLPC  H10Y 7601   3.962   3.616   3.412 -0.2936  2.0121 -0.2695
   81SLPC  C311 7602   3.900   3.544   3.619  0.3203  0.2929 -0.4116
   81SLPC  H11X 7603   3.871   3.440   3.593 -0.8756  0.8433 -1.3785
   81SLPC  H11Y 7604   3.829   3.571   3.701  1.5244  2.2890  0.0317
   81SLPC  C312 7605   4.045   3.556   3.682  0.0247 -0.3369  0.3446
   81SLPC  H12X 7606   4.072   3.661   3.704 -0.1737  0.5211 -2.9277
   81SLPC  H12Y 7607   4.108   3.531   3.593 -0.9031 -0.4658 -0.2967
   81SLPC  C313 7608   4.078   3.474   3.800  0.3966  0.0496 -0.6214
   81SLPC  H13X 7609   4.058   3.366   3.792 -0.4716  0.2146 -0.7565
   81SLPC  H13Y 7610   4.018   3.515   3.884  1.5252  0.3581  0.0492
   81SLPC  C314 7611   4.222   3.484   3.840  0.0184 -0.1053  0.0925
   81SLPC  H14X 7612   4.226   3.466   3.950 -0.2089  0.0963  0.1323
   81SLPC  H14Y 7613   4.254   3.588   3.818 -1.6350  0.3301 -0.4093
   81SLPC  C315 7614   4.311   3.398   3.748  0.0113  0.1244  0.0619
   81SLPC  H15X 7615   4.306   3.423   3.640  2.1878 -1.8741 -0.5795
   81SLPC  H15Y 7616   4.272   3.295   3.764  2.1733 -0.6401  0.7008
   81SLPC  C316 7617   4.458   3.382   3.795  0.2846 -0.0357  0.0485
   81SLPC  H16X 7618   4.468   3.379   3.906 -2.0215 -1.2956  0.2946
   81SLPC  H16Y 7619   4.517   3.472   3.767  0.4218  0.3510  1.5015
   81SLPC  C317 7620   4.520   3.256   3.731 -0.7882  0.0187  0.1094
   81SLPC  H17X 7621   4.519   3.264   3.620  2.5450  1.7531  0.0557
   81SLPC  H17Y 7622   4.471   3.161   3.760  1.1051 -1.5672 -1.5475
   81SLPC  C318 7623   4.663   3.253   3.771  0.5486  0.1538 -0.1905
   81SLPC  H18X 7624   4.718   3.344   3.738  1.0785  0.6736  1.9312
   81SLPC  H18Y 7625   4.717   3.160   3.744  2.2168 -0.4989  4.3511
   81SLPC  H18Z 7626   4.665   3.248   3.882 -1.2835 -0.3984 -0.1618
   82SLPC     N 7627   3.188   3.215   1.864  0.4205  0.6852  0.7509
   82SLPC   C13 7628   3.209   3.067   1.863  0.1627 -0.2487  0.6396
   82SLPC  H13A 7629   3.209   3.034   1.760  1.1765  2.4701 -0.3197
   82SLPC  H13B 7630   3.297   3.034   1.915 -0.1792 -1.7825  0.2879
   82SLPC  H13C 7631   3.124   3.016   1.906 -0.2959 -1.1191 -1.1878
   82SLPC   C14 7632   3.062   3.245   1.797  0.3635 -0.0598  0.7932
   82SLPC  H14A 7633   2.974   3.204   1.846 -0.2171 -0.9401 -0.9169
   82SLPC  H14B 7634   3.045   3.351   1.781 -2.7447 -0.7407 -1.4712
   82SLPC  H14C 7635   3.061   3.196   1.701  1.0816  0.4405  0.5257
   82SLPC   C15 7636   3.300   3.273   1.783  0.3765 -0.2544  0.0502
   82SLPC  H15A 7637   3.294   3.381   1.781  1.1809 -0.1970  0.4068
   82SLPC  H15B 7638   3.398   3.253   1.823  0.9585  1.8196 -0.2040
   82SLPC  H15C 7639   3.302   3.236   1.681  0.7579  0.9914 -0.4116
   82SLPC   C12 7640   3.198   3.264   2.001  0.6866  0.3570  0.1584
   82SLPC  H12A 7641   3.278   3.216   2.054  0.8412  2.7094  2.2735
   82SLPC  H12B 7642   3.106   3.235   2.050 -0.0522  3.3833  0.7966
   82SLPC   C11 7643   3.211   3.417   2.028 -0.0775 -0.1664  0.2017
   82SLPC  H11A 7644   3.306   3.444   1.977  0.4316  0.8750  1.6308
   82SLPC  H11B 7645   3.222   3.428   2.138  2.1890  1.0060 -0.0698
   82SLPC     P 7646   2.984   3.536   2.041  0.1306 -0.6200 -0.1138
   82SLPC   O13 7647   3.008   3.675   2.094 -0.0085  0.1986 -0.4487
   82SLPC   O14 7648   2.868   3.520   1.946  0.1622  0.7336 -0.2059
   82SLPC   O12 7649   3.106   3.491   1.954  0.5168  0.1801  0.6302
   82SLPC   O11 7650   2.982   3.434   2.161 -0.2656 -0.4722 -0.1653
   82SLPC    C1 7651   2.883   3.441   2.265  0.4077  0.6822 -0.3345
   82SLPC    HA 7652   2.845   3.543   2.284  1.2635  0.8571  0.5190
   82SLPC    HB 7653   2.792   3.386   2.233  1.2980 -0.5809 -0.7914
   82SLPC    C2 7654   2.947   3.376   2.382 -0.2173  0.6954  0.2728
   82SLPC    HS 7655   2.985   3.276   2.352 -1.4041  0.0079  1.0025
   82SLPC   O21 7656   2.865   3.349   2.495 -0.0175 -0.4375 -0.3449
   82SLPC   C21 7657   2.760   3.269   2.493 -0.0202 -0.0182  0.2127
   82SLPC   O22 7658   2.734   3.205   2.393  0.4793 -0.7582  0.2872
   82SLPC   C22 7659   2.680   3.269   2.625  0.0362 -0.2875  0.3524
   82SLPC   H2R 7660   2.575   3.293   2.597 -0.5509 -2.1370  0.8441
   82SLPC   H2S 7661   2.681   3.166   2.668 -1.0559 -0.4938 -0.0815
   82SLPC    C3 7662   3.069   3.453   2.430 -0.6872  0.1086 -0.3302
   82SLPC    HX 7663   3.129   3.461   2.337  0.4148  0.9386  0.4274
   82SLPC    HY 7664   3.121   3.385   2.501 -1.2425 -1.8170 -1.6861
   82SLPC   O31 7665   3.039   3.587   2.481  0.1374  0.1997  0.6360
   82SLPC   C31 7666   3.023   3.598   2.612 -0.3207  0.2028  0.2309
   82SLPC   O32 7667   3.053   3.510   2.690  0.3655  0.2716 -0.2930
   82SLPC   C32 7668   2.969   3.731   2.647  0.1219 -0.5756  0.3539
   82SLPC   H2X 7669   2.921   3.701   2.742  0.8062 -2.1012  0.2568
   82SLPC   H2Y 7670   2.890   3.774   2.582 -0.5419  2.8142  3.1365
   82SLPC   C23 7671   2.732   3.368   2.738  0.0045  0.5885 -0.4700
   82SLPC   H3R 7672   2.725   3.474   2.706 -0.5336  0.5633 -0.4463
   82SLPC   H3S 7673   2.837   3.341   2.758 -0.1972 -0.8221 -1.2241
   82SLPC   C24 7674   2.649   3.345   2.858 -0.9162 -1.5538  0.6802
   82SLPC   H4R 7675   2.625   3.238   2.875  1.2459 -1.9986  1.2845
   82SLPC   H4S 7676   2.552   3.396   2.845 -0.5895 -1.4860 -2.0913
   82SLPC   C25 7677   2.727   3.389   2.984  0.1664 -0.0003 -0.1203
   82SLPC   H5R 7678   2.826   3.339   2.975  0.4075  0.6902 -1.4974
   82SLPC   H5S 7679   2.675   3.346   3.072 -1.1777 -2.3890 -1.9424
   82SLPC   C26 7680   2.722   3.538   3.007 -0.1127 -0.6787 -0.0924
   82SLPC   H6R 7681   2.618   3.576   2.995 -0.1439 -0.9597 -0.7623
   82SLPC   H6S 7682   2.778   3.590   2.927  0.7112 -0.9194  0.3193
   82SLPC   C27 7683   2.750   3.576   3.157  0.6169  0.1080 -0.6902
   82SLPC   H7R 7684   2.672   3.538   3.226 -0.3783  0.7789 -1.4100
   82SLPC   H7S 7685   2.753   3.687   3.164  0.3749  0.1692 -1.5296
   82SLPC   C28 7686   2.876   3.516   3.206 -1.0929 -0.1629 -0.3664
   82SLPC   H8R 7687   2.956   3.536   3.132 -0.1984 -1.0269  0.3414
   82SLPC   H8S 7688   2.882   3.405   3.203  0.2250 -0.1893  1.4527
   82SLPC   C29 7689   2.928   3.571   3.337  0.6969  0.5113  0.0841
   82SLPC   H9R 7690   2.976   3.669   3.323  0.8970  0.3383 -0.4452
   82SLPC  C210 7691   2.922   3.509   3.452  0.0393  0.2973  0.3629
   82SLPC  H10R 7692   2.983   3.550   3.534  1.6467  1.9871 -1.5577
   82SLPC  C211 7693   2.857   3.377   3.471  0.5292 -0.2089  0.3165
   82SLPC  H11R 7694   2.909   3.330   3.558  2.1701  1.7406  0.4759
   82SLPC  H11S 7695   2.878   3.309   3.386  1.1556 -1.1038  1.1554
   82SLPC  C212 7696   2.705   3.386   3.489  0.2856  0.2191 -0.6813
   82SLPC  H12R 7697   2.648   3.447   3.417  0.1924 -1.3751 -2.0291
   82SLPC  C213 7698   2.632   3.321   3.579 -0.1674  0.0638 -0.7324
   82SLPC  H13R 7699   2.525   3.346   3.588 -0.8373 -3.0879  2.0466
   82SLPC  C214 7700   2.686   3.220   3.679  0.2880 -0.3604  0.1793
   82SLPC  H14R 7701   2.676   3.267   3.780  0.4636 -0.1010  0.0762
   82SLPC  H14S 7702   2.793   3.195   3.665  0.9128  0.0782  3.3526
   82SLPC  C215 7703   2.620   3.084   3.659  0.3192  0.4163  0.1208
   82SLPC  H15R 7704   2.659   3.039   3.565  1.6741  0.3458  0.6982
   82SLPC  H15S 7705   2.510   3.083   3.645  0.3400  1.3999 -0.2199
   82SLPC  C216 7706   2.669   2.979   3.769 -0.3662 -0.0752  0.1134
   82SLPC  H16R 7707   2.700   3.029   3.863 -0.7166 -0.9860  0.7290
   82SLPC  H16S 7708   2.762   2.937   3.725 -1.7260 -1.9261 -1.1298
   82SLPC  C217 7709   2.576   2.867   3.791  0.0101  0.3661  0.4763
   82SLPC  H17R 7710   2.478   2.905   3.828  0.6591  1.7561  0.8124
   82SLPC  H17S 7711   2.629   2.807   3.868  1.3557 -0.2038 -0.8382
   82SLPC  C218 7712   2.538   2.777   3.672  0.2005 -0.2694  0.1912
   82SLPC  H18R 7713   2.491   2.839   3.592  0.2856  1.0588  1.1425
   82SLPC  H18S 7714   2.472   2.696   3.710  1.2921 -2.6148 -2.5418
   82SLPC  H18T 7715   2.630   2.729   3.631  0.8610 -0.0737  1.4260
   82SLPC   C33 7716   3.081   3.837   2.680  0.1643  0.2282  0.5750
   82SLPC   H3X 7717   3.136   3.856   2.586 -0.0852  0.2720  0.4381
   82SLPC   H3Y 7718   3.157   3.786   2.743 -0.7022 -0.3864  1.1544
   82SLPC   C34 7719   3.023   3.967   2.737  0.3958  0.3945  0.1533
   82SLPC   H4X 7720   2.973   4.033   2.664  0.1131  2.7275  2.3150
   82SLPC   H4Y 7721   3.101   4.027   2.788 -1.6741  2.3859  1.1587
   82SLPC   C35 7722   2.922   3.932   2.849 -0.0272 -0.2898 -0.1715
   82SLPC   H5X 7723   2.829   3.878   2.823 -1.6044  1.5373  1.3236
   82SLPC   H5Y 7724   2.884   4.028   2.892  0.4335 -0.2070  0.0596
   82SLPC   C36 7725   2.985   3.856   2.972 -0.6202  0.4793 -0.2528
   82SLPC   H6X 7726   3.093   3.861   2.947 -0.8263 -0.0388 -1.3067
   82SLPC   H6Y 7727   2.966   3.749   2.952  0.0012  0.1553  0.8047
   82SLPC   C37 7728   2.950   3.904   3.116  0.6323  0.0032  0.3601
   82SLPC   H7X 7729   2.956   3.808   3.171 -2.9532 -0.4962  0.1537
   82SLPC   H7Y 7730   2.841   3.929   3.120  0.3888 -0.8338 -0.5853
   82SLPC   C38 7731   3.046   4.001   3.181 -0.0162 -0.0033 -0.1984
   82SLPC   H8X 7732   3.031   4.094   3.122  1.0779  0.4140  0.1480
   82SLPC   H8Y 7733   3.152   3.975   3.159  0.8564  3.6947 -1.0107
   82SLPC   C39 7734   3.007   4.045   3.320  0.3697 -0.4462 -0.5049
   82SLPC   H9X 7735   2.979   3.961   3.386  1.9341 -0.7522 -0.1715
   82SLPC   H9Y 7736   2.922   4.116   3.316  2.5606  2.4226  0.3203
   82SLPC  C310 7737   3.111   4.136   3.393  0.2937  0.8720 -0.3593
   82SLPC  H10X 7738   3.128   4.212   3.314 -0.0231  0.8997 -0.4027
   82SLPC  H10Y 7739   3.200   4.070   3.400  0.0550  0.6418  0.7983
   82SLPC  C311 7740   3.064   4.205   3.518 -0.3426 -0.1462 -0.3748
   82SLPC  H11X 7741   3.044   4.130   3.597 -1.2058  0.7731  0.3158
   82SLPC  H11Y 7742   2.973   4.264   3.492 -0.1291  0.0260 -0.7367
   82SLPC  C312 7743   3.173   4.292   3.581  0.3374  0.2279 -0.2175
   82SLPC  H12X 7744   3.202   4.373   3.511 -3.8333  0.9661 -1.3360
   82SLPC  H12Y 7745   3.264   4.227   3.586 -1.0372 -1.7313  0.7899
   82SLPC  C313 7746   3.143   4.352   3.725  0.3223  0.0237  0.6129
   82SLPC  H13X 7747   3.239   4.385   3.770  0.5736  0.8824 -0.5158
   82SLPC  H13Y 7748   3.094   4.280   3.794  1.7101  0.0318  1.6637
   82SLPC  C314 7749   3.068   4.491   3.707 -0.2668  0.5684  0.7252
   82SLPC  H14X 7750   2.969   4.483   3.657  1.1941 -1.3702 -2.1346
   82SLPC  H14Y 7751   3.127   4.538   3.625  1.2198 -0.6027  1.0941
   82SLPC  C315 7752   3.069   4.573   3.833 -0.1379 -0.1811 -0.2026
   82SLPC  H15X 7753   3.172   4.590   3.873 -1.1362  3.0206  1.3728
   82SLPC  H15Y 7754   3.007   4.525   3.911 -1.5972  2.2718  0.2729
   82SLPC  C316 7755   2.998   4.714   3.813 -0.2852  0.0138 -0.5632
   82SLPC  H16X 7756   2.901   4.688   3.766 -0.9411 -1.3768  1.4018
   82SLPC  H16Y 7757   3.054   4.785   3.750 -0.7237  0.7758 -0.1053
   82SLPC  C317 7758   2.969   4.772   3.953 -0.1587 -0.1291  0.2606
   82SLPC  H17X 7759   2.906   4.697   4.005 -1.6096  1.8409  1.4865
   82SLPC  H17Y 7760   2.912   4.866   3.932 -0.1631  0.2781  1.9883
   82SLPC  C318 7761   3.095   4.794   4.031  0.0525 -0.1657  0.3945
   82SLPC  H18X 7762   3.122   4.701   4.085 -4.7815 -1.2881  1.3787
   82SLPC  H18Y 7763   3.078   4.869   4.111  0.0474 -0.1291  0.3599
   82SLPC  H18Z 7764   3.185   4.816   3.970 -0.4983 -0.4792 -0.5587
   83SLPC     N 7765   3.995   5.567   1.867 -0.2758 -0.2315  0.2810
   83SLPC   C13 7766   4.098   5.630   1.954 -0.6381 -0.0257 -0.3181
   83SLPC  H13A 7767   4.185   5.566   1.955 -0.5323  0.1164 -0.1937
   83SLPC  H13B 7768   4.128   5.728   1.920  0.8604 -0.1359  0.5736
   83SLPC  H13C 7769   4.051   5.634   2.051  1.1354 -1.0304  0.6409
   83SLPC   C14 7770   4.006   5.422   1.909 -0.1680 -0.2237 -0.2638
   83SLPC  H14A 7771   4.106   5.381   1.900  0.4770  0.9282  1.2227
   83SLPC  H14B 7772   3.978   5.409   2.012 -1.1967  0.3316 -0.4640
   83SLPC  H14C 7773   3.936   5.374   1.843 -1.7319  1.5849  0.0035
   83SLPC   C15 7774   4.037   5.590   1.722 -0.2470 -0.2599  0.0610
   83SLPC  H15A 7775   3.982   5.526   1.654  1.8029 -3.0891  0.8784
   83SLPC  H15B 7776   4.009   5.691   1.695  1.7669 -0.0296 -1.3806
   83SLPC  H15C 7777   4.143   5.577   1.708 -0.4211  0.2936 -2.0827
   83SLPC   C12 7778   3.862   5.624   1.887  0.4902 -0.2558  0.3212
   83SLPC  H12A 7779   3.787   5.560   1.843 -0.4650  0.5429  0.7529
   83SLPC  H12B 7780   3.858   5.718   1.833  1.0704 -0.7601 -0.6216
   83SLPC   C11 7781   3.813   5.642   2.034 -0.1645  0.7537 -0.5242
   83SLPC  H11A 7782   3.714   5.691   2.046 -0.6957 -0.1878 -0.9590
   83SLPC  H11B 7783   3.892   5.708   2.075  1.7163 -1.8096  0.2556
   83SLPC     P 7784   3.686   5.428   2.104 -0.1938  0.3435 -0.5336
   83SLPC   O13 7785   3.593   5.456   1.991 -0.0252 -0.4606  0.4434
   83SLPC   O14 7786   3.730   5.287   2.117  0.6507  0.3378  0.1240
   83SLPC   O12 7787   3.815   5.526   2.109 -0.1853 -0.5715  0.2721
   83SLPC   O11 7788   3.607   5.464   2.237 -0.3047  0.0376 -0.5727
   83SLPC    C1 7789   3.651   5.539   2.351  0.4548 -0.9483  0.3891
   83SLPC    HA 7790   3.696   5.633   2.312  1.0466 -1.4750 -0.2385
   83SLPC    HB 7791   3.565   5.576   2.410  0.8445  1.1798 -0.2837
   83SLPC    C2 7792   3.751   5.454   2.434  0.2164 -0.8443  1.0310
   83SLPC    HS 7793   3.821   5.402   2.365 -0.6351 -0.1830 -0.3853
   83SLPC   O21 7794   3.670   5.368   2.513 -0.2494 -0.3220  0.4486
   83SLPC   C21 7795   3.716   5.250   2.554  0.1066 -0.4113  0.1604
   83SLPC   O22 7796   3.827   5.207   2.520  0.7194  0.0560 -0.0764
   83SLPC   C22 7797   3.612   5.185   2.650  0.1453  0.5207  0.7061
   83SLPC   H2R 7798   3.538   5.262   2.681 -0.4979 -0.6442  2.2125
   83SLPC   H2S 7799   3.557   5.107   2.593 -0.5793 -1.0839  3.3872
   83SLPC    C3 7800   3.839   5.549   2.523 -0.1880 -0.0465 -0.0950
   83SLPC    HX 7801   3.772   5.609   2.588 -0.4108  0.2188 -0.5633
   83SLPC    HY 7802   3.886   5.626   2.458 -1.7483  2.1853  1.2641
   83SLPC   O31 7803   3.929   5.485   2.608 -0.1098  0.0974 -0.4739
   83SLPC   C31 7804   4.055   5.456   2.558  0.3925 -0.6617  0.9538
   83SLPC   O32 7805   4.091   5.487   2.446  0.0968 -0.0532 -0.9322
   83SLPC   C32 7806   4.135   5.379   2.661  0.4588  0.6652 -0.2206
   83SLPC   H2X 7807   4.242   5.379   2.629  0.3146  1.1973 -0.7147
   83SLPC   H2Y 7808   4.088   5.278   2.657 -2.6575  1.9724  1.0715
   83SLPC   C23 7809   3.665   5.109   2.778 -0.7455 -0.8991  0.0255
   83SLPC   H3R 7810   3.770   5.079   2.759 -0.5973  0.1607 -1.0122
   83SLPC   H3S 7811   3.617   5.010   2.788 -1.5413 -0.3073  2.5993
   83SLPC   C24 7812   3.664   5.187   2.912 -0.1860 -0.6355  0.0725
   83SLPC   H4R 7813   3.569   5.217   2.961  1.0918 -0.2538  2.5198
   83SLPC   H4S 7814   3.735   5.273   2.902  0.0366 -0.6223  1.5498
   83SLPC   C25 7815   3.713   5.086   3.021  0.5520 -0.1817  0.1053
   83SLPC   H5R 7816   3.799   5.025   2.987  0.4360 -0.9435  1.1421
   83SLPC   H5S 7817   3.629   5.018   3.044  2.0600 -1.5363  1.9003
   83SLPC   C26 7818   3.741   5.146   3.155  0.3510 -0.1222  0.2514
   83SLPC   H6R 7819   3.647   5.197   3.187 -1.0000 -0.8848 -2.2192
   83SLPC   H6S 7820   3.828   5.214   3.147  0.4136 -0.0748  1.2085
   83SLPC   C27 7821   3.779   5.032   3.246 -0.1969 -0.2244 -0.0483
   83SLPC   H7R 7822   3.870   4.979   3.211  0.4684  0.0221  1.2681
   83SLPC   H7S 7823   3.705   4.952   3.265  1.5225 -3.1969 -4.3259
   83SLPC   C28 7824   3.831   5.085   3.386 -0.4121  0.4855  0.3639
   83SLPC   H8R 7825   3.749   5.145   3.431 -1.0055 -0.5516  0.7202
   83SLPC   H8S 7826   3.915   5.155   3.367 -0.1840  0.5068  1.3782
   83SLPC   C29 7827   3.855   4.967   3.483  0.2719  0.0485 -0.3653
   83SLPC   H9R 7828   3.764   4.920   3.522 -0.3910 -0.3677 -2.3162
   83SLPC  C210 7829   3.969   4.930   3.543 -0.1921 -0.6820  0.1952
   83SLPC  H10R 7830   3.961   4.856   3.624  1.8653 -0.5854  0.5528
   83SLPC  C211 7831   4.106   4.988   3.538 -0.3046  0.0624 -0.9096
   83SLPC  H11R 7832   4.155   4.983   3.439 -1.0824 -2.6445 -1.2480
   83SLPC  H11S 7833   4.168   4.914   3.593 -1.9795  0.8393  2.2896
   83SLPC  C212 7834   4.125   5.127   3.599 -0.4476 -0.2611  0.1308
   83SLPC  H12R 7835   4.091   5.213   3.539 -1.9159 -1.3860 -0.7315
   83SLPC  C213 7836   4.183   5.156   3.715 -0.7502  0.1383 -0.3554
   83SLPC  H13R 7837   4.166   5.257   3.754 -0.3111  0.6803 -1.5354
   83SLPC  C214 7838   4.244   5.057   3.813 -0.6868 -0.0041  0.1893
   83SLPC  H14R 7839   4.347   5.022   3.789  0.0068  0.0687  2.8176
   83SLPC  H14S 7840   4.186   4.963   3.807  0.3239 -0.7232  1.2194
   83SLPC  C215 7841   4.246   5.095   3.964  0.1729  0.4415  0.3905
   83SLPC  H15R 7842   4.142   5.094   4.004 -0.1024 -1.0586 -0.3088
   83SLPC  H15S 7843   4.293   5.196   3.970 -0.8700  0.8757  2.0689
   83SLPC  C216 7844   4.333   5.010   4.060  0.1409  0.0522 -0.0043
   83SLPC  H16R 7845   4.352   5.091   4.133 -0.9214 -0.0541  0.4137
   83SLPC  H16S 7846   4.427   4.976   4.012  0.3060 -1.0210  1.0597
   83SLPC  C217 7847   4.250   4.892   4.120  0.0762 -0.5836 -0.1669
   83SLPC  H17R 7848   4.143   4.923   4.125  0.3085  0.1863  0.1369
   83SLPC  H17S 7849   4.290   4.881   4.224  0.8742  0.2087 -0.3801
   83SLPC  C218 7850   4.263   4.759   4.048  0.2287 -0.6082 -0.2724
   83SLPC  H18R 7851   4.218   4.671   4.100  1.0342 -1.7531 -1.4284
   83SLPC  H18S 7852   4.370   4.734   4.034  0.4103  0.9155 -1.9205
   83SLPC  H18T 7853   4.201   4.757   3.955 -1.3348 -2.2803  0.7337
   83SLPC   C33 7854   4.127   5.432   2.802  0.1891  0.7534  0.2840
   83SLPC   H3X 7855   4.027   5.436   2.851 -0.0196 -0.0280 -0.0521
   83SLPC   H3Y 7856   4.175   5.531   2.789 -0.6990  1.0974 -0.4727
   83SLPC   C34 7857   4.228   5.377   2.910  0.6846  0.1209  0.9476
   83SLPC   H4X 7858   4.329   5.406   2.875 -0.4494  2.2741 -0.7554
   83SLPC   H4Y 7859   4.232   5.266   2.908  3.2516 -0.0479  4.8237
   83SLPC   C35 7860   4.189   5.412   3.048 -0.6308 -0.0883 -0.5007
   83SLPC   H5X 7861   4.101   5.352   3.079 -0.3415  0.6815  2.0076
   83SLPC   H5Y 7862   4.147   5.514   3.046 -2.4747 -0.8022  0.0794
   83SLPC   C36 7863   4.304   5.391   3.145 -0.0905  0.0456 -0.4174
   83SLPC   H6X 7864   4.392   5.448   3.106  0.9991 -0.6995  0.8449
   83SLPC   H6Y 7865   4.334   5.284   3.146  0.4880  0.2003 -0.6369
   83SLPC   C37 7866   4.271   5.415   3.296 -0.5840 -0.2139 -0.4650
   83SLPC   H7X 7867   4.352   5.389   3.366  0.1265  0.3362 -1.0682
   83SLPC   H7Y 7868   4.180   5.354   3.313 -1.3010  1.1619  0.9705
   83SLPC   C38 7869   4.255   5.566   3.334 -0.6225  0.0353  0.1382
   83SLPC   H8X 7870   4.191   5.615   3.257  1.2579  2.9079  0.2166
   83SLPC   H8Y 7871   4.347   5.628   3.327 -2.2239  2.4507 -0.8400
   83SLPC   C39 7872   4.202   5.580   3.480 -0.8374  0.0298  0.8394
   83SLPC   H9X 7873   4.100   5.535   3.480 -2.0133  2.3038 -2.7287
   83SLPC   H9Y 7874   4.180   5.686   3.506 -0.1020 -0.0593  1.8863
   83SLPC  C310 7875   4.267   5.512   3.596 -0.3233  0.5214 -0.8002
   83SLPC  H10X 7876   4.372   5.540   3.617 -0.1155 -1.0020  0.3423
   83SLPC  H10Y 7877   4.272   5.402   3.584 -1.5707  0.4388 -0.6893
   83SLPC  C311 7878   4.191   5.554   3.724 -0.5047  0.2200 -0.2453
   83SLPC  H11X 7879   4.094   5.499   3.723 -1.2968  1.5213  0.6814
   83SLPC  H11Y 7880   4.162   5.661   3.719  3.6182  1.5607  0.8030
   83SLPC  C312 7881   4.258   5.520   3.856  0.0207  0.2792  0.0680
   83SLPC  H12X 7882   4.290   5.414   3.853 -0.5882  0.0975 -0.2473
   83SLPC  H12Y 7883   4.186   5.517   3.940  2.4004 -1.5953  2.1883
   83SLPC  C313 7884   4.379   5.600   3.894 -0.7918 -0.0327  0.5204
   83SLPC  H13X 7885   4.361   5.707   3.870  1.3864 -0.0188 -1.3733
   83SLPC  H13Y 7886   4.459   5.570   3.823 -1.2404 -1.2579  0.4974
   83SLPC  C314 7887   4.434   5.582   4.037  0.3152  0.5538  0.1259
   83SLPC  H14X 7888   4.358   5.580   4.118  2.3454  4.0548  2.4127
   83SLPC  H14Y 7889   4.491   5.676   4.054  0.4569  0.2579  1.3535
   83SLPC  C315 7890   4.533   5.460   4.043  0.9776  0.1690 -0.3826
   83SLPC  H15X 7891   4.617   5.467   3.970  0.1286  1.2864 -1.2841
   83SLPC  H15Y 7892   4.480   5.368   4.010 -1.3599  0.6018  1.8297
   83SLPC  C316 7893   4.581   5.430   4.183  0.8474  0.5513 -0.5203
   83SLPC  H16X 7894   4.606   5.322   4.186  0.2438  0.4263  0.2144
   83SLPC  H16Y 7895   4.494   5.450   4.249  1.8738 -0.3096  1.1576
   83SLPC  C317 7896   4.692   5.524   4.225  0.2548  0.2943  0.4511
   83SLPC  H17X 7897   4.644   5.624   4.229 -1.0134  0.0614 -4.0462
   83SLPC  H17Y 7898   4.771   5.522   4.148  1.8683 -0.4821  2.0496
   83SLPC  C318 7899   4.750   5.493   4.366 -0.2542  0.1456  1.2788
   83SLPC  H18X 7900   4.673   5.477   4.445 -0.6996 -1.9794  0.4829
   83SLPC  H18Y 7901   4.806   5.582   4.400 -0.7632  0.3362  1.6320
   83SLPC  H18Z 7902   4.815   5.402   4.370 -0.3923 -0.0069  0.2183
   84SLPC     N 7903   0.574   2.141   1.884  0.5214  0.5251  0.2864
   84SLPC   C13 7904   0.575   2.251   1.977 -0.4891 -0.8902 -0.6880
   84SLPC  H13A 7905   0.492   2.321   1.981  0.7091  0.7818 -2.9791
   84SLPC  H13B 7906   0.571   2.208   2.076 -1.4453  2.2739  0.7870
   84SLPC  H13C 7907   0.656   2.320   1.956 -0.8034 -0.0916  0.5742
   84SLPC   C14 7908   0.604   2.193   1.747  0.2784 -0.1658  0.0169
   84SLPC  H14A 7909   0.701   2.240   1.755  0.1442  0.7728 -2.6841
   84SLPC  H14B 7910   0.606   2.120   1.668  1.9517  1.2431 -1.3148
   84SLPC  H14C 7911   0.530   2.270   1.731 -0.8910 -0.6681  2.5451
   84SLPC   C15 7912   0.439   2.073   1.888  0.3574  0.5902 -0.1286
   84SLPC  H15A 7913   0.362   2.144   1.860 -0.4258 -0.5765 -1.0031
   84SLPC  H15B 7914   0.444   1.992   1.818  1.5091 -0.3861  1.0277
   84SLPC  H15C 7915   0.403   2.041   1.985 -0.5234  1.0728 -0.2833
   84SLPC   C12 7916   0.685   2.042   1.918  0.6608 -0.3731 -0.0953
   84SLPC  H12A 7917   0.783   2.088   1.911  0.7292 -0.2734  1.3469
   84SLPC  H12B 7918   0.682   1.967   1.841  2.1222 -1.1793  0.5868
   84SLPC   C11 7919   0.674   1.983   2.058 -0.0025  0.7437 -0.1471
   84SLPC  H11A 7920   0.752   1.904   2.062 -0.9427 -0.2879 -1.3476
   84SLPC  H11B 7921   0.576   1.930   2.065  0.1093  0.6824  1.4837
   84SLPC     P 7922   0.833   2.123   2.210  0.1114 -0.0429 -0.0479
   84SLPC   O13 7923   0.927   2.040   2.134  0.0133  0.2436  0.4465
   84SLPC   O14 7924   0.847   2.267   2.181  0.2341 -0.6295  0.1367
   84SLPC   O12 7925   0.691   2.074   2.173  0.2890 -0.0828  0.0800
   84SLPC   O11 7926   0.844   2.099   2.365 -0.3478  0.3327  0.3099
   84SLPC    C1 7927   0.724   2.111   2.443 -0.4560  0.1458 -0.8592
   84SLPC    HA 7928   0.645   2.042   2.407 -1.1378  0.6848 -0.4328
   84SLPC    HB 7929   0.764   2.068   2.538  3.0822 -1.4425 -2.8472
   84SLPC    C2 7930   0.663   2.254   2.466  0.1252  0.5880 -0.1006
   84SLPC    HS 7931   0.646   2.298   2.366  0.7830 -2.0892 -1.4889
   84SLPC   O21 7932   0.762   2.332   2.528 -0.0743 -0.6394  0.6359
   84SLPC   C21 7933   0.757   2.460   2.518  0.0559 -0.6908 -0.1523
   84SLPC   O22 7934   0.697   2.521   2.435 -0.0687 -0.2752 -0.0597
   84SLPC   C22 7935   0.851   2.523   2.622  0.1708  0.5961 -0.4284
   84SLPC   H2R 7936   0.931   2.584   2.575  0.2427  0.9927  0.1987
   84SLPC   H2S 7937   0.800   2.584   2.699  5.4062  1.6247  2.7321
   84SLPC    C3 7938   0.529   2.249   2.542 -0.6545 -0.7666 -0.0760
   84SLPC    HX 7939   0.453   2.183   2.494  0.4076 -1.4628 -0.8353
   84SLPC    HY 7940   0.491   2.353   2.548  1.9734  0.1857  1.4985
   84SLPC   O31 7941   0.557   2.206   2.679  0.6657 -0.3372 -0.0232
   84SLPC   C31 7942   0.524   2.082   2.715 -0.7939  0.2849 -0.4626
   84SLPC   O32 7943   0.508   1.996   2.634 -0.1777  0.1616 -0.0593
   84SLPC   C32 7944   0.532   2.063   2.864  0.1150  0.9104 -0.6486
   84SLPC   H2X 7945   0.624   2.109   2.905 -0.4178  1.3120  0.1062
   84SLPC   H2Y 7946   0.516   1.955   2.883 -0.9077  0.5994 -2.9223
   84SLPC   C23 7947   0.920   2.422   2.720  0.5296  0.0029 -0.1054
   84SLPC   H3R 7948   0.978   2.350   2.658 -0.2315 -1.9114  1.3122
   84SLPC   H3S 7949   0.846   2.367   2.782  0.4525  0.3953  0.1531
   84SLPC   C24 7950   1.017   2.500   2.821  0.3030 -0.1075 -0.4358
   84SLPC   H4R 7951   0.954   2.568   2.881  0.4900 -2.0183  2.0949
   84SLPC   H4S 7952   1.080   2.566   2.758  0.8994 -0.7950 -0.5849
   84SLPC   C25 7953   1.099   2.418   2.918  0.1474 -0.3327 -0.0114
   84SLPC   H5R 7954   1.164   2.351   2.856  1.1433 -0.3684  1.0331
   84SLPC   H5S 7955   1.031   2.359   2.983 -0.9712  0.9668  0.0427
   84SLPC   C26 7956   1.187   2.504   3.009  0.3787  0.3541  0.3465
   84SLPC   H6R 7957   1.140   2.604   3.015  0.1182  0.4618 -2.1384
   84SLPC   H6S 7958   1.290   2.520   2.969 -1.0179  0.8310 -3.4474
   84SLPC   C27 7959   1.191   2.444   3.153  0.0966  0.1351 -0.1138
   84SLPC   H7R 7960   1.251   2.350   3.151 -0.9433 -0.5829  0.9626
   84SLPC   H7S 7961   1.088   2.416   3.186  1.3867 -3.1697  1.6149
   84SLPC   C28 7962   1.262   2.541   3.251  0.1966  0.9346  0.1569
   84SLPC   H8R 7963   1.364   2.564   3.213 -0.1357 -1.1388 -2.2865
   84SLPC   H8S 7964   1.280   2.478   3.341  0.8553  0.2095 -0.4758
   84SLPC   C29 7965   1.178   2.660   3.272  0.1479  0.1720  0.4381
   84SLPC   H9R 7966   1.157   2.718   3.181  1.8503  0.6390  0.3096
   84SLPC  C210 7967   1.112   2.693   3.390  0.8520 -0.5260 -0.5864
   84SLPC  H10R 7968   1.044   2.779   3.393 -0.1453 -1.3097 -0.2398
   84SLPC  C211 7969   1.122   2.621   3.524  0.4568 -0.5486 -0.6185
   84SLPC  H11R 7970   1.199   2.669   3.588  0.3175  1.2268 -1.7350
   84SLPC  H11S 7971   1.156   2.516   3.508  2.0634  0.1485 -2.0616
   84SLPC  C212 7972   0.991   2.615   3.604  0.1092 -0.0315 -0.1290
   84SLPC  H12R 7973   0.996   2.668   3.701 -0.0131  1.5289 -0.9396
   84SLPC  C213 7974   0.884   2.537   3.581 -0.6223 -0.0381 -0.5451
   84SLPC  H13R 7975   0.802   2.538   3.654 -0.0991  1.6733  0.0952
   84SLPC  C214 7976   0.861   2.439   3.472 -0.1533 -0.0696 -0.2826
   84SLPC  H14R 7977   0.830   2.341   3.512 -0.3798  0.2278  0.2806
   84SLPC  H14S 7978   0.952   2.424   3.411 -0.2483 -3.2790  0.2352
   84SLPC  C215 7979   0.762   2.495   3.363  0.1533 -0.1101 -0.4562
   84SLPC  H15R 7980   0.790   2.596   3.327 -0.1064 -0.0475 -0.4876
   84SLPC  H15S 7981   0.668   2.495   3.424  0.9904 -0.7948  0.8903
   84SLPC  C216 7982   0.761   2.395   3.243 -0.6242  0.0106 -0.1527
   84SLPC  H16R 7983   0.864   2.381   3.205  0.8208 -0.3285  3.4797
   84SLPC  H16S 7984   0.691   2.433   3.165 -1.4626  0.8098  0.9518
   84SLPC  C217 7985   0.709   2.256   3.275 -0.6835  0.5401 -0.7048
   84SLPC  H17R 7986   0.783   2.216   3.347  1.0711  2.2371 -1.4759
   84SLPC  H17S 7987   0.718   2.186   3.189 -0.2922 -2.1883  1.4307
   84SLPC  C218 7988   0.567   2.251   3.338 -0.7727 -0.6012  0.0185
   84SLPC  H18R 7989   0.567   2.300   3.438  0.3441  2.7058 -1.4336
   84SLPC  H18S 7990   0.544   2.143   3.349 -0.8362 -0.4888  1.0593
   84SLPC  H18T 7991   0.490   2.304   3.278  1.8107  1.4396 -1.7463
   84SLPC   C33 7992   0.422   2.138   2.940 -0.4767 -0.2807 -0.4284
   84SLPC   H3X 7993   0.401   2.087   3.037 -0.5784 -1.3819 -1.0164
   84SLPC   H3Y 7994   0.330   2.133   2.878 -1.6670  1.2069  1.1015
   84SLPC   C34 7995   0.440   2.295   2.960  0.4667  0.3382  0.0683
   84SLPC   H4X 7996   0.461   2.333   2.858 -1.1329  0.2699 -0.2999
   84SLPC   H4Y 7997   0.527   2.313   3.028 -0.2734  0.2442  1.0541
   84SLPC   C35 7998   0.308   2.368   3.013 -0.3990  0.0494  0.4024
   84SLPC   H5X 7999   0.270   2.315   3.103 -0.2051  0.8031  0.9343
   84SLPC   H5Y 8000   0.225   2.362   2.939  0.0045 -0.9986  0.0095
   84SLPC   C36 8001   0.335   2.513   3.049 -0.1412 -0.2812  0.2867
   84SLPC   H6X 8002   0.402   2.524   3.137 -0.1333  0.2768  0.2181
   84SLPC   H6Y 8003   0.240   2.561   3.081  1.1065  0.9862  2.2512
   84SLPC   C37 8004   0.392   2.600   2.930  0.7930  0.5659 -0.0441
   84SLPC   H7X 8005   0.319   2.597   2.846  1.0207  0.5403 -0.2427
   84SLPC   H7Y 8006   0.488   2.553   2.900  0.2320 -0.2143 -0.6483
   84SLPC   C38 8007   0.419   2.744   2.959 -0.2983 -0.1184  0.0167
   84SLPC   H8X 8008   0.323   2.776   3.005 -2.3516 -3.8606 -1.2963
   84SLPC   H8Y 8009   0.428   2.806   2.867 -0.3592 -1.2645 -0.7721
   84SLPC   C39 8010   0.532   2.798   3.056 -0.5279  0.0914  0.6776
   84SLPC   H9X 8011   0.508   2.905   3.070 -0.7913  0.1409 -0.1141
   84SLPC   H9Y 8012   0.635   2.800   3.016 -0.3237  0.8375  1.2387
   84SLPC  C310 8013   0.534   2.741   3.192  0.1118  0.2457  0.7695
   84SLPC  H10X 8014   0.567   2.634   3.194 -0.7523 -0.1222 -1.5518
   84SLPC  H10Y 8015   0.428   2.744   3.227 -0.5359 -2.2648 -0.6812
   84SLPC  C311 8016   0.627   2.824   3.276  0.8738  0.0640  0.1675
   84SLPC  H11X 8017   0.620   2.932   3.251  0.3742 -0.4651 -2.2249
   84SLPC  H11Y 8018   0.729   2.786   3.256  0.9036 -0.1322  0.6611
   84SLPC  C312 8019   0.607   2.803   3.429  0.0075 -0.3708  0.0093
   84SLPC  H12X 8020   0.616   2.695   3.451  1.3953 -0.2304  0.1878
   84SLPC  H12Y 8021   0.504   2.836   3.457  0.3694  1.1060 -0.2993
   84SLPC  C313 8022   0.725   2.875   3.502 -0.2442 -0.9461 -0.1601
   84SLPC  H13X 8023   0.722   2.986   3.489 -1.9069 -1.1038 -1.4270
   84SLPC  H13Y 8024   0.821   2.839   3.459  0.1453  0.5546 -0.6124
   84SLPC  C314 8025   0.711   2.853   3.662 -0.1736 -0.8755  0.3893
   84SLPC  H14X 8026   0.712   2.745   3.689 -2.4635 -1.0538 -0.0337
   84SLPC  H14Y 8027   0.615   2.897   3.698  0.0327  0.5669 -0.7470
   84SLPC  C315 8028   0.816   2.931   3.739 -0.7678  0.1323  0.2649
   84SLPC  H15X 8029   0.809   3.038   3.709  0.1941  0.0886 -0.1554
   84SLPC  H15Y 8030   0.918   2.901   3.707 -1.1053  0.5134 -1.2797
   84SLPC  C316 8031   0.790   2.923   3.891 -0.1129 -0.0674 -0.1712
   84SLPC  H16X 8032   0.788   2.816   3.920  1.1808  0.0296  0.3645
   84SLPC  H16Y 8033   0.692   2.971   3.911 -1.0088 -1.7770 -0.2905
   84SLPC  C317 8034   0.900   3.003   3.972  0.5359 -0.0896 -0.2426
   84SLPC  H17X 8035   0.921   3.100   3.923 -1.0327  0.3065 -0.1761
   84SLPC  H17Y 8036   0.989   2.937   3.976 -2.2625 -4.8197 -4.1137
   84SLPC  C318 8037   0.844   3.035   4.109 -0.1427 -0.6078 -0.2097
   84SLPC  H18X 8038   0.761   3.107   4.094  1.1343  1.0646  0.4290
   84SLPC  H18Y 8039   0.916   3.068   4.186  1.2465 -1.3305 -1.1541
   84SLPC  H18Z 8040   0.805   2.939   4.150 -0.7701 -1.5970 -2.8980
   85SLPC     N 8041   6.277   4.694   2.038 -0.0361  0.5416 -0.1444
   85SLPC   C13 8042   6.254   4.554   1.977  0.0677  0.1400 -0.4909
   85SLPC  H13A 8043   6.163   4.507   2.014  0.6021  0.4200  1.2893
   85SLPC  H13B 8044   6.234   4.574   1.873 -0.4826 -1.3629 -0.7029
   85SLPC  H13C 8045   6.343   4.492   1.979 -0.4926 -0.7323 -1.3360
   85SLPC   C14 8046   6.317   4.669   2.184  0.7686  0.0965 -0.3519
   85SLPC  H14A 8047   6.247   4.605   2.237 -1.9157  0.2180 -3.4430
   85SLPC  H14B 8048   6.417   4.630   2.193  0.2823 -1.5065 -1.3727
   85SLPC  H14C 8049   6.328   4.765   2.233  0.4470 -0.7225  1.4221
   85SLPC   C15 8050   6.144   4.761   2.042  0.6855 -0.6329 -0.1351
   85SLPC  H15A 8051   6.146   4.842   2.113  0.0847 -1.2278  0.5769
   85SLPC  H15B 8052   6.099   4.789   1.948 -2.9156  2.0828  2.1045
   85SLPC  H15C 8053   6.069   4.692   2.078  0.4463 -0.1979  0.2133
   85SLPC   C12 8054   6.381   4.771   1.959  0.3274 -0.4179  0.5050
   85SLPC  H12A 8055   6.392   4.870   2.002 -0.3400 -0.0751 -0.1027
   85SLPC  H12B 8056   6.341   4.792   1.861  2.4799  0.3870 -0.2775
   85SLPC   C11 8057   6.518   4.712   1.944 -0.2989 -0.4911 -0.2504
   85SLPC  H11A 8058   6.570   4.794   1.889  0.9848 -0.4604  0.9566
   85SLPC  H11B 8059   6.535   4.628   1.873  3.4228 -1.2256  1.3076
   85SLPC     P 8060   6.635   4.807   2.159  0.3171 -0.0458 -0.7937
   85SLPC   O13 8061   6.773   4.830   2.116  1.2694 -0.3300 -0.2140
   85SLPC   O14 8062   6.539   4.918   2.158  0.1886 -0.3706  0.9075
   85SLPC   O12 8063   6.579   4.691   2.070  0.1237  0.2586  0.1081
   85SLPC   O11 8064   6.637   4.733   2.301 -0.4649  0.6253  0.3620
   85SLPC    C1 8065   6.698   4.807   2.414  0.0219 -0.3085 -0.1922
   85SLPC    HA 8066   6.671   4.914   2.412  0.2617 -0.2414  0.1815
   85SLPC    HB 8067   6.658   4.774   2.512 -0.3033  0.0603 -0.1978
   85SLPC    C2 8068   6.858   4.789   2.414  0.4405  0.7887  0.1980
   85SLPC    HS 8069   6.900   4.787   2.311  0.7874 -1.4453  0.3324
   85SLPC   O21 8070   6.883   4.659   2.481  0.0141 -0.2088 -0.1231
   85SLPC   C21 8071   6.910   4.558   2.409  0.0306 -0.0255 -0.0880
   85SLPC   O22 8072   6.937   4.555   2.290  0.0804  0.0703  0.1824
   85SLPC   C22 8073   6.928   4.441   2.502 -0.1050  0.4901 -0.3110
   85SLPC   H2R 8074   7.002   4.461   2.583 -0.1281 -0.8137  0.0500
   85SLPC   H2S 8075   6.830   4.418   2.547  0.5037 -3.1757 -0.5537
   85SLPC    C3 8076   6.930   4.914   2.478 -0.1543  0.2258 -0.8098
   85SLPC    HX 8077   6.933   4.998   2.405  0.3790 -1.4673 -2.8221
   85SLPC    HY 8078   7.032   4.869   2.480 -1.3548 -2.7358 -1.3299
   85SLPC   O31 8079   6.898   4.945   2.615 -0.4701 -0.0209 -0.1610
   85SLPC   C31 8080   6.827   5.056   2.630  0.1504  0.1078  0.2071
   85SLPC   O32 8081   6.795   5.137   2.544  0.0026 -0.3256 -0.0629
   85SLPC   C32 8082   6.787   5.075   2.775 -0.1794  0.1634  0.5939
   85SLPC   H2X 8083   6.701   5.145   2.773  1.7166  2.5820 -0.2433
   85SLPC   H2Y 8084   6.871   5.132   2.818 -0.7638  0.1905  1.7425
   85SLPC   C23 8085   6.982   4.316   2.423  0.5859 -0.4396  0.3590
   85SLPC   H3R 8086   6.941   4.314   2.319 -0.8981  0.6877  0.8801
   85SLPC   H3S 8087   6.949   4.220   2.467 -1.1004 -0.1257 -0.1654
   85SLPC   C24 8088   7.133   4.319   2.412  0.3443  0.9872  0.2487
   85SLPC   H4R 8089   7.177   4.420   2.397 -0.6491  1.3572 -0.2522
   85SLPC   H4S 8090   7.158   4.261   2.321  0.1543  0.5992  0.4396
   85SLPC   C25 8091   7.213   4.258   2.529  0.7629  0.0612 -0.5044
   85SLPC   H5R 8092   7.186   4.322   2.616 -1.5678 -2.1943  0.5748
   85SLPC   H5S 8093   7.174   4.156   2.548 -1.1385  0.7518 -0.4464
   85SLPC   C26 8094   7.362   4.257   2.508  0.4375 -0.5272  0.8465
   85SLPC   H6R 8095   7.378   4.360   2.468  0.7837 -0.5652  0.8780
   85SLPC   H6S 8096   7.395   4.180   2.436  3.4647  2.4313 -1.2474
   85SLPC   C27 8097   7.440   4.241   2.636  0.0267  0.7375 -0.0572
   85SLPC   H7R 8098   7.545   4.220   2.605 -0.4262 -1.0954 -0.4969
   85SLPC   H7S 8099   7.411   4.151   2.695 -1.1555  0.8411 -0.4471
   85SLPC   C28 8100   7.428   4.357   2.743  0.4134 -0.9082  0.8039
   85SLPC   H8R 8101   7.496   4.328   2.825  1.3649 -1.1688 -0.0632
   85SLPC   H8S 8102   7.322   4.348   2.778 -0.5539  0.9108 -1.3716
   85SLPC   C29 8103   7.458   4.501   2.702  0.8514  0.2135  0.0479
   85SLPC   H9R 8104   7.564   4.513   2.677  0.4524  3.4017 -0.6516
   85SLPC  C210 8105   7.375   4.599   2.672  0.4457 -0.0295 -0.4639
   85SLPC  H10R 8106   7.423   4.696   2.649  0.9791  0.6263  2.8879
   85SLPC  C211 8107   7.227   4.597   2.673  1.0581  0.3470  0.3883
   85SLPC  H11R 8108   7.201   4.506   2.731  1.9617  0.7033  1.3911
   85SLPC  H11S 8109   7.185   4.580   2.572  0.6598  1.4984  0.3452
   85SLPC  C212 8110   7.141   4.706   2.727 -0.3716 -0.5061 -0.3202
   85SLPC  H12R 8111   7.071   4.746   2.653  0.5012  1.0427 -0.3593
   85SLPC  C213 8112   7.160   4.779   2.838 -0.1137  1.2260 -0.1216
   85SLPC  H13R 8113   7.093   4.858   2.872 -0.2335  1.0274  0.1082
   85SLPC  C214 8114   7.264   4.746   2.942  0.2927  0.4816 -0.0897
   85SLPC  H14R 8115   7.334   4.831   2.951 -0.9196  1.7301 -1.7542
   85SLPC  H14S 8116   7.323   4.653   2.927 -1.6075 -0.9762  0.9796
   85SLPC  C215 8117   7.197   4.730   3.078 -0.0930  1.0219  0.6922
   85SLPC  H15R 8118   7.154   4.820   3.127  0.8315 -0.1201  3.8051
   85SLPC  H15S 8119   7.275   4.682   3.142 -0.5693 -1.5407 -0.5497
   85SLPC  C216 8120   7.099   4.609   3.079 -0.3386 -0.5454  0.1271
   85SLPC  H16R 8121   7.143   4.529   3.014  0.8190  0.5139 -0.4528
   85SLPC  H16S 8122   6.998   4.642   3.047 -0.5103 -0.2432  0.9554
   85SLPC  C217 8123   7.085   4.566   3.226  0.3111 -0.3433 -0.1504
   85SLPC  H17R 8124   6.994   4.505   3.243  0.4352 -0.5798 -0.3304
   85SLPC  H17S 8125   7.063   4.660   3.282 -0.9868  1.0945 -2.8456
   85SLPC  C218 8126   7.205   4.497   3.295 -0.4255 -0.8582  0.1449
   85SLPC  H18R 8127   7.225   4.400   3.243 -1.7651 -0.5892 -0.9256
   85SLPC  H18S 8128   7.179   4.463   3.397 -2.3803 -2.5057 -0.8317
   85SLPC  H18T 8129   7.301   4.553   3.301 -0.9268  0.0094  0.1384
   85SLPC   C33 8130   6.767   4.948   2.859 -0.3152  0.1187 -0.1722
   85SLPC   H3X 8131   6.870   4.906   2.858  0.2491  1.3538  1.3308
   85SLPC   H3Y 8132   6.697   4.870   2.822 -0.1660 -0.8199  1.4075
   85SLPC   C34 8133   6.751   4.996   3.003  0.0410  0.6403 -0.6286
   85SLPC   H4X 8134   6.671   5.073   3.010  0.5811  1.0370  2.9482
   85SLPC   H4Y 8135   6.842   5.044   3.045 -0.4038 -0.5228  1.7860
   85SLPC   C35 8136   6.726   4.884   3.102 -0.1254 -0.3144  0.0155
   85SLPC   H5X 8137   6.785   4.791   3.085  0.1045 -0.2742  0.5709
   85SLPC   H5Y 8138   6.623   4.847   3.084 -0.6209  0.7498  0.5480
   85SLPC   C36 8139   6.751   4.922   3.248  0.4736 -0.2350  0.3374
   85SLPC   H6X 8140   6.672   4.883   3.316 -1.4519  4.0342  0.9142
   85SLPC   H6Y 8141   6.730   5.031   3.256 -0.1440 -0.2137 -1.2953
   85SLPC   C37 8142   6.890   4.885   3.295  0.4353  0.5495  0.4043
   85SLPC   H7X 8143   6.965   4.892   3.214 -0.9664 -1.1102 -1.1247
   85SLPC   H7Y 8144   6.895   4.778   3.326 -0.4522  0.3118 -0.2233
   85SLPC   C38 8145   6.938   4.973   3.414 -0.0180  0.4989  0.2591
   85SLPC   H8X 8146   6.858   4.967   3.491  0.0892 -1.2475  0.2641
   85SLPC   H8Y 8147   6.952   5.077   3.376  1.6424 -0.0086 -0.5813
   85SLPC   C39 8148   7.061   4.922   3.481  0.4298  0.6202  0.5576
   85SLPC   H9X 8149   7.134   4.912   3.397 -0.3760 -1.5793  0.0601
   85SLPC   H9Y 8150   7.046   4.820   3.522  0.1202  0.8636  1.0460
   85SLPC  C310 8151   7.107   5.022   3.587  0.1428 -0.8586  0.1149
   85SLPC  H10X 8152   7.119   5.117   3.531 -0.1696 -1.6293 -1.3214
   85SLPC  H10Y 8153   7.207   5.000   3.630  0.4850  0.2205 -0.1136
   85SLPC  C311 8154   7.005   5.051   3.696  0.2143  0.5377  0.8200
   85SLPC  H11X 8155   6.950   4.965   3.738  1.8897 -0.6985  0.5707
   85SLPC  H11Y 8156   6.925   5.105   3.641  0.4723 -1.3035 -1.5355
   85SLPC  C312 8157   7.056   5.146   3.798  0.3770 -0.2040  0.2325
   85SLPC  H12X 8158   7.086   5.243   3.752 -2.4405  1.1091  0.9420
   85SLPC  H12Y 8159   7.146   5.105   3.848  0.0803 -2.4865 -1.0027
   85SLPC  C313 8160   6.955   5.174   3.903 -0.5457  0.1546 -0.6753
   85SLPC  H13X 8161   6.940   5.080   3.961  2.9712  0.3059  0.6786
   85SLPC  H13Y 8162   6.861   5.200   3.849 -1.4244 -0.8518  0.2952
   85SLPC  C314 8163   7.007   5.284   4.001  0.5457  0.6187  0.7106
   85SLPC  H14X 8164   7.034   5.375   3.943 -0.7247  1.3776  1.2547
   85SLPC  H14Y 8165   7.101   5.241   4.040  1.2957  1.1878 -0.4036
   85SLPC  C315 8166   6.909   5.327   4.109  0.2424 -0.8022 -0.1263
   85SLPC  H15X 8167   6.866   5.229   4.138  0.3935 -0.7800  0.1701
   85SLPC  H15Y 8168   6.823   5.384   4.067 -0.8237 -1.0009  1.6952
   85SLPC  C316 8169   6.983   5.401   4.226  0.1159 -0.9448 -0.3573
   85SLPC  H16X 8170   7.079   5.350   4.251 -0.8258 -1.1128  3.5122
   85SLPC  H16Y 8171   6.920   5.397   4.317 -0.3097  1.6899 -0.4511
   85SLPC  C317 8172   7.010   5.549   4.195 -0.5211  0.0737  0.2392
   85SLPC  H17X 8173   6.913   5.600   4.178  1.2998  2.8236 -3.3648
   85SLPC  H17Y 8174   7.058   5.552   4.095 -0.5046 -0.4168  0.2291
   85SLPC  C318 8175   7.093   5.610   4.304 -0.1438 -0.5984 -0.3989
   85SLPC  H18X 8176   7.128   5.705   4.258 -1.0910  0.0893  0.2601
   85SLPC  H18Y 8177   7.182   5.546   4.325 -1.0045 -1.3070  1.2536
   85SLPC  H18Z 8178   7.037   5.646   4.393 -0.1695  0.8067 -0.9628
   86SLPC     N 8179   0.270   3.140   1.899  0.5328 -0.3104 -0.2644
   86SLPC   C13 8180   0.296   3.149   1.750  0.3050  0.5259 -0.1912
   86SLPC  H13A 8181   0.287   3.251   1.716  1.1465  1.2663  1.6649
   86SLPC  H13B 8182   0.390   3.105   1.721 -1.1193 -1.4852 -2.0953
   86SLPC  H13C 8183   0.220   3.097   1.694 -0.1902  0.6290  0.3757
   86SLPC   C14 8184   0.363   3.236   1.978  0.1313  0.0348 -0.1358
   86SLPC  H14A 8185   0.355   3.216   2.083  1.0354  0.5203  0.0381
   86SLPC  H14B 8186   0.464   3.208   1.955  0.8070  1.0101  1.4808
   86SLPC  H14C 8187   0.344   3.340   1.952 -1.5059 -0.5469 -1.4780
   86SLPC   C15 8188   0.303   3.001   1.931  0.2024  0.9099 -0.2448
   86SLPC  H15A 8189   0.285   2.987   2.036  3.9579 -1.0879  0.3143
   86SLPC  H15B 8190   0.248   2.932   1.868  0.9084  0.6539 -0.5952
   86SLPC  H15C 8191   0.406   2.973   1.911  0.5340  3.1839 -2.1869
   86SLPC   C12 8192   0.126   3.165   1.932 -0.0724 -0.0698 -0.6536
   86SLPC  H12A 8193   0.067   3.083   1.894  0.4659 -1.4183  1.2727
   86SLPC  H12B 8194   0.097   3.261   1.891  1.7610  0.5522 -0.5742
   86SLPC   C11 8195   0.097   3.161   2.078  0.2123 -0.7709 -0.0768
   86SLPC  H11A 8196  -0.006   3.187   2.109  0.5515 -0.4611  0.8243
   86SLPC  H11B 8197   0.158   3.240   2.125  2.3761 -0.3779 -3.2504
   86SLPC     P 8198   0.044   2.903   2.129  0.4203 -0.4259  0.6628
   86SLPC   O13 8199  -0.008   2.895   1.992  0.2898  0.0470 -0.2038
   86SLPC   O14 8200   0.143   2.800   2.174 -0.2121  0.0638  0.2244
   86SLPC   O12 8201   0.124   3.037   2.144  0.4271 -0.5847  0.8396
   86SLPC   O11 8202  -0.078   2.914   2.228 -0.1703  0.0567  0.1699
   86SLPC    C1 8203  -0.144   2.795   2.286  0.1975 -0.3374  0.5775
   86SLPC    HA 8204  -0.134   2.715   2.209  0.4979  0.7007 -0.4832
   86SLPC    HB 8205  -0.078   2.765   2.370  2.6969  0.3113 -1.0495
   86SLPC    C2 8206  -0.293   2.832   2.321  1.1998 -0.6510  0.4993
   86SLPC    HS 8207  -0.324   2.894   2.235 -1.0591 -1.1573  0.8878
   86SLPC   O21 8208  -0.296   2.915   2.433 -0.6465  0.0998 -0.3360
   86SLPC   C21 8209  -0.401   2.973   2.469  0.5381  0.6683  0.3980
   86SLPC   O22 8210  -0.512   2.961   2.426 -0.4139  0.1283  0.1313
   86SLPC   C22 8211  -0.359   3.084   2.572 -0.6140  0.3030 -0.4630
   86SLPC   H2R 8212  -0.310   3.034   2.658  0.8223  2.1673 -0.1376
   86SLPC   H2S 8213  -0.278   3.141   2.523  0.4133  1.7266  2.6352
   86SLPC    C3 8214  -0.363   2.694   2.337  0.2354 -0.9729 -0.0408
   86SLPC    HX 8215  -0.351   2.633   2.245 -0.3248  0.5123 -1.1244
   86SLPC    HY 8216  -0.469   2.717   2.362  0.7692  3.3112 -0.9669
   86SLPC   O31 8217  -0.311   2.626   2.447  0.5114 -0.3160  0.3004
   86SLPC   C31 8218  -0.325   2.495   2.452  0.0377 -0.2929 -0.1236
   86SLPC   O32 8219  -0.366   2.432   2.355  0.5172  0.4904 -0.0479
   86SLPC   C32 8220  -0.288   2.443   2.589 -0.5523  0.1844 -0.2279
   86SLPC   H2X 8221  -0.207   2.500   2.639  1.1866 -1.2775 -1.2125
   86SLPC   H2Y 8222  -0.250   2.339   2.579  2.0584  1.0624 -0.3279
   86SLPC   C23 8223  -0.467   3.184   2.622  0.3586 -0.3411 -0.5649
   86SLPC   H3R 8224  -0.553   3.140   2.677  1.3667  0.2522  1.6220
   86SLPC   H3S 8225  -0.506   3.221   2.525  1.0293  1.7241 -0.1003
   86SLPC   C24 8226  -0.414   3.293   2.716  0.3301  0.5832  0.4341
   86SLPC   H4R 8227  -0.350   3.358   2.653 -0.2082 -0.9458 -1.7697
   86SLPC   H4S 8228  -0.353   3.255   2.801 -0.3543  0.9397  1.0992
   86SLPC   C25 8229  -0.531   3.370   2.777 -0.0328  0.2069  0.0681
   86SLPC   H5R 8230  -0.604   3.299   2.821  2.0909 -1.1176  1.6368
   86SLPC   H5S 8231  -0.573   3.415   2.684  0.6783  0.8699  0.0563
   86SLPC   C26 8232  -0.483   3.472   2.877  0.0725  0.1088  0.6790
   86SLPC   H6R 8233  -0.541   3.567   2.883  1.3655  0.8507  2.1667
   86SLPC   H6S 8234  -0.378   3.505   2.861 -0.7032  2.3657 -0.3384
   86SLPC   C27 8235  -0.479   3.409   3.015  0.0854 -0.6464 -0.0782
   86SLPC   H7R 8236  -0.400   3.460   3.074 -0.6842  0.2524  0.1928
   86SLPC   H7S 8237  -0.449   3.302   3.011  3.9083  0.2380  1.2627
   86SLPC   C28 8238  -0.606   3.413   3.102 -0.1198 -0.5647 -0.3568
   86SLPC   H8R 8239  -0.581   3.378   3.205  0.8024 -0.3871 -0.5124
   86SLPC   H8S 8240  -0.674   3.332   3.070 -1.2997  0.3130 -0.1276
   86SLPC   C29 8241  -0.683   3.550   3.103 -0.0865  0.2535  0.5149
   86SLPC   H9R 8242  -0.740   3.579   3.014  0.6081 -0.6972 -0.2550
   86SLPC  C210 8243  -0.687   3.629   3.208 -0.3694 -0.1235 -0.0981
   86SLPC  H10R 8244  -0.731   3.728   3.187 -2.6397 -1.5717 -2.9116
   86SLPC  C211 8245  -0.624   3.616   3.343  0.1807 -0.0305  0.3627
   86SLPC  H11R 8246  -0.516   3.592   3.332  0.9442  2.8127  0.6283
   86SLPC  H11S 8247  -0.671   3.528   3.391 -1.1289  0.5152  0.1161
   86SLPC  C212 8248  -0.618   3.738   3.432 -0.2693 -0.1543 -0.1509
   86SLPC  H12R 8249  -0.539   3.802   3.390  1.4242 -3.4887 -2.5939
   86SLPC  C213 8250  -0.699   3.771   3.536  0.0156 -0.4135 -0.5600
   86SLPC  H13R 8251  -0.669   3.856   3.599 -0.0719  0.6260 -1.8910
   86SLPC  C214 8252  -0.821   3.692   3.579  0.2214 -0.4150 -0.6649
   86SLPC  H14R 8253  -0.788   3.624   3.660  2.6847  0.2213 -1.0556
   86SLPC  H14S 8254  -0.863   3.619   3.505 -0.7983 -1.1809  0.6302
   86SLPC  C215 8255  -0.945   3.777   3.620 -0.3830  0.0700  0.2650
   86SLPC  H15R 8256  -0.919   3.821   3.718  1.9804  0.7972 -0.6212
   86SLPC  H15S 8257  -1.027   3.708   3.649 -0.1915 -0.3102 -0.0854
   86SLPC  C216 8258  -0.994   3.881   3.521 -0.0767  0.3251 -0.4467
   86SLPC  H16R 8259  -1.013   3.815   3.434  1.5937  0.7463 -1.1693
   86SLPC  H16S 8260  -0.924   3.961   3.489 -1.8529  0.7628 -3.6547
   86SLPC  C217 8261  -1.119   3.962   3.564  0.6721  0.8649  0.3433
   86SLPC  H17R 8262  -1.182   3.906   3.637  0.8153  0.3578  0.0828
   86SLPC  H17S 8263  -1.189   3.972   3.478 -1.5648 -1.5961  1.7158
   86SLPC  C218 8264  -1.092   4.091   3.631 -0.0117 -0.4202  0.3829
   86SLPC  H18R 8265  -1.049   4.086   3.734 -0.7702  2.6965  0.9331
   86SLPC  H18S 8266  -1.188   4.141   3.653 -1.0917 -1.4606 -1.6599
   86SLPC  H18T 8267  -1.035   4.158   3.563 -0.7865 -1.5655 -1.4559
   86SLPC   C33 8268  -0.420   2.448   2.680 -0.1409 -0.9207 -0.0909
   86SLPC   H3X 8269  -0.392   2.399   2.775  1.4186 -0.3923 -0.2476
   86SLPC   H3Y 8270  -0.499   2.391   2.627  1.4151 -0.3170 -3.3104
   86SLPC   C34 8271  -0.469   2.593   2.711  0.5020  0.5154 -0.7587
   86SLPC   H4X 8272  -0.445   2.654   2.621 -0.0184  0.3054 -1.0429
   86SLPC   H4Y 8273  -0.407   2.638   2.792 -1.0760  4.0609 -1.3049
   86SLPC   C35 8274  -0.615   2.593   2.752 -0.5649 -0.2835 -0.4679
   86SLPC   H5X 8275  -0.632   2.532   2.844  1.1457  3.2376  2.4364
   86SLPC   H5Y 8276  -0.685   2.555   2.674 -2.2139  0.1482  0.7405
   86SLPC   C36 8277  -0.667   2.735   2.770 -0.9833 -0.2734  0.0938
   86SLPC   H6X 8278  -0.777   2.732   2.784 -0.9532 -0.0102  0.3944
   86SLPC   H6Y 8279  -0.653   2.793   2.676  2.3829 -0.1441  0.5660
   86SLPC   C37 8280  -0.597   2.810   2.877  0.6483 -0.2536  0.5771
   86SLPC   H7X 8281  -0.493   2.831   2.844  0.7991  2.2545  2.3508
   86SLPC   H7Y 8282  -0.580   2.742   2.963  1.3165 -2.5195 -1.2479
   86SLPC   C38 8283  -0.679   2.918   2.929  0.9740 -0.0981 -0.1658
   86SLPC   H8X 8284  -0.772   2.880   2.975  0.7241  0.8003  0.0938
   86SLPC   H8Y 8285  -0.712   2.973   2.838  0.3003 -1.5734 -0.8426
   86SLPC   C39 8286  -0.605   3.017   3.025  0.4465  0.3170 -0.7016
   86SLPC   H9X 8287  -0.659   3.115   3.030  2.8673  1.8700 -2.7709
   86SLPC   H9Y 8288  -0.503   3.034   2.984  0.7033 -0.4498 -0.4012
   86SLPC  C310 8289  -0.598   2.957   3.167 -0.2386 -0.0359  0.4311
   86SLPC  H10X 8290  -0.548   2.857   3.160  0.3539  0.3359 -1.0005
   86SLPC  H10Y 8291  -0.706   2.942   3.190 -0.4596  0.8307 -0.0031
   86SLPC  C311 8292  -0.536   3.060   3.261 -0.2486  0.1191  0.4746
   86SLPC  H11X 8293  -0.560   3.034   3.366 -0.7381 -2.2288 -0.1423
   86SLPC  H11Y 8294  -0.571   3.160   3.228  1.4022  0.1991 -1.2223
   86SLPC  C312 8295  -0.381   3.053   3.260 -0.0381 -0.5082 -0.5137
   86SLPC  H12X 8296  -0.348   3.111   3.170  1.1352 -2.0709 -1.1313
   86SLPC  H12Y 8297  -0.351   2.949   3.235 -1.2688 -0.7509 -1.0204
   86SLPC  C313 8298  -0.313   3.109   3.384 -0.3778 -0.4220 -0.0320
   86SLPC  H13X 8299  -0.203   3.104   3.367  0.2040  1.9904  2.3067
   86SLPC  H13Y 8300  -0.341   3.033   3.460  1.5476 -1.3712 -0.2063
   86SLPC  C314 8301  -0.350   3.249   3.432  0.6263  0.1357 -0.8045
   86SLPC  H14X 8302  -0.455   3.247   3.470  0.5704  2.9545 -0.6327
   86SLPC  H14Y 8303  -0.363   3.308   3.339  1.8226 -0.2725 -1.2458
   86SLPC  C315 8304  -0.260   3.311   3.535 -0.1071 -0.0137  0.1035
   86SLPC  H15X 8305  -0.159   3.320   3.489 -0.5733 -0.4466 -1.0248
   86SLPC  H15Y 8306  -0.244   3.240   3.619 -1.7266  0.2883  0.6967
   86SLPC  C316 8307  -0.303   3.447   3.591 -0.0191 -0.0792 -0.0368
   86SLPC  H16X 8308  -0.370   3.422   3.676  0.3493  1.6842  0.8151
   86SLPC  H16Y 8309  -0.359   3.514   3.522 -0.0851 -0.2594 -0.1591
   86SLPC  C317 8310  -0.187   3.527   3.649  0.3048  0.3724  0.4295
   86SLPC  H17X 8311  -0.131   3.577   3.568 -1.4460  1.8519  0.0642
   86SLPC  H17Y 8312  -0.120   3.455   3.701  1.5251  2.1171  1.3713
   86SLPC  C318 8313  -0.243   3.641   3.738 -0.0243 -0.5054  0.3862
   86SLPC  H18X 8314  -0.155   3.698   3.774  1.0661 -2.4297  0.8632
   86SLPC  H18Y 8315  -0.301   3.606   3.826  0.6478 -0.3603  0.8917
   86SLPC  H18Z 8316  -0.315   3.698   3.676 -0.0085  0.3838  1.1585
   87SLPC     N 8317   6.474   1.259   1.923  0.1556 -0.4894  0.0589
   87SLPC   C13 8318   6.390   1.151   1.868  0.6784  0.0067 -0.1778
   87SLPC  H13A 8319   6.446   1.063   1.841 -3.3690 -1.8691 -3.7255
   87SLPC  H13B 8320   6.307   1.113   1.927  1.0616 -0.6819 -0.0738
   87SLPC  H13C 8321   6.345   1.182   1.775 -2.4006 -0.6010  0.9872
   87SLPC   C14 8322   6.397   1.384   1.915 -0.3542 -0.5895  0.1965
   87SLPC  H14A 8323   6.362   1.416   1.818  1.7340  0.4197 -0.2809
   87SLPC  H14B 8324   6.313   1.374   1.982  1.0968 -2.6720  1.8575
   87SLPC  H14C 8325   6.454   1.468   1.951 -0.3502 -0.0468 -1.0464
   87SLPC   C15 8326   6.597   1.279   1.830  0.4549 -0.1790 -0.1875
   87SLPC  H15A 8327   6.561   1.320   1.736  2.9857  0.6579 -0.8769
   87SLPC  H15B 8328   6.664   1.353   1.872  1.5328 -0.5265 -1.2488
   87SLPC  H15C 8329   6.652   1.187   1.829 -3.0728 -2.6436  3.2085
   87SLPC   C12 8330   6.528   1.223   2.061  0.5031 -0.4360 -0.3289
   87SLPC  H12A 8331   6.583   1.310   2.092  0.2611  0.3462 -1.9939
   87SLPC  H12B 8332   6.605   1.147   2.060 -0.3650 -1.3840  1.2642
   87SLPC   C11 8333   6.418   1.189   2.164 -0.1541  0.0782 -0.0842
   87SLPC  H11A 8334   6.482   1.154   2.247  1.7793  2.4919 -0.4593
   87SLPC  H11B 8335   6.371   1.095   2.128  0.8895 -0.7578  0.6839
   87SLPC     P 8336   6.173   1.298   2.168  0.3309  0.3285  0.3090
   87SLPC   O13 8337   6.128   1.439   2.189  0.2327  0.1179  0.2397
   87SLPC   O14 8338   6.160   1.229   2.032  0.8010 -0.1345 -0.7290
   87SLPC   O12 8339   6.328   1.296   2.201 -0.5040  0.4083  0.1473
   87SLPC   O11 8340   6.111   1.200   2.276  0.2292 -0.1022  0.7508
   87SLPC    C1 8341   6.106   1.257   2.407 -0.0376  0.5584  0.1037
   87SLPC    HA 8342   6.203   1.290   2.450  0.1960  0.4824 -0.3511
   87SLPC    HB 8343   6.042   1.348   2.410  0.2574  0.7589  0.4665
   87SLPC    C2 8344   6.035   1.162   2.511 -0.8298 -0.8524 -0.6912
   87SLPC    HS 8345   5.945   1.124   2.458 -0.3674 -0.5247 -1.7447
   87SLPC   O21 8346   6.006   1.241   2.633 -0.2166  0.1148  0.2354
   87SLPC   C21 8347   5.924   1.175   2.721  0.1197  0.3950 -1.0597
   87SLPC   O22 8348   5.876   1.067   2.706 -0.3409  0.0219  0.0877
   87SLPC   C22 8349   5.905   1.259   2.836 -0.0542 -0.0666 -1.2282
   87SLPC   H2R 8350   5.972   1.347   2.828  1.8177 -0.9589  2.4439
   87SLPC   H2S 8351   5.798   1.289   2.841 -0.3135 -1.1619  0.9961
   87SLPC    C3 8352   6.116   1.033   2.521  0.0285 -0.1755  0.1541
   87SLPC    HX 8353   6.112   0.993   2.418 -0.6352  1.5626 -0.5190
   87SLPC    HY 8354   6.072   0.962   2.594  1.5198 -0.9626  0.3399
   87SLPC   O31 8355   6.254   1.067   2.561  0.9679 -0.1237  0.2861
   87SLPC   C31 8356   6.346   1.029   2.477 -0.8297  0.0495  0.1564
   87SLPC   O32 8357   6.333   0.968   2.372  0.1608 -0.0603 -0.1423
   87SLPC   C32 8358   6.490   1.063   2.538 -0.1047 -0.0797  0.3860
   87SLPC   H2X 8359   6.564   1.010   2.473  1.5877 -0.5292  2.5224
   87SLPC   H2Y 8360   6.496   1.021   2.641 -0.2112  0.3935  0.5848
   87SLPC   C23 8361   5.957   1.182   2.964 -0.0837 -0.6056 -0.3991
   87SLPC   H3R 8362   5.893   1.093   2.986  0.5349 -0.7797  0.8027
   87SLPC   H3S 8363   5.947   1.257   3.045  3.7512  1.0834 -1.2543
   87SLPC   C24 8364   6.104   1.158   2.978  0.1580  0.3715 -0.6079
   87SLPC   H4R 8365   6.161   1.253   2.976  0.5132  0.2314  1.1814
   87SLPC   H4S 8366   6.131   1.101   2.886 -0.4717  0.6703 -0.9836
   87SLPC   C25 8367   6.146   1.074   3.103 -0.0549 -0.5241  0.3999
   87SLPC   H5R 8368   6.065   1.000   3.123  0.8275 -1.1773  1.6675
   87SLPC   H5S 8369   6.149   1.147   3.186 -1.0327 -0.3962  0.3385
   87SLPC   C26 8370   6.280   1.013   3.090 -0.0555  0.2446  0.0534
   87SLPC   H6R 8371   6.281   0.941   3.005  0.4942  2.4624 -1.9267
   87SLPC   H6S 8372   6.293   0.955   3.184  1.0129 -1.6680 -1.1974
   87SLPC   C27 8373   6.397   1.111   3.083 -0.2728 -0.4533  0.0452
   87SLPC   H7R 8374   6.387   1.157   3.184 -4.9106 -0.5420 -0.1598
   87SLPC   H7S 8375   6.389   1.190   3.006  0.0218  2.1629  2.5027
   87SLPC   C28 8376   6.528   1.031   3.074 -0.0470  0.1918 -0.0674
   87SLPC   H8R 8377   6.534   0.974   2.979 -2.6681  0.8127 -0.7141
   87SLPC   H8S 8378   6.509   0.963   3.160 -1.6501  3.1462  2.0992
   87SLPC   C29 8379   6.656   1.107   3.103  0.2923 -0.6598 -0.2269
   87SLPC   H9R 8380   6.704   1.128   3.006  0.2125 -1.9360 -0.5524
   87SLPC  C210 8381   6.733   1.108   3.211  0.1340  0.1657  0.1786
   87SLPC  H10R 8382   6.821   1.173   3.222  2.0852 -1.8977 -1.9853
   87SLPC  C211 8383   6.689   1.037   3.340 -0.0415  0.3779 -0.6209
   87SLPC  H11R 8384   6.581   1.041   3.362  0.1654 -0.1355  0.5482
   87SLPC  H11S 8385   6.742   1.088   3.424 -0.1978 -0.5145  0.0418
   87SLPC  C212 8386   6.733   0.892   3.344 -0.1713  0.5080 -0.2711
   87SLPC  H12R 8387   6.713   0.834   3.252 -1.3115  3.1291 -1.7895
   87SLPC  C213 8388   6.795   0.831   3.442 -0.3757 -0.4310 -0.6479
   87SLPC  H13R 8389   6.826   0.726   3.440  0.1451 -0.3540  1.2212
   87SLPC  C214 8390   6.833   0.907   3.572 -0.2487  0.9584 -0.1755
   87SLPC  H14R 8391   6.799   0.838   3.652 -1.7956 -0.1923 -1.7443
   87SLPC  H14S 8392   6.776   1.001   3.590 -2.0882  0.6181 -3.4241
   87SLPC  C215 8393   6.988   0.938   3.589  0.1767 -0.2820  0.5990
   87SLPC  H15R 8394   7.032   1.011   3.518  2.7768  0.2594  2.6010
   87SLPC  H15S 8395   7.043   0.846   3.561 -0.9852 -0.3814 -1.5080
   87SLPC  C216 8396   7.027   1.000   3.720  0.3007 -0.0226 -0.3741
   87SLPC  H16R 8397   7.134   0.975   3.736  0.7250 -0.1096 -2.9365
   87SLPC  H16S 8398   6.964   0.956   3.800  0.1271  0.7302 -0.0851
   87SLPC  C217 8399   7.004   1.152   3.719  0.0756  0.6043 -0.0771
   87SLPC  H17R 8400   6.897   1.181   3.707 -0.7292 -1.7467  0.9161
   87SLPC  H17S 8401   7.063   1.198   3.637 -0.1747  0.2198 -0.4794
   87SLPC  C218 8402   7.049   1.230   3.847 -0.8539  0.1656 -0.2180
   87SLPC  H18R 8403   7.158   1.237   3.862 -0.9993  0.2841  0.8705
   87SLPC  H18S 8404   6.995   1.207   3.941  0.0575  2.2735  0.8702
   87SLPC  H18T 8405   7.034   1.339   3.834  0.7744  0.5117  0.6042
   87SLPC   C33 8406   6.523   1.212   2.535  0.3234  0.1700  0.5617
   87SLPC   H3X 8407   6.487   1.259   2.441  1.4790 -2.2064 -1.1790
   87SLPC   H3Y 8408   6.633   1.203   2.519  0.1502 -0.1794 -0.5492
   87SLPC   C34 8409   6.482   1.292   2.664 -0.1320 -0.8282  0.1093
   87SLPC   H4X 8410   6.527   1.259   2.760 -0.0552 -1.6678 -0.2081
   87SLPC   H4Y 8411   6.374   1.269   2.676 -0.4308  0.7159  0.6922
   87SLPC   C35 8412   6.521   1.442   2.646 -0.2847 -0.5617 -0.7441
   87SLPC   H5X 8413   6.501   1.463   2.538  1.2651  1.4065 -0.7093
   87SLPC   H5Y 8414   6.628   1.455   2.670 -0.1618 -1.2983 -0.8688
   87SLPC   C36 8415   6.453   1.545   2.745 -0.1337 -0.1463 -0.3995
   87SLPC   H6X 8416   6.514   1.637   2.734 -0.5086  0.0136 -1.2116
   87SLPC   H6Y 8417   6.465   1.511   2.850  0.3967 -2.7052 -1.2401
   87SLPC   C37 8418   6.316   1.585   2.708 -0.2926 -0.3044  0.4146
   87SLPC   H7X 8419   6.296   1.541   2.608 -0.9368  0.4805  0.1890
   87SLPC   H7Y 8420   6.319   1.695   2.699  0.8124 -0.5189 -2.7865
   87SLPC   C38 8421   6.213   1.535   2.805  0.0530 -1.4189 -0.0973
   87SLPC   H8X 8422   6.225   1.426   2.823 -2.6135 -1.6607  0.6687
   87SLPC   H8Y 8423   6.112   1.538   2.758  0.5258  0.2504 -1.1012
   87SLPC   C39 8424   6.207   1.606   2.942 -0.1445 -0.3623 -0.1979
   87SLPC   H9X 8425   6.188   1.712   2.918 -0.1119 -0.5364 -1.0128
   87SLPC   H9Y 8426   6.298   1.584   3.003 -0.2387  1.2229  0.5782
   87SLPC  C310 8427   6.087   1.559   3.030 -0.0567  0.8092  0.2818
   87SLPC  H10X 8428   6.089   1.450   3.051  2.4301  0.7315 -0.0618
   87SLPC  H10Y 8429   6.001   1.573   2.961 -0.2111  0.0286  0.3089
   87SLPC  C311 8430   6.044   1.644   3.155  0.2187 -0.0436 -0.7448
   87SLPC  H11X 8431   6.054   1.748   3.117 -1.4468 -0.5750 -2.7608
   87SLPC  H11Y 8432   6.126   1.633   3.230 -1.1597  0.4617  0.8883
   87SLPC  C312 8433   5.902   1.620   3.199  0.1576 -0.4864  0.1108
   87SLPC  H12X 8434   5.833   1.629   3.113  1.4321  0.2945 -0.8717
   87SLPC  H12Y 8435   5.879   1.701   3.272  0.3400  1.0321 -1.4569
   87SLPC  C313 8436   5.874   1.491   3.277 -0.7682  0.1386  0.3732
   87SLPC  H13X 8437   5.915   1.412   3.211  0.7977  1.6784 -0.5719
   87SLPC  H13Y 8438   5.764   1.473   3.275 -0.5241 -1.6229 -2.6133
   87SLPC  C314 8439   5.959   1.460   3.406  0.2814 -0.0405 -0.0671
   87SLPC  H14X 8440   6.052   1.521   3.398  0.6382 -0.1800  2.3888
   87SLPC  H14Y 8441   5.971   1.351   3.420 -0.2955  0.1265  2.0802
   87SLPC  C315 8442   5.892   1.510   3.537 -0.3815  0.5281  0.1645
   87SLPC  H15X 8443   5.847   1.609   3.513  0.0314  0.8318  0.6222
   87SLPC  H15Y 8444   5.965   1.525   3.620 -0.1704 -1.2632  0.3320
   87SLPC  C316 8445   5.786   1.411   3.580  0.2948 -0.0310  0.4205
   87SLPC  H16X 8446   5.822   1.310   3.609 -1.1378 -0.8805 -0.6394
   87SLPC  H16Y 8447   5.715   1.388   3.497  2.3350 -2.2037 -0.8505
   87SLPC  C317 8448   5.701   1.462   3.696  0.6898  0.7003  0.4041
   87SLPC  H17X 8449   5.638   1.540   3.648 -0.8907 -0.7754 -0.0265
   87SLPC  H17Y 8450   5.779   1.498   3.767  0.1845  3.2310 -0.2042
   87SLPC  C318 8451   5.601   1.375   3.768  0.0161 -0.3782  0.0468
   87SLPC  H18X 8452   5.648   1.275   3.782  1.4970 -0.3702 -3.7893
   87SLPC  H18Y 8453   5.508   1.355   3.710 -0.4815 -1.0397  1.0343
   87SLPC  H18Z 8454   5.570   1.432   3.859 -0.0689  0.4290 -0.4786
   88SLPC     N 8455   0.425   6.855   1.819  0.6969  0.6674  0.2979
   88SLPC   C13 8456   0.472   6.727   1.891  0.1211  0.2366 -0.2058
   88SLPC  H13A 8457   0.529   6.672   1.818  0.6085  0.0988  0.2762
   88SLPC  H13B 8458   0.524   6.757   1.981  0.9768  1.5381 -1.1024
   88SLPC  H13C 8459   0.386   6.663   1.904  0.2307  0.3758  1.3349
   88SLPC   C14 8460   0.356   6.811   1.695 -0.3273 -0.5998  0.0482
   88SLPC  H14A 8461   0.416   6.746   1.633  0.8367  1.1236 -0.7226
   88SLPC  H14B 8462   0.265   6.759   1.721  0.5344 -0.6680  3.4006
   88SLPC  H14C 8463   0.333   6.893   1.629  2.5019 -1.3719 -2.1023
   88SLPC   C15 8464   0.536   6.952   1.783 -0.7835 -0.0494  0.1051
   88SLPC  H15A 8465   0.502   7.037   1.727  0.5851  0.6354  0.2821
   88SLPC  H15B 8466   0.590   6.985   1.870 -0.3462  0.3067 -0.2962
   88SLPC  H15C 8467   0.610   6.894   1.730  1.1464 -0.4028  2.9731
   88SLPC   C12 8468   0.329   6.935   1.906  0.6764 -0.5281  0.1018
   88SLPC  H12A 8469   0.236   6.881   1.909  1.1950 -1.4380  0.2016
   88SLPC  H12B 8470   0.312   7.028   1.854 -0.7672 -1.5631 -1.3499
   88SLPC   C11 8471   0.361   6.980   2.054  0.0462  0.1507  0.3430
   88SLPC  H11A 8472   0.357   6.890   2.120  1.0922  0.9049  1.4729
   88SLPC  H11B 8473   0.279   7.042   2.095  0.2027 -0.6704  2.0017
   88SLPC     P 8474   0.512   7.202   2.047 -0.1035 -0.2556 -0.1459
   88SLPC   O13 8475   0.652   7.232   1.999  0.9995 -0.0939 -0.6113
   88SLPC   O14 8476   0.406   7.255   1.961  0.5083  0.7510  0.0567
   88SLPC   O12 8477   0.489   7.047   2.064  0.0200  0.0587  0.6001
   88SLPC   O11 8478   0.496   7.260   2.191 -0.0717 -0.0968  0.8652
   88SLPC    C1 8479   0.400   7.209   2.280 -0.4889  0.6231 -0.2361
   88SLPC    HA 8480   0.296   7.222   2.243 -0.0546  1.3037 -1.2288
   88SLPC    HB 8481   0.415   7.100   2.299  0.2682  0.4682 -1.6276
   88SLPC    C2 8482   0.418   7.280   2.420 -0.4058  0.1010  0.8098
   88SLPC    HS 8483   0.381   7.384   2.423 -1.9414 -0.3391 -1.0177
   88SLPC   O21 8484   0.558   7.267   2.458 -0.1289  0.1695  0.3351
   88SLPC   C21 8485   0.638   7.367   2.425  0.0563  0.3078 -0.6842
   88SLPC   O22 8486   0.602   7.474   2.378 -0.3452 -0.2641 -0.3709
   88SLPC   C22 8487   0.787   7.348   2.457 -0.0481 -0.0689  0.5846
   88SLPC   H2R 8488   0.815   7.269   2.383 -0.4931  2.0973 -2.0365
   88SLPC   H2S 8489   0.831   7.443   2.419 -1.3566 -0.3282 -1.7901
   88SLPC    C3 8490   0.344   7.208   2.531 -0.1913 -0.2182 -0.2292
   88SLPC    HX 8491   0.396   7.114   2.559  0.2195  0.1968  0.4208
   88SLPC    HY 8492   0.240   7.181   2.501 -0.4266 -3.2322  2.7408
   88SLPC   O31 8493   0.326   7.298   2.641  0.4897 -0.2578  0.2103
   88SLPC   C31 8494   0.407   7.281   2.746 -0.1969 -0.0666  0.3608
   88SLPC   O32 8495   0.508   7.220   2.747 -0.6231  0.3875 -0.1602
   88SLPC   C32 8496   0.341   7.360   2.860 -0.6395  0.7964  0.0225
   88SLPC   H2X 8497   0.242   7.401   2.830 -0.3595  0.7001 -1.0929
   88SLPC   H2Y 8498   0.408   7.445   2.887  2.4631 -1.3365 -0.3429
   88SLPC   C23 8499   0.816   7.321   2.604 -0.0707 -0.3097 -0.0036
   88SLPC   H3R 8500   0.925   7.313   2.621 -0.3058 -2.6725  0.8020
   88SLPC   H3S 8501   0.778   7.223   2.639 -0.2031 -0.1862  0.2045
   88SLPC   C24 8502   0.769   7.429   2.699 -0.5601 -0.0602  0.0992
   88SLPC   H4R 8503   0.658   7.432   2.698 -0.6401  2.9109  2.1242
   88SLPC   H4S 8504   0.810   7.526   2.662  3.3052 -0.6674  2.2109
   88SLPC   C25 8505   0.826   7.415   2.848 -0.1083  0.2251  0.2224
   88SLPC   H5R 8506   0.818   7.516   2.895  2.0104  1.6742 -2.3014
   88SLPC   H5S 8507   0.935   7.395   2.844 -0.3288 -0.8603 -2.1875
   88SLPC   C26 8508   0.763   7.305   2.930 -0.3812 -0.0179 -0.0973
   88SLPC   H6R 8509   0.781   7.204   2.889 -0.5809  0.2227 -0.7906
   88SLPC   H6S 8510   0.653   7.320   2.932 -0.5147 -0.9504 -0.3188
   88SLPC   C27 8511   0.805   7.314   3.082 -0.9968 -0.5129  0.6761
   88SLPC   H7R 8512   0.741   7.386   3.137  2.4403  1.8566  1.8276
   88SLPC   H7S 8513   0.906   7.358   3.079 -1.0966 -0.0692  2.3960
   88SLPC   C28 8514   0.800   7.182   3.151 -0.3733  0.5880 -0.1572
   88SLPC   H8R 8515   0.834   7.204   3.255  1.6030  2.6387 -1.1601
   88SLPC   H8S 8516   0.878   7.117   3.106  0.7429  1.5862  0.2998
   88SLPC   C29 8517   0.661   7.126   3.144  0.0143 -0.3248  0.3757
   88SLPC   H9R 8518   0.627   7.090   3.046 -0.3616  1.2657 -0.1029
   88SLPC  C210 8519   0.579   7.134   3.250  0.3024  1.0393 -0.4925
   88SLPC  H10R 8520   0.481   7.083   3.246 -0.0717  0.8636  4.5112
   88SLPC  C211 8521   0.624   7.185   3.385 -0.3601 -0.3858 -0.5306
   88SLPC  H11R 8522   0.676   7.280   3.363  0.0369 -0.7254 -1.0734
   88SLPC  H11S 8523   0.703   7.122   3.432 -0.5258  1.5149  2.6381
   88SLPC  C212 8524   0.506   7.207   3.477  0.8342 -0.3202 -0.0118
   88SLPC  H12R 8525   0.456   7.305   3.472  2.4512  0.4681 -1.4471
   88SLPC  C213 8526   0.458   7.114   3.562  0.0488  0.2009  0.0515
   88SLPC  H13R 8527   0.379   7.143   3.633 -1.6430 -2.4029 -0.6586
   88SLPC  C214 8528   0.509   6.967   3.570 -0.2618 -0.2548  0.7541
   88SLPC  H14R 8529   0.578   6.948   3.485 -0.8361 -0.9049  0.4266
   88SLPC  H14S 8530   0.412   6.913   3.565 -1.1136  1.2699  0.2204
   88SLPC  C215 8531   0.588   6.943   3.697 -0.5295 -0.4968  0.7832
   88SLPC  H15R 8532   0.580   6.835   3.723  0.5158 -0.4864  1.1996
   88SLPC  H15S 8533   0.533   7.000   3.775 -0.3827  1.6648 -0.6156
   88SLPC  C216 8534   0.735   6.999   3.693  0.0042  0.0206  0.3343
   88SLPC  H16R 8535   0.731   7.108   3.673 -2.8574 -0.4525 -2.3509
   88SLPC  H16S 8536   0.792   6.961   3.605  0.7535  2.1897 -0.1890
   88SLPC  C217 8537   0.822   6.960   3.815 -0.5467 -0.0132 -0.3564
   88SLPC  H17R 8538   0.924   6.932   3.782 -0.3077  1.4927 -1.0129
   88SLPC  H17S 8539   0.764   6.880   3.864 -0.3489 -0.2453 -0.5002
   88SLPC  C218 8540   0.842   7.070   3.922  0.4623 -0.2800 -0.0222
   88SLPC  H18R 8541   0.909   7.151   3.886 -1.0551  0.8219 -0.4738
   88SLPC  H18S 8542   0.878   7.029   4.019  0.3352  0.4068  0.3248
   88SLPC  H18T 8543   0.749   7.128   3.943  0.6880 -0.2010  0.8042
   88SLPC   C33 8544   0.318   7.266   2.984 -0.1576 -0.1793  0.3000
   88SLPC   H3X 8545   0.409   7.271   3.047  0.1127  0.5825 -0.1368
   88SLPC   H3Y 8546   0.293   7.165   2.945  0.1069 -0.3606  0.5921
   88SLPC   C34 8547   0.204   7.309   3.075 -0.2545  0.5904 -0.0774
   88SLPC   H4X 8548   0.204   7.232   3.154  0.7908  1.4305  0.7739
   88SLPC   H4Y 8549   0.112   7.323   3.015  1.0493  1.8775 -1.9257
   88SLPC   C35 8550   0.229   7.448   3.146 -0.8400 -0.2434  0.0180
   88SLPC   H5X 8551   0.135   7.462   3.203 -0.7075 -1.1334  0.4654
   88SLPC   H5Y 8552   0.246   7.535   3.079  0.8558 -1.0375 -0.6389
   88SLPC   C36 8553   0.351   7.454   3.242 -0.2379  0.2436  0.5578
   88SLPC   H6X 8554   0.448   7.448   3.189  0.4246  1.9168  1.5046
   88SLPC   H6Y 8555   0.342   7.365   3.308 -0.7436 -0.1565 -0.0367
   88SLPC   C37 8556   0.332   7.579   3.324  0.2685 -1.0087 -0.0817
   88SLPC   H7X 8557   0.295   7.654   3.251 -2.1220 -0.9979  1.0453
   88SLPC   H7Y 8558   0.432   7.615   3.356  0.2735  0.7625 -1.9568
   88SLPC   C38 8559   0.234   7.554   3.440 -0.6234  0.5450  0.1035
   88SLPC   H8X 8560   0.289   7.483   3.504  1.6099  1.0241 -1.1786
   88SLPC   H8Y 8561   0.136   7.508   3.416 -1.4551  1.7327  1.0748
   88SLPC   C39 8562   0.209   7.690   3.506  0.4298  0.0563 -0.0950
   88SLPC   H9X 8563   0.131   7.677   3.585  2.1017 -0.9695  1.4484
   88SLPC   H9Y 8564   0.159   7.750   3.427  0.8427  1.1953  0.4768
   88SLPC  C310 8565   0.325   7.758   3.580  0.0449  0.0426  0.0018
   88SLPC  H10X 8566   0.409   7.789   3.514  1.0237 -1.4562  0.4897
   88SLPC  H10Y 8567   0.369   7.680   3.646 -1.2536 -0.5031  0.2432
   88SLPC  C311 8568   0.271   7.883   3.657  0.0969  0.0771 -0.3506
   88SLPC  H11X 8569   0.213   7.862   3.750 -0.8943 -1.2593 -1.2191
   88SLPC  H11Y 8570   0.197   7.923   3.584 -0.5233 -3.2377 -1.7158
   88SLPC  C312 8571   0.377   7.989   3.688 -0.3322 -0.5175 -0.7017
   88SLPC  H12X 8572   0.446   8.005   3.603  0.0222 -3.3332 -1.0595
   88SLPC  H12Y 8573   0.440   7.949   3.770  0.2866 -0.3070 -1.0727
   88SLPC  C313 8574   0.317   8.115   3.756  0.2430  0.2930 -0.2108
   88SLPC  H13X 8575   0.208   8.099   3.764  0.2891 -0.7175 -1.2922
   88SLPC  H13Y 8576   0.335   8.202   3.689  1.9164  0.2839  0.1688
   88SLPC  C314 8577   0.374   8.134   3.895  0.0798 -0.0162 -0.8512
   88SLPC  H14X 8578   0.471   8.184   3.875  0.6311 -0.5408  0.4063
   88SLPC  H14Y 8579   0.407   8.036   3.936  1.4532  0.5940 -0.4270
   88SLPC  C315 8580   0.281   8.207   3.992 -0.5815 -0.1067  0.0210
   88SLPC  H15X 8581   0.179   8.163   3.990 -0.9435  0.7316 -0.3746
   88SLPC  H15Y 8582   0.275   8.317   3.982 -0.4225 -0.1664 -0.8557
   88SLPC  C316 8583   0.329   8.185   4.134  0.5809  0.0055  0.0976
   88SLPC  H16X 8584   0.436   8.211   4.135  0.0453  2.8308 -2.6768
   88SLPC  H16Y 8585   0.328   8.077   4.163  0.8272  0.7247  3.1613
   88SLPC  C317 8586   0.249   8.258   4.239  0.7300 -0.0096  0.4502
   88SLPC  H17X 8587   0.142   8.246   4.212  1.0537  0.7125 -1.2743
   88SLPC  H17Y 8588   0.279   8.365   4.227 -0.2562  0.2176 -0.0805
   88SLPC  C318 8589   0.273   8.227   4.386  0.2196  0.1663 -0.7229
   88SLPC  H18X 8590   0.255   8.122   4.416 -0.0386  0.2590 -0.5440
   88SLPC  H18Y 8591   0.203   8.286   4.450 -1.0744 -2.8387  0.8182
   88SLPC  H18Z 8592   0.376   8.243   4.426 -0.7229  0.0201  1.9863
   89SAPE     N 8593   4.125   2.168   6.050  0.3646  0.4890 -0.0539
   89SAPE   HN1 8594   4.197   2.105   6.091 -0.6448 -0.4061  0.3626
   89SAPE   HN2 8595   4.036   2.119   6.029  0.8919  0.7300 -3.4642
   89SAPE   HN3 8596   4.172   2.208   5.966 -0.6836  0.6487 -0.5748
   89SAPE   C12 8597   4.104   2.276   6.155 -0.0836  1.0140 -0.3606
   89SAPE  H12A 8598   4.148   2.238   6.250 -0.5415  2.3206  0.4072
   89SAPE  H12B 8599   3.994   2.284   6.171  0.1961  1.6000  1.4747
   89SAPE   C11 8600   4.156   2.414   6.115 -0.0983  0.2406  0.3569
   89SAPE  H11A 8601   4.259   2.391   6.081 -0.6003 -2.5219  0.4740
   89SAPE  H11B 8602   4.170   2.473   6.208  0.8854 -1.3724  1.2693
   89SAPE     P 8603   3.955   2.568   6.054  0.3782  0.2471  0.1763
   89SAPE   O13 8604   3.854   2.476   6.116  0.5923  0.0492 -0.1831
   89SAPE   O14 8605   4.000   2.679   6.129 -0.0574 -0.0985  0.0150
   89SAPE   O12 8606   4.086   2.480   6.015 -0.3022  0.3027  0.1973
   89SAPE   O11 8607   3.889   2.626   5.914  0.9336 -0.4798 -0.3116
   89SAPE    C1 8608   3.961   2.618   5.797 -0.8526 -0.3364  0.3448
   89SAPE    HA 8609   4.049   2.550   5.792 -0.7533 -0.2410  0.7229
   89SAPE    HB 8610   3.887   2.582   5.723 -2.4430  0.6790  1.3667
   89SAPE    C2 8611   4.017   2.755   5.781  0.0890 -0.4468  0.6712
   89SAPE    HS 8612   4.086   2.771   5.867 -2.7992  1.8623  2.7723
   89SAPE   O21 8613   3.922   2.861   5.798 -0.1796  0.7876  0.0312
   89SAPE   C21 8614   3.798   2.849   5.749 -0.4040 -0.4197  0.2822
   89SAPE   O22 8615   3.758   2.770   5.667  0.2564 -0.6530 -0.1440
   89SAPE   C22 8616   3.729   2.979   5.790  0.1045  0.1152 -0.1480
   89SAPE   H2R 8617   3.684   2.961   5.890 -0.0370 -0.3887 -0.2963
   89SAPE   H2S 8618   3.806   3.059   5.793  1.3112 -0.9220 -1.6301
   89SAPE    C3 8619   4.098   2.778   5.648 -0.2040  0.4121  0.0255
   89SAPE    HX 8620   4.164   2.690   5.634  0.4561  1.0545 -1.0159
   89SAPE    HY 8621   4.172   2.861   5.657  1.0308 -0.8365  2.4085
   89SAPE   O31 8622   4.023   2.796   5.531 -0.2183  0.2013  0.8464
   89SAPE   C31 8623   3.988   2.697   5.458 -0.1107  0.8903  0.1843
   89SAPE   O32 8624   4.010   2.580   5.485 -0.0730 -0.0670 -0.0389
   89SAPE   C32 8625   3.902   2.739   5.341  0.3541 -0.0399 -0.2425
   89SAPE   H2X 8626   3.945   2.822   5.280 -2.0199  1.0890 -0.5081
   89SAPE   H2Y 8627   3.808   2.773   5.389  0.5734 -1.5658  1.3511
   89SAPE   C23 8628   3.617   3.016   5.692  0.4951  0.1588 -0.9937
   89SAPE   H3R 8629   3.541   3.077   5.744  0.0383 -1.5928  0.5042
   89SAPE   H3S 8630   3.559   2.933   5.646  0.3879 -0.7619  0.7374
   89SAPE   C24 8631   3.666   3.119   5.586 -0.1079 -0.6552 -0.5663
   89SAPE   H4R 8632   3.737   3.187   5.637 -1.4030 -1.1686  2.1232
   89SAPE   H4S 8633   3.580   3.176   5.544 -1.2483 -2.1074 -0.3019
   89SAPE   C25 8634   3.736   3.059   5.476 -0.7095  0.6680  0.1968
   89SAPE   H5R 8635   3.680   2.977   5.428 -0.7371  0.2794  0.8738
   89SAPE   C26 8636   3.851   3.085   5.426  0.0761 -0.7441  0.6474
   89SAPE   H6R 8637   3.885   3.026   5.340  0.6192  0.0118  0.3274
   89SAPE   C27 8638   3.934   3.204   5.458  0.1633 -0.1521  0.0874
   89SAPE   H7R 8639   3.921   3.250   5.559 -1.5216  0.0771 -0.2049
   89SAPE   H7S 8640   3.911   3.292   5.394 -0.6979 -0.6063 -0.2298
   89SAPE   C28 8641   4.078   3.167   5.446  0.5232 -0.4945 -0.3851
   89SAPE   H8R 8642   4.112   3.094   5.520 -0.2181 -0.3157  0.1384
   89SAPE   C29 8643   4.168   3.211   5.355  0.0274  0.0886 -0.6536
   89SAPE   H9R 8644   4.271   3.181   5.381 -0.9134 -2.1817  0.7112
   89SAPE  C210 8645   4.147   3.308   5.245 -0.3121 -0.3530  0.5215
   89SAPE  H10R 8646   4.223   3.387   5.263 -0.3034 -0.7696  2.5581
   89SAPE  H10S 8647   4.047   3.357   5.245  0.0617  0.4294  0.1580
   89SAPE  C211 8648   4.177   3.239   5.114 -0.1380 -0.8347  0.0316
   89SAPE  H11R 8649   4.283   3.222   5.091  0.4082  0.2913  1.5707
   89SAPE  C212 8650   4.084   3.199   5.026  0.0994  1.1469 -0.1584
   89SAPE  H12R 8651   4.120   3.171   4.925 -0.5057  2.4882 -0.7663
   89SAPE  C213 8652   3.932   3.206   5.028 -0.3830  0.4463 -0.3948
   89SAPE  H13R 8653   3.907   3.254   4.931  0.2414 -0.8166 -1.1948
   89SAPE  H13S 8654   3.896   3.275   5.107 -1.7761  0.1402 -0.7193
   89SAPE  C214 8655   3.883   3.066   5.033  0.4720 -0.6479 -0.2690
   89SAPE  H14R 8656   3.930   2.994   5.102  1.3846 -0.3747 -0.5888
   89SAPE  C215 8657   3.777   3.029   4.962 -0.5502  0.0908 -0.6607
   89SAPE  H15R 8658   3.744   2.925   4.959  0.1282 -0.1226 -2.9570
   89SAPE  C216 8659   3.687   3.120   4.870  0.3511  1.0925 -0.2514
   89SAPE  H16R 8660   3.726   3.224   4.868  1.8908  0.6012  1.2143
   89SAPE  H16S 8661   3.592   3.129   4.927  1.2590 -1.0219  1.7485
   89SAPE  C217 8662   3.670   3.070   4.725 -0.2302  0.0631 -0.0274
   89SAPE  H17R 8663   3.572   3.112   4.692 -0.8877 -0.7231  0.8572
   89SAPE  H17S 8664   3.665   2.959   4.714 -0.5987 -0.0837  1.3896
   89SAPE  C218 8665   3.793   3.117   4.646  0.1924  0.3871 -0.1891
   89SAPE  H18R 8666   3.886   3.095   4.703  0.5536  0.6382 -0.6794
   89SAPE  H18S 8667   3.799   3.227   4.638  1.9855  0.3078 -0.3883
   89SAPE  C219 8668   3.795   3.062   4.505 -0.0202 -0.5312 -0.3321
   89SAPE  H19R 8669   3.712   3.105   4.445 -0.9979 -1.1003  0.5649
   89SAPE  H19S 8670   3.773   2.954   4.520 -2.5595  0.0463  0.5940
   89SAPE  C220 8671   3.924   3.083   4.422  0.6403  0.8653  0.2727
   89SAPE  H20R 8672   3.945   3.190   4.396  0.4756  0.4437 -1.7679
   89SAPE  H20S 8673   3.921   3.016   4.333 -0.9342 -0.6370  1.4095
   89SAPE  H20T 8674   4.017   3.058   4.478 -0.8698 -2.3529  1.5239
   89SAPE   C33 8675   3.869   2.627   5.238  0.9251  0.1629  0.1176
   89SAPE   H3X 8676   3.779   2.570   5.270  0.7502  0.0508 -0.5566
   89SAPE   H3Y 8677   3.950   2.551   5.228  0.3506 -0.4152 -0.2347
   89SAPE   C34 8678   3.820   2.680   5.102 -0.2344  1.0149  0.9185
   89SAPE   H4X 8679   3.895   2.754   5.069  0.0221  1.3618  2.2032
   89SAPE   H4Y 8680   3.723   2.730   5.124 -2.6204 -2.2743 -1.1434
   89SAPE   C35 8681   3.814   2.581   4.989  0.5119 -0.1032 -0.4898
   89SAPE   H5X 8682   3.735   2.514   5.027 -1.5473  1.6316 -1.4440
   89SAPE   H5Y 8683   3.908   2.527   4.967  1.3388  1.1496 -0.1358
   89SAPE   C36 8684   3.759   2.642   4.861 -0.0660 -0.3596  0.0399
   89SAPE   H6X 8685   3.803   2.743   4.843 -1.9802  0.1778 -2.0766
   89SAPE   H6Y 8686   3.652   2.667   4.872 -0.1652  0.9206 -2.8660
   89SAPE   C37 8687   3.781   2.563   4.734 -0.2114  0.2831  0.8474
   89SAPE   H7X 8688   3.722   2.470   4.739 -1.9958  1.3555  0.4445
   89SAPE   H7Y 8689   3.889   2.538   4.730  0.3731  2.7084 -0.4816
   89SAPE   C38 8690   3.754   2.651   4.607  0.1514 -0.2619 -0.7045
   89SAPE   H8X 8691   3.824   2.736   4.624 -1.9620  1.7759 -1.5963
   89SAPE   H8Y 8692   3.653   2.695   4.592  0.3212 -0.0571 -1.2560
   89SAPE   C39 8693   3.808   2.576   4.487  0.3871 -0.6949 -0.8517
   89SAPE   H9X 8694   3.902   2.518   4.504  0.5654 -0.2250 -0.1627
   89SAPE   H9Y 8695   3.827   2.652   4.408  0.6467  0.7357  0.5211
   89SAPE  C310 8696   3.693   2.492   4.433  0.7378  0.0868 -0.2232
   89SAPE  H10X 8697   3.608   2.559   4.409 -0.1191 -1.3852 -1.4341
   89SAPE  H10Y 8698   3.678   2.419   4.515  1.7855  1.1125  0.9172
   89SAPE  C311 8699   3.734   2.418   4.303 -0.4690 -0.5979  0.7844
   89SAPE  H11X 8700   3.804   2.337   4.331  0.9304  0.9630  1.9599
   89SAPE  H11Y 8701   3.793   2.487   4.240  1.1323 -1.2765  1.4870
   89SAPE  C312 8702   3.616   2.358   4.222 -0.4459  0.4441 -0.7338
   89SAPE  H12X 8703   3.567   2.306   4.307  1.0500  2.1859  1.3155
   89SAPE  H12Y 8704   3.659   2.285   4.151  0.5018 -0.1434  0.4161
   89SAPE  C313 8705   3.514   2.456   4.164 -0.1452 -0.1849 -0.0668
   89SAPE  H13X 8706   3.467   2.523   4.239 -0.3395  0.0540 -0.3990
   89SAPE  H13Y 8707   3.429   2.398   4.122 -0.7779  0.5072  0.2194
   89SAPE  C314 8708   3.578   2.554   4.061  0.0693  0.1887  0.2160
   89SAPE  H14X 8709   3.628   2.487   3.988 -1.8900 -0.4985 -0.5949
   89SAPE  H14Y 8710   3.659   2.620   4.098 -0.1042  0.1738  0.6210
   89SAPE  C315 8711   3.476   2.646   3.989 -0.0399 -0.0430 -0.0480
   89SAPE  H15X 8712   3.421   2.713   4.058 -0.0047 -0.7121  0.6427
   89SAPE  H15Y 8713   3.398   2.579   3.949  1.8207 -1.1085 -2.1537
   89SAPE  C316 8714   3.531   2.701   3.856  0.4839  0.6945 -0.7472
   89SAPE  H16X 8715   3.452   2.763   3.810  0.7037  1.8261  0.3560
   89SAPE  H16Y 8716   3.555   2.611   3.796  0.8558 -0.7759  1.4549
   89SAPE  C317 8717   3.656   2.779   3.870 -0.2215 -0.0038 -0.2786
   89SAPE  H17X 8718   3.687   2.795   3.764 -2.4127 -0.9210 -1.1037
   89SAPE  H17Y 8719   3.735   2.710   3.909 -1.0428 -0.1073  1.2923
   89SAPE  C318 8720   3.646   2.902   3.956 -0.1508 -0.0024  0.2555
   89SAPE  H18X 8721   3.711   2.876   4.042  2.9080  0.7813 -1.6425
   89SAPE  H18Y 8722   3.548   2.929   4.000  0.4610  0.4267  1.3947
   89SAPE  H18Z 8723   3.692   2.991   3.908  0.0603 -0.2186  0.0512
   90SAPE     N 8724   4.808   2.661   5.789  0.5478 -0.1546  0.1657
   90SAPE   HN1 8725   4.716   2.657   5.741  0.1902 -0.1890  0.8407
   90SAPE   HN2 8726   4.845   2.564   5.785 -0.1610 -0.4368  0.2366
   90SAPE   HN3 8727   4.795   2.698   5.886 -0.1439  0.7551 -0.2557
   90SAPE   C12 8728   4.905   2.756   5.725 -0.4707 -0.7617  0.2304
   90SAPE  H12A 8729   4.851   2.812   5.646 -1.6004 -2.0230  0.0733
   90SAPE  H12B 8730   4.990   2.694   5.688 -0.3920 -0.9713  0.7564
   90SAPE   C11 8731   4.964   2.858   5.829  0.1004  0.2571  0.7761
   90SAPE  H11A 8732   5.071   2.882   5.809  0.1862  2.2245  3.1494
   90SAPE  H11B 8733   4.960   2.800   5.924 -3.1268  1.1805  1.3268
   90SAPE     P 8734   4.919   3.093   5.913  0.1010  0.4252 -0.2231
   90SAPE   O13 8735   4.808   3.190   5.913  0.0149 -0.4478  0.4326
   90SAPE   O14 8736   4.974   3.049   6.042  0.5010 -0.5726 -0.3194
   90SAPE   O12 8737   4.878   2.968   5.828 -0.2616 -0.1375 -0.6082
   90SAPE   O11 8738   5.037   3.161   5.830  0.1878 -0.1531 -0.6417
   90SAPE    C1 8739   5.014   3.172   5.684 -0.1667 -0.5068  0.2596
   90SAPE    HA 8740   5.048   3.079   5.635  0.0424 -1.3439  1.9045
   90SAPE    HB 8741   4.909   3.193   5.654 -0.8725 -0.8149  2.3254
   90SAPE    C2 8742   5.077   3.297   5.618  0.1165  0.1982 -0.3671
   90SAPE    HS 8743   5.082   3.373   5.700  1.4839 -0.3981  0.1423
   90SAPE   O21 8744   4.997   3.344   5.507  0.1208  0.8823 -0.4654
   90SAPE   C21 8745   5.035   3.463   5.453  0.4102 -0.5528 -0.6477
   90SAPE   O22 8746   5.120   3.536   5.496  0.0042  0.8246  0.0992
   90SAPE   C22 8747   4.953   3.487   5.328 -0.3511 -1.2160  0.2654
   90SAPE   H2R 8748   4.942   3.391   5.273 -1.0510 -1.2642  0.4837
   90SAPE   H2S 8749   4.853   3.529   5.353 -0.6229 -1.9673  0.4850
   90SAPE    C3 8750   5.219   3.258   5.574 -0.3688  0.1450  0.0488
   90SAPE    HX 8751   5.255   3.211   5.667 -1.7049 -2.6968 -0.7703
   90SAPE    HY 8752   5.288   3.344   5.560 -0.3026  0.0906  0.0442
   90SAPE   O31 8753   5.227   3.160   5.461  0.5061 -0.4976 -0.7162
   90SAPE   C31 8754   5.314   3.189   5.363  0.6981 -0.4916  0.3999
   90SAPE   O32 8755   5.382   3.285   5.354 -0.8030  0.5019 -0.2971
   90SAPE   C32 8756   5.303   3.079   5.256  0.5500 -0.5319  0.5984
   90SAPE   H2X 8757   5.262   2.983   5.294  2.5785 -1.5414  0.4011
   90SAPE   H2Y 8758   5.406   3.056   5.221  0.2457 -0.2820 -0.5035
   90SAPE   C23 8759   5.020   3.587   5.238 -0.3915  0.0509  0.0727
   90SAPE   H3R 8760   5.123   3.551   5.216 -0.4992  0.5051 -1.2419
   90SAPE   H3S 8761   5.049   3.674   5.301 -1.3770  0.1094  0.4646
   90SAPE   C24 8762   4.944   3.609   5.099 -0.6710 -0.1110 -0.0978
   90SAPE   H4R 8763   4.844   3.651   5.125  0.6014  1.7276  2.2432
   90SAPE   H4S 8764   4.927   3.505   5.067  1.7345 -0.6423  0.1366
   90SAPE   C25 8765   5.032   3.696   5.006  0.5385  0.2253 -0.3780
   90SAPE   H5R 8766   5.034   3.804   5.027 -2.0695  0.0546  1.1934
   90SAPE   C26 8767   5.078   3.647   4.887  0.3489 -0.5134 -0.0551
   90SAPE   H6R 8768   5.141   3.709   4.821 -0.7045 -0.6477 -1.2317
   90SAPE   C27 8769   5.063   3.502   4.835  0.7954 -0.1700 -0.3999
   90SAPE   H7R 8770   4.968   3.461   4.876 -0.1675  0.7005 -1.6894
   90SAPE   H7S 8771   5.146   3.445   4.882  3.0395  1.9740 -1.5229
   90SAPE   C28 8772   5.069   3.492   4.687  0.0590  0.4451  0.4206
   90SAPE   H8R 8773   5.003   3.567   4.642  0.6911  2.3695  2.5240
   90SAPE   C29 8774   5.136   3.408   4.607  0.3749  1.2460 -0.6363
   90SAPE   H9R 8775   5.123   3.408   4.498  2.0589  0.0941 -0.8751
   90SAPE  C210 8776   5.223   3.298   4.640 -0.3214 -0.3588 -0.3878
   90SAPE  H10R 8777   5.310   3.331   4.700 -1.8064 -0.7089  2.0932
   90SAPE  H10S 8778   5.254   3.261   4.540  1.0523 -1.9180  0.5598
   90SAPE  C211 8779   5.149   3.189   4.716  0.2164 -0.2790 -0.3152
   90SAPE  H11R 8780   5.058   3.219   4.771 -1.0880 -1.2482 -1.8526
   90SAPE  C212 8781   5.177   3.059   4.710 -0.3717  0.4058  0.6860
   90SAPE  H12R 8782   5.113   2.994   4.771  0.7183  0.4804  1.9546
   90SAPE  C213 8783   5.285   2.994   4.620  0.5671  0.0743  1.4313
   90SAPE  H13R 8784   5.353   3.073   4.581 -1.2257 -0.0765 -2.4987
   90SAPE  H13S 8785   5.237   2.953   4.529  4.2273 -1.8093  0.1225
   90SAPE  C214 8786   5.364   2.888   4.691 -0.4331  0.1594  0.6703
   90SAPE  H14R 8787   5.326   2.846   4.785  0.0467  1.0438  1.2793
   90SAPE  C215 8788   5.475   2.828   4.643  0.1995 -0.2916  1.0433
   90SAPE  H15R 8789   5.508   2.734   4.689  0.7974  0.2663  1.7983
   90SAPE  C216 8790   5.536   2.852   4.507  0.1789 -0.3319 -0.2587
   90SAPE  H16R 8791   5.631   2.904   4.531  0.2307 -0.1789 -0.7889
   90SAPE  H16S 8792   5.475   2.920   4.444 -0.0770 -0.2574  0.0646
   90SAPE  C217 8793   5.568   2.716   4.447  0.8215  0.2310  0.0005
   90SAPE  H17R 8794   5.584   2.728   4.337  1.0735  0.8773  0.1039
   90SAPE  H17S 8795   5.486   2.640   4.457  0.6909  0.2030 -1.1411
   90SAPE  C218 8796   5.694   2.658   4.516  0.7690 -0.3248 -0.0072
   90SAPE  H18R 8797   5.682   2.634   4.623  1.1564  0.3922  0.2003
   90SAPE  H18S 8798   5.775   2.732   4.497  0.5990 -0.0395  0.3772
   90SAPE  C219 8799   5.756   2.529   4.456 -0.2426 -0.2638 -0.7922
   90SAPE  H19R 8800   5.843   2.501   4.520  0.1000  1.8546 -0.2533
   90SAPE  H19S 8801   5.790   2.528   4.350  2.8858 -1.8071  0.0851
   90SAPE  C220 8802   5.658   2.408   4.472 -0.4692 -0.2401  0.3551
   90SAPE  H20R 8803   5.632   2.389   4.578  0.1306 -2.7434  0.1274
   90SAPE  H20S 8804   5.715   2.319   4.435 -1.1712 -0.7705  0.5160
   90SAPE  H20T 8805   5.570   2.421   4.405 -0.1564  2.5119  0.3876
   90SAPE   C33 8806   5.222   3.134   5.136 -0.1985 -0.7786  0.5426
   90SAPE   H3X 8807   5.247   3.065   5.054  2.9484 -2.8013  2.9817
   90SAPE   H3Y 8808   5.278   3.228   5.116 -0.0336 -0.6238  1.6340
   90SAPE   C34 8809   5.062   3.150   5.147 -0.0786  0.0953 -0.4818
   90SAPE   H4X 8810   5.014   3.165   5.048  0.0246  1.4573 -0.3438
   90SAPE   H4Y 8811   5.035   3.232   5.216 -1.2050 -1.1172  0.5746
   90SAPE   C35 8812   4.987   3.029   5.211  0.0658 -0.6156 -0.5259
   90SAPE   H5X 8813   4.878   3.042   5.230  0.3547 -0.1372  1.0301
   90SAPE   H5Y 8814   5.023   3.025   5.317  1.4031 -1.1216 -0.9784
   90SAPE   C36 8815   5.000   2.899   5.132  0.2767 -0.4373  0.3331
   90SAPE   H6X 8816   4.969   2.828   5.211  0.4415 -1.3579 -0.4152
   90SAPE   H6Y 8817   5.106   2.876   5.108  0.6099 -1.4519  2.5579
   90SAPE   C37 8818   4.925   2.887   5.003  0.2966  0.6143 -0.3139
   90SAPE   H7X 8819   4.936   2.985   4.951 -0.7359  1.5425  1.1330
   90SAPE   H7Y 8820   4.819   2.867   5.029  0.0141 -1.1018 -2.4445
   90SAPE   C38 8821   4.976   2.778   4.910 -0.3519 -0.0527 -0.1719
   90SAPE   H8X 8822   5.005   2.694   4.977 -0.4152  1.0509  1.2594
   90SAPE   H8Y 8823   5.068   2.820   4.864  0.6784 -0.0078  1.8315
   90SAPE   C39 8824   4.876   2.742   4.799 -0.3410  0.9194  0.4757
   90SAPE   H9X 8825   4.795   2.680   4.842 -0.2113  0.5492  0.1885
   90SAPE   H9Y 8826   4.938   2.677   4.733 -2.3912 -1.5689  0.8495
   90SAPE  C310 8827   4.816   2.856   4.719 -0.0821  0.0737  0.0340
   90SAPE  H10X 8828   4.900   2.927   4.709  0.3167 -0.3197  0.5323
   90SAPE  H10Y 8829   4.735   2.908   4.774 -1.6410 -2.1935  0.0482
   90SAPE  C311 8830   4.785   2.815   4.573 -0.7476  0.0012  0.4346
   90SAPE  H11X 8831   4.703   2.742   4.557 -2.2278  1.6400  0.2546
   90SAPE  H11Y 8832   4.865   2.761   4.518 -2.7003 -2.3372 -0.2836
   90SAPE  C312 8833   4.745   2.941   4.480 -0.0779  0.0375 -0.5185
   90SAPE  H12X 8834   4.663   2.992   4.535 -0.4512 -0.4727 -0.6001
   90SAPE  H12Y 8835   4.712   2.910   4.379 -0.4950 -2.0179  0.2178
   90SAPE  C313 8836   4.859   3.050   4.456  0.7707 -0.6264  0.5846
   90SAPE  H13X 8837   4.943   2.997   4.406 -0.0039 -2.7007  1.3574
   90SAPE  H13Y 8838   4.907   3.088   4.549  3.2242  0.7168 -1.1376
   90SAPE  C314 8839   4.821   3.176   4.372  0.2358 -0.0118 -0.0313
   90SAPE  H14X 8840   4.789   3.152   4.269  0.7124 -1.1720  0.0832
   90SAPE  H14Y 8841   4.916   3.233   4.362  0.4704 -0.3562  0.2050
   90SAPE  C315 8842   4.711   3.262   4.440  0.1814  0.3572  0.7461
   90SAPE  H15X 8843   4.732   3.269   4.549  0.5424 -1.6071  0.8320
   90SAPE  H15Y 8844   4.618   3.203   4.427  0.8260 -0.2881 -1.3237
   90SAPE  C316 8845   4.694   3.397   4.365 -0.4352  0.5743 -0.3216
   90SAPE  H16X 8846   4.792   3.450   4.366 -0.1669  0.0805  0.4627
   90SAPE  H16Y 8847   4.625   3.448   4.435 -1.6134 -1.9674  0.5023
   90SAPE  C317 8848   4.637   3.391   4.233  0.4875  0.0846  0.5214
   90SAPE  H17X 8849   4.538   3.340   4.229 -0.1072  1.1532  1.1096
   90SAPE  H17Y 8850   4.700   3.330   4.165  0.4496 -1.0204  1.4544
   90SAPE  C318 8851   4.652   3.522   4.151  0.3466  0.4294  0.0893
   90SAPE  H18X 8852   4.639   3.608   4.220 -3.4763  0.2920 -0.2160
   90SAPE  H18Y 8853   4.573   3.526   4.072 -0.6909  0.4437  1.0912
   90SAPE  H18Z 8854   4.748   3.527   4.096  1.3893  1.7339  1.9426
   91SAPE     N 8855   1.633   3.688   5.854 -0.1451  0.1759 -0.2728
   91SAPE   HN1 8856   1.530   3.688   5.862 -0.1200 -1.6364  0.6890
   91SAPE   HN2 8857   1.672   3.765   5.796  1.6065 -1.1741 -0.9774
   91SAPE   HN3 8858   1.653   3.592   5.819 -0.6236 -0.8437  2.0612
   91SAPE   C12 8859   1.700   3.708   5.990 -0.2065  0.0326 -0.2287
   91SAPE  H12A 8860   1.641   3.657   6.070 -0.6254  0.1257 -0.4718
   91SAPE  H12B 8861   1.703   3.814   6.023  0.8848  0.0455 -0.3387
   91SAPE   C11 8862   1.837   3.643   5.988 -0.5398  0.1205  0.4459
   91SAPE  H11A 8863   1.824   3.537   5.956 -0.4498  0.7502 -1.9177
   91SAPE  H11B 8864   1.881   3.653   6.089  0.0740 -0.2232  0.2173
   91SAPE     P 8865   2.074   3.700   5.878  0.1864  0.1156  0.0900
   91SAPE   O13 8866   2.130   3.794   5.977  0.2856  0.1735  0.0787
   91SAPE   O14 8867   2.101   3.551   5.891  0.4089 -0.2518  0.5158
   91SAPE   O12 8868   1.917   3.708   5.886 -0.1050 -0.5918 -0.0927
   91SAPE   O11 8869   2.089   3.753   5.739 -0.6811  0.1740 -0.1395
   91SAPE    C1 8870   2.002   3.770   5.631  0.2260  0.0705 -0.6142
   91SAPE    HA 8871   1.969   3.669   5.596  0.4973  0.2932 -1.5574
   91SAPE    HB 8872   1.922   3.845   5.651  2.2966  2.6438 -1.4053
   91SAPE    C2 8873   2.072   3.823   5.504  0.4841 -0.4940 -0.3211
   91SAPE    HS 8874   2.126   3.910   5.547 -1.3201  0.8996 -0.7378
   91SAPE   O21 8875   1.970   3.875   5.415 -0.2012  0.1717 -0.4391
   91SAPE   C21 8876   2.014   3.959   5.318  0.2666 -0.4462  0.5592
   91SAPE   O22 8877   2.128   4.002   5.309  0.3251  0.4503  0.3582
   91SAPE   C22 8878   1.907   3.970   5.207  0.2004  0.6405  0.3004
   91SAPE   H2R 8879   1.848   4.062   5.229  1.0684  1.3585 -0.2538
   91SAPE   H2S 8880   1.962   3.996   5.113  0.3571  1.1978  0.5394
   91SAPE    C3 8881   2.168   3.720   5.440  0.0595 -0.3757  0.4113
   91SAPE    HX 8882   2.239   3.702   5.524 -2.2275 -0.8518  2.3500
   91SAPE    HY 8883   2.217   3.757   5.347 -2.0352 -0.3112 -0.7322
   91SAPE   O31 8884   2.091   3.600   5.408  0.4615 -0.3965 -1.0338
   91SAPE   C31 8885   2.165   3.490   5.427  0.1128 -0.0677 -0.3108
   91SAPE   O32 8886   2.279   3.481   5.469  0.1933 -0.3568  0.4314
   91SAPE   C32 8887   2.075   3.375   5.388 -0.3876 -0.0698  0.6026
   91SAPE   H2X 8888   1.975   3.383   5.435 -0.9769 -0.1371 -0.6121
   91SAPE   H2Y 8889   2.119   3.279   5.422 -1.3988 -0.9854 -0.6067
   91SAPE   C23 8890   1.811   3.857   5.178 -0.0956 -0.1398  0.4626
   91SAPE   H3R 8891   1.730   3.916   5.130  1.5703  1.5350 -0.4070
   91SAPE   H3S 8892   1.774   3.815   5.274  0.1584 -1.2288  0.0940
   91SAPE   C24 8893   1.870   3.746   5.091  0.1192  0.1330  1.3413
   91SAPE   H4R 8894   1.801   3.659   5.099 -0.4776  0.7096  2.9770
   91SAPE   H4S 8895   1.969   3.717   5.131  0.8483 -1.6168 -1.4288
   91SAPE   C25 8896   1.880   3.787   4.947 -0.3202 -0.8145  1.2785
   91SAPE   H5R 8897   1.789   3.820   4.894  0.4410 -0.7051 -0.0156
   91SAPE   C26 8898   1.992   3.784   4.880 -0.0395 -0.2430 -0.0092
   91SAPE   H6R 8899   1.982   3.808   4.773 -3.2101  1.3429  0.5028
   91SAPE   C27 8900   2.130   3.749   4.927  0.1438 -0.3679  0.4097
   91SAPE   H7R 8901   2.192   3.748   4.836 -1.4460 -0.7553 -0.7025
   91SAPE   H7S 8902   2.133   3.640   4.948 -0.9815 -0.0654  2.4420
   91SAPE   C28 8903   2.196   3.849   5.028 -0.7698  0.4759  0.5269
   91SAPE   H8R 8904   2.170   3.956   5.020 -2.5376 -0.0751 -2.1939
   91SAPE   C29 8905   2.302   3.809   5.099  0.1897  0.5341 -0.5545
   91SAPE   H9R 8906   2.341   3.879   5.174  1.3831 -0.8513  0.1703
   91SAPE  C210 8907   2.354   3.667   5.098 -0.6266  0.2206  0.4723
   91SAPE  H10R 8908   2.393   3.643   4.996 -1.2910 -1.0164  0.4906
   91SAPE  H10S 8909   2.268   3.599   5.113  1.0788 -1.8162  1.7134
   91SAPE  C211 8910   2.462   3.647   5.205  0.3329  0.4637 -1.0224
   91SAPE  H11R 8911   2.455   3.729   5.278  0.5046  1.5690 -2.2143
   91SAPE  C212 8912   2.526   3.537   5.242 -0.0114  0.0886  0.6226
   91SAPE  H12R 8913   2.618   3.539   5.302  1.4557 -1.2987 -1.4415
   91SAPE  C213 8914   2.517   3.402   5.176  0.6244 -0.2799 -0.2345
   91SAPE  H13R 8915   2.422   3.400   5.119  0.8172  0.2317 -0.5831
   91SAPE  H13S 8916   2.506   3.331   5.261  2.7208  0.2422  0.5332
   91SAPE  C214 8917   2.630   3.353   5.090  0.4720 -0.3722 -0.5849
   91SAPE  H14R 8918   2.712   3.305   5.144  0.8484  0.2889 -0.5499
   91SAPE  C215 8919   2.651   3.366   4.961  0.4192 -0.0670  0.3863
   91SAPE  H15R 8920   2.742   3.318   4.921  0.2158 -0.6172  0.5650
   91SAPE  C216 8921   2.563   3.434   4.865 -0.7188  0.0744 -0.2355
   91SAPE  H16R 8922   2.603   3.534   4.840 -1.9934  0.0757 -2.5335
   91SAPE  H16S 8923   2.464   3.452   4.913 -0.7181  0.8197 -0.5069
   91SAPE  C217 8924   2.544   3.364   4.724 -0.8564 -0.3853  0.4638
   91SAPE  H17R 8925   2.644   3.348   4.677 -1.2445 -0.6867 -0.2738
   91SAPE  H17S 8926   2.479   3.424   4.657 -1.8421 -3.5743 -1.7192
   91SAPE  C218 8927   2.463   3.230   4.737  0.1942 -0.1717  0.4302
   91SAPE  H18R 8928   2.509   3.183   4.826 -3.2769 -0.4597  2.2091
   91SAPE  H18S 8929   2.480   3.177   4.641  0.5399  1.0991 -0.2412
   91SAPE  C219 8930   2.314   3.255   4.759  0.4930 -0.0006 -0.3555
   91SAPE  H19R 8931   2.281   3.328   4.681 -2.6672 -1.5515 -0.6268
   91SAPE  H19S 8932   2.301   3.306   4.857  2.7537  2.2447 -1.0922
   91SAPE  C220 8933   2.225   3.128   4.755  0.5144 -0.2676 -0.1022
   91SAPE  H20R 8934   2.221   3.079   4.655  3.8960 -0.9463 -0.0282
   91SAPE  H20S 8935   2.125   3.152   4.796  0.5647 -0.2402  0.0044
   91SAPE  H20T 8936   2.281   3.057   4.821  2.4897  0.0645 -1.3325
   91SAPE   C33 8937   2.063   3.376   5.232 -0.1582 -0.5411  0.4796
   91SAPE   H3X 8938   2.162   3.342   5.195  1.2594  0.3919  3.1130
   91SAPE   H3Y 8939   2.048   3.479   5.194 -0.2849 -0.8288 -0.2641
   91SAPE   C34 8940   1.940   3.304   5.171  0.0491  0.1813 -0.1749
   91SAPE   H4X 8941   1.852   3.338   5.230 -1.9960 -0.8915 -2.4396
   91SAPE   H4Y 8942   1.955   3.195   5.186  1.5218  0.3911 -0.0564
   91SAPE   C35 8943   1.913   3.331   5.018 -0.1688  0.7487  0.2151
   91SAPE   H5X 8944   1.999   3.282   4.970  0.9896  0.2943  2.6178
   91SAPE   H5Y 8945   1.889   3.439   5.002  2.7109  1.3675 -0.3347
   91SAPE   C36 8946   1.785   3.251   4.974  0.3251 -0.0901  0.2917
   91SAPE   H6X 8947   1.698   3.260   5.043 -0.7197  0.3756 -1.0444
   91SAPE   H6Y 8948   1.811   3.143   4.979 -0.9437 -0.4850 -1.0903
   91SAPE   C37 8949   1.725   3.279   4.835  0.0114 -0.4088 -0.3868
   91SAPE   H7X 8950   1.718   3.390   4.835 -0.7683 -0.4516  0.1883
   91SAPE   H7Y 8951   1.622   3.237   4.832 -0.4376  0.1932  2.8734
   91SAPE   C38 8952   1.813   3.214   4.730 -0.2018  0.5387  0.3426
   91SAPE   H8X 8953   1.760   3.128   4.683 -1.8377  0.5822  2.0185
   91SAPE   H8Y 8954   1.897   3.162   4.779 -0.7113 -1.3294 -0.6476
   91SAPE   C39 8955   1.875   3.298   4.622  0.5985 -0.2095 -0.6456
   91SAPE   H9X 8956   1.800   3.350   4.559  0.3869  0.1928 -0.0659
   91SAPE   H9Y 8957   1.948   3.238   4.564  0.5983 -0.5572 -0.2932
   91SAPE  C310 8958   1.964   3.414   4.676  0.1528  0.1375  0.0158
   91SAPE  H10X 8959   2.062   3.366   4.695  0.3442 -0.1009 -1.5077
   91SAPE  H10Y 8960   1.922   3.453   4.772  0.6177  3.6525 -1.0961
   91SAPE  C311 8961   1.972   3.526   4.574 -0.4611 -0.3602 -0.2531
   91SAPE  H11X 8962   2.034   3.614   4.602  0.3158 -1.3123  1.1413
   91SAPE  H11Y 8963   1.868   3.565   4.563 -1.3639 -2.5252  0.0788
   91SAPE  C312 8964   2.019   3.492   4.435 -0.4568  0.0070  0.9832
   91SAPE  H12X 8965   2.028   3.586   4.376 -0.8899 -2.7896 -4.1527
   91SAPE  H12Y 8966   1.941   3.433   4.382  0.1498 -1.0490  1.2406
   91SAPE  C313 8967   2.162   3.428   4.416  0.5883  0.1309 -0.8294
   91SAPE  H13X 8968   2.155   3.336   4.478  0.3121 -0.4851 -1.7413
   91SAPE  H13Y 8969   2.237   3.500   4.455 -0.2282 -0.7813  2.7349
   91SAPE  C314 8970   2.191   3.393   4.271 -0.1638  0.2290 -0.1990
   91SAPE  H14X 8971   2.157   3.479   4.208 -2.1967 -0.2460  0.1694
   91SAPE  H14Y 8972   2.132   3.304   4.240  0.6607 -0.2776 -0.3452
   91SAPE  C315 8973   2.337   3.365   4.232 -0.6797 -0.0509 -0.1842
   91SAPE  H15X 8974   2.389   3.456   4.268 -1.0510  0.0173  0.1848
   91SAPE  H15Y 8975   2.350   3.362   4.122  3.7088  2.1247  0.0526
   91SAPE  C316 8976   2.396   3.238   4.306  0.0123 -0.0551  0.0311
   91SAPE  H16X 8977   2.360   3.229   4.410 -2.5362 -4.0529 -1.0033
   91SAPE  H16Y 8978   2.506   3.251   4.301  0.1218 -0.8635  0.3813
   91SAPE  C317 8979   2.359   3.105   4.232 -0.2066  0.2070  0.2790
   91SAPE  H17X 8980   2.250   3.117   4.215  0.1539  1.3963 -1.6427
   91SAPE  H17Y 8981   2.371   3.027   4.309 -0.6305  0.9358  1.0979
   91SAPE  C318 8982   2.420   3.086   4.094  0.2708  0.0698 -0.4992
   91SAPE  H18X 8983   2.530   3.101   4.093  0.1400  1.0408 -0.9248
   91SAPE  H18Y 8984   2.373   3.151   4.017  2.9487  0.7333 -1.7046
   91SAPE  H18Z 8985   2.405   2.984   4.054 -0.1782 -0.8337  1.7822
   92SAPE     N 8986   3.017   5.532   5.959  0.3253  0.0949 -0.4426
   92SAPE   HN1 8987   3.079   5.615   5.945  2.3095 -0.3605  3.9514
   92SAPE   HN2 8988   2.950   5.548   6.037  1.1726 -2.0440  0.8005
   92SAPE   HN3 8989   3.079   5.459   5.999 -2.1158 -2.6212 -1.2146
   92SAPE   C12 8990   2.956   5.473   5.837  0.6468  0.3841  0.1927
   92SAPE  H12A 8991   2.875   5.539   5.800  2.4984  2.2311 -0.7664
   92SAPE  H12B 8992   2.898   5.385   5.874  1.1072  0.1908  0.4594
   92SAPE   C11 8993   3.063   5.426   5.733 -0.6210 -1.0617 -0.2826
   92SAPE  H11A 8994   3.123   5.519   5.716  0.7639 -2.0063 -0.7155
   92SAPE  H11B 8995   3.017   5.399   5.635  0.8914 -2.6699 -0.5836
   92SAPE     P 8996   3.116   5.192   5.826 -0.3192  0.0042  0.0474
   92SAPE   O13 8997   3.217   5.087   5.794  0.3539 -0.0037  0.0290
   92SAPE   O14 8998   3.091   5.201   5.975 -0.2009 -0.3311 -0.0366
   92SAPE   O12 8999   3.153   5.333   5.773  0.4227  0.2611  0.0154
   92SAPE   O11 9000   2.980   5.153   5.756  0.0022 -0.3109  0.4558
   92SAPE    C1 9001   2.973   5.128   5.620 -0.6949 -0.6745 -0.4582
   92SAPE    HA 9002   3.008   5.211   5.555 -0.9722 -0.7015 -0.6448
   92SAPE    HB 9003   3.019   5.030   5.595 -3.6736 -2.8303  1.7888
   92SAPE    C2 9004   2.827   5.101   5.564 -0.0028  0.3456 -0.3184
   92SAPE    HS 9005   2.799   4.999   5.598  0.2189  0.4474  0.1811
   92SAPE   O21 9006   2.826   5.104   5.421 -0.1687 -0.2943 -0.7204
   92SAPE   C21 9007   2.879   4.996   5.356  0.0947 -0.4603  0.2073
   92SAPE   O22 9008   2.925   4.894   5.407 -0.4218  0.3599 -0.3699
   92SAPE   C22 9009   2.872   5.024   5.209 -0.3545 -0.3537  0.3514
   92SAPE   H2R 9010   2.831   4.932   5.162  0.0299 -0.2039 -0.2867
   92SAPE   H2S 9011   2.800   5.101   5.172  0.1195 -0.0130  0.1224
   92SAPE    C3 9012   2.723   5.199   5.620 -0.8059 -0.4907 -0.0333
   92SAPE    HX 9013   2.730   5.177   5.729  1.1009  0.7683  0.1338
   92SAPE    HY 9014   2.623   5.175   5.578 -1.1264 -0.4650  0.7001
   92SAPE   O31 9015   2.757   5.338   5.600  0.3656 -0.0838  0.0340
   92SAPE   C31 9016   2.734   5.392   5.480  0.6464 -0.2926  0.4299
   92SAPE   O32 9017   2.657   5.340   5.399 -0.1929 -0.4934  0.4013
   92SAPE   C32 9018   2.812   5.518   5.459 -0.0301 -0.3964  0.0895
   92SAPE   H2X 9019   2.896   5.494   5.391 -1.5684 -0.3405 -1.9377
   92SAPE   H2Y 9020   2.862   5.557   5.550 -0.7965  1.8646 -0.4013
   92SAPE   C23 9021   3.017   5.053   5.159  0.0329  1.0157  0.5188
   92SAPE   H3R 9022   3.016   5.043   5.048 -0.6014  1.1893  0.5079
   92SAPE   H3S 9023   3.075   4.965   5.193 -2.4782 -1.3479 -0.9280
   92SAPE   C24 9024   3.079   5.192   5.185  0.5891 -0.6411 -0.1105
   92SAPE   H4R 9025   3.170   5.190   5.120  0.4252  1.6306 -0.4710
   92SAPE   H4S 9026   3.116   5.193   5.290 -0.3681 -1.5523  0.2486
   92SAPE   C25 9027   2.984   5.295   5.157  0.2169 -0.1916  0.4972
   92SAPE   H5R 9028   2.909   5.305   5.238  0.5300  0.2799  0.7368
   92SAPE   C26 9029   2.973   5.370   5.045  0.1926 -0.4406  0.0168
   92SAPE   H6R 9030   2.897   5.449   5.039  1.8939  1.4315  1.6232
   92SAPE   C27 9031   3.071   5.372   4.929  0.2264 -0.4126  0.0066
   92SAPE   H7R 9032   3.171   5.396   4.971  0.0263 -2.6526  1.9717
   92SAPE   H7S 9033   3.039   5.451   4.858 -3.1351 -0.9215  0.8123
   92SAPE   C28 9034   3.084   5.248   4.846  0.4573  0.6737  0.0808
   92SAPE   H8R 9035   2.988   5.199   4.821  0.6848  0.4404 -0.3621
   92SAPE   C29 9036   3.193   5.211   4.782 -0.1208 -0.1937  0.1463
   92SAPE   H9R 9037   3.182   5.117   4.725 -1.2865  0.8518 -1.4590
   92SAPE  C210 9038   3.334   5.268   4.787  0.3348 -0.4873  0.0931
   92SAPE  H10R 9039   3.300   5.372   4.771 -0.5555 -0.8674 -0.5479
   92SAPE  H10S 9040   3.387   5.233   4.696  0.5452  0.8206 -0.3057
   92SAPE  C211 9041   3.423   5.254   4.907  0.3310  0.1230 -0.5025
   92SAPE  H11R 9042   3.404   5.173   4.978  2.7396  0.6605  0.8729
   92SAPE  C212 9043   3.514   5.354   4.935 -0.2666  0.7042 -0.0048
   92SAPE  H12R 9044   3.585   5.333   5.017  1.0790  2.9772 -0.5015
   92SAPE  C213 9045   3.551   5.480   4.863  0.2669 -0.2261  0.4245
   92SAPE  H13R 9046   3.532   5.472   4.753 -0.3693 -0.0730  0.5238
   92SAPE  H13S 9047   3.659   5.492   4.888  0.0166  0.7287  1.0961
   92SAPE  C214 9048   3.468   5.596   4.908 -0.1249 -0.0278 -0.8302
   92SAPE  H14R 9049   3.360   5.577   4.920  0.4377 -2.0350  1.8564
   92SAPE  C215 9050   3.521   5.718   4.917  0.0055  0.0554 -0.4641
   92SAPE  H15R 9051   3.456   5.802   4.945  2.6682  1.3168  2.5214
   92SAPE  C216 9052   3.662   5.756   4.884  0.1660  1.0271 -0.2833
   92SAPE  H16R 9053   3.731   5.674   4.857  2.0020  1.7815  1.7947
   92SAPE  H16S 9054   3.700   5.796   4.981 -0.8775 -1.2127  1.1556
   92SAPE  C217 9055   3.675   5.865   4.781  0.6590 -0.0714 -0.5118
   92SAPE  H17R 9056   3.780   5.900   4.790  0.9480  0.5489 -4.3211
   92SAPE  H17S 9057   3.616   5.954   4.808  3.2738  1.9055 -0.8653
   92SAPE  C218 9058   3.652   5.831   4.631 -0.2530  0.5473  0.7723
   92SAPE  H18R 9059   3.546   5.806   4.609 -0.0727 -0.3585  0.8838
   92SAPE  H18S 9060   3.703   5.734   4.611 -1.4737 -0.1765  1.0415
   92SAPE  C219 9061   3.721   5.922   4.534  0.5049 -1.2327  0.1202
   92SAPE  H19R 9062   3.715   5.882   4.430  0.2570 -1.1990  0.1214
   92SAPE  H19S 9063   3.830   5.926   4.556  0.8545  2.8270 -1.4283
   92SAPE  C220 9064   3.663   6.064   4.552 -0.0239  0.8216 -0.1085
   92SAPE  H20R 9065   3.724   6.138   4.496  1.2079 -0.5250 -0.6253
   92SAPE  H20S 9066   3.668   6.089   4.660  1.7113 -0.9936  0.2988
   92SAPE  H20T 9067   3.561   6.079   4.511 -0.6753 -1.2412  0.6052
   92SAPE   C33 9068   2.727   5.635   5.398 -0.2109 -0.0794  0.4763
   92SAPE   H3X 9069   2.778   5.733   5.410 -1.6850  1.2303 -2.7961
   92SAPE   H3Y 9070   2.631   5.661   5.447 -1.5131  3.0037 -3.2522
   92SAPE   C34 9071   2.679   5.628   5.249 -0.1304  0.0551  0.2317
   92SAPE   H4X 9072   2.578   5.673   5.239  0.2521  1.1822  1.2732
   92SAPE   H4Y 9073   2.670   5.521   5.222 -1.4086  0.0350  0.6819
   92SAPE   C35 9074   2.772   5.693   5.147 -0.0780 -0.0931  0.5370
   92SAPE   H5X 9075   2.876   5.654   5.155  0.4615  1.2264  0.2380
   92SAPE   H5Y 9076   2.776   5.801   5.173 -1.2805 -0.5377  2.8867
   92SAPE   C36 9077   2.726   5.662   5.005  0.2696  0.7356 -0.7838
   92SAPE   H6X 9078   2.639   5.730   4.993  0.1496  0.8736  0.6573
   92SAPE   H6Y 9079   2.691   5.558   4.994  1.0124  0.0942  2.1437
   92SAPE   C37 9080   2.824   5.691   4.894 -0.2369 -0.0841  0.0609
   92SAPE   H7X 9081   2.924   5.643   4.903 -0.8490 -1.2776  0.8257
   92SAPE   H7Y 9082   2.846   5.800   4.892  1.2449 -0.3311  0.8120
   92SAPE   C38 9083   2.760   5.650   4.761  0.3477  0.0652  0.7833
   92SAPE   H8X 9084   2.657   5.689   4.744 -0.4681 -1.6620  1.5425
   92SAPE   H8Y 9085   2.755   5.539   4.764  1.5738 -0.0562 -0.3397
   92SAPE   C39 9086   2.846   5.691   4.640 -0.0611 -0.2352 -0.4284
   92SAPE   H9X 9087   2.875   5.797   4.659  1.6522 -0.5843 -0.9941
   92SAPE   H9Y 9088   2.789   5.687   4.545 -0.4798  0.2568 -0.2092
   92SAPE  C310 9089   2.972   5.604   4.615  0.6698  0.2984 -0.9245
   92SAPE  H10X 9090   2.934   5.500   4.621  1.7432 -0.0346  1.3647
   92SAPE  H10Y 9091   3.033   5.628   4.705 -0.6740  1.6822 -0.3317
   92SAPE  C311 9092   3.037   5.616   4.476 -0.2568 -0.2787  1.0171
   92SAPE  H11X 9093   3.079   5.718   4.471 -2.1182  0.4938  0.6411
   92SAPE  H11Y 9094   2.954   5.608   4.402  0.0314 -0.8462  0.7462
   92SAPE  C312 9095   3.142   5.515   4.452  0.3370  0.3389  0.0838
   92SAPE  H12X 9096   3.101   5.412   4.464  1.7822 -0.1842  0.7477
   92SAPE  H12Y 9097   3.211   5.520   4.539 -1.0459  0.1608  1.2348
   92SAPE  C313 9098   3.221   5.525   4.316 -0.1063 -0.7411 -0.7102
   92SAPE  H13X 9099   3.244   5.633   4.306  1.1504 -0.4747  3.2451
   92SAPE  H13Y 9100   3.156   5.496   4.231  1.7759 -0.6291 -2.2683
   92SAPE  C314 9101   3.351   5.450   4.318 -0.3240 -0.1935  0.0836
   92SAPE  H14X 9102   3.409   5.445   4.224  1.6362  2.7975  0.9920
   92SAPE  H14Y 9103   3.340   5.349   4.362  0.9859 -0.0622  0.7363
   92SAPE  C315 9104   3.448   5.509   4.420 -0.0704  0.0055 -0.0523
   92SAPE  H15X 9105   3.432   5.454   4.516 -1.1107 -0.8687 -0.7053
   92SAPE  H15Y 9106   3.423   5.615   4.439  2.0358  0.2682  1.7214
   92SAPE  C316 9107   3.605   5.515   4.387  0.2415  0.1713 -0.2965
   92SAPE  H16X 9108   3.635   5.420   4.338 -0.5757  0.8560 -2.2181
   92SAPE  H16Y 9109   3.657   5.533   4.484 -0.8721 -0.0308  0.3589
   92SAPE  C317 9110   3.646   5.642   4.311 -0.5155  0.0129 -0.1593
   92SAPE  H17X 9111   3.606   5.740   4.343  0.3933 -0.0977  1.4199
   92SAPE  H17Y 9112   3.589   5.639   4.215 -0.3947  1.0516 -0.2744
   92SAPE  C318 9113   3.796   5.663   4.284  0.3362 -0.6137  0.0626
   92SAPE  H18X 9114   3.847   5.575   4.238 -0.4678 -0.9546 -0.1855
   92SAPE  H18Y 9115   3.848   5.690   4.378 -2.7250  1.1050  1.3966
   92SAPE  H18Z 9116   3.819   5.739   4.206  0.2912 -1.3380 -0.6713
   93SAPE     N 9117   6.042   3.528   6.056 -0.0021  0.3535  0.5900
   93SAPE   HN1 9118   6.139   3.552   6.026 -0.3554  0.9790 -0.0816
   93SAPE   HN2 9119   5.976   3.588   6.003  1.5982  1.2191 -0.5037
   93SAPE   HN3 9120   6.040   3.541   6.159  1.5797  2.1948  0.4318
   93SAPE   C12 9121   6.021   3.378   6.019  0.1544  0.3209  0.4807
   93SAPE  H12A 9122   5.912   3.365   6.036  0.0058 -0.4762 -0.9141
   93SAPE  H12B 9123   6.071   3.307   6.089 -0.3053 -0.8374 -0.3281
   93SAPE   C11 9124   6.054   3.331   5.873 -0.8576  0.2903 -0.4018
   93SAPE  H11A 9125   6.163   3.352   5.866 -0.8650  0.6037  0.3388
   93SAPE  H11B 9126   5.997   3.397   5.803 -2.4529 -3.9831 -3.5800
   93SAPE     P 9127   5.895   3.140   5.790 -0.0238  0.2396 -0.1404
   93SAPE   O13 9128   5.874   2.994   5.803  0.1445 -0.4249 -0.2322
   93SAPE   O14 9129   5.786   3.221   5.849  0.0436  0.4264  0.5232
   93SAPE   O12 9130   6.032   3.189   5.856  0.5289 -0.4954 -0.2790
   93SAPE   O11 9131   5.905   3.175   5.638 -0.2803 -0.0711 -0.4208
   93SAPE    C1 9132   6.035   3.158   5.572 -0.0021 -0.2341 -0.8206
   93SAPE    HA 9133   6.113   3.109   5.634 -0.9581  0.0680  0.6881
   93SAPE    HB 9134   6.015   3.096   5.482 -0.9654 -0.2900 -0.5879
   93SAPE    C2 9135   6.083   3.295   5.528  0.1064 -0.1489  0.4696
   93SAPE    HS 9136   6.051   3.377   5.595  1.9330  1.4700 -0.4983
   93SAPE   O21 9137   6.032   3.324   5.392 -0.1989 -0.4250 -0.1221
   93SAPE   C21 9138   5.899   3.338   5.382 -0.0390 -0.5378 -0.0268
   93SAPE   O22 9139   5.829   3.378   5.471  0.1559 -0.7131  0.4749
   93SAPE   C22 9140   5.865   3.295   5.242 -0.6161  0.4462  0.3903
   93SAPE   H2R 9141   5.956   3.326   5.186 -0.7480 -0.4130 -0.3136
   93SAPE   H2S 9142   5.856   3.185   5.239  3.1792 -0.1112  2.4746
   93SAPE    C3 9143   6.241   3.313   5.534 -0.0675  0.6335  0.8399
   93SAPE    HX 9144   6.284   3.226   5.481  0.4897  1.4966 -0.1652
   93SAPE    HY 9145   6.272   3.318   5.641  1.5416  1.2637  0.3617
   93SAPE   O31 9146   6.278   3.428   5.459  0.1562  0.0116 -0.3562
   93SAPE   C31 9147   6.400   3.436   5.409 -0.2739  0.3411 -0.4196
   93SAPE   O32 9148   6.488   3.356   5.431 -0.7693 -0.1421  0.1295
   93SAPE   C32 9149   6.400   3.546   5.308  0.6351  1.0806 -0.0611
   93SAPE   H2X 9150   6.477   3.617   5.343  0.4938  1.1664  0.0791
   93SAPE   H2Y 9151   6.297   3.588   5.301 -0.8297 -2.3955 -2.4445
   93SAPE   C23 9152   5.740   3.359   5.188  0.5311 -0.4386 -0.5043
   93SAPE   H3R 9153   5.753   3.469   5.193 -2.3219 -0.0913  0.6971
   93SAPE   H3S 9154   5.659   3.330   5.257  2.0874  0.8930  2.0268
   93SAPE   C24 9155   5.712   3.315   5.048  0.7252 -0.0783 -0.1840
   93SAPE   H4R 9156   5.808   3.313   4.992  0.3230 -0.8347 -0.8657
   93SAPE   H4S 9157   5.636   3.387   5.011 -1.5697 -1.8653  0.8225
   93SAPE   C25 9158   5.640   3.184   5.050  0.0392 -0.1612 -0.0857
   93SAPE   H5R 9159   5.629   3.139   5.150  1.5799 -0.0973  0.1414
   93SAPE   C26 9160   5.588   3.125   4.941  0.0990 -0.5868  0.1107
   93SAPE   H6R 9161   5.545   3.024   4.951  1.2849 -1.1835 -0.5782
   93SAPE   C27 9162   5.583   3.192   4.802 -0.2083 -0.1101  0.1460
   93SAPE   H7R 9163   5.570   3.303   4.802  1.8536  0.1905 -0.6847
   93SAPE   H7S 9164   5.498   3.160   4.738 -0.8268 -0.9102  1.3507
   93SAPE   C28 9165   5.702   3.151   4.722  0.4251  0.1501  0.4978
   93SAPE   H8R 9166   5.743   3.050   4.734  0.5367  0.4698  3.5129
   93SAPE   C29 9167   5.767   3.216   4.620 -0.4627  0.3892 -0.3201
   93SAPE   H9R 9168   5.848   3.163   4.568 -1.1167 -0.9375 -0.0200
   93SAPE  C210 9169   5.734   3.351   4.564  0.2277  0.5627 -0.3000
   93SAPE  H10R 9170   5.827   3.399   4.526  1.7365 -1.2534  0.9332
   93SAPE  H10S 9171   5.700   3.420   4.644  0.6666  0.3947  0.0313
   93SAPE  C211 9172   5.626   3.328   4.453 -0.4323 -0.1873 -0.3825
   93SAPE  H11R 9173   5.525   3.300   4.487 -0.8304  1.5549 -0.0003
   93SAPE  C212 9174   5.644   3.362   4.320 -0.3312 -1.1392 -0.1640
   93SAPE  H12R 9175   5.553   3.355   4.258 -0.6634 -1.1950  0.3227
   93SAPE  C213 9176   5.766   3.422   4.258 -0.1511 -0.7521 -0.9187
   93SAPE  H13R 9177   5.857   3.443   4.318  0.5919  1.8307 -2.7476
   93SAPE  H13S 9178   5.735   3.526   4.236  2.1551  0.4369  0.8996
   93SAPE  C214 9179   5.807   3.353   4.130  0.1234 -0.1627 -0.5720
   93SAPE  H14R 9180   5.754   3.401   4.047 -0.4130 -1.5245 -1.0344
   93SAPE  C215 9181   5.875   3.241   4.104 -0.2004 -0.8017 -0.4421
   93SAPE  H15R 9182   5.891   3.201   4.003 -1.2967  1.6500 -1.6756
   93SAPE  C216 9183   5.933   3.164   4.221 -0.5686  0.2092  0.0326
   93SAPE  H16R 9184   5.840   3.122   4.265  0.7240 -1.9540  0.8354
   93SAPE  H16S 9185   5.990   3.232   4.288  2.5813 -2.0964 -0.1195
   93SAPE  C217 9186   6.023   3.044   4.174  0.0604 -0.5562 -0.8197
   93SAPE  H17R 9187   6.062   3.000   4.268  1.4837 -0.3101 -1.2801
   93SAPE  H17S 9188   6.108   3.086   4.116  1.9359 -2.1290  0.6554
   93SAPE  C218 9189   5.950   2.930   4.094 -0.0142  0.0598 -0.1230
   93SAPE  H18R 9190   5.991   2.917   3.992 -1.1967 -3.3285 -0.3025
   93SAPE  H18S 9191   5.839   2.939   4.094  0.0844  1.7214 -1.5249
   93SAPE  C219 9192   5.983   2.796   4.155 -0.0299  0.7110 -0.0080
   93SAPE  H19R 9193   5.960   2.789   4.264 -0.4364 -2.5588 -0.2143
   93SAPE  H19S 9194   6.091   2.777   4.142  0.4396  3.3266 -0.5267
   93SAPE  C220 9195   5.909   2.668   4.101 -0.1408  0.3503  0.0044
   93SAPE  H20R 9196   5.800   2.694   4.099  0.1078  1.3955 -1.8032
   93SAPE  H20S 9197   5.928   2.583   4.169 -1.1812 -0.7463 -1.0227
   93SAPE  H20T 9198   5.955   2.635   4.006  2.5328  0.0619  1.3077
   93SAPE   C33 9199   6.447   3.501   5.169  0.6639  0.2882 -0.3389
   93SAPE   H3X 9200   6.546   3.453   5.174  0.7537  0.5510  0.8313
   93SAPE   H3Y 9201   6.449   3.599   5.117 -0.9589  0.3403 -0.3657
   93SAPE   C34 9202   6.335   3.414   5.101  0.1632 -0.1342 -0.3003
   93SAPE   H4X 9203   6.289   3.330   5.158  1.9191  0.1574  1.6714
   93SAPE   H4Y 9204   6.386   3.368   5.014 -2.8052 -0.9950 -1.7385
   93SAPE   C35 9205   6.227   3.497   5.037 -0.0260 -0.5941  0.0434
   93SAPE   H5X 9206   6.265   3.599   5.015  0.0462 -0.1666  1.9861
   93SAPE   H5Y 9207   6.155   3.518   5.119  0.3392 -0.8973  0.4485
   93SAPE   C36 9208   6.157   3.429   4.919 -0.0028 -0.1280  0.1520
   93SAPE   H6X 9209   6.138   3.323   4.944 -0.8142 -0.4294 -1.5993
   93SAPE   H6Y 9210   6.235   3.417   4.841  0.3917 -0.6483  0.6183
   93SAPE   C37 9211   6.025   3.483   4.869 -0.4393  0.1632 -0.0594
   93SAPE   H7X 9212   5.947   3.475   4.948 -0.4480 -1.0098 -0.1760
   93SAPE   H7Y 9213   5.993   3.418   4.785  1.9999 -1.5153  0.2173
   93SAPE   C38 9214   6.034   3.623   4.814 -0.0226  0.3410  0.0448
   93SAPE   H8X 9215   6.079   3.678   4.899 -0.6961 -0.4969  0.9688
   93SAPE   H8Y 9216   5.933   3.665   4.797  0.1714  0.5937 -0.5031
   93SAPE   C39 9217   6.131   3.641   4.690  0.9814 -0.9555 -0.3760
   93SAPE   H9X 9218   6.229   3.604   4.726 -0.3978 -3.5467  0.9512
   93SAPE   H9Y 9219   6.135   3.745   4.650 -1.3464  0.4268  2.5246
   93SAPE  C310 9220   6.108   3.556   4.575 -0.2023 -0.3451  0.3702
   93SAPE  H10X 9221   6.002   3.568   4.545  0.2394  2.5863 -0.3705
   93SAPE  H10Y 9222   6.130   3.449   4.594  2.7892 -0.8446 -4.3442
   93SAPE  C311 9223   6.205   3.577   4.454 -0.0681  0.6776  0.1589
   93SAPE  H11X 9224   6.303   3.533   4.481 -0.7800 -0.9291  0.2426
   93SAPE  H11Y 9225   6.221   3.685   4.430 -0.7294  0.4150 -1.6080
   93SAPE  C312 9226   6.156   3.518   4.320  0.0922 -0.7902 -0.1025
   93SAPE  H12X 9227   6.056   3.548   4.284  0.3525 -1.6339 -1.6398
   93SAPE  H12Y 9228   6.158   3.407   4.321  0.9912 -0.7919 -0.6882
   93SAPE  C313 9229   6.251   3.566   4.210 -0.2655  0.0841  0.0341
   93SAPE  H13X 9230   6.352   3.530   4.240  0.2689  2.6178  1.5297
   93SAPE  H13Y 9231   6.249   3.677   4.206  1.9718  0.1277 -2.2550
   93SAPE  C314 9232   6.205   3.533   4.065  0.9028  0.6180 -0.1830
   93SAPE  H14X 9233   6.096   3.553   4.062  0.6647 -0.6194 -1.8596
   93SAPE  H14Y 9234   6.229   3.426   4.044  1.7142  0.4431  1.5040
   93SAPE  C315 9235   6.272   3.617   3.959  0.1703  0.3645  0.6068
   93SAPE  H15X 9236   6.243   3.724   3.964 -0.6175  0.3184 -1.7160
   93SAPE  H15Y 9237   6.249   3.572   3.860  1.2715  2.0054 -0.4489
   93SAPE  C316 9238   6.427   3.611   3.948  0.3941  0.1963 -0.5652
   93SAPE  H16X 9239   6.470   3.669   4.033 -2.1271  1.4174 -0.0085
   93SAPE  H16Y 9240   6.464   3.675   3.865  0.9500 -1.6527 -1.8118
   93SAPE  C317 9241   6.481   3.466   3.936  0.4464 -0.6547  0.3973
   93SAPE  H17X 9242   6.432   3.420   3.847 -0.6702  1.6183 -0.2405
   93SAPE  H17Y 9243   6.453   3.410   4.028  0.2766  1.4562  1.6956
   93SAPE  C318 9244   6.634   3.479   3.915  1.2016  0.5089  0.2041
   93SAPE  H18X 9245   6.683   3.533   3.999  1.8908 -1.0997  0.8830
   93SAPE  H18Y 9246   6.664   3.533   3.822 -1.2422  1.9654  0.1520
   93SAPE  H18Z 9247   6.679   3.378   3.914 -0.5036 -0.2999 -0.8736
   94SAPE     N 9248   4.170   5.631   5.861 -0.3415 -0.3076  0.0253
   94SAPE   HN1 9249   4.160   5.675   5.767 -1.4834  1.2417  0.8318
   94SAPE   HN2 9250   4.243   5.557   5.866  1.0461  0.8530 -1.7150
   94SAPE   HN3 9251   4.084   5.580   5.891 -1.2687  1.6617  0.8617
   94SAPE   C12 9252   4.192   5.731   5.959 -0.0727 -0.0814 -0.5670
   94SAPE  H12A 9253   4.295   5.770   5.941  1.1081 -1.8908  1.7450
   94SAPE  H12B 9254   4.184   5.688   6.061  3.0121 -0.0862 -0.2435
   94SAPE   C11 9255   4.087   5.836   5.931 -0.4320  0.9810  0.4302
   94SAPE  H11A 9256   4.098   5.869   5.825 -1.5783  0.7520  0.2301
   94SAPE  H11B 9257   4.114   5.917   6.002  0.6550  1.6437 -0.6947
   94SAPE     P 9258   3.820   5.863   5.931 -0.6328  0.1144  0.1464
   94SAPE   O13 9259   3.714   5.773   5.981 -0.4067  0.0016  0.0918
   94SAPE   O14 9260   3.824   5.998   5.985 -0.6619  0.8941  0.4126
   94SAPE   O12 9261   3.956   5.794   5.954  0.3293  0.4938 -0.0310
   94SAPE   O11 9262   3.830   5.862   5.770  0.0540 -0.2473 -0.3516
   94SAPE    C1 9263   3.871   5.991   5.711 -0.5666  0.9524 -0.8083
   94SAPE    HA 9264   3.797   6.071   5.728 -2.5759 -1.1762  1.1027
   94SAPE    HB 9265   3.969   6.028   5.750  0.7412 -0.9825 -2.0616
   94SAPE    C2 9266   3.892   5.979   5.559  0.2242  0.2387  0.2879
   94SAPE    HS 9267   3.808   6.031   5.508  0.6686 -1.6343 -2.6021
   94SAPE   O21 9268   3.899   5.846   5.507 -0.0257  0.7473 -0.3127
   94SAPE   C21 9269   3.787   5.800   5.442 -0.8747  0.1047 -0.3216
   94SAPE   O22 9270   3.681   5.857   5.437  0.5911  0.1937  0.1333
   94SAPE   C22 9271   3.812   5.662   5.384 -0.0670 -0.5288  1.1274
   94SAPE   H2R 9272   3.893   5.607   5.438  0.7138  1.9117  2.5843
   94SAPE   H2S 9273   3.715   5.608   5.392 -0.5157 -0.6216 -2.9021
   94SAPE    C3 9274   4.020   6.052   5.509 -0.2996 -0.0939 -0.7817
   94SAPE    HX 9275   4.104   6.032   5.579 -0.9348 -2.7975 -0.7165
   94SAPE    HY 9276   3.998   6.161   5.517  1.3203  0.1968  0.1777
   94SAPE   O31 9277   4.057   6.026   5.372  0.0358  0.6393  0.5663
   94SAPE   C31 9278   4.158   5.937   5.348  0.5386  0.6553 -0.5030
   94SAPE   O32 9279   4.218   5.878   5.435 -0.1945 -0.3624  0.6704
   94SAPE   C32 9280   4.159   5.903   5.196  0.0544 -0.5867 -0.2168
   94SAPE   H2X 9281   4.175   5.999   5.143 -0.3494 -0.8041 -0.7365
   94SAPE   H2Y 9282   4.063   5.861   5.160  0.0686 -1.5369  0.7995
   94SAPE   C23 9283   3.835   5.662   5.230  0.1967  0.5074  0.1732
   94SAPE   H3R 9284   3.939   5.690   5.202  0.3224  2.2899  2.1332
   94SAPE   H3S 9285   3.769   5.738   5.183  1.8849  1.3281 -1.0081
   94SAPE   C24 9286   3.786   5.528   5.162  0.4401 -0.1789 -1.0866
   94SAPE   H4R 9287   3.799   5.536   5.052 -0.5918 -0.0036 -1.2024
   94SAPE   H4S 9288   3.677   5.519   5.183  0.3266 -1.5082 -2.1548
   94SAPE   C25 9289   3.858   5.406   5.210  0.0373 -0.6196 -0.1046
   94SAPE   H5R 9290   3.845   5.390   5.318  2.0217  0.4661  0.3490
   94SAPE   C26 9291   3.949   5.337   5.148  0.2751  0.1880  0.7183
   94SAPE   H6R 9292   3.985   5.253   5.209  1.6481  0.6995  0.6298
   94SAPE   C27 9293   4.005   5.357   5.008 -0.0808  0.1641  0.4358
   94SAPE   H7R 9294   4.099   5.299   5.002 -0.6448 -0.6324 -1.3352
   94SAPE   H7S 9295   4.042   5.460   4.993 -1.1457  0.3619 -1.0475
   94SAPE   C28 9296   3.912   5.326   4.890 -0.3255 -0.2592 -0.0695
   94SAPE   H8R 9297   3.817   5.281   4.924 -1.0375  1.9784  1.0535
   94SAPE   C29 9298   3.926   5.371   4.761 -0.2603  0.2546 -0.0030
   94SAPE   H9R 9299   3.855   5.343   4.682  0.0600  1.0294 -0.5848
   94SAPE  C210 9300   4.034   5.458   4.716  0.5792  0.2289 -0.3713
   94SAPE  H10R 9301   4.079   5.427   4.619 -1.1012  1.0732 -1.4715
   94SAPE  H10S 9302   4.125   5.446   4.778 -0.7587 -2.6348  1.2838
   94SAPE  C211 9303   3.998   5.606   4.714  0.3261  0.3524  0.4600
   94SAPE  H11R 9304   3.920   5.648   4.779  0.3071  1.7159 -0.3946
   94SAPE  C212 9305   4.060   5.702   4.640 -0.2132 -0.2258  0.1460
   94SAPE  H12R 9306   4.023   5.805   4.629 -0.0190 -0.0621  0.9722
   94SAPE  C213 9307   4.175   5.668   4.548  0.3883 -0.1572 -0.3176
   94SAPE  H13R 9308   4.140   5.604   4.464 -1.0341  0.0800  0.0658
   94SAPE  H13S 9309   4.238   5.602   4.611 -0.1187 -0.4526 -0.1118
   94SAPE  C214 9310   4.238   5.798   4.501  0.3197 -0.5642 -0.1351
   94SAPE  H14R 9311   4.304   5.845   4.575 -2.2037 -0.7280  2.3568
   94SAPE  C215 9312   4.252   5.853   4.374  0.0706 -0.7380  0.3252
   94SAPE  H15R 9313   4.320   5.938   4.357  0.2927 -1.1714 -1.0875
   94SAPE  C216 9314   4.199   5.795   4.244 -0.4799 -0.1523 -0.1096
   94SAPE  H16R 9315   4.166   5.689   4.249 -0.1585 -0.2728 -0.4959
   94SAPE  H16S 9316   4.286   5.791   4.175  0.8965  0.8046  1.4909
   94SAPE  C217 9317   4.102   5.870   4.148 -0.4289  0.1342  0.5835
   94SAPE  H17R 9318   3.999   5.883   4.187 -0.9391 -0.4721 -0.5347
   94SAPE  H17S 9319   4.093   5.807   4.057 -3.5665  1.6850 -0.3150
   94SAPE  C218 9320   4.151   6.013   4.106  0.9229 -0.2347 -0.2987
   94SAPE  H18R 9321   4.253   6.011   4.062 -0.0806 -1.2598 -2.7836
   94SAPE  H18S 9322   4.145   6.066   4.204  1.5756  0.6958 -0.7434
   94SAPE  C219 9323   4.074   6.079   3.987 -0.3298 -0.1282 -0.4870
   94SAPE  H19R 9324   3.966   6.079   4.012 -0.6477  1.5347 -1.6780
   94SAPE  H19S 9325   4.079   6.012   3.899 -2.1642 -0.8367 -0.0933
   94SAPE  C220 9326   4.125   6.219   3.956 -0.3771  0.2453  0.1882
   94SAPE  H20R 9327   4.097   6.257   3.855 -1.9561 -1.0034  0.1121
   94SAPE  H20S 9328   4.236   6.225   3.966 -0.3887  0.2257  0.3258
   94SAPE  H20T 9329   4.081   6.284   4.034 -1.4714  0.2567 -0.4240
   94SAPE   C33 9330   4.265   5.791   5.162 -0.1430 -0.3588  0.2027
   94SAPE   H3X 9331   4.231   5.688   5.182  0.2975 -0.5624 -0.0750
   94SAPE   H3Y 9332   4.355   5.806   5.225 -1.0150 -0.5637  1.5262
   94SAPE   C34 9333   4.302   5.786   5.017  1.5634  0.2397  0.0602
   94SAPE   H4X 9334   4.206   5.775   4.962  0.6422 -1.6745  1.8933
   94SAPE   H4Y 9335   4.361   5.692   5.009  0.0635 -0.8997  1.6350
   94SAPE   C35 9336   4.373   5.920   4.981 -0.4279  0.8058 -0.0246
   94SAPE   H5X 9337   4.430   5.984   5.052  1.5775  0.1411 -0.9569
   94SAPE   H5Y 9338   4.304   5.980   4.918 -0.2023 -0.5340 -1.5952
   94SAPE   C36 9339   4.481   5.872   4.880 -0.4661  0.2539 -0.5828
   94SAPE   H6X 9340   4.448   5.806   4.798  3.4160 -2.0290 -0.5500
   94SAPE   H6Y 9341   4.549   5.804   4.936 -0.9026 -0.7736 -1.2673
   94SAPE   C37 9342   4.562   5.990   4.825  0.6055  0.1363 -0.8285
   94SAPE   H7X 9343   4.587   6.061   4.907  1.8030  2.0085 -2.7133
   94SAPE   H7Y 9344   4.506   6.054   4.753 -2.0313  0.6005  1.4912
   94SAPE   C38 9345   4.696   5.957   4.769  0.2226 -0.3661 -0.4492
   94SAPE   H8X 9346   4.761   5.909   4.845  0.3635 -2.1854 -1.6422
   94SAPE   H8Y 9347   4.748   6.053   4.750  2.0161 -1.3614 -0.8723
   94SAPE   C39 9348   4.705   5.879   4.637 -0.3996  0.2198 -0.2331
   94SAPE   H9X 9349   4.642   5.787   4.636  0.6818 -0.5626  0.9663
   94SAPE   H9Y 9350   4.811   5.858   4.612 -0.0066  1.9872 -0.1746
   94SAPE  C310 9351   4.649   5.960   4.517  0.1345 -0.1871  0.3036
   94SAPE  H10X 9352   4.705   6.056   4.509  1.1388 -0.8404 -0.8595
   94SAPE  H10Y 9353   4.542   5.985   4.528 -0.3120 -2.0132  0.3573
   94SAPE  C311 9354   4.644   5.890   4.378  0.1909  0.6237 -0.2403
   94SAPE  H11X 9355   4.590   5.793   4.388  0.2160  0.7888  2.2057
   94SAPE  H11Y 9356   4.744   5.861   4.341 -0.9669 -5.4736  0.4461
   94SAPE  C312 9357   4.591   5.980   4.269  0.1177  0.2130 -0.9730
   94SAPE  H12X 9358   4.648   6.075   4.269 -2.4935  2.0606  3.0700
   94SAPE  H12Y 9359   4.489   6.010   4.301  0.5523 -0.0871  0.8074
   94SAPE  C313 9360   4.595   5.920   4.130 -0.2293  0.0508  0.0136
   94SAPE  H13X 9361   4.494   5.873   4.128 -1.3107  2.1455  1.7663
   94SAPE  H13Y 9362   4.675   5.845   4.110 -1.3769 -1.1252 -0.2764
   94SAPE  C314 9363   4.599   6.023   4.020 -0.5652  0.3066  0.3395
   94SAPE  H14X 9364   4.686   6.092   4.022  0.3674 -0.8366  0.1860
   94SAPE  H14Y 9365   4.504   6.081   4.024 -0.7903 -0.0811  0.6980
   94SAPE  C315 9366   4.596   5.950   3.882 -0.6981  0.1654  0.4097
   94SAPE  H15X 9367   4.491   5.915   3.882 -0.9442  0.3051  5.0072
   94SAPE  H15Y 9368   4.661   5.861   3.870 -0.3360  0.4388  0.3147
   94SAPE  C316 9369   4.612   6.047   3.767  0.0014 -0.0201  0.1321
   94SAPE  H16X 9370   4.711   6.098   3.767 -0.5868  1.1538 -0.4646
   94SAPE  H16Y 9371   4.536   6.126   3.782 -1.3185 -0.8375 -1.8271
   94SAPE  C317 9372   4.596   5.976   3.629 -0.4408  0.8904  0.2618
   94SAPE  H17X 9373   4.617   6.046   3.545  0.7586 -0.1043 -0.3082
   94SAPE  H17Y 9374   4.493   5.937   3.613 -0.5906  1.0259  0.8688
   94SAPE  C318 9375   4.674   5.848   3.605 -0.4774  0.1274 -0.0131
   94SAPE  H18X 9376   4.781   5.843   3.637 -0.6154 -0.8363  0.3139
   94SAPE  H18Y 9377   4.669   5.830   3.495 -0.6514 -1.0072  0.1691
   94SAPE  H18Z 9378   4.623   5.761   3.650  0.2067 -1.5466 -2.2791
   95SAPE     N 9379   0.660   3.639   5.698  0.2723 -0.2573 -0.2777
   95SAPE   HN1 9380   0.613   3.576   5.766  0.3247 -1.9693 -1.7712
   95SAPE   HN2 9381   0.667   3.734   5.741 -1.0522 -0.1942 -0.1524
   95SAPE   HN3 9382   0.601   3.649   5.613 -2.8048 -0.6770  1.6152
   95SAPE   C12 9383   0.799   3.594   5.667 -0.4448 -0.6933 -0.1373
   95SAPE  H12A 9384   0.871   3.677   5.686  2.6761 -3.1297 -0.5903
   95SAPE  H12B 9385   0.814   3.576   5.559  2.4859 -3.1085  0.5456
   95SAPE   C11 9386   0.848   3.473   5.755  1.2355  0.7047 -0.0725
   95SAPE  H11A 9387   0.926   3.412   5.703  0.8425  0.2119 -0.0890
   95SAPE  H11B 9388   0.768   3.397   5.764 -0.3675  2.2178 -1.0778
   95SAPE     P 9389   1.027   3.569   5.933  0.3542 -0.1986  0.1842
   95SAPE   O13 9390   1.003   3.716   5.950 -0.5399  0.0153 -0.2767
   95SAPE   O14 9391   1.073   3.493   6.052 -0.2331 -0.3598  0.0776
   95SAPE   O12 9392   0.892   3.510   5.885  0.1452 -0.1853  0.2386
   95SAPE   O11 9393   1.130   3.539   5.813 -1.1085 -0.4186 -0.0074
   95SAPE    C1 9394   1.191   3.408   5.795 -0.0544  0.2395 -0.0132
   95SAPE    HA 9395   1.244   3.375   5.887 -4.0513 -2.0167  1.7303
   95SAPE    HB 9396   1.113   3.331   5.778 -0.7016  1.1675 -1.4309
   95SAPE    C2 9397   1.285   3.410   5.677  0.0661  0.2707  0.5108
   95SAPE    HS 9398   1.350   3.499   5.691 -0.1774  0.5905 -0.3423
   95SAPE   O21 9399   1.208   3.407   5.551  0.0637  0.5945 -0.1755
   95SAPE   C21 9400   1.172   3.522   5.495 -0.2511  0.0763 -0.3850
   95SAPE   O22 9401   1.212   3.630   5.530 -0.4291  0.5390  0.0202
   95SAPE   C22 9402   1.065   3.507   5.378 -0.6113 -0.0341 -0.7010
   95SAPE   H2R 9403   1.110   3.418   5.328  0.5521 -0.7102  1.4187
   95SAPE   H2S 9404   0.969   3.479   5.425 -0.7188  0.1244 -0.8269
   95SAPE    C3 9405   1.384   3.285   5.682  0.3090 -0.6191 -0.2771
   95SAPE    HX 9406   1.336   3.187   5.663  1.1280 -1.5585  2.2071
   95SAPE    HY 9407   1.414   3.286   5.789  1.4820 -1.6098 -0.5710
   95SAPE   O31 9408   1.496   3.303   5.592 -0.1115 -0.0061 -0.2460
   95SAPE   C31 9409   1.589   3.393   5.628 -0.0650 -0.4991  0.1961
   95SAPE   O32 9410   1.578   3.457   5.730 -0.0836 -0.1147  0.4185
   95SAPE   C32 9411   1.702   3.412   5.526 -0.2816  0.1154  0.0785
   95SAPE   H2X 9412   1.738   3.312   5.493  0.2068 -1.0378  3.6535
   95SAPE   H2Y 9413   1.786   3.467   5.573  0.1622 -1.0254  0.6510
   95SAPE   C23 9414   1.045   3.630   5.293  0.0559 -0.4190  0.4282
   95SAPE   H3R 9415   1.140   3.679   5.261  1.0232 -0.8111  2.4576
   95SAPE   H3S 9416   0.999   3.700   5.367  0.7083  0.8144 -0.2939
   95SAPE   C24 9417   0.953   3.599   5.161 -0.7012 -0.1280 -0.9863
   95SAPE   H4R 9418   0.865   3.541   5.197 -0.3179  1.6974  3.6814
   95SAPE   H4S 9419   1.018   3.529   5.104 -1.5650 -1.6591 -0.1586
   95SAPE   C25 9420   0.905   3.726   5.100 -0.0450  0.3691  0.6604
   95SAPE   H5R 9421   0.868   3.807   5.165 -0.3225  1.5149 -0.8624
   95SAPE   C26 9422   0.909   3.754   4.968 -0.5799  0.0839 -0.5248
   95SAPE   H6R 9423   0.863   3.846   4.930 -0.8147  0.7619  1.3179
   95SAPE   C27 9424   0.956   3.663   4.854 -0.4288  0.7304 -0.4416
   95SAPE   H7R 9425   0.868   3.638   4.790  0.4585 -1.7302 -0.8211
   95SAPE   H7S 9426   0.978   3.565   4.901 -0.9058  1.6470  1.8271
   95SAPE   C28 9427   1.076   3.712   4.783  0.6501  0.5476  0.3951
   95SAPE   H8R 9428   1.170   3.715   4.838  0.2555 -2.3827  1.4027
   95SAPE   C29 9429   1.062   3.764   4.655 -0.6815  0.5021  0.3130
   95SAPE   H9R 9430   1.153   3.774   4.594 -0.5691 -2.5865 -0.1567
   95SAPE  C210 9431   0.934   3.772   4.570  0.3039  0.6182 -0.1848
   95SAPE  H10R 9432   0.852   3.808   4.637  1.2736 -1.3805  2.2533
   95SAPE  H10S 9433   0.902   3.670   4.539  2.1549  0.1592 -0.6598
   95SAPE  C211 9434   0.946   3.859   4.447  0.8955 -1.2122 -0.2351
   95SAPE  H11R 9435   0.916   3.963   4.465 -0.8408 -1.3220 -2.1814
   95SAPE  C212 9436   0.987   3.829   4.324  0.5798 -0.9503 -0.3121
   95SAPE  H12R 9437   0.981   3.896   4.237 -1.8094 -1.3175 -0.4856
   95SAPE  C213 9438   1.027   3.685   4.292  0.8257 -0.2485 -0.1903
   95SAPE  H13R 9439   1.065   3.625   4.377  1.6514  0.1897 -0.2380
   95SAPE  H13S 9440   1.104   3.696   4.213  0.1561  0.0448 -0.8212
   95SAPE  C214 9441   0.906   3.614   4.233 -0.0150 -0.5239  0.4628
   95SAPE  H14R 9442   0.809   3.665   4.233  0.8181  1.1406  0.2193
   95SAPE  C215 9443   0.910   3.487   4.200 -0.0019 -0.2596  0.0599
   95SAPE  H15R 9444   0.816   3.447   4.158 -0.3839  0.6502  0.0344
   95SAPE  C216 9445   1.025   3.383   4.211  0.3811 -0.2823  0.3100
   95SAPE  H16R 9446   0.987   3.311   4.287  0.4862  2.5786  3.2891
   95SAPE  H16S 9447   1.121   3.429   4.244 -0.8586  3.9844 -1.3045
   95SAPE  C217 9448   1.054   3.303   4.082  0.4769 -0.1591  0.2841
   95SAPE  H17R 9449   0.948   3.279   4.056  0.2679 -1.8930  2.4466
   95SAPE  H17S 9450   1.106   3.207   4.101 -1.4484 -0.9874  1.8891
   95SAPE  C218 9451   1.115   3.390   3.967 -0.0178  0.2705  0.3960
   95SAPE  H18R 9452   1.070   3.491   3.972  2.5748  1.4862  0.9976
   95SAPE  H18S 9453   1.108   3.339   3.869  1.7304 -0.0060  0.3928
   95SAPE  C219 9454   1.265   3.418   3.971 -0.1666 -0.3948 -0.0732
   95SAPE  H19R 9455   1.319   3.329   4.010 -0.0517 -1.4409 -2.4407
   95SAPE  H19S 9456   1.273   3.508   4.036  1.0032  1.3763 -2.4827
   95SAPE  C220 9457   1.327   3.472   3.834 -0.2626  0.0404 -0.2860
   95SAPE  H20R 9458   1.320   3.406   3.745  0.3892  3.3147 -2.9381
   95SAPE  H20S 9459   1.437   3.489   3.841 -0.5519  1.9693  0.1302
   95SAPE  H20T 9460   1.281   3.571   3.815 -0.2610 -0.2086 -1.6539
   95SAPE   C33 9461   1.646   3.490   5.396 -0.7390  0.2645 -0.3552
   95SAPE   H3X 9462   1.734   3.506   5.330  0.2776 -0.1397  0.8626
   95SAPE   H3Y 9463   1.621   3.593   5.427 -1.6032  0.2278 -0.8799
   95SAPE   C34 9464   1.536   3.418   5.322  0.6923  0.4320 -0.2414
   95SAPE   H4X 9465   1.437   3.439   5.367  1.2586  1.2313  0.6721
   95SAPE   H4Y 9466   1.543   3.308   5.322 -0.6937  0.3353  0.3334
   95SAPE   C35 9467   1.508   3.455   5.176  0.2353  1.1729  0.0405
   95SAPE   H5X 9468   1.600   3.451   5.114 -0.5248  2.2423 -1.2132
   95SAPE   H5Y 9469   1.461   3.555   5.165 -0.8120  1.0339  2.5639
   95SAPE   C36 9470   1.407   3.355   5.119  0.3624  0.5956 -0.7329
   95SAPE   H6X 9471   1.317   3.362   5.184  1.0338  1.5432  0.1122
   95SAPE   H6Y 9472   1.450   3.252   5.123 -5.2167 -2.0592  0.9543
   95SAPE   C37 9473   1.363   3.386   4.977 -0.0956  0.2013  0.2317
   95SAPE   H7X 9474   1.440   3.366   4.901 -0.3169  1.0190 -0.2204
   95SAPE   H7Y 9475   1.325   3.489   4.960  0.5201  0.5367  0.8511
   95SAPE   C38 9476   1.235   3.297   4.955  0.2020 -0.1105  0.0593
   95SAPE   H8X 9477   1.168   3.336   5.035 -0.0257  0.8450 -0.5849
   95SAPE   H8Y 9478   1.246   3.189   4.982 -0.8533 -0.1289  0.4528
   95SAPE   C39 9479   1.161   3.318   4.827 -0.0027  0.1761  0.1567
   95SAPE   H9X 9480   1.150   3.428   4.821  0.0211  0.1325 -0.8094
   95SAPE   H9Y 9481   1.055   3.286   4.829 -0.7507  2.4589 -0.3810
   95SAPE  C310 9482   1.237   3.267   4.701 -0.2707 -0.0921 -0.0176
   95SAPE  H10X 9483   1.234   3.156   4.694 -3.2890 -0.0323 -0.9071
   95SAPE  H10Y 9484   1.339   3.311   4.709 -0.5571  0.7363 -0.7253
   95SAPE  C311 9485   1.171   3.303   4.572 -0.4054  0.1399 -0.3505
   95SAPE  H11X 9486   1.148   3.411   4.587  2.1315  0.7005 -0.1526
   95SAPE  H11Y 9487   1.078   3.246   4.550  0.6352 -1.3626 -1.0524
   95SAPE  C312 9488   1.269   3.285   4.453 -0.2962  0.0818 -0.5804
   95SAPE  H12X 9489   1.216   3.284   4.355  2.3211 -1.8045 -2.1296
   95SAPE  H12Y 9490   1.320   3.186   4.452  1.0728  0.7560  0.0122
   95SAPE  C313 9491   1.381   3.390   4.436  0.0416  0.1760  0.3213
   95SAPE  H13X 9492   1.430   3.397   4.535  1.5405 -0.3632 -0.3624
   95SAPE  H13Y 9493   1.344   3.494   4.423 -0.7980  0.1856  2.3964
   95SAPE  C314 9494   1.486   3.361   4.334  0.3367  0.0728 -1.0757
   95SAPE  H14X 9495   1.443   3.329   4.236  1.8041 -2.3255 -0.9988
   95SAPE  H14Y 9496   1.555   3.281   4.367  0.0810 -0.5929 -2.1061
   95SAPE  C315 9497   1.558   3.494   4.305 -0.1824  0.2243  0.1215
   95SAPE  H15X 9498   1.599   3.535   4.400 -0.2407  0.7726 -0.0872
   95SAPE  H15Y 9499   1.481   3.564   4.266  0.4175  1.3709  0.9191
   95SAPE  C316 9500   1.666   3.483   4.202 -0.1806  0.3412 -0.4547
   95SAPE  H16X 9501   1.633   3.414   4.123  0.7403 -2.6026  1.5701
   95SAPE  H16Y 9502   1.750   3.433   4.255  1.1904  0.2891 -2.5654
   95SAPE  C317 9503   1.723   3.619   4.156  0.1242 -0.2073 -0.0485
   95SAPE  H17X 9504   1.742   3.674   4.251  1.7745 -2.0978  0.7957
   95SAPE  H17Y 9505   1.649   3.681   4.100  2.2615  2.1980 -0.4276
   95SAPE  C318 9506   1.848   3.596   4.072  0.2592 -0.4361 -0.0400
   95SAPE  H18X 9507   1.876   3.683   4.009 -1.8909  0.8245  0.6374
   95SAPE  H18Y 9508   1.838   3.508   4.004  0.6909 -0.0883 -0.5611
   95SAPE  H18Z 9509   1.934   3.572   4.138 -0.3843  0.9618  1.3746
   96SAPE     N 9510   3.638   5.536   5.850  0.2840  0.4405 -0.4485
   96SAPE   HN1 9511   3.723   5.479   5.829 -1.7125 -2.3997 -1.5318
   96SAPE   HN2 9512   3.662   5.611   5.918  0.1094  0.9211 -0.9125
   96SAPE   HN3 9513   3.565   5.476   5.894 -0.1988  1.0422 -0.4142
   96SAPE   C12 9514   3.586   5.613   5.722  0.1945 -0.0926  0.3177
   96SAPE  H12A 9515   3.593   5.545   5.635 -1.4553  0.4440 -0.2531
   96SAPE  H12B 9516   3.661   5.695   5.712 -1.7360  1.6239 -0.8915
   96SAPE   C11 9517   3.446   5.677   5.744 -0.3068 -0.2035  0.7144
   96SAPE  H11A 9518   3.367   5.607   5.709  1.8171 -2.2306 -0.3331
   96SAPE  H11B 9519   3.438   5.758   5.669 -1.8925 -1.7636 -0.9056
   96SAPE     P 9520   3.292   5.810   5.902 -0.8219  0.2051 -0.4805
   96SAPE   O13 9521   3.173   5.732   5.861 -0.4708  0.0996  0.3547
   96SAPE   O14 9522   3.288   5.849   6.043 -0.5255 -0.1195  0.1918
   96SAPE   O12 9523   3.428   5.722   5.878 -0.1395 -0.5109  0.7133
   96SAPE   O11 9524   3.314   5.943   5.813 -0.1922 -0.0074 -0.1534
   96SAPE    C1 9525   3.413   6.035   5.842  0.2499 -0.2694 -0.6528
   96SAPE    HA 9526   3.390   6.094   5.933  1.5457 -1.9970  0.8747
   96SAPE    HB 9527   3.508   5.982   5.866 -1.1700 -3.1265 -0.8533
   96SAPE    C2 9528   3.444   6.127   5.722 -0.5206 -0.3505  0.2761
   96SAPE    HS 9529   3.536   6.180   5.755 -0.8260 -0.2949  1.0730
   96SAPE   O21 9530   3.329   6.222   5.701  0.1469  0.3307 -0.2323
   96SAPE   C21 9531   3.355   6.343   5.672  0.4866  0.2133  0.6236
   96SAPE   O22 9532   3.470   6.393   5.655  0.4026 -0.2678  0.1035
   96SAPE   C22 9533   3.230   6.425   5.649 -0.0497 -0.4100  0.1738
   96SAPE   H2R 9534   3.174   6.424   5.745  1.8108  0.0527  1.3103
   96SAPE   H2S 9535   3.269   6.527   5.629 -0.4835 -0.2935 -0.1025
   96SAPE    C3 9536   3.475   6.048   5.597  0.3086  0.3552 -0.6085
   96SAPE    HX 9537   3.392   5.973   5.598 -0.4594  1.2033  0.3323
   96SAPE    HY 9538   3.572   5.996   5.611  0.4119  0.5447 -0.6192
   96SAPE   O31 9539   3.464   6.125   5.483  0.1563 -0.0705  0.5060
   96SAPE   C31 9540   3.572   6.199   5.459  0.5916  0.1223 -0.6062
   96SAPE   O32 9541   3.668   6.205   5.530  0.5367  0.3091 -0.2574
   96SAPE   C32 9542   3.560   6.254   5.318 -0.1292  0.1555 -0.0947
   96SAPE   H2X 9543   3.636   6.334   5.311 -1.4357  1.7640  2.4385
   96SAPE   H2Y 9544   3.460   6.302   5.310  0.6872  1.6003 -2.4391
   96SAPE   C23 9545   3.140   6.395   5.524 -0.4381  0.0451 -0.0587
   96SAPE   H3R 9546   3.114   6.288   5.513  1.7383 -0.4788 -0.4316
   96SAPE   H3S 9547   3.186   6.402   5.424 -2.0467 -0.0412 -0.8322
   96SAPE   C24 9548   3.009   6.473   5.511  0.5565 -0.4988  0.2874
   96SAPE   H4R 9549   3.022   6.581   5.489 -2.4053 -0.4303 -1.7986
   96SAPE   H4S 9550   2.961   6.486   5.610 -0.1952 -2.3866  0.2123
   96SAPE   C25 9551   2.906   6.411   5.427  0.4856 -0.7140 -0.2412
   96SAPE   H5R 9552   2.834   6.344   5.477  0.6885  1.0943  2.7213
   96SAPE   C26 9553   2.888   6.433   5.294 -0.2186  0.3156 -0.8283
   96SAPE   H6R 9554   2.791   6.392   5.263 -0.6608 -0.7353  1.7600
   96SAPE   C27 9555   2.970   6.528   5.205  0.0203 -0.2514 -0.2495
   96SAPE   H7R 9556   3.071   6.483   5.188  0.0237 -0.5066  0.4184
   96SAPE   H7S 9557   2.985   6.625   5.256 -0.7198  0.8854 -2.0841
   96SAPE   C28 9558   2.895   6.568   5.081 -0.7175  0.6053  0.0118
   96SAPE   H8R 9559   2.786   6.570   5.091 -0.6480  2.6766  1.0812
   96SAPE   C29 9560   2.953   6.599   4.963  0.0893  0.7136  0.5903
   96SAPE   H9R 9561   2.886   6.637   4.885 -1.7356 -1.7332  0.8455
   96SAPE  C210 9562   3.096   6.603   4.919  0.2189  0.1267  0.2934
   96SAPE  H10R 9563   3.131   6.497   4.922  1.0711  0.2953 -2.0896
   96SAPE  H10S 9564   3.153   6.668   4.989 -0.5588  3.1620 -1.7349
   96SAPE  C211 9565   3.138   6.661   4.781  0.4124  0.0591 -0.4178
   96SAPE  H11R 9566   3.156   6.769   4.771 -0.8377  0.2027 -1.3718
   96SAPE  C212 9567   3.148   6.595   4.666  0.1463  0.2409  1.3957
   96SAPE  H12R 9568   3.175   6.648   4.574  1.9196 -1.6728  0.7400
   96SAPE  C213 9569   3.130   6.445   4.645 -0.5378  0.2419  0.0468
   96SAPE  H13R 9570   3.057   6.428   4.563 -1.1629  2.1961  0.1423
   96SAPE  H13S 9571   3.094   6.392   4.735  0.1708 -0.2674  0.0365
   96SAPE  C214 9572   3.263   6.377   4.612 -0.4423  0.2525  0.1139
   96SAPE  H14R 9573   3.340   6.382   4.690  0.0731  3.9028 -0.4623
   96SAPE  C215 9574   3.300   6.309   4.497 -0.2969 -0.2402  0.3936
   96SAPE  H15R 9575   3.399   6.261   4.494  1.1297  2.5513 -0.2551
   96SAPE  C216 9576   3.216   6.298   4.365 -0.0230  0.2610  0.8238
   96SAPE  H16R 9577   3.126   6.364   4.375 -0.4731 -0.3600  0.9139
   96SAPE  H16S 9578   3.170   6.198   4.351  0.0005  0.1974  1.1899
   96SAPE  C217 9579   3.295   6.339   4.238 -0.3846 -0.0829  0.0430
   96SAPE  H17R 9580   3.220   6.323   4.158 -1.0964  0.5781  0.5673
   96SAPE  H17S 9581   3.385   6.274   4.235 -1.0364 -0.9705 -1.9807
   96SAPE  C218 9582   3.346   6.482   4.259  0.2000 -0.6939 -0.3039
   96SAPE  H18R 9583   3.395   6.499   4.357 -1.2144 -0.0534  0.3212
   96SAPE  H18S 9584   3.261   6.550   4.280 -0.0143 -0.8109 -0.7851
   96SAPE  C219 9585   3.415   6.547   4.143 -0.1906 -0.0557  0.6214
   96SAPE  H19R 9586   3.512   6.497   4.121 -0.1501  0.0725  0.5011
   96SAPE  H19S 9587   3.436   6.656   4.147 -3.3949  0.8422 -2.0079
   96SAPE  C220 9588   3.329   6.542   4.017 -0.0756  0.0109  0.0477
   96SAPE  H20R 9589   3.232   6.593   4.037 -1.5425 -2.7520  0.5099
   96SAPE  H20S 9590   3.311   6.439   3.979 -1.6236  1.1514 -2.6564
   96SAPE  H20T 9591   3.381   6.596   3.935  2.2238  0.2953  1.5880
   96SAPE   C33 9592   3.565   6.141   5.214 -0.2488  0.0264 -0.2503
   96SAPE   H3X 9593   3.474   6.112   5.157  0.5254 -3.3349 -0.0177
   96SAPE   H3Y 9594   3.601   6.052   5.271 -3.9757 -2.3884 -1.3330
   96SAPE   C34 9595   3.677   6.164   5.110 -0.4725 -0.8938 -0.1512
   96SAPE   H4X 9596   3.671   6.270   5.079 -1.3463 -0.5206  1.2157
   96SAPE   H4Y 9597   3.647   6.114   5.015  1.8267 -0.1002 -1.3720
   96SAPE   C35 9598   3.821   6.117   5.153 -0.1894  0.1805 -0.3947
   96SAPE   H5X 9599   3.823   6.006   5.151 -1.2078  0.1597 -1.0334
   96SAPE   H5Y 9600   3.834   6.150   5.258 -0.1623  2.7850 -1.1396
   96SAPE   C36 9601   3.929   6.174   5.063 -0.3302 -0.5692  0.5221
   96SAPE   H6X 9602   4.025   6.163   5.117  0.5953  0.5952 -0.8223
   96SAPE   H6Y 9603   3.921   6.284   5.048 -0.9905 -0.7272 -0.3514
   96SAPE   C37 9604   3.936   6.107   4.925  0.2160  0.5320 -0.2695
   96SAPE   H7X 9605   3.846   6.120   4.861  0.3366 -2.1475 -1.1263
   96SAPE   H7Y 9606   3.944   5.998   4.948 -0.4960  0.4602 -0.3317
   96SAPE   C38 9607   4.051   6.160   4.847 -0.1106  0.0427  0.2606
   96SAPE   H8X 9608   4.137   6.161   4.917  0.5285  1.4157 -0.4964
   96SAPE   H8Y 9609   4.042   6.263   4.806  2.2837 -0.6841 -2.4615
   96SAPE   C39 9610   4.078   6.067   4.737  0.5091  0.5885  0.2739
   96SAPE   H9X 9611   3.979   6.039   4.696  0.9010 -0.7729  0.2309
   96SAPE   H9Y 9612   4.120   5.969   4.767  0.2893 -0.6197 -3.0475
   96SAPE  C310 9613   4.162   6.140   4.629 -0.4462  0.7504 -0.2321
   96SAPE  H10X 9614   4.245   6.082   4.583 -1.6690  0.7365 -2.5948
   96SAPE  H10Y 9615   4.211   6.228   4.675  0.3318 -0.5963  1.6800
   96SAPE  C311 9616   4.080   6.187   4.509  0.2044 -0.1919 -0.0628
   96SAPE  H11X 9617   3.977   6.204   4.547  1.0342 -0.3734  2.4556
   96SAPE  H11Y 9618   4.077   6.103   4.436  1.6985 -1.6612  1.4537
   96SAPE  C312 9619   4.129   6.323   4.455  0.2004 -1.0316  0.0332
   96SAPE  H12X 9620   4.168   6.376   4.545 -1.5513 -0.3729  0.4370
   96SAPE  H12Y 9621   4.050   6.393   4.420 -0.2169  0.1319  2.9554
   96SAPE  C313 9622   4.237   6.317   4.351  0.0209 -0.3933 -0.0466
   96SAPE  H13X 9623   4.202   6.287   4.250  0.4101 -0.5487 -0.1367
   96SAPE  H13Y 9624   4.306   6.234   4.377 -0.6735 -0.3413  2.0941
   96SAPE  C314 9625   4.318   6.451   4.342 -0.2087  0.3096 -0.4574
   96SAPE  H14X 9626   4.333   6.491   4.444  0.1256 -0.2646 -0.2740
   96SAPE  H14Y 9627   4.247   6.523   4.296 -1.6289 -0.3100  0.6866
   96SAPE  C315 9628   4.460   6.452   4.288 -0.3535  0.7646 -0.2088
   96SAPE  H15X 9629   4.457   6.442   4.177 -1.7162  0.2540 -0.1484
   96SAPE  H15Y 9630   4.515   6.373   4.344 -0.2183  0.8178 -0.2675
   96SAPE  C316 9631   4.519   6.589   4.315 -0.0415 -0.4380  0.6861
   96SAPE  H16X 9632   4.627   6.592   4.291 -0.2110 -0.3895 -0.0878
   96SAPE  H16Y 9633   4.518   6.611   4.424  1.4477  1.9463  0.3090
   96SAPE  C317 9634   4.461   6.704   4.231  0.0520  0.2737 -0.8684
   96SAPE  H17X 9635   4.359   6.734   4.262  0.8836  1.4729  0.8757
   96SAPE  H17Y 9636   4.452   6.675   4.124  1.9177  0.9356 -1.2464
   96SAPE  C318 9637   4.542   6.832   4.235  0.1390  0.3005 -0.6630
   96SAPE  H18X 9638   4.652   6.819   4.240  0.1230  0.3180 -0.1509
   96SAPE  H18Y 9639   4.517   6.887   4.328  1.0830  1.7988 -1.2576
   96SAPE  H18Z 9640   4.510   6.899   4.153 -2.9010  2.3702  1.9597
   97SAPE     N 9641   6.453   2.326   5.833 -0.3954 -0.3079 -0.2970
   97SAPE   HN1 9642   6.451   2.426   5.803 -1.1685 -0.1890  0.1237
   97SAPE   HN2 9643   6.428   2.264   5.754  3.0331 -1.4523 -0.6633
   97SAPE   HN3 9644   6.391   2.302   5.913 -0.8877  1.2482 -0.1677
   97SAPE   C12 9645   6.597   2.294   5.869 -0.4701 -0.3411  0.1977
   97SAPE  H12A 9646   6.656   2.286   5.775  0.4444  0.1310  0.7121
   97SAPE  H12B 9647   6.589   2.189   5.903 -2.8686  0.1265  1.3239
   97SAPE   C11 9648   6.658   2.402   5.957  0.4506 -0.6828 -0.5404
   97SAPE  H11A 9649   6.740   2.348   6.010  3.4178  2.0365 -2.0051
   97SAPE  H11B 9650   6.591   2.443   6.035  2.7301  0.6396  0.8248
   97SAPE     P 9651   6.636   2.638   5.859  0.2692 -0.3401 -0.0307
   97SAPE   O13 9652   6.634   2.708   5.985  0.1125 -0.4892 -0.6483
   97SAPE   O14 9653   6.711   2.705   5.751  0.2910  0.0915 -0.3282
   97SAPE   O12 9654   6.718   2.507   5.879 -0.1202  0.1270  0.1057
   97SAPE   O11 9655   6.486   2.587   5.818  0.4200  0.1082  0.0355
   97SAPE    C1 9656   6.395   2.683   5.761  0.1337 -0.1602  0.2350
   97SAPE    HA 9657   6.310   2.667   5.831  1.5043  0.0793  2.0093
   97SAPE    HB 9658   6.422   2.791   5.768 -1.3447  0.2061  0.8314
   97SAPE    C2 9659   6.351   2.661   5.613  0.0682 -0.1860 -0.2623
   97SAPE    HS 9660   6.289   2.571   5.589 -2.4810  1.0578  1.2369
   97SAPE   O21 9661   6.471   2.655   5.529  0.0430  0.2799  0.5476
   97SAPE   C21 9662   6.516   2.537   5.512  0.0240 -0.0790  0.0172
   97SAPE   O22 9663   6.482   2.435   5.571 -1.0595 -0.0417  0.6315
   97SAPE   C22 9664   6.632   2.537   5.416  0.0636 -0.0058 -0.0312
   97SAPE   H2R 9665   6.718   2.583   5.470 -1.2473  1.4037  0.9526
   97SAPE   H2S 9666   6.654   2.432   5.387 -1.6782 -0.2977 -0.3769
   97SAPE    C3 9667   6.258   2.779   5.567 -0.0795 -0.1162  0.7666
   97SAPE    HX 9668   6.293   2.877   5.607  0.6317 -0.1055  0.1367
   97SAPE    HY 9669   6.156   2.765   5.610 -1.3541  0.1311 -1.9733
   97SAPE   O31 9670   6.241   2.778   5.424 -0.5219 -0.3435 -0.2163
   97SAPE   C31 9671   6.243   2.892   5.365  0.6102 -0.2722  0.2639
   97SAPE   O32 9672   6.244   3.006   5.411 -0.1306 -0.3992 -0.1453
   97SAPE   C32 9673   6.225   2.858   5.215 -0.1540  0.3103  0.2527
   97SAPE   H2X 9674   6.142   2.788   5.189 -0.6904  0.9894  0.0972
   97SAPE   H2Y 9675   6.308   2.791   5.183 -1.8145 -1.8505  0.2587
   97SAPE   C23 9676   6.599   2.614   5.290 -0.0248  0.5044  0.7851
   97SAPE   H3R 9677   6.563   2.717   5.313 -1.8584  0.0021  0.3145
   97SAPE   H3S 9678   6.512   2.563   5.244 -0.4927  0.6372  1.5008
   97SAPE   C24 9679   6.717   2.622   5.187 -0.1672 -0.4134  0.0160
   97SAPE   H4R 9680   6.674   2.661   5.092 -0.8399 -1.3474 -0.0737
   97SAPE   H4S 9681   6.761   2.524   5.159 -1.1395 -1.3420  1.6338
   97SAPE   C25 9682   6.823   2.712   5.237 -0.3827 -0.2624  0.1986
   97SAPE   H5R 9683   6.904   2.665   5.295  0.5130  2.0073  0.8754
   97SAPE   C26 9684   6.832   2.847   5.211 -0.6615  0.7617 -0.1579
   97SAPE   H6R 9685   6.913   2.901   5.262 -0.0679  1.3811 -1.6749
   97SAPE   C27 9686   6.745   2.925   5.122 -0.3501  0.0552 -0.3261
   97SAPE   H7R 9687   6.667   2.867   5.069 -0.7161  0.0336  0.2350
   97SAPE   H7S 9688   6.803   2.962   5.035  2.1955 -1.1854  0.7439
   97SAPE   C28 9689   6.676   3.035   5.200 -0.2824 -0.7941  0.5455
   97SAPE   H8R 9690   6.637   2.997   5.295 -0.0326 -2.1937  0.1139
   97SAPE   C29 9691   6.639   3.158   5.155  0.0552 -0.7326  0.2868
   97SAPE   H9R 9692   6.574   3.222   5.216 -0.9726 -1.9800  0.5507
   97SAPE  C210 9693   6.682   3.217   5.020 -0.4225  0.2659 -0.0445
   97SAPE  H10R 9694   6.607   3.297   4.998 -0.6276  0.2529  0.5991
   97SAPE  H10S 9695   6.675   3.140   4.940 -0.4251  0.6325 -0.4026
   97SAPE  C211 9696   6.812   3.296   5.015 -0.6153 -0.4172  0.1421
   97SAPE  H11R 9697   6.871   3.295   5.108  1.9467  1.1922 -1.3425
   97SAPE  C212 9698   6.846   3.383   4.920  0.0202 -0.0363  0.3841
   97SAPE  H12R 9699   6.937   3.442   4.939  2.0400 -2.8331  0.1187
   97SAPE  C213 9700   6.779   3.411   4.785  0.2492  0.4527 -0.2234
   97SAPE  H13R 9701   6.751   3.318   4.731  1.0629  0.0186  0.0918
   97SAPE  H13S 9702   6.855   3.462   4.720 -1.0434  0.4576 -1.7940
   97SAPE  C214 9703   6.655   3.494   4.784 -0.0977 -0.3023 -0.1346
   97SAPE  H14R 9704   6.620   3.528   4.883  0.8974  2.4280 -0.6233
   97SAPE  C215 9705   6.586   3.530   4.675  0.4898  0.3543 -0.4233
   97SAPE  H15R 9706   6.481   3.561   4.686 -0.1833 -1.8143 -0.3115
   97SAPE  C216 9707   6.638   3.510   4.532 -0.5148 -0.2691  0.6107
   97SAPE  H16R 9708   6.566   3.451   4.471  0.1372 -0.3849 -0.0651
   97SAPE  H16S 9709   6.735   3.458   4.522 -0.7880 -0.4506 -1.9768
   97SAPE  C217 9710   6.661   3.647   4.468  0.2091 -0.3717 -0.1439
   97SAPE  H17R 9711   6.731   3.713   4.524 -0.6600  0.3908  0.0835
   97SAPE  H17S 9712   6.568   3.709   4.462  0.3635 -0.2671 -1.6754
   97SAPE  C218 9713   6.716   3.645   4.326  0.8703 -0.3509  0.3572
   97SAPE  H18R 9714   6.705   3.741   4.271 -0.6565  0.8020  2.5520
   97SAPE  H18S 9715   6.647   3.581   4.267  1.3680  0.9828 -1.7789
   97SAPE  C219 9716   6.863   3.600   4.311 -0.3702  0.1605 -0.5457
   97SAPE  H19R 9717   6.885   3.585   4.203  0.5860  1.7164 -0.5893
   97SAPE  H19S 9718   6.867   3.499   4.357 -1.0106  0.2381 -0.3011
   97SAPE  C220 9719   6.963   3.698   4.369 -0.1389  0.5396 -0.0474
   97SAPE  H20R 9720   6.973   3.669   4.475 -1.2430 -3.0351 -0.7890
   97SAPE  H20S 9721   6.921   3.801   4.360 -0.9992  0.1492 -0.7277
   97SAPE  H20T 9722   7.058   3.700   4.312  0.5621  1.9286  1.1108
   97SAPE   C33 9723   6.229   2.979   5.117 -0.0887 -0.0437  0.0024
   97SAPE   H3X 9724   6.297   3.060   5.150  1.3583 -1.2256  0.0314
   97SAPE   H3Y 9725   6.129   3.026   5.104 -0.6144 -1.0428  0.2452
   97SAPE   C34 9726   6.290   2.934   4.985 -0.9312 -0.8935 -0.3872
   97SAPE   H4X 9727   6.231   2.851   4.940 -1.5861 -1.1308  0.8640
   97SAPE   H4Y 9728   6.397   2.904   4.992 -0.0441  2.1028  0.2070
   97SAPE   C35 9729   6.277   3.053   4.892 -0.6241 -0.0513  0.7155
   97SAPE   H5X 9730   6.337   3.142   4.920  0.1525 -0.5940  0.8137
   97SAPE   H5Y 9731   6.169   3.078   4.887 -0.3206  1.0619 -2.3032
   97SAPE   C36 9732   6.315   3.030   4.741  0.3589 -0.4592  0.4450
   97SAPE   H6X 9733   6.262   2.945   4.694  0.0094 -0.0112  0.0250
   97SAPE   H6Y 9734   6.425   3.023   4.727  0.3943  1.8973 -0.9755
   97SAPE   C37 9735   6.269   3.155   4.662  0.2294  0.3525  0.3333
   97SAPE   H7X 9736   6.325   3.244   4.698 -1.4373  1.9104 -0.7216
   97SAPE   H7Y 9737   6.163   3.182   4.682  0.3074  0.1023  1.1367
   97SAPE   C38 9738   6.280   3.137   4.514  0.1307 -0.0041  0.9948
   97SAPE   H8X 9739   6.247   3.233   4.469  0.5929  0.1984  1.0780
   97SAPE   H8Y 9740   6.226   3.047   4.479  0.3112  0.6306 -1.0625
   97SAPE   C39 9741   6.427   3.138   4.465 -0.0561 -0.0623  0.3043
   97SAPE   H9X 9742   6.464   3.034   4.470 -1.0441 -0.3796  1.2043
   97SAPE   H9Y 9743   6.505   3.194   4.521 -0.1888  0.6908 -0.2534
   97SAPE  C310 9744   6.436   3.169   4.318 -0.4051  0.0947  0.7101
   97SAPE  H10X 9745   6.432   3.280   4.311 -2.3699 -0.0161 -0.4607
   97SAPE  H10Y 9746   6.346   3.124   4.271  1.0629 -0.8286 -1.3480
   97SAPE  C311 9747   6.566   3.127   4.258 -0.1517 -0.4748  0.0361
   97SAPE  H11X 9748   6.589   3.020   4.280 -0.6428 -0.2635  1.7011
   97SAPE  H11Y 9749   6.644   3.193   4.301 -2.1422  0.7873  1.8684
   97SAPE  C312 9750   6.578   3.139   4.109  0.0033 -0.0805 -0.0101
   97SAPE  H12X 9751   6.663   3.091   4.055  0.1153  1.8664 -1.6656
   97SAPE  H12Y 9752   6.608   3.243   4.088  0.2124 -0.2291 -0.4651
   97SAPE  C313 9753   6.447   3.113   4.022 -0.6152 -0.2852 -0.0625
   97SAPE  H13X 9754   6.397   3.212   4.034  1.6781  0.9490 -0.0457
   97SAPE  H13Y 9755   6.374   3.041   4.065  0.3865 -0.7847  0.8485
   97SAPE  C314 9756   6.478   3.087   3.875 -0.7101  0.4390 -0.6896
   97SAPE  H14X 9757   6.576   3.124   3.838 -0.9569  0.1467 -1.6601
   97SAPE  H14Y 9758   6.406   3.127   3.801 -1.5831  0.9244  0.4081
   97SAPE  C315 9759   6.487   2.937   3.850 -1.0830  0.1366  0.0296
   97SAPE  H15X 9760   6.537   2.893   3.939  0.5915  0.0430 -0.9168
   97SAPE  H15Y 9761   6.546   2.911   3.760 -0.1979 -2.4383  1.2710
   97SAPE  C316 9762   6.352   2.868   3.838  0.0569  0.7732  0.0211
   97SAPE  H16X 9763   6.297   2.901   3.747 -0.0002 -0.7605 -0.5292
   97SAPE  H16Y 9764   6.292   2.904   3.924  0.5765  1.7699 -0.0183
   97SAPE  C317 9765   6.354   2.715   3.848  0.8869 -0.4125  0.4632
   97SAPE  H17X 9766   6.424   2.679   3.926  1.6487  0.8262  0.3897
   97SAPE  H17Y 9767   6.385   2.671   3.751 -1.6651  1.1123 -1.1845
   97SAPE  C318 9768   6.224   2.651   3.886 -0.1934  0.0455 -0.0530
   97SAPE  H18X 9769   6.217   2.646   3.996  0.3089 -0.9376 -0.0642
   97SAPE  H18Y 9770   6.233   2.546   3.853  1.0569  0.4166 -0.9714
   97SAPE  H18Z 9771   6.134   2.688   3.831  0.0410 -0.2981 -0.6766
   98SAPE     N 9772   5.631   1.769   5.850 -0.1875 -0.1907  0.2527
   98SAPE   HN1 9773   5.728   1.807   5.858  0.3032 -1.0962 -0.9832
   98SAPE   HN2 9774   5.633   1.682   5.792  0.1885  0.7868 -1.2806
   98SAPE   HN3 9775   5.572   1.840   5.803 -2.8924 -0.3564  3.1036
   98SAPE   C12 9776   5.576   1.752   5.992 -0.0732 -0.8099  0.6568
   98SAPE  H12A 9777   5.584   1.859   6.022  1.6319 -0.9792  0.9089
   98SAPE  H12B 9778   5.645   1.682   6.044 -0.5279  0.1445  2.5964
   98SAPE   C11 9779   5.429   1.696   5.980  0.2097  0.1492  0.3379
   98SAPE  H11A 9780   5.395   1.662   6.081 -0.7397  2.5672  0.8998
   98SAPE  H11B 9781   5.431   1.607   5.913  1.4296  2.6842 -3.3055
   98SAPE     P 9782   5.233   1.869   5.989 -0.2797 -0.1658  0.1892
   98SAPE   O13 9783   5.150   1.786   6.075 -0.0276  0.3344  0.2500
   98SAPE   O14 9784   5.306   1.977   6.053  0.3307  0.0071  0.2056
   98SAPE   O12 9785   5.337   1.780   5.922  0.2195  0.1031  0.4620
   98SAPE   O11 9786   5.137   1.926   5.879  0.4551  0.0628  0.1010
   98SAPE    C1 9787   5.045   1.849   5.798 -0.3743  0.4054 -0.3490
   98SAPE    HA 9788   5.039   1.743   5.833 -0.0415  0.4637 -0.1129
   98SAPE    HB 9789   4.946   1.900   5.798 -1.0498 -0.8368  0.6776
   98SAPE    C2 9790   5.095   1.856   5.652  0.5925  0.9774 -0.3534
   98SAPE    HS 9791   5.022   1.807   5.585  1.3127 -0.9008  0.1414
   98SAPE   O21 9792   5.221   1.781   5.643  0.0140  0.4997  0.2057
   98SAPE   C21 9793   5.207   1.653   5.612 -0.5771  0.0647 -0.2678
   98SAPE   O22 9794   5.101   1.592   5.602 -0.3715 -0.0874  0.2827
   98SAPE   C22 9795   5.344   1.592   5.577 -0.1919  0.4157 -0.3795
   98SAPE   H2R 9796   5.417   1.618   5.656  1.6691 -0.1980 -1.8316
   98SAPE   H2S 9797   5.334   1.481   5.583 -0.5580  0.5343  2.5268
   98SAPE    C3 9798   5.129   1.997   5.609 -0.0207 -0.0195 -0.2188
   98SAPE    HX 9799   5.208   2.042   5.673  0.0559  1.2636 -1.1749
   98SAPE    HY 9800   5.036   2.049   5.644  0.2194 -0.7200  1.5637
   98SAPE   O31 9801   5.130   2.016   5.461 -0.4408  0.0100 -0.9488
   98SAPE   C31 9802   5.248   2.053   5.419 -0.4668 -0.4296  0.5801
   98SAPE   O32 9803   5.350   2.079   5.487  0.2299  0.9165  0.3521
   98SAPE   C32 9804   5.229   2.087   5.267 -0.6466  0.4641  0.5208
   98SAPE   H2X 9805   5.275   2.187   5.251  2.2386 -1.1149 -2.1350
   98SAPE   H2Y 9806   5.125   2.074   5.232 -0.3250  0.9689 -0.6643
   98SAPE   C23 9807   5.394   1.657   5.448 -0.6982 -0.4479 -0.0685
   98SAPE   H3R 9808   5.503   1.677   5.457 -0.9319  0.9510 -0.1850
   98SAPE   H3S 9809   5.344   1.755   5.437 -0.1092  0.2612  2.7395
   98SAPE   C24 9810   5.382   1.571   5.316  0.0021  0.8133  0.3330
   98SAPE   H4R 9811   5.435   1.477   5.344  1.0302  0.9891 -0.9829
   98SAPE   H4S 9812   5.430   1.611   5.225 -2.9514 -3.2309 -3.4422
   98SAPE   C25 9813   5.239   1.550   5.273 -0.6536 -0.0537  0.1435
   98SAPE   H5R 9814   5.191   1.649   5.268  0.6460  0.5705 -0.2497
   98SAPE   C26 9815   5.171   1.441   5.226  0.4311  0.1351 -0.8291
   98SAPE   H6R 9816   5.068   1.454   5.189  0.3587 -0.2401 -0.7597
   98SAPE   C27 9817   5.239   1.304   5.212  0.2151 -0.7749 -0.3498
   98SAPE   H7R 9818   5.163   1.225   5.193  0.6278 -1.5052  0.8962
   98SAPE   H7S 9819   5.284   1.274   5.309 -0.7031 -0.5127  0.1808
   98SAPE   C28 9820   5.351   1.299   5.113  0.2852 -0.1093 -0.1423
   98SAPE   H8R 9821   5.438   1.360   5.141  0.0701  0.3233 -0.4118
   98SAPE   C29 9822   5.358   1.215   5.012 -0.1797 -0.0683 -0.0326
   98SAPE   H9R 9823   5.453   1.218   4.957  0.1341  0.3265  0.5248
   98SAPE  C210 9824   5.259   1.115   4.963 -0.6244 -0.3994 -0.1793
   98SAPE  H10R 9825   5.198   1.166   4.885 -0.8352  0.4199  0.5171
   98SAPE  H10S 9826   5.190   1.088   5.046 -0.1613  1.4423  0.8418
   98SAPE  C211 9827   5.326   1.002   4.899 -0.8665 -0.2369  0.3116
   98SAPE  H11R 9828   5.360   0.925   4.970  1.0557  0.9419  0.7433
   98SAPE  C212 9829   5.349   0.978   4.767 -0.3438  0.0268  0.0819
   98SAPE  H12R 9830   5.366   0.873   4.742  1.2998  0.2800  0.0273
   98SAPE  C213 9831   5.312   1.066   4.657 -0.4155  0.2766  0.0438
   98SAPE  H13R 9832   5.405   1.099   4.606 -1.0969  0.0863 -1.3706
   98SAPE  H13S 9833   5.262   1.157   4.697  0.5278  0.0939  1.7019
   98SAPE  C214 9834   5.212   0.997   4.564 -0.0529  0.0949  0.1374
   98SAPE  H14R 9835   5.261   0.929   4.493 -0.0396  1.4176 -1.1666
   98SAPE  C215 9836   5.078   1.022   4.554 -0.4189  0.6592 -0.2357
   98SAPE  H15R 9837   5.021   0.972   4.474  1.8100 -0.9328 -0.9445
   98SAPE  C216 9838   4.996   1.129   4.622  0.3485  0.1962  0.4067
   98SAPE  H16R 9839   4.990   1.217   4.555 -0.8783 -1.3244 -1.6024
   98SAPE  H16S 9840   5.043   1.155   4.719 -1.1119 -0.7026  1.3967
   98SAPE  C217 9841   4.853   1.081   4.658 -0.5112  0.0115  0.2434
   98SAPE  H17R 9842   4.801   1.048   4.566 -1.9982  0.2437  0.9672
   98SAPE  H17S 9843   4.793   1.170   4.690 -4.2633 -1.9546 -0.7441
   98SAPE  C218 9844   4.861   0.980   4.774  0.3998 -0.0859  0.3739
   98SAPE  H18R 9845   4.919   1.027   4.856  0.1590 -1.8719  1.6188
   98SAPE  H18S 9846   4.921   0.895   4.735  0.5003  0.0477  0.2364
   98SAPE  C219 9847   4.721   0.931   4.826 -0.0884 -0.0904 -0.2794
   98SAPE  H19R 9848   4.671   0.892   4.734 -0.8215 -1.4884  0.6830
   98SAPE  H19S 9849   4.666   1.021   4.861  0.6277 -0.8198  2.9938
   98SAPE  C220 9850   4.717   0.830   4.942 -0.0379  0.4250 -0.1751
   98SAPE  H20R 9851   4.620   0.821   4.995  0.8890 -0.3366  1.4533
   98SAPE  H20S 9852   4.797   0.872   5.008  0.6635  1.1328 -1.4272
   98SAPE  H20T 9853   4.764   0.733   4.916  2.6631  1.0284  1.9141
   98SAPE   C33 9854   5.307   1.994   5.163 -0.4600  0.3367 -0.2249
   98SAPE   H3X 9855   5.295   2.035   5.060  0.1951  1.4698  0.1277
   98SAPE   H3Y 9856   5.255   1.897   5.171 -1.4611  0.9048  0.3066
   98SAPE   C34 9857   5.455   1.969   5.196 -0.3179  0.5030 -0.3364
   98SAPE   H4X 9858   5.464   1.937   5.302 -3.3447  0.7752  0.0793
   98SAPE   H4Y 9859   5.509   2.067   5.191 -0.2215  0.4516 -0.3106
   98SAPE   C35 9860   5.520   1.871   5.098  0.3219 -0.4808  0.0379
   98SAPE   H5X 9861   5.465   1.774   5.097 -2.5043  1.0160 -0.7367
   98SAPE   H5Y 9862   5.619   1.851   5.146  0.4468 -2.3014 -0.9035
   98SAPE   C36 9863   5.534   1.934   4.958  0.1423  0.5183  0.2430
   98SAPE   H6X 9864   5.560   2.041   4.949 -2.8349  1.4939  1.7408
   98SAPE   H6Y 9865   5.430   1.942   4.919  1.1468 -0.3322 -2.9134
   98SAPE   C37 9866   5.622   1.849   4.858  0.2183  0.4605  0.6947
   98SAPE   H7X 9867   5.597   1.742   4.876  1.7635 -0.2125 -0.8370
   98SAPE   H7Y 9868   5.730   1.855   4.883  0.9368 -2.0632 -1.3727
   98SAPE   C38 9869   5.586   1.884   4.711  0.3207 -0.0702 -0.8098
   98SAPE   H8X 9870   5.612   1.990   4.692  0.8551 -0.3448 -1.6425
   98SAPE   H8Y 9871   5.477   1.870   4.693 -0.3908  1.0411  1.9863
   98SAPE   C39 9872   5.658   1.791   4.614 -0.0845 -0.4061 -0.1098
   98SAPE   H9X 9873   5.632   1.691   4.653 -0.9689 -0.0255  0.3007
   98SAPE   H9Y 9874   5.768   1.799   4.632  0.4596 -0.1414 -3.0667
   98SAPE  C310 9875   5.630   1.811   4.461 -0.0370 -0.4036  0.4690
   98SAPE  H10X 9876   5.704   1.887   4.429  0.4544  0.0806  2.5719
   98SAPE  H10Y 9877   5.528   1.856   4.457 -1.1238 -2.5374  1.7815
   98SAPE  C311 9878   5.616   1.684   4.382  0.0276  0.3236 -0.0543
   98SAPE  H11X 9879   5.561   1.708   4.288 -0.2962 -2.1516 -0.5936
   98SAPE  H11Y 9880   5.545   1.615   4.432 -1.0280  1.7458  0.4648
   98SAPE  C312 9881   5.749   1.608   4.339 -0.1578 -0.1825 -0.0835
   98SAPE  H12X 9882   5.824   1.646   4.410  0.6488 -0.5761 -0.7096
   98SAPE  H12Y 9883   5.793   1.655   4.248 -3.2792 -0.1852 -1.7487
   98SAPE  C313 9884   5.747   1.459   4.347 -1.0259  0.6410  0.2937
   98SAPE  H13X 9885   5.739   1.433   4.455  1.2764  0.1351  0.3903
   98SAPE  H13Y 9886   5.840   1.412   4.308 -1.1191  0.7457 -0.0525
   98SAPE  C314 9887   5.632   1.391   4.275  0.2163 -0.0664  0.3098
   98SAPE  H14X 9888   5.637   1.410   4.165 -1.2424  1.0495  0.4158
   98SAPE  H14Y 9889   5.537   1.438   4.309 -0.9689 -1.7023 -0.5821
   98SAPE  C315 9890   5.633   1.235   4.298 -0.5195  0.8068  0.3641
   98SAPE  H15X 9891   5.631   1.212   4.407 -1.6869 -0.0082  0.1784
   98SAPE  H15Y 9892   5.732   1.197   4.264  1.1654  4.6312  0.3702
   98SAPE  C316 9893   5.506   1.179   4.236  0.6194  0.1228 -0.3866
   98SAPE  H16X 9894   5.500   1.212   4.130 -0.8888  0.3093 -0.2623
   98SAPE  H16Y 9895   5.424   1.219   4.298  0.6869 -0.7708  0.3032
   98SAPE  C317 9896   5.496   1.026   4.258 -0.8024  0.3438  0.0789
   98SAPE  H17X 9897   5.462   1.004   4.361 -1.8808 -1.5751 -0.6360
   98SAPE  H17Y 9898   5.593   0.978   4.235 -1.4279 -0.7839 -0.2719
   98SAPE  C318 9899   5.392   0.953   4.167 -0.9200 -0.2548  0.9965
   98SAPE  H18X 9900   5.296   1.005   4.186  0.8449  3.8255 -0.0631
   98SAPE  H18Y 9901   5.387   0.847   4.200 -2.5766 -0.9671 -1.3444
   98SAPE  H18Z 9902   5.418   0.946   4.059  0.0380 -0.0856  1.2060
   99SAPE     N 9903   5.467   6.747   6.316  1.0564 -0.3356  0.0138
   99SAPE   HN1 9904   5.434   6.669   6.377 -0.0580  1.0907  1.3368
   99SAPE   HN2 9905   5.532   6.715   6.241  1.0564  1.3174 -0.7420
   99SAPE   HN3 9906   5.517   6.813   6.379  0.8729 -0.3723  0.1995
   99SAPE   C12 9907   5.355   6.825   6.249  0.2287  0.1124  0.1981
   99SAPE  H12A 9908   5.407   6.905   6.191  0.8209 -0.3004  0.1565
   99SAPE  H12B 9909   5.294   6.877   6.326  0.2869 -0.4826  0.6504
   99SAPE   C11 9910   5.282   6.738   6.147 -0.3561  0.6193  0.1887
   99SAPE  H11A 9911   5.245   6.646   6.198 -1.3097  0.2663 -1.0908
   99SAPE  H11B 9912   5.353   6.709   6.067 -1.1171  0.5114 -0.4565
   99SAPE     P 9913   5.187   6.907   5.972 -0.1302 -0.0854 -0.2415
   99SAPE   O13 9914   5.097   7.014   6.011 -0.5283  0.4233  0.1936
   99SAPE   O14 9915   5.329   6.942   5.945  0.0327  0.3842  0.3209
   99SAPE   O12 9916   5.176   6.803   6.089 -0.3933 -0.2597  0.6268
   99SAPE   O11 9917   5.132   6.823   5.850  0.2107 -0.0735 -0.0544
   99SAPE    C1 9918   5.025   6.728   5.862 -0.1862 -0.6131 -0.4307
   99SAPE    HA 9919   4.965   6.727   5.956 -2.4121  2.5441 -1.6465
   99SAPE    HB 9920   4.954   6.751   5.780  0.4669  1.0378 -0.5807
   99SAPE    C2 9921   5.075   6.591   5.827 -0.4328 -0.0065  0.1901
   99SAPE    HS 9922   5.153   6.570   5.904 -1.9295  0.3960  1.9019
   99SAPE   O21 9923   5.121   6.604   5.694 -1.0817 -0.4186 -0.4190
   99SAPE   C21 9924   5.216   6.522   5.652 -0.5740  0.1204  0.8727
   99SAPE   O22 9925   5.294   6.457   5.717  0.2767 -0.5115  0.3562
   99SAPE   C22 9926   5.216   6.516   5.497 -0.0948  0.4355 -0.2098
   99SAPE   H2R 9927   5.111   6.497   5.467 -0.4532 -1.4844  1.9760
   99SAPE   H2S 9928   5.263   6.611   5.463 -1.2417  0.7051 -1.1016
   99SAPE    C3 9929   4.965   6.488   5.829 -1.3913  0.3708  0.4240
   99SAPE    HX 9930   4.913   6.489   5.927 -1.5026 -1.0726  0.3974
   99SAPE    HY 9931   5.004   6.387   5.803  0.0603  0.2631  2.6828
   99SAPE   O31 9932   4.877   6.535   5.728  0.6189 -0.3576  0.4420
   99SAPE   C31 9933   4.747   6.496   5.740 -0.3523  0.4980 -0.4166
   99SAPE   O32 9934   4.704   6.439   5.840  0.4241 -0.1209  0.2095
   99SAPE   C32 9935   4.665   6.542   5.618 -0.2367 -0.3453  0.5457
   99SAPE   H2X 9936   4.580   6.473   5.599 -0.6741  0.7398 -1.7084
   99SAPE   H2Y 9937   4.727   6.535   5.526  0.5347  1.8730  0.8435
   99SAPE   C23 9938   5.311   6.406   5.436  0.2319  0.0978 -0.0557
   99SAPE   H3R 9939   5.415   6.418   5.471 -0.1733  1.5503  0.7135
   99SAPE   H3S 9940   5.324   6.438   5.330  1.7249  0.3684  0.1928
   99SAPE   C24 9941   5.262   6.259   5.458  0.5735  0.7506  0.4167
   99SAPE   H4R 9942   5.154   6.255   5.433  1.2654  0.0265 -2.9153
   99SAPE   H4S 9943   5.264   6.235   5.567  1.8046 -0.4748  0.1466
   99SAPE   C25 9944   5.350   6.159   5.389  0.0278  0.7134 -0.2395
   99SAPE   H5R 9945   5.456   6.179   5.410  0.4018 -0.5451 -0.8441
   99SAPE   C26 9946   5.313   6.043   5.329  0.2915  0.1579 -0.1007
   99SAPE   H6R 9947   5.391   5.982   5.281 -0.3940 -0.7541 -0.0950
   99SAPE   C27 9948   5.165   6.009   5.319  0.3922  0.1688 -0.3117
   99SAPE   H7R 9949   5.106   6.050   5.403  0.1539  0.3842 -0.5826
   99SAPE   H7S 9950   5.156   5.900   5.336 -3.0812  0.4086 -0.0548
   99SAPE   C28 9951   5.110   6.038   5.184  0.8387  0.0163 -0.0424
   99SAPE   H8R 9952   5.150   6.124   5.129  1.1073  1.3943  2.1688
   99SAPE   C29 9953   5.024   5.954   5.124  0.3295  0.5565  0.3162
   99SAPE   H9R 9954   4.992   5.985   5.024 -1.7083  0.4503  0.9055
   99SAPE  C210 9955   4.971   5.815   5.173  0.3973 -0.1365  0.0956
   99SAPE  H10R 9956   4.916   5.821   5.269  0.2232 -0.0744 -0.0091
   99SAPE  H10S 9957   5.065   5.757   5.192 -0.6896 -2.7078 -1.7657
   99SAPE  C211 9958   4.887   5.741   5.075 -0.0432 -0.3850 -0.6872
   99SAPE  H11R 9959   4.782   5.732   5.108  0.4281 -1.2378  0.6358
   99SAPE  C212 9960   4.927   5.686   4.957 -0.5146  0.1834 -0.3154
   99SAPE  H12R 9961   4.856   5.617   4.907 -0.6370 -0.0501  0.1670
   99SAPE  C213 9962   5.065   5.676   4.909 -0.0297 -0.2014  1.0094
   99SAPE  H13R 9963   5.091   5.569   4.897  1.1592 -0.3813  4.2433
   99SAPE  H13S 9964   5.132   5.688   4.997  1.6713 -1.0239 -0.1096
   99SAPE  C214 9965   5.094   5.763   4.792  0.3514 -0.0944 -1.1752
   99SAPE  H14R 9966   5.010   5.829   4.767 -3.6362 -3.9971  0.7126
   99SAPE  C215 9967   5.184   5.738   4.697 -0.6470 -0.3438 -0.0326
   99SAPE  H15R 9968   5.201   5.808   4.614  1.7805 -1.4031 -0.5109
   99SAPE  C216 9969   5.276   5.617   4.697  0.4968 -0.4048  0.1583
   99SAPE  H16R 9970   5.270   5.567   4.795  0.9226  0.3192  0.5631
   99SAPE  H16S 9971   5.375   5.661   4.671 -1.0008  2.1682 -1.7938
   99SAPE  C217 9972   5.245   5.518   4.583  0.2872 -0.7289  0.9544
   99SAPE  H17R 9973   5.145   5.472   4.595  0.0096  0.3400  3.4874
   99SAPE  H17S 9974   5.323   5.439   4.586  1.2729  0.2023  0.6543
   99SAPE  C218 9975   5.220   5.580   4.439 -0.8229  0.0007 -0.1774
   99SAPE  H18R 9976   5.311   5.630   4.399 -0.7650  0.5969  0.6882
   99SAPE  H18S 9977   5.132   5.646   4.450 -3.7512 -3.7766  0.9449
   99SAPE  C219 9978   5.181   5.468   4.344  0.4002  0.1587  0.4501
   99SAPE  H19R 9979   5.087   5.420   4.379  1.3758 -1.1009  1.4527
   99SAPE  H19S 9980   5.252   5.383   4.345  0.3959  0.1348 -0.6075
   99SAPE  C220 9981   5.156   5.519   4.203 -0.6071 -0.0026  1.4350
   99SAPE  H20R 9982   5.176   5.435   4.133  1.9197  0.6142  1.3166
   99SAPE  H20S 9983   5.225   5.604   4.179  0.6442 -1.3100  0.1724
   99SAPE  H20T 9984   5.052   5.556   4.198 -0.9550 -1.0508  0.4154
   99SAPE   C33 9985   4.638   6.689   5.635  0.0641 -0.2232 -0.0137
   99SAPE   H3X 9986   4.730   6.748   5.657 -1.2202  2.5801 -1.5259
   99SAPE   H3Y 9987   4.572   6.685   5.724 -1.7919 -1.1035 -1.3623
   99SAPE   C34 9988   4.549   6.741   5.525 -0.2983 -1.0866 -0.2444
   99SAPE   H4X 9989   4.526   6.849   5.530 -0.4210 -1.1820  1.6241
   99SAPE   H4Y 9990   4.451   6.696   5.548 -0.8351 -0.1341 -0.6099
   99SAPE   C35 9991   4.600   6.709   5.382  0.2290 -0.2147  0.4096
   99SAPE   H5X 9992   4.603   6.600   5.357 -2.0789  0.0294 -1.1908
   99SAPE   H5Y 9993   4.703   6.751   5.387  0.2491 -0.3516  1.3432
   99SAPE   C36 9994   4.520   6.778   5.276 -0.6790 -0.3257  0.4589
   99SAPE   H6X 9995   4.505   6.884   5.305  0.7448 -0.0895  0.4096
   99SAPE   H6Y 9996   4.427   6.717   5.268  0.4345 -1.8942 -1.1445
   99SAPE   C37 9997   4.585   6.775   5.137  0.0032  0.0192  0.0187
   99SAPE   H7X 9998   4.622   6.671   5.123 -1.0612 -0.6454  1.8221
   99SAPE   H7Y 9999   4.670   6.847   5.138 -0.1260  0.2045  2.1719
   99SAPE   C3810000   4.471   6.805   5.031  0.3870  0.4924 -0.6242
   99SAPE   H8X10001   4.425   6.901   5.063  1.3214  0.9011 -0.4826
   99SAPE   H8Y10002   4.395   6.725   5.046  0.5745  0.1756 -1.3019
   99SAPE   C3910003   4.517   6.804   4.883 -0.4197 -0.6423 -0.5057
   99SAPE   H9X10004   4.543   6.699   4.859  0.5700 -1.0166  1.8814
   99SAPE   H9Y10005   4.604   6.868   4.861 -2.8894  2.8014 -0.9977
   99SAPE  C31010006   4.406   6.848   4.789 -0.0144  0.0901  0.4368
   99SAPE  H10X10007   4.388   6.957   4.804 -0.0091  0.1443  0.0547
   99SAPE  H10Y10008   4.320   6.780   4.803  0.9440 -1.6247 -1.4945
   99SAPE  C31110009   4.443   6.833   4.636 -0.3185  0.3026 -0.1089
   99SAPE  H11X10010   4.450   6.723   4.621 -2.1163  0.4082 -2.1915
   99SAPE  H11Y10011   4.548   6.858   4.610 -0.2679  2.1107  1.5821
   99SAPE  C31210012   4.334   6.892   4.552  0.0461  0.1138  0.3343
   99SAPE  H12X10013   4.364   6.894   4.445  0.4586  2.3671  0.4486
   99SAPE  H12Y10014   4.321   6.998   4.583  0.0078 -0.1115  1.1139
   99SAPE  C31310015   4.211   6.807   4.558  0.8521 -0.5504 -0.2247
   99SAPE  H13X10016   4.167   6.830   4.657  3.0363  0.6653  0.5194
   99SAPE  H13Y10017   4.231   6.698   4.562 -1.0233 -0.9167  0.5677
   99SAPE  C31410018   4.102   6.825   4.447 -0.5676 -0.0081 -0.4806
   99SAPE  H14X10019   4.141   6.799   4.347  0.2170  1.3262 -0.5406
   99SAPE  H14Y10020   4.072   6.932   4.447  0.3984  0.2692 -1.6918
   99SAPE  C31510021   3.978   6.732   4.465 -0.4587 -0.6164  0.2791
   99SAPE  H15X10022   3.934   6.762   4.563 -0.0053  1.0267  0.0137
   99SAPE  H15Y10023   4.012   6.626   4.469 -0.7843 -0.6881  1.4870
   99SAPE  C31610024   3.860   6.749   4.363  0.0332 -0.1010  0.3911
   99SAPE  H16X10025   3.801   6.840   4.389 -0.4798  0.0065 -1.0510
   99SAPE  H16Y10026   3.795   6.659   4.370  0.8367 -1.0889 -3.0619
   99SAPE  C31710027   3.911   6.760   4.217 -0.1010  0.1540 -0.3528
   99SAPE  H17X10028   3.971   6.669   4.195 -2.7356 -1.5048 -1.1041
   99SAPE  H17Y10029   3.973   6.852   4.209 -2.3642  1.7191 -0.7436
   99SAPE  C31810030   3.801   6.762   4.104 -0.2993  0.2159 -0.6217
   99SAPE  H18X10031   3.855   6.792   4.012  0.3242  1.7174  0.2029
   99SAPE  H18Y10032   3.721   6.831   4.138 -0.1004  0.1550 -0.0282
   99SAPE  H18Z10033   3.767   6.660   4.077  0.0694  0.0855 -0.6045
  100SAPE     N10034   1.621   5.485   6.184  0.5904  0.3200  0.0428
  100SAPE   HN110035   1.669   5.441   6.104  0.9700  2.8901 -1.2628
  100SAPE   HN210036   1.687   5.516   6.259 -0.2888 -2.0187  1.9235
  100SAPE   HN310037   1.565   5.420   6.242 -0.2123  0.5511 -0.4649
  100SAPE   C1210038   1.543   5.612   6.152  0.2098  0.4210  0.2162
  100SAPE  H12A10039   1.581   5.702   6.206 -2.4200 -0.0791  3.1686
  100SAPE  H12B10040   1.446   5.597   6.203  0.5843  1.0811  1.1662
  100SAPE   C1110041   1.535   5.629   6.000 -0.0140 -0.4976  0.4284
  100SAPE  H11A10042   1.476   5.722   5.983 -0.9802 -1.0262  0.8090
  100SAPE  H11B10043   1.482   5.539   5.963  0.5915 -1.0825  0.9717
  100SAPE     P10044   1.679   5.650   5.793 -0.5400 -0.0590  0.1702
  100SAPE   O1310045   1.778   5.749   5.749 -0.3953  0.2540 -0.5180
  100SAPE   O1410046   1.699   5.509   5.742 -0.5460  0.3044  0.1394
  100SAPE   O1210047   1.673   5.637   5.950  0.3351  0.3055 -0.0999
  100SAPE   O1110048   1.538   5.698   5.748  0.3967 -0.5638  0.0015
  100SAPE    C110049   1.511   5.838   5.734  0.3230  0.5887 -0.2524
  100SAPE    HA10050   1.539   5.889   5.828  0.1083 -1.5446  1.0517
  100SAPE    HB10051   1.578   5.879   5.656  0.7633 -1.1738 -0.8647
  100SAPE    C210052   1.361   5.862   5.701 -0.7214  0.1041  0.0828
  100SAPE    HS10053   1.298   5.785   5.751 -2.0765  1.4439  0.5128
  100SAPE   O2110054   1.353   5.848   5.559  0.1927 -0.3891  0.7107
  100SAPE   C2110055   1.232   5.843   5.496 -1.5207 -0.3115 -0.6995
  100SAPE   O2210056   1.124   5.836   5.554  0.2866  0.1106  0.3525
  100SAPE   C2210057   1.258   5.839   5.346 -0.8883  0.0010  0.0482
  100SAPE   H2R10058   1.297   5.939   5.318  0.2000  0.1987  2.1226
  100SAPE   H2S10059   1.334   5.759   5.335 -0.7810  0.1619 -0.4134
  100SAPE    C310060   1.317   5.998   5.757  0.2495  0.6589  0.5099
  100SAPE    HX10061   1.328   5.985   5.867 -1.1867 -0.4999  0.5410
  100SAPE    HY10062   1.208   6.018   5.749  0.2619  0.0197 -1.9459
  100SAPE   O3110063   1.400   6.112   5.723  0.2035  0.4083 -0.5212
  100SAPE   C3110064   1.376   6.162   5.605 -0.2533 -0.4134 -0.7840
  100SAPE   O3210065   1.280   6.135   5.537 -0.2959 -0.1795 -0.6139
  100SAPE   C3210066   1.476   6.275   5.577  0.2330 -0.4083  0.3251
  100SAPE   H2X10067   1.570   6.247   5.629  0.4927 -1.2261 -0.5475
  100SAPE   H2Y10068   1.428   6.366   5.617  0.4841  0.3173 -0.9652
  100SAPE   C2310069   1.123   5.805   5.278  0.0022 -0.5973 -0.0425
  100SAPE   H3R10070   1.053   5.888   5.301  0.7279  1.0129 -3.0302
  100SAPE   H3S10071   1.095   5.699   5.293  2.9542 -1.5189 -0.4929
  100SAPE   C2410072   1.127   5.797   5.127 -0.1007 -0.2403  0.2259
  100SAPE   H4R10073   1.028   5.757   5.096 -0.5086  0.0252  1.1518
  100SAPE   H4S10074   1.202   5.720   5.098  0.4494  1.8991 -5.4677
  100SAPE   C2510075   1.161   5.930   5.062 -0.1112  0.0596  0.6061
  100SAPE   H5R10076   1.231   5.994   5.119 -0.9919  0.8597  0.8125
  100SAPE   C2610077   1.117   5.970   4.936 -0.7647 -0.4165 -0.1198
  100SAPE   H6R10078   1.160   6.062   4.892 -1.5881 -0.5451 -1.2533
  100SAPE   C2710079   1.038   5.890   4.835 -0.4139  0.0248 -0.0296
  100SAPE   H7R10080   0.934   5.927   4.846 -1.2301 -1.7546 -1.3690
  100SAPE   H7S10081   1.021   5.785   4.867 -1.5295  0.2556  0.1844
  100SAPE   C2810082   1.087   5.886   4.694 -0.1373 -0.7000 -0.2128
  100SAPE   H8R10083   1.182   5.830   4.691  1.8061  2.0374  3.3426
  100SAPE   C2910084   1.020   5.937   4.588 -0.5374  0.1270  0.4025
  100SAPE   H9R10085   1.076   5.935   4.493  0.1700  0.4721  0.8064
  100SAPE  C21010086   0.899   6.030   4.586 -0.0868  0.0605 -0.1587
  100SAPE  H10R10087   0.916   6.110   4.510 -0.3217  0.6513  0.4014
  100SAPE  H10S10088   0.887   6.090   4.679 -0.9424 -1.4523  0.7423
  100SAPE  C21110089   0.762   5.965   4.566 -0.2070  0.5282 -0.1161
  100SAPE  H11R10090   0.758   5.862   4.604  0.3058  0.1116 -1.1763
  100SAPE  C21210091   0.660   6.033   4.511 -0.3651  0.5545 -0.2228
  100SAPE  H12R10092   0.561   5.986   4.503  0.0676 -0.4270  0.0199
  100SAPE  C21310093   0.659   6.175   4.448 -0.0553  0.3751  0.5516
  100SAPE  H13R10094   0.728   6.179   4.361  2.1933 -0.8974  2.1594
  100SAPE  H13S10095   0.686   6.242   4.532  0.0551  1.5761 -0.4208
  100SAPE  C21410096   0.519   6.211   4.404  0.8993  0.1567 -0.2861
  100SAPE  H14R10097   0.463   6.270   4.477 -0.7670 -4.2552  2.3652
  100SAPE  C21510098   0.460   6.194   4.284 -0.6037  0.0108  0.6019
  100SAPE  H15R10099   0.352   6.213   4.284 -0.3967  1.6556  3.2381
  100SAPE  C21610100   0.513   6.127   4.158  0.2747  0.1400 -0.1281
  100SAPE  H16R10101   0.622   6.143   4.168  0.4245 -1.7136  2.0763
  100SAPE  H16S10102   0.480   6.184   4.068 -3.1636  2.2622  2.2182
  100SAPE  C21710103   0.495   5.974   4.149  0.0712  0.2367  0.1901
  100SAPE  H17R10104   0.390   5.944   4.127  0.0309  0.1791  0.4508
  100SAPE  H17S10105   0.504   5.928   4.251 -0.8277 -1.0178 -0.2639
  100SAPE  C21810106   0.596   5.899   4.058 -0.4074  0.1518  0.1703
  100SAPE  H18R10107   0.600   5.793   4.091 -1.2094 -0.1987 -0.7916
  100SAPE  H18S10108   0.687   5.951   4.095 -0.1276 -0.2376  0.0391
  100SAPE  C21910109   0.564   5.915   3.911 -0.2634  0.6103  0.5347
  100SAPE  H19R10110   0.656   5.901   3.851 -1.3695  0.1604 -1.1390
  100SAPE  H19S10111   0.529   6.021   3.915 -1.6355  0.1563  1.3396
  100SAPE  C22010112   0.453   5.823   3.857 -0.2228 -0.1846  0.2815
  100SAPE  H20R10113   0.428   5.853   3.753  1.0871  1.4470  0.3872
  100SAPE  H20S10114   0.361   5.844   3.916  0.0776 -0.2135  0.7680
  100SAPE  H20T10115   0.469   5.713   3.862  2.4090  0.1358  0.3957
  100SAPE   C3310116   1.494   6.296   5.423  0.2964  0.1488  0.0887
  100SAPE   H3X10117   1.539   6.396   5.408  0.6545  0.0968  0.7970
  100SAPE   H3Y10118   1.392   6.314   5.381  0.3677 -1.0760 -0.6766
  100SAPE   C3410119   1.560   6.180   5.356 -0.4038 -0.5283 -0.1793
  100SAPE   H4X10120   1.489   6.095   5.348 -1.3488 -0.0441  2.1833
  100SAPE   H4Y10121   1.653   6.153   5.410 -0.3668 -0.4883 -0.2226
  100SAPE   C3510122   1.614   6.211   5.214 -0.2439 -0.3049 -0.1401
  100SAPE   H5X10123   1.690   6.140   5.174  0.0692 -2.0336  3.1751
  100SAPE   H5Y10124   1.665   6.310   5.208 -0.5162 -0.1824 -0.4153
  100SAPE   C3610125   1.501   6.221   5.117  0.5948  0.7421 -0.6450
  100SAPE   H6X10126   1.423   6.287   5.160  0.9399  1.1919 -0.7105
  100SAPE   H6Y10127   1.461   6.117   5.118  0.1157  0.8391  2.6065
  100SAPE   C3710128   1.544   6.260   4.974 -0.8089 -0.3953 -0.8939
  100SAPE   H7X10129   1.618   6.188   4.932  1.8597  1.6694  0.0242
  100SAPE   H7Y10130   1.595   6.357   4.991 -2.1067 -0.0580  1.5155
  100SAPE   C3810131   1.424   6.269   4.879  0.4191 -0.1139  0.0059
  100SAPE   H8X10132   1.359   6.356   4.902  1.1940  0.5780 -0.4081
  100SAPE   H8Y10133   1.364   6.177   4.896 -0.8677  1.0197  2.1197
  100SAPE   C3910134   1.466   6.272   4.733  0.0236  0.5309 -0.5943
  100SAPE   H9X10135   1.562   6.217   4.730 -1.0712 -1.9933  3.1350
  100SAPE   H9Y10136   1.469   6.378   4.698 -1.0150  0.8543  0.2015
  100SAPE  C31010137   1.373   6.195   4.639  0.0220  0.1447  0.4525
  100SAPE  H10X10138   1.278   6.253   4.638 -1.4443 -2.0958  0.0029
  100SAPE  H10Y10139   1.345   6.094   4.677 -1.0148 -0.4304 -1.6453
  100SAPE  C31110140   1.411   6.173   4.494  0.1346  0.5846 -0.2408
  100SAPE  H11X10141   1.495   6.101   4.484 -0.0435  0.4966 -1.2137
  100SAPE  H11Y10142   1.454   6.266   4.450  2.2155 -0.3878 -0.3619
  100SAPE  C31210143   1.305   6.126   4.390  0.1920  0.9582  0.5590
  100SAPE  H12X10144   1.261   6.030   4.425 -0.3878 -0.2817 -3.2086
  100SAPE  H12Y10145   1.355   6.094   4.297  0.2980 -0.1809  0.9851
  100SAPE  C31310146   1.186   6.218   4.370 -0.2660  0.5617 -0.0113
  100SAPE  H13X10147   1.230   6.315   4.340  0.4636  0.9534  2.1522
  100SAPE  H13Y10148   1.156   6.235   4.476  3.1700 -0.6074  1.2735
  100SAPE  C31410149   1.071   6.169   4.279 -0.1259 -0.1543 -0.7371
  100SAPE  H14X10150   0.993   6.248   4.289 -0.5332 -0.6818  0.6476
  100SAPE  H14Y10151   1.033   6.073   4.320  2.2844 -1.3485 -1.1144
  100SAPE  C31510152   1.097   6.141   4.132  0.1903 -0.2920 -0.2368
  100SAPE  H15X10153   1.180   6.068   4.127  1.6551  1.2206  0.7006
  100SAPE  H15Y10154   1.136   6.227   4.073  0.0902  0.9166  1.4040
  100SAPE  C31610155   0.963   6.108   4.064  0.0185 -0.4788  0.2668
  100SAPE  H16X10156   0.884   6.178   4.098 -1.5502 -1.8912 -0.3165
  100SAPE  H16Y10157   0.926   6.006   4.088 -2.4233 -0.0603 -1.3298
  100SAPE  C31710158   0.972   6.124   3.914 -0.4943  0.1589  0.1055
  100SAPE  H17X10159   1.044   6.203   3.882 -1.6665  0.5235 -1.8220
  100SAPE  H17Y10160   0.875   6.164   3.877 -0.1882  1.9721  1.1303
  100SAPE  C31810161   1.001   5.996   3.841  0.2629 -0.4705 -0.2036
  100SAPE  H18X10162   0.916   5.924   3.848  0.2291 -0.3952  0.1804
  100SAPE  H18Y10163   1.094   5.950   3.880  0.7862  1.4154  0.8991
  100SAPE  H18Z10164   1.012   6.020   3.733  1.8981  2.0848  0.4570
  101SAPE     N10165   0.053   0.722   5.885 -0.7436  0.4234 -0.0704
  101SAPE   HN110166  -0.040   0.751   5.848 -0.7619 -3.1855 -3.5040
  101SAPE   HN210167   0.046   0.619   5.899 -0.8288  0.5669  1.1016
  101SAPE   HN310168   0.079   0.760   5.979  1.0719 -0.0588 -0.3375
  101SAPE   C1210169   0.155   0.765   5.787 -0.0334 -0.8131  0.5750
  101SAPE  H12A10170   0.139   0.870   5.755 -2.0030 -1.5355 -1.0127
  101SAPE  H12B10171   0.153   0.716   5.687  3.2518  0.0026 -0.0284
  101SAPE   C1110172   0.298   0.737   5.837  0.0548 -0.4249 -0.6603
  101SAPE  H11A10173   0.378   0.745   5.760  0.9214 -0.4802  0.2140
  101SAPE  H11B10174   0.310   0.632   5.873  0.3410  0.4831  2.0576
  101SAPE     P10175   0.426   0.935   5.958  0.3982 -0.5472  0.2925
  101SAPE   O1310176   0.411   0.994   6.092 -0.8446 -0.3068  0.0189
  101SAPE   O1410177   0.558   0.895   5.905  0.0596  0.2453  0.0098
  101SAPE   O1210178   0.324   0.818   5.951  0.4681 -0.1393 -0.2867
  101SAPE   O1110179   0.367   1.034   5.850 -0.0282  0.3722 -0.1954
  101SAPE    C110180   0.257   1.119   5.880 -0.0972 -1.1889 -0.8106
  101SAPE    HA10181   0.164   1.073   5.840  0.7175 -2.3193 -1.4468
  101SAPE    HB10182   0.243   1.145   5.987 -0.3438  1.4140 -1.4036
  101SAPE    C210183   0.275   1.254   5.804 -0.9537 -0.3546 -0.0967
  101SAPE    HS10184   0.176   1.305   5.810 -0.9239 -0.2839 -0.1949
  101SAPE   O2110185   0.310   1.227   5.667 -0.0383 -0.2879 -0.7655
  101SAPE   C2110186   0.285   1.317   5.576  0.2444 -0.1861  0.2233
  101SAPE   O2210187   0.224   1.423   5.588 -0.0151 -0.5805 -0.5337
  101SAPE   C2210188   0.339   1.267   5.443  1.2094 -0.4203  0.4385
  101SAPE   H2R10189   0.385   1.167   5.460 -3.3226 -2.9796 -0.7127
  101SAPE   H2S10190   0.258   1.259   5.368 -0.1609  0.9187  1.7112
  101SAPE    C310191   0.387   1.339   5.870  0.8042 -0.2133  0.2623
  101SAPE    HX10192   0.462   1.274   5.919 -2.2337 -1.9280  3.0796
  101SAPE    HY10193   0.334   1.379   5.960 -1.2385  1.2160 -1.4639
  101SAPE   O3110194   0.454   1.439   5.786 -0.3513 -0.4951  0.1640
  101SAPE   C3110195   0.445   1.562   5.817 -0.0854  0.3099  0.1315
  101SAPE   O3210196   0.411   1.603   5.929  0.3032  0.7919  0.0502
  101SAPE   C3210197   0.497   1.644   5.695 -0.0315  0.2999  0.5385
  101SAPE   H2X10198   0.424   1.723   5.668 -0.5886 -0.3918 -0.0412
  101SAPE   H2Y10199   0.490   1.579   5.605  0.4504  2.3645 -1.0728
  101SAPE   C2310200   0.438   1.363   5.374 -0.4481  0.3340 -0.2173
  101SAPE   H3R10201   0.390   1.461   5.353  0.6885  1.1121  0.6927
  101SAPE   H3S10202   0.453   1.328   5.270 -2.1632  2.0644 -1.1021
  101SAPE   C2410203   0.582   1.364   5.428  0.2589 -0.2220 -0.3109
  101SAPE   H4R10204   0.638   1.274   5.394 -0.5707 -0.4917 -1.0263
  101SAPE   H4S10205   0.580   1.371   5.539 -1.9671  2.5862 -0.4226
  101SAPE   C2510206   0.651   1.490   5.384 -0.3061 -0.1476  0.2946
  101SAPE   H5R10207   0.600   1.582   5.418  0.3041  0.7825 -1.1963
  101SAPE   C2610208   0.768   1.507   5.310  0.3037 -0.2960 -0.4622
  101SAPE   H6R10209   0.805   1.610   5.294  2.0210 -0.7662  0.1752
  101SAPE   C2710210   0.868   1.399   5.258 -0.0319 -0.0703 -0.0693
  101SAPE   H7R10211   0.860   1.398   5.148 -2.7220 -0.4335  0.0611
  101SAPE   H7S10212   0.839   1.296   5.288 -1.5769  0.8009  1.6479
  101SAPE   C2810213   1.004   1.434   5.313 -0.0542  0.1245  0.1834
  101SAPE   H8R10214   1.022   1.406   5.418 -1.5509 -0.4995  0.2920
  101SAPE   C2910215   1.108   1.499   5.266 -0.1429 -0.5601  0.2326
  101SAPE   H9R10216   1.202   1.505   5.324 -1.0557  2.2929  1.5876
  101SAPE  C21010217   1.110   1.558   5.129  0.0334 -0.1375 -0.6251
  101SAPE  H10R10218   1.020   1.525   5.072  0.0142 -0.7182 -0.2689
  101SAPE  H10S10219   1.195   1.511   5.075 -0.5968 -2.5177  0.3357
  101SAPE  C21110220   1.119   1.714   5.123  0.4251  0.2640 -0.4541
  101SAPE  H11R10221   1.081   1.764   5.214  2.7854  0.4423  0.4854
  101SAPE  C21210222   1.185   1.781   5.031 -0.8320 -0.3124  0.2130
  101SAPE  H12R10223   1.217   1.883   5.054  0.7461 -0.1917 -2.2593
  101SAPE  C21310224   1.260   1.721   4.914 -0.1200  0.3433 -0.2512
  101SAPE  H13R10225   1.185   1.670   4.849  1.1029 -0.9629 -0.7070
  101SAPE  H13S10226   1.323   1.640   4.956  0.8214  0.2310 -1.7837
  101SAPE  C21410227   1.350   1.813   4.837 -0.8677 -0.2781  0.0813
  101SAPE  H14R10228   1.413   1.881   4.896  1.1872 -0.7236 -1.4804
  101SAPE  C21510229   1.371   1.819   4.707 -0.4058  0.7045  0.7631
  101SAPE  H15R10230   1.434   1.897   4.663 -1.6508  0.4126 -1.6697
  101SAPE  C21610231   1.310   1.734   4.597  0.2519  0.0030  0.7600
  101SAPE  H16R10232   1.253   1.799   4.527  1.1534  0.2837  0.2730
  101SAPE  H16S10233   1.248   1.652   4.639 -2.1826  0.1125 -2.2274
  101SAPE  C21710234   1.427   1.667   4.520 -0.2903  0.1640 -0.0234
  101SAPE  H17R10235   1.385   1.577   4.469  1.5285  0.1769 -1.6921
  101SAPE  H17S10236   1.516   1.627   4.572 -0.9065 -1.0182  0.1543
  101SAPE  C21810237   1.475   1.760   4.409  0.7762  0.4616 -0.1407
  101SAPE  H18R10238   1.503   1.861   4.445 -0.1843  0.3059  1.0874
  101SAPE  H18S10239   1.388   1.770   4.340  0.1770 -0.8533  0.4002
  101SAPE  C21910240   1.589   1.710   4.326 -0.0812 -0.3800  0.5590
  101SAPE  H19R10241   1.558   1.613   4.281  1.0357 -0.1848 -0.7189
  101SAPE  H19S10242   1.682   1.693   4.385  1.9573  0.8561 -2.0898
  101SAPE  C22010243   1.644   1.796   4.206 -0.9385 -0.2758 -0.3629
  101SAPE  H20R10244   1.579   1.776   4.118  1.0312 -0.9321 -1.7463
  101SAPE  H20S10245   1.744   1.753   4.187 -0.4071 -1.2462  3.7390
  101SAPE  H20T10246   1.648   1.907   4.218 -0.7256 -0.4397  1.2758
  101SAPE   C3310247   0.628   1.706   5.736 -0.5241 -0.1655  0.2123
  101SAPE   H3X10248   0.694   1.636   5.792  1.2962  0.7941 -0.6794
  101SAPE   H3Y10249   0.620   1.786   5.813  0.6328 -0.8239  1.0492
  101SAPE   C3410250   0.708   1.771   5.616 -0.2066 -0.1879  0.6756
  101SAPE   H4X10251   0.638   1.826   5.550  1.5982 -1.8427 -2.9336
  101SAPE   H4Y10252   0.760   1.702   5.546  0.3097  1.1433 -0.2695
  101SAPE   C3510253   0.822   1.873   5.654 -0.4496  0.8940  0.3908
  101SAPE   H5X10254   0.899   1.820   5.714 -0.4919 -0.8276 -0.9748
  101SAPE   H5Y10255   0.775   1.942   5.727 -0.2984 -0.3995  1.7570
  101SAPE   C3610256   0.889   1.936   5.527  0.6628  0.5369 -0.6459
  101SAPE   H6X10257   0.925   2.035   5.563 -0.9861  1.3980 -1.2496
  101SAPE   H6Y10258   0.814   1.961   5.449  0.0493  2.2070  0.4083
  101SAPE   C3710259   1.019   1.860   5.481 -0.0929  0.3705  0.1416
  101SAPE   H7X10260   1.035   1.880   5.373 -1.3901  0.5246 -0.0476
  101SAPE   H7Y10261   0.984   1.754   5.482  3.0116 -0.7553 -0.2406
  101SAPE   C3810262   1.144   1.870   5.568  0.0621 -0.4488  0.3006
  101SAPE   H8X10263   1.221   1.804   5.523  0.2444  1.0105 -1.6435
  101SAPE   H8Y10264   1.117   1.843   5.672 -0.1307 -2.6211 -0.2595
  101SAPE   C3910265   1.214   2.007   5.584 -0.3589 -0.6474  0.4705
  101SAPE   H9X10266   1.308   1.979   5.636 -1.4320 -2.5158  1.5194
  101SAPE   H9Y10267   1.154   2.077   5.646 -0.8279  0.9949 -1.7092
  101SAPE  C31010268   1.241   2.091   5.455  0.3849  0.3130 -0.8061
  101SAPE  H10X10269   1.283   2.192   5.473 -0.6940  0.8644 -1.2791
  101SAPE  H10Y10270   1.146   2.099   5.398 -0.6456 -2.1435  0.3724
  101SAPE  C31110271   1.335   2.017   5.364 -0.1572 -0.4398  0.6230
  101SAPE  H11X10272   1.278   1.934   5.317 -1.3862  0.1059  1.1097
  101SAPE  H11Y10273   1.412   1.966   5.426  0.8679 -2.5277 -2.1557
  101SAPE  C31210274   1.414   2.106   5.261 -0.4408 -0.0213  0.0803
  101SAPE  H12X10275   1.472   2.188   5.309  1.3993  0.1728 -2.3038
  101SAPE  H12Y10276   1.359   2.167   5.187  2.5885  1.5795 -0.9972
  101SAPE  C31310277   1.524   2.022   5.190  0.6994  0.3866  0.2137
  101SAPE  H13X10278   1.490   1.921   5.158  1.0473 -0.1847  1.5794
  101SAPE  H13Y10279   1.599   1.994   5.267  0.3903 -0.3051  0.2692
  101SAPE  C31410280   1.597   2.089   5.076  0.5868 -0.2129 -0.1289
  101SAPE  H14X10281   1.652   2.178   5.114 -1.0895  0.2082  1.4424
  101SAPE  H14Y10282   1.535   2.126   4.992 -0.7868 -3.0415 -0.4693
  101SAPE  C31510283   1.703   2.000   5.006  0.2665 -0.2040  0.4082
  101SAPE  H15X10284   1.659   1.901   4.986  0.3093 -0.2076  0.3307
  101SAPE  H15Y10285   1.783   1.990   5.083 -0.2896 -1.6706  0.8220
  101SAPE  C31610286   1.776   2.050   4.888 -0.0102 -0.6806  0.6172
  101SAPE  H16X10287   1.882   2.017   4.889  0.9095  1.9558  2.9777
  101SAPE  H16Y10288   1.777   2.161   4.899  2.9604 -0.4887 -0.6134
  101SAPE  C31710289   1.703   1.994   4.758  0.2057 -0.0683  0.4389
  101SAPE  H17X10290   1.597   2.028   4.755 -0.4571 -2.0477  0.4070
  101SAPE  H17Y10291   1.702   1.883   4.755  0.1378 -0.1028  1.3624
  101SAPE  C31810292   1.772   2.049   4.630 -0.2374  0.0382 -0.3162
  101SAPE  H18X10293   1.721   2.017   4.537  1.4400 -0.9146 -0.9542
  101SAPE  H18Y10294   1.879   2.022   4.622 -0.1017  0.8565 -1.4919
  101SAPE  H18Z10295   1.768   2.160   4.638  2.4185  0.2332 -0.8489
  102SAPE     N10296   6.395   1.350   5.878  0.2703 -0.0253  0.4113
  102SAPE   HN110297   6.476   1.398   5.833  1.4085 -1.3016  0.9994
  102SAPE   HN210298   6.326   1.421   5.906 -2.7920 -1.3659 -2.9012
  102SAPE   HN310299   6.448   1.300   5.952  1.4539 -0.9884 -1.0088
  102SAPE   C1210300   6.324   1.251   5.797  0.2422  0.0889 -0.4889
  102SAPE  H12A10301   6.301   1.304   5.702 -1.4526  1.5523  0.6641
  102SAPE  H12B10302   6.224   1.236   5.843 -0.3319 -0.5597 -1.8727
  102SAPE   C1110303   6.402   1.120   5.794 -0.4562 -0.7875  0.6535
  102SAPE  H11A10304   6.505   1.152   5.769 -1.3239  0.5854 -1.3937
  102SAPE  H11B10305   6.368   1.049   5.715 -1.7825  0.6082 -0.0795
  102SAPE     P10306   6.502   1.058   6.012  0.4236  0.2540 -0.1450
  102SAPE   O1310307   6.516   1.201   6.050  0.3636 -0.0398 -0.0006
  102SAPE   O1410308   6.482   0.959   6.116 -0.4629  0.3460 -0.0389
  102SAPE   O1210309   6.378   1.060   5.917  0.3754  0.1865 -0.2557
  102SAPE   O1110310   6.620   1.018   5.927  0.1335 -0.5083  0.0870
  102SAPE    C110311   6.622   0.903   5.849  0.1930  0.0982 -0.2297
  102SAPE    HA10312   6.551   0.823   5.881 -2.1483  0.4043 -4.0858
  102SAPE    HB10313   6.585   0.921   5.746 -1.4423 -1.9780 -0.0798
  102SAPE    C210314   6.761   0.835   5.835 -0.5891 -1.3201  0.3826
  102SAPE    HS10315   6.812   0.852   5.932  1.3017  0.2893 -0.8157
  102SAPE   O2110316   6.828   0.892   5.720 -0.5191  0.4213  0.0188
  102SAPE   C2110317   6.953   0.895   5.722 -0.1559  0.3354 -0.0475
  102SAPE   O2210318   7.028   0.850   5.810 -0.2275  0.6032 -0.2949
  102SAPE   C2210319   6.997   0.955   5.581  0.1216 -0.5159 -0.3027
  102SAPE   H2R10320   6.946   0.895   5.501 -0.0032 -0.8357  0.0131
  102SAPE   H2S10321   6.942   1.051   5.585 -1.9835 -1.6886  1.6782
  102SAPE    C310322   6.755   0.680   5.831  0.2621 -1.0009  0.6751
  102SAPE    HX10323   6.716   0.662   5.933  0.1398  0.0292  0.8214
  102SAPE    HY10324   6.852   0.628   5.820  0.3012 -0.4687 -3.3580
  102SAPE   O3110325   6.661   0.618   5.736  0.4185 -0.5819  0.1813
  102SAPE   C3110326   6.717   0.604   5.611  0.3088  0.1165 -0.0643
  102SAPE   O3210327   6.833   0.624   5.587  0.1626 -0.1308 -0.0756
  102SAPE   C3210328   6.616   0.558   5.503  0.2623  0.0068 -0.3723
  102SAPE   H2X10329   6.591   0.462   5.552  0.2882  0.2909  0.2058
  102SAPE   H2Y10330   6.667   0.547   5.405  1.1843  1.6289 -0.1039
  102SAPE   C2310331   7.153   0.965   5.575 -0.1861  0.0046  0.8121
  102SAPE   H3R10332   7.199   0.865   5.565 -1.2230 -0.3901 -0.4314
  102SAPE   H3S10333   7.193   1.016   5.665  1.1715 -2.0288  1.4079
  102SAPE   C2410334   7.198   1.051   5.459  0.1509  0.2207  0.1352
  102SAPE   H4R10335   7.184   1.156   5.490 -0.4490  0.0298  0.5350
  102SAPE   H4S10336   7.139   1.033   5.367 -0.9125  0.9263  0.6626
  102SAPE   C2510337   7.345   1.021   5.441  0.4265  0.2419 -0.5658
  102SAPE   H5R10338   7.401   1.015   5.535  2.2202  0.4261 -1.5855
  102SAPE   C2610339   7.399   1.000   5.315  0.0264  0.2332  0.4037
  102SAPE   H6R10340   7.507   0.978   5.325  0.1038  1.1227  1.9570
  102SAPE   C2710341   7.345   1.010   5.177  0.1468  1.0381 -0.0245
  102SAPE   H7R10342   7.252   1.070   5.181  0.3494  1.3565 -0.0830
  102SAPE   H7S10343   7.311   0.909   5.144 -0.7010  1.6738 -1.1653
  102SAPE   C2810344   7.450   1.059   5.078  0.2993  0.5084  0.6094
  102SAPE   H8R10345   7.550   1.085   5.116  1.1885  0.1336 -1.3732
  102SAPE   C2910346   7.436   1.073   4.944  0.0491 -0.3339  0.1440
  102SAPE   H9R10347   7.518   1.119   4.885 -0.9671  1.1067 -0.1979
  102SAPE  C21010348   7.307   1.043   4.868 -0.1962  0.1728 -0.3737
  102SAPE  H10R10349   7.255   0.952   4.904 -0.9461 -0.1998 -2.3038
  102SAPE  H10S10350   7.346   1.020   4.767  1.1160  1.7082 -0.2710
  102SAPE  C21110351   7.212   1.157   4.858  0.3820  0.8718 -0.0703
  102SAPE  H11R10352   7.203   1.219   4.948 -0.2160  0.6578  0.0234
  102SAPE  C21210353   7.118   1.176   4.756 -0.5192  0.1466 -0.1702
  102SAPE  H12R10354   7.053   1.264   4.754 -1.9945 -0.9081 -0.3464
  102SAPE  C21310355   7.104   1.076   4.644  0.1002 -0.4096  0.1641
  102SAPE  H13R10356   7.017   1.011   4.665  1.2480 -2.9999 -2.4491
  102SAPE  H13S10357   7.183   0.998   4.639  0.0406 -0.4942  0.5031
  102SAPE  C21410358   7.084   1.143   4.505  0.6060 -0.5230 -0.4186
  102SAPE  H14R10359   7.048   1.246   4.517  1.5865 -0.1954 -0.1939
  102SAPE  C21510360   7.085   1.086   4.386  0.5594 -0.3924  0.5216
  102SAPE  H15R10361   7.073   1.144   4.293  0.9826 -2.8093 -1.1243
  102SAPE  C21610362   7.107   0.940   4.357 -0.3370 -0.4551 -0.2255
  102SAPE  H16R10363   7.118   0.872   4.444  1.9628 -1.2976 -1.1004
  102SAPE  H16S10364   7.208   0.933   4.312 -1.0733 -1.0677 -1.9098
  102SAPE  C21710365   7.000   0.886   4.268  0.3666  0.5980 -0.1929
  102SAPE  H17R10366   6.906   0.896   4.327 -0.5600  2.3291 -1.8481
  102SAPE  H17S10367   7.025   0.779   4.252 -2.7366  0.0735 -2.6041
  102SAPE  C21810368   6.956   0.956   4.137  0.4848  0.1907 -0.3877
  102SAPE  H18R10369   7.056   0.969   4.091  0.7712 -0.4855  0.0299
  102SAPE  H18S10370   6.900   1.047   4.168 -1.2918 -1.0187  0.1339
  102SAPE  C21910371   6.862   0.882   4.045  0.5421 -0.3879 -0.0228
  102SAPE  H19R10372   6.839   0.956   3.967 -0.7387  1.0793  1.6683
  102SAPE  H19S10373   6.760   0.866   4.086  0.9447 -2.2345  0.3968
  102SAPE  C22010374   6.916   0.748   3.995  0.5093  0.1870  0.1349
  102SAPE  H20R10375   7.020   0.770   3.960  1.4147  0.0528  2.5688
  102SAPE  H20S10376   6.859   0.702   3.911  1.6881 -1.9616  0.4145
  102SAPE  H20T10377   6.932   0.679   4.081 -2.2743  2.1522  2.4280
  102SAPE   C3310378   6.505   0.664   5.489  0.2217 -0.9506  0.2501
  102SAPE   H3X10379   6.454   0.683   5.586  1.1667  0.7896  0.4293
  102SAPE   H3Y10380   6.427   0.627   5.420  0.8944 -1.3043 -0.3283
  102SAPE   C3410381   6.560   0.801   5.447 -0.8935  0.0017 -0.2021
  102SAPE   H4X10382   6.616   0.857   5.525  0.2135  0.3536 -1.2083
  102SAPE   H4Y10383   6.472   0.860   5.414  0.2832  1.6056 -0.6208
  102SAPE   C3510384   6.661   0.797   5.329 -0.6110 -0.2893 -0.0809
  102SAPE   H5X10385   6.609   0.767   5.235  0.1290  1.0730 -0.9679
  102SAPE   H5Y10386   6.746   0.733   5.360 -0.6330  0.5525  1.8450
  102SAPE   C3610387   6.725   0.932   5.296  0.1276 -0.8041  0.2380
  102SAPE   H6X10388   6.785   0.968   5.382  1.1175 -2.1667  0.1515
  102SAPE   H6Y10389   6.647   1.007   5.272  1.4016 -0.3960 -3.2253
  102SAPE   C3710390   6.811   0.938   5.164  0.7326  0.9739  0.6951
  102SAPE   H7X10391   6.852   1.040   5.149  1.3980  0.7015  0.5979
  102SAPE   H7Y10392   6.747   0.921   5.075  1.0569 -1.0800  0.7972
  102SAPE   C3810393   6.922   0.831   5.160 -0.1166 -0.0303  0.5241
  102SAPE   H8X10394   6.873   0.731   5.155  0.2798 -0.1964 -0.2823
  102SAPE   H8Y10395   6.976   0.843   5.256  1.6898  3.7533 -0.7674
  102SAPE   C3910396   7.031   0.862   5.050 -0.2202  0.6035  0.4304
  102SAPE   H9X10397   7.114   0.792   5.069  0.3877  0.1125 -3.2653
  102SAPE   H9Y10398   7.081   0.961   5.059  3.2553 -1.0588  0.8080
  102SAPE  C31010399   6.977   0.845   4.908  0.0739 -0.1637 -0.4196
  102SAPE  H10X10400   7.065   0.850   4.840 -0.2800 -0.8821 -0.9352
  102SAPE  H10Y10401   6.923   0.939   4.884  2.7768  2.2869  2.2169
  102SAPE  C31110402   6.898   0.720   4.892  0.3781  0.1481  0.1456
  102SAPE  H11X10403   6.806   0.725   4.954 -0.1729  0.0532 -0.6524
  102SAPE  H11Y10404   6.961   0.633   4.923  1.2859  0.3251 -1.1147
  102SAPE  C31210405   6.851   0.701   4.741 -0.7077 -0.5458 -0.3729
  102SAPE  H12X10406   6.942   0.706   4.679 -0.1865  0.2025  0.4312
  102SAPE  H12Y10407   6.802   0.797   4.714  2.0140  0.7891 -0.8790
  102SAPE  C31310408   6.767   0.584   4.709  0.2845  0.6417 -0.6048
  102SAPE  H13X10409   6.722   0.592   4.608 -0.0289  1.9793 -0.3843
  102SAPE  H13Y10410   6.690   0.571   4.788  0.9230  0.4413  0.0004
  102SAPE  C31410411   6.850   0.452   4.699 -0.5962  0.2058  0.0476
  102SAPE  H14X10412   6.915   0.439   4.788  3.3102  0.2983 -2.5151
  102SAPE  H14Y10413   6.915   0.454   4.609 -0.1703 -0.3869  0.3398
  102SAPE  C31510414   6.752   0.334   4.702 -0.1682  0.8746 -0.7068
  102SAPE  H15X10415   6.675   0.337   4.621 -0.8111 -1.6014 -0.2937
  102SAPE  H15Y10416   6.709   0.346   4.803  2.7455 -0.5164  0.8164
  102SAPE  C31610417   6.818   0.201   4.708 -0.3276  0.0814  0.1493
  102SAPE  H16X10418   6.903   0.211   4.780  2.2288 -1.1651 -2.4685
  102SAPE  H16Y10419   6.856   0.177   4.606 -0.8022 -1.7187  0.3606
  102SAPE  C31710420   6.722   0.091   4.748  1.0486  0.4942  0.4022
  102SAPE  H17X10421   6.631   0.104   4.686  0.3302 -1.0460  1.0772
  102SAPE  H17Y10422   6.687   0.116   4.851  1.6191 -0.9326  0.9700
  102SAPE  C31810423   6.769  -0.056   4.745 -0.0625  0.2394  0.9083
  102SAPE  H18X10424   6.711  -0.128   4.806 -1.9239 -1.0319 -2.1292
  102SAPE  H18Y10425   6.869  -0.057   4.792 -0.1954  2.4546  1.3529
  102SAPE  H18Z10426   6.763  -0.094   4.641  0.1867  0.1339  0.9317
  103SAPE     N10427   2.875   4.103   1.635 -0.0173 -0.3579 -0.7223
  103SAPE   HN110428   2.788   4.124   1.687  0.3971  0.9593 -0.5346
  103SAPE   HN210429   2.960   4.119   1.693 -1.6654  1.2393  1.3875
  103SAPE   HN310430   2.877   4.163   1.551 -0.1885  1.6045  0.6211
  103SAPE   C1210431   2.882   3.958   1.602 -0.2052  0.1830  0.1393
  103SAPE  H12A10432   2.990   3.932   1.595 -0.0273 -0.3437  3.2953
  103SAPE  H12B10433   2.837   3.949   1.501 -2.2299 -0.2573  1.0403
  103SAPE   C1110434   2.804   3.863   1.696 -0.7175  0.0262  0.3566
  103SAPE  H11A10435   2.835   3.874   1.802 -1.2760  0.8584  0.4449
  103SAPE  H11B10436   2.836   3.759   1.674  1.6773  0.9869 -1.2404
  103SAPE     P10437   2.585   3.980   1.780 -0.3099  0.3306  0.3212
  103SAPE   O1310438   2.667   4.104   1.796  0.1391  0.4199 -0.4343
  103SAPE   O1410439   2.443   3.999   1.743  0.6805 -0.5550  0.2403
  103SAPE   O1210440   2.662   3.887   1.675  0.3032 -0.2563 -0.1412
  103SAPE   O1110441   2.586   3.906   1.922  0.0843  0.2654 -0.1660
  103SAPE    C110442   2.675   3.946   2.031 -0.1195 -0.3591 -0.8765
  103SAPE    HA10443   2.777   3.974   1.996 -0.3839  3.7325  0.9799
  103SAPE    HB10444   2.631   4.037   2.078  2.2718  0.2043  0.4317
  103SAPE    C210445   2.684   3.831   2.132  0.1217  0.1943  0.4015
  103SAPE    HS10446   2.721   3.743   2.074  1.4574  0.0165  1.4651
  103SAPE   O2110447   2.553   3.805   2.180 -0.1740 -0.5133  0.1509
  103SAPE   C2110448   2.528   3.691   2.247  0.1384  0.4569  0.0486
  103SAPE   O2210449   2.599   3.592   2.248  0.7400 -0.0217 -0.2306
  103SAPE   C2210450   2.380   3.706   2.306 -0.2904  0.0049  0.0504
  103SAPE   H2R10451   2.377   3.791   2.378 -3.1602 -1.3485  1.6787
  103SAPE   H2S10452   2.321   3.740   2.219  0.9747 -0.1973 -0.9289
  103SAPE    C310453   2.792   3.856   2.243  0.4395 -1.0954  0.2634
  103SAPE    HX10454   2.891   3.842   2.195  0.5253  1.2163 -0.3253
  103SAPE    HY10455   2.778   3.779   2.323 -0.6514 -0.0281  1.1374
  103SAPE   O3110456   2.788   3.985   2.299 -0.1999  0.0727  0.1673
  103SAPE   C3110457   2.894   4.060   2.330 -0.1077  0.8241  0.0066
  103SAPE   O3210458   3.011   4.022   2.326 -0.5324  0.3149  0.4204
  103SAPE   C3210459   2.841   4.195   2.380  0.3442 -0.6996  0.3211
  103SAPE   H2X10460   2.770   4.181   2.464 -1.0587 -1.4143 -0.9271
  103SAPE   H2Y10461   2.775   4.232   2.298  0.4378 -0.3077  0.4214
  103SAPE   C2310462   2.330   3.581   2.378  0.1669  0.0814  0.0183
  103SAPE   H3R10463   2.355   3.480   2.341 -1.9085 -0.5392  0.1768
  103SAPE   H3S10464   2.222   3.586   2.353  0.3834  2.4368 -0.7368
  103SAPE   C2410465   2.354   3.602   2.524  0.6881  0.1080  0.1873
  103SAPE   H4R10466   2.310   3.521   2.585  0.5870  2.5584  3.6456
  103SAPE   H4S10467   2.282   3.683   2.547  1.2877  0.8157 -0.3430
  103SAPE   C2510468   2.496   3.610   2.564 -0.4280 -0.4609 -0.4109
  103SAPE   H5R10469   2.562   3.547   2.503 -0.7484 -0.6216 -0.5964
  103SAPE   C2610470   2.558   3.695   2.645  0.8709  0.2215  0.1773
  103SAPE   H6R10471   2.664   3.672   2.662  0.4264 -1.8167  0.3573
  103SAPE   C2710472   2.483   3.806   2.722 -0.2789 -0.6646  0.2075
  103SAPE   H7R10473   2.466   3.781   2.828 -0.2548  0.5504  0.5131
  103SAPE   H7S10474   2.379   3.825   2.685 -0.4798  0.4225  1.2971
  103SAPE   C2810475   2.568   3.932   2.713  0.2686 -0.1987 -0.3061
  103SAPE   H8R10476   2.650   3.924   2.640  0.4472 -0.6992 -0.0627
  103SAPE   C2910477   2.560   4.051   2.776  0.1827 -1.2996  0.2034
  103SAPE   H9R10478   2.628   4.136   2.760 -1.8029  0.9700  2.8348
  103SAPE  C21010479   2.448   4.068   2.878 -0.0198  0.5338 -0.2540
  103SAPE  H10R10480   2.498   4.018   2.964  2.7721  2.0716 -0.8689
  103SAPE  H10S10481   2.361   4.008   2.844 -0.1006  1.6643 -2.1506
  103SAPE  C21110482   2.412   4.211   2.909  0.0445  0.1563  0.5591
  103SAPE  H11R10483   2.490   4.278   2.870  0.1672 -0.3640 -0.1104
  103SAPE  C21210484   2.313   4.250   2.990 -0.1668  0.2143  0.1115
  103SAPE  H12R10485   2.292   4.356   3.012  0.5776 -0.0948  2.6023
  103SAPE  C21310486   2.222   4.149   3.054 -0.5788 -0.3817 -0.6393
  103SAPE  H13R10487   2.272   4.050   3.063  1.7965  0.7903 -0.1791
  103SAPE  H13S10488   2.129   4.133   2.995 -1.8194 -0.2950  1.1928
  103SAPE  C21410489   2.179   4.194   3.193 -0.1047 -0.6844 -0.1468
  103SAPE  H14R10490   2.257   4.248   3.249 -0.2348 -1.2175  0.5629
  103SAPE  C21510491   2.066   4.172   3.256 -0.0383  0.1198 -0.1224
  103SAPE  H15R10492   2.046   4.228   3.348  0.2976 -0.8378  0.5502
  103SAPE  C21610493   1.948   4.087   3.213 -0.3757 -0.4619 -0.3913
  103SAPE  H16R10494   1.975   4.038   3.117  1.4155 -1.4893  0.5911
  103SAPE  H16S10495   1.854   4.145   3.201 -0.5429 -0.5322  0.5241
  103SAPE  C21710496   1.920   3.972   3.308  0.1739  0.0490  0.0386
  103SAPE  H17R10497   1.993   3.892   3.283 -0.0479  0.4325 -2.0010
  103SAPE  H17S10498   1.833   3.918   3.265 -0.1172  0.0002  0.6760
  103SAPE  C21810499   1.910   3.992   3.460 -0.6327  0.4574  0.2851
  103SAPE  H18R10500   1.839   4.074   3.485  1.6319  2.2637  1.1326
  103SAPE  H18S10501   2.005   4.026   3.507 -0.5014  0.2464  0.1748
  103SAPE  C21910502   1.864   3.865   3.538 -0.0510 -0.3645 -0.3576
  103SAPE  H19R10503   1.939   3.786   3.516 -0.1819 -0.4352 -0.5532
  103SAPE  H19S10504   1.771   3.836   3.486  0.1091 -0.0696 -0.8192
  103SAPE  C22010505   1.842   3.898   3.691  0.1449 -0.1456 -0.0856
  103SAPE  H20R10506   1.931   3.953   3.728  1.1860 -1.0849 -1.0882
  103SAPE  H20S10507   1.858   3.800   3.739 -1.3506 -0.5031 -0.2778
  103SAPE  H20T10508   1.742   3.939   3.717 -0.7122 -0.8778 -1.9989
  103SAPE   C3310509   2.951   4.306   2.396 -0.5548  0.0122 -0.1366
  103SAPE   H3X10510   2.904   4.407   2.392  3.0597  1.8852 -0.7346
  103SAPE   H3Y10511   3.017   4.305   2.306 -1.0538 -0.5000 -0.5010
  103SAPE   C3410512   3.034   4.302   2.527  0.0519 -0.2127 -0.8775
  103SAPE   H4X10513   3.107   4.386   2.529 -0.1881  0.0264  1.5211
  103SAPE   H4Y10514   3.097   4.210   2.541 -0.1353 -0.2162  0.0477
  103SAPE   C3510515   2.938   4.318   2.654 -1.1031  0.2593  0.1173
  103SAPE   H5X10516   2.858   4.241   2.663 -0.9561  0.0763 -0.1385
  103SAPE   H5Y10517   2.884   4.414   2.638 -0.3082  0.9548  1.4275
  103SAPE   C3610518   3.007   4.341   2.791 -0.1320 -0.6477  0.6192
  103SAPE   H6X10519   3.089   4.412   2.766 -0.7985  0.0039  0.2856
  103SAPE   H6Y10520   3.061   4.253   2.833  1.8022  0.2350  0.1049
  103SAPE   C3710521   2.924   4.396   2.904  0.1049 -0.2602  0.2659
  103SAPE   H7X10522   2.847   4.319   2.925 -0.6588  0.5940  0.6822
  103SAPE   H7Y10523   2.876   4.490   2.867 -1.3542 -0.2125  2.1202
  103SAPE   C3810524   3.007   4.425   3.032  0.4646 -0.0168  0.1191
  103SAPE   H8X10525   3.058   4.524   3.036 -2.3982  1.8004 -2.7408
  103SAPE   H8Y10526   3.083   4.345   3.040  2.0751  1.1634 -2.1560
  103SAPE   C3910527   2.905   4.429   3.147  0.0097  0.2033 -0.3248
  103SAPE   H9X10528   2.877   4.322   3.156  0.4282  0.0923 -0.3342
  103SAPE   H9Y10529   2.815   4.486   3.113 -1.6332 -1.3112  1.2724
  103SAPE  C31010530   2.946   4.489   3.281  0.5632 -0.3567  0.2111
  103SAPE  H10X10531   3.033   4.433   3.320  2.6063  2.9098  0.7014
  103SAPE  H10Y10532   2.860   4.470   3.349  3.4289 -1.5278  3.8305
  103SAPE  C31110533   2.976   4.634   3.272 -0.3622  0.5034 -0.1098
  103SAPE  H11X10534   2.900   4.684   3.210 -1.3621  1.3170  1.6796
  103SAPE  H11Y10535   3.073   4.655   3.222 -1.0957  2.7091 -0.7049
  103SAPE  C31210536   2.979   4.706   3.404  0.0085 -0.1316  0.2493
  103SAPE  H12X10537   3.057   4.675   3.477 -0.1476  0.1138  0.5242
  103SAPE  H12Y10538   2.900   4.669   3.472  1.7394 -1.2853  1.7295
  103SAPE  C31310539   2.970   4.868   3.401 -0.4126 -0.7145  0.0010
  103SAPE  H13X10540   2.911   4.896   3.311 -3.2779 -0.9889  1.6585
  103SAPE  H13Y10541   3.070   4.911   3.381 -0.4209 -0.6349  0.1333
  103SAPE  C31410542   2.921   4.930   3.536 -0.7831 -0.0663 -0.1075
  103SAPE  H14X10543   3.009   4.944   3.602 -0.5236  0.1777 -0.5038
  103SAPE  H14Y10544   2.847   4.861   3.581  1.3459 -2.4466 -0.0313
  103SAPE  C31510545   2.856   5.066   3.505  0.3432  0.0808 -0.5742
  103SAPE  H15X10546   2.785   5.034   3.425  1.7559 -1.2113 -1.3536
  103SAPE  H15Y10547   2.934   5.130   3.458 -0.9446  2.6158  0.5310
  103SAPE  C31610548   2.777   5.130   3.619  0.0603  0.4470 -0.2218
  103SAPE  H16X10549   2.690   5.061   3.615  1.8864 -2.3173  2.7813
  103SAPE  H16Y10550   2.763   5.238   3.597 -1.9026  0.5537  1.2761
  103SAPE  C31710551   2.839   5.128   3.756  0.7615  0.3746 -0.2114
  103SAPE  H17X10552   2.878   5.029   3.789  1.9425  0.2862 -1.7801
  103SAPE  H17Y10553   2.761   5.151   3.832  0.6779  0.7625 -0.4185
  103SAPE  C31810554   2.952   5.223   3.759  0.3440 -0.9229 -0.4222
  103SAPE  H18X10555   2.917   5.322   3.724  0.0921 -0.4881  0.9951
  103SAPE  H18Y10556   3.033   5.189   3.691 -0.0847 -0.0475 -1.3878
  103SAPE  H18Z10557   2.995   5.244   3.860 -1.1558 -0.5491  0.1626
  104SAPE     N10558   2.323   2.812   1.703 -0.5460  0.0314  0.0771
  104SAPE   HN110559   2.402   2.869   1.666 -1.4311  0.3363 -1.3958
  104SAPE   HN210560   2.332   2.720   1.655 -1.5106  0.6898 -1.4257
  104SAPE   HN310561   2.233   2.858   1.679 -1.1830 -1.7317 -1.1029
  104SAPE   C1210562   2.334   2.811   1.851 -0.1193  0.4647 -0.5945
  104SAPE  H12A10563   2.248   2.756   1.895  1.5230 -0.1033  2.1652
  104SAPE  H12B10564   2.313   2.915   1.885 -0.6043  0.4007 -0.7011
  104SAPE   C1110565   2.463   2.741   1.897 -0.1607 -0.4894 -0.6320
  104SAPE  H11A10566   2.482   2.753   2.006  0.0688 -1.5543 -0.5495
  104SAPE  H11B10567   2.544   2.801   1.851 -1.3681  0.4857 -1.5494
  104SAPE     P10568   2.415   2.498   1.924  0.2170  0.3464 -0.2552
  104SAPE   O1310569   2.305   2.528   2.014 -0.0441  0.0120 -0.7914
  104SAPE   O1410570   2.378   2.408   1.816  0.1288 -0.0370  0.2008
  104SAPE   O1210571   2.484   2.616   1.855 -0.3395 -0.0066  0.0440
  104SAPE   O1110572   2.530   2.425   1.998 -0.3265  0.0913  0.0061
  104SAPE    C110573   2.632   2.489   2.073  0.2793  0.7006  0.4936
  104SAPE    HA10574   2.709   2.413   2.096 -0.5239 -0.0382  0.8211
  104SAPE    HB10575   2.673   2.571   2.011 -0.5035  1.5230  1.0428
  104SAPE    C210576   2.580   2.547   2.202 -0.2775  0.1695  0.5390
  104SAPE    HS10577   2.483   2.596   2.178  0.0563  0.9346  0.7272
  104SAPE   O2110578   2.689   2.629   2.252  0.1063  1.0400 -0.3535
  104SAPE   C2110579   2.654   2.758   2.272 -0.1852  0.6362  0.3638
  104SAPE   O2210580   2.553   2.811   2.239  0.9069  1.0889 -0.1151
  104SAPE   C2210581   2.764   2.820   2.358 -0.3323  0.3614  0.0185
  104SAPE   H2R10582   2.841   2.746   2.387  1.5952  1.1939 -2.6174
  104SAPE   H2S10583   2.812   2.894   2.290 -1.1697 -1.1612 -2.3113
  104SAPE    C310584   2.524   2.431   2.296  0.8323  0.3831 -0.3732
  104SAPE    HX10585   2.609   2.360   2.301  1.7672  1.3915 -1.4210
  104SAPE    HY10586   2.441   2.384   2.240  1.3981  0.6929 -1.5019
  104SAPE   O3110587   2.484   2.486   2.424  0.9864 -0.4638 -0.2615
  104SAPE   C3110588   2.455   2.386   2.513 -0.0575  0.0211  0.4171
  104SAPE   O3210589   2.496   2.272   2.497 -0.0322 -0.3373 -0.2015
  104SAPE   C3210590   2.370   2.443   2.624  0.1076 -0.4527 -0.2984
  104SAPE   H2X10591   2.263   2.440   2.592 -0.0279 -0.3953  0.1305
  104SAPE   H2Y10592   2.401   2.549   2.638  1.2503 -0.5312 -1.9686
  104SAPE   C2310593   2.701   2.896   2.484 -0.6128 -0.1525  0.5857
  104SAPE   H3R10594   2.642   2.988   2.463 -0.6487 -0.4041 -0.4668
  104SAPE   H3S10595   2.787   2.940   2.539 -0.4521  0.3575 -0.0610
  104SAPE   C2410596   2.628   2.800   2.578  0.0820 -0.3021  0.7383
  104SAPE   H4R10597   2.535   2.763   2.531 -1.7268  2.4711  1.8909
  104SAPE   H4S10598   2.585   2.868   2.654 -0.0747  0.4895 -0.0470
  104SAPE   C2510599   2.709   2.698   2.650  0.4190 -0.3210 -0.4958
  104SAPE   H5R10600   2.787   2.648   2.592  1.8721  1.2743 -0.0008
  104SAPE   C2610601   2.700   2.675   2.784 -0.4256 -0.3086 -0.5347
  104SAPE   H6R10602   2.756   2.587   2.817  1.3454  0.3501 -1.6315
  104SAPE   C2710603   2.609   2.736   2.894  0.2601 -1.0019 -0.2400
  104SAPE   H7R10604   2.509   2.687   2.901 -0.0965 -0.3751 -0.8849
  104SAPE   H7S10605   2.581   2.839   2.865 -1.1689 -1.3457 -0.1377
  104SAPE   C2810606   2.689   2.761   3.022  0.4614  0.0340  0.3049
  104SAPE   H8R10607   2.745   2.855   3.026 -0.2781  0.4420  1.8995
  104SAPE   C2910608   2.681   2.689   3.138  0.0886  0.2059  0.0492
  104SAPE   H9R10609   2.728   2.723   3.232 -1.8865  1.0437  0.8042
  104SAPE  C21010610   2.594   2.563   3.152  0.3673  0.2566  0.0639
  104SAPE  H10R10611   2.659   2.482   3.192 -0.9529  0.0601  1.9241
  104SAPE  H10S10612   2.550   2.523   3.059 -0.9083 -0.1414  0.8193
  104SAPE  C21110613   2.488   2.594   3.255  0.1460  0.9131  0.0698
  104SAPE  H11R10614   2.402   2.650   3.216 -1.2828 -1.6123 -0.6070
  104SAPE  C21210615   2.468   2.542   3.371  0.5737  0.3295 -0.1331
  104SAPE  H12R10616   2.383   2.584   3.427 -1.4000 -2.1155 -1.1166
  104SAPE  C21310617   2.542   2.441   3.455 -0.2305 -0.0549 -0.9323
  104SAPE  H13R10618   2.566   2.490   3.552 -1.2934  0.2095 -0.7918
  104SAPE  H13S10619   2.639   2.418   3.407 -1.5334 -0.9856 -3.3192
  104SAPE  C21410620   2.483   2.308   3.486  0.8622  0.5374 -0.4785
  104SAPE  H14R10621   2.486   2.234   3.405 -2.8572  0.4431 -0.6762
  104SAPE  C21510622   2.416   2.269   3.598  0.0073  0.4823 -0.4007
  104SAPE  H15R10623   2.371   2.169   3.595 -1.6790  1.1829  0.4148
  104SAPE  C21610624   2.402   2.348   3.721 -0.3080  0.5297 -0.7982
  104SAPE  H16R10625   2.303   2.333   3.770 -0.1352  0.2970 -0.5217
  104SAPE  H16S10626   2.421   2.456   3.706  1.6629  0.2260 -0.6537
  104SAPE  C21710627   2.520   2.318   3.823  0.4020  0.0876 -0.5567
  104SAPE  H17R10628   2.500   2.385   3.910 -0.9001  0.4963 -1.1459
  104SAPE  H17S10629   2.619   2.343   3.779  1.3038  2.0769  2.3270
  104SAPE  C21810630   2.528   2.169   3.871 -0.5767 -0.4318  0.4668
  104SAPE  H18R10631   2.524   2.104   3.780 -0.7399  0.7580 -0.4042
  104SAPE  H18S10632   2.444   2.140   3.937  0.0681 -2.1289  0.5894
  104SAPE  C21910633   2.657   2.147   3.946  0.1226 -0.4005 -0.3460
  104SAPE  H19R10634   2.654   2.204   4.041 -0.3545 -1.3882  0.2436
  104SAPE  H19S10635   2.743   2.187   3.888  0.3573 -0.0160  0.2616
  104SAPE  C22010636   2.678   2.000   3.978  0.4782 -0.1806  0.3404
  104SAPE  H20R10637   2.695   1.940   3.887  0.3819 -0.2683  0.3802
  104SAPE  H20S10638   2.596   1.952   4.035  1.5840 -3.7457 -0.8182
  104SAPE  H20T10639   2.765   1.980   4.044  1.3156 -0.0181 -0.6872
  104SAPE   C3310640   2.385   2.361   2.761  0.2920 -0.1528  0.2185
  104SAPE   H3X10641   2.494   2.373   2.778  0.4727  0.2172 -1.1165
  104SAPE   H3Y10642   2.350   2.260   2.730  0.1645  0.4407 -1.7056
  104SAPE   C3410643   2.296   2.402   2.877  0.6493 -0.7413 -0.3367
  104SAPE   H4X10644   2.301   2.512   2.889  0.3342 -0.7612  0.0010
  104SAPE   H4Y10645   2.339   2.354   2.967  1.9871 -2.1007 -1.6328
  104SAPE   C3510646   2.150   2.359   2.875 -0.0792 -0.3811  0.7050
  104SAPE   H5X10647   2.133   2.252   2.849  0.6305 -0.0466 -1.3619
  104SAPE   H5Y10648   2.086   2.429   2.817 -2.3012 -0.5159  2.8432
  104SAPE   C3610649   2.089   2.363   3.017  0.1886  0.6916 -0.3318
  104SAPE   H6X10650   2.122   2.269   3.066 -0.2915  0.4049 -0.5454
  104SAPE   H6Y10651   1.979   2.348   3.010  0.4053 -1.1791 -0.3449
  104SAPE   C3710652   2.120   2.486   3.099  0.4021 -0.3061  0.8546
  104SAPE   H7X10653   2.092   2.577   3.041  1.8450 -1.9781 -2.7575
  104SAPE   H7Y10654   2.231   2.489   3.111  0.6712 -0.7218 -1.1986
  104SAPE   C3810655   2.050   2.496   3.238  0.5731 -0.3467 -0.1106
  104SAPE   H8X10656   1.940   2.494   3.223  0.5753  1.9920 -0.8969
  104SAPE   H8Y10657   2.068   2.600   3.275 -1.3674  0.1694 -0.4975
  104SAPE   C3910658   2.087   2.391   3.342  0.3586 -0.0040  0.0397
  104SAPE   H9X10659   2.197   2.376   3.341  0.4751  0.5134 -3.3309
  104SAPE   H9Y10660   2.043   2.297   3.303 -0.2617 -1.8327  4.5301
  104SAPE  C31010661   2.031   2.419   3.482  0.3767  0.8559  0.2185
  104SAPE  H10X10662   1.924   2.445   3.469  1.0707  3.5817 -0.7344
  104SAPE  H10Y10663   2.083   2.508   3.525  1.0135  0.3862  0.4449
  104SAPE  C31110664   2.033   2.305   3.586  0.1559  0.2863  0.7749
  104SAPE  H11X10665   2.137   2.272   3.607  0.8119  2.1284  0.5611
  104SAPE  H11Y10666   1.975   2.215   3.555  1.5396 -0.3334 -0.1149
  104SAPE  C31210667   1.959   2.361   3.713 -0.4093  0.3177  0.3294
  104SAPE  H12X10668   1.850   2.363   3.689 -0.2208 -1.0674 -0.7126
  104SAPE  H12Y10669   2.005   2.459   3.737 -1.7815  0.9198  0.6319
  104SAPE  C31310670   1.983   2.272   3.839  0.0815  0.1142 -0.2431
  104SAPE  H13X10671   2.090   2.251   3.861 -0.3360  0.5214  2.4787
  104SAPE  H13Y10672   1.932   2.178   3.810 -0.0345  1.2218 -4.2438
  104SAPE  C31410673   1.916   2.331   3.962 -0.4757  1.2988  0.8571
  104SAPE  H14X10674   1.805   2.322   3.959 -0.5276 -0.1423  3.6204
  104SAPE  H14Y10675   1.936   2.440   3.965 -1.8672  1.5517  1.9502
  104SAPE  C31510676   1.955   2.263   4.096 -0.6119  0.6386 -0.0202
  104SAPE  H15X10677   2.066   2.271   4.101 -0.3533 -0.4963 -2.3907
  104SAPE  H15Y10678   1.941   2.153   4.092  2.9583 -0.0113  1.1270
  104SAPE  C31610679   1.878   2.325   4.212 -0.2143  0.7295  0.0572
  104SAPE  H16X10680   1.779   2.275   4.221 -0.8253  1.5700 -1.6063
  104SAPE  H16Y10681   1.866   2.433   4.190  0.4438  0.9057  0.5211
  104SAPE  C31710682   1.967   2.324   4.340  0.2920  0.0732 -0.7078
  104SAPE  H17X10683   2.075   2.342   4.320  0.7573 -1.2398  0.4380
  104SAPE  H17Y10684   1.963   2.220   4.377  2.8449 -0.1282 -0.7688
  104SAPE  C31810685   1.910   2.419   4.445 -0.4226 -0.4345  0.7413
  104SAPE  H18X10686   1.988   2.424   4.524  0.2120  0.3622  0.0839
  104SAPE  H18Y10687   1.813   2.382   4.484 -0.6828  1.3633  1.9532
  104SAPE  H18Z10688   1.902   2.520   4.400  0.9937 -1.0832 -1.0939
  105SAPE     N10689   5.500   2.587   1.697 -0.0032  0.2087  0.1171
  105SAPE   HN110690   5.399   2.601   1.677 -0.7183 -3.1210  0.9038
  105SAPE   HN210691   5.555   2.622   1.616 -0.3353  1.6142  0.4721
  105SAPE   HN310692   5.511   2.485   1.712 -0.9176  0.0368 -0.3176
  105SAPE   C1210693   5.535   2.668   1.822  0.5359 -0.4670 -0.5397
  105SAPE  H12A10694   5.646   2.670   1.827  0.4906 -0.8238  1.2660
  105SAPE  H12B10695   5.516   2.613   1.916 -0.3388 -0.7240 -0.8632
  105SAPE   C1110696   5.490   2.814   1.799  0.0581  0.0348 -0.4741
  105SAPE  H11A10697   5.518   2.843   1.696  0.0440  2.8599  0.2440
  105SAPE  H11B10698   5.545   2.890   1.858 -1.6259  1.9949 -1.3364
  105SAPE     P10699   5.288   2.963   1.886 -0.2524 -0.1631  0.1872
  105SAPE   O1310700   5.356   3.081   1.827 -0.4130  0.2306  0.1782
  105SAPE   O1410701   5.141   2.966   1.871 -0.3606 -0.0264 -0.4301
  105SAPE   O1210702   5.353   2.842   1.817  0.1527  0.7095  0.2225
  105SAPE   O1110703   5.330   2.952   2.036 -0.0883  0.2921  0.2488
  105SAPE    C110704   5.312   2.829   2.115 -0.3023  0.1368 -0.4042
  105SAPE    HA10705   5.338   2.735   2.063  0.3836  0.3880 -0.5159
  105SAPE    HB10706   5.380   2.831   2.203 -1.5806  1.5741  0.5913
  105SAPE    C210707   5.173   2.834   2.185 -0.0808  0.5739  1.3935
  105SAPE    HS10708   5.099   2.819   2.104  2.2693 -1.5922 -0.5048
  105SAPE   O2110709   5.154   2.966   2.249  0.5564  0.2015 -0.2501
  105SAPE   C2110710   5.032   3.003   2.271  0.3015  0.0047 -0.0577
  105SAPE   O2210711   4.929   2.958   2.228 -0.0444  0.1471  0.0258
  105SAPE   C2210712   5.035   3.122   2.368  0.1797  0.5033  0.1685
  105SAPE   H2R10713   5.125   3.185   2.358  1.6305 -1.3695  0.7602
  105SAPE   H2S10714   4.946   3.179   2.335 -1.0535 -1.5759 -0.3185
  105SAPE    C310715   5.149   2.712   2.282  0.3282 -0.7649 -0.6097
  105SAPE    HX10716   5.220   2.743   2.362 -1.3671 -0.2957  0.7652
  105SAPE    HY10717   5.194   2.616   2.249  2.5691  0.5485 -1.6494
  105SAPE   O3110718   5.018   2.703   2.330 -0.4592 -0.5787 -0.0431
  105SAPE   C3110719   5.007   2.629   2.436 -0.1111 -0.5774  0.2624
  105SAPE   O3210720   5.097   2.592   2.508  0.1628  0.2526 -0.3466
  105SAPE   C3210721   4.853   2.616   2.479  0.4258  0.4083  0.1232
  105SAPE   H2X10722   4.824   2.515   2.513 -0.8722  0.5424 -0.5611
  105SAPE   H2Y10723   4.801   2.624   2.381 -0.1478 -0.8614  0.3129
  105SAPE   C2310724   5.011   3.081   2.521 -0.0303  0.2636 -0.2449
  105SAPE   H3R10725   4.907   3.041   2.518  0.3514 -0.9738  1.4629
  105SAPE   H3S10726   5.007   3.174   2.583  0.9058 -0.0870  0.3664
  105SAPE   C2410727   5.116   2.981   2.580  0.4047  0.0013 -0.1839
  105SAPE   H4R10728   5.103   2.878   2.539 -2.5158  0.4894 -0.7062
  105SAPE   H4S10729   5.087   2.966   2.687 -3.1067 -1.6449 -1.2174
  105SAPE   C2510730   5.262   3.024   2.573  0.4448 -0.0746 -0.0048
  105SAPE   H5R10731   5.309   3.028   2.473  1.3667 -1.6321  0.3338
  105SAPE   C2610732   5.345   3.045   2.676  0.4213 -0.1127  0.5501
  105SAPE   H6R10733   5.453   3.054   2.663  0.8902 -1.5523  2.8922
  105SAPE   C2710734   5.322   3.052   2.821  0.5270  0.1477  0.3887
  105SAPE   H7R10735   5.354   2.956   2.865 -0.9869  0.7683  3.0393
  105SAPE   H7S10736   5.212   3.061   2.834  0.5992 -0.5033  1.4810
  105SAPE   C2810737   5.383   3.161   2.904  0.7784  0.7720 -0.2731
  105SAPE   H8R10738   5.466   3.214   2.855  0.4675 -1.3124 -3.3525
  105SAPE   C2910739   5.338   3.192   3.026 -0.0123 -0.6188 -0.5845
  105SAPE   H9R10740   5.392   3.276   3.073  0.8202 -1.3942 -0.1263
  105SAPE  C21010741   5.227   3.129   3.115 -0.4248 -0.0033  0.3252
  105SAPE  H10R10742   5.152   3.069   3.060 -1.6432  0.7215  1.1655
  105SAPE  H10S10743   5.158   3.211   3.143 -0.4352 -0.4336  1.5877
  105SAPE  C21110744   5.299   3.059   3.230 -0.2843 -0.7351  0.1753
  105SAPE  H11R10745   5.288   2.950   3.219 -0.9454 -0.5399 -1.2878
  105SAPE  C21210746   5.342   3.120   3.336  0.1596 -0.0675 -0.5087
  105SAPE  H12R10747   5.379   3.060   3.420  0.6500  1.2642  0.2458
  105SAPE  C21310748   5.340   3.266   3.366 -0.2541  0.2653  0.1477
  105SAPE  H13R10749   5.286   3.322   3.286 -0.8805 -0.7920 -0.1806
  105SAPE  H13S10750   5.448   3.291   3.363 -0.0320 -0.5872  0.7683
  105SAPE  C21410751   5.275   3.276   3.498  0.1472  0.7918  0.2143
  105SAPE  H14R10752   5.166   3.264   3.487  0.3910  0.7001 -3.2752
  105SAPE  C21510753   5.321   3.303   3.618 -0.6019 -0.0218 -0.3601
  105SAPE  H15R10754   5.263   3.283   3.709  0.5698 -2.3859 -0.0748
  105SAPE  C21610755   5.462   3.334   3.660  0.0963 -0.5004 -0.0176
  105SAPE  H16R10756   5.457   3.423   3.727  1.2093  0.7104 -1.4733
  105SAPE  H16S10757   5.524   3.351   3.569 -0.7866 -0.2336 -0.5902
  105SAPE  C21710758   5.542   3.217   3.733 -0.2577 -0.0139  0.9321
  105SAPE  H17R10759   5.647   3.249   3.748 -0.1043  0.0945 -0.3379
  105SAPE  H17S10760   5.540   3.136   3.658 -0.2848  1.7945 -1.1376
  105SAPE  C21810761   5.494   3.187   3.873  0.2315 -0.2101  0.0205
  105SAPE  H18R10762   5.391   3.145   3.873 -0.0709  0.4949 -0.5060
  105SAPE  H18S10763   5.486   3.272   3.944  0.1847 -0.0183 -0.2107
  105SAPE  C21910764   5.586   3.096   3.948 -0.5215 -0.4126  0.3334
  105SAPE  H19R10765   5.682   3.148   3.966 -0.1793 -0.7619 -0.4260
  105SAPE  H19S10766   5.610   3.014   3.876  1.5991  0.9270 -0.5942
  105SAPE  C22010767   5.536   3.042   4.085 -0.7991 -0.1025 -0.2235
  105SAPE  H20R10768   5.626   2.988   4.120  0.5084  2.1309  0.0447
  105SAPE  H20S10769   5.453   2.970   4.069  0.0633 -1.2328  0.2861
  105SAPE  H20T10770   5.510   3.115   4.164  0.3917 -0.4005  0.4638
  105SAPE   C3310771   4.807   2.720   2.580  0.7781  0.4008  0.3240
  105SAPE   H3X10772   4.699   2.743   2.592  1.1448  1.7471  1.3349
  105SAPE   H3Y10773   4.849   2.820   2.556  0.1276  0.6507  0.2166
  105SAPE   C3410774   4.842   2.676   2.726  0.0195  0.3961  0.0439
  105SAPE   H4X10775   4.949   2.646   2.714 -0.3594 -0.2030 -2.3777
  105SAPE   H4Y10776   4.778   2.594   2.766  0.9660  0.8065  2.5944
  105SAPE   C3510777   4.817   2.795   2.817 -0.3716  0.1286 -0.6769
  105SAPE   H5X10778   4.718   2.846   2.817 -0.9504 -0.8889  1.2892
  105SAPE   H5Y10779   4.879   2.872   2.767 -0.0725 -0.2126 -0.8326
  105SAPE   C3610780   4.847   2.778   2.968  0.1378  0.2445  0.4814
  105SAPE   H6X10781   4.946   2.729   2.982 -0.0168 -0.4907 -0.8319
  105SAPE   H6Y10782   4.775   2.704   3.009 -0.0222  1.1939  1.9909
  105SAPE   C3710783   4.845   2.908   3.042 -0.9572  0.1673  0.4321
  105SAPE   H7X10784   4.742   2.935   3.072 -0.7638 -1.7234  3.1623
  105SAPE   H7Y10785   4.897   2.978   2.972 -1.0645  1.1858  1.3403
  105SAPE   C3810786   4.926   2.910   3.174  0.1577  0.3428  0.6868
  105SAPE   H8X10787   4.928   3.017   3.204 -1.2948  0.5010  0.3124
  105SAPE   H8Y10788   5.033   2.884   3.160  0.5289  2.4822 -1.0888
  105SAPE   C3910789   4.856   2.829   3.282  0.6627  0.4869 -0.4666
  105SAPE   H9X10790   4.881   2.721   3.281 -0.8013  0.0934  1.2954
  105SAPE   H9Y10791   4.745   2.837   3.269  0.7441  0.5598 -1.2101
  105SAPE  C31010792   4.876   2.902   3.409 -0.0362  0.1045  0.1040
  105SAPE  H10X10793   4.812   2.856   3.487 -0.0258  0.9797  0.6424
  105SAPE  H10Y10794   4.852   3.009   3.394  1.2992  0.3417 -0.4832
  105SAPE  C31110795   5.022   2.885   3.452 -0.2270  0.1088 -0.3256
  105SAPE  H11X10796   5.093   2.937   3.385  0.5924 -0.6971 -0.1105
  105SAPE  H11Y10797   5.047   2.776   3.453  0.8242  0.3335 -0.5912
  105SAPE  C31210798   5.028   2.935   3.598 -0.0906  0.3902 -0.2227
  105SAPE  H12X10799   4.946   2.884   3.653  1.3089 -0.9830  0.6925
  105SAPE  H12Y10800   5.015   3.045   3.597  2.4643  0.8352  2.3742
  105SAPE  C31310801   5.165   2.915   3.650 -0.0878 -1.1165 -0.2200
  105SAPE  H13X10802   5.232   2.992   3.608  0.0538 -0.2670  1.4857
  105SAPE  H13Y10803   5.190   2.812   3.614 -1.5678 -1.1699 -1.1949
  105SAPE  C31410804   5.171   2.919   3.805  0.3922 -0.1970  0.1923
  105SAPE  H14X10805   5.277   2.908   3.838  0.4747 -4.4671 -0.9380
  105SAPE  H14Y10806   5.115   2.833   3.848  2.0838 -0.4262  2.1060
  105SAPE  C31510807   5.119   3.049   3.862 -0.0821 -0.2915  0.2947
  105SAPE  H15X10808   5.010   3.051   3.840  0.0086 -0.3765 -0.1651
  105SAPE  H15Y10809   5.173   3.128   3.806  0.6034 -1.7405 -1.1907
  105SAPE  C31610810   5.133   3.063   4.008 -0.5818  0.3446 -0.0311
  105SAPE  H16X10811   5.224   3.011   4.043  1.1998  3.5122  0.4484
  105SAPE  H16Y10812   5.053   3.019   4.071 -1.0972  0.5227 -0.5440
  105SAPE  C31710813   5.150   3.213   4.046 -0.0290  0.4621 -0.3426
  105SAPE  H17X10814   5.236   3.253   3.989 -0.2589 -1.7484 -2.4115
  105SAPE  H17Y10815   5.174   3.216   4.154 -0.8011  0.5475 -0.1633
  105SAPE  C31810816   5.029   3.303   4.036 -0.5453  0.5073  0.0231
  105SAPE  H18X10817   4.978   3.299   3.938  0.1034  0.9018 -0.3363
  105SAPE  H18Y10818   5.055   3.410   4.050  1.3837  0.2956 -1.4970
  105SAPE  H18Z10819   4.951   3.288   4.114  0.1483  0.4024  0.7100
  106SAPE     N10820   6.100   3.805   1.483 -1.2265 -0.0215  0.0642
  106SAPE   HN110821   6.021   3.867   1.511 -0.5610  1.3650 -1.0545
  106SAPE   HN210822   6.099   3.806   1.379  1.7327 -2.1042 -0.1020
  106SAPE   HN310823   6.077   3.709   1.516  0.3989  0.5193  3.0842
  106SAPE   C1210824   6.227   3.846   1.549 -0.1092  0.2292 -0.8733
  106SAPE  H12A10825   6.259   3.950   1.522 -0.2746  0.7035  0.6607
  106SAPE  H12B10826   6.307   3.784   1.504 -1.4901 -1.7870 -0.6871
  106SAPE   C1110827   6.216   3.812   1.698  0.9391  0.5796 -0.4819
  106SAPE  H11A10828   6.304   3.844   1.757  0.0846  1.0788  0.5453
  106SAPE  H11B10829   6.192   3.704   1.707 -0.2100  0.7276 -1.4820
  106SAPE     P10830   6.006   3.842   1.862 -0.2844  0.3662  0.1520
  106SAPE   O1310831   5.919   3.957   1.885 -0.3567  0.0520 -0.1477
  106SAPE   O1410832   5.953   3.709   1.823 -0.5762 -0.5310 -0.1503
  106SAPE   O1210833   6.116   3.893   1.756 -0.4257  0.1002  0.5263
  106SAPE   O1110834   6.105   3.820   1.984  0.5146  0.1797  0.5018
  106SAPE    C110835   6.077   3.883   2.109  0.0517  0.2628 -0.5315
  106SAPE    HA10836   5.971   3.897   2.137  0.5328  1.8013  0.7027
  106SAPE    HB10837   6.113   3.815   2.189 -1.1499 -0.0214 -0.2208
  106SAPE    C210838   6.155   4.024   2.134  0.3087 -0.3931  0.2841
  106SAPE    HS10839   6.153   4.072   2.034 -0.8065  1.8882  1.3388
  106SAPE   O2110840   6.291   3.989   2.176 -0.5606  0.0045  0.5854
  106SAPE   C2110841   6.382   4.082   2.172 -0.8322 -0.3559 -0.3289
  106SAPE   O2210842   6.366   4.193   2.125 -0.6094 -0.7577  0.1616
  106SAPE   C2210843   6.510   4.032   2.237 -0.5872 -0.5401 -0.2498
  106SAPE   H2R10844   6.527   3.929   2.198  0.0760 -0.0344 -1.3459
  106SAPE   H2S10845   6.589   4.099   2.197 -2.3776  0.7667 -1.8100
  106SAPE    C310846   6.080   4.108   2.242  0.2035  0.0207  0.2625
  106SAPE    HX10847   5.974   4.121   2.211 -0.1526 -2.9537 -0.0385
  106SAPE    HY10848   6.133   4.206   2.244  0.8051 -0.3125  0.8889
  106SAPE   O3110849   6.065   4.044   2.374  0.0797  0.3067  0.3210
  106SAPE   C3110850   6.007   4.130   2.457 -0.3097 -0.8223  0.5055
  106SAPE   O3210851   5.979   4.249   2.430  0.0234  0.4151  1.0356
  106SAPE   C3210852   5.954   4.058   2.578 -0.7212 -0.4278 -0.3265
  106SAPE   H2X10853   6.032   3.988   2.615  1.1744  1.4907 -0.5195
  106SAPE   H2Y10854   5.862   4.005   2.545 -0.6600  0.7122 -2.5297
  106SAPE   C2310855   6.488   4.049   2.389 -0.0516  0.2621 -0.3178
  106SAPE   H3R10856   6.587   4.026   2.434 -0.6484  0.1970  1.0234
  106SAPE   H3S10857   6.425   3.966   2.429  0.3663  0.3565  0.5740
  106SAPE   C2410858   6.446   4.188   2.434 -0.0114  0.0016  0.6459
  106SAPE   H4R10859   6.456   4.190   2.545  0.6912  0.8382  0.5811
  106SAPE   H4S10860   6.342   4.200   2.398  0.8410 -0.6300 -2.2603
  106SAPE   C2510861   6.537   4.302   2.393 -0.8045 -0.2649 -0.0317
  106SAPE   H5R10862   6.625   4.275   2.334  1.1377 -0.6858  2.8262
  106SAPE   C2610863   6.534   4.435   2.421  0.2564 -0.2502 -0.5073
  106SAPE   H6R10864   6.606   4.509   2.382 -1.6240  2.1381  0.3371
  106SAPE   C2710865   6.433   4.505   2.507  0.7599 -1.0195  0.3391
  106SAPE   H7R10866   6.442   4.615   2.492 -2.1206 -0.9616 -1.8446
  106SAPE   H7S10867   6.456   4.501   2.616 -1.6186  1.5573  1.0683
  106SAPE   C2810868   6.289   4.476   2.463  0.1119 -0.2183 -0.4949
  106SAPE   H8R10869   6.282   4.441   2.359  1.1747 -0.3990 -0.5214
  106SAPE   C2910870   6.175   4.466   2.536  0.1190 -0.4238  0.1562
  106SAPE   H9R10871   6.084   4.443   2.479  0.6114  0.0247 -0.8539
  106SAPE  C21010872   6.169   4.495   2.687 -0.4653  0.1339  0.0063
  106SAPE  H10R10873   6.225   4.584   2.723 -1.6297  0.8227  0.1707
  106SAPE  H10S10874   6.202   4.405   2.743 -0.6893  0.7022  1.0818
  106SAPE  C21110875   6.028   4.524   2.727 -0.5935  0.2646 -0.1191
  106SAPE  H11R10876   5.962   4.563   2.648 -2.5192  0.8619  1.7171
  106SAPE  C21210877   5.968   4.505   2.847  0.0657  0.2149  0.8484
  106SAPE  H12R10878   5.858   4.508   2.850  0.0658 -0.8784  2.6182
  106SAPE  C21310879   6.037   4.445   2.968  0.7071 -0.3634  0.6969
  106SAPE  H13R10880   6.110   4.516   3.015 -2.4605  3.2955  0.5706
  106SAPE  H13S10881   6.095   4.355   2.937  0.9291  0.1764 -0.5042
  106SAPE  C21410882   5.928   4.413   3.063  0.0976  0.6734 -0.5374
  106SAPE  H14R10883   5.827   4.396   3.024  0.9120 -0.3279 -2.2935
  106SAPE  C21510884   5.942   4.383   3.195 -0.0159  0.2472  0.7756
  106SAPE  H15R10885   5.857   4.365   3.263 -0.9279  0.8637 -0.1535
  106SAPE  C21610886   6.078   4.374   3.263  0.5337 -0.2626  0.4532
  106SAPE  H16R10887   6.166   4.370   3.195  0.7828 -0.4252  0.7816
  106SAPE  H16S10888   6.083   4.290   3.334 -1.4495 -0.0626  0.8884
  106SAPE  C21710889   6.122   4.509   3.331  0.0373 -0.4108  1.2630
  106SAPE  H17R10890   6.067   4.528   3.426 -1.8398  0.7461  0.0125
  106SAPE  H17S10891   6.092   4.586   3.257  0.5509 -0.4395  1.0268
  106SAPE  C21810892   6.277   4.519   3.355 -0.5759 -0.3145  0.3284
  106SAPE  H18R10893   6.330   4.518   3.257 -0.0256 -3.1059  0.5636
  106SAPE  H18S10894   6.306   4.432   3.417 -1.6711 -1.1737 -0.3269
  106SAPE  C21910895   6.319   4.654   3.420 -0.4786  0.0261  1.1876
  106SAPE  H19R10896   6.261   4.665   3.515  1.3258  2.1759  2.1431
  106SAPE  H19S10897   6.275   4.729   3.351  1.3040 -1.9910 -2.4275
  106SAPE  C22010898   6.472   4.676   3.441 -0.3489 -0.2581  0.5522
  106SAPE  H20R10899   6.520   4.623   3.357  0.8414  2.9325 -0.9435
  106SAPE  H20S10900   6.498   4.639   3.543 -1.0645 -0.0146  0.8362
  106SAPE  H20T10901   6.511   4.779   3.425  3.9122 -1.6974  0.4189
  106SAPE   C3310902   5.927   4.155   2.697 -0.4025 -0.5629 -0.3144
  106SAPE   H3X10903   5.852   4.233   2.671 -0.0327  0.2947  1.0801
  106SAPE   H3Y10904   6.014   4.221   2.717 -0.2295 -0.5397 -1.1225
  106SAPE   C3410905   5.875   4.099   2.824 -0.1116  0.5464 -1.0940
  106SAPE   H4X10906   5.830   4.176   2.890 -0.9501  0.0635 -1.0896
  106SAPE   H4Y10907   5.961   4.062   2.885  1.2312  0.2983 -3.0473
  106SAPE   C3510908   5.775   3.985   2.819  0.0783 -1.1048  0.4151
  106SAPE   H5X10909   5.757   3.957   2.925  0.5284 -1.3400  0.4315
  106SAPE   H5Y10910   5.832   3.912   2.758  0.4461 -0.4240 -0.0761
  106SAPE   C3610911   5.638   4.034   2.762 -0.1696  0.7026  0.3748
  106SAPE   H6X10912   5.596   3.939   2.721 -1.9782  0.5523  2.3784
  106SAPE   H6Y10913   5.661   4.090   2.669  0.9744 -1.8405 -0.9780
  106SAPE   C3710914   5.528   4.093   2.863  0.2572  0.1317  0.0293
  106SAPE   H7X10915   5.447   4.137   2.802 -0.3660 -0.0746  0.7001
  106SAPE   H7Y10916   5.569   4.175   2.925 -1.3473 -1.1350  2.9422
  106SAPE   C3810917   5.462   3.989   2.953  0.4048  0.2304 -0.2631
  106SAPE   H8X10918   5.536   3.934   3.015 -0.0045  1.2810  1.2158
  106SAPE   H8Y10919   5.405   3.914   2.894 -0.1944  0.4831 -0.0152
  106SAPE   C3910920   5.365   4.043   3.051 -0.0148  0.5773 -0.2232
  106SAPE   H9X10921   5.412   4.110   3.127  0.2729 -0.7423  0.7942
  106SAPE   H9Y10922   5.332   3.957   3.114 -1.5840  0.1316 -1.5875
  106SAPE  C31010923   5.254   4.129   2.985 -0.1007 -0.4507 -0.4626
  106SAPE  H10X10924   5.198   4.080   2.902  1.1777 -0.1010 -1.5791
  106SAPE  H10Y10925   5.301   4.218   2.938 -0.6931 -1.1569 -2.5110
  106SAPE  C31110926   5.154   4.174   3.087  0.2600  0.3371 -0.9079
  106SAPE  H11X10927   5.197   4.233   3.170 -2.2125  1.3689 -0.2638
  106SAPE  H11Y10928   5.094   4.094   3.136  1.9398  1.0421  2.5990
  106SAPE  C31210929   5.057   4.273   3.018  0.7749 -1.1620 -0.5751
  106SAPE  H12X10930   5.001   4.220   2.938  0.3379  0.7818 -1.6021
  106SAPE  H12Y10931   5.110   4.364   2.983 -0.3686 -0.0750  0.4213
  106SAPE  C31310932   4.949   4.319   3.118 -0.1585 -0.0164 -0.3459
  106SAPE  H13X10933   4.909   4.223   3.156  0.0557  0.8409  2.1960
  106SAPE  H13Y10934   4.866   4.362   3.058  0.2088 -1.1392 -1.7235
  106SAPE  C31410935   4.986   4.409   3.235 -0.6182  0.1988 -0.1019
  106SAPE  H14X10936   5.047   4.494   3.199  0.9297 -0.6083  0.5320
  106SAPE  H14Y10937   5.043   4.346   3.306 -0.2444  2.2562  1.5329
  106SAPE  C31510938   4.867   4.458   3.311  0.3562 -0.0076 -0.6080
  106SAPE  H15X10939   4.819   4.378   3.371  2.3697  0.5364  1.8670
  106SAPE  H15Y10940   4.792   4.497   3.238 -0.3347  1.2243  0.7167
  106SAPE  C31610941   4.897   4.578   3.409 -1.0419  0.3761  0.3576
  106SAPE  H16X10942   4.978   4.638   3.362 -0.3467 -0.5476  0.3334
  106SAPE  H16Y10943   4.942   4.531   3.500  0.2240 -1.3609 -1.0797
  106SAPE  C31710944   4.785   4.670   3.442  1.4401 -0.0091  0.9550
  106SAPE  H17X10945   4.796   4.729   3.535  0.2135  0.6121  0.7234
  106SAPE  H17Y10946   4.695   4.609   3.465  0.1756  1.3421 -0.2341
  106SAPE  C31810947   4.758   4.754   3.316 -0.1478 -0.1196 -0.7839
  106SAPE  H18X10948   4.849   4.800   3.272  0.6854 -1.0832 -0.1074
  106SAPE  H18Y10949   4.675   4.826   3.332  1.7156  1.8678  0.3611
  106SAPE  H18Z10950   4.728   4.696   3.226 -3.0609  2.9703 -2.0340
  107SAPE     N10951   0.634   2.721   1.947  0.2114 -0.2492 -0.4268
  107SAPE   HN110952   0.701   2.641   1.948  0.1016 -0.3613 -1.1245
  107SAPE   HN210953   0.537   2.686   1.958  0.4720 -1.5990 -2.0095
  107SAPE   HN310954   0.631   2.769   1.855  2.3390  2.7980  0.9098
  107SAPE   C1210955   0.690   2.822   2.048  0.7802  0.1437  0.2512
  107SAPE  H12A10956   0.710   2.764   2.141  2.6590  3.6849  2.2827
  107SAPE  H12B10957   0.613   2.898   2.073 -0.5357 -0.4980 -1.6207
  107SAPE   C1110958   0.819   2.879   1.992  0.0041  0.1232 -0.2080
  107SAPE  H11A10959   0.885   2.791   1.977  1.7322  1.5357 -1.3058
  107SAPE  H11B10960   0.880   2.932   2.068 -0.3257  0.3922 -0.1277
  107SAPE     P10961   0.698   3.062   1.830  0.4143  0.1024 -0.2417
  107SAPE   O1310962   0.760   3.165   1.743  0.0441  0.5343 -0.6328
  107SAPE   O1410963   0.587   2.982   1.779 -0.4427 -0.1200 -0.1645
  107SAPE   O1210964   0.808   2.957   1.864  0.3745 -0.4121  0.1180
  107SAPE   O1110965   0.647   3.121   1.972  0.2275 -0.1033 -0.6577
  107SAPE    C110966   0.708   3.237   2.036  0.1656 -0.3700 -0.1831
  107SAPE    HA10967   0.801   3.275   1.987  1.3698 -2.7239  0.1151
  107SAPE    HB10968   0.637   3.320   2.019  0.1024 -0.3930 -0.0340
  107SAPE    C210969   0.725   3.199   2.187 -0.0932 -0.5307 -0.2893
  107SAPE    HS10970   0.788   3.107   2.193  0.7675 -0.0729 -1.8011
  107SAPE   O2110971   0.589   3.181   2.242 -0.5944 -0.2472 -0.1608
  107SAPE   C2110972   0.580   3.097   2.340  0.1897 -0.4750  0.3199
  107SAPE   O2210973   0.668   3.030   2.390 -0.4101 -0.0790  0.3456
  107SAPE   C2210974   0.439   3.083   2.393 -0.1689 -0.0098  0.4653
  107SAPE   H2R10975   0.400   3.187   2.386  0.4434  0.1389 -1.4602
  107SAPE   H2S10976   0.394   3.023   2.310  1.5047 -0.9989  0.2322
  107SAPE    C310977   0.798   3.314   2.260  0.6808  0.1648 -0.7192
  107SAPE    HX10978   0.735   3.405   2.257  0.5179  0.1715  1.4054
  107SAPE    HY10979   0.895   3.331   2.208  0.1036  0.1627 -1.8208
  107SAPE   O3110980   0.822   3.291   2.399 -0.2153  0.3234  0.3567
  107SAPE   C3110981   0.920   3.212   2.439 -0.4131 -0.0221  0.2425
  107SAPE   O3210982   0.998   3.151   2.363 -0.2279 -0.2449 -0.0855
  107SAPE   C3210983   0.921   3.197   2.596  0.3170 -0.4084  0.2160
  107SAPE   H2X10984   0.846   3.270   2.635 -2.1769 -3.1111  0.8369
  107SAPE   H2Y10985   1.025   3.228   2.620 -0.0388  2.6838 -1.5346
  107SAPE   C2310986   0.422   3.026   2.533  0.3348  0.2436  0.1230
  107SAPE   H3R10987   0.517   3.039   2.589  0.9315  0.0500 -0.8086
  107SAPE   H3S10988   0.404   2.916   2.526  0.9485  0.1470 -0.0851
  107SAPE   C2410989   0.296   3.088   2.594 -0.4907  0.2229  0.7063
  107SAPE   H4R10990   0.301   3.198   2.609 -1.9395  0.7125 -1.8191
  107SAPE   H4S10991   0.284   3.040   2.694 -1.7669  1.8444  1.3865
  107SAPE   C2510992   0.170   3.066   2.517  0.5843 -0.2844  0.2527
  107SAPE   H5R10993   0.166   3.103   2.413  2.9881 -0.8128 -0.0941
  107SAPE   C2610994   0.059   3.001   2.554  0.3499 -0.2082 -0.3681
  107SAPE   H6R10995  -0.025   3.009   2.482 -0.5088  2.2843  0.7785
  107SAPE   C2710996   0.042   2.924   2.683 -0.3920 -0.0478  0.2650
  107SAPE   H7R10997   0.018   2.992   2.767  1.3083  0.4565  0.3728
  107SAPE   H7S10998   0.142   2.881   2.705  0.0237  0.6285 -0.2526
  107SAPE   C2810999  -0.063   2.808   2.684 -0.5068  0.6998  0.1065
  107SAPE   H8R11000  -0.109   2.788   2.586  0.9342 -0.2385 -0.4108
  107SAPE   C2911001  -0.103   2.736   2.788 -0.2814  0.0809  0.2052
  107SAPE   H9R11002  -0.177   2.656   2.775  1.0448 -0.8344 -2.5413
  107SAPE  C21011003  -0.044   2.760   2.919  0.3277  0.2695  0.2394
  107SAPE  H10R11004   0.061   2.792   2.904  0.5355  0.3925  1.8418
  107SAPE  H10S11005  -0.027   2.662   2.967 -0.5647 -1.5137 -2.7723
  107SAPE  C21111006  -0.124   2.854   3.006 -0.1503  0.1878  0.1161
  107SAPE  H11R11007  -0.208   2.909   2.960  0.5400  3.0403  2.0125
  107SAPE  C21211008  -0.099   2.882   3.131 -0.1877  1.0499 -0.8157
  107SAPE  H12R11009  -0.155   2.966   3.176 -1.4926  0.1634 -0.7197
  107SAPE  C21311010   0.008   2.819   3.217  0.2997  0.7809 -0.3083
  107SAPE  H13R11011   0.028   2.710   3.207 -1.5287  0.4477 -0.6926
  107SAPE  H13S11012  -0.032   2.826   3.320  1.4636  1.2732  0.1304
  107SAPE  C21411013   0.135   2.903   3.213  0.0386  0.3510 -0.1300
  107SAPE  H14R11014   0.179   2.894   3.112 -1.8015  0.5833 -0.9970
  107SAPE  C21511015   0.193   2.981   3.308  0.2300  0.3947  0.7253
  107SAPE  H15R11016   0.287   3.034   3.286  0.6377 -0.5178  0.2407
  107SAPE  C21611017   0.127   3.003   3.441  0.5915  0.0545  0.1821
  107SAPE  H16R11018   0.031   2.947   3.450  0.9322 -1.2525 -2.8171
  107SAPE  H16S11019   0.082   3.104   3.452 -1.6590 -1.0511  1.9921
  107SAPE  C21711020   0.217   2.972   3.559  0.0223 -0.1825 -0.2475
  107SAPE  H17R11021   0.303   3.042   3.553 -0.3253  0.4835  1.8045
  107SAPE  H17S11022   0.252   2.867   3.562 -0.3865 -0.3016  0.5194
  107SAPE  C21811023   0.149   3.013   3.684  0.0271 -0.1103 -0.4937
  107SAPE  H18R11024   0.039   3.003   3.676  0.0069  0.7706 -1.5022
  107SAPE  H18S11025   0.157   3.122   3.704  0.1002 -0.3696  0.9991
  107SAPE  C21911026   0.202   2.941   3.808 -0.5229  0.0706 -0.1798
  107SAPE  H19R11027   0.140   2.850   3.824 -1.1780  0.6310  0.5526
  107SAPE  H19S11028   0.183   3.017   3.888 -0.1324  0.1855 -0.1953
  107SAPE  C22011029   0.348   2.899   3.811 -0.2030 -1.1554 -0.3080
  107SAPE  H20R11030   0.368   2.858   3.912 -2.5098  0.1658  0.7840
  107SAPE  H20S11031   0.407   2.992   3.796 -1.5548 -0.6094 -2.8501
  107SAPE  H20T11032   0.376   2.828   3.731  0.3545 -1.1285 -0.1364
  107SAPE   C3311033   0.893   3.050   2.641 -1.0325 -0.2391  0.1689
  107SAPE   H3X11034   0.951   2.991   2.568 -0.9324  0.9691 -0.7599
  107SAPE   H3Y11035   0.786   3.020   2.638 -0.8526 -1.0099  0.8863
  107SAPE   C3411036   0.958   3.026   2.783 -0.1782 -0.4245  0.3350
  107SAPE   H4X11037   0.914   3.104   2.848  0.0282  0.0516 -0.0917
  107SAPE   H4Y11038   1.068   3.040   2.777 -0.2181  0.1580  0.8236
  107SAPE   C3511039   0.924   2.893   2.851  0.6767  0.4100 -0.3179
  107SAPE   H5X11040   0.961   2.807   2.791 -0.2539  0.4852 -1.0120
  107SAPE   H5Y11041   0.816   2.870   2.842  0.3589  0.2692  2.7998
  107SAPE   C3611042   0.957   2.876   3.005 -0.7506 -0.0444  0.2039
  107SAPE   H6X11043   1.064   2.900   3.022 -1.1382  0.9296  1.4497
  107SAPE   H6Y11044   0.927   2.780   3.051 -1.0694  0.9141  2.1010
  107SAPE   C3711045   0.880   2.980   3.088  0.1007  0.4838  0.3691
  107SAPE   H7X11046   0.770   2.972   3.083  0.3400 -3.7985 -1.6168
  107SAPE   H7Y11047   0.908   3.078   3.043 -0.8089 -0.6999 -3.0153
  107SAPE   C3811048   0.934   3.000   3.234  0.2303 -0.2993  0.6544
  107SAPE   H8X11049   0.907   2.909   3.290 -1.6135 -0.8482 -1.0177
  107SAPE   H8Y11050   0.876   3.081   3.283 -2.7895 -2.0461  0.2123
  107SAPE   C3911051   1.089   3.024   3.246  0.2627 -0.2401 -1.2461
  107SAPE   H9X11052   1.129   3.112   3.191 -0.1723  3.1099  3.2395
  107SAPE   H9Y11053   1.138   2.927   3.222  0.3357 -0.3109 -0.8256
  107SAPE  C31011054   1.115   3.066   3.391 -0.4957 -0.2114 -0.1295
  107SAPE  H10X11055   1.050   3.017   3.467  0.4490 -0.8883  0.2599
  107SAPE  H10Y11056   1.114   3.177   3.395  1.0642 -0.1712 -0.1209
  107SAPE  C31111057   1.254   3.029   3.438 -0.7420  0.4717  0.0652
  107SAPE  H11X11058   1.328   3.058   3.361 -1.1725  2.0150  0.1959
  107SAPE  H11Y11059   1.248   2.919   3.454 -1.0898  0.4483 -0.2117
  107SAPE  C31211060   1.300   3.093   3.574 -0.4742 -0.6888 -0.2146
  107SAPE  H12X11061   1.303   3.203   3.562  2.3715 -0.8457 -1.8608
  107SAPE  H12Y11062   1.401   3.053   3.598  0.3605  2.0944  1.3028
  107SAPE  C31311063   1.212   3.049   3.691  0.0215 -0.2620  0.0712
  107SAPE  H13X11064   1.223   2.938   3.695  2.3591 -0.0904 -0.1630
  107SAPE  H13Y11065   1.104   3.072   3.681 -0.2915 -0.3301  2.6690
  107SAPE  C31411066   1.251   3.094   3.833 -0.2492  0.3300 -0.0123
  107SAPE  H14X11067   1.171   3.091   3.910  1.2991  1.4153  1.7187
  107SAPE  H14Y11068   1.287   3.199   3.836  1.2262 -0.1533 -0.3248
  107SAPE  C31511069   1.367   3.011   3.886 -0.3818 -0.2127 -0.7689
  107SAPE  H15X11070   1.462   3.056   3.850  1.0197 -0.2098  2.5171
  107SAPE  H15Y11071   1.358   2.903   3.863 -0.6620 -0.2836 -0.3291
  107SAPE  C31611072   1.374   3.027   4.043  0.5012  0.5035 -0.0949
  107SAPE  H16X11073   1.363   3.136   4.064  1.8447  0.7662 -0.6265
  107SAPE  H16Y11074   1.474   3.010   4.087  0.7468  0.4648 -0.6564
  107SAPE  C31711075   1.271   2.940   4.118  0.5880 -0.3388  0.6844
  107SAPE  H17X11076   1.296   2.833   4.103  0.0006 -0.3419 -0.3571
  107SAPE  H17Y11077   1.172   2.960   4.073  0.1351 -0.8110  1.4466
  107SAPE  C31811078   1.261   2.962   4.266 -0.3574 -0.4699 -0.1106
  107SAPE  H18X11079   1.225   3.062   4.298  2.8143  0.1901  1.9006
  107SAPE  H18Y11080   1.361   2.950   4.313 -0.6085  2.1082  1.2548
  107SAPE  H18Z11081   1.190   2.893   4.316 -0.9877  0.2739  0.0286
  108SAPE     N11082   0.565   3.694   1.603 -0.1815 -0.3355 -0.7204
  108SAPE   HN111083   0.573   3.748   1.692  0.7418 -1.2206 -0.2439
  108SAPE   HN211084   0.522   3.603   1.627 -0.7546  0.3972  1.1937
  108SAPE   HN311085   0.659   3.678   1.561 -0.0133 -0.6952 -0.2140
  108SAPE   C1211086   0.477   3.761   1.500 -0.8090  0.7525 -0.2285
  108SAPE  H12A11087   0.446   3.693   1.419 -2.2699  0.7913  0.2731
  108SAPE  H12B11088   0.532   3.850   1.462  0.6727  0.8737  2.0093
  108SAPE   C1111089   0.334   3.783   1.555 -0.4345  0.0941  0.1128
  108SAPE  H11A11090   0.282   3.686   1.571 -0.3818  0.3551  2.1434
  108SAPE  H11B11091   0.279   3.843   1.479  4.0422  4.5833 -0.1624
  108SAPE     P11092   0.236   3.857   1.792  0.2496  0.1156  0.3010
  108SAPE   O1311093   0.263   3.969   1.878  0.0715 -0.2074 -0.4074
  108SAPE   O1411094   0.094   3.863   1.734 -0.2528  0.1705 -0.2214
  108SAPE   O1211095   0.346   3.856   1.677 -0.0037  0.2229 -0.3152
  108SAPE   O1111096   0.262   3.719   1.870  0.0656  0.0796  0.0129
  108SAPE    C111097   0.177   3.690   1.979  0.8872  0.8343 -0.5486
  108SAPE    HA11098   0.066   3.697   1.975  0.7082  1.1157  2.5258
  108SAPE    HB11099   0.192   3.582   1.999 -0.9107  0.7557  0.5448
  108SAPE    C211100   0.209   3.772   2.110 -0.3897  0.5091  0.3060
  108SAPE    HS11101   0.173   3.876   2.094 -0.5397  0.2811 -0.9505
  108SAPE   O2111102   0.353   3.771   2.143  0.2279 -0.7433  0.3073
  108SAPE   C2111103   0.399   3.891   2.174 -0.1293 -0.8430 -0.9604
  108SAPE   O2211104   0.331   3.989   2.207  0.3981  0.0659  0.1354
  108SAPE   C2211105   0.550   3.895   2.180  0.3976 -0.1655  0.1957
  108SAPE   H2R11106   0.583   3.903   2.074 -1.4620  0.8246 -0.3629
  108SAPE   H2S11107   0.585   3.988   2.230 -1.8768 -0.0451  1.7132
  108SAPE    C311108   0.124   3.717   2.233 -0.1713 -0.2685 -0.1463
  108SAPE    HX11109   0.122   3.800   2.307 -1.2577 -0.3703 -0.0473
  108SAPE    HY11110   0.184   3.636   2.279  2.3617  0.9504 -1.0877
  108SAPE   O3111111  -0.008   3.680   2.204  0.6560 -0.3093  0.2168
  108SAPE   C3111112  -0.094   3.776   2.165  0.5015  0.7382 -0.2648
  108SAPE   O3211113  -0.073   3.892   2.140 -0.3742  0.4858  0.1695
  108SAPE   C3211114  -0.227   3.711   2.155  0.7473  0.3125 -0.0106
  108SAPE   H2X11115  -0.219   3.612   2.205  2.1493  1.5991  2.4923
  108SAPE   H2Y11116  -0.259   3.713   2.048  0.2059 -0.7038  0.1186
  108SAPE   C2311117   0.632   3.778   2.234 -0.8316 -0.1588 -0.5675
  108SAPE   H3R11118   0.739   3.794   2.210 -0.9855  0.9386 -0.5882
  108SAPE   H3S11119   0.594   3.688   2.181 -3.2314  0.3012  0.2368
  108SAPE   C2411120   0.611   3.757   2.384 -0.0552  0.1564 -0.2349
  108SAPE   H4R11121   0.504   3.734   2.404 -0.0698 -2.3322 -2.5437
  108SAPE   H4S11122   0.629   3.851   2.441  0.3974 -0.9593  1.5445
  108SAPE   C2511123   0.710   3.657   2.440 -0.0072 -0.6244 -0.8616
  108SAPE   H5R11124   0.812   3.675   2.401 -0.1330 -0.3908 -1.0806
  108SAPE   C2611125   0.696   3.553   2.524  0.3523 -0.5189 -0.2618
  108SAPE   H6R11126   0.784   3.494   2.552  2.9392  2.0489 -2.3997
  108SAPE   C2711127   0.567   3.519   2.597  0.2763 -0.0653 -0.3454
  108SAPE   H7R11128   0.483   3.538   2.527 -0.1983 -0.4375  0.1139
  108SAPE   H7S11129   0.547   3.595   2.676 -1.4993 -0.9039  0.0572
  108SAPE   C2811130   0.560   3.371   2.642 -0.0221 -0.4143  0.7610
  108SAPE   H8R11131   0.543   3.299   2.561  0.7806 -1.1012  1.1818
  108SAPE   C2911132   0.583   3.321   2.772  0.1532 -0.2769  0.2684
  108SAPE   H9R11133   0.566   3.214   2.789  3.3342 -1.4263 -2.5535
  108SAPE  C21011134   0.617   3.407   2.894  0.9954 -0.0091  1.0530
  108SAPE  H10R11135   0.524   3.439   2.946  1.6058  3.1510  0.4238
  108SAPE  H10S11136   0.672   3.498   2.863 -0.1591  0.4630  0.3135
  108SAPE  C21111137   0.693   3.321   2.984  0.4354 -0.1252  0.3662
  108SAPE  H11R11138   0.779   3.273   2.934  0.0107 -0.0380 -0.4559
  108SAPE  C21211139   0.664   3.293   3.114 -0.1578  0.1320  0.0160
  108SAPE  H12R11140   0.743   3.243   3.172  0.9360  2.8664  1.0194
  108SAPE  C21311141   0.548   3.350   3.194 -0.3808  0.4666  0.4738
  108SAPE  H13R11142   0.455   3.356   3.134 -0.6473  2.1579  1.0088
  108SAPE  H13S11143   0.582   3.452   3.223 -0.4736  0.4568  0.6199
  108SAPE  C21411144   0.515   3.267   3.318 -0.2091  0.0780 -0.1297
  108SAPE  H14R11145   0.411   3.232   3.325 -0.6517  0.4860 -3.2251
  108SAPE  C21511146   0.599   3.229   3.416  0.2683  0.3235 -0.5743
  108SAPE  H15R11147   0.548   3.179   3.500  0.8977  0.1570 -0.2845
  108SAPE  C21611148   0.741   3.273   3.438 -0.0816 -0.3133  0.0731
  108SAPE  H16R11149   0.790   3.335   3.360 -0.2827  0.6342  0.6739
  108SAPE  H16S11150   0.806   3.185   3.453 -0.0578 -0.0579  1.6557
  108SAPE  C21711151   0.745   3.348   3.574 -0.1378  0.2538 -0.1942
  108SAPE  H17R11152   0.699   3.287   3.655  0.3358 -1.3311 -1.0968
  108SAPE  H17S11153   0.689   3.444   3.565  1.6181  1.1925 -1.7007
  108SAPE  C21811154   0.887   3.401   3.601 -0.0832  0.1976  0.3206
  108SAPE  H18R11155   0.930   3.449   3.510 -0.1617 -0.8452 -0.2949
  108SAPE  H18S11156   0.954   3.314   3.616  0.7841  1.1594  2.2968
  108SAPE  C21911157   0.886   3.500   3.719 -0.9731  0.1639  0.1129
  108SAPE  H19R11158   0.990   3.489   3.757 -1.4734 -1.4086  1.1373
  108SAPE  H19S11159   0.825   3.464   3.805 -1.4214  0.4760 -0.0711
  108SAPE  C22011160   0.867   3.649   3.687 -0.1404  0.1243  0.2793
  108SAPE  H20R11161   0.856   3.657   3.576 -1.6352 -0.4547  0.3551
  108SAPE  H20S11162   0.959   3.704   3.714  2.0881 -2.1665 -2.0554
  108SAPE  H20T11163   0.775   3.690   3.734 -0.2452 -0.5185  0.6436
  108SAPE   C3311164  -0.330   3.792   2.244  0.1500  0.9371  0.3033
  108SAPE   H3X11165  -0.428   3.748   2.214 -0.8246  1.6972  2.2021
  108SAPE   H3Y11166  -0.322   3.899   2.215  1.1384  0.6964 -0.3576
  108SAPE   C3411167  -0.301   3.779   2.396 -0.1406  0.0862  0.3258
  108SAPE   H4X11168  -0.206   3.835   2.414  0.1989 -0.2424 -0.4057
  108SAPE   H4Y11169  -0.286   3.670   2.406 -1.5205 -0.4058 -2.1621
  108SAPE   C3511170  -0.415   3.827   2.485  0.3514  0.0703 -0.6521
  108SAPE   H5X11171  -0.437   3.928   2.445  0.2653 -0.9307 -3.3489
  108SAPE   H5Y11172  -0.506   3.765   2.473 -1.2032  2.0137  0.5214
  108SAPE   C3611173  -0.379   3.832   2.638  0.5228  0.2761 -0.4418
  108SAPE   H6X11174  -0.295   3.905   2.647  0.5114  0.2413 -0.0450
  108SAPE   H6Y11175  -0.333   3.735   2.665  0.2320  0.7835  2.1466
  108SAPE   C3711176  -0.499   3.868   2.725 -0.2592  0.6380 -0.1351
  108SAPE   H7X11177  -0.570   3.784   2.741 -0.4434  0.8786  0.3361
  108SAPE   H7Y11178  -0.549   3.940   2.656 -1.2749 -1.3407 -1.5767
  108SAPE   C3811179  -0.460   3.937   2.863  0.2779 -0.4992 -0.1690
  108SAPE   H8X11180  -0.550   3.989   2.902 -0.4378  0.2133 -2.6034
  108SAPE   H8Y11181  -0.375   4.008   2.853  0.2129 -0.2666  0.8285
  108SAPE   C3911182  -0.415   3.824   2.958 -0.0708  0.2251 -0.2266
  108SAPE   H9X11183  -0.332   3.769   2.910  0.0204  0.5955 -0.4979
  108SAPE   H9Y11184  -0.506   3.763   2.976  1.9132 -2.0208  3.6364
  108SAPE  C31011185  -0.369   3.873   3.098 -0.4780  0.5061 -0.1812
  108SAPE  H10X11186  -0.461   3.900   3.153 -1.0877  1.7931 -1.7566
  108SAPE  H10Y11187  -0.311   3.965   3.076  0.5318  0.1908  1.0487
  108SAPE  C31111188  -0.286   3.770   3.172  0.3544  0.1705  0.0270
  108SAPE  H11X11189  -0.339   3.674   3.193 -2.1789  1.4162 -0.2574
  108SAPE  H11Y11190  -0.268   3.804   3.276  1.7282 -0.9545  0.1854
  108SAPE  C31211191  -0.151   3.737   3.113  0.1613  0.2486  0.4915
  108SAPE  H12X11192  -0.092   3.829   3.092  1.7744 -0.9863 -0.6767
  108SAPE  H12Y11193  -0.153   3.691   3.012 -0.4892  0.3940  0.4376
  108SAPE  C31311194  -0.051   3.664   3.208 -0.0481  0.6700  0.0574
  108SAPE  H13X11195  -0.048   3.735   3.294  0.4527 -1.1545  1.6204
  108SAPE  H13Y11196   0.051   3.661   3.164  0.0293  1.7548  0.1378
  108SAPE  C31411197  -0.102   3.530   3.266 -0.0716 -0.3533  0.4152
  108SAPE  H14X11198  -0.206   3.530   3.304 -1.7797 -1.2863 -3.7230
  108SAPE  H14Y11199  -0.031   3.502   3.346  0.5590 -0.9477 -0.3459
  108SAPE  C31511200  -0.093   3.412   3.159  1.1005 -0.8074 -0.4620
  108SAPE  H15X11201  -0.142   3.453   3.069 -1.9639  0.2303  1.5057
  108SAPE  H15Y11202  -0.167   3.334   3.188  0.8102 -1.6453 -3.1827
  108SAPE  C31611203   0.038   3.339   3.141 -0.0842  0.1733 -0.9710
  108SAPE  H16X11204   0.036   3.266   3.225  4.4853 -0.4839 -1.1858
  108SAPE  H16Y11205   0.123   3.411   3.147 -0.6854  0.8012  0.6889
  108SAPE  C31711206   0.044   3.271   3.009 -0.0655  0.3856  0.4642
  108SAPE  H17X11207   0.045   3.342   2.924  0.3052 -2.7569 -2.3891
  108SAPE  H17Y11208  -0.035   3.193   3.002  0.4924 -0.1244 -0.2529
  108SAPE  C31811209   0.175   3.194   3.002  0.3356 -0.2571  0.2455
  108SAPE  H18X11210   0.166   3.096   2.951 -1.9275 -0.4323  0.8725
  108SAPE  H18Y11211   0.201   3.167   3.107  2.5663 -2.5712 -0.8137
  108SAPE  H18Z11212   0.263   3.257   2.978  0.4936  0.1608  1.7861
  109SAPE     N11213   4.609   1.569   1.542 -0.1664 -0.4941  0.1227
  109SAPE   HN111214   4.678   1.648   1.543 -0.4673 -0.0863 -3.0845
  109SAPE   HN211215   4.646   1.499   1.476  0.4284  0.1208 -0.2158
  109SAPE   HN311216   4.514   1.600   1.515  0.3783  0.3295 -0.9303
  109SAPE   C1211217   4.592   1.516   1.678 -0.6237 -0.1203  0.5675
  109SAPE  H12A11218   4.516   1.435   1.681 -1.5890  0.7790  2.1977
  109SAPE  H12B11219   4.540   1.593   1.739 -2.3664 -0.9682  0.2442
  109SAPE   C1111220   4.729   1.474   1.733  0.3095 -1.1251 -0.0261
  109SAPE  H11A11221   4.719   1.475   1.843 -0.1822  3.5350  0.0853
  109SAPE  H11B11222   4.805   1.554   1.718 -0.8009 -0.2152 -1.0749
  109SAPE     P11223   4.883   1.268   1.746 -0.3415  0.1211  0.4725
  109SAPE   O1311224   4.906   1.141   1.673  0.2639  0.2740 -0.5823
  109SAPE   O1411225   5.001   1.355   1.772  0.4303 -0.0932 -0.1517
  109SAPE   O1211226   4.763   1.349   1.680  0.2938 -0.2506 -0.5538
  109SAPE   O1111227   4.819   1.239   1.885 -0.2242  0.1085  0.1841
  109SAPE    C111228   4.692   1.183   1.905 -0.0552 -0.2021  0.1619
  109SAPE    HA11229   4.616   1.205   1.827  0.7362 -1.2721 -0.9449
  109SAPE    HB11230   4.705   1.073   1.907 -5.6902 -1.1528  1.3575
  109SAPE    C211231   4.625   1.218   2.049 -0.0836  0.1130 -0.7531
  109SAPE    HS11232   4.591   1.323   2.061 -0.0090 -0.0567  1.3226
  109SAPE   O2111233   4.717   1.181   2.151 -0.4053  0.1730 -0.0035
  109SAPE   C2111234   4.818   1.276   2.162  0.8425 -0.3044  0.3463
  109SAPE   O2211235   4.834   1.379   2.102 -0.0871 -0.0386 -0.0384
  109SAPE   C2211236   4.919   1.215   2.260  0.9391  0.6199  0.0506
  109SAPE   H2R11237   4.861   1.212   2.354  0.5107  1.0738 -0.1948
  109SAPE   H2S11238   4.933   1.110   2.226  1.4230  0.9355 -0.7611
  109SAPE    C311239   4.497   1.136   2.078 -0.8848 -0.2782 -0.0729
  109SAPE    HX11240   4.542   1.035   2.089  1.2796  0.3399 -2.2110
  109SAPE    HY11241   4.445   1.135   1.979  2.0625  1.1766 -1.7854
  109SAPE   O3111242   4.407   1.195   2.178  0.0740 -0.7225 -0.3241
  109SAPE   C3111243   4.365   1.101   2.261  0.5033  0.6622 -0.0170
  109SAPE   O3211244   4.389   0.984   2.247  0.1110 -0.2671  0.0099
  109SAPE   C3211245   4.276   1.169   2.367  0.4561 -0.2939 -0.7243
  109SAPE   H2X11246   4.191   1.101   2.391  0.5350 -0.5089 -1.0503
  109SAPE   H2Y11247   4.246   1.264   2.317 -1.3188 -1.0533 -1.1830
  109SAPE   C2311248   5.056   1.294   2.269 -0.0975  0.0738 -0.0669
  109SAPE   H3R11249   5.040   1.399   2.300  1.8977 -0.0258  1.5048
  109SAPE   H3S11250   5.104   1.283   2.169  0.5836 -1.0943  0.3677
  109SAPE   C2411251   5.158   1.236   2.369  0.1596  0.2321 -0.1222
  109SAPE   H4R11252   5.149   1.126   2.362 -0.0497  0.2158  0.4070
  109SAPE   H4S11253   5.148   1.264   2.476  1.7161 -1.0508  0.3962
  109SAPE   C2511254   5.303   1.257   2.332 -0.1500 -0.2229 -0.3916
  109SAPE   H5R11255   5.328   1.323   2.247  0.0655 -0.9303 -0.8820
  109SAPE   C2611256   5.406   1.194   2.381 -0.0150  0.8444 -0.3682
  109SAPE   H6R11257   5.504   1.236   2.352 -0.5781  1.7463 -1.0311
  109SAPE   C2711258   5.403   1.088   2.488 -0.6116 -0.1491  0.2050
  109SAPE   H7R11259   5.368   0.991   2.447  0.3607 -0.9618  1.2490
  109SAPE   H7S11260   5.328   1.117   2.564  0.7683  0.6505  1.3127
  109SAPE   C2811261   5.539   1.072   2.559 -0.2335  0.8680 -0.3438
  109SAPE   H8R11262   5.612   1.154   2.560  1.2578 -0.3241  2.6246
  109SAPE   C2911263   5.580   0.964   2.635  0.1383 -0.3164 -0.4096
  109SAPE   H9R11264   5.664   0.979   2.705 -0.5930  1.9256  0.0918
  109SAPE  C21011265   5.494   0.853   2.680  0.2508 -0.4524  0.0758
  109SAPE  H10R11266   5.390   0.870   2.644 -0.6242 -0.1300  2.5404
  109SAPE  H10S11267   5.484   0.862   2.791 -4.3887 -1.0965 -0.0885
  109SAPE  C21111268   5.559   0.723   2.664 -0.3373  0.4493  0.6361
  109SAPE  H11R11269   5.635   0.726   2.585 -2.7199  0.8515 -1.8103
  109SAPE  C21211270   5.530   0.606   2.720 -0.0813 -0.5278  0.3773
  109SAPE  H12R11271   5.580   0.513   2.687 -1.1784 -1.2792  0.7893
  109SAPE  C21311272   5.411   0.589   2.809 -0.0083  0.3441 -0.1527
  109SAPE  H13R11273   5.363   0.497   2.768  3.9676 -2.0594 -0.0227
  109SAPE  H13S11274   5.340   0.673   2.795 -0.0420  0.6022  1.3929
  109SAPE  C21411275   5.445   0.568   2.954 -0.2757 -0.1713  0.6871
  109SAPE  H14R11276   5.528   0.498   2.976 -0.5897 -0.9473 -0.4931
  109SAPE  C21511277   5.375   0.613   3.057  0.3371  0.7064 -0.5452
  109SAPE  H15R11278   5.415   0.589   3.157 -2.1640  0.4337  0.4661
  109SAPE  C21611279   5.251   0.697   3.058 -0.3001 -0.8480 -0.4193
  109SAPE  H16R11280   5.167   0.631   3.086 -2.2252  1.5858 -0.1295
  109SAPE  H16S11281   5.239   0.739   2.956 -1.8868  0.4567  0.2618
  109SAPE  C21711282   5.252   0.816   3.157 -0.4698  0.0808  0.6424
  109SAPE  H17R11283   5.158   0.871   3.133 -0.4440 -0.2086 -0.1507
  109SAPE  H17S11284   5.340   0.883   3.144 -1.2744  0.9306 -0.6032
  109SAPE  C21811285   5.261   0.778   3.301  0.5543  0.8823 -0.2043
  109SAPE  H18R11286   5.359   0.739   3.333  1.5015  4.2102  1.3840
  109SAPE  H18S11287   5.186   0.696   3.310  2.0336 -0.4476  0.6030
  109SAPE  C21911288   5.226   0.886   3.404 -0.7544  0.4668  0.3391
  109SAPE  H19R11289   5.190   0.849   3.502  2.0359  0.6243  1.5099
  109SAPE  H19S11290   5.149   0.949   3.355  0.2062  0.5525 -1.1371
  109SAPE  C22011291   5.358   0.964   3.435  0.1154  0.6415  0.1480
  109SAPE  H20R11292   5.336   1.043   3.511 -0.7201 -0.5511  1.2020
  109SAPE  H20S11293   5.385   1.021   3.344  1.3810 -0.9720 -0.5314
  109SAPE  H20T11294   5.444   0.906   3.476 -1.5420 -1.6984  0.5510
  109SAPE   C3311295   4.361   1.186   2.489  0.7591  0.0899 -0.1707
  109SAPE   H3X11296   4.443   1.253   2.458  1.6083 -1.6339 -1.8689
  109SAPE   H3Y11297   4.415   1.091   2.510  0.4419  0.1301  0.9399
  109SAPE   C3411298   4.285   1.237   2.607  0.6450  0.5628 -0.2922
  109SAPE   H4X11299   4.369   1.270   2.671 -0.2449  1.0233  0.6770
  109SAPE   H4Y11300   4.235   1.151   2.658 -0.3218  1.6498  0.6518
  109SAPE   C3511301   4.184   1.345   2.578  0.1948 -0.1885 -0.1037
  109SAPE   H5X11302   4.105   1.304   2.511 -0.4025  0.4930  0.1648
  109SAPE   H5Y11303   4.225   1.435   2.528 -0.8331 -0.3925 -1.3570
  109SAPE   C3611304   4.111   1.391   2.708  0.5203 -0.0127  0.4325
  109SAPE   H6X11305   4.080   1.308   2.775  0.4816 -1.2161 -1.0276
  109SAPE   H6Y11306   4.024   1.457   2.687  0.5604 -0.5583 -1.7494
  109SAPE   C3711307   4.194   1.493   2.785  0.1686 -0.4883 -0.1322
  109SAPE   H7X11308   4.217   1.586   2.729 -1.8355  0.8432  1.1075
  109SAPE   H7Y11309   4.293   1.444   2.789 -1.3560 -3.8786 -0.3466
  109SAPE   C3811310   4.129   1.527   2.923  0.5169  0.4965  0.3707
  109SAPE   H8X11311   4.128   1.429   2.976  0.8964  1.1688  1.6783
  109SAPE   H8Y11312   4.024   1.561   2.911  0.6225  1.9898  2.8457
  109SAPE   C3911313   4.209   1.629   3.008  0.3322 -0.3086  0.8186
  109SAPE   H9X11314   4.225   1.720   2.948 -0.3051 -0.7234 -0.0002
  109SAPE   H9Y11315   4.312   1.594   3.028  1.3885  1.4011 -1.2295
  109SAPE  C31011316   4.135   1.681   3.135  0.3056 -0.2077 -0.3223
  109SAPE  H10X11317   4.052   1.752   3.115 -1.1886 -2.2378 -1.8905
  109SAPE  H10Y11318   4.217   1.729   3.193 -0.5198 -0.2350  0.8998
  109SAPE  C31111319   4.083   1.564   3.222  0.0637 -0.3408  0.4182
  109SAPE  H11X11320   4.168   1.494   3.240 -0.5374 -1.5761 -1.1958
  109SAPE  H11Y11321   4.005   1.511   3.162 -0.2802 -0.8754  1.3239
  109SAPE  C31211322   4.033   1.624   3.355 -0.0200  0.5565 -0.2344
  109SAPE  H12X11323   3.975   1.717   3.334 -1.5751 -0.1883  0.5995
  109SAPE  H12Y11324   4.111   1.646   3.431  0.2660  0.0071 -0.3643
  109SAPE  C31311325   3.946   1.519   3.423  0.2164 -0.4732 -0.2092
  109SAPE  H13X11326   4.014   1.437   3.454  0.3377  0.3831  2.0049
  109SAPE  H13Y11327   3.873   1.471   3.355 -1.1269 -0.2275  1.0073
  109SAPE  C31411328   3.860   1.563   3.544 -0.3513  0.0245 -0.0870
  109SAPE  H14X11329   3.777   1.489   3.541 -0.5818  0.3059 -1.0354
  109SAPE  H14Y11330   3.833   1.670   3.534  0.4935  0.3354  0.8124
  109SAPE  C31511331   3.946   1.566   3.677  0.0714  0.0387  0.9483
  109SAPE  H15X11332   4.031   1.637   3.680 -0.6662  0.9894 -0.2844
  109SAPE  H15Y11333   3.995   1.468   3.697  1.6679  0.2165 -1.6191
  109SAPE  C31611334   3.856   1.597   3.804 -0.4506  0.6019  0.5238
  109SAPE  H16X11335   3.785   1.514   3.824  1.5371 -0.6873  2.8586
  109SAPE  H16Y11336   3.806   1.696   3.794 -0.1917  0.9050  1.9590
  109SAPE  C31711337   3.941   1.591   3.937  0.7191 -0.3138  0.2773
  109SAPE  H17X11338   3.990   1.690   3.951 -3.1303  1.6233  1.2315
  109SAPE  H17Y11339   4.016   1.509   3.941  0.9975 -0.1355 -0.9107
  109SAPE  C31811340   3.858   1.588   4.069  0.1840  0.0288  0.2408
  109SAPE  H18X11341   3.815   1.688   4.093 -1.6517 -0.3814 -1.0881
  109SAPE  H18Y11342   3.933   1.564   4.147  1.4852  0.6766 -0.7780
  109SAPE  H18Z11343   3.773   1.516   4.070 -0.3377  0.6204 -0.3265
  110SAPE     N11344   3.502   6.761   1.859 -0.1087 -0.2058  1.0341
  110SAPE   HN111345   3.420   6.825   1.847  0.3913  0.1395 -0.9860
  110SAPE   HN211346   3.588   6.818   1.853 -0.2159 -0.0835  0.5885
  110SAPE   HN311347   3.501   6.697   1.777  0.0724  2.1960 -1.0074
  110SAPE   C1211348   3.492   6.688   1.984  0.0130 -0.3802 -0.0754
  110SAPE  H12A11349   3.485   6.758   2.070  1.1081  0.4004 -0.5942
  110SAPE  H12B11350   3.583   6.629   2.004 -0.4095 -0.4043  2.0178
  110SAPE   C1111351   3.383   6.581   1.966 -0.1703  1.0595  0.1848
  110SAPE  H11A11352   3.284   6.626   1.945 -0.4471  0.3038 -0.1738
  110SAPE  H11B11353   3.381   6.517   2.056 -1.2298  0.9385  0.0828
  110SAPE     P11354   3.389   6.346   1.855 -0.0769 -0.5062  0.2718
  110SAPE   O1311355   3.340   6.311   1.717 -0.0163 -0.1530 -0.5728
  110SAPE   O1411356   3.509   6.276   1.906  0.8308  0.0657 -0.0032
  110SAPE   O1211357   3.423   6.498   1.851 -0.3042  0.0463  0.1227
  110SAPE   O1111358   3.267   6.320   1.961 -0.0052 -0.0583  0.8100
  110SAPE    C111359   3.183   6.208   1.944 -0.0992  0.6120 -0.1817
  110SAPE    HA11360   3.138   6.211   1.842 -0.4112  1.0841 -0.0344
  110SAPE    HB11361   3.251   6.122   1.966 -1.3076  0.0750  1.6595
  110SAPE    C211362   3.080   6.200   2.055 -0.1846  0.7549 -0.3982
  110SAPE    HS11363   3.002   6.278   2.041  0.2539  1.3846  0.5123
  110SAPE   O2111364   3.149   6.214   2.183  0.0170  0.4143  0.7685
  110SAPE   C2111365   3.151   6.336   2.228  0.5606  0.3624 -0.6891
  110SAPE   O2211366   3.114   6.432   2.164  0.6544 -0.8365  0.2458
  110SAPE   C2211367   3.206   6.337   2.372 -0.7818  0.3678  0.3223
  110SAPE   H2R11368   3.185   6.240   2.422 -0.5901  0.5506  0.7713
  110SAPE   H2S11369   3.317   6.337   2.369 -0.7994 -0.4826 -0.6186
  110SAPE    C311370   3.014   6.063   2.075  0.3405  0.1229  0.2055
  110SAPE    HX11371   2.966   6.048   1.976  2.2439  0.1014 -0.7595
  110SAPE    HY11372   3.094   5.986   2.085  0.4323  0.3561  1.3834
  110SAPE   O3111373   2.928   6.064   2.184  0.0093  0.0779 -0.3349
  110SAPE   C3111374   2.954   5.992   2.288  0.0158  0.9215  0.0587
  110SAPE   O3211375   3.027   5.894   2.289 -0.3354  0.6764  0.5024
  110SAPE   C3211376   2.880   6.046   2.411 -0.5126 -0.4611  0.4162
  110SAPE   H2X11377   2.773   6.030   2.388 -0.8023  1.9427 -0.1415
  110SAPE   H2Y11378   2.914   6.152   2.407  1.7559 -1.1646 -1.2864
  110SAPE   C2311379   3.175   6.463   2.449 -0.7934 -0.0543 -0.3933
  110SAPE   H3R11380   3.085   6.443   2.511  0.0060  1.7674  1.4704
  110SAPE   H3S11381   3.157   6.550   2.382  0.5181  1.5783  1.2645
  110SAPE   C2411382   3.283   6.504   2.555  0.5480 -0.2184 -0.8011
  110SAPE   H4R11383   3.335   6.416   2.597 -0.0080 -1.2566 -2.2104
  110SAPE   H4S11384   3.231   6.554   2.640 -1.0651 -0.1569 -1.7769
  110SAPE   C2511385   3.381   6.605   2.493  0.3877  1.0157 -0.1490
  110SAPE   H5R11386   3.466   6.562   2.438 -0.5282  0.1880 -0.9592
  110SAPE   C2611387   3.368   6.739   2.489  0.9777 -0.5644 -0.1538
  110SAPE   H6R11388   3.454   6.799   2.454  1.7587 -1.3127  0.4471
  110SAPE   C2711389   3.252   6.820   2.554  0.2912 -0.3895  0.0907
  110SAPE   H7R11390   3.221   6.780   2.653 -0.1618 -0.0148  0.1036
  110SAPE   H7S11391   3.161   6.805   2.493  0.0714 -3.1678  0.9423
  110SAPE   C2811392   3.282   6.966   2.559 -0.3245 -0.1568 -0.0969
  110SAPE   H8R11393   3.270   7.023   2.466 -1.8201 -0.5949 -0.1998
  110SAPE   C2911394   3.300   7.039   2.667  0.1918 -0.2126  0.2598
  110SAPE   H9R11395   3.301   7.149   2.661 -0.9906 -0.2413 -0.8898
  110SAPE  C21011396   3.302   6.991   2.809 -0.8326  0.4153  0.4023
  110SAPE  H10R11397   3.364   7.064   2.865 -1.0750 -0.4861  1.9287
  110SAPE  H10S11398   3.355   6.893   2.815 -0.3379  0.7085  0.9893
  110SAPE  C21111399   3.164   6.988   2.869 -0.5788  0.7388  0.0578
  110SAPE  H11R11400   3.082   6.973   2.797 -2.0286 -0.2522  1.7920
  110SAPE  C21211401   3.128   7.006   3.001 -0.1143  0.3457  0.5030
  110SAPE  H12R11402   3.023   6.988   3.029 -0.1665 -0.8850 -0.4262
  110SAPE  C21311403   3.221   7.032   3.118 -0.1514 -0.0190 -0.2604
  110SAPE  H13R11404   3.324   7.000   3.091 -0.4018 -0.8458 -0.2634
  110SAPE  H13S11405   3.194   6.982   3.213 -1.5603 -1.2539 -1.2446
  110SAPE  C21411406   3.234   7.178   3.157 -0.5539  0.4386  0.0721
  110SAPE  H14R11407   3.186   7.256   3.097 -0.6469  1.2624  1.2001
  110SAPE  C21511408   3.311   7.216   3.260  0.1613  0.1740 -0.3685
  110SAPE  H15R11409   3.293   7.318   3.298 -0.3404 -0.4087  1.0382
  110SAPE  C21611410   3.399   7.129   3.346 -0.1274 -0.8725  0.2813
  110SAPE  H16R11411   3.489   7.188   3.373 -0.9984  0.6264 -0.0039
  110SAPE  H16S11412   3.437   7.038   3.295  2.8068 -0.1693  1.0513
  110SAPE  C21711413   3.326   7.062   3.459  0.2258  0.0558 -0.0535
  110SAPE  H17R11414   3.396   7.002   3.521  0.8985  0.4599 -0.4047
  110SAPE  H17S11415   3.235   7.008   3.428 -0.1775  0.2890  0.7133
  110SAPE  C21811416   3.283   7.171   3.561  0.2579  0.0354  0.0437
  110SAPE  H18R11417   3.238   7.262   3.515  0.8455 -0.8901 -2.5385
  110SAPE  H18S11418   3.379   7.206   3.606  0.3140  0.7188 -0.5696
  110SAPE  C21911419   3.199   7.118   3.678 -0.3904  0.0471  0.1543
  110SAPE  H19R11420   3.192   7.201   3.750 -3.6602 -0.3980  0.5048
  110SAPE  H19S11421   3.244   7.033   3.733  1.2339  0.9626  0.3019
  110SAPE  C22011422   3.056   7.102   3.640  0.2932 -0.7222 -0.3952
  110SAPE  H20R11423   3.015   7.196   3.598  1.0672  0.9421  2.2928
  110SAPE  H20S11424   2.989   7.077   3.725  2.4258 -0.6022  1.4065
  110SAPE  H20T11425   3.033   7.025   3.563 -1.4740 -0.6559  0.0186
  110SAPE   C3311426   2.910   5.990   2.552  0.5562 -0.2139 -0.5307
  110SAPE   H3X11427   3.009   5.941   2.544  1.5490  1.8566 -1.7993
  110SAPE   H3Y11428   2.840   5.908   2.578  0.1428  0.0230 -0.8783
  110SAPE   C3411429   2.892   6.097   2.662  0.2521  0.6964  0.4272
  110SAPE   H4X11430   2.795   6.151   2.656  0.0170  0.3569  1.0914
  110SAPE   H4Y11431   2.969   6.173   2.636  3.0467 -1.7474  0.9404
  110SAPE   C3511432   2.917   6.042   2.803 -0.2053  0.7525 -0.2737
  110SAPE   H5X11433   3.010   5.981   2.801  1.0415  2.5774 -0.2332
  110SAPE   H5Y11434   2.835   5.969   2.823  1.3365 -1.0231 -0.1561
  110SAPE   C3611435   2.895   6.159   2.903  0.5231  0.0949  0.0852
  110SAPE   H6X11436   2.788   6.192   2.901  0.5720  0.3314  0.9454
  110SAPE   H6Y11437   2.968   6.242   2.902 -0.4524  0.9809 -0.8213
  110SAPE   C3711438   2.916   6.102   3.051  0.1934  0.8448  0.2645
  110SAPE   H7X11439   3.021   6.069   3.064 -0.0538  1.1012  3.8003
  110SAPE   H7Y11440   2.849   6.013   3.058  0.2334  0.6304 -1.5792
  110SAPE   C3811441   2.877   6.215   3.156  0.0420  0.6775  0.1367
  110SAPE   H8X11442   2.767   6.222   3.145  0.2707  1.8496 -1.9005
  110SAPE   H8Y11443   2.928   6.309   3.127 -2.0407  1.5584 -0.8564
  110SAPE   C3911444   2.915   6.185   3.300  0.2658  1.0452 -0.4871
  110SAPE   H9X11445   2.878   6.087   3.337  0.8976  1.6401  1.8815
  110SAPE   H9Y11446   2.860   6.265   3.355 -0.6877 -0.6460  1.1397
  110SAPE  C31011447   3.058   6.205   3.328 -0.1510  0.5175 -0.9569
  110SAPE  H10X11448   3.088   6.311   3.317  1.7522  0.2795  1.2211
  110SAPE  H10Y11449   3.132   6.149   3.266  2.4146  1.5473  0.9654
  110SAPE  C31111450   3.107   6.176   3.473  0.0303 -0.0855 -0.4647
  110SAPE  H11X11451   3.114   6.066   3.488  0.1530  0.1321  1.2121
  110SAPE  H11Y11452   3.028   6.217   3.540  0.3075  1.1721 -0.8656
  110SAPE  C31211453   3.231   6.252   3.512  0.4312  0.9089 -0.5027
  110SAPE  H12X11454   3.236   6.361   3.486  0.6136  1.0225  0.0069
  110SAPE  H12Y11455   3.323   6.204   3.474  0.5303  0.4484  0.3056
  110SAPE  C31311456   3.249   6.255   3.665 -0.7409 -0.1577 -0.2672
  110SAPE  H13X11457   3.152   6.285   3.710 -0.9766 -1.2698  0.0120
  110SAPE  H13Y11458   3.320   6.334   3.697 -2.2729  1.0228  0.3703
  110SAPE  C31411459   3.289   6.120   3.725  0.6569 -0.6057 -0.3478
  110SAPE  H14X11460   3.387   6.099   3.677 -0.5201  1.4993 -4.0676
  110SAPE  H14Y11461   3.226   6.035   3.689  0.9462 -0.3912 -1.4040
  110SAPE  C31511462   3.289   6.109   3.871 -0.9390 -0.0253 -0.1233
  110SAPE  H15X11463   3.187   6.128   3.909 -1.3007  3.0140 -2.2570
  110SAPE  H15Y11464   3.354   6.187   3.917  0.8970 -1.0328 -0.9006
  110SAPE  C31611465   3.333   5.965   3.914 -0.0472 -0.0192  0.2359
  110SAPE  H16X11466   3.424   5.920   3.870 -0.7693 -2.5241  1.1523
  110SAPE  H16Y11467   3.264   5.881   3.892  1.6039 -1.0554 -1.2915
  110SAPE  C31711468   3.358   5.969   4.066 -0.9464 -0.0437 -0.0158
  110SAPE  H17X11469   3.258   5.986   4.111 -0.5277 -0.7389  1.2319
  110SAPE  H17Y11470   3.410   6.065   4.084  1.3505 -1.0529 -0.8540
  110SAPE  C31811471   3.433   5.847   4.123 -0.4578 -0.7792 -0.1368
  110SAPE  H18X11472   3.476   5.868   4.224 -0.5155 -1.5131  0.0479
  110SAPE  H18Y11473   3.522   5.814   4.066  0.1987 -2.4769  1.7379
  110SAPE  H18Z11474   3.374   5.753   4.134  1.5322 -1.8888  2.4084
  111SAPE     N11475   2.458   7.111   1.722  0.0372 -0.1461  0.2800
  111SAPE   HN111476   2.450   7.172   1.638 -0.6790  0.6140  0.8803
  111SAPE   HN211477   2.537   7.145   1.780  0.7542  2.2861 -1.9194
  111SAPE   HN311478   2.484   7.017   1.684 -1.3404 -0.7318  0.7347
  111SAPE   C1211479   2.328   7.124   1.799  0.2104  0.8549  0.7016
  111SAPE  H12A11480   2.346   7.116   1.908 -0.8785  0.7172  0.8783
  111SAPE  H12B11481   2.267   7.041   1.758 -0.5166  0.6300  2.2050
  111SAPE   C1111482   2.259   7.255   1.761  0.7139  0.5002 -0.0944
  111SAPE  H11A11483   2.159   7.274   1.805  0.3912 -1.0310 -0.1163
  111SAPE  H11B11484   2.248   7.248   1.651  1.0140 -0.5674 -0.0627
  111SAPE     P11485   2.313   7.519   1.786 -0.3097  0.4549  0.2864
  111SAPE   O1311486   2.432   7.606   1.815  0.6102  0.2873 -0.8833
  111SAPE   O1411487   2.253   7.540   1.655  0.3829  0.1613  0.2224
  111SAPE   O1211488   2.348   7.366   1.799  0.1594  0.4162 -0.0787
  111SAPE   O1111489   2.206   7.545   1.909 -0.2687  0.0499 -1.1362
  111SAPE    C111490   2.236   7.477   2.029 -0.0574 -0.4072  0.3402
  111SAPE    HA11491   2.140   7.462   2.081 -0.5041  2.3112  0.4199
  111SAPE    HB11492   2.271   7.373   2.008 -0.5679 -0.4528 -0.3186
  111SAPE    C211493   2.329   7.559   2.124  0.1474 -0.1286  0.6715
  111SAPE    HS11494   2.422   7.586   2.070 -1.0746  3.7038  0.2165
  111SAPE   O2111495   2.346   7.483   2.243 -0.5078  0.2924  0.4790
  111SAPE   C2111496   2.464   7.514   2.299 -0.0277 -0.3273  0.0533
  111SAPE   O2211497   2.553   7.584   2.251  0.1810  0.0398  0.0615
  111SAPE   C2211498   2.475   7.458   2.439  0.0490  0.4794 -0.5069
  111SAPE   H2R11499   2.409   7.518   2.505  0.4682 -0.1947  0.5520
  111SAPE   H2S11500   2.441   7.352   2.442  4.0711 -0.9324  1.5126
  111SAPE    C311501   2.257   7.693   2.158 -0.3567  0.1650 -0.4220
  111SAPE    HX11502   2.157   7.667   2.200 -0.1538  0.0396 -0.0120
  111SAPE    HY11503   2.243   7.743   2.060 -2.6588  0.9300  0.2403
  111SAPE   O3111504   2.319   7.775   2.254 -0.4337  0.1192  0.4458
  111SAPE   C3111505   2.412   7.855   2.196 -0.0023  0.3273 -0.8706
  111SAPE   O3211506   2.442   7.861   2.082  0.6878 -0.1494  0.1444
  111SAPE   C3211507   2.472   7.928   2.326 -0.4194 -0.0191  0.3115
  111SAPE   H2X11508   2.384   7.980   2.369 -0.9374  0.5355 -1.3515
  111SAPE   H2Y11509   2.549   8.001   2.294  0.6491 -0.8116  0.9637
  111SAPE   C2311510   2.618   7.462   2.498  0.0821 -0.4415 -0.1726
  111SAPE   H3R11511   2.652   7.565   2.521  3.6316 -1.5341  0.0434
  111SAPE   H3S11512   2.689   7.421   2.423  0.5411  0.0455 -0.0088
  111SAPE   C2411513   2.639   7.380   2.629 -0.5898 -0.4812 -0.6159
  111SAPE   H4R11514   2.746   7.396   2.657 -0.5843 -0.0719 -0.8655
  111SAPE   H4S11515   2.634   7.270   2.614 -0.8093 -0.3367 -1.6658
  111SAPE   C2511516   2.544   7.428   2.734  0.1061 -0.6230  0.0340
  111SAPE   H5R11517   2.535   7.537   2.741  0.0207 -0.6568  0.4487
  111SAPE   C2611518   2.480   7.356   2.830 -0.1852  0.3298  0.1929
  111SAPE   H6R11519   2.410   7.416   2.890 -0.8944  0.5483 -0.8247
  111SAPE   C2711520   2.488   7.206   2.854  0.9404  0.3023  0.4668
  111SAPE   H7R11521   2.525   7.184   2.957  0.4680 -1.3241  0.3179
  111SAPE   H7S11522   2.567   7.164   2.789  3.2686  0.6303  2.9066
  111SAPE   C2811523   2.345   7.160   2.839 -0.3366 -0.4084 -0.1568
  111SAPE   H8R11524   2.304   7.199   2.745 -0.6112 -0.9821 -0.2756
  111SAPE   C2911525   2.269   7.091   2.917  0.2420 -0.0351 -0.1229
  111SAPE   H9R11526   2.166   7.068   2.887  0.2698  0.4195 -0.6008
  111SAPE  C21011527   2.306   7.040   3.057  0.0733 -0.1737  0.5553
  111SAPE  H10R11528   2.247   7.074   3.145  0.2468 -0.4577  0.7803
  111SAPE  H10S11529   2.413   7.063   3.075  0.1011 -0.1220  0.3274
  111SAPE  C21111530   2.304   6.892   3.055  0.4045  0.3128  0.0973
  111SAPE  H11R11531   2.238   6.850   2.978  1.2895 -0.0565 -0.4729
  111SAPE  C21211532   2.380   6.806   3.137  0.6330 -0.5589 -0.0209
  111SAPE  H12R11533   2.339   6.704   3.134 -1.5483  0.2767 -1.0118
  111SAPE  C21311534   2.480   6.834   3.251 -0.2594 -0.3989  0.2358
  111SAPE  H13R11535   2.545   6.923   3.236  0.2743 -0.7404  0.5005
  111SAPE  H13S11536   2.563   6.762   3.237  0.1102  0.0064  0.3098
  111SAPE  C21411537   2.429   6.829   3.391  0.0045 -0.3624  0.1301
  111SAPE  H14R11538   2.328   6.785   3.399  0.4782 -1.2084  1.7719
  111SAPE  C21511539   2.497   6.871   3.503 -0.8110  0.4449 -0.5142
  111SAPE  H15R11540   2.445   6.867   3.600  2.4777  0.4855  1.3590
  111SAPE  C21611541   2.641   6.915   3.521 -0.1724  0.6063  0.8018
  111SAPE  H16R11542   2.702   6.831   3.480 -1.1633  0.6791 -0.9299
  111SAPE  H16S11543   2.679   6.923   3.625  2.2350 -0.0198  0.0394
  111SAPE  C21711544   2.665   7.044   3.448 -0.5446  0.9509 -0.1597
  111SAPE  H17R11545   2.611   7.067   3.354  0.9675  1.2578 -0.9980
  111SAPE  H17S11546   2.773   7.054   3.422 -1.1862  0.3601 -3.4498
  111SAPE  C21811547   2.640   7.162   3.544 -0.0378 -0.1070  0.3373
  111SAPE  H18R11548   2.697   7.148   3.639  0.9372  0.9963 -0.0620
  111SAPE  H18S11549   2.535   7.161   3.579 -0.3667  0.3487 -0.6065
  111SAPE  C21911550   2.673   7.308   3.498  0.2200  0.5348  0.3097
  111SAPE  H19R11551   2.629   7.309   3.396  2.0833 -0.2580 -0.5416
  111SAPE  H19S11552   2.781   7.311   3.473  0.2082  0.2204  0.2171
  111SAPE  C22011553   2.627   7.418   3.584  0.7272  0.3978 -0.6529
  111SAPE  H20R11554   2.669   7.416   3.687 -0.0388  2.4661 -0.2446
  111SAPE  H20S11555   2.517   7.428   3.593  0.6206 -1.8569  1.6932
  111SAPE  H20T11556   2.657   7.517   3.543  1.5340  1.0562  1.3598
  111SAPE   C3311557   2.533   7.846   2.441 -0.6418  0.0480 -0.4181
  111SAPE   H3X11558   2.597   7.767   2.396 -0.6674  0.8566 -1.9306
  111SAPE   H3Y11559   2.455   7.794   2.501  0.6226 -2.3907 -0.7375
  111SAPE   C3411560   2.617   7.931   2.545 -0.1396 -0.3885  0.0967
  111SAPE   H4X11561   2.552   8.017   2.571 -1.0035 -1.0336  0.1155
  111SAPE   H4Y11562   2.700   7.974   2.486  0.6538 -1.5554  0.3356
  111SAPE   C3511563   2.653   7.856   2.669  0.6625  0.0094  0.1800
  111SAPE   H5X11564   2.743   7.910   2.707 -0.0140  1.0756  0.3029
  111SAPE   H5Y11565   2.686   7.752   2.648  0.4592  0.1921 -1.1090
  111SAPE   C3611566   2.536   7.834   2.769  0.3545  0.0593 -0.3700
  111SAPE   H6X11567   2.466   7.758   2.728 -0.1309  1.2497 -1.8328
  111SAPE   H6Y11568   2.487   7.931   2.794  0.6142  0.5937 -1.8058
  111SAPE   C3711569   2.590   7.779   2.902 -0.0901  0.1092 -0.0274
  111SAPE   H7X11570   2.664   7.853   2.940 -1.0916 -0.2128  2.8059
  111SAPE   H7Y11571   2.645   7.686   2.875 -0.8332 -0.2548 -0.3037
  111SAPE   C3811572   2.478   7.744   3.007  0.3475 -0.3346  0.9792
  111SAPE   H8X11573   2.412   7.669   2.958  0.0999  0.0014  0.7886
  111SAPE   H8Y11574   2.418   7.837   3.020  1.5293  0.7547 -0.8253
  111SAPE   C3911575   2.536   7.702   3.135 -0.5313  0.5962  0.5799
  111SAPE   H9X11576   2.598   7.793   3.149 -4.4384  3.7346 -0.8050
  111SAPE   H9Y11577   2.598   7.612   3.113  0.7668  1.2858  1.3237
  111SAPE  C31011578   2.429   7.679   3.243  0.3006 -0.5634  0.3268
  111SAPE  H10X11579   2.349   7.755   3.254 -0.2042 -1.1076  0.4164
  111SAPE  H10Y11580   2.480   7.689   3.341  2.9995 -1.1869 -0.8936
  111SAPE  C31111581   2.377   7.538   3.233 -0.5271 -0.0133  0.4741
  111SAPE  H11X11582   2.462   7.471   3.209  0.1403  1.3525 -1.2058
  111SAPE  H11Y11583   2.312   7.527   3.143 -1.5181 -3.1611  1.4503
  111SAPE  C31211584   2.314   7.476   3.358  0.4065  0.4079  0.1662
  111SAPE  H12X11585   2.221   7.529   3.387 -0.0774  0.1449 -0.8425
  111SAPE  H12Y11586   2.389   7.484   3.438 -0.0441 -0.4232  0.6854
  111SAPE  C31311587   2.284   7.326   3.344 -0.0711 -0.0395 -0.3497
  111SAPE  H13X11588   2.367   7.264   3.304 -0.1676 -0.9791  0.8253
  111SAPE  H13Y11589   2.205   7.304   3.270  1.5668 -3.8170 -1.1886
  111SAPE  C31411590   2.254   7.252   3.477  0.0178  0.5263 -0.4576
  111SAPE  H14X11591   2.175   7.308   3.530 -1.0042  1.1684 -2.5302
  111SAPE  H14Y11592   2.349   7.254   3.534 -0.7435  0.5491  0.8276
  111SAPE  C31511593   2.198   7.113   3.446 -0.4658 -0.2925  0.0467
  111SAPE  H15X11594   2.270   7.056   3.383 -0.4053 -0.4089  0.2221
  111SAPE  H15Y11595   2.101   7.118   3.393 -0.7607 -0.2866  0.5842
  111SAPE  C31611596   2.177   7.024   3.566 -0.2059 -0.0507 -0.1889
  111SAPE  H16X11597   2.263   6.991   3.629 -0.5108  0.3313  0.4414
  111SAPE  H16Y11598   2.128   6.927   3.540 -1.2441  0.7068 -1.1444
  111SAPE  C31711599   2.091   7.094   3.664  0.0849 -0.1290 -0.2100
  111SAPE  H17X11600   2.001   7.132   3.611 -0.7372 -0.0522  1.1819
  111SAPE  H17Y11601   2.150   7.171   3.718 -1.4945  1.3551 -0.4941
  111SAPE  C31811602   2.033   6.994   3.776  0.1013  0.3693  0.6136
  111SAPE  H18X11603   1.975   6.910   3.732  1.4991 -0.1929 -0.1916
  111SAPE  H18Y11604   1.966   7.056   3.840  0.0270  1.0961 -0.1568
  111SAPE  H18Z11605   2.115   6.963   3.845 -0.3566  0.0379  1.0210
  112SAPE     N11606   6.716   5.262   2.114 -0.5982 -0.2955  0.5004
  112SAPE   HN111607   6.791   5.334   2.118  0.6479 -1.3886 -1.5228
  112SAPE   HN211608   6.686   5.237   2.211 -0.4163  2.0218  1.2109
  112SAPE   HN311609   6.766   5.180   2.073  1.7638  1.2465  0.1274
  112SAPE   C1211610   6.603   5.279   2.022 -0.2710  0.4152  0.0541
  112SAPE  H12A11611   6.535   5.358   2.062 -1.5648  0.6458 -2.4210
  112SAPE  H12B11612   6.550   5.182   2.012  0.7060 -0.0396 -0.8881
  112SAPE   C1111613   6.643   5.312   1.885 -0.5186  0.1245  0.4051
  112SAPE  H11A11614   6.554   5.359   1.839  0.7720  2.1062 -0.2109
  112SAPE  H11B11615   6.671   5.229   1.817  3.9494  1.3775  0.3480
  112SAPE     P11616   6.727   5.562   1.911  0.3824  0.1491  0.0479
  112SAPE   O1311617   6.853   5.632   1.877 -0.0014  0.4244  0.0588
  112SAPE   O1411618   6.602   5.610   1.856 -0.3335 -0.5827  0.4801
  112SAPE   O1211619   6.751   5.409   1.881 -0.0777 -0.1611 -0.4012
  112SAPE   O1111620   6.717   5.543   2.077  0.4739  0.2745  0.3000
  112SAPE    C111621   6.727   5.662   2.147 -0.2671  0.2401  0.6472
  112SAPE    HA11622   6.834   5.692   2.152 -0.2762  0.0949  4.5117
  112SAPE    HB11623   6.664   5.734   2.090 -0.6614 -1.1777 -0.7834
  112SAPE    C211624   6.684   5.644   2.302 -0.6636 -0.2883  0.8610
  112SAPE    HS11625   6.692   5.740   2.356 -0.4451 -1.4609  3.0481
  112SAPE   O2111626   6.771   5.546   2.359 -0.0166 -0.8551 -0.0115
  112SAPE   C2111627   6.899   5.577   2.385  0.4634  0.0447 -0.3755
  112SAPE   O2211628   6.949   5.681   2.358  0.0366 -0.0597 -0.6378
  112SAPE   C2211629   6.948   5.470   2.481 -0.3628  0.0142  0.8773
  112SAPE   H2R11630   6.940   5.375   2.423  1.3031 -0.7050  1.7596
  112SAPE   H2S11631   7.057   5.485   2.499 -0.1377 -1.7631  1.2122
  112SAPE    C311632   6.539   5.602   2.311 -0.3270  0.1426  0.0114
  112SAPE    HX11633   6.528   5.493   2.292  1.1435  0.3068 -2.1701
  112SAPE    HY11634   6.486   5.647   2.223  1.5007  0.9127 -0.7583
  112SAPE   O3111635   6.492   5.645   2.440  0.2963  0.8594  0.1822
  112SAPE   C3111636   6.489   5.550   2.535  0.4425  0.4898 -0.0174
  112SAPE   O3211637   6.519   5.434   2.518 -0.1041  0.9350 -0.0370
  112SAPE   C3211638   6.446   5.613   2.669  0.1001 -0.6850  0.0398
  112SAPE   H2X11639   6.368   5.688   2.642 -0.8672 -1.7728 -0.3383
  112SAPE   H2Y11640   6.543   5.654   2.703 -0.3872 -1.0017  1.9312
  112SAPE   C2311641   6.866   5.464   2.611  0.1963 -0.1369  0.1345
  112SAPE   H3R11642   6.901   5.364   2.645 -0.4146  0.4728  2.8677
  112SAPE   H3S11643   6.755   5.464   2.607  0.1254 -0.2124  1.5552
  112SAPE   C2411644   6.910   5.568   2.713 -0.1832 -0.0155 -0.4392
  112SAPE   H4R11645   6.887   5.669   2.671 -4.0137  0.2074  1.7357
  112SAPE   H4S11646   7.018   5.573   2.737 -0.1941 -1.5511  0.0205
  112SAPE   C2511647   6.832   5.553   2.845  0.1781  0.4458  0.4608
  112SAPE   H5R11648   6.724   5.541   2.825  0.3614 -0.2050 -0.2209
  112SAPE   C2611649   6.877   5.562   2.970 -0.2527  0.0550  0.6673
  112SAPE   H6R11650   6.805   5.552   3.053 -0.0575 -0.5621  0.7689
  112SAPE   C2711651   7.022   5.580   3.006  0.1496  0.6687 -0.2990
  112SAPE   H7R11652   7.096   5.535   2.936  1.5079 -0.2092  1.6284
  112SAPE   H7S11653   7.034   5.517   3.097 -1.0384  0.0273 -0.5578
  112SAPE   C2811654   7.045   5.723   3.049  0.0357 -0.3585  0.0837
  112SAPE   H8R11655   7.045   5.794   2.965  0.5566 -2.3764 -1.7013
  112SAPE   C2911656   7.071   5.758   3.175  0.0409 -0.0303 -0.5939
  112SAPE   H9R11657   7.090   5.862   3.205  0.1360 -0.5107  1.1110
  112SAPE  C21011658   7.073   5.670   3.302 -0.7144 -0.3998  0.2925
  112SAPE  H10R11659   7.171   5.618   3.289 -0.9181 -0.7128  0.0107
  112SAPE  H10S11660   6.984   5.605   3.290 -2.1317  1.1541  1.8304
  112SAPE  C21111661   7.072   5.746   3.433 -0.1196  0.6694 -0.3410
  112SAPE  H11R11662   7.014   5.839   3.436 -0.6534  0.3264  0.3039
  112SAPE  C21211663   7.151   5.715   3.536  0.8281 -0.0402 -0.0219
  112SAPE  H12R11664   7.146   5.781   3.624  0.3558  1.2866 -0.9980
  112SAPE  C21311665   7.253   5.603   3.536  0.5799  0.4413  0.6153
  112SAPE  H13R11666   7.280   5.570   3.433 -1.6467  3.6945 -1.1711
  112SAPE  H13S11667   7.200   5.520   3.587  0.4981  0.1637  0.0865
  112SAPE  C21411668   7.371   5.644   3.621  0.1672 -0.0420 -0.5099
  112SAPE  H14R11669   7.418   5.736   3.583  1.2621 -0.6078 -0.5699
  112SAPE  C21511670   7.424   5.596   3.735  0.2826  0.8774  0.8712
  112SAPE  H15R11671   7.508   5.641   3.789  1.9471 -2.1733  1.0913
  112SAPE  C21611672   7.366   5.472   3.805  0.5269 -0.2909  0.5910
  112SAPE  H16R11673   7.288   5.422   3.744 -0.1356  1.6049 -0.2026
  112SAPE  H16S11674   7.332   5.494   3.908 -0.1203 -2.3093  0.8540
  112SAPE  C21711675   7.478   5.371   3.821 -0.3070 -0.2501  0.5977
  112SAPE  H17R11676   7.565   5.411   3.877  0.2292 -0.9147  0.2419
  112SAPE  H17S11677   7.518   5.356   3.718  0.7358  0.4480  0.8809
  112SAPE  C21811678   7.428   5.255   3.905  0.0555 -0.1077  0.2768
  112SAPE  H18R11679   7.456   5.153   3.872 -2.2641 -0.4824 -0.7180
  112SAPE  H18S11680   7.318   5.258   3.891 -0.2834 -1.4026  2.2467
  112SAPE  C21911681   7.455   5.281   4.050 -0.0254  0.5188  0.1548
  112SAPE  H19R11682   7.401   5.214   4.120  0.2550  2.2236  2.0926
  112SAPE  H19S11683   7.409   5.380   4.074  0.6103  0.6002  1.0641
  112SAPE  C22011684   7.604   5.274   4.098  0.5670 -0.8354 -0.0197
  112SAPE  H20R11685   7.654   5.372   4.078 -0.7000  0.0740  1.0707
  112SAPE  H20S11686   7.666   5.193   4.054  0.3991 -0.7761 -0.3623
  112SAPE  H20T11687   7.609   5.263   4.209  1.7027  0.8248  0.1362
  112SAPE   C3311688   6.399   5.505   2.765  0.5318  0.1260  0.2037
  112SAPE   H3X11689   6.469   5.419   2.776 -1.8410 -2.0151 -0.4799
  112SAPE   H3Y11690   6.306   5.458   2.724 -0.0809  0.3149  1.3424
  112SAPE   C3411691   6.361   5.569   2.898 -0.9775 -0.0409 -0.3014
  112SAPE   H4X11692   6.297   5.657   2.876 -0.2863  0.4830 -0.2552
  112SAPE   H4Y11693   6.455   5.613   2.937  0.3404 -1.6612 -1.4456
  112SAPE   C3511694   6.283   5.479   2.990 -0.0495  0.0794 -1.2145
  112SAPE   H5X11695   6.208   5.426   2.927 -1.2815  1.6817 -1.1634
  112SAPE   H5Y11696   6.225   5.534   3.067  1.6537  1.7336 -1.0353
  112SAPE   C3611697   6.368   5.374   3.065 -0.0845  0.1651  0.1122
  112SAPE   H6X11698   6.437   5.329   2.990 -0.9389  0.6818 -1.0239
  112SAPE   H6Y11699   6.311   5.291   3.112 -2.4360  1.4694 -0.2520
  112SAPE   C3711700   6.464   5.432   3.172  0.2858 -0.2123 -0.6402
  112SAPE   H7X11701   6.395   5.463   3.254  0.1275  2.9663 -1.8669
  112SAPE   H7Y11702   6.521   5.522   3.142  2.3556 -1.7601 -1.6514
  112SAPE   C3811703   6.569   5.330   3.228 -0.3815 -0.2043  0.0505
  112SAPE   H8X11704   6.647   5.306   3.153  0.0895  0.0724  0.4493
  112SAPE   H8Y11705   6.516   5.236   3.255  1.1041 -1.1288 -0.1452
  112SAPE   C3911706   6.629   5.397   3.350  0.5029  0.6344  0.1618
  112SAPE   H9X11707   6.551   5.378   3.428 -0.8162  0.4626 -1.1547
  112SAPE   H9Y11708   6.641   5.507   3.339 -1.5513  0.8675 -0.2042
  112SAPE  C31011709   6.753   5.329   3.403 -0.4743 -0.3488 -0.1063
  112SAPE  H10X11710   6.818   5.317   3.314 -2.2718 -1.9686 -1.2933
  112SAPE  H10Y11711   6.729   5.229   3.445 -1.6063  0.3987  1.1133
  112SAPE  C31111712   6.834   5.418   3.508  0.0020  0.0152 -0.9174
  112SAPE  H11X11713   6.834   5.520   3.465 -0.9012  0.5305  0.2598
  112SAPE  H11Y11714   6.934   5.370   3.515  0.7101  1.6157  0.6017
  112SAPE  C31211715   6.763   5.412   3.644  0.2435  0.0255 -0.2995
  112SAPE  H12X11716   6.758   5.309   3.686  1.0056  1.0366  2.4728
  112SAPE  H12Y11717   6.656   5.443   3.637  0.1136 -0.6840 -1.9036
  112SAPE  C31311718   6.819   5.507   3.749  0.2266 -0.4324 -0.3943
  112SAPE  H13X11719   6.927   5.526   3.729 -0.2265  0.9995 -1.7662
  112SAPE  H13Y11720   6.805   5.449   3.842 -1.0686 -0.1423 -0.3870
  112SAPE  C31411721   6.744   5.650   3.748 -0.1764 -0.1395 -0.3699
  112SAPE  H14X11722   6.635   5.633   3.760 -0.2527 -0.1991 -1.0918
  112SAPE  H14Y11723   6.754   5.695   3.647 -0.5067  0.0709 -0.3109
  112SAPE  C31511724   6.800   5.744   3.858  0.6794  0.2466  0.5928
  112SAPE  H15X11725   6.886   5.791   3.807 -1.4952  1.9097 -1.8239
  112SAPE  H15Y11726   6.823   5.680   3.945 -2.3102 -1.0380  0.5680
  112SAPE  C31611727   6.692   5.852   3.894  0.1042 -0.4694 -0.4264
  112SAPE  H16X11728   6.591   5.812   3.916 -1.3553  2.7648 -0.7334
  112SAPE  H16Y11729   6.684   5.909   3.799  1.3034  1.2788  0.4605
  112SAPE  C31711730   6.730   5.945   4.014 -0.5171 -0.5989 -0.4543
  112SAPE  H17X11731   6.684   6.045   4.001 -1.4617 -0.5217  2.7205
  112SAPE  H17Y11732   6.840   5.956   4.020 -0.5883 -0.0638 -0.0482
  112SAPE  C31811733   6.676   5.896   4.153 -0.4781  0.1192 -0.0142
  112SAPE  H18X11734   6.725   5.799   4.176 -0.9876 -0.2798 -0.5889
  112SAPE  H18Y11735   6.568   5.871   4.147  0.1101 -2.9671  0.5116
  112SAPE  H18Z11736   6.703   5.969   4.232 -1.0342 -0.6157  0.8742
  113SAPE     N11737   0.231   4.196   2.056 -0.1577  0.3791 -0.3013
  113SAPE   HN111738   0.285   4.128   2.113  2.3577  1.4993 -1.1927
  113SAPE   HN211739   0.141   4.152   2.031  0.8102 -1.8481 -0.0666
  113SAPE   HN311740   0.284   4.211   1.968  0.0638  0.5656 -0.1393
  113SAPE   C1211741   0.205   4.328   2.129 -0.0679  0.3729  0.9686
  113SAPE  H12A11742   0.146   4.313   2.221 -1.0969 -0.2096  0.2341
  113SAPE  H12B11743   0.142   4.394   2.065  0.3180  0.6291  0.8462
  113SAPE   C1111744   0.337   4.385   2.177  0.4174 -0.1895 -0.4783
  113SAPE  H11A11745   0.370   4.321   2.262 -1.8440  1.3610  1.7084
  113SAPE  H11B11746   0.313   4.482   2.224 -0.3239 -0.4307 -0.3463
  113SAPE     P11747   0.428   4.516   1.968  0.0835 -0.0955  0.3640
  113SAPE   O1311748   0.468   4.457   1.836 -0.0735 -0.0102  0.3209
  113SAPE   O1411749   0.291   4.572   1.983 -0.5505  0.2081  0.3962
  113SAPE   O1211750   0.441   4.401   2.072 -0.3001  0.1959 -0.3669
  113SAPE   O1111751   0.537   4.625   1.994 -0.0864  0.5605 -0.1429
  113SAPE    C111752   0.658   4.577   2.066 -0.1029  0.2729  0.4910
  113SAPE    HA11753   0.682   4.470   2.047  0.2199  0.4039  0.1442
  113SAPE    HB11754   0.747   4.614   2.012 -0.1031 -0.7710 -0.2733
  113SAPE    C211755   0.653   4.614   2.213 -0.5887 -0.3346  0.2442
  113SAPE    HS11756   0.559   4.581   2.263 -0.5989 -2.0749 -0.8366
  113SAPE   O2111757   0.679   4.755   2.235 -0.0223  0.4809 -0.4307
  113SAPE   C2111758   0.573   4.830   2.267  1.2497  0.4676 -0.3753
  113SAPE   O2211759   0.454   4.801   2.268  0.4346  0.0740  0.5827
  113SAPE   C2211760   0.625   4.971   2.306  0.2079  0.8450  0.4412
  113SAPE   H2R11761   0.710   5.005   2.244  0.6993  1.9149  1.6733
  113SAPE   H2S11762   0.537   5.036   2.290 -0.9186 -0.4216  1.1970
  113SAPE    C311763   0.770   4.551   2.296  0.0800  0.3801 -0.5389
  113SAPE    HX11764   0.870   4.582   2.260  0.3060  0.2879  0.0044
  113SAPE    HY11765   0.779   4.442   2.279  1.1783  0.6282 -1.6351
  113SAPE   O3111766   0.749   4.588   2.440  0.2195 -0.1152 -0.0401
  113SAPE   C3111767   0.659   4.510   2.506  0.6365 -0.0375 -0.8659
  113SAPE   O3211768   0.590   4.419   2.460 -0.2942  0.0886 -0.4331
  113SAPE   C3211769   0.663   4.542   2.655 -0.1872 -0.5359 -0.5954
  113SAPE   H2X11770   0.560   4.577   2.676  0.4597  0.9213  0.2750
  113SAPE   H2Y11771   0.740   4.620   2.669 -0.3063 -0.2403 -1.5024
  113SAPE   C2311772   0.677   4.961   2.453  0.2121 -0.5145  0.1972
  113SAPE   H3R11773   0.732   5.052   2.484  0.6065 -1.0177  1.0060
  113SAPE   H3S11774   0.755   4.882   2.459  1.4265  0.6518  0.2309
  113SAPE   C2411775   0.565   4.935   2.555  0.1912  0.2010  0.4692
  113SAPE   H4R11776   0.529   4.835   2.522 -1.2923  0.9357 -0.2808
  113SAPE   H4S11777   0.475   5.002   2.551 -0.1404 -0.2679 -0.0923
  113SAPE   C2511778   0.632   4.945   2.688  0.0621 -0.1763  0.6041
  113SAPE   H5R11779   0.737   4.977   2.686  0.2545 -0.7127  1.4521
  113SAPE   C2611780   0.598   4.908   2.811 -0.1242 -0.2302  0.9281
  113SAPE   H6R11781   0.666   4.924   2.896  0.7460 -0.2420  0.2455
  113SAPE   C2711782   0.461   4.860   2.858 -0.3044  0.2543  0.4385
  113SAPE   H7R11783   0.464   4.750   2.870 -2.4200  0.1425  0.3474
  113SAPE   H7S11784   0.388   4.887   2.779  0.2611  0.2514 -0.0984
  113SAPE   C2811785   0.417   4.926   2.988  0.0860  0.5343 -0.1694
  113SAPE   H8R11786   0.380   5.029   2.979 -3.0413 -0.4379  0.3741
  113SAPE   C2911787   0.394   4.860   3.106  0.9899 -0.0014 -0.7394
  113SAPE   H9R11788   0.349   4.919   3.187 -1.1742 -1.7917 -0.5391
  113SAPE  C21011789   0.412   4.718   3.146  0.9360 -0.1038  0.2899
  113SAPE  H10R11790   0.340   4.660   3.085  1.2108 -0.0071 -0.1285
  113SAPE  H10S11791   0.379   4.714   3.253 -1.1023  4.1444  0.0027
  113SAPE  C21111792   0.550   4.655   3.133  0.6025 -0.3396 -0.0642
  113SAPE  H11R11793   0.637   4.721   3.125  0.5140 -0.2952 -0.7336
  113SAPE  C21211794   0.575   4.520   3.144  0.3920 -0.5898  0.0523
  113SAPE  H12R11795   0.679   4.486   3.151  0.7690 -0.1773 -2.4974
  113SAPE  C21311796   0.473   4.410   3.177  0.1283  0.0842  0.2116
  113SAPE  H13R11797   0.376   4.454   3.207 -0.0232 -0.1327  0.0376
  113SAPE  H13S11798   0.524   4.356   3.260  0.7181  0.7087  0.2681
  113SAPE  C21411799   0.452   4.321   3.065 -0.1695  0.4926  0.0656
  113SAPE  H14R11800   0.464   4.371   2.968  0.2991 -0.1387 -0.2048
  113SAPE  C21511801   0.403   4.198   3.061  0.2694  0.1117  0.0131
  113SAPE  H15R11802   0.394   4.156   2.960  2.1085  0.7094 -0.4252
  113SAPE  C21611803   0.364   4.103   3.165 -0.1334 -0.3769 -0.2499
  113SAPE  H16R11804   0.450   4.072   3.228 -1.2572  0.4477  1.7918
  113SAPE  H16S11805   0.322   4.014   3.115  0.8618 -0.7938 -0.3764
  113SAPE  C21711806   0.255   4.168   3.264 -0.3695  0.0938  1.5561
  113SAPE  H17R11807   0.180   4.226   3.206  2.6049  1.9676 -0.7106
  113SAPE  H17S11808   0.301   4.244   3.331 -1.5343  0.9354  1.4314
  113SAPE  C21811809   0.170   4.060   3.330 -0.0652  0.3714 -0.0578
  113SAPE  H18R11810   0.155   3.973   3.263 -0.0292 -0.9434  1.5668
  113SAPE  H18S11811   0.071   4.104   3.354 -0.6141 -0.6691 -0.3460
  113SAPE  C21911812   0.223   4.021   3.469 -0.5390  0.8891 -0.0150
  113SAPE  H19R11813   0.220   4.108   3.538  0.3878 -0.3999  1.7429
  113SAPE  H19S11814   0.326   3.978   3.468 -0.5301  0.6231  2.9083
  113SAPE  C22011815   0.134   3.911   3.527  0.0358 -0.2257  0.4538
  113SAPE  H20R11816   0.160   3.806   3.503 -0.5683  0.2880 -2.8435
  113SAPE  H20S11817   0.031   3.918   3.486  0.7069  0.4996 -1.1916
  113SAPE  H20T11818   0.130   3.926   3.637  0.1274  0.0817  0.4168
  113SAPE   C3311819   0.691   4.417   2.737  0.2407 -0.2779  0.2641
  113SAPE   H3X11820   0.703   4.446   2.844  1.1992  0.9510 -0.1539
  113SAPE   H3Y11821   0.792   4.377   2.712 -1.3880 -2.7709 -3.1403
  113SAPE   C3411822   0.581   4.310   2.725 -0.8704  0.4134  0.0652
  113SAPE   H4X11823   0.544   4.288   2.622 -1.3431  0.5551  0.1987
  113SAPE   H4Y11824   0.485   4.352   2.762 -0.8489 -0.0600  0.6586
  113SAPE   C3511825   0.609   4.175   2.790 -0.3050  0.4003 -0.1005
  113SAPE   H5X11826   0.513   4.123   2.810  0.5310 -1.2393 -0.1646
  113SAPE   H5Y11827   0.660   4.182   2.889  2.1177  2.4545 -1.3691
  113SAPE   C3611828   0.696   4.089   2.701 -0.6349  0.2720 -0.6951
  113SAPE   H6X11829   0.801   4.126   2.692 -0.3253 -0.2541  0.5599
  113SAPE   H6Y11830   0.654   4.098   2.598 -1.4647  0.1794 -0.3703
  113SAPE   C3711831   0.712   3.935   2.732  0.3667 -0.6032  0.4833
  113SAPE   H7X11832   0.723   3.890   2.631  0.8877 -0.9232  0.6781
  113SAPE   H7Y11833   0.613   3.908   2.775 -0.1895  2.7807  1.6681
  113SAPE   C3811834   0.812   3.896   2.845  0.0063  0.3317  0.7123
  113SAPE   H8X11835   0.907   3.920   2.791 -0.9401  0.7823 -0.7947
  113SAPE   H8Y11836   0.816   3.977   2.921 -0.0100  2.1774 -1.1625
  113SAPE   C3911837   0.817   3.754   2.911 -0.2837 -0.6818  0.4060
  113SAPE   H9X11838   0.915   3.752   2.962 -0.2694 -0.4804  0.3884
  113SAPE   H9Y11839   0.816   3.677   2.832 -0.7825  1.4856 -1.8321
  113SAPE  C31011840   0.707   3.744   3.019  0.8433 -0.2363 -0.2165
  113SAPE  H10X11841   0.708   3.638   3.054  1.1316 -0.5227 -1.0764
  113SAPE  H10Y11842   0.611   3.761   2.966 -0.5556  0.5684  2.3984
  113SAPE  C31111843   0.713   3.851   3.131 -0.4042 -0.3340 -0.5829
  113SAPE  H11X11844   0.642   3.933   3.105 -0.0351 -0.2445 -1.3296
  113SAPE  H11Y11845   0.814   3.893   3.145 -1.4673  2.6847 -1.2187
  113SAPE  C31211846   0.660   3.789   3.268 -0.3663  0.4344 -0.1016
  113SAPE  H12X11847   0.659   3.867   3.347  0.9690  1.0026 -0.5976
  113SAPE  H12Y11848   0.725   3.701   3.285 -1.0754  0.2571  1.8989
  113SAPE  C31311849   0.518   3.740   3.262  0.3857 -0.1972  0.1976
  113SAPE  H13X11850   0.514   3.652   3.194 -0.5496 -0.2031  0.2389
  113SAPE  H13Y11851   0.432   3.809   3.247 -1.3542 -2.3413 -0.2248
  113SAPE  C31411852   0.480   3.682   3.403 -0.2212 -0.5900  0.0730
  113SAPE  H14X11853   0.484   3.752   3.489 -0.3915 -2.1999  1.4313
  113SAPE  H14Y11854   0.561   3.608   3.421 -0.4891 -0.6873  0.9225
  113SAPE  C31511855   0.352   3.597   3.407 -0.3024  0.4447 -0.2061
  113SAPE  H15X11856   0.359   3.507   3.343  0.3008 -1.1667  1.9756
  113SAPE  H15Y11857   0.261   3.650   3.372 -0.9841 -1.7582 -1.9427
  113SAPE  C31611858   0.339   3.544   3.553 -0.3205 -0.3208 -0.5206
  113SAPE  H16X11859   0.375   3.626   3.619  1.6163 -0.8255 -0.8771
  113SAPE  H16Y11860   0.406   3.456   3.562  1.3005  0.5923 -2.6120
  113SAPE  C31711861   0.196   3.502   3.583  0.1064 -0.7315 -0.4684
  113SAPE  H17X11862   0.122   3.582   3.562 -0.9994 -2.2720 -2.8333
  113SAPE  H17Y11863   0.176   3.472   3.688 -1.2324 -0.6447 -0.6774
  113SAPE  C31811864   0.155   3.375   3.508 -0.3868 -0.5158  0.5040
  113SAPE  H18X11865   0.067   3.331   3.559 -1.3219  0.3498 -0.3144
  113SAPE  H18Y11866   0.242   3.307   3.522 -0.8194 -1.2251 -0.2199
  113SAPE  H18Z11867   0.139   3.387   3.399 -0.7062 -1.5044  0.4328
  114SAPE     N11868   2.661   6.531   1.321  0.0978 -0.8138 -0.3906
  114SAPE   HN111869   2.599   6.459   1.280 -0.4388 -0.4399 -0.2505
  114SAPE   HN211870   2.606   6.617   1.344 -0.2045 -0.8585 -0.9394
  114SAPE   HN311871   2.734   6.556   1.252  1.1783  0.6935  1.1934
  114SAPE   C1211872   2.739   6.503   1.447 -0.1746  0.5861 -0.2298
  114SAPE  H12A11873   2.818   6.580   1.461  0.3164  0.1803 -0.7453
  114SAPE  H12B11874   2.787   6.404   1.432  0.0452  0.6104  0.2721
  114SAPE   C1111875   2.640   6.509   1.561  0.0943  0.7358 -0.0914
  114SAPE  H11A11876   2.684   6.471   1.655  0.4226  1.2745 -0.0193
  114SAPE  H11B11877   2.556   6.443   1.531  0.9151 -0.7438  0.7877
  114SAPE     P11878   2.629   6.752   1.680 -0.2252 -0.0007 -0.1913
  114SAPE   O1311879   2.774   6.766   1.662 -0.1639  0.0107 -0.2908
  114SAPE   O1411880   2.549   6.876   1.652 -0.2175 -0.3032  0.0099
  114SAPE   O1211881   2.580   6.637   1.586 -0.4075 -0.5498 -0.0019
  114SAPE   O1111882   2.594   6.686   1.819  0.5216  0.3123  0.6856
  114SAPE    C111883   2.466   6.620   1.847 -0.3121 -0.0983  0.7522
  114SAPE    HA11884   2.414   6.602   1.750  2.1193 -1.4949 -0.3947
  114SAPE    HB11885   2.481   6.519   1.892  1.1914 -0.0277  0.4621
  114SAPE    C211886   2.371   6.709   1.930  0.2993 -0.7144 -0.1536
  114SAPE    HS11887   2.328   6.801   1.885  1.8306 -1.0888 -2.5789
  114SAPE   O2111888   2.449   6.742   2.047 -0.5175  0.3603  0.4969
  114SAPE   C2111889   2.397   6.818   2.142 -0.2129 -0.0309  0.2984
  114SAPE   O2211890   2.283   6.863   2.132 -0.0851 -0.3933 -0.8840
  114SAPE   C2211891   2.501   6.866   2.244 -0.2229  0.5455  0.1475
  114SAPE   H2R11892   2.519   6.792   2.325 -1.5133  1.6152  1.4480
  114SAPE   H2S11893   2.595   6.873   2.185  1.4258  0.3458  2.6266
  114SAPE    C311894   2.251   6.622   1.967  0.1632  0.2598  0.4970
  114SAPE    HX11895   2.199   6.606   1.870  1.3477  0.2181 -0.1421
  114SAPE    HY11896   2.180   6.681   2.029  0.6022 -0.4472  1.6900
  114SAPE   O3111897   2.293   6.494   2.019 -0.3847  0.1583  0.0686
  114SAPE   C3111898   2.301   6.488   2.155 -0.2950 -0.3198  0.3365
  114SAPE   O3211899   2.272   6.577   2.230 -0.0737 -0.0423 -0.3879
  114SAPE   C3211900   2.364   6.355   2.190  0.4093  0.0654 -0.4184
  114SAPE   H2X11901   2.472   6.373   2.175  0.4844  3.7509  2.9567
  114SAPE   H2Y11902   2.330   6.278   2.117 -0.0265  0.5886 -0.7753
  114SAPE   C2311903   2.466   7.003   2.307  0.2462  0.6670 -0.0144
  114SAPE   H3R11904   2.432   7.072   2.227 -0.2860 -1.8687 -2.1294
  114SAPE   H3S11905   2.558   7.047   2.351  1.2479 -0.0230 -1.3304
  114SAPE   C2411906   2.364   7.019   2.422 -0.0027 -0.0800  0.5217
  114SAPE   H4R11907   2.271   6.969   2.386  0.8631 -0.2941 -1.5579
  114SAPE   H4S11908   2.356   7.130   2.413 -2.3526 -0.3014 -1.0483
  114SAPE   C2511909   2.424   6.961   2.546  0.0788 -0.3148 -0.1640
  114SAPE   H5R11910   2.527   6.994   2.565  0.3982 -1.9012  1.1246
  114SAPE   C2611911   2.361   6.880   2.631  0.0984 -0.1631  0.6619
  114SAPE   H6R11912   2.403   6.848   2.728 -1.0297 -0.4076  1.0870
  114SAPE   C2711913   2.220   6.824   2.619 -0.2748  0.3501 -0.3223
  114SAPE   H7R11914   2.192   6.788   2.518  0.3324 -0.3492 -0.2457
  114SAPE   H7S11915   2.155   6.913   2.634 -3.1534 -1.5461 -1.0003
  114SAPE   C2811916   2.185   6.710   2.709 -0.5846  1.1001 -0.1508
  114SAPE   H8R11917   2.253   6.624   2.715 -2.2644 -0.2275  0.9596
  114SAPE   C2911918   2.073   6.688   2.783 -0.1217  0.1812 -0.2377
  114SAPE   H9R11919   2.067   6.608   2.857  2.9245  1.9263  2.0970
  114SAPE  C21011920   1.967   6.790   2.788  0.0993 -0.3077 -0.5955
  114SAPE  H10R11921   1.939   6.803   2.681  1.6621  0.1135 -0.9662
  114SAPE  H10S11922   2.009   6.878   2.840 -2.0973 -0.3542  1.4472
  114SAPE  C21111923   1.847   6.737   2.865 -0.0661  0.2490  0.2201
  114SAPE  H11R11924   1.769   6.683   2.809 -0.0077  0.7523 -0.3566
  114SAPE  C21211925   1.837   6.744   2.999  0.0320 -0.7278  1.4170
  114SAPE  H12R11926   1.742   6.710   3.043 -0.2885 -1.0328  0.5203
  114SAPE  C21311927   1.917   6.831   3.089  0.1165  0.4943 -0.1857
  114SAPE  H13R11928   1.847   6.901   3.139 -1.1236 -0.4339 -0.5780
  114SAPE  H13S11929   1.985   6.897   3.030  0.5787  0.3076  0.1333
  114SAPE  C21411930   2.008   6.770   3.189 -0.8956  0.4504  0.5591
  114SAPE  H14R11931   2.113   6.761   3.157 -0.9326 -1.2522  0.8329
  114SAPE  C21511932   1.975   6.745   3.315 -1.0664  0.5383 -0.2991
  114SAPE  H15R11933   2.046   6.684   3.373 -0.3250  1.6191 -0.0160
  114SAPE  C21611934   1.835   6.765   3.377  0.2646  0.0897 -0.1395
  114SAPE  H16R11935   1.786   6.669   3.406 -2.9960  1.8005  0.4123
  114SAPE  H16S11936   1.761   6.826   3.322  0.5077  1.1806  0.6971
  114SAPE  C21711937   1.851   6.841   3.516 -0.6704 -0.0219  0.6794
  114SAPE  H17R11938   1.929   6.917   3.493  0.1477 -1.6333 -2.5149
  114SAPE  H17S11939   1.893   6.764   3.584  0.2132 -0.8131 -0.7106
  114SAPE  C21811940   1.725   6.906   3.572 -0.1223  0.4449 -0.3784
  114SAPE  H18R11941   1.746   6.960   3.667  0.7523  0.4384 -0.5542
  114SAPE  H18S11942   1.652   6.826   3.595  1.1984 -0.3255  1.4789
  114SAPE  C21911943   1.651   7.000   3.486 -0.4628  0.0313  0.5335
  114SAPE  H19R11944   1.613   6.950   3.394  1.2034 -0.7505  0.2239
  114SAPE  H19S11945   1.731   7.068   3.450 -2.2099  2.2178  0.5891
  114SAPE  C22011946   1.547   7.091   3.555 -0.1894 -0.7281 -0.1890
  114SAPE  H20R11947   1.473   7.030   3.609  0.8578 -2.2379 -0.3935
  114SAPE  H20S11948   1.498   7.145   3.470 -0.3821 -0.9901 -0.2455
  114SAPE  H20T11949   1.594   7.169   3.619 -0.9004 -1.6881  1.5591
  114SAPE   C3311950   2.339   6.330   2.336 -0.4236 -0.1036  0.2112
  114SAPE   H3X11951   2.307   6.226   2.352 -1.3517  0.2131  0.4398
  114SAPE   H3Y11952   2.258   6.394   2.376 -0.6123  0.0904 -0.4599
  114SAPE   C3411953   2.465   6.339   2.423  0.8859  0.1228 -0.1170
  114SAPE   H4X11954   2.534   6.414   2.377 -1.0574  0.2840 -3.0941
  114SAPE   H4Y11955   2.520   6.243   2.424  0.9976  0.1923  1.2088
  114SAPE   C3511956   2.432   6.374   2.578  0.3823 -0.2469  0.0372
  114SAPE   H5X11957   2.383   6.289   2.631 -1.4134  0.5379 -0.3208
  114SAPE   H5Y11958   2.364   6.461   2.591  1.1349  0.5127 -0.9455
  114SAPE   C3611959   2.556   6.402   2.664  0.4343 -0.8735 -0.1135
  114SAPE   H6X11960   2.610   6.477   2.603  0.2735  1.3256  2.2899
  114SAPE   H6Y11961   2.625   6.315   2.665  1.9841  0.3108 -0.2098
  114SAPE   C3711962   2.525   6.458   2.808 -0.7331  0.2903 -1.0548
  114SAPE   H7X11963   2.479   6.559   2.803  0.4396  0.9279  0.3520
  114SAPE   H7Y11964   2.617   6.475   2.868  0.8629  0.1125 -3.3148
  114SAPE   C3811965   2.435   6.373   2.898  0.1764  0.2280 -0.2628
  114SAPE   H8X11966   2.488   6.277   2.909 -0.4695 -0.0932  0.1050
  114SAPE   H8Y11967   2.337   6.356   2.847 -1.2136  2.1646  1.5817
  114SAPE   C3911968   2.398   6.442   3.027 -0.4356 -0.5954 -0.1594
  114SAPE   H9X11969   2.344   6.361   3.079  0.3900 -1.2986 -0.3755
  114SAPE   H9Y11970   2.329   6.528   3.014 -1.5390 -1.3269  0.6746
  114SAPE  C31011971   2.522   6.472   3.116 -0.1134  0.5781 -0.2896
  114SAPE  H10X11972   2.552   6.577   3.092  0.1260  1.1476  2.2520
  114SAPE  H10Y11973   2.613   6.411   3.102 -0.0140  0.7555 -0.4190
  114SAPE  C31111974   2.496   6.487   3.268  1.1480  0.0173 -0.6707
  114SAPE  H11X11975   2.401   6.544   3.271  1.7283  1.0097 -0.5801
  114SAPE  H11Y11976   2.574   6.560   3.297  0.6337  0.0928  0.5462
  114SAPE  C31211977   2.490   6.367   3.358  0.0960 -0.2780  0.3687
  114SAPE  H12X11978   2.591   6.320   3.355 -0.0078 -0.5208  0.6792
  114SAPE  H12Y11979   2.414   6.302   3.310 -1.3960  2.1291 -0.7808
  114SAPE  C31311980   2.466   6.397   3.505 -0.1050 -0.3021  0.2680
  114SAPE  H13X11981   2.460   6.297   3.552  0.2478  0.3415  1.7262
  114SAPE  H13Y11982   2.364   6.443   3.502 -0.6117 -1.2397  2.0546
  114SAPE  C31411983   2.564   6.488   3.585  0.0569  0.5661 -0.5121
  114SAPE  H14X11984   2.513   6.582   3.614  1.6805  0.6542  2.4622
  114SAPE  H14Y11985   2.655   6.501   3.521  2.0426  0.7754  2.1877
  114SAPE  C31511986   2.592   6.423   3.720 -0.2772 -0.1331  0.4043
  114SAPE  H15X11987   2.494   6.401   3.767 -0.4747  0.8379  0.4530
  114SAPE  H15Y11988   2.639   6.501   3.783 -1.4190  1.8309 -1.0580
  114SAPE  C31611989   2.685   6.301   3.700  0.1279 -0.1254 -0.6400
  114SAPE  H16X11990   2.777   6.340   3.651  0.2309 -0.8189 -1.0087
  114SAPE  H16Y11991   2.645   6.224   3.631  2.7628 -2.7165  0.5289
  114SAPE  C31711992   2.729   6.234   3.832 -0.7876  0.7990  0.0809
  114SAPE  H17X11993   2.645   6.183   3.885 -1.1240  0.9498 -0.2984
  114SAPE  H17Y11994   2.758   6.317   3.900 -2.5316  1.5510 -0.0141
  114SAPE  C31811995   2.846   6.145   3.808 -0.0842  0.0610  0.2373
  114SAPE  H18X11996   2.810   6.063   3.743  1.7111 -0.7229  0.1706
  114SAPE  H18Y11997   2.893   6.102   3.900  1.1042 -1.7167 -1.1378
  114SAPE  H18Z11998   2.919   6.205   3.750 -1.0521  0.3246 -0.7372
  115SAPE     N11999   0.551   5.956   1.917  0.6089 -0.0100 -0.1562
  115SAPE   HN112000   0.543   5.856   1.945  0.8711 -0.2183 -0.8062
  115SAPE   HN212001   0.641   6.000   1.942  1.0819 -0.7720 -0.4700
  115SAPE   HN312002   0.474   5.991   1.978  0.7064 -1.3124  0.7483
  115SAPE   C1212003   0.518   5.982   1.770  0.1134  0.2650  0.2493
  115SAPE  H12A12004   0.599   5.941   1.706 -0.5414  0.9042 -1.0118
  115SAPE  H12B12005   0.507   6.091   1.755 -1.6789  0.0179 -0.3618
  115SAPE   C1112006   0.376   5.926   1.733 -0.6385 -0.1999  0.3174
  115SAPE  H11A12007   0.387   5.821   1.769 -0.5314  0.2068  1.5258
  115SAPE  H11B12008   0.377   5.942   1.623 -2.2291  1.0115  0.4420
  115SAPE     P12009   0.143   6.052   1.744  0.1781  0.1567  0.1478
  115SAPE   O1312010   0.154   6.193   1.717 -0.3125  0.4785  0.6730
  115SAPE   O1412011   0.105   5.965   1.631 -0.3698  0.9531 -0.1391
  115SAPE   O1212012   0.288   6.007   1.802  0.4597  0.4818 -0.0738
  115SAPE   O1112013   0.051   6.024   1.865  0.0842  0.2959 -0.8512
  115SAPE    C112014   0.058   5.899   1.936 -0.1791  0.4265  0.8534
  115SAPE    HA12015   0.058   5.818   1.860  1.0108  2.9062 -2.0004
  115SAPE    HB12016   0.149   5.888   1.997  0.1525  1.8624  0.6563
  115SAPE    C212017  -0.069   5.871   2.013  0.0270 -0.1210  0.3624
  115SAPE    HS12018  -0.150   5.876   1.937  0.2034 -1.6539  0.0394
  115SAPE   O2112019  -0.086   5.962   2.127 -0.0406  0.5706  0.3905
  115SAPE   C2112020  -0.209   5.981   2.161  0.1205 -0.1114 -0.4266
  115SAPE   O2212021  -0.310   5.949   2.099 -0.5342 -0.3186 -0.5067
  115SAPE   C2212022  -0.205   6.061   2.286  0.1347 -0.2569  0.2863
  115SAPE   H2R12023  -0.109   6.047   2.340  0.1714  2.3322  1.0055
  115SAPE   H2S12024  -0.204   6.166   2.250  1.7627  0.0549  1.1542
  115SAPE    C312025  -0.070   5.731   2.079  0.1585 -0.0289 -0.2054
  115SAPE    HX12026  -0.051   5.663   1.993  0.6838 -0.3452  0.1557
  115SAPE    HY12027  -0.163   5.722   2.139  0.8385  1.7956  1.2301
  115SAPE   O3112028   0.045   5.725   2.168 -0.5984  0.2405 -0.0241
  115SAPE   C3112029   0.057   5.603   2.217 -0.1896  0.0701  0.2511
  115SAPE   O3212030  -0.013   5.507   2.181  0.1036 -0.7471 -0.1753
  115SAPE   C3212031   0.174   5.592   2.315 -0.2708 -0.0852 -0.6462
  115SAPE   H2X12032   0.240   5.679   2.291  0.4777 -0.9172 -1.6679
  115SAPE   H2Y12033   0.222   5.494   2.297  1.6361  0.1571  2.3025
  115SAPE   C2312034  -0.332   6.054   2.383 -0.4551 -1.0970 -0.4099
  115SAPE   H3R12035  -0.336   5.960   2.442  1.2500 -0.2314  1.2099
  115SAPE   H3S12036  -0.426   6.075   2.327 -1.3102  0.7304  1.5634
  115SAPE   C2412037  -0.329   6.176   2.480  0.3133  0.8008 -0.0546
  115SAPE   H4R12038  -0.430   6.187   2.526  0.2037  0.4573 -0.2151
  115SAPE   H4S12039  -0.318   6.273   2.428 -0.2807  0.1407 -1.4685
  115SAPE   C2512040  -0.225   6.163   2.587  0.5713 -0.0261  0.4514
  115SAPE   H5R12041  -0.122   6.177   2.548  0.7459  2.1620  1.5216
  115SAPE   C2612042  -0.238   6.140   2.722  0.2012  0.0226  0.2260
  115SAPE   H6R12043  -0.151   6.104   2.779 -0.8732  0.7576  2.4582
  115SAPE   C2712044  -0.374   6.123   2.790 -0.0466 -0.4243 -0.3810
  115SAPE   H7R12045  -0.453   6.099   2.716  0.0577  0.0448 -0.6448
  115SAPE   H7S12046  -0.402   6.226   2.821  1.1846 -0.0922 -0.3412
  115SAPE   C2812047  -0.375   6.024   2.901 -0.2765 -0.0447 -0.0689
  115SAPE   H8R12048  -0.414   5.927   2.865 -0.2029  0.7208 -2.3716
  115SAPE   C2912049  -0.361   6.044   3.033  0.0637 -0.2992  0.3806
  115SAPE   H9R12050  -0.375   5.966   3.109 -1.7633  0.0434  0.4470
  115SAPE  C21012051  -0.328   6.177   3.088  0.0660  0.0861  0.0431
  115SAPE  H10R12052  -0.417   6.228   3.130  0.3188 -0.1575  0.8998
  115SAPE  H10S12053  -0.300   6.244   3.003 -0.8760 -0.8866 -1.0706
  115SAPE  C21112054  -0.233   6.179   3.205 -0.3425 -0.0281  0.0097
  115SAPE  H11R12055  -0.129   6.206   3.179 -0.2071  0.6005  1.1576
  115SAPE  C21212056  -0.259   6.174   3.337 -0.0705  0.2048  0.7274
  115SAPE  H12R12057  -0.169   6.177   3.399  1.2083 -0.6819 -1.0082
  115SAPE  C21312058  -0.391   6.153   3.413 -0.3065 -0.5783 -0.0512
  115SAPE  H13R12059  -0.404   6.047   3.441 -3.9198  0.0932  1.4111
  115SAPE  H13S12060  -0.473   6.194   3.350  1.0719  1.4328 -0.6561
  115SAPE  C21412061  -0.390   6.225   3.544 -0.0392 -0.3201  0.1185
  115SAPE  H14R12062  -0.443   6.321   3.553  1.4375  0.3655  2.2041
  115SAPE  C21512063  -0.319   6.197   3.654 -0.1988 -0.2446  0.3818
  115SAPE  H15R12064  -0.345   6.253   3.745  2.2686 -2.4052  2.5803
  115SAPE  C21612065  -0.216   6.088   3.670  0.1116 -0.3342 -0.8215
  115SAPE  H16R12066  -0.245   6.001   3.607 -2.5676 -2.1443  2.5372
  115SAPE  H16S12067  -0.222   6.042   3.770 -1.1026  0.2212 -0.6108
  115SAPE  C21712068  -0.075   6.137   3.647 -0.9806 -0.2188 -0.1314
  115SAPE  H17R12069  -0.060   6.214   3.568  0.5290  2.6422  2.6830
  115SAPE  H17S12070  -0.011   6.052   3.614 -1.1472 -0.3592 -0.0918
  115SAPE  C21812071  -0.025   6.206   3.774  0.1747  0.2518  0.2385
  115SAPE  H18R12072  -0.053   6.158   3.870  1.1254 -1.7625 -0.4294
  115SAPE  H18S12073  -0.073   6.306   3.771  1.2154  0.7556 -0.8004
  115SAPE  C21912074   0.121   6.218   3.768  0.0650 -0.0794  0.3448
  115SAPE  H19R12075   0.163   6.254   3.672 -0.0021 -0.9797 -0.0375
  115SAPE  H19S12076   0.150   6.110   3.773 -0.9731 -0.4106 -0.4633
  115SAPE  C22012077   0.185   6.296   3.889  1.0101  0.2606  0.0278
  115SAPE  H20R12078   0.140   6.268   3.987  2.6714 -0.6413  0.5620
  115SAPE  H20S12079   0.170   6.404   3.871 -2.2086 -0.0371  0.1911
  115SAPE  H20T12080   0.291   6.271   3.910  0.9783  1.4818  1.8203
  115SAPE   C3312081   0.119   5.598   2.460 -0.2349  0.0147 -0.5304
  115SAPE   H3X12082   0.206   5.562   2.519 -0.6371  0.7885  0.5693
  115SAPE   H3Y12083   0.031   5.531   2.472  1.6567 -2.4338  0.4272
  115SAPE   C3412084   0.086   5.740   2.499  0.2593 -0.1660 -0.6212
  115SAPE   H4X12085  -0.022   5.749   2.476 -0.1999 -0.4187  1.2531
  115SAPE   H4Y12086   0.149   5.824   2.464 -1.4241  1.2274 -0.4469
  115SAPE   C3512087   0.098   5.750   2.652 -0.2504  0.9762  0.2584
  115SAPE   H5X12088   0.192   5.711   2.696 -0.9482  0.8914  1.7433
  115SAPE   H5Y12089   0.022   5.685   2.701 -0.9896  2.7270  1.5559
  115SAPE   C3612090   0.082   5.889   2.702  0.5090 -0.1048  0.3017
  115SAPE   H6X12091  -0.024   5.921   2.691  1.0219  1.3684 -0.5986
  115SAPE   H6Y12092   0.134   5.968   2.644 -0.3508  0.6470  0.5302
  115SAPE   C3712093   0.119   5.907   2.852  0.0512  0.6144 -0.1057
  115SAPE   H7X12094   0.228   5.883   2.855 -0.1845 -0.4248  1.9122
  115SAPE   H7Y12095   0.076   5.832   2.922  1.1016  1.3548  1.3755
  115SAPE   C3812096   0.084   6.038   2.912 -0.1908 -0.8906 -0.3515
  115SAPE   H8X12097   0.128   6.038   3.015  1.8059  0.5634 -1.1337
  115SAPE   H8Y12098  -0.026   6.041   2.929 -0.2519 -1.4436 -0.6678
  115SAPE   C3912099   0.138   6.157   2.830  0.0389 -1.0721 -0.0981
  115SAPE   H9X12100   0.087   6.179   2.734 -0.1339  0.2283  0.2701
  115SAPE   H9Y12101   0.245   6.132   2.812  0.4263  1.4711 -1.7918
  115SAPE  C31012102   0.139   6.282   2.918 -0.0805 -0.5939 -0.3334
  115SAPE  H10X12103   0.194   6.358   2.859 -1.7658  0.3421 -0.7802
  115SAPE  H10Y12104   0.181   6.272   3.020  1.0580  0.0922 -0.7201
  115SAPE  C31112105  -0.007   6.345   2.924 -0.7745 -0.1177 -0.7467
  115SAPE  H11X12106  -0.062   6.268   2.982 -0.6725  0.1063 -0.3475
  115SAPE  H11Y12107  -0.044   6.355   2.820 -0.8468  0.4913 -0.6641
  115SAPE  C31212108  -0.011   6.487   2.989 -0.1337 -0.2342  0.7875
  115SAPE  H12X12109  -0.118   6.516   2.992  0.4195  2.4126 -1.1211
  115SAPE  H12Y12110   0.023   6.563   2.915  1.5368  0.1065  1.8531
  115SAPE  C31312111   0.056   6.512   3.126  0.0021 -0.0605 -0.1121
  115SAPE  H13X12112   0.027   6.613   3.162  1.6298  0.0844  0.9008
  115SAPE  H13Y12113   0.164   6.532   3.106 -0.5388  5.1630  0.9548
  115SAPE  C31412114   0.031   6.407   3.236  0.8236  0.4636 -0.4030
  115SAPE  H14X12115   0.076   6.313   3.198 -0.4134 -1.0111  1.5573
  115SAPE  H14Y12116  -0.078   6.397   3.256  0.5350  3.3703 -0.1031
  115SAPE  C31512117   0.098   6.429   3.370 -0.2931 -0.3390  0.2699
  115SAPE  H15X12118   0.205   6.420   3.342 -0.5948  1.9241 -1.9850
  115SAPE  H15Y12119   0.077   6.348   3.443 -0.4998 -1.6536 -1.2020
  115SAPE  C31612120   0.084   6.561   3.452 -0.2255 -0.4963 -0.5359
  115SAPE  H16X12121  -0.024   6.581   3.466 -0.3239  1.7151 -3.4188
  115SAPE  H16Y12122   0.113   6.645   3.385  0.9153 -1.7591 -1.7153
  115SAPE  C31712123   0.156   6.546   3.581 -0.1349  0.1493  0.4684
  115SAPE  H17X12124   0.248   6.488   3.559 -1.0143 -0.5917 -1.5115
  115SAPE  H17Y12125   0.100   6.476   3.646  1.0778  2.2602  4.0448
  115SAPE  C31812126   0.191   6.681   3.652  1.0949 -0.3977  0.0056
  115SAPE  H18X12127   0.255   6.670   3.743  2.5939  1.5031 -0.7439
  115SAPE  H18Y12128   0.098   6.731   3.685  0.2942 -0.6351 -1.7818
  115SAPE  H18Z12129   0.241   6.741   3.574 -1.4031  1.1366 -0.5257
  116SAPE     N12130   7.089   0.640   1.992 -0.2627  0.1586 -0.5790
  116SAPE   HN112131   7.018   0.567   2.014 -0.9766  1.4088  1.6054
  116SAPE   HN212132   7.179   0.590   1.977 -0.0987  0.4841 -0.6769
  116SAPE   HN312133   7.103   0.695   2.079  1.3733 -0.0375 -0.6798
  116SAPE   C1212134   7.059   0.713   1.871 -0.1456  0.2821 -0.5383
  116SAPE  H12A12135   7.058   0.640   1.788  0.4906  0.9554 -1.1489
  116SAPE  H12B12136   7.129   0.797   1.853 -1.0564  1.0661 -0.5065
  116SAPE   C1112137   6.916   0.775   1.878  0.2612  0.0550  0.2809
  116SAPE  H11A12138   6.840   0.698   1.905 -1.7108  1.2049 -1.6208
  116SAPE  H11B12139   6.896   0.795   1.770  0.2982 -3.3563 -0.4626
  116SAPE     P12140   6.783   0.971   1.970 -0.0622 -0.1371  0.0803
  116SAPE   O1312141   6.785   1.070   1.860 -0.2816 -0.2487 -0.0161
  116SAPE   O1412142   6.659   0.895   1.990 -0.5081 -0.0314 -0.5025
  116SAPE   O1212143   6.916   0.887   1.961 -0.2746  0.0122  0.0760
  116SAPE   O1112144   6.807   1.044   2.106  0.1501 -0.7017 -0.5150
  116SAPE    C112145   6.898   1.007   2.210 -0.2458  0.7133  0.3628
  116SAPE    HA12146   6.870   1.047   2.309  0.7770 -0.3473  1.1131
  116SAPE    HB12147   6.899   0.897   2.228 -0.2992  1.0472  2.6026
  116SAPE    C212148   7.045   1.056   2.174  0.5324 -0.9385 -0.7728
  116SAPE    HS12149   7.080   1.014   2.077 -0.8784  0.2916 -1.8608
  116SAPE   O2112150   7.130   1.019   2.286  0.2267 -0.2240 -0.1238
  116SAPE   C2112151   7.165   0.894   2.277 -0.2667 -0.3822  0.3450
  116SAPE   O2212152   7.122   0.816   2.195  0.8109  0.1016  0.2924
  116SAPE   C2212153   7.269   0.866   2.392  0.2036  0.1444  0.1666
  116SAPE   H2R12154   7.210   0.818   2.473  2.7413 -2.9297  0.4120
  116SAPE   H2S12155   7.339   0.792   2.347 -0.6666  0.3605 -1.6452
  116SAPE    C312156   7.043   1.214   2.152 -0.1715 -0.9206 -0.6762
  116SAPE    HX12157   6.972   1.247   2.073 -1.5724  0.6757  1.1425
  116SAPE    HY12158   7.142   1.248   2.113  0.6037  1.1487  2.7119
  116SAPE   O3112159   7.020   1.280   2.276  0.1387  0.2787  0.3182
  116SAPE   C3112160   7.132   1.324   2.343 -0.2867 -0.9439 -0.2851
  116SAPE   O3212161   7.250   1.329   2.309  0.0959  0.6274 -0.5549
  116SAPE   C3212162   7.078   1.391   2.471  0.2345 -0.0948 -0.0663
  116SAPE   H2X12163   6.968   1.381   2.476  0.0958  1.6043  1.9032
  116SAPE   H2Y12164   7.099   1.501   2.472 -1.5077  0.2919  2.1840
  116SAPE   C2312165   7.342   0.993   2.445  0.1819 -0.5015 -0.6254
  116SAPE   H3R12166   7.278   1.061   2.505  2.6078  0.1947  1.2857
  116SAPE   H3S12167   7.395   1.055   2.370 -0.3786  1.7840  0.7937
  116SAPE   C2412168   7.447   0.937   2.551  0.2304 -0.6304 -0.6840
  116SAPE   H4R12169   7.513   1.026   2.564 -1.8847  0.7357  1.4374
  116SAPE   H4S12170   7.514   0.857   2.512  1.5940  0.0665  0.1314
  116SAPE   C2512171   7.383   0.912   2.684  0.1028 -0.0396 -0.4272
  116SAPE   H5R12172   7.296   0.844   2.677 -0.7215  0.8862  0.4221
  116SAPE   C2612173   7.423   0.952   2.804  0.2912  0.5574 -0.5072
  116SAPE   H6R12174   7.364   0.919   2.891 -1.1992  1.5146 -1.1191
  116SAPE   C2712175   7.543   1.032   2.842  0.3138  0.0684  0.0240
  116SAPE   H7R12176   7.609   1.035   2.753 -0.3851  1.5330 -0.4855
  116SAPE   H7S12177   7.594   0.988   2.930  0.0964 -0.1290  0.0508
  116SAPE   C2812178   7.497   1.166   2.880 -0.0289  0.2893 -0.1629
  116SAPE   H8R12179   7.419   1.221   2.825  2.5002  4.6987  0.2436
  116SAPE   C2912180   7.551   1.245   2.974  0.0819  0.6082  0.9165
  116SAPE   H9R12181   7.492   1.334   2.998 -1.0875 -0.1395  0.9163
  116SAPE  C21012182   7.668   1.215   3.063  0.2317  0.5003  0.6373
  116SAPE  H10R12183   7.750   1.170   3.003 -2.6612 -1.5122 -2.1649
  116SAPE  H10S12184   7.638   1.148   3.146 -2.4979  1.7964  0.7894
  116SAPE  C21112185   7.724   1.337   3.131  0.0293  0.4960 -0.1236
  116SAPE  H11R12186   7.833   1.353   3.126  0.4021 -1.7815 -0.6143
  116SAPE  C21212187   7.660   1.411   3.220  0.8173  0.0031  0.2030
  116SAPE  H12R12188   7.726   1.491   3.258  0.8954 -0.1565  0.4074
  116SAPE  C21312189   7.521   1.383   3.272  0.0424  0.8686  0.0006
  116SAPE  H13R12190   7.487   1.281   3.244  0.9742  0.1219  1.5067
  116SAPE  H13S12191   7.452   1.452   3.219 -0.3991  2.4959  2.5536
  116SAPE  C21412192   7.508   1.403   3.422  0.4045  0.2017 -0.7257
  116SAPE  H14R12193   7.441   1.484   3.455  0.2493 -0.6315  1.1460
  116SAPE  C21512194   7.576   1.340   3.518 -0.3277 -0.1326 -0.0371
  116SAPE  H15R12195   7.557   1.358   3.625 -1.0760 -2.0318  0.1850
  116SAPE  C21612196   7.679   1.225   3.509  0.1878  0.0567 -0.3122
  116SAPE  H16R12197   7.736   1.225   3.413 -0.0671  3.4289 -0.5971
  116SAPE  H16S12198   7.639   1.123   3.524  0.3543 -0.1903 -1.4363
  116SAPE  C21712199   7.781   1.231   3.624  0.4474 -0.4974 -0.4154
  116SAPE  H17R12200   7.851   1.145   3.617 -0.8789 -1.7562  1.0216
  116SAPE  H17S12201   7.742   1.221   3.728  2.7502 -1.0082  0.4712
  116SAPE  C21812202   7.876   1.352   3.612  0.2202  0.7891  0.1395
  116SAPE  H18R12203   7.827   1.448   3.640  0.0872  0.7766 -0.0470
  116SAPE  H18S12204   7.910   1.370   3.508  0.7360 -1.7557 -0.2100
  116SAPE  C21912205   8.001   1.359   3.705 -0.1066 -0.5070 -0.0992
  116SAPE  H19R12206   7.992   1.283   3.786 -2.2591  0.4857  0.6933
  116SAPE  H19S12207   7.992   1.446   3.774  2.0564 -2.1142  2.3887
  116SAPE  C22012208   8.130   1.341   3.620 -0.5071  0.3404  0.1084
  116SAPE  H20R12209   8.132   1.236   3.582 -2.0815  0.5232 -0.5449
  116SAPE  H20S12210   8.218   1.354   3.687  0.0347  0.0872 -0.5414
  116SAPE  H20T12211   8.139   1.415   3.538 -0.8310  2.3412  1.7988
  116SAPE   C3312212   7.126   1.319   2.596  0.0904 -0.1856  0.0014
  116SAPE   H3X12213   7.236   1.308   2.610 -0.0353 -1.4863  0.0578
  116SAPE   H3Y12214   7.095   1.213   2.589  0.8516 -0.3589 -1.0305
  116SAPE   C3412215   7.076   1.390   2.718 -1.1110 -0.1710  0.3635
  116SAPE   H4X12216   6.969   1.379   2.746 -0.7208  0.7057  2.4485
  116SAPE   H4Y12217   7.075   1.499   2.694 -2.5415 -0.3365 -0.3969
  116SAPE   C3512218   7.160   1.358   2.845 -0.0728  0.5990  0.2946
  116SAPE   H5X12219   7.270   1.367   2.832 -0.2206  1.1017 -0.6752
  116SAPE   H5Y12220   7.150   1.252   2.879  3.8776  0.4755  1.6069
  116SAPE   C3612221   7.125   1.444   2.959  0.1567  0.1601  0.3921
  116SAPE   H6X12222   7.020   1.476   2.945  0.2964 -0.2745 -2.0604
  116SAPE   H6Y12223   7.186   1.536   2.947  1.5696 -0.6764  0.8946
  116SAPE   C3712224   7.145   1.378   3.096 -0.4170 -0.2380 -0.3037
  116SAPE   H7X12225   7.239   1.320   3.108 -1.3181 -1.6875  0.0085
  116SAPE   H7Y12226   7.068   1.298   3.103 -0.1714 -0.6507 -1.9121
  116SAPE   C3812227   7.125   1.463   3.223 -0.1794 -0.1508  0.7214
  116SAPE   H8X12228   7.036   1.529   3.220  0.7043  1.2227  2.5315
  116SAPE   H8Y12229   7.210   1.532   3.243 -0.3050 -0.2418  1.6237
  116SAPE   C3912230   7.122   1.365   3.342 -0.0423 -0.6780  0.3537
  116SAPE   H9X12231   7.209   1.295   3.339  1.5177  1.1681  0.0447
  116SAPE   H9Y12232   7.036   1.296   3.336  0.4016 -1.4016  1.8165
  116SAPE  C31012233   7.133   1.434   3.479 -0.6405 -0.4516  0.1811
  116SAPE  H10X12234   7.200   1.523   3.480 -0.8558 -0.2615 -0.7533
  116SAPE  H10Y12235   7.173   1.364   3.555  2.4827  0.7949 -0.1594
  116SAPE  C31112236   6.992   1.483   3.531  0.0003 -0.0848  0.2839
  116SAPE  H11X12237   6.924   1.398   3.555  0.9100 -1.4986 -1.7687
  116SAPE  H11Y12238   6.946   1.532   3.442  2.0588  0.7398 -0.3616
  116SAPE  C31212239   6.999   1.598   3.634 -0.4685  0.0091 -0.3214
  116SAPE  H12X12240   7.043   1.690   3.592 -0.3570  0.3397  0.5012
  116SAPE  H12Y12241   7.060   1.549   3.713 -0.9509 -2.2752 -1.2919
  116SAPE  C31312242   6.864   1.626   3.692  0.0991 -0.0176 -0.2956
  116SAPE  H13X12243   6.812   1.533   3.721 -1.9027  1.5880  1.5548
  116SAPE  H13Y12244   6.801   1.683   3.620  2.1952  0.2271 -2.0601
  116SAPE  C31412245   6.864   1.711   3.824 -0.0902  0.0627  1.0693
  116SAPE  H14X12246   6.903   1.811   3.795  1.6738 -0.9451 -0.2114
  116SAPE  H14Y12247   6.930   1.660   3.898  0.2339 -0.6393  0.3073
  116SAPE  C31512248   6.728   1.726   3.888 -0.2780 -0.3753  1.1745
  116SAPE  H15X12249   6.734   1.777   3.986 -0.8781  0.8156  0.6147
  116SAPE  H15Y12250   6.688   1.623   3.900  1.1413 -1.3440 -1.4024
  116SAPE  C31612251   6.620   1.806   3.808  0.1057 -0.0234 -0.1713
  116SAPE  H16X12252   6.673   1.892   3.762  1.1863  0.1959  1.4125
  116SAPE  H16Y12253   6.546   1.843   3.882  0.5758 -2.1985  1.5026
  116SAPE  C31712254   6.520   1.716   3.725 -0.9530 -0.3308  0.7184
  116SAPE  H17X12255   6.476   1.658   3.808 -0.7858  0.7992  1.6194
  116SAPE  H17Y12256   6.579   1.644   3.664  0.7350 -0.5388  2.4988
  116SAPE  C31812257   6.413   1.806   3.648 -0.1394  0.2710  0.2432
  116SAPE  H18X12258   6.369   1.876   3.723  0.3956  1.8343 -0.8766
  116SAPE  H18Y12259   6.338   1.739   3.601 -0.4455  0.7802  0.0006
  116SAPE  H18Z12260   6.455   1.870   3.568  0.8499 -1.9743 -1.1243
  117SOPE     N12261   2.502   3.491   5.623 -0.1329  0.0673  0.1196
  117SOPE   HN112262   2.561   3.573   5.599 -1.1865  1.0774  0.8729
  117SOPE   HN212263   2.571   3.417   5.646  2.0499  1.5266 -1.3630
  117SOPE   HN312264   2.446   3.462   5.540  0.7421  1.9950 -1.2039
  117SOPE   C1212265   2.413   3.533   5.736  0.0753 -1.0375  0.2468
  117SOPE  H12A12266   2.322   3.469   5.739  0.0957 -1.0637  0.3322
  117SOPE  H12B12267   2.367   3.629   5.704  1.2060 -1.1552 -1.9150
  117SOPE   C1112268   2.490   3.552   5.864  0.2893  0.1948 -0.9885
  117SOPE  H11A12269   2.423   3.593   5.942 -1.4542 -1.6618 -1.4367
  117SOPE  H11B12270   2.578   3.615   5.839 -0.0418  1.1880  0.2585
  117SOPE     P12271   2.643   3.394   6.025 -0.2390 -0.5419 -0.0563
  117SOPE   O1312272   2.610   3.282   6.113 -0.2960  0.6227 -0.6476
  117SOPE   O1412273   2.657   3.525   6.098 -0.2724  0.1197 -0.1583
  117SOPE   O1212274   2.529   3.415   5.912 -0.2832  0.2472 -0.2888
  117SOPE   O1112275   2.777   3.369   5.947  0.2909 -0.2014 -0.2883
  117SOPE    C112276   2.903   3.392   6.010 -0.6214  0.2419  0.0169
  117SOPE    HA12277   2.918   3.331   6.101 -0.8298 -3.1520 -2.0608
  117SOPE    HB12278   2.900   3.499   6.038 -0.8575  0.0606  0.6864
  117SOPE    C212279   3.012   3.339   5.911 -0.5701  0.6649 -0.5593
  117SOPE    HS12280   3.116   3.362   5.942 -0.1447 -0.0618 -1.3936
  117SOPE   O2112281   2.995   3.387   5.779  0.6665  0.0462 -0.1637
  117SOPE   C2112282   3.033   3.516   5.763 -0.2682  0.2716  0.3089
  117SOPE   O2212283   3.084   3.578   5.858  0.1932 -0.1324 -0.2545
  117SOPE   C2212284   2.999   3.555   5.626  0.4023 -0.0988 -0.7839
  117SOPE   H2R12285   2.899   3.602   5.635  1.1931  1.2585  1.8999
  117SOPE   H2S12286   2.994   3.462   5.565  4.0002 -1.2250  0.3351
  117SOPE    C312287   3.009   3.189   5.908  0.3612  0.4015  0.2307
  117SOPE    HX12288   2.909   3.157   5.870  0.8629  0.4501 -1.1837
  117SOPE    HY12289   3.016   3.139   6.008  0.0751 -1.1670 -0.5057
  117SOPE   O3112290   3.118   3.141   5.832 -0.5037  0.0860  0.1169
  117SOPE   C3112291   3.105   3.082   5.716  0.7314  0.0073 -0.2966
  117SOPE   O3212292   3.000   3.030   5.674  0.8269  0.6474 -0.1953
  117SOPE   C3212293   3.239   3.085   5.637  0.2577  0.2296  0.7114
  117SOPE   H2X12294   3.306   3.000   5.663  4.2165  2.3088 -1.6319
  117SOPE   H2Y12295   3.299   3.174   5.664  0.9006  0.3277 -0.8899
  117SOPE   C2312296   3.099   3.655   5.571  0.3636 -0.1306 -0.6654
  117SOPE   H3R12297   3.198   3.637   5.617  1.1608  0.7394 -1.9653
  117SOPE   H3S12298   3.071   3.758   5.600  1.3823  0.3169 -1.2121
  117SOPE   C2412299   3.121   3.643   5.415  0.3072 -0.4277 -0.0992
  117SOPE   H4R12300   3.215   3.695   5.387  1.6211 -1.5583  1.9589
  117SOPE   H4S12301   3.132   3.537   5.387 -0.1714 -0.4699 -0.1426
  117SOPE   C2512302   2.984   3.681   5.349 -0.7980  0.0103 -0.3683
  117SOPE   H5R12303   2.903   3.611   5.378  0.7020 -0.9642  1.7912
  117SOPE   H5S12304   2.954   3.784   5.376 -0.2164  0.2484 -0.6116
  117SOPE   C2612305   3.005   3.671   5.198  0.2248  0.0947  0.2222
  117SOPE   H6R12306   3.058   3.758   5.154 -2.2995  1.7477  0.1862
  117SOPE   H6S12307   3.051   3.573   5.173  0.9771  0.5974 -0.4000
  117SOPE   C2712308   2.875   3.674   5.120  0.6727 -0.3358  0.6152
  117SOPE   H7R12309   2.812   3.587   5.146 -0.9141  0.6068  0.1281
  117SOPE   H7S12310   2.812   3.765   5.133 -0.8811 -0.8963 -2.0759
  117SOPE   C2812311   2.894   3.673   4.969  0.1653  0.5565 -0.1308
  117SOPE   H8R12312   2.796   3.697   4.922  0.8249  0.7117 -1.4705
  117SOPE   H8S12313   2.957   3.759   4.937  1.7604 -0.1478  1.0232
  117SOPE   C2912314   2.952   3.551   4.903  0.3832 -0.2025 -0.1813
  117SOPE   H9112315   3.016   3.491   4.971  0.1162  0.8020  0.9920
  117SOPE  C21012316   2.950   3.523   4.775 -0.5578  0.5247 -0.2920
  117SOPE  H10112317   3.009   3.443   4.729 -0.9980 -0.1199  0.2563
  117SOPE  C21112318   2.887   3.621   4.669 -0.6965 -0.2239 -0.4400
  117SOPE  H11R12319   2.881   3.724   4.709  2.7733  0.7822 -2.1683
  117SOPE  H11S12320   2.790   3.588   4.626 -1.4029  1.9474 -0.6185
  117SOPE  C21212321   2.975   3.623   4.536  0.8344  0.0909 -0.3260
  117SOPE  H12R12322   2.981   3.523   4.489 -0.8775  0.1814 -0.7793
  117SOPE  H12S12323   3.075   3.666   4.562 -0.8900  4.0529  0.4627
  117SOPE  C21312324   2.920   3.730   4.433  0.2651 -0.2301  0.4989
  117SOPE  H13R12325   3.000   3.762   4.363  0.0215 -0.5002  0.0913
  117SOPE  H13S12326   2.891   3.816   4.497  3.7236  0.2207  1.6939
  117SOPE  C21412327   2.787   3.680   4.371  0.6967  0.4509  0.2522
  117SOPE  H14R12328   2.742   3.768   4.321  2.0087  1.9781  1.6422
  117SOPE  H14S12329   2.709   3.657   4.446  0.2591 -0.6538 -0.5185
  117SOPE  C21512330   2.802   3.549   4.282 -0.7319 -0.2564 -0.0523
  117SOPE  H15R12331   2.827   3.459   4.342 -0.8896  0.0608  0.4998
  117SOPE  H15S12332   2.891   3.558   4.217 -0.3610 -3.0981 -0.0386
  117SOPE  C21612333   2.680   3.528   4.195  0.1184  0.3271  0.1061
  117SOPE  H16R12334   2.589   3.563   4.249  0.8834  1.0556  0.9559
  117SOPE  H16S12335   2.657   3.420   4.190  0.0120  0.3031  0.9332
  117SOPE  C21712336   2.692   3.588   4.049  0.2181  0.2248  0.5060
  117SOPE  H17R12337   2.790   3.559   4.007 -0.3328  1.1703 -1.5409
  117SOPE  H17S12338   2.691   3.698   4.061  3.3608  0.1968  2.0316
  117SOPE  C21812339   2.579   3.547   3.952 -0.1277 -0.2788  0.2224
  117SOPE  H18R12340   2.583   3.439   3.929  0.7141 -0.3161  0.4883
  117SOPE  H18S12341   2.587   3.604   3.857 -0.3389 -0.9409 -0.2000
  117SOPE  H18T12342   2.477   3.553   3.997  0.7212  2.1289  2.0980
  117SOPE   C3312343   3.204   3.089   5.485 -0.1697  0.5343  0.1253
  117SOPE   H3X12344   3.135   3.003   5.475 -0.7630  1.1906 -1.9648
  117SOPE   H3Y12345   3.287   3.054   5.421 -0.7698  1.5313 -1.2457
  117SOPE   C3412346   3.136   3.216   5.451  0.1035 -0.1734  0.4430
  117SOPE   H4X12347   3.201   3.296   5.494  0.3688  0.3182 -0.8051
  117SOPE   H4Y12348   3.030   3.227   5.482  0.7545 -1.2946  3.3889
  117SOPE   C3512349   3.151   3.248   5.307  0.7391 -0.3220  0.2347
  117SOPE   H5X12350   3.255   3.225   5.274 -0.0061 -1.4792 -1.4584
  117SOPE   H5Y12351   3.135   3.357   5.292  1.3612 -0.5156 -2.5519
  117SOPE   C3612352   3.063   3.183   5.198  0.1999 -0.8614  0.2628
  117SOPE   H6X12353   2.965   3.235   5.208 -0.0467 -1.4122  0.7641
  117SOPE   H6Y12354   3.046   3.074   5.212  0.2699 -1.0877 -1.3193
  117SOPE   C3712355   3.129   3.196   5.057  0.1050  0.1627  0.4529
  117SOPE   H7X12356   3.211   3.121   5.050  2.8070  3.1019 -1.9716
  117SOPE   H7Y12357   3.165   3.298   5.035 -2.7402  0.9322 -1.1043
  117SOPE   C3812358   3.026   3.158   4.951  0.5562  0.4195  0.1212
  117SOPE   H8X12359   2.939   3.228   4.957 -0.2224 -0.3105 -1.7022
  117SOPE   H8Y12360   2.981   3.058   4.964  2.6515 -0.6298 -0.4001
  117SOPE   C3912361   3.067   3.168   4.803 -0.1356  0.3416  0.3289
  117SOPE   H9X12362   3.167   3.122   4.792 -1.0227 -1.4583 -0.6357
  117SOPE   H9Y12363   3.084   3.273   4.772 -0.0122 -0.1557 -1.3843
  117SOPE  C31012364   2.955   3.108   4.712  0.6280 -0.7337  0.6678
  117SOPE  H10X12365   2.864   3.144   4.765  1.2471 -0.1789  1.3663
  117SOPE  H10Y12366   2.950   2.997   4.708  2.8916 -0.8440 -2.6954
  117SOPE  C31112367   2.961   3.162   4.570 -0.9493 -0.7765  0.1250
  117SOPE  H11X12368   3.063   3.175   4.528 -0.6174  0.0486  1.1565
  117SOPE  H11Y12369   2.914   3.262   4.584  0.5162 -0.2555  1.6953
  117SOPE  C31212370   2.877   3.086   4.473  0.1846  0.3942  0.0404
  117SOPE  H12X12371   2.789   3.061   4.535  1.2228 -1.4142  0.8561
  117SOPE  H12Y12372   2.929   2.989   4.458 -1.0271 -0.8578  3.1596
  117SOPE  C31312373   2.821   3.161   4.351  0.1328  0.5989  0.2047
  117SOPE  H13X12374   2.895   3.240   4.329 -0.4608  1.1695  0.2474
  117SOPE  H13Y12375   2.732   3.224   4.370  0.2866  1.7156 -2.3497
  117SOPE  C31412376   2.792   3.072   4.226  0.1193  0.3062  0.2961
  117SOPE  H14X12377   2.750   3.125   4.138  2.0779 -0.1692 -0.9801
  117SOPE  H14Y12378   2.711   2.999   4.250 -0.1100 -0.1933 -1.8136
  117SOPE  C31512379   2.909   2.990   4.172 -0.4064 -0.3295 -0.7561
  117SOPE  H15X12380   2.969   2.959   4.260  0.9588  0.8682 -1.2195
  117SOPE  H15Y12381   2.978   3.062   4.123 -0.4535  1.8707  2.1603
  117SOPE  C31612382   2.873   2.880   4.076  0.6532  0.7201 -0.3220
  117SOPE  H16X12383   2.792   2.925   4.015 -1.7410 -0.2079  1.9797
  117SOPE  H16Y12384   2.828   2.790   4.123  0.4705 -0.7289 -3.0533
  117SOPE  C31712385   2.992   2.823   3.998  0.2036 -0.2630  0.2026
  117SOPE  H17X12386   3.026   2.748   4.072 -1.3498 -1.7235 -0.4980
  117SOPE  H17Y12387   3.068   2.904   3.985 -0.0879 -0.0747 -0.3508
  117SOPE  C31812388   2.950   2.752   3.863 -0.2359 -0.1669  0.1641
  117SOPE  H18X12389   2.862   2.686   3.877  1.0060 -1.8053  0.5854
  117SOPE  H18Y12390   3.032   2.686   3.827 -1.2834 -1.8201  0.6894
  117SOPE  H18Z12391   2.935   2.834   3.790  0.1058  0.5245  0.8583
  118SOPE     N12392   4.968   5.880   6.257 -0.1622 -0.0342  0.1194
  118SOPE   HN112393   4.941   5.879   6.157  0.4305 -0.8860 -0.0465
  118SOPE   HN212394   5.016   5.790   6.277  0.1248 -0.3039 -1.6549
  118SOPE   HN312395   4.889   5.899   6.322  0.7881  3.1220  0.5308
  118SOPE   C1212396   5.072   5.991   6.259  0.1572 -0.2602 -0.2918
  118SOPE  H12A12397   5.124   5.988   6.357  0.8975  1.5298 -0.6010
  118SOPE  H12B12398   5.025   6.091   6.262  0.1927 -0.2642  0.9190
  118SOPE   C1112399   5.183   5.975   6.144 -0.4996  0.0204  0.3333
  118SOPE  H11A12400   5.246   5.884   6.143  0.5647  0.7185 -1.3501
  118SOPE  H11B12401   5.260   6.054   6.156 -0.7555  0.4706 -0.7956
  118SOPE     P12402   5.107   6.141   5.950  0.1190  0.2204  0.4972
  118SOPE   O1312403   5.240   6.188   5.904 -0.2256  0.1946 -0.0417
  118SOPE   O1412404   5.022   6.241   6.023  0.0542 -0.1391 -0.2360
  118SOPE   O1212405   5.113   5.999   6.020  0.5707 -0.5820 -0.5724
  118SOPE   O1112406   5.039   6.101   5.813  0.1848  0.3986 -0.9172
  118SOPE    C112407   4.911   6.133   5.760 -0.2167 -0.3647 -0.2679
  118SOPE    HA12408   4.918   6.173   5.657 -0.4064 -1.0994 -0.5658
  118SOPE    HB12409   4.871   6.208   5.832  4.1087  0.7094  1.3383
  118SOPE    C212410   4.809   6.009   5.753  0.2327  0.5590 -0.4440
  118SOPE    HS12411   4.792   5.978   5.858 -4.3413  2.0761 -0.4895
  118SOPE   O2112412   4.865   5.900   5.682  0.3393 -0.0624  0.5980
  118SOPE   C2112413   4.807   5.777   5.702 -0.0205  0.1425 -0.0117
  118SOPE   O2212414   4.718   5.754   5.777 -0.1348  0.5359 -0.2951
  118SOPE   C2212415   4.874   5.676   5.603  0.2970  0.1152 -0.8683
  118SOPE   H2R12416   4.960   5.628   5.653  0.1718 -0.9400 -1.6256
  118SOPE   H2S12417   4.916   5.732   5.516 -0.1347  1.5253 -0.2032
  118SOPE    C312418   4.668   6.044   5.716  0.1530 -0.3863  0.1692
  118SOPE    HX12419   4.618   6.123   5.775  0.2556  1.2251 -1.8025
  118SOPE    HY12420   4.594   5.961   5.718 -0.6843  0.3167 -0.8130
  118SOPE   O3112421   4.674   6.103   5.583 -0.3247  0.0288  0.3821
  118SOPE   C3112422   4.668   6.020   5.479  0.3394 -0.7642  0.5892
  118SOPE   O3212423   4.640   5.902   5.487  0.1656  0.1265 -0.6176
  118SOPE   C3212424   4.718   6.087   5.348  0.3808  0.1541  0.9041
  118SOPE   H2X12425   4.642   6.069   5.268  1.9408 -1.4264 -0.3040
  118SOPE   H2Y12426   4.807   6.027   5.321  0.5440  0.3638  0.9778
  118SOPE   C2312427   4.778   5.557   5.563  0.4747 -0.5947 -1.1062
  118SOPE   H3R12428   4.695   5.596   5.501 -1.5209 -0.9801  1.1369
  118SOPE   H3S12429   4.730   5.514   5.654 -0.8195 -0.8979 -1.9149
  118SOPE   C2412430   4.861   5.450   5.496  0.3166 -0.5931  0.4151
  118SOPE   H4R12431   4.941   5.427   5.570  0.2375 -2.9351 -0.1697
  118SOPE   H4S12432   4.803   5.360   5.468 -0.7753  0.8493 -2.3533
  118SOPE   C2512433   4.930   5.488   5.364 -0.2928  0.0919  0.4494
  118SOPE   H5R12434   4.855   5.525   5.291  0.3501  1.7872  0.5844
  118SOPE   H5S12435   5.000   5.573   5.381  2.7540 -2.1603  0.0273
  118SOPE   C2612436   5.000   5.366   5.312 -0.6092 -0.6168 -0.0246
  118SOPE   H6R12437   5.075   5.339   5.389 -3.3761  0.3596  3.2255
  118SOPE   H6S12438   4.944   5.270   5.312  1.6202 -2.0153 -1.5111
  118SOPE   C2712439   5.067   5.402   5.184  0.4220 -0.1198 -0.0159
  118SOPE   H7R12440   4.992   5.453   5.120 -1.7410 -4.0101 -0.9292
  118SOPE   H7S12441   5.151   5.472   5.202 -0.6014  1.2098 -0.2368
  118SOPE   C2812442   5.120   5.281   5.111 -0.3200 -0.1258  0.2454
  118SOPE   H8R12443   5.183   5.208   5.167  0.5421  0.4126 -0.0055
  118SOPE   H8S12444   5.026   5.231   5.081 -1.2003  0.4668  1.9138
  118SOPE   C2912445   5.207   5.333   5.001 -0.1801  0.0342  0.4113
  118SOPE   H9112446   5.270   5.420   5.025  0.3103 -0.0439 -0.5569
  118SOPE  C21012447   5.218   5.266   4.884  0.2224 -0.6293 -0.3395
  118SOPE  H10112448   5.293   5.310   4.816  0.7773  0.3691  0.8768
  118SOPE  C21112449   5.157   5.138   4.849  1.0989  0.6785 -0.1091
  118SOPE  H11R12450   5.049   5.157   4.835  0.8526  0.2359  1.0291
  118SOPE  H11S12451   5.173   5.061   4.928 -0.3464  2.7349  2.3629
  118SOPE  C21212452   5.206   5.072   4.716  0.5040 -0.0723  0.6881
  118SOPE  H12R12453   5.316   5.062   4.713  0.7728  2.1174  1.9609
  118SOPE  H12S12454   5.169   5.149   4.645 -3.3040  0.4588  2.9272
  118SOPE  C21312455   5.154   4.934   4.690  0.7514 -0.0776  0.3450
  118SOPE  H13R12456   5.045   4.929   4.711  0.7819  2.3020  1.3905
  118SOPE  H13S12457   5.205   4.863   4.759  0.6086 -1.4784 -0.9363
  118SOPE  C21412458   5.177   4.874   4.547  0.5872 -0.4748 -0.2643
  118SOPE  H14R12459   5.288   4.870   4.544  0.6523  0.0479  0.7563
  118SOPE  H14S12460   5.146   4.949   4.471  0.1478  1.5154  1.7602
  118SOPE  C21512461   5.116   4.738   4.516 -0.4845 -0.2300  0.1770
  118SOPE  H15R12462   5.007   4.762   4.514 -0.2989  0.5577 -1.1378
  118SOPE  H15S12463   5.135   4.665   4.597  1.0803  1.1882  1.1643
  118SOPE  C21612464   5.154   4.690   4.373 -0.8552 -0.3927  0.5646
  118SOPE  H16R12465   5.264   4.677   4.364 -0.9938 -0.1672 -2.2500
  118SOPE  H16S12466   5.116   4.767   4.303  1.0642 -0.3934 -0.5312
  118SOPE  C21712467   5.074   4.565   4.328  0.3917  0.2624  0.2066
  118SOPE  H17R12468   5.046   4.501   4.415 -3.1229  1.2302 -0.0618
  118SOPE  H17S12469   5.140   4.499   4.267 -0.1021 -1.4345  1.4293
  118SOPE  C21812470   4.945   4.590   4.252  0.2880 -0.5450  0.2350
  118SOPE  H18R12471   4.951   4.667   4.173 -1.0674  0.6277  1.2173
  118SOPE  H18S12472   4.858   4.617   4.316  0.6105  0.5999  0.2016
  118SOPE  H18T12473   4.909   4.493   4.211  0.0544 -0.6673  0.7170
  118SOPE   C3312474   4.767   6.234   5.356  0.2859  0.2952 -0.6722
  118SOPE   H3X12475   4.855   6.238   5.424  0.0544  1.2724 -0.4159
  118SOPE   H3Y12476   4.697   6.307   5.401  2.0780 -0.1214  3.2158
  118SOPE   C3412477   4.825   6.276   5.222 -0.2959 -0.2101  0.1892
  118SOPE   H4X12478   4.748   6.287   5.143 -0.2244  1.9333  0.3552
  118SOPE   H4Y12479   4.901   6.201   5.192 -0.0616  1.0497 -2.5905
  118SOPE   C3512480   4.891   6.417   5.237  0.3878  0.1479 -0.0602
  118SOPE   H5X12481   4.975   6.407   5.308 -1.2114  1.8084  2.2194
  118SOPE   H5Y12482   4.811   6.486   5.272 -0.1484 -0.9931  1.0468
  118SOPE   C3612483   4.937   6.489   5.109 -0.3935  0.3854  0.9917
  118SOPE   H6X12484   4.973   6.589   5.143 -2.3483  1.9549 -1.2375
  118SOPE   H6Y12485   4.856   6.518   5.038  0.1592  0.8816  0.5550
  118SOPE   C3712486   5.046   6.403   5.029 -0.0180  0.4398  0.8936
  118SOPE   H7X12487   5.001   6.305   5.001  0.6338  0.2103  0.6385
  118SOPE   H7Y12488   5.129   6.379   5.099 -0.1184 -0.6765  0.6465
  118SOPE   C3812489   5.110   6.476   4.912 -0.0753  0.5552 -0.1338
  118SOPE   H8X12490   5.170   6.558   4.958  3.4286 -2.6875  1.6094
  118SOPE   H8Y12491   5.030   6.512   4.844 -1.3747  0.2809  1.2068
  118SOPE   C3912492   5.213   6.394   4.832  0.2897  0.1213  0.0391
  118SOPE   H9X12493   5.275   6.342   4.908  0.0927 -0.3620 -0.1274
  118SOPE   H9Y12494   5.276   6.455   4.763  0.6460  0.5740  0.7590
  118SOPE  C31012495   5.141   6.291   4.750  0.6909  0.4156 -0.1365
  118SOPE  H10X12496   5.059   6.337   4.691 -0.2983  0.7410  1.4405
  118SOPE  H10Y12497   5.103   6.205   4.810 -1.9460  1.7995  0.3564
  118SOPE  C31112498   5.227   6.211   4.637 -0.1728  0.2946 -0.3882
  118SOPE  H11X12499   5.325   6.180   4.677  0.9382 -0.5512 -3.4590
  118SOPE  H11Y12500   5.258   6.281   4.556 -1.8150  0.4985 -0.8968
  118SOPE  C31212501   5.140   6.101   4.576  0.1883  0.1780 -1.2139
  118SOPE  H12X12502   5.031   6.120   4.566 -0.2931 -1.8228 -0.1909
  118SOPE  H12Y12503   5.151   6.021   4.652  0.2527 -0.1920 -1.6099
  118SOPE  C31312504   5.172   6.047   4.438 -0.7137 -0.4571  0.6909
  118SOPE  H13X12505   5.262   5.982   4.433 -0.9835 -0.7655 -1.5166
  118SOPE  H13Y12506   5.187   6.141   4.380  2.8490 -0.6396  1.1168
  118SOPE  C31412507   5.060   5.969   4.374  0.5014  0.0016  0.7336
  118SOPE  H14X12508   4.967   6.025   4.353 -0.6902 -1.7970  0.9523
  118SOPE  H14Y12509   5.031   5.880   4.435  2.1530 -1.0963 -0.0158
  118SOPE  C31512510   5.103   5.914   4.237 -0.1020 -0.3240 -0.0513
  118SOPE  H15X12511   5.163   5.820   4.239 -0.0196 -0.2875 -0.6691
  118SOPE  H15Y12512   5.170   5.999   4.210  0.5857 -0.3578  1.4283
  118SOPE  C31612513   4.993   5.894   4.129  0.6410 -0.3182  0.1140
  118SOPE  H16X12514   4.921   5.977   4.111 -1.0394 -1.4278  1.3088
  118SOPE  H16Y12515   4.932   5.809   4.167  0.8053 -0.0356  1.0469
  118SOPE  C31712516   5.061   5.858   4.000  0.5615  0.4912  0.7790
  118SOPE  H17X12517   5.105   5.756   4.009  0.8436  0.5871  0.5128
  118SOPE  H17Y12518   5.142   5.927   3.966 -1.3242  1.5683 -1.9006
  118SOPE  C31812519   4.971   5.841   3.873 -0.0706  0.4229 -0.0911
  118SOPE  H18X12520   5.037   5.807   3.790 -2.0010 -3.2855 -0.3267
  118SOPE  H18Y12521   4.925   5.939   3.848  1.4019  1.3249  0.5798
  118SOPE  H18Z12522   4.899   5.758   3.886 -0.7378  0.9903 -0.1465
  119SOPE     N12523   5.245   5.703   5.734  0.7160 -0.3848 -0.5995
  119SOPE   HN112524   5.170   5.656   5.788 -0.7630  1.5225 -0.8764
  119SOPE   HN212525   5.238   5.694   5.630 -0.3239 -0.8956 -0.4993
  119SOPE   HN312526   5.338   5.679   5.773  0.6876  0.0168 -0.2763
  119SOPE   C1212527   5.253   5.853   5.766 -0.2275 -0.1218 -0.0164
  119SOPE  H12A12528   5.287   5.862   5.871 -0.4319  1.4771 -0.0516
  119SOPE  H12B12529   5.150   5.893   5.755 -0.8215 -1.0947  1.7189
  119SOPE   C1112530   5.359   5.908   5.664  0.3198 -0.3479 -0.2951
  119SOPE  H11A12531   5.359   6.015   5.693  1.3542 -0.5447  0.4830
  119SOPE  H11B12532   5.323   5.912   5.559  1.7053  3.5130 -0.7738
  119SOPE     P12533   5.622   5.911   5.681  0.0296  0.3193  0.1062
  119SOPE   O1312534   5.733   5.816   5.704 -0.2520  0.3652 -0.1898
  119SOPE   O1412535   5.611   6.024   5.778  0.1789  0.0764 -0.4330
  119SOPE   O1212536   5.486   5.838   5.676 -0.0220 -0.0111 -0.5697
  119SOPE   O1112537   5.644   5.977   5.539  0.2429  0.0027  0.2094
  119SOPE    C112538   5.621   5.893   5.421 -0.6528 -0.3835 -0.0197
  119SOPE    HA12539   5.603   5.967   5.340  2.6295  2.8058  1.8597
  119SOPE    HB12540   5.534   5.825   5.430 -1.2760  0.6079  1.9479
  119SOPE    C212541   5.743   5.813   5.377 -0.4709 -0.6754  0.4122
  119SOPE    HS12542   5.780   5.762   5.468 -0.5193 -0.4579  0.5554
  119SOPE   O2112543   5.841   5.902   5.318  0.6244 -0.6346 -0.3329
  119SOPE   C2112544   5.968   5.864   5.344 -0.0050  0.1283  0.0714
  119SOPE   O2212545   5.997   5.757   5.400  0.2300 -0.4262  0.1392
  119SOPE   C2212546   6.065   5.970   5.301 -0.2416 -0.1447  0.7679
  119SOPE   H2R12547   6.159   5.913   5.281 -0.7992 -1.0154  0.5562
  119SOPE   H2S12548   6.085   6.047   5.378  0.3999  1.5601 -1.0268
  119SOPE    C312549   5.698   5.693   5.288 -0.5856  0.3004  0.2454
  119SOPE    HX12550   5.622   5.642   5.351  0.6685 -0.5764  1.0945
  119SOPE    HY12551   5.790   5.632   5.273 -0.2799  0.8968 -0.3717
  119SOPE   O3112552   5.636   5.736   5.164 -0.0583  0.0160  0.4932
  119SOPE   C3112553   5.506   5.728   5.155 -0.4494  0.2889  0.2214
  119SOPE   O3212554   5.430   5.675   5.234 -0.0025  0.6099 -1.0331
  119SOPE   C3212555   5.455   5.789   5.021  0.3930  0.4489 -0.4006
  119SOPE   H2X12556   5.352   5.827   5.038  0.5380  0.7069 -0.1120
  119SOPE   H2Y12557   5.451   5.707   4.946  3.6568  1.1387 -1.4928
  119SOPE   C2312558   6.037   6.033   5.153  0.4422  0.0455 -0.0435
  119SOPE   H3R12559   5.985   5.959   5.088  1.6676  0.4176 -1.5027
  119SOPE   H3S12560   6.129   6.051   5.094  0.0049 -1.5308 -1.2884
  119SOPE   C2412561   5.961   6.170   5.168  0.1801  0.0234  0.5784
  119SOPE   H4R12562   5.859   6.148   5.206  0.2495  0.6534  1.1269
  119SOPE   H4S12563   6.012   6.241   5.236 -0.0725  0.5828  0.1923
  119SOPE   C2512564   5.944   6.236   5.028 -0.2701  0.4778 -1.0297
  119SOPE   H5R12565   5.896   6.157   4.966 -2.3421 -0.5719  1.7100
  119SOPE   H5S12566   5.881   6.326   5.045  1.7516  1.4543  1.9574
  119SOPE   C2612567   6.079   6.284   4.967 -0.4019 -0.4004 -0.1150
  119SOPE   H6R12568   6.133   6.342   5.045 -0.9134  1.4836 -1.0957
  119SOPE   H6S12569   6.136   6.195   4.933  1.1277  0.4769  0.0822
  119SOPE   C2712570   6.049   6.363   4.840  0.2233 -0.6564 -0.4450
  119SOPE   H7R12571   5.997   6.302   4.763  1.5308 -1.0368 -1.0485
  119SOPE   H7S12572   5.982   6.448   4.868  0.6023 -0.1539 -1.0293
  119SOPE   C2812573   6.176   6.414   4.773  0.6646  0.8815  0.0463
  119SOPE   H8R12574   6.240   6.467   4.845 -1.5016  3.1667  0.4489
  119SOPE   H8S12575   6.231   6.323   4.742  0.0490  0.7537 -0.7332
  119SOPE   C2912576   6.143   6.507   4.660 -0.1482 -0.7541  1.1603
  119SOPE   H9112577   6.162   6.614   4.679 -1.1649 -0.2434 -0.5317
  119SOPE  C21012578   6.120   6.463   4.533 -0.1432 -1.0842  0.8183
  119SOPE  H10112579   6.102   6.538   4.455  0.0904  0.2124  1.9819
  119SOPE  C21112580   6.109   6.319   4.497  0.9210 -0.2114 -0.5392
  119SOPE  H11R12581   6.147   6.249   4.574 -1.2663 -0.7788  0.1089
  119SOPE  H11S12582   6.177   6.291   4.414  1.4461 -2.1211  0.4994
  119SOPE  C21212583   5.964   6.279   4.462 -0.3115 -0.5414  0.6694
  119SOPE  H12R12584   5.937   6.283   4.355 -1.4027  0.3659  0.9651
  119SOPE  H12S12585   5.884   6.328   4.521  0.6968  2.1832 -0.0935
  119SOPE  C21312586   5.950   6.133   4.504 -0.1731 -0.2338 -0.4993
  119SOPE  H13R12587   5.961   6.125   4.614 -0.3334 -0.0091 -0.4664
  119SOPE  H13S12588   6.040   6.083   4.463  0.2804  0.0257  0.1606
  119SOPE  C21412589   5.826   6.055   4.471 -0.4497 -0.3175 -0.3562
  119SOPE  H14R12590   5.830   5.958   4.526 -1.9190  0.7096  1.7166
  119SOPE  H14S12591   5.829   6.036   4.362  1.7616  2.0652 -0.8141
  119SOPE  C21512592   5.694   6.122   4.505  0.4478 -0.2394 -0.5304
  119SOPE  H15R12593   5.691   6.218   4.449  0.3364  0.9132  1.3933
  119SOPE  H15S12594   5.689   6.153   4.611  0.5130  3.8197 -1.5321
  119SOPE  C21612595   5.570   6.044   4.470 -0.0853 -0.0444 -0.1403
  119SOPE  H16R12596   5.482   6.104   4.500  0.1791  0.9116 -1.2297
  119SOPE  H16S12597   5.561   5.951   4.530 -0.5660 -1.2785 -2.0399
  119SOPE  C21712598   5.550   6.014   4.323  0.0953  0.3559  0.5598
  119SOPE  H17R12599   5.487   5.922   4.320  1.0567 -0.2845 -1.9112
  119SOPE  H17S12600   5.634   5.971   4.264 -0.3554 -0.0038  0.1663
  119SOPE  C21812601   5.478   6.121   4.239  0.4941 -0.2721 -0.5024
  119SOPE  H18R12602   5.413   6.076   4.161 -0.5538 -3.2078  1.8606
  119SOPE  H18S12603   5.556   6.189   4.199 -0.0808 -0.0244 -1.2307
  119SOPE  H18T12604   5.408   6.187   4.295  1.5168  0.2164  0.2346
  119SOPE   C3312605   5.552   5.887   4.950  0.2522  0.4380 -0.0308
  119SOPE   H3X12606   5.549   5.867   4.841 -0.6951 -0.6985  0.1839
  119SOPE   H3Y12607   5.657   5.868   4.981 -0.7604 -0.8329  3.0204
  119SOPE   C3412608   5.513   6.026   4.974 -0.0574  0.1116 -0.2727
  119SOPE   H4X12609   5.498   6.042   5.082  3.4592  0.1486  0.3360
  119SOPE   H4Y12610   5.427   6.037   4.905  1.7003 -0.6337 -2.7542
  119SOPE   C3512611   5.618   6.124   4.925 -0.3358 -0.5015 -0.5770
  119SOPE   H5X12612   5.677   6.080   4.842  1.5923 -0.5936  0.7611
  119SOPE   H5Y12613   5.687   6.149   5.009  0.6742 -1.2890 -1.1559
  119SOPE   C3612614   5.550   6.243   4.854 -0.0001  0.3122  0.7446
  119SOPE   H6X12615   5.467   6.275   4.920  0.0568 -0.7812  1.3638
  119SOPE   H6Y12616   5.500   6.212   4.759  0.8275  1.1077  0.0334
  119SOPE   C3712617   5.654   6.351   4.831  0.3374 -0.7162  0.2479
  119SOPE   H7X12618   5.755   6.313   4.805  0.3871 -1.1646  1.0697
  119SOPE   H7Y12619   5.664   6.408   4.926 -1.7417  0.4301 -0.1657
  119SOPE   C3812620   5.621   6.461   4.726  0.0451  0.2251  0.7311
  119SOPE   H8X12621   5.519   6.497   4.752 -0.0972 -0.4053  1.0780
  119SOPE   H8Y12622   5.615   6.406   4.629 -1.8384  0.8896  0.4313
  119SOPE   C3912623   5.722   6.566   4.722 -1.1182 -0.4272 -0.7517
  119SOPE   H9X12624   5.826   6.527   4.720 -1.5206 -1.5411 -0.3379
  119SOPE   H9Y12625   5.719   6.614   4.822 -0.5623  0.1084 -0.9827
  119SOPE  C31012626   5.718   6.667   4.604  0.8819 -0.0432 -0.0161
  119SOPE  H10X12627   5.616   6.709   4.594  1.8142  2.0619 -1.3170
  119SOPE  H10Y12628   5.732   6.605   4.513 -1.8342 -0.4326 -0.2612
  119SOPE  C31112629   5.807   6.786   4.620  0.3685 -0.6253 -0.0071
  119SOPE  H11X12630   5.905   6.761   4.666  1.0802  1.4751 -0.2804
  119SOPE  H11Y12631   5.751   6.836   4.701  0.5714 -1.1441  0.4582
  119SOPE  C31212632   5.817   6.873   4.493  0.3383 -0.5018 -0.3730
  119SOPE  H12X12633   5.877   6.966   4.505  0.9706 -1.0171  0.6160
  119SOPE  H12Y12634   5.719   6.904   4.450  0.1932 -0.3829  0.0346
  119SOPE  C31312635   5.890   6.793   4.381 -0.2834  0.0060  0.0279
  119SOPE  H13X12636   5.867   6.857   4.294  2.1543  1.0805  0.0982
  119SOPE  H13Y12637   5.854   6.688   4.367 -0.3826 -0.1848  1.4792
  119SOPE  C31412638   6.036   6.800   4.395  0.0557 -0.4641 -0.2015
  119SOPE  H14X12639   6.067   6.744   4.486 -2.3784 -3.9372 -1.3316
  119SOPE  H14Y12640   6.062   6.907   4.410 -1.1447 -0.2850  0.7780
  119SOPE  C31512641   6.109   6.740   4.269  1.2338  0.4985 -0.0558
  119SOPE  H15X12642   6.094   6.631   4.275  0.9836  0.4657 -1.0652
  119SOPE  H15Y12643   6.216   6.763   4.292  0.3557  3.9531  1.3277
  119SOPE  C31612644   6.075   6.796   4.134  0.2163 -0.6026 -0.0469
  119SOPE  H16X12645   6.057   6.905   4.145  1.7486 -0.0492 -2.2279
  119SOPE  H16Y12646   5.979   6.756   4.095 -0.2310  0.1849  0.2344
  119SOPE  C31712647   6.177   6.788   4.014  0.3947 -0.3020  0.0328
  119SOPE  H17X12648   6.214   6.684   4.006  0.2117 -0.3339 -0.4053
  119SOPE  H17Y12649   6.265   6.850   4.042  1.3844 -2.6386  2.4821
  119SOPE  C31812650   6.126   6.838   3.878 -0.5407 -0.5777 -0.1773
  119SOPE  H18X12651   6.213   6.862   3.813 -0.5698  2.3384  0.7336
  119SOPE  H18Y12652   6.057   6.924   3.883  0.3512  0.0729  1.8560
  119SOPE  H18Z12653   6.078   6.746   3.837 -0.4073 -0.1740 -1.2709
  120SOPE     N12654   5.491   0.469   6.048  0.1122  0.2277  0.0514
  120SOPE   HN112655   5.591   0.468   6.017  0.1730  1.6495  0.1271
  120SOPE   HN212656   5.457   0.372   6.060  0.2822  0.0470 -0.9002
  120SOPE   HN312657   5.428   0.518   5.983 -1.1325 -0.0282  1.0279
  120SOPE   C1212658   5.495   0.551   6.175  0.1901  2.1268  0.1982
  120SOPE  H12A12659   5.474   0.475   6.254  0.8366  1.1207 -0.5803
  120SOPE  H12B12660   5.429   0.640   6.165 -0.6773  1.3851 -0.8575
  120SOPE   C1112661   5.645   0.603   6.201  0.0641  0.6589 -0.1977
  120SOPE  H11A12662   5.709   0.514   6.222  2.0605  1.9124 -0.7051
  120SOPE  H11B12663   5.640   0.669   6.290  1.6836  1.3215 -0.5658
  120SOPE     P12664   5.739   0.819   6.098 -0.1595 -0.3680  0.0843
  120SOPE   O1312665   5.844   0.841   6.196  0.1054  0.1864  0.0290
  120SOPE   O1412666   5.614   0.900   6.123  0.5764  0.2678 -0.2276
  120SOPE   O1212667   5.691   0.669   6.090 -0.3330 -0.5419  0.5188
  120SOPE   O1112668   5.802   0.861   5.954 -0.2797 -0.2182 -0.6588
  120SOPE    C112669   5.741   0.790   5.845  0.1330 -0.3642 -0.4839
  120SOPE    HA12670   5.632   0.811   5.848  0.1276 -0.4793  0.1982
  120SOPE    HB12671   5.758   0.680   5.847  3.6493  0.0892  1.3348
  120SOPE    C212672   5.771   0.834   5.706 -0.2662 -0.0149  0.9686
  120SOPE    HS12673   5.717   0.760   5.644 -1.4909  0.5050  1.3960
  120SOPE   O2112674   5.913   0.838   5.672 -0.0424 -0.2725 -0.8790
  120SOPE   C2112675   5.969   0.720   5.658  0.3327 -0.2060  0.8414
  120SOPE   O2212676   5.910   0.614   5.648 -0.5055  0.0869  0.1800
  120SOPE   C2212677   6.118   0.739   5.647 -0.1288  0.6562  0.7004
  120SOPE   H2R12678   6.161   0.641   5.616 -0.5196  0.4791  0.7117
  120SOPE   H2S12679   6.153   0.761   5.750 -0.1756  0.4975  0.7506
  120SOPE    C312680   5.722   0.978   5.677 -0.4446  0.3261  0.4352
  120SOPE    HX12681   5.795   1.057   5.708  2.2280 -1.1516 -1.6271
  120SOPE    HY12682   5.632   0.994   5.739 -0.8105  2.0099 -0.4732
  120SOPE   O3112683   5.699   1.005   5.536 -0.0004 -0.0046 -0.0092
  120SOPE   C3112684   5.588   0.952   5.482  0.3811 -0.2831  0.2439
  120SOPE   O3212685   5.520   0.864   5.540 -0.0760  0.4657 -0.2237
  120SOPE   C3212686   5.562   1.027   5.350  0.0950 -0.0281  0.0183
  120SOPE   H2X12687   5.664   1.048   5.311  0.5364 -3.1837 -0.7739
  120SOPE   H2Y12688   5.507   1.120   5.375  0.9901  0.1432  1.5154
  120SOPE   C2312689   6.166   0.852   5.548 -0.0476  0.0894 -0.0559
  120SOPE   H3R12690   6.275   0.831   5.548 -0.3308 -1.5390  0.1894
  120SOPE   H3S12691   6.146   0.939   5.614  0.8689 -0.9037  1.6430
  120SOPE   C2412692   6.091   0.847   5.415 -0.7500  0.4949  0.3853
  120SOPE   H4R12693   5.983   0.872   5.424  0.0326  5.3351 -0.7406
  120SOPE   H4S12694   6.139   0.921   5.347 -1.4930  0.1976 -0.4884
  120SOPE   C2512695   6.111   0.708   5.348  0.4334  0.1348 -0.4853
  120SOPE   H5R12696   6.218   0.680   5.354  0.5469  0.8807  1.6512
  120SOPE   H5S12697   6.072   0.621   5.406  0.4570  1.9227  2.4519
  120SOPE   C2612698   6.060   0.684   5.205 -0.4106 -0.2252 -0.2538
  120SOPE   H6R12699   6.098   0.585   5.173  4.6812  1.0862  0.8818
  120SOPE   H6S12700   5.950   0.695   5.197 -0.3961  0.0903 -0.0532
  120SOPE   C2712701   6.126   0.788   5.107 -0.1369  0.9244  0.4652
  120SOPE   H7R12702   6.070   0.881   5.133 -1.1390  0.5725 -0.3538
  120SOPE   H7S12703   6.234   0.808   5.122  0.2297  0.0285 -0.8261
  120SOPE   C2812704   6.093   0.769   4.963  0.0927  0.4896  0.1805
  120SOPE   H8R12705   5.992   0.723   4.956 -0.1499  1.1760 -1.4669
  120SOPE   H8S12706   6.082   0.869   4.915  0.7215 -0.0694 -1.2040
  120SOPE   C2912707   6.199   0.687   4.894 -0.6953 -0.2742  0.1315
  120SOPE   H9112708   6.228   0.596   4.949  1.5968  1.4606  1.9666
  120SOPE  C21012709   6.277   0.724   4.786  0.7873  0.3641 -0.1896
  120SOPE  H10112710   6.350   0.647   4.758 -1.5123 -1.0409 -2.8617
  120SOPE  C21112711   6.283   0.842   4.700 -0.1019 -0.4298 -0.0612
  120SOPE  H11R12712   6.389   0.874   4.700  0.0115 -0.8029  0.2545
  120SOPE  H11S12713   6.212   0.925   4.721 -1.2235 -1.4124  0.1477
  120SOPE  C21212714   6.259   0.811   4.547 -0.5675 -0.1129 -0.3392
  120SOPE  H12R12715   6.227   0.905   4.497  2.3237  0.9144 -0.4551
  120SOPE  H12S12716   6.177   0.737   4.538 -1.0017  0.3391 -0.2124
  120SOPE  C21312717   6.389   0.759   4.480 -0.2718  0.5715  0.4882
  120SOPE  H13R12718   6.383   0.649   4.497  0.8115  0.2698 -0.9216
  120SOPE  H13S12719   6.488   0.789   4.520 -0.3119 -0.7528  1.6478
  120SOPE  C21412720   6.398   0.791   4.331 -0.5334 -0.1736  0.3580
  120SOPE  H14R12721   6.389   0.901   4.318  0.8605 -0.1514 -0.7236
  120SOPE  H14S12722   6.305   0.755   4.282 -0.3860  1.4451 -1.2270
  120SOPE  C21512723   6.524   0.745   4.256  0.3171  0.5906  0.3452
  120SOPE  H15R12724   6.621   0.783   4.296  0.0711  1.5568  0.0486
  120SOPE  H15S12725   6.515   0.776   4.149 -1.6584  0.9827  0.5892
  120SOPE  C21612726   6.547   0.594   4.241 -0.1064  0.2183  0.2301
  120SOPE  H16R12727   6.574   0.546   4.337  2.5412 -0.3572 -0.7282
  120SOPE  H16S12728   6.635   0.582   4.174 -0.0216  1.2624  0.1326
  120SOPE  C21712729   6.432   0.511   4.186  0.0159  0.0161 -0.0706
  120SOPE  H17R12730   6.406   0.557   4.088 -2.0817 -2.7091 -0.9451
  120SOPE  H17S12731   6.337   0.513   4.245 -1.1197 -3.7264 -1.4801
  120SOPE  C21812732   6.469   0.363   4.156 -0.0957 -0.1918  0.1625
  120SOPE  H18R12733   6.503   0.311   4.248  1.2392 -0.1068 -0.2644
  120SOPE  H18S12734   6.543   0.356   4.074 -0.7031  3.6854 -0.8768
  120SOPE  H18T12735   6.379   0.310   4.118 -0.1768  0.4331 -0.5276
  120SOPE   C3312736   5.480   0.938   5.258  0.8235 -0.1038  0.5991
  120SOPE   H3X12737   5.452   0.999   5.170 -1.3996  0.9023  1.9178
  120SOPE   H3Y12738   5.388   0.903   5.310  0.5977 -0.9487 -0.3396
  120SOPE   C3412739   5.544   0.822   5.194  0.0010 -0.0301  0.2115
  120SOPE   H4X12740   5.470   0.764   5.135 -0.2412 -0.8561  1.2992
  120SOPE   H4Y12741   5.555   0.740   5.268  1.3282 -2.4924 -2.5146
  120SOPE   C3512742   5.674   0.843   5.116  0.7752 -1.0063 -0.5206
  120SOPE   H5X12743   5.720   0.746   5.090  2.9095 -0.3774  0.6547
  120SOPE   H5Y12744   5.754   0.899   5.170  0.3015 -0.2079 -0.6178
  120SOPE   C3612745   5.651   0.933   4.991 -0.3155 -0.3822  0.1023
  120SOPE   H6X12746   5.625   1.038   5.014 -0.3553 -0.1878 -0.8040
  120SOPE   H6Y12747   5.569   0.883   4.935 -1.1497 -0.6193  1.4983
  120SOPE   C3712748   5.770   0.937   4.897  0.1671 -0.0580  0.2719
  120SOPE   H7X12749   5.799   0.830   4.893  0.1754 -0.0162 -1.9954
  120SOPE   H7Y12750   5.853   0.987   4.950 -0.4723  0.8492  0.4446
  120SOPE   C3812751   5.751   0.981   4.749 -0.0507 -0.0412 -0.5658
  120SOPE   H8X12752   5.779   1.088   4.745 -1.1821  0.2978  0.1543
  120SOPE   H8Y12753   5.644   0.978   4.719 -0.1850  0.9012 -0.2052
  120SOPE   C3912754   5.845   0.895   4.660  0.1299 -0.4535  0.7051
  120SOPE   H9X12755   5.803   0.792   4.648  1.9756 -1.0330 -1.5120
  120SOPE   H9Y12756   5.938   0.870   4.715 -0.0611 -3.8082 -0.2352
  120SOPE  C31012757   5.866   0.959   4.519 -0.2337 -0.5881 -0.0043
  120SOPE  H10X12758   5.776   0.989   4.461  0.3836 -0.3351 -0.8551
  120SOPE  H10Y12759   5.917   0.877   4.464  0.2668  0.1787 -0.7108
  120SOPE  C31112760   5.961   1.082   4.519 -0.9175  0.7093 -0.6420
  120SOPE  H11X12761   6.037   1.072   4.599 -1.8676 -1.6468  0.0454
  120SOPE  H11Y12762   5.892   1.167   4.541 -0.5187  1.2156 -1.2988
  120SOPE  C31212763   6.021   1.117   4.381  0.3956  0.8592  0.1361
  120SOPE  H12X12764   5.936   1.119   4.310  0.0560 -1.2070  0.4221
  120SOPE  H12Y12765   6.089   1.034   4.353 -2.2573 -1.5720  0.4000
  120SOPE  C31312766   6.095   1.250   4.396  0.0542 -0.1202 -0.2126
  120SOPE  H13X12767   6.169   1.242   4.478 -0.9887 -0.4972  0.7051
  120SOPE  H13Y12768   6.033   1.338   4.422 -1.7465 -1.3795 -0.1152
  120SOPE  C31412769   6.187   1.284   4.278 -0.0254 -0.3271  0.5188
  120SOPE  H14X12770   6.183   1.195   4.212 -2.1368 -0.3555  0.6190
  120SOPE  H14Y12771   6.294   1.280   4.309  0.2380 -1.5775 -0.4529
  120SOPE  C31512772   6.142   1.409   4.199  0.4797 -0.6274  0.3109
  120SOPE  H15X12773   6.149   1.504   4.257 -1.5969  0.9126 -1.7600
  120SOPE  H15Y12774   6.039   1.394   4.162  1.4512 -1.4911 -2.2360
  120SOPE  C31612775   6.228   1.431   4.069  0.4898  0.6771 -0.4049
  120SOPE  H16X12776   6.288   1.347   4.028  0.8145  1.5443 -1.7525
  120SOPE  H16Y12777   6.311   1.501   4.092  0.8819  1.2608 -3.2429
  120SOPE  C31712778   6.142   1.476   3.958  0.4781 -0.2994  0.0061
  120SOPE  H17X12779   6.097   1.571   3.992 -0.4396  0.4570 -3.0254
  120SOPE  H17Y12780   6.051   1.413   3.947  0.1174 -0.1902  1.9688
  120SOPE  C31812781   6.212   1.485   3.827 -0.2293  0.0693 -0.1630
  120SOPE  H18X12782   6.145   1.528   3.750  0.7997  1.7298 -0.1848
  120SOPE  H18Y12783   6.247   1.384   3.794 -1.1620  0.5622 -2.9556
  120SOPE  H18Z12784   6.304   1.543   3.851  1.4745 -3.2741  2.1944
  121SOPE     N12785   5.487   6.264   5.845  0.1804  0.0816 -0.3817
  121SOPE   HN112786   5.503   6.344   5.780 -1.3716  1.8336  1.2351
  121SOPE   HN212787   5.529   6.179   5.802  0.2006 -0.9271  1.5419
  121SOPE   HN312788   5.383   6.253   5.845 -0.0238  1.5782  0.9753
  121SOPE   C1212789   5.513   6.286   5.990 -0.0120 -0.3175  0.3335
  121SOPE  H12A12790   5.623   6.273   6.001  0.1454 -0.6309 -1.3364
  121SOPE  H12B12791   5.462   6.207   6.049 -1.2159 -1.6090 -2.2852
  121SOPE   C1112792   5.483   6.426   6.047  0.5382 -0.3378  0.1125
  121SOPE  H11A12793   5.516   6.438   6.153 -1.0699 -0.4027  0.6597
  121SOPE  H11B12794   5.373   6.444   6.049  0.6215  0.1183  1.0059
  121SOPE     P12795   5.656   6.611   5.994 -0.1933 -0.2825  0.2066
  121SOPE   O1312796   5.770   6.515   6.014 -0.3893  0.8420  0.5713
  121SOPE   O1412797   5.621   6.693   6.116  0.3463  0.0196  0.1908
  121SOPE   O1212798   5.543   6.521   5.957  0.0344 -0.2034  0.4338
  121SOPE   O1112799   5.698   6.708   5.870 -0.2382 -0.1414 -0.2762
  121SOPE    C112800   5.607   6.793   5.809 -0.3945 -0.8313 -0.1926
  121SOPE    HA12801   5.661   6.878   5.763 -2.2077  1.5162  1.7291
  121SOPE    HB12802   5.538   6.840   5.882  0.0007  2.2253 -1.6292
  121SOPE    C212803   5.536   6.724   5.688 -0.3901  0.5517  0.4017
  121SOPE    HS12804   5.464   6.646   5.719 -1.7742  0.4816 -2.6834
  121SOPE   O2112805   5.639   6.667   5.604 -0.0161 -0.3668 -0.9903
  121SOPE   C2112806   5.657   6.539   5.624 -0.4041 -0.1770 -0.0696
  121SOPE   O2212807   5.603   6.469   5.707 -0.1420  0.1706 -0.2026
  121SOPE   C2212808   5.760   6.482   5.530 -1.0623 -0.6358  0.1121
  121SOPE   H2R12809   5.749   6.371   5.537 -0.5114 -0.7101 -0.1516
  121SOPE   H2S12810   5.863   6.496   5.570 -1.3818 -0.6388  0.9553
  121SOPE    C312811   5.457   6.840   5.611 -0.3390  0.3566  0.2841
  121SOPE    HX12812   5.523   6.929   5.609 -0.0905  0.2455  2.0325
  121SOPE    HY12813   5.364   6.859   5.669 -0.3964 -0.2780  0.4126
  121SOPE   O3112814   5.413   6.796   5.473  0.5391 -0.2293 -0.0578
  121SOPE   C3112815   5.502   6.817   5.381  0.1291 -0.4889  0.0133
  121SOPE   O3212816   5.613   6.869   5.394 -0.1023  0.4854  0.0225
  121SOPE   C3212817   5.441   6.782   5.247 -0.9480  0.1819  0.6154
  121SOPE   H2X12818   5.376   6.866   5.214 -1.5046 -1.1160 -1.8261
  121SOPE   H2Y12819   5.375   6.693   5.253 -1.7264  0.7214  0.2006
  121SOPE   C2312820   5.751   6.526   5.386  0.4810 -0.4513 -0.7161
  121SOPE   H3R12821   5.751   6.636   5.379 -0.1717 -0.3407  0.6852
  121SOPE   H3S12822   5.669   6.473   5.332 -1.2144  1.5849 -0.2556
  121SOPE   C2412823   5.885   6.503   5.309  0.2883  0.1483 -0.7230
  121SOPE   H4R12824   5.969   6.550   5.364  0.5404  0.1203 -1.0799
  121SOPE   H4S12825   5.899   6.393   5.299 -2.7423 -0.3189 -0.9341
  121SOPE   C2512826   5.881   6.563   5.170  0.4347 -0.0019 -0.1251
  121SOPE   H5R12827   5.962   6.504   5.123  1.9817  0.1936  2.1231
  121SOPE   H5S12828   5.795   6.530   5.109 -0.8774  1.0381  1.0841
  121SOPE   C2612829   5.916   6.712   5.151 -0.1068 -0.1140 -0.0629
  121SOPE   H6R12830   5.843   6.770   5.211  0.3142 -0.6906  1.0413
  121SOPE   H6S12831   6.015   6.714   5.201 -1.0086 -0.4489  1.8473
  121SOPE   C2712832   5.921   6.748   5.008 -0.0328 -0.1921  0.9608
  121SOPE   H7R12833   6.005   6.694   4.960 -0.6250 -0.2971 -0.0071
  121SOPE   H7S12834   5.829   6.729   4.947 -0.2102  0.7845  0.9019
  121SOPE   C2812835   5.956   6.902   4.979  0.7235 -0.4741 -0.3462
  121SOPE   H8R12836   6.048   6.914   5.039 -0.0999  1.0826  0.6793
  121SOPE   H8S12837   5.983   6.920   4.873 -1.1562 -0.9700 -0.9652
  121SOPE   C2912838   5.858   7.006   5.027 -0.3165 -0.4326 -0.1942
  121SOPE   H9112839   5.805   6.970   5.117 -0.5823  0.6951  0.1191
  121SOPE  C21012840   5.855   7.139   4.990  0.1872 -0.2679 -0.1646
  121SOPE  H10112841   5.774   7.203   5.027  2.5446  2.8018  0.1559
  121SOPE  C21112842   5.954   7.212   4.899 -0.1832  0.7247 -0.3337
  121SOPE  H11R12843   6.048   7.154   4.886 -0.7749 -0.7697  1.5844
  121SOPE  H11S12844   5.977   7.307   4.951 -0.4434  0.5070  0.1865
  121SOPE  C21212845   5.906   7.235   4.759  0.0820  0.0758  0.5304
  121SOPE  H12R12846   5.822   7.307   4.762  0.2934  0.5651 -2.3817
  121SOPE  H12S12847   5.872   7.140   4.712  1.4404 -0.9832  1.6147
  121SOPE  C21312848   6.016   7.290   4.676 -0.4275  0.4822  0.5309
  121SOPE  H13R12849   6.117   7.248   4.693 -0.4907  1.3768  3.6750
  121SOPE  H13S12850   6.027   7.399   4.697 -2.8590  0.5768  1.6618
  121SOPE  C21412851   5.988   7.276   4.527  0.7799 -0.1776  0.3217
  121SOPE  H14R12852   5.995   7.169   4.499  0.8056 -0.5953  1.8379
  121SOPE  H14S12853   6.074   7.328   4.479  0.7822  0.0328  0.5522
  121SOPE  C21512854   5.849   7.323   4.489 -0.8257  0.5628 -0.0295
  121SOPE  H15R12855   5.839   7.432   4.507  0.2196  0.9165 -1.4503
  121SOPE  H15S12856   5.770   7.268   4.544 -0.7517 -1.1768 -1.5947
  121SOPE  C21612857   5.832   7.299   4.333 -0.1853  0.3236 -0.6550
  121SOPE  H16R12858   5.869   7.199   4.303  0.7678  0.3088  0.4946
  121SOPE  H16S12859   5.898   7.372   4.282 -0.3435  0.4196 -0.7234
  121SOPE  C21712860   5.687   7.337   4.277  0.8611 -0.0949 -0.0974
  121SOPE  H17R12861   5.697   7.339   4.166  0.8744 -2.1198 -0.1695
  121SOPE  H17S12862   5.664   7.441   4.311 -0.0015  0.1235 -1.2608
  121SOPE  C21812863   5.581   7.239   4.324  0.1485 -0.2495 -0.4668
  121SOPE  H18R12864   5.567   7.221   4.433 -1.3067 -1.8431 -0.8845
  121SOPE  H18S12865   5.611   7.138   4.291 -0.1133  0.2157 -2.2353
  121SOPE  H18T12866   5.483   7.255   4.275  0.0791 -1.7951 -0.8783
  121SOPE   C3312867   5.554   6.767   5.138  0.5260  0.4533 -0.3703
  121SOPE   H3X12868   5.628   6.692   5.173  1.9585  1.6175 -0.8105
  121SOPE   H3Y12869   5.607   6.857   5.099  1.2283 -0.5679 -1.9015
  121SOPE   C3412870   5.483   6.718   5.012 -0.1619  0.4660  0.3194
  121SOPE   H4X12871   5.408   6.639   5.036  0.2115 -0.4946 -1.4783
  121SOPE   H4Y12872   5.553   6.671   4.939  0.3222  0.3090  0.8821
  121SOPE   C3512873   5.407   6.831   4.931 -0.1064 -0.5750 -0.2765
  121SOPE   H5X12874   5.334   6.876   5.002  1.6481 -0.3087  1.4647
  121SOPE   H5Y12875   5.344   6.785   4.852 -1.9404 -0.2609  0.9248
  121SOPE   C3612876   5.490   6.952   4.873 -0.5235  0.0047  0.3337
  121SOPE   H6X12877   5.551   6.901   4.796  0.1088  0.0695  0.7819
  121SOPE   H6Y12878   5.560   6.999   4.946  1.2719 -1.0271 -0.6469
  121SOPE   C3712879   5.403   7.062   4.805  0.2945  0.1158  0.4865
  121SOPE   H7X12880   5.341   7.110   4.884  1.3993 -0.3363  1.6624
  121SOPE   H7Y12881   5.338   7.014   4.729 -1.2359  1.3239  0.9861
  121SOPE   C3812882   5.485   7.166   4.731 -0.4889 -0.6340 -0.2723
  121SOPE   H8X12883   5.535   7.101   4.655 -2.2261 -0.0990 -1.9553
  121SOPE   H8Y12884   5.557   7.208   4.804 -1.5449  0.4073  0.1857
  121SOPE   C3912885   5.400   7.275   4.667 -0.5106 -0.0297 -0.2719
  121SOPE   H9X12886   5.451   7.347   4.599 -0.4616  0.5763  0.3980
  121SOPE   H9Y12887   5.342   7.323   4.749 -0.2600  0.2599 -0.2593
  121SOPE  C31012888   5.289   7.219   4.570 -0.5280  0.0020  0.0718
  121SOPE  H10X12889   5.197   7.199   4.630 -0.3027  2.1302  1.2331
  121SOPE  H10Y12890   5.320   7.127   4.518 -2.3974  0.3220 -1.7525
  121SOPE  C31112891   5.249   7.320   4.466  0.0227 -0.2170  0.6189
  121SOPE  H11X12892   5.341   7.363   4.422 -0.2631 -2.2156 -2.1887
  121SOPE  H11Y12893   5.207   7.410   4.517  0.4434 -0.3776  1.2549
  121SOPE  C31212894   5.144   7.261   4.371  0.8931 -0.6900  0.1289
  121SOPE  H12X12895   5.052   7.238   4.429 -1.4274 -1.1424 -3.4575
  121SOPE  H12Y12896   5.180   7.167   4.323  0.5548  0.3179 -2.2177
  121SOPE  C31312897   5.097   7.352   4.254  0.5939 -0.0157 -0.7385
  121SOPE  H13X12898   5.039   7.437   4.296  1.6903  0.2621  0.2423
  121SOPE  H13Y12899   5.027   7.310   4.179  0.7104  0.5724 -1.1772
  121SOPE  C31412900   5.211   7.392   4.162  0.4787 -0.1288 -0.1269
  121SOPE  H14X12901   5.281   7.444   4.231 -0.5557  1.5859 -0.3160
  121SOPE  H14Y12902   5.182   7.463   4.082  0.7752 -0.6138 -0.6699
  121SOPE  C31512903   5.278   7.268   4.094  0.0933 -0.3100  0.1250
  121SOPE  H15X12904   5.211   7.223   4.017 -1.9293 -1.6104  2.4853
  121SOPE  H15Y12905   5.306   7.194   4.172 -1.2429  0.9680  1.9195
  121SOPE  C31612906   5.400   7.315   4.013 -0.2968  0.4104  0.0715
  121SOPE  H16X12907   5.480   7.366   4.070  1.4132  0.6076 -2.3650
  121SOPE  H16Y12908   5.363   7.399   3.949 -0.4505 -0.2254 -0.6952
  121SOPE  C31712909   5.475   7.201   3.936 -0.6221  0.3330  0.6175
  121SOPE  H17X12910   5.399   7.153   3.870 -2.1201  1.9989  1.0682
  121SOPE  H17Y12911   5.505   7.114   3.998  1.3795 -0.6332 -1.5505
  121SOPE  C31812912   5.596   7.255   3.857 -0.1388  0.0542  0.2339
  121SOPE  H18X12913   5.654   7.321   3.924  1.0853 -1.4853  0.7676
  121SOPE  H18Y12914   5.559   7.319   3.774  0.7810 -0.3840 -0.5440
  121SOPE  H18Z12915   5.649   7.168   3.811 -1.1408 -0.3933 -0.1127
  122SOPE     N12916   6.856   7.067   5.840  0.8850  0.2108  0.4483
  122SOPE   HN112917   6.842   7.147   5.906 -1.3950  1.4876 -1.4324
  122SOPE   HN212918   6.920   7.004   5.893  1.0720 -0.0660 -0.1013
  122SOPE   HN312919   6.904   7.108   5.758  0.4478 -0.3594 -0.1036
  122SOPE   C1212920   6.717   7.011   5.806 -0.5394 -0.9458 -0.2939
  122SOPE  H12A12921   6.719   6.914   5.752 -0.8207 -1.3055  0.3296
  122SOPE  H12B12922   6.670   7.086   5.739  0.2521 -1.2036 -1.1625
  122SOPE   C1112923   6.647   6.999   5.942 -0.1678  0.0491 -0.3069
  122SOPE  H11A12924   6.712   6.950   6.017  0.1503  0.7220 -0.1366
  122SOPE  H11B12925   6.554   6.941   5.931 -1.4192  2.2554 -2.2749
  122SOPE     P12926   6.484   7.160   6.060 -0.0324  0.0593 -0.2374
  122SOPE   O1312927   6.500   7.271   6.159  0.0553  0.0408 -0.2235
  122SOPE   O1412928   6.422   7.038   6.124 -0.0209  0.3803  0.3874
  122SOPE   O1212929   6.625   7.129   5.989  0.1577  0.5800 -0.1709
  122SOPE   O1112930   6.392   7.209   5.934 -0.4286 -0.2303  0.2672
  122SOPE    C112931   6.440   7.319   5.853 -0.2779 -0.7990 -1.0542
  122SOPE    HA12932   6.550   7.323   5.842 -0.2406 -0.0397 -0.4927
  122SOPE    HB12933   6.395   7.411   5.899  1.0554  0.0368 -1.3789
  122SOPE    C212934   6.380   7.308   5.713 -0.0139 -1.0900 -0.7274
  122SOPE    HS12935   6.271   7.296   5.732 -0.6191  1.8524 -1.6917
  122SOPE   O2112936   6.448   7.195   5.655  0.2664  0.4086  0.0936
  122SOPE   C2112937   6.378   7.128   5.563  0.3362 -0.9671  0.5850
  122SOPE   O2212938   6.266   7.150   5.533  1.3523  0.1713 -1.0898
  122SOPE   C2212939   6.473   7.027   5.502 -0.0979 -0.1886 -0.3205
  122SOPE   H2R12940   6.455   6.936   5.563  2.1674  0.0610  0.8551
  122SOPE   H2S12941   6.577   7.049   5.535  0.2054 -1.9352 -0.0267
  122SOPE    C312942   6.409   7.437   5.628 -0.3914  0.0234  0.7549
  122SOPE    HX12943   6.518   7.449   5.610 -0.3106  2.1076  2.2125
  122SOPE    HY12944   6.388   7.524   5.694 -1.7632 -1.8139  2.8803
  122SOPE   O3112945   6.343   7.453   5.499  0.1145  0.0157  0.1279
  122SOPE   C3112946   6.209   7.458   5.491  0.7730 -0.9366  0.5516
  122SOPE   O3212947   6.129   7.469   5.582  0.6548  0.6616 -0.7669
  122SOPE   C3212948   6.176   7.476   5.344  0.1665  1.3415 -0.9044
  122SOPE   H2X12949   6.195   7.383   5.287  3.9191  1.9700 -0.9159
  122SOPE   H2Y12950   6.244   7.554   5.304  3.0252  0.4790  1.8885
  122SOPE   C2312951   6.459   7.006   5.351 -0.3486 -0.1684 -0.3460
  122SOPE   H3R12952   6.353   6.987   5.327 -0.5520  1.2385 -0.6316
  122SOPE   H3S12953   6.523   6.920   5.322  0.8979  0.9390 -1.0205
  122SOPE   C2412954   6.495   7.129   5.263  0.3826 -0.1666 -0.0818
  122SOPE   H4R12955   6.423   7.209   5.290  1.1254  0.9918 -1.4082
  122SOPE   H4S12956   6.600   7.163   5.270  0.0305  0.7386  1.3485
  122SOPE   C2512957   6.458   7.101   5.114  0.4032 -0.3910  0.1432
  122SOPE   H5R12958   6.513   7.008   5.088 -0.8531 -1.2110  0.3445
  122SOPE   H5S12959   6.348   7.085   5.112  0.1359  1.3182 -1.5995
  122SOPE   C2612960   6.487   7.211   5.020 -0.1895 -0.5151  0.6901
  122SOPE   H6R12961   6.595   7.235   5.037 -0.2246  1.8773 -1.7353
  122SOPE   H6S12962   6.476   7.175   4.916 -1.7614  0.6732  0.4214
  122SOPE   C2712963   6.402   7.331   5.053  0.5257  0.0101  0.2835
  122SOPE   H7R12964   6.294   7.305   5.049  1.1857 -3.2551  1.1818
  122SOPE   H7S12965   6.412   7.367   5.158 -0.2077 -0.4083  0.5058
  122SOPE   C2812966   6.418   7.456   4.965 -0.0725  0.2324 -0.2580
  122SOPE   H8R12967   6.524   7.475   4.937  0.3069  0.6901  1.3655
  122SOPE   H8S12968   6.358   7.442   4.873  4.0208 -1.8059 -2.9454
  122SOPE   C2912969   6.377   7.571   5.048 -0.4669  0.1844  0.0986
  122SOPE   H9112970   6.269   7.587   5.062 -0.2955 -0.3225  2.6678
  122SOPE  C21012971   6.455   7.666   5.093 -0.2618  0.3724 -0.8387
  122SOPE  H10112972   6.408   7.750   5.145 -0.3888  0.9100 -1.7967
  122SOPE  C21112973   6.612   7.695   5.080  0.3393  1.0104  0.3704
  122SOPE  H11R12974   6.650   7.792   5.116 -0.4174  2.5055 -2.5530
  122SOPE  H11S12975   6.632   7.693   4.970 -1.9464 -0.8815 -0.0994
  122SOPE  C21212976   6.700   7.584   5.139 -0.1468  0.0208  0.7025
  122SOPE  H12R12977   6.679   7.484   5.095 -1.8843  0.0758  1.3191
  122SOPE  H12S12978   6.676   7.589   5.247  1.2844  1.7915  0.9861
  122SOPE  C21312979   6.849   7.608   5.120  0.2054 -0.7574 -0.5251
  122SOPE  H13R12980   6.873   7.704   5.170  1.8962 -0.4782 -1.8313
  122SOPE  H13S12981   6.852   7.640   5.014  0.6674  0.5386 -0.1398
  122SOPE  C21412982   6.945   7.491   5.152 -0.3256 -0.1486  0.2142
  122SOPE  H14R12983   6.933   7.396   5.096 -0.6602  0.1290 -0.1942
  122SOPE  H14S12984   6.945   7.473   5.262 -0.0562 -3.3056 -0.2108
  122SOPE  C21512985   7.096   7.533   5.129 -0.3111 -0.3418  0.0400
  122SOPE  H15R12986   7.163   7.468   5.189  1.1104 -0.0925 -1.2088
  122SOPE  H15S12987   7.110   7.639   5.160 -0.1680 -0.3765  0.0947
  122SOPE  C21612988   7.143   7.514   4.985 -0.0416 -0.6442 -0.2163
  122SOPE  H16R12989   7.084   7.568   4.907  1.6340  0.5605 -0.6927
  122SOPE  H16S12990   7.127   7.407   4.960 -1.0277 -0.6414  0.3686
  122SOPE  C21712991   7.292   7.557   4.962  0.6465  0.0593  0.1177
  122SOPE  H17R12992   7.366   7.498   5.021  1.9045  0.1661 -1.2908
  122SOPE  H17S12993   7.290   7.663   4.994 -1.8237  0.4552 -1.1630
  122SOPE  C21812994   7.340   7.558   4.821 -0.7761  0.5163  0.5097
  122SOPE  H18R12995   7.365   7.456   4.784 -0.4058  1.0388 -0.7432
  122SOPE  H18S12996   7.432   7.620   4.817 -1.5527  1.8730  2.2103
  122SOPE  H18T12997   7.265   7.599   4.750 -1.7646  0.0301  1.2568
  122SOPE   C3312998   6.024   7.502   5.332  0.0014 -0.8238 -0.4138
  122SOPE   H3X12999   5.992   7.590   5.392 -2.3571 -1.5095 -0.5541
  122SOPE   H3Y13000   5.965   7.417   5.373 -1.6082  0.7914  0.8315
  122SOPE   C3413001   5.976   7.536   5.195 -0.1078  0.2338  0.1757
  122SOPE   H4X13002   5.983   7.442   5.136  1.2620  1.7846 -2.2882
  122SOPE   H4Y13003   6.035   7.617   5.147  1.7704 -0.6297  0.9231
  122SOPE   C3513004   5.828   7.579   5.195 -0.2320 -0.2382  0.1285
  122SOPE   H5X13005   5.821   7.671   5.257  0.8724  1.3868 -2.0099
  122SOPE   H5Y13006   5.765   7.501   5.242  1.5361 -1.4647  0.5580
  122SOPE   C3613007   5.793   7.605   5.043  0.2813 -0.0286  0.1076
  122SOPE   H6X13008   5.819   7.520   4.976 -0.9802  1.0200 -1.8165
  122SOPE   H6Y13009   5.856   7.684   4.997  2.3312 -1.6627 -0.0160
  122SOPE   C3713010   5.644   7.635   5.016  0.3066  0.8982 -0.1893
  122SOPE   H7X13011   5.624   7.733   5.065 -1.0640  0.4912  0.0933
  122SOPE   H7Y13012   5.574   7.566   5.068  0.1286  0.0699 -1.4850
  122SOPE   C3813013   5.616   7.641   4.865 -0.3166  0.4973 -0.6751
  122SOPE   H8X13014   5.655   7.546   4.822 -1.0915  0.3940 -1.1726
  122SOPE   H8Y13015   5.672   7.727   4.823  1.6526  0.6331  1.9447
  122SOPE   C3913016   5.471   7.654   4.834 -0.0103 -0.5648 -0.7768
  122SOPE   H9X13017   5.422   7.741   4.882  2.5767 -0.4423  1.9519
  122SOPE   H9Y13018   5.435   7.557   4.874  0.8869 -0.9227 -0.7960
  122SOPE  C31013019   5.436   7.641   4.681  0.4330  0.8249 -1.1748
  122SOPE  H10X13020   5.325   7.637   4.679  0.4547 -3.1984 -2.3792
  122SOPE  H10Y13021   5.487   7.552   4.639 -1.1235 -1.5192  1.5452
  122SOPE  C31113022   5.459   7.780   4.619 -0.5733  0.0161  0.2972
  122SOPE  H11X13023   5.568   7.801   4.611 -0.0285 -1.9912  1.7730
  122SOPE  H11Y13024   5.417   7.861   4.682 -0.8602  1.0622 -1.1774
  122SOPE  C31213025   5.394   7.791   4.478  0.7928  0.5264 -0.0918
  122SOPE  H12X13026   5.394   7.899   4.450  0.3411  0.9099  1.3234
  122SOPE  H12Y13027   5.288   7.758   4.479  0.2611  2.1472 -0.2945
  122SOPE  C31313028   5.478   7.725   4.367 -0.3560 -0.1486 -0.1401
  122SOPE  H13X13029   5.508   7.624   4.401  0.3288 -0.0742 -0.5157
  122SOPE  H13Y13030   5.579   7.770   4.360 -0.1165 -0.7945 -1.1351
  122SOPE  C31413031   5.433   7.725   4.219 -0.1200 -0.3330  0.0663
  122SOPE  H14X13032   5.420   7.832   4.192  1.4835  0.4607  2.1336
  122SOPE  H14Y13033   5.339   7.670   4.197 -0.2169 -0.5686  1.0370
  122SOPE  C31513034   5.549   7.670   4.131  0.2199 -0.4991 -0.4339
  122SOPE  H15X13035   5.546   7.562   4.156 -1.7468 -0.4551 -0.3285
  122SOPE  H15Y13036   5.648   7.705   4.167 -0.1250 -0.8685  0.9327
  122SOPE  C31613037   5.516   7.692   3.986  0.6400 -1.4095 -0.4131
  122SOPE  H16X13038   5.408   7.711   3.973  1.1691  1.1753 -1.7785
  122SOPE  H16Y13039   5.544   7.602   3.927  1.5402  0.8889 -3.8067
  122SOPE  C31713040   5.590   7.814   3.921 -0.0762  0.7551 -0.5682
  122SOPE  H17X13041   5.701   7.805   3.918 -0.2357 -1.7104 -1.6679
  122SOPE  H17Y13042   5.565   7.896   3.991 -0.3102 -0.9696  1.4835
  122SOPE  C31813043   5.550   7.827   3.777 -0.5844  0.6577 -0.4760
  122SOPE  H18X13044   5.610   7.905   3.724  2.4958 -2.1770 -1.4972
  122SOPE  H18Y13045   5.443   7.857   3.766 -0.5104  0.4051 -2.2561
  122SOPE  H18Z13046   5.556   7.738   3.710  3.1710  0.8186 -0.5796
  123SOPE     N13047   3.553   1.878   1.463  0.0368 -0.0428 -0.2523
  123SOPE   HN113048   3.588   1.959   1.519 -1.4615  0.6495 -0.2657
  123SOPE   HN213049   3.579   1.887   1.363 -0.1039  0.8195 -0.2182
  123SOPE   HN313050   3.450   1.866   1.471  0.0344 -0.3238 -0.6600
  123SOPE   C1213051   3.617   1.757   1.527 -0.1164  1.3595  0.2196
  123SOPE  H12A13052   3.727   1.761   1.516 -0.2779  1.6339 -1.5016
  123SOPE  H12B13053   3.584   1.668   1.469 -0.3083 -0.0571  2.3867
  123SOPE   C1113054   3.579   1.747   1.676  0.2346  0.3927  0.4415
  123SOPE  H11A13055   3.635   1.828   1.728 -0.2771 -0.0693  1.7391
  123SOPE  H11B13056   3.617   1.654   1.724 -2.1450 -0.4831  0.7259
  123SOPE     P13057   3.350   1.642   1.740  0.5012 -0.0173 -0.3539
  123SOPE   O1313058   3.377   1.529   1.656  0.4957  0.1560 -0.3233
  123SOPE   O1413059   3.210   1.685   1.759 -1.0501 -0.0077 -0.0653
  123SOPE   O1213060   3.433   1.762   1.693  0.3860  0.2081 -0.7133
  123SOPE   O1113061   3.412   1.618   1.885 -0.4790 -0.2311  0.1788
  123SOPE    C113062   3.380   1.706   1.993 -0.0912  0.0674  0.1243
  123SOPE    HA13063   3.278   1.686   2.030  0.3551 -1.0674  0.7975
  123SOPE    HB13064   3.384   1.811   1.955  0.1605 -1.4235 -4.6582
  123SOPE    C213065   3.482   1.694   2.113  0.7232 -0.3827 -0.0293
  123SOPE    HS13066   3.462   1.593   2.154 -1.3710  0.7490  2.0022
  123SOPE   O2113067   3.452   1.790   2.214 -0.4163 -0.2586 -0.1722
  123SOPE   C2113068   3.500   1.769   2.341  0.0671 -0.9545  0.2333
  123SOPE   O2213069   3.552   1.672   2.381 -0.1842 -0.6824 -0.0094
  123SOPE   C2213070   3.490   1.905   2.420  0.3414  0.9304  0.5579
  123SOPE   H2R13071   3.380   1.923   2.428  0.2602  1.0715 -0.6735
  123SOPE   H2S13072   3.532   1.984   2.355  0.9952 -0.0614 -0.2456
  123SOPE    C313073   3.631   1.690   2.062  0.3633  0.7843 -0.6882
  123SOPE    HX13074   3.652   1.796   2.037  0.9517  0.9660  0.5226
  123SOPE    HY13075   3.632   1.637   1.963 -1.3286  1.1045 -0.9150
  123SOPE   O3113076   3.734   1.651   2.160 -0.7033  0.0453 -0.3613
  123SOPE   C3113077   3.743   1.520   2.185 -0.5853  0.3112 -0.4205
  123SOPE   O3213078   3.671   1.435   2.136 -0.8649 -0.1028 -0.0201
  123SOPE   C3213079   3.865   1.474   2.265 -0.0214 -0.1060  0.1378
  123SOPE   H2X13080   3.918   1.395   2.209 -0.7618  0.4223 -1.3538
  123SOPE   H2Y13081   3.816   1.430   2.355  0.0340 -0.0103  0.2166
  123SOPE   C2313082   3.580   1.900   2.549 -0.1373 -0.1687  0.4848
  123SOPE   H3R13083   3.647   1.986   2.530 -0.6405 -0.0426 -0.8187
  123SOPE   H3S13084   3.643   1.811   2.569  1.5769  0.8010 -0.4263
  123SOPE   C2413085   3.492   1.926   2.670  0.5547  0.3776  0.3453
  123SOPE   H4R13086   3.429   2.010   2.633 -1.8009 -1.9763 -1.4262
  123SOPE   H4S13087   3.418   1.845   2.690 -0.3759  1.3107  0.8146
  123SOPE   C2513088   3.561   1.950   2.800 -0.5906  0.2278 -0.3948
  123SOPE   H5R13089   3.652   2.010   2.783  0.4122 -0.6431  1.5245
  123SOPE   H5S13090   3.506   2.003   2.882  0.8320 -0.0809  0.7907
  123SOPE   C2613091   3.590   1.811   2.866 -0.0601  0.4526  0.5785
  123SOPE   H6R13092   3.499   1.748   2.863  0.8790 -0.9303 -0.7450
  123SOPE   H6S13093   3.670   1.747   2.822 -0.6479 -0.9442  1.4524
  123SOPE   C2713094   3.636   1.817   3.017 -0.0524  0.1613  0.4090
  123SOPE   H7R13095   3.713   1.896   3.016 -1.0769  1.2260  1.7679
  123SOPE   H7S13096   3.555   1.862   3.079 -0.7517 -0.5192  0.0074
  123SOPE   C2813097   3.682   1.681   3.070 -0.3552 -0.9495 -0.0316
  123SOPE   H8R13098   3.774   1.659   3.012  0.2425 -1.6544  1.1493
  123SOPE   H8S13099   3.710   1.699   3.176 -0.0399 -0.7512 -0.1442
  123SOPE   C2913100   3.580   1.580   3.064 -0.6110  0.4955 -0.1973
  123SOPE   H9113101   3.493   1.612   3.124  1.0996  1.5538  1.8210
  123SOPE  C21013102   3.590   1.455   3.017 -0.2015 -0.3740  0.4595
  123SOPE  H10113103   3.508   1.382   3.024 -0.8433  0.3163  0.2363
  123SOPE  C21113104   3.715   1.399   2.947 -0.1304  0.8248  0.5008
  123SOPE  H11R13105   3.732   1.290   2.964  1.8157  1.2351  1.3381
  123SOPE  H11S13106   3.805   1.446   2.991  0.0866  0.9584 -0.0717
  123SOPE  C21213107   3.706   1.425   2.789 -0.5263  0.4696 -0.3217
  123SOPE  H12R13108   3.792   1.359   2.764  0.9874  1.6286  1.5292
  123SOPE  H12S13109   3.741   1.524   2.754  3.7898 -1.0961 -1.0520
  123SOPE  C21313110   3.577   1.371   2.725  0.1767 -0.6134  0.7895
  123SOPE  H13R13111   3.497   1.445   2.747  0.5837  0.4572 -1.0816
  123SOPE  H13S13112   3.536   1.271   2.751 -2.3570 -0.0939 -0.8510
  123SOPE  C21413113   3.578   1.373   2.572  0.4549  0.3405 -0.1046
  123SOPE  H14R13114   3.663   1.316   2.527  0.5878  1.6240 -1.5398
  123SOPE  H14S13115   3.596   1.478   2.540  0.7228  0.2258 -0.3411
  123SOPE  C21513116   3.452   1.316   2.511  0.3915  1.5799 -0.0543
  123SOPE  H15R13117   3.360   1.373   2.534 -0.8655 -0.4707  0.2312
  123SOPE  H15S13118   3.443   1.209   2.538  2.7030  1.0637 -1.0323
  123SOPE  C21613119   3.455   1.312   2.357  0.9565 -0.3653  0.0461
  123SOPE  H16R13120   3.547   1.265   2.317 -0.2043 -0.5015 -2.7626
  123SOPE  H16S13121   3.447   1.418   2.323  1.2940 -0.1299  0.6916
  123SOPE  C21713122   3.336   1.230   2.294 -0.1106 -0.2647  0.5392
  123SOPE  H17R13123   3.334   1.229   2.183 -1.3095 -4.3798  0.4576
  123SOPE  H17S13124   3.241   1.263   2.341 -1.0195 -2.3759  0.2687
  123SOPE  C21813125   3.341   1.080   2.315 -0.2848 -0.0363 -0.3791
  123SOPE  H18R13126   3.346   1.059   2.424 -1.1046 -1.4298 -0.5903
  123SOPE  H18S13127   3.431   1.036   2.268 -2.1817 -2.4276 -2.0223
  123SOPE  H18T13128   3.253   1.031   2.268 -0.8466  0.3316  0.2642
  123SOPE   C3313129   3.953   1.591   2.323  0.2733  0.1457  0.4173
  123SOPE   H3X13130   3.961   1.673   2.249 -2.0740 -0.0782 -0.1830
  123SOPE   H3Y13131   4.060   1.564   2.337 -0.0540 -0.0264  3.0655
  123SOPE   C3413132   3.906   1.642   2.455 -0.1198 -0.2116  0.5822
  123SOPE   H4X13133   3.912   1.565   2.535  0.3073 -1.3874 -0.5410
  123SOPE   H4Y13134   3.802   1.682   2.451  0.5388  1.5319  0.1180
  123SOPE   C3513135   4.003   1.749   2.510 -0.1115 -0.1418  0.6192
  123SOPE   H5X13136   4.006   1.840   2.446  3.4029  0.0402  0.8588
  123SOPE   H5Y13137   4.105   1.706   2.519 -0.3020 -0.6581  0.3587
  123SOPE   C3613138   3.948   1.802   2.644  0.3772 -0.8881 -0.2592
  123SOPE   H6X13139   3.932   1.723   2.720 -0.5264 -1.0410 -0.6050
  123SOPE   H6Y13140   3.849   1.850   2.631  1.4731  1.6504  0.0829
  123SOPE   C3713141   4.047   1.907   2.712 -0.3573 -0.3488 -0.3410
  123SOPE   H7X13142   4.074   1.985   2.639 -1.1690 -2.4268 -3.0131
  123SOPE   H7Y13143   4.138   1.858   2.753  1.5866  1.1106 -2.6329
  123SOPE   C3813144   3.983   1.974   2.845  0.0765  0.1697 -0.0629
  123SOPE   H8X13145   3.960   1.898   2.922 -2.0940  2.5850  1.8611
  123SOPE   H8Y13146   3.889   2.021   2.811 -1.6876 -3.8171 -1.2986
  123SOPE   C3913147   4.072   2.075   2.912 -0.6232 -0.4557 -0.1478
  123SOPE   H9X13148   4.100   2.155   2.841 -1.9620  0.6884  0.5665
  123SOPE   H9Y13149   4.166   2.023   2.941 -0.5848 -1.0745 -1.2910
  123SOPE  C31013150   4.005   2.143   3.037  0.6216 -0.6088  0.8061
  123SOPE  H10X13151   3.912   2.180   2.989  0.9538 -2.0493 -1.0389
  123SOPE  H10Y13152   4.068   2.233   3.058 -1.9711  1.7396 -0.7505
  123SOPE  C31113153   3.970   2.058   3.159  0.1561 -0.1458  0.1249
  123SOPE  H11X13154   4.056   2.007   3.208  0.1704  2.1265  2.7031
  123SOPE  H11Y13155   3.894   1.983   3.130  1.4721 -1.3419 -0.3283
  123SOPE  C31213156   3.915   2.153   3.278  0.1655 -0.2014 -0.1190
  123SOPE  H12X13157   3.826   2.206   3.239  0.9381  0.5147 -0.9472
  123SOPE  H12Y13158   3.982   2.237   3.305 -1.1891  0.5003  1.1712
  123SOPE  C31313159   3.885   2.074   3.407  0.0053  0.1195 -0.3578
  123SOPE  H13X13160   3.855   2.139   3.493  0.2110 -1.5999  1.0697
  123SOPE  H13Y13161   3.983   2.029   3.432 -0.7609 -1.1665  0.4527
  123SOPE  C31413162   3.781   1.962   3.401 -0.2441 -0.2549  0.0211
  123SOPE  H14X13163   3.794   1.916   3.501  2.2955 -0.1198 -0.1776
  123SOPE  H14Y13164   3.799   1.879   3.328  3.0203 -1.3284  1.8585
  123SOPE  C31513165   3.635   2.013   3.383 -0.7505 -0.1437  0.7121
  123SOPE  H15X13166   3.566   1.935   3.422  1.5397 -2.7026 -0.0945
  123SOPE  H15Y13167   3.624   2.024   3.273 -0.0271 -1.1360  0.5341
  123SOPE  C31613168   3.604   2.151   3.451  0.2559 -0.0636  0.1604
  123SOPE  H16X13169   3.503   2.184   3.421 -0.2634 -0.2924  1.5389
  123SOPE  H16Y13170   3.679   2.228   3.424  1.0284 -0.1044  2.0224
  123SOPE  C31713171   3.597   2.130   3.607 -1.4657 -0.4556  0.8803
  123SOPE  H17X13172   3.697   2.101   3.645 -1.4700  2.3379  3.4548
  123SOPE  H17Y13173   3.536   2.042   3.635  0.7863 -1.3497  3.3824
  123SOPE  C31813174   3.562   2.264   3.675  0.1517  0.3725  0.5821
  123SOPE  H18X13175   3.635   2.343   3.645 -1.1906  1.4933  0.1779
  123SOPE  H18Y13176   3.562   2.244   3.784  0.2464 -1.6784  0.2431
  123SOPE  H18Z13177   3.461   2.304   3.652  0.0915  0.8353  1.5927
  124SOPE     N13178   5.786   5.054   1.493  0.2030 -0.5888 -0.1704
  124SOPE   HN113179   5.817   5.148   1.525  1.3484 -0.8926 -0.3238
  124SOPE   HN213180   5.824   5.039   1.397  0.8875 -2.4775  0.3371
  124SOPE   HN313181   5.684   5.040   1.504  0.8516 -5.0826  3.1813
  124SOPE   C1213182   5.837   4.955   1.595 -0.6000 -0.0691 -0.6232
  124SOPE  H12A13183   5.947   4.959   1.611 -0.3794  2.9716 -2.1673
  124SOPE  H12B13184   5.814   4.850   1.567  0.0283 -0.4635  0.3041
  124SOPE   C1113185   5.767   4.987   1.732  0.0343 -0.3696  0.5182
  124SOPE  H11A13186   5.793   4.913   1.811  1.8424  1.8413  2.1056
  124SOPE  H11B13187   5.660   4.961   1.714 -0.5828  1.0041  1.9929
  124SOPE     P13188   5.874   5.162   1.906  0.1610  0.6651 -0.2826
  124SOPE   O1313189   5.905   5.303   1.897  0.0461 -0.2214 -0.1015
  124SOPE   O1413190   5.990   5.073   1.910 -0.2660  0.4528 -0.1115
  124SOPE   O1213191   5.784   5.118   1.780  0.0455 -0.3309  0.0953
  124SOPE   O1113192   5.781   5.136   2.031 -0.3435  0.1591 -0.3811
  124SOPE    C113193   5.641   5.161   2.036 -0.2748 -0.0114  0.2343
  124SOPE    HA13194   5.598   5.061   2.053 -0.9339 -0.4381 -3.1903
  124SOPE    HB13195   5.604   5.192   1.936 -0.8145  1.7138  0.9180
  124SOPE    C213196   5.601   5.261   2.143 -0.6625 -0.2959  0.1986
  124SOPE    HS13197   5.678   5.341   2.155 -1.5111  0.3041  2.0580
  124SOPE   O2113198   5.593   5.187   2.269 -0.4411 -0.5543 -0.8849
  124SOPE   C2113199   5.712   5.181   2.336 -0.4262 -0.4019  0.2372
  124SOPE   O2213200   5.813   5.231   2.290 -0.9101 -0.4312 -0.0736
  124SOPE   C2213201   5.700   5.109   2.469  0.2933  0.3368 -0.0074
  124SOPE   H2R13202   5.773   5.026   2.456 -0.2757 -0.3362  0.9680
  124SOPE   H2S13203   5.601   5.059   2.481  1.4555 -1.9444  0.5719
  124SOPE    C313204   5.461   5.323   2.118 -0.0105 -0.3436  0.7695
  124SOPE    HX13205   5.400   5.240   2.076  1.1447 -0.2029 -1.3212
  124SOPE    HY13206   5.471   5.402   2.041  2.1981  1.9355  3.1937
  124SOPE   O3113207   5.412   5.364   2.245  0.1040 -0.2063 -0.3714
  124SOPE   C3113208   5.444   5.490   2.279  0.3046 -0.1952  0.0188
  124SOPE   O3213209   5.495   5.573   2.206  0.3428 -0.2905 -0.5722
  124SOPE   C3213210   5.410   5.502   2.431 -0.0802  0.3196 -0.2474
  124SOPE   H2X13211   5.331   5.579   2.444 -0.0958  0.3600 -0.5663
  124SOPE   H2Y13212   5.503   5.537   2.480  0.3230  0.0737 -0.8146
  124SOPE   C2313213   5.743   5.192   2.593 -0.1138  0.7693  0.0936
  124SOPE   H3R13214   5.671   5.276   2.590 -1.4661 -0.1924  2.5245
  124SOPE   H3S13215   5.846   5.232   2.600 -0.6392  1.9147  1.7432
  124SOPE   C2413216   5.694   5.131   2.726  0.8053 -0.6644  0.3854
  124SOPE   H4R13217   5.584   5.119   2.713  0.7634 -0.3280  0.4322
  124SOPE   H4S13218   5.727   5.026   2.743 -2.9657 -1.6794  2.6608
  124SOPE   C2513219   5.697   5.220   2.848 -0.0645 -0.3137  1.3325
  124SOPE   H5R13220   5.804   5.248   2.862  0.4503 -0.9653 -0.9580
  124SOPE   H5S13221   5.628   5.302   2.818  1.3307  0.6112  0.5156
  124SOPE   C2613222   5.642   5.149   2.966 -0.0506  0.0410  0.2897
  124SOPE   H6R13223   5.545   5.102   2.940 -0.5752  0.7655  0.9123
  124SOPE   H6S13224   5.712   5.066   2.992  1.7804  1.1628 -0.8064
  124SOPE   C2713225   5.633   5.245   3.076 -0.4864 -0.5019  0.9095
  124SOPE   H7R13226   5.737   5.252   3.114 -0.6864 -1.7253  1.7481
  124SOPE   H7S13227   5.585   5.333   3.028 -0.3240 -0.6957  0.3970
  124SOPE   C2813228   5.548   5.195   3.192  0.1660 -0.5275 -0.2881
  124SOPE   H8R13229   5.439   5.193   3.170 -0.6296  1.1818  2.9467
  124SOPE   H8S13230   5.581   5.094   3.227  1.7056  0.1418  0.2651
  124SOPE   C2913231   5.553   5.291   3.314 -0.1025 -0.1183 -0.5232
  124SOPE   H9113232   5.533   5.398   3.298 -0.5281 -0.5174 -3.1326
  124SOPE  C21013233   5.569   5.249   3.443  0.3686  0.0998 -0.0925
  124SOPE  H10113234   5.555   5.320   3.526  1.4935 -0.4547  0.6035
  124SOPE  C21113235   5.571   5.102   3.483  0.3993 -0.6349 -0.4570
  124SOPE  H11R13236   5.676   5.068   3.494  0.2757 -0.2976  2.6808
  124SOPE  H11S13237   5.508   5.043   3.414 -0.5947 -2.1009  1.5934
  124SOPE  C21213238   5.494   5.081   3.616  0.0176  0.0805 -0.5811
  124SOPE  H12R13239   5.478   4.973   3.630  0.0995 -0.1016 -1.7981
  124SOPE  H12S13240   5.394   5.128   3.614 -0.4652 -0.6148  2.8259
  124SOPE  C21313241   5.572   5.135   3.734  0.2342  1.0159 -0.8563
  124SOPE  H13R13242   5.588   5.242   3.709  0.6241  1.5490  1.3997
  124SOPE  H13S13243   5.674   5.091   3.746  0.2530  0.9170 -1.3618
  124SOPE  C21413244   5.498   5.129   3.870 -0.1300  0.4049  0.0655
  124SOPE  H14R13245   5.554   5.192   3.943  2.3639 -0.9833 -0.5211
  124SOPE  H14S13246   5.505   5.031   3.922  0.8346  0.4600  0.0639
  124SOPE  C21513247   5.350   5.168   3.848  0.1713 -0.2542  0.6550
  124SOPE  H15R13248   5.285   5.098   3.791 -1.9081  1.6082  0.5782
  124SOPE  H15S13249   5.344   5.261   3.786 -2.1387  0.7136  2.1696
  124SOPE  C21613250   5.279   5.206   3.979  0.0845  0.0846 -0.8541
  124SOPE  H16R13251   5.186   5.256   3.944  0.3278  1.3967  0.2676
  124SOPE  H16S13252   5.333   5.289   4.030 -0.8463 -0.1887  0.6308
  124SOPE  C21713253   5.245   5.084   4.076  0.0337 -0.9939  0.2136
  124SOPE  H17R13254   5.330   5.045   4.137  0.9058  0.6876  0.1228
  124SOPE  H17S13255   5.225   5.006   3.999 -0.8442  0.6088 -1.2449
  124SOPE  C21813256   5.120   5.112   4.157 -0.0499  0.1611  0.1076
  124SOPE  H18R13257   5.042   5.152   4.089  0.3499  1.1035  0.1943
  124SOPE  H18S13258   5.130   5.180   4.244 -1.9682  1.3631 -0.5567
  124SOPE  H18T13259   5.068   5.016   4.178 -2.5269  0.9491 -1.9794
  124SOPE   C3313260   5.354   5.373   2.500  0.7778 -0.5806  0.5871
  124SOPE   H3X13261   5.386   5.273   2.464  0.6309 -0.7353  0.8789
  124SOPE   H3Y13262   5.243   5.382   2.492  0.6735  1.6873  3.1811
  124SOPE   C3413263   5.390   5.377   2.649  0.4128  0.8867 -0.9600
  124SOPE   H4X13264   5.500   5.384   2.665  0.6341  1.3689 -2.4942
  124SOPE   H4Y13265   5.366   5.272   2.675  0.3514  0.8770 -1.0585
  124SOPE   C3513266   5.296   5.469   2.729  0.9406 -0.3493  0.3371
  124SOPE   H5X13267   5.198   5.457   2.679 -0.0723 -2.4589  2.6324
  124SOPE   H5Y13268   5.342   5.570   2.725  1.0208 -0.3791  0.4778
  124SOPE   C3613269   5.281   5.430   2.878 -0.1614  0.2755 -0.5757
  124SOPE   H6X13270   5.383   5.424   2.920  1.0560  2.5726 -2.9005
  124SOPE   H6Y13271   5.225   5.334   2.885 -1.6967  1.0102 -1.9372
  124SOPE   C3713272   5.208   5.524   2.969  0.7346 -0.2415  0.3713
  124SOPE   H7X13273   5.097   5.528   2.963  0.5955 -0.2014  2.3905
  124SOPE   H7Y13274   5.251   5.621   2.936  1.7013 -0.9538 -0.5270
  124SOPE   C3813275   5.246   5.504   3.119  0.1373  0.2093  0.0434
  124SOPE   H8X13276   5.356   5.515   3.118  0.3959 -0.7439 -4.4567
  124SOPE   H8Y13277   5.228   5.400   3.153  1.6083 -1.0938 -2.7597
  124SOPE   C3913278   5.195   5.613   3.216 -0.0087 -0.2723 -1.1786
  124SOPE   H9X13279   5.084   5.600   3.216  0.2234 -2.9054  0.1214
  124SOPE   H9Y13280   5.233   5.710   3.179  0.8149 -0.2861 -0.4012
  124SOPE  C31013281   5.240   5.594   3.361  0.1899 -0.0248 -0.1562
  124SOPE  H10X13282   5.195   5.679   3.416 -1.4006 -1.9642  1.7567
  124SOPE  H10Y13283   5.350   5.604   3.366  0.1501  1.3351 -1.4746
  124SOPE  C31113284   5.197   5.461   3.430 -0.3756  0.0401  0.1402
  124SOPE  H11X13285   5.236   5.375   3.370 -0.8874 -0.2524  0.2223
  124SOPE  H11Y13286   5.086   5.465   3.423 -0.3379 -0.0428 -0.7363
  124SOPE  C31213287   5.256   5.445   3.578  0.0376  0.0764  0.6045
  124SOPE  H12X13288   5.365   5.425   3.581 -0.0386 -0.3575  0.4578
  124SOPE  H12Y13289   5.203   5.355   3.616  0.1923 -0.7364 -1.0206
  124SOPE  C31313290   5.221   5.570   3.666  0.0589 -0.2645  0.3644
  124SOPE  H13X13291   5.121   5.596   3.625  0.1159 -0.0376  0.3734
  124SOPE  H13Y13292   5.294   5.644   3.628 -1.0827 -0.7751 -3.2571
  124SOPE  C31413293   5.234   5.548   3.820 -0.6348 -0.5086  0.2816
  124SOPE  H14X13294   5.193   5.449   3.849  0.2366 -0.6470  1.1166
  124SOPE  H14Y13295   5.170   5.624   3.869  0.2273  0.0571  0.5623
  124SOPE  C31513296   5.380   5.574   3.869  0.8861  0.5798 -0.2355
  124SOPE  H15X13297   5.446   5.514   3.802  0.7578  0.3119 -0.1237
  124SOPE  H15Y13298   5.394   5.531   3.971  0.2475 -1.8909 -1.1179
  124SOPE  C31613299   5.431   5.718   3.861  0.2824  0.0732  0.1335
  124SOPE  H16X13300   5.349   5.777   3.909  0.1731  0.0799 -0.0595
  124SOPE  H16Y13301   5.436   5.749   3.755 -1.3017 -1.1835 -0.3550
  124SOPE  C31713302   5.564   5.734   3.923 -0.1727 -0.2352 -0.3205
  124SOPE  H17X13303   5.625   5.647   3.891  0.9704  1.7918 -4.2698
  124SOPE  H17Y13304   5.563   5.724   4.034 -0.8233 -2.8590 -0.4793
  124SOPE  C31813305   5.640   5.872   3.898 -0.3913 -0.0962  0.3344
  124SOPE  H18X13306   5.739   5.860   3.946 -1.1138 -3.2394  1.2935
  124SOPE  H18Y13307   5.586   5.959   3.941  2.1145  2.6643 -1.6815
  124SOPE  H18Z13308   5.662   5.900   3.793 -0.5556  0.7607  0.5238
  125SOPE     N13309   1.888   4.791   1.685 -0.0155 -0.5016 -0.5202
  125SOPE   HN113310   1.956   4.867   1.664  0.6182 -1.2089 -1.0849
  125SOPE   HN213311   1.931   4.707   1.642  1.6501  0.2086 -0.3271
  125SOPE   HN313312   1.800   4.812   1.634  0.9174  2.3119 -1.1910
  125SOPE   C1213313   1.877   4.772   1.836 -0.6561 -0.2248 -0.3490
  125SOPE  H12A13314   1.967   4.716   1.869 -1.8651 -1.4997  0.9167
  125SOPE  H12B13315   1.793   4.701   1.854 -1.5896  1.1146  0.7876
  125SOPE   C1113316   1.891   4.899   1.915  0.1423  0.0488 -0.4080
  125SOPE  H11A13317   1.978   4.961   1.885 -0.5000  1.5962  0.8028
  125SOPE  H11B13318   1.896   4.871   2.022 -2.2039 -2.9830 -0.9273
  125SOPE     P13319   1.634   4.977   1.964  0.1915  0.1094 -0.0940
  125SOPE   O1313320   1.581   4.837   1.949  0.4550 -0.0297 -0.3477
  125SOPE   O1413321   1.549   5.087   1.921 -0.0531 -0.2882 -0.2527
  125SOPE   O1213322   1.780   4.988   1.904  0.3449 -0.2952  0.3572
  125SOPE   O1113323   1.660   4.997   2.115  0.2122  0.0515 -0.5443
  125SOPE    C113324   1.750   5.101   2.156 -0.1003 -0.2501  0.3173
  125SOPE    HA13325   1.710   5.203   2.137  4.6624  1.9688  0.6590
  125SOPE    HB13326   1.850   5.084   2.112 -0.1655  1.0118 -0.3684
  125SOPE    C213327   1.770   5.103   2.309 -0.4726  0.0971  0.2200
  125SOPE    HS13328   1.819   5.198   2.340  3.9706 -1.4574 -1.2416
  125SOPE   O2113329   1.853   4.987   2.338 -0.4568 -0.4327 -0.1883
  125SOPE   C2113330   1.983   5.014   2.349 -0.3274  0.8777  0.5215
  125SOPE   O2213331   2.030   5.125   2.357 -0.4861  0.8341  0.1033
  125SOPE   C2213332   2.063   4.880   2.354  0.0336  0.0492 -0.0490
  125SOPE   H2R13333   2.168   4.912   2.366 -0.5174  1.2413  2.4058
  125SOPE   H2S13334   2.047   4.830   2.256 -1.6603 -0.7007  0.5554
  125SOPE    C313335   1.629   5.101   2.380  0.3126  0.6000  0.3864
  125SOPE    HX13336   1.584   5.004   2.348  0.9706  0.3362  0.2330
  125SOPE    HY13337   1.558   5.175   2.337 -2.1284 -2.0139 -0.4239
  125SOPE   O3113338   1.635   5.095   2.521 -0.3641  0.2538  0.5453
  125SOPE   C3113339   1.649   5.209   2.578  0.2955 -0.7436  0.1093
  125SOPE   O3213340   1.636   5.313   2.517 -0.0239 -0.2271 -0.2225
  125SOPE   C3213341   1.687   5.203   2.730  0.2273  0.0490 -0.0907
  125SOPE   H2X13342   1.798   5.197   2.728  0.2784  0.6345 -2.6047
  125SOPE   H2Y13343   1.640   5.106   2.755  0.2276 -0.4309 -1.8207
  125SOPE   C2313344   2.023   4.790   2.474 -0.4247 -0.0540  0.1389
  125SOPE   H3R13345   2.053   4.683   2.460  0.1503  0.0407  0.6054
  125SOPE   H3S13346   1.914   4.770   2.478 -0.2975 -1.8728 -2.7438
  125SOPE   C2413347   2.089   4.847   2.602 -0.1721 -0.8399 -0.6271
  125SOPE   H4R13348   2.149   4.770   2.656  0.1927  1.8127  3.1685
  125SOPE   H4S13349   2.160   4.928   2.575 -2.9560  2.1558  0.3427
  125SOPE   C2513350   1.987   4.912   2.701  0.7158 -0.0635 -0.3168
  125SOPE   H5R13351   1.967   5.017   2.671 -1.3590  0.1454  1.6146
  125SOPE   H5S13352   1.889   4.860   2.691  0.2766  0.6966 -0.0277
  125SOPE   C2613353   2.028   4.924   2.846 -0.4293 -0.3754  0.5290
  125SOPE   H6R13354   2.076   4.829   2.879  1.3415  0.4309  0.3804
  125SOPE   H6S13355   2.108   5.000   2.837 -0.9643 -0.0355 -2.8875
  125SOPE   C2713356   1.922   4.963   2.946  0.3685  0.0193  0.6530
  125SOPE   H7R13357   1.880   5.062   2.915  0.7604  0.2150  0.7458
  125SOPE   H7S13358   1.839   4.890   2.930  0.1216  0.6533 -1.3366
  125SOPE   C2813359   1.963   4.954   3.091  0.0077  0.9070 -0.4638
  125SOPE   H8R13360   1.997   4.848   3.102  0.0260  0.9974  0.3866
  125SOPE   H8S13361   2.052   5.018   3.104  0.3087  0.1906  1.3752
  125SOPE   C2913362   1.846   4.970   3.186  0.3957 -0.8792 -0.0346
  125SOPE   H9113363   1.759   4.904   3.172  0.4649 -0.8563 -0.5876
  125SOPE  C21013364   1.847   5.068   3.283 -0.6525 -1.0648  0.8097
  125SOPE  H10113365   1.759   5.071   3.349  1.1302 -1.0445  3.3158
  125SOPE  C21113366   1.951   5.176   3.321 -0.0427 -0.2288  0.7890
  125SOPE  H11R13367   1.910   5.278   3.303 -0.1982 -0.6111 -1.2113
  125SOPE  H11S13368   2.045   5.171   3.262 -1.8456  0.9203 -2.4673
  125SOPE  C21213369   1.981   5.163   3.477  0.3341  0.4350 -0.3753
  125SOPE  H12R13370   1.890   5.160   3.540  0.0079  0.1773 -0.8513
  125SOPE  H12S13371   2.024   5.262   3.502 -3.3383  1.8958  0.7515
  125SOPE  C21313372   2.059   5.036   3.511  0.0372 -0.2094 -0.2186
  125SOPE  H13R13373   2.162   5.050   3.473  0.5669  0.0901  1.2818
  125SOPE  H13S13374   2.016   4.953   3.451  1.5504 -1.1469 -0.0352
  125SOPE  C21413375   2.070   5.007   3.656  0.7283  0.2274  0.1024
  125SOPE  H14R13376   2.115   5.092   3.711 -1.2064  2.3552 -1.4095
  125SOPE  H14S13377   2.137   4.919   3.652  2.2818  1.3688  0.1698
  125SOPE  C21513378   1.935   4.967   3.722 -1.1889 -0.2652  0.1987
  125SOPE  H15R13379   1.876   4.907   3.650 -2.4317 -0.9733  1.7365
  125SOPE  H15S13380   1.872   5.054   3.752 -1.3419 -0.7775  1.4345
  125SOPE  C21613381   1.965   4.889   3.845  0.1712 -0.9683  0.5861
  125SOPE  H16R13382   2.037   4.949   3.905 -0.4625 -0.8533  1.2426
  125SOPE  H16S13383   2.011   4.789   3.827  0.9928 -0.8498  1.8717
  125SOPE  C21713384   1.841   4.856   3.930  0.0272  0.3670 -0.1357
  125SOPE  H17R13385   1.779   4.948   3.942 -2.3886 -1.2553  0.6619
  125SOPE  H17S13386   1.880   4.838   4.033  1.1056 -0.3422 -0.6531
  125SOPE  C21813387   1.753   4.733   3.911 -0.2194  0.0533 -0.1277
  125SOPE  H18R13388   1.712   4.726   3.808  0.5639 -2.5613 -0.3275
  125SOPE  H18S13389   1.681   4.721   3.995 -1.2701  1.9286 -0.7212
  125SOPE  H18T13390   1.820   4.645   3.919 -0.9033 -0.3245  2.4897
  125SOPE   C3313391   1.644   5.321   2.816  0.7626 -0.4440  0.8480
  125SOPE   H3X13392   1.535   5.335   2.800  1.0853 -0.5470 -1.8662
  125SOPE   H3Y13393   1.699   5.412   2.787  0.1776 -1.0943 -2.6960
  125SOPE   C3413394   1.672   5.295   2.962  0.4435 -0.1554 -0.6148
  125SOPE   H4X13395   1.776   5.326   2.986 -0.6687  1.9325  2.1921
  125SOPE   H4Y13396   1.665   5.186   2.979  0.6077  0.0318  0.7972
  125SOPE   C3513397   1.569   5.361   3.058 -0.1011 -0.0160  1.4220
  125SOPE   H5X13398   1.467   5.325   3.033  0.7916 -0.4079 -2.1553
  125SOPE   H5Y13399   1.582   5.468   3.030  2.5115 -0.8519 -1.1724
  125SOPE   C3613400   1.611   5.338   3.213  0.2321 -0.1077  0.3823
  125SOPE   H6X13401   1.718   5.362   3.232  0.2707 -1.1084  1.5025
  125SOPE   H6Y13402   1.604   5.230   3.238 -0.2406  0.2576  1.9193
  125SOPE   C3713403   1.527   5.421   3.307 -0.4274 -0.3647 -0.5088
  125SOPE   H7X13404   1.423   5.395   3.278 -0.2041 -0.4098 -1.3066
  125SOPE   H7Y13405   1.542   5.530   3.291  0.2849 -0.4183 -0.2403
  125SOPE   C3813406   1.550   5.381   3.455  0.2194 -0.1325  0.4110
  125SOPE   H8X13407   1.491   5.448   3.521 -1.5851 -1.4246  0.1834
  125SOPE   H8Y13408   1.656   5.396   3.483  0.3931 -2.4924  1.2101
  125SOPE   C3913409   1.513   5.238   3.497 -0.8491  0.3831  0.0081
  125SOPE   H9X13410   1.592   5.169   3.462 -0.3690 -0.1902  2.0761
  125SOPE   H9Y13411   1.416   5.223   3.445 -0.3398 -1.2851 -0.5152
  125SOPE  C31013412   1.497   5.218   3.644  0.3787 -0.4764 -0.3220
  125SOPE  H10X13413   1.429   5.294   3.689  0.7060 -1.2571  1.5608
  125SOPE  H10Y13414   1.585   5.234   3.710 -0.7687 -1.1218  1.4220
  125SOPE  C31113415   1.454   5.078   3.687 -0.1057  0.7694  0.3353
  125SOPE  H11X13416   1.477   5.054   3.793 -1.4903 -0.7858  0.3313
  125SOPE  H11Y13417   1.517   5.006   3.630 -0.2441 -0.0062  1.1443
  125SOPE  C31213418   1.302   5.060   3.646 -0.1507 -1.3234 -0.3956
  125SOPE  H12X13419   1.274   5.157   3.600 -2.3550 -0.5771  2.2793
  125SOPE  H12Y13420   1.239   5.060   3.737 -0.4981  0.8451 -0.5919
  125SOPE  C31313421   1.280   4.943   3.552  0.1082 -0.4474 -0.9048
  125SOPE  H13X13422   1.326   4.854   3.599 -1.5643 -0.7856  0.1639
  125SOPE  H13Y13423   1.340   4.957   3.460 -0.2420  1.8753 -0.8442
  125SOPE  C31413424   1.132   4.915   3.525 -0.5931 -0.0282 -0.2298
  125SOPE  H14X13425   1.103   4.916   3.632  2.3436 -0.6073  0.6682
  125SOPE  H14Y13426   1.120   4.811   3.487 -1.1614 -0.9670  2.3461
  125SOPE  C31513427   1.075   5.020   3.445 -0.3873  0.5163  0.1885
  125SOPE  H15X13428   1.105   4.990   3.342 -1.3818 -1.9537  0.5601
  125SOPE  H15Y13429   1.115   5.117   3.481  0.7384  0.1611 -0.0472
  125SOPE  C31613430   0.920   5.030   3.446 -0.3630  0.3762 -0.3051
  125SOPE  H16X13431   0.885   5.130   3.412  1.1912  0.9404 -0.3307
  125SOPE  H16Y13432   0.884   5.012   3.549 -1.2665  0.5989 -0.5711
  125SOPE  C31713433   0.842   4.932   3.349  0.2687 -0.4137  0.5760
  125SOPE  H17X13434   0.864   4.826   3.373  1.6936 -0.2480  0.1045
  125SOPE  H17Y13435   0.882   4.957   3.248 -1.1546  4.2658  0.9449
  125SOPE  C31813436   0.698   4.967   3.349  0.3327 -0.5712  0.0437
  125SOPE  H18X13437   0.695   5.077   3.339  0.1354 -0.3797  1.7735
  125SOPE  H18Y13438   0.645   4.947   3.445 -1.1114  1.1169 -0.3562
  125SOPE  H18Z13439   0.641   4.925   3.263  0.5380 -0.8132  0.0243
  126SOPE     N13440   3.062   0.788   1.923  0.6062  0.4435 -0.1548
  126SOPE   HN113441   2.968   0.810   1.884  0.8014 -1.9811 -2.3078
  126SOPE   HN213442   3.084   0.690   1.896  0.5134 -0.3415  2.3689
  126SOPE   HN313443   3.056   0.787   2.027  0.2579 -2.3506 -0.1150
  126SOPE   C1213444   3.169   0.885   1.872  0.3303  0.2877 -0.4939
  126SOPE  H12A13445   3.252   0.833   1.820 -0.0505  0.0456 -0.8606
  126SOPE  H12B13446   3.199   0.939   1.965 -0.1033  0.0753 -0.2240
  126SOPE   C1113447   3.095   0.980   1.776 -0.1702 -0.2655 -0.0306
  126SOPE  H11A13448   3.053   0.928   1.687 -1.3948  1.2319 -0.3652
  126SOPE  H11B13449   3.170   1.047   1.730 -1.4090  0.2353 -1.4203
  126SOPE     P13450   2.993   1.208   1.858  0.3856  0.1187  0.0722
  126SOPE   O1313451   2.934   1.259   1.729  0.1592  0.2256 -0.5227
  126SOPE   O1413452   3.118   1.273   1.903  0.0774  0.0841 -0.7362
  126SOPE   O1213453   2.996   1.052   1.848 -0.3923  0.0614  0.3438
  126SOPE   O1113454   2.884   1.213   1.966 -0.4375 -0.0744 -0.5583
  126SOPE    C113455   2.919   1.225   2.109 -0.6921  0.4046  0.2592
  126SOPE    HA13456   2.916   1.330   2.145  1.2484 -0.3562  2.9172
  126SOPE    HB13457   3.021   1.192   2.140 -0.4845 -0.7259 -1.4950
  126SOPE    C213458   2.820   1.130   2.184 -0.5997 -0.3131 -0.4404
  126SOPE    HS13459   2.768   1.066   2.111  0.9622 -0.7721 -1.2009
  126SOPE   O2113460   2.718   1.214   2.248 -0.2241  0.1183 -0.0623
  126SOPE   C2113461   2.625   1.151   2.312 -0.0799 -0.3395  0.0828
  126SOPE   O2213462   2.603   1.032   2.313  0.0736 -0.1370 -0.7500
  126SOPE   C2213463   2.549   1.255   2.389  0.1190  0.5633 -0.5035
  126SOPE   H2R13464   2.541   1.349   2.330  2.4717  0.0411 -1.8151
  126SOPE   H2S13465   2.611   1.282   2.477 -2.4735  0.6990  1.3727
  126SOPE    C313466   2.902   1.038   2.283  0.8250  0.5477 -0.4953
  126SOPE    HX13467   2.972   0.967   2.233  0.8967 -0.7185  1.3189
  126SOPE    HY13468   2.829   0.969   2.329  2.4589 -1.6223 -1.0007
  126SOPE   O3113469   2.993   1.103   2.369 -0.1799  0.1951 -0.3760
  126SOPE   C3113470   2.950   1.131   2.495 -0.0530  0.4832  0.2577
  126SOPE   O3213471   2.833   1.128   2.533 -0.1268  0.6873  0.0364
  126SOPE   C3213472   3.066   1.179   2.576  0.2117  0.8188  0.4441
  126SOPE   H2X13473   3.116   1.273   2.544  0.4383  0.7402  0.5639
  126SOPE   H2Y13474   3.146   1.102   2.566  1.9199  2.6103 -0.3523
  126SOPE   C2313475   2.418   1.194   2.434  0.5828 -0.6386 -0.3691
  126SOPE   H3R13476   2.378   1.124   2.358 -2.1983  2.5707 -2.1326
  126SOPE   H3S13477   2.348   1.279   2.445  0.7062 -0.3056 -2.0134
  126SOPE   C2413478   2.428   1.125   2.573  0.2815  0.4846 -0.2968
  126SOPE   H4R13479   2.506   1.047   2.574  0.6891  0.8911  0.9391
  126SOPE   H4S13480   2.459   1.190   2.657 -0.7742  0.4094  0.1665
  126SOPE   C2513481   2.301   1.054   2.617  0.0232 -0.4555 -0.6961
  126SOPE   H5R13482   2.224   1.133   2.627  0.2749 -0.2369 -0.5071
  126SOPE   H5S13483   2.260   0.981   2.544 -1.1267  0.8983 -1.4554
  126SOPE   C2613484   2.315   0.993   2.760 -0.1990 -0.0933 -0.6600
  126SOPE   H6R13485   2.375   0.900   2.756  1.8617  1.0901  0.7846
  126SOPE   H6S13486   2.380   1.067   2.812 -0.4079 -0.0555 -0.4516
  126SOPE   C2713487   2.187   0.978   2.839 -0.3953 -0.1084 -0.1013
  126SOPE   H7R13488   2.206   0.964   2.947 -0.9366 -2.0401 -0.2108
  126SOPE   H7S13489   2.127   1.071   2.833 -0.1643 -0.0184 -1.1857
  126SOPE   C2813490   2.097   0.869   2.790 -0.1082 -0.1242  0.5854
  126SOPE   H8R13491   2.006   0.868   2.855 -0.3375  2.5544  0.4000
  126SOPE   H8S13492   2.059   0.886   2.687 -0.6644 -2.9533  0.2417
  126SOPE   C2913493   2.173   0.736   2.786  0.0109 -0.2597  0.1228
  126SOPE   H9113494   2.260   0.743   2.718 -0.3453  0.6419 -0.2560
  126SOPE  C21013495   2.152   0.621   2.855  0.4979 -0.1607  0.4710
  126SOPE  H10113496   2.210   0.529   2.844 -0.1119 -0.7195  1.6759
  126SOPE  C21113497   2.048   0.603   2.963 -0.4918 -0.4222 -0.3358
  126SOPE  H11R13498   1.998   0.505   2.949  0.8764 -1.2251  0.2038
  126SOPE  H11S13499   1.967   0.678   2.966 -2.8325 -2.7145 -1.9370
  126SOPE  C21213500   2.098   0.602   3.107 -0.0870  0.3493 -0.8647
  126SOPE  H12R13501   2.181   0.530   3.122 -0.2043 -0.0784 -2.1529
  126SOPE  H12S13502   2.019   0.560   3.173 -0.4121  0.1489 -1.3787
  126SOPE  C21313503   2.150   0.736   3.154 -0.2847 -0.9680 -0.0970
  126SOPE  H13R13504   2.091   0.822   3.114 -0.3626 -1.1623 -0.4082
  126SOPE  H13S13505   2.251   0.746   3.110 -0.7742  4.3581 -0.7024
  126SOPE  C21413506   2.153   0.751   3.309 -0.4564  0.7952  0.3136
  126SOPE  H14R13507   2.213   0.666   3.348 -0.6559  0.7204  0.4555
  126SOPE  H14S13508   2.050   0.730   3.343 -1.3440 -0.1250 -2.6328
  126SOPE  C21513509   2.196   0.895   3.354 -0.0026  0.1883 -0.4046
  126SOPE  H15R13510   2.133   0.968   3.300  2.5031  1.3120 -2.0251
  126SOPE  H15S13511   2.304   0.906   3.327  0.4810 -0.4007  1.1469
  126SOPE  C21613512   2.183   0.913   3.502  0.5721 -0.7910 -0.6667
  126SOPE  H16R13513   2.268   0.851   3.538  1.6874  0.8870 -0.2808
  126SOPE  H16S13514   2.091   0.866   3.543 -0.6326  0.4277 -1.8594
  126SOPE  C21713515   2.206   1.057   3.564 -0.0306 -0.3344 -0.7232
  126SOPE  H17R13516   2.113   1.117   3.551 -0.9867 -1.4389  0.6849
  126SOPE  H17S13517   2.290   1.109   3.514 -0.8990  1.0196 -0.8398
  126SOPE  C21813518   2.238   1.049   3.718 -0.3303  0.5091 -0.5285
  126SOPE  H18R13519   2.180   0.979   3.783  0.1078 -0.2793 -0.9641
  126SOPE  H18S13520   2.221   1.150   3.760 -0.4752  1.2499 -2.2928
  126SOPE  H18T13521   2.346   1.028   3.731 -0.0559  1.9395 -0.3532
  126SOPE   C3313522   3.034   1.210   2.721 -0.1671 -0.1743  0.9633
  126SOPE   H3X13523   2.983   1.131   2.780  0.0526  0.1770  1.6336
  126SOPE   H3Y13524   2.961   1.294   2.721  2.2714  2.0951 -1.2080
  126SOPE   C3413525   3.158   1.248   2.806  0.2523 -0.0929  0.1122
  126SOPE   H4X13526   3.216   1.329   2.759  0.4706 -0.2497  0.1128
  126SOPE   H4Y13527   3.227   1.161   2.805 -0.3857 -0.6120 -0.0028
  126SOPE   C3513528   3.130   1.278   2.957  0.2908  0.2028 -0.2995
  126SOPE   H5X13529   3.106   1.177   2.998 -0.1629  0.2517 -0.4445
  126SOPE   H5Y13530   3.035   1.333   2.973  0.9457  0.9577  1.2397
  126SOPE   C3613531   3.241   1.348   3.033  0.6920 -0.8356  0.3074
  126SOPE   H6X13532   3.276   1.434   2.972  1.6870 -1.2529  0.2712
  126SOPE   H6Y13533   3.335   1.290   3.043  1.0328 -0.2513  0.5467
  126SOPE   C3713534   3.189   1.401   3.173 -0.4544  0.4590  0.4548
  126SOPE   H7X13535   3.122   1.487   3.153 -1.4957 -0.1879  1.0921
  126SOPE   H7Y13536   3.273   1.442   3.234 -0.1115 -1.3201  1.2409
  126SOPE   C3813537   3.120   1.287   3.253  0.0344 -0.9296 -0.1588
  126SOPE   H8X13538   3.185   1.198   3.259  1.0228 -0.1518  1.1518
  126SOPE   H8Y13539   3.030   1.257   3.195 -0.3097  1.9593 -1.3050
  126SOPE   C3913540   3.084   1.329   3.399 -0.3932 -0.0666  0.0246
  126SOPE   H9X13541   3.009   1.406   3.372 -1.3198 -0.5550  1.1089
  126SOPE   H9Y13542   3.173   1.364   3.455  0.0803 -1.0980 -0.0526
  126SOPE  C31013543   3.029   1.208   3.471  0.5418 -0.0622 -0.2814
  126SOPE  H10X13544   3.112   1.137   3.490  2.7691  2.3407 -0.5394
  126SOPE  H10Y13545   2.951   1.150   3.417  0.1737 -0.7251  0.9212
  126SOPE  C31113546   2.967   1.253   3.610  0.1167 -0.7296  0.3413
  126SOPE  H11X13547   2.872   1.305   3.585  1.6433  2.3889  0.5762
  126SOPE  H11Y13548   3.038   1.330   3.644  0.7465 -1.0692 -0.1852
  126SOPE  C31213549   2.945   1.139   3.715 -0.1383 -0.5220 -0.6425
  126SOPE  H12X13550   3.034   1.125   3.780 -0.6525 -1.7462 -0.1711
  126SOPE  H12Y13551   2.937   1.042   3.661  0.2437 -1.6672  1.2665
  126SOPE  C31313552   2.833   1.168   3.817 -0.5738  0.6363  0.6652
  126SOPE  H13X13553   2.832   1.088   3.894 -0.7585 -0.9831 -0.9706
  126SOPE  H13Y13554   2.736   1.158   3.764  0.1350  1.2630 -0.8038
  126SOPE  C31413555   2.840   1.305   3.889 -0.6463 -0.2601 -0.0067
  126SOPE  H14X13556   2.740   1.319   3.935 -2.0397 -0.4097 -2.7662
  126SOPE  H14Y13557   2.844   1.384   3.811 -1.4615 -1.0774 -0.9198
  126SOPE  C31513558   2.947   1.324   3.991 -0.5472 -0.4537  0.2747
  126SOPE  H15X13559   3.051   1.329   3.954 -0.9751  1.9087 -0.7638
  126SOPE  H15Y13560   2.948   1.240   4.064  0.5893  0.8805  1.8714
  126SOPE  C31613561   2.926   1.457   4.060 -0.7237  0.0368 -0.4210
  126SOPE  H16X13562   2.831   1.466   4.118  0.9176  1.3978  2.2836
  126SOPE  H16Y13563   2.934   1.539   3.986 -0.6782  0.6283  0.2192
  126SOPE  C31713564   3.033   1.488   4.164  0.2293 -0.3079  0.1535
  126SOPE  H17X13565   3.127   1.449   4.120 -0.3939 -2.2951  0.4401
  126SOPE  H17Y13566   3.019   1.436   4.261  1.0901  0.0004  0.4544
  126SOPE  C31813567   3.058   1.640   4.206 -0.0185  0.1869  0.7248
  126SOPE  H18X13568   3.162   1.639   4.245  1.0362  0.5618 -1.8734
  126SOPE  H18Y13569   2.992   1.677   4.287 -1.6360  0.0957 -0.5170
  126SOPE  H18Z13570   3.058   1.708   4.118 -0.5710 -1.1049 -0.3176
  127SOPE     N13571   5.999   1.012   1.974  0.0662  0.1906  0.3269
  127SOPE   HN113572   6.060   1.096   1.986 -1.2631  0.8650  3.4233
  127SOPE   HN213573   6.055   0.924   1.974 -0.7022 -0.3091 -0.4594
  127SOPE   HN313574   5.959   1.021   1.879 -0.7463 -1.8368  0.4353
  127SOPE   C1213575   5.898   0.990   2.086  0.7775  0.1055 -0.2953
  127SOPE  H12A13576   5.954   0.954   2.175  1.8937 -0.7337 -1.3068
  127SOPE  H12B13577   5.833   0.908   2.052  2.1096 -0.4686 -1.5577
  127SOPE   C1113578   5.830   1.125   2.116  0.0584 -0.0986  0.0144
  127SOPE  H11A13579   5.909   1.201   2.130 -0.2458  0.2121  0.0509
  127SOPE  H11B13580   5.769   1.124   2.208 -2.0766  0.8860 -1.3130
  127SOPE     P13581   5.733   1.289   1.936  0.2401 -0.4107 -0.1912
  127SOPE   O1313582   5.599   1.314   1.873 -0.3541 -0.1050  0.5377
  127SOPE   O1413583   5.849   1.283   1.848 -0.1428 -0.3545 -0.9647
  127SOPE   O1213584   5.733   1.146   2.016  0.3070 -0.5014 -0.4982
  127SOPE   O1113585   5.762   1.398   2.045  0.0552 -0.4844  0.1037
  127SOPE    C113586   5.648   1.406   2.137  0.4453  0.2684  0.3973
  127SOPE    HA13587   5.639   1.316   2.202 -0.6505  0.4657  0.5352
  127SOPE    HB13588   5.549   1.425   2.091  0.6656  1.3225  0.3454
  127SOPE    C213589   5.680   1.512   2.250  0.1525 -0.1481  0.4431
  127SOPE    HS13590   5.599   1.513   2.326  0.0564  1.9126  0.3887
  127SOPE   O2113591   5.691   1.649   2.195 -0.0055  0.0027  0.7250
  127SOPE   C2113592   5.575   1.694   2.158 -0.2690 -0.4418 -0.2742
  127SOPE   O2213593   5.468   1.635   2.168 -0.1796 -0.1435  0.1121
  127SOPE   C2213594   5.585   1.832   2.102  0.4209 -0.3117  0.6335
  127SOPE   H2R13595   5.508   1.831   2.022 -0.8711  0.7276  1.8060
  127SOPE   H2S13596   5.680   1.864   2.054  0.1720  0.6021  0.7244
  127SOPE    C313597   5.815   1.470   2.312 -0.1043  0.0852 -0.7784
  127SOPE    HX13598   5.897   1.493   2.241  1.6255  1.1519  1.4294
  127SOPE    HY13599   5.818   1.361   2.332 -0.5166 -0.0079 -1.2004
  127SOPE   O3113600   5.858   1.546   2.430  1.0376 -0.0140 -0.7822
  127SOPE   C3113601   5.798   1.502   2.540 -0.1429  0.1615  0.8008
  127SOPE   O3213602   5.738   1.399   2.555  0.1353 -0.1688  0.7716
  127SOPE   C3213603   5.817   1.600   2.660  0.3689  0.1232 -0.1766
  127SOPE   H2X13604   5.883   1.544   2.729  0.8472  2.1785  1.1084
  127SOPE   H2Y13605   5.720   1.599   2.714  1.8566 -0.0206  2.6831
  127SOPE   C2313606   5.549   1.932   2.212 -0.2209 -0.0693  0.1670
  127SOPE   H3R13607   5.461   1.904   2.275 -0.5081 -2.0616 -1.0260
  127SOPE   H3S13608   5.531   2.031   2.167 -0.6436 -1.3626 -2.7179
  127SOPE   C2413609   5.662   1.955   2.312 -0.8261 -0.2230 -0.1445
  127SOPE   H4R13610   5.696   1.870   2.376  2.8631  1.2884  0.1869
  127SOPE   H4S13611   5.751   1.993   2.257  0.0715 -0.6008  0.9885
  127SOPE   C2513612   5.626   2.062   2.420 -0.4437 -0.0402 -0.1234
  127SOPE   H5R13613   5.709   2.067   2.493 -0.8789  1.6466  0.2982
  127SOPE   H5S13614   5.604   2.163   2.378  2.6427  1.2641  1.0840
  127SOPE   C2613615   5.513   2.010   2.519 -0.0213 -0.2280  0.4714
  127SOPE   H6R13616   5.421   1.998   2.458 -1.5361 -3.5934  3.0433
  127SOPE   H6S13617   5.547   1.905   2.535 -1.9617 -1.1888 -1.1903
  127SOPE   C2713618   5.483   2.075   2.655  0.4985 -1.0591 -0.2242
  127SOPE   H7R13619   5.581   2.087   2.705 -0.2090  3.2491  0.5255
  127SOPE   H7S13620   5.448   2.179   2.641  2.6417 -0.1426  0.9007
  127SOPE   C2813621   5.383   1.997   2.736  0.0270  0.0834  0.1746
  127SOPE   H8R13622   5.294   1.961   2.680  0.2369 -0.5130  0.2153
  127SOPE   H8S13623   5.438   1.904   2.762 -0.8333 -0.8343 -1.1841
  127SOPE   C2913624   5.355   2.070   2.867  0.1632  0.2632 -0.4265
  127SOPE   H9113625   5.434   2.140   2.897  0.2771  0.4184 -1.0688
  127SOPE  C21013626   5.239   2.063   2.935 -0.2363 -0.3043 -0.2523
  127SOPE  H10113627   5.221   2.100   3.037 -2.8659 -0.0974 -0.7338
  127SOPE  C21113628   5.127   1.971   2.903 -0.3405  0.1856 -0.1393
  127SOPE  H11R13629   5.156   1.917   2.810 -0.0905  0.3851 -0.1767
  127SOPE  H11S13630   5.033   2.025   2.879 -0.2456 -0.9260 -3.4644
  127SOPE  C21213631   5.091   1.868   3.019  0.0362 -0.4428 -0.3284
  127SOPE  H12R13632   4.992   1.830   2.986  0.1427  0.2639 -1.4958
  127SOPE  H12S13633   5.087   1.917   3.119  0.6414 -2.3189  0.6753
  127SOPE  C21313634   5.187   1.749   3.043 -0.3295 -0.2267 -0.1185
  127SOPE  H13R13635   5.232   1.721   2.946  0.5144 -0.1837  0.2496
  127SOPE  H13S13636   5.140   1.665   3.098  0.5613 -0.7471 -0.1201
  127SOPE  C21413637   5.309   1.773   3.134  0.0249 -0.3935  0.6721
  127SOPE  H14R13638   5.361   1.867   3.109 -1.4875  0.3906  0.3707
  127SOPE  H14S13639   5.374   1.684   3.116  2.5143  1.5723 -0.8181
  127SOPE  C21513640   5.260   1.779   3.278 -0.5169  0.6323  0.6232
  127SOPE  H15R13641   5.199   1.689   3.303  0.4431 -0.6944 -1.5053
  127SOPE  H15S13642   5.202   1.873   3.290  0.6365  1.3891  0.4120
  127SOPE  C21613643   5.377   1.782   3.383 -0.2740 -0.2038  0.0457
  127SOPE  H16R13644   5.330   1.780   3.483 -0.1995 -3.7079  0.1450
  127SOPE  H16S13645   5.432   1.878   3.369  1.1301 -0.9502  0.2255
  127SOPE  C21713646   5.472   1.670   3.402 -0.2339 -0.9650 -0.3840
  127SOPE  H17R13647   5.554   1.708   3.466  1.6325 -0.8445 -2.6813
  127SOPE  H17S13648   5.524   1.649   3.306 -0.2349 -1.0196 -0.3728
  127SOPE  C21813649   5.402   1.545   3.450  0.2651 -0.3932  0.4965
  127SOPE  H18R13650   5.312   1.519   3.391 -0.2626  0.8387  0.7297
  127SOPE  H18S13651   5.371   1.544   3.557 -1.1057  1.6975  0.1919
  127SOPE  H18T13652   5.475   1.462   3.445 -0.6822 -1.1621 -3.4826
  127SOPE   C3313653   5.840   1.744   2.623 -0.1578 -0.1075  0.1359
  127SOPE   H3X13654   5.760   1.788   2.560  1.3840  0.3193 -1.6429
  127SOPE   H3Y13655   5.921   1.745   2.546 -2.9236  0.6016 -2.9958
  127SOPE   C3413656   5.877   1.827   2.740 -0.0336 -0.2537  0.3974
  127SOPE   H4X13657   5.891   1.931   2.702 -2.5213 -0.2488 -0.7790
  127SOPE   H4Y13658   5.969   1.778   2.777  0.5071  1.0908  0.9026
  127SOPE   C3513659   5.774   1.845   2.849  0.6635  0.6924  0.7382
  127SOPE   H5X13660   5.764   1.754   2.912 -2.1874 -0.7087 -1.5102
  127SOPE   H5Y13661   5.673   1.844   2.802  1.0708 -1.1203 -0.1904
  127SOPE   C3613662   5.792   1.973   2.931  0.7749  0.5364  0.0623
  127SOPE   H6X13663   5.813   2.051   2.854 -2.3574 -1.2179 -2.8465
  127SOPE   H6Y13664   5.887   1.955   2.985  0.5625 -2.4527 -0.3820
  127SOPE   C3713665   5.679   1.999   3.029 -0.4885  0.5763 -0.3320
  127SOPE   H7X13666   5.592   1.937   2.999 -1.5618  1.6241  0.5326
  127SOPE   H7Y13667   5.645   2.105   3.023 -0.7033  0.4740 -1.0356
  127SOPE   C3813668   5.712   1.961   3.179 -0.0889  0.0199  1.3148
  127SOPE   H8X13669   5.729   1.851   3.185 -0.8175 -0.2126 -0.4187
  127SOPE   H8Y13670   5.618   1.985   3.233 -1.1708 -1.2075  0.0566
  127SOPE   C3913671   5.824   2.041   3.241  0.5539 -0.3944 -0.5729
  127SOPE   H9X13672   5.794   2.148   3.236 -0.4922 -0.5599  1.2946
  127SOPE   H9Y13673   5.919   2.042   3.183 -1.3333  0.2354 -3.8730
  127SOPE  C31013674   5.872   2.011   3.385 -0.1248  0.0635  0.2106
  127SOPE  H10X13675   5.942   2.087   3.426 -0.9475  1.9483 -1.6888
  127SOPE  H10Y13676   5.915   1.908   3.387  1.0205  0.5246  2.5705
  127SOPE  C31113677   5.751   1.993   3.472 -0.0405  1.0890 -0.0213
  127SOPE  H11X13678   5.692   1.900   3.454  0.2018  0.7122  1.0021
  127SOPE  H11Y13679   5.682   2.075   3.445 -0.4039  0.7265 -0.2112
  127SOPE  C31213680   5.786   1.991   3.620  0.8189  0.1272 -0.4076
  127SOPE  H12X13681   5.862   2.071   3.634  0.9459 -0.0628 -0.0051
  127SOPE  H12Y13682   5.843   1.896   3.625  2.7066  1.2599  1.5802
  127SOPE  C31313683   5.666   1.984   3.720 -0.7964  0.2608  0.5319
  127SOPE  H13X13684   5.611   1.889   3.702  0.9594 -1.3699  3.0969
  127SOPE  H13Y13685   5.589   2.063   3.703  1.1460  2.0342 -0.4741
  127SOPE  C31413686   5.706   2.002   3.865 -0.3495 -0.3552  0.1943
  127SOPE  H14X13687   5.743   2.103   3.891 -1.2016 -0.1475  0.6556
  127SOPE  H14Y13688   5.782   1.925   3.888 -0.7516 -0.7944  0.0748
  127SOPE  C31513689   5.589   1.967   3.964  0.2094 -0.1872 -0.7563
  127SOPE  H15X13690   5.549   1.869   3.931  0.7823 -0.4885 -0.5766
  127SOPE  H15Y13691   5.494   2.023   3.959 -0.4504 -0.7477  2.7812
  127SOPE  C31613692   5.631   1.966   4.117 -0.1698 -0.9697  0.3926
  127SOPE  H16X13693   5.709   1.891   4.141 -0.5844 -0.4837  3.8525
  127SOPE  H16Y13694   5.544   1.928   4.175  0.1072 -1.5241  0.4574
  127SOPE  C31713695   5.668   2.106   4.161 -0.2781  0.9070  0.2426
  127SOPE  H17X13696   5.758   2.147   4.110 -1.4451  1.4361 -1.4885
  127SOPE  H17Y13697   5.701   2.095   4.267  0.4314  0.0022 -0.0550
  127SOPE  C31813698   5.550   2.202   4.153 -0.1236  0.1437  0.5206
  127SOPE  H18X13699   5.562   2.301   4.201 -0.7412  0.4084  0.1346
  127SOPE  H18Y13700   5.458   2.151   4.187  0.1180 -0.2907  0.5325
  127SOPE  H18Z13701   5.533   2.236   4.049  0.1987 -0.4848  0.2548
  128SOPE     N13702   0.237   1.900   1.631  0.2219 -0.0145  0.1718
  128SOPE   HN113703   0.338   1.880   1.643 -0.0535 -1.0549  0.8530
  128SOPE   HN213704   0.223   1.905   1.528  1.9419  1.7575 -0.0529
  128SOPE   HN313705   0.220   1.997   1.666 -0.0858  0.1933 -0.5368
  128SOPE   C1213706   0.150   1.793   1.695 -0.0796  0.1386  0.4071
  128SOPE  H12A13707   0.157   1.698   1.637 -1.2730  1.5867 -2.2419
  128SOPE  H12B13708   0.044   1.819   1.680  0.0163 -0.3770 -1.3393
  128SOPE   C1113709   0.183   1.779   1.842  0.2647  0.0015  0.0123
  128SOPE  H11A13710   0.111   1.703   1.880 -0.4424  0.4903 -0.3252
  128SOPE  H11B13711   0.152   1.866   1.904  2.4320 -0.4895  1.9447
  128SOPE     P13712   0.380   1.634   1.937 -0.1064  0.1393 -0.0605
  128SOPE   O1313713   0.529   1.653   1.952  0.3422  0.0853 -0.5771
  128SOPE   O1413714   0.344   1.517   1.861 -0.5608  0.2091 -0.5317
  128SOPE   O1213715   0.320   1.759   1.862 -0.0180 -0.4364  0.0650
  128SOPE   O1113716   0.301   1.633   2.075 -0.0415 -0.3127  0.1020
  128SOPE    C113717   0.337   1.721   2.181 -0.0096  0.1168  0.0018
  128SOPE    HA13718   0.245   1.757   2.232 -0.7740 -1.1603 -0.4074
  128SOPE    HB13719   0.387   1.810   2.139 -0.3836 -0.9357 -2.9285
  128SOPE    C213720   0.421   1.650   2.287  0.7019  0.5581  0.3322
  128SOPE    HS13721   0.507   1.617   2.224 -0.4384  0.6541 -1.3302
  128SOPE   O2113722   0.345   1.537   2.338 -0.4605 -0.9375 -0.7733
  128SOPE   C2113723   0.421   1.436   2.367  0.1674 -0.0738 -0.2155
  128SOPE   O2213724   0.530   1.420   2.313  0.2643 -0.2955 -0.4549
  128SOPE   C2213725   0.344   1.331   2.445  0.0580 -0.1040  0.0738
  128SOPE   H2R13726   0.340   1.240   2.381  1.1923 -0.4105  0.4133
  128SOPE   H2S13727   0.243   1.370   2.471  0.4885  0.2853  1.2086
  128SOPE    C313728   0.456   1.751   2.400 -0.7424  0.1008 -0.6596
  128SOPE    HX13729   0.379   1.774   2.476  0.2482 -2.1734  1.1747
  128SOPE    HY13730   0.484   1.853   2.365 -0.9534  0.0496 -0.9749
  128SOPE   O3113731   0.560   1.697   2.483 -0.5254  0.5015  0.3456
  128SOPE   C3113732   0.686   1.694   2.440 -0.2372 -0.2899 -0.5932
  128SOPE   O3213733   0.725   1.727   2.331  0.0750  0.1740 -0.1737
  128SOPE   C3213734   0.779   1.628   2.541  0.0457 -0.1108  0.0045
  128SOPE   H2X13735   0.817   1.537   2.488 -1.5248 -0.0353 -1.3341
  128SOPE   H2Y13736   0.716   1.581   2.619  1.3127  0.0497  1.1591
  128SOPE   C2313737   0.412   1.302   2.584  0.0937 -1.3400  0.6428
  128SOPE   H3R13738   0.510   1.253   2.561  0.6428 -0.1912  0.4645
  128SOPE   H3S13739   0.358   1.237   2.656 -1.0689  1.4524  2.4428
  128SOPE   C2413740   0.436   1.428   2.676  0.6499  0.4636 -0.3942
  128SOPE   H4R13741   0.478   1.390   2.772 -0.0010 -0.2664 -0.3885
  128SOPE   H4S13742   0.509   1.500   2.633  0.5709  1.0658  0.4628
  128SOPE   C2513743   0.308   1.505   2.713 -0.1488 -0.0274 -0.2852
  128SOPE   H5R13744   0.249   1.555   2.633 -0.1177  1.6874  0.7067
  128SOPE   H5S13745   0.240   1.435   2.767 -0.6528 -0.9866 -2.0851
  128SOPE   C2613746   0.328   1.615   2.820 -0.1261 -0.3576  0.1767
  128SOPE   H6R13747   0.396   1.571   2.897 -0.0491  0.6721  0.7106
  128SOPE   H6S13748   0.375   1.702   2.769 -0.1089  0.3026  1.2688
  128SOPE   C2713749   0.191   1.666   2.877 -0.0494  0.6767 -0.2798
  128SOPE   H7R13750   0.113   1.688   2.801  0.3465  2.3426 -0.2408
  128SOPE   H7S13751   0.171   1.587   2.953  1.0487 -1.0051 -1.6538
  128SOPE   C2813752   0.215   1.796   2.969  1.2380  0.1349  0.2862
  128SOPE   H8R13753   0.214   1.876   2.892  0.1481 -0.5537 -0.4415
  128SOPE   H8S13754   0.124   1.824   3.026  0.8324 -2.6012  1.1315
  128SOPE   C2913755   0.334   1.804   3.058 -0.0131  0.1840  0.1978
  128SOPE   H9113756   0.431   1.826   3.010  0.8331 -0.5391  1.5177
  128SOPE  C21013757   0.345   1.788   3.191  0.3133  0.7078  0.3388
  128SOPE  H10113758   0.445   1.784   3.237  1.8429  1.1952 -2.6993
  128SOPE  C21113759   0.225   1.757   3.277  0.2694  0.6709 -0.1343
  128SOPE  H11R13760   0.279   1.726   3.369  1.1509 -1.8647 -1.4069
  128SOPE  H11S13761   0.157   1.680   3.233 -1.7834  2.9282 -1.1408
  128SOPE  C21213762   0.139   1.873   3.332  0.2829 -0.6230  0.2141
  128SOPE  H12R13763   0.083   1.916   3.246  0.3909 -0.9133 -0.0051
  128SOPE  H12S13764   0.215   1.942   3.373 -1.3927  0.5139  1.4775
  128SOPE  C21313765   0.043   1.832   3.443 -0.2683 -0.2462 -0.4123
  128SOPE  H13R13766   0.095   1.788   3.531 -0.7378 -0.4065 -0.2078
  128SOPE  H13S13767  -0.033   1.754   3.422  0.5010 -0.6965 -1.5962
  128SOPE  C21413768  -0.046   1.945   3.488  0.6463 -0.4558  0.0741
  128SOPE  H14R13769   0.011   2.040   3.502  0.9461 -0.5181 -0.6789
  128SOPE  H14S13770  -0.111   1.910   3.571  0.3814 -0.0728  0.0319
  128SOPE  C21513771  -0.161   1.978   3.379 -0.6155  0.1366  0.4848
  128SOPE  H15R13772  -0.221   1.888   3.352 -0.3590  0.3423 -0.8198
  128SOPE  H15S13773  -0.115   2.009   3.283 -0.0531 -1.0081  0.3664
  128SOPE  C21613774  -0.255   2.084   3.428 -0.3566 -0.8914  0.1411
  128SOPE  H16R13775  -0.216   2.188   3.418 -1.9867 -0.2924 -0.3049
  128SOPE  H16S13776  -0.270   2.071   3.538 -2.5265 -0.7583 -0.1031
  128SOPE  C21713777  -0.397   2.076   3.369  0.0940  1.0854 -0.0988
  128SOPE  H17R13778  -0.384   2.074   3.259  1.4156 -2.3360  0.0140
  128SOPE  H17S13779  -0.460   2.164   3.396  2.0986  2.7717 -0.7123
  128SOPE  C21813780  -0.472   1.943   3.393 -0.1919  0.2255  0.1229
  128SOPE  H18R13781  -0.438   1.859   3.328 -2.9348 -0.8932 -0.0110
  128SOPE  H18S13782  -0.580   1.956   3.368 -0.4204 -2.8914 -0.9885
  128SOPE  H18T13783  -0.463   1.914   3.500  0.0052 -1.9649 -0.4426
  128SOPE   C3313784   0.889   1.717   2.608 -0.9021 -0.2629  0.7256
  128SOPE   H3X13785   0.892   1.825   2.580  2.6502 -0.6737 -0.9344
  128SOPE   H3Y13786   0.989   1.685   2.573 -0.9310 -0.0719  0.4587
  128SOPE   C3413787   0.888   1.715   2.760 -0.6188 -0.1564  0.5437
  128SOPE   H4X13788   0.968   1.779   2.803 -1.1406 -0.8617  2.6846
  128SOPE   H4Y13789   0.899   1.611   2.796 -0.3680 -0.5591 -0.6601
  128SOPE   C3513790   0.770   1.790   2.827 -0.5927  0.0394  0.3601
  128SOPE   H5X13791   0.682   1.772   2.763  0.2746  0.8100 -1.1145
  128SOPE   H5Y13792   0.773   1.901   2.821  0.6622  0.0503  0.8707
  128SOPE   C3613793   0.741   1.744   2.975  0.1068  0.3808  0.5034
  128SOPE   H6X13794   0.729   1.633   2.970 -1.3750  0.5578 -0.3906
  128SOPE   H6Y13795   0.644   1.788   3.004 -0.3196  0.5044 -1.0402
  128SOPE   C3713796   0.842   1.776   3.073  0.4729  0.2578 -0.2809
  128SOPE   H7X13797   0.874   1.882   3.061  2.0170 -0.4602 -3.7024
  128SOPE   H7Y13798   0.936   1.724   3.042  1.0763  0.0006  1.8561
  128SOPE   C3813799   0.812   1.731   3.215 -0.2014 -0.2573  0.3995
  128SOPE   H8X13800   0.908   1.741   3.270 -1.5984 -1.7127  3.3311
  128SOPE   H8Y13801   0.762   1.632   3.216 -1.0056 -0.0825 -4.1910
  128SOPE   C3913802   0.727   1.839   3.283 -0.2052 -0.1665  0.3166
  128SOPE   H9X13803   0.632   1.853   3.227 -0.1642  0.1185  0.3153
  128SOPE   H9Y13804   0.770   1.942   3.283  2.6774 -1.2961 -0.5504
  128SOPE  C31013805   0.709   1.807   3.434 -0.7451  0.6552  0.3526
  128SOPE  H10X13806   0.798   1.778   3.493 -0.5828 -0.6392 -0.4741
  128SOPE  H10Y13807   0.665   1.705   3.436  0.9765 -0.1106  1.6653
  128SOPE  C31113808   0.637   1.912   3.520 -0.5059  0.0446  0.1767
  128SOPE  H11X13809   0.563   1.964   3.455  0.0501  1.3408  0.5291
  128SOPE  H11Y13810   0.708   1.990   3.556  0.2701 -1.1759  1.3463
  128SOPE  C31213811   0.586   1.845   3.652  0.6726 -0.3387  0.7490
  128SOPE  H12X13812   0.666   1.774   3.681  2.7733  1.3007 -0.7205
  128SOPE  H12Y13813   0.498   1.782   3.626  1.0853 -0.1203 -1.3340
  128SOPE  C31313814   0.535   1.943   3.759 -0.0247 -0.4581 -0.1238
  128SOPE  H13X13815   0.477   1.886   3.835  0.1897  0.2340  0.5661
  128SOPE  H13Y13816   0.466   2.016   3.713  0.2013  1.9251  3.0256
  128SOPE  C31413817   0.655   2.020   3.825 -0.7727  0.0968 -0.0817
  128SOPE  H14X13818   0.693   2.110   3.772  0.9975  1.3574  3.0221
  128SOPE  H14Y13819   0.728   1.938   3.843 -2.0869 -0.7371  1.7328
  128SOPE  C31513820   0.630   2.057   3.969  0.1495 -0.4213  0.0067
  128SOPE  H15X13821   0.593   1.968   4.025 -0.0806 -0.4184 -0.1386
  128SOPE  H15Y13822   0.546   2.129   3.967 -0.2519 -0.8977 -0.6663
  128SOPE  C31613823   0.746   2.123   4.047 -0.5141 -0.1935  0.5743
  128SOPE  H16X13824   0.773   2.226   4.016  1.0458  0.2999  3.2684
  128SOPE  H16Y13825   0.840   2.065   4.036 -0.2365  0.3342  0.1767
  128SOPE  C31713826   0.722   2.102   4.196  0.5533  0.3006  0.3080
  128SOPE  H17X13827   0.721   1.996   4.230 -1.9306  0.6176  1.4250
  128SOPE  H17Y13828   0.618   2.137   4.207  0.1105 -0.8761  0.0483
  128SOPE  C31813829   0.803   2.193   4.285  0.7408 -0.0587 -0.3886
  128SOPE  H18X13830   0.774   2.172   4.390 -0.1449  0.5605 -0.5016
  128SOPE  H18Y13831   0.770   2.299   4.277  0.8396  0.0085  0.0464
  128SOPE  H18Z13832   0.912   2.181   4.268  0.8458  0.6606 -0.2858
  129OSM      N13833   2.886   4.717   6.240 -0.2699  0.3657  0.9482
  129OSM    C1513834   2.825   4.627   6.346 -0.5782 -0.0493 -0.6189
  129OSM   H15A13835   2.848   4.678   6.439  2.0165  0.7199 -1.5865
  129OSM   H15B13836   2.862   4.527   6.361  0.9787  0.5072 -0.5351
  129OSM   H15C13837   2.718   4.622   6.345 -0.5864 -0.0517  0.0145
  129OSM    C1413838   2.836   4.857   6.254 -0.0512 -0.3461 -0.1320
  129OSM   H14A13839   2.893   4.933   6.204 -0.6459 -0.4730 -1.0263
  129OSM   H14B13840   2.825   4.885   6.357  1.8299 -1.4060  0.4067
  129OSM   H14C13841   2.735   4.870   6.219 -0.5546 -0.1394  1.3376
  129OSM    C1313842   3.034   4.726   6.274  0.2948 -0.3029 -0.5214
  129OSM   H13A13843   3.077   4.628   6.260  1.4251  0.3055 -1.5314
  129OSM   H13B13844   3.051   4.768   6.371  1.5340  1.5560 -1.4844
  129OSM   H13C13845   3.084   4.792   6.204  1.7950 -1.3856 -0.5058
  129OSM    C1213846   2.859   4.667   6.099 -0.1154  0.3125  0.2857
  129OSM   H12A13847   2.892   4.735   6.022  0.1512  1.4033  1.3350
  129OSM   H12B13848   2.755   4.640   6.086 -0.1730  0.7743 -0.2385
  129OSM    C1113849   2.920   4.532   6.057  0.1507  0.5724 -0.4692
  129OSM   H11A13850   2.872   4.499   5.962 -1.2619 -0.9968  0.7326
  129OSM   H11B13851   2.899   4.454   6.133 -0.0061  0.0832 -1.0109
  129OSM      P13852   3.143   4.437   5.956 -0.5977  0.1223  0.5593
  129OSM    O1313853   3.281   4.441   6.007  0.4142  0.3762  0.1361
  129OSM    O1413854   3.067   4.307   5.964  0.6555 -0.7126 -0.2872
  129OSM    O1113855   3.141   4.474   5.803 -0.1642 -0.2052 -0.0550
  129OSM    O1213856   3.057   4.543   6.032  0.1003  0.0356  0.6236
  129OSM    C1S13857   3.142   4.609   5.768 -0.0307  0.4471 -0.4888
  129OSM    H1S13858   3.238   4.665   5.772  0.0071  0.4527 -1.2444
  129OSM    H1T13859   3.069   4.666   5.828  0.3812 -0.3036  0.7620
  129OSM     NF13860   3.131   4.752   5.564 -0.0051 -0.4767  0.3640
  129OSM    HNF13861   3.058   4.806   5.523 -0.0116 -0.3750  0.5050
  129OSM    C2S13862   3.082   4.620   5.621  0.1633 -0.4168 -0.0660
  129OSM    H2S13863   3.130   4.543   5.558 -0.8265 -1.9071  0.9233
  129OSM    C3S13864   2.924   4.593   5.619  0.5589  1.3786 -0.3538
  129OSM    H3S13865   2.870   4.675   5.670 -0.4248  0.2672  0.4406
  129OSM     O313866   2.871   4.482   5.691  0.0953 -0.8171  0.2593
  129OSM    HO313867   2.948   4.432   5.721  0.8701  0.1076 -0.1591
  129OSM    C4S13868   2.878   4.592   5.478 -0.1693 -0.7750  0.0134
  129OSM    H4S13869   2.852   4.691   5.437  1.2897  0.2665  1.4669
  129OSM    C5S13870   2.876   4.490   5.389 -0.0348  0.4557 -0.3394
  129OSM    H5S13871   2.894   4.387   5.424 -3.1974  0.5094  1.8688
  129OSM    C6S13872   2.828   4.502   5.245  0.1189  0.2059 -0.2842
  129OSM    H6S13873   2.722   4.476   5.223 -0.5164  3.5182 -1.8844
  129OSM    H6T13874   2.906   4.451   5.184  1.1726  1.3383  0.0744
  129OSM    C7S13875   2.841   4.647   5.189 -0.1214  0.9172  0.1219
  129OSM    H7S13876   2.926   4.694   5.243  0.6123 -2.2922  1.9748
  129OSM    H7T13877   2.752   4.707   5.219 -0.0375 -0.0809  2.6606
  129OSM    C8S13878   2.865   4.643   5.040  0.7864  0.8699  0.9863
  129OSM    H8S13879   2.964   4.594   5.025  1.5555  2.0820  1.8202
  129OSM    H8T13880   2.867   4.749   5.006 -1.5819  1.2525  1.8492
  129OSM    C9S13881   2.759   4.565   4.965 -0.1144 -0.3271  0.4009
  129OSM    H9S13882   2.655   4.581   5.000  0.5820  0.4253  2.2634
  129OSM    H9T13883   2.773   4.457   4.990 -0.0708 -0.2954  0.5149
  129OSM   C10S13884   2.759   4.574   4.807 -0.0743  0.5598  0.6173
  129OSM   H10S13885   2.694   4.495   4.763  0.5496  0.3965 -0.0302
  129OSM   H10T13886   2.858   4.547   4.766 -1.9273 -1.9891 -2.6615
  129OSM   C11S13887   2.722   4.709   4.749  0.4628  0.0574  0.1319
  129OSM   H11S13888   2.798   4.782   4.786  2.0614 -0.7176 -1.4369
  129OSM   H11T13889   2.623   4.748   4.780  0.8234  0.5548  0.6725
  129OSM   C12S13890   2.728   4.714   4.598  0.1442  0.0490  0.0060
  129OSM   H12S13891   2.643   4.650   4.564  0.9227  0.2454 -2.5058
  129OSM   H12T13892   2.827   4.672   4.568 -0.3016 -1.4147  0.4701
  129OSM   C13S13893   2.710   4.851   4.538 -0.6706 -0.3535  0.2124
  129OSM   H13S13894   2.641   4.913   4.599  1.0095  0.9795  0.8625
  129OSM   H13T13895   2.673   4.856   4.434  0.4197  1.6221 -0.1491
  129OSM   C14S13896   2.845   4.925   4.545 -0.5496  0.7833 -0.9797
  129OSM   H14S13897   2.931   4.859   4.523  0.7241  1.3994  1.7339
  129OSM   H14T13898   2.871   4.943   4.651 -0.8573  0.0710 -0.7804
  129OSM   C15S13899   2.858   5.049   4.460  0.4046 -0.5813 -0.3615
  129OSM   H15S13900   2.840   5.140   4.521  1.1804 -0.5869 -0.1044
  129OSM   H15T13901   2.774   5.052   4.388 -0.3258  2.1610  0.4748
  129OSM   C16S13902   2.996   5.071   4.380  0.1459 -0.8809  0.1578
  129OSM   H16S13903   3.026   4.984   4.317 -1.0156 -0.4237 -1.0811
  129OSM   H16T13904   3.075   5.108   4.448 -0.9966  2.9497 -0.3416
  129OSM   C17S13905   2.996   5.187   4.281  0.0908 -0.1241 -0.1510
  129OSM   H17S13906   2.982   5.283   4.334  3.2273  0.3963 -0.0411
  129OSM   H17T13907   2.916   5.171   4.207  0.1015 -1.9174  0.1756
  129OSM   C18S13908   3.130   5.206   4.211  0.3635 -0.0613 -0.5474
  129OSM   H18S13909   3.138   5.144   4.120  1.9349  1.6420 -1.6413
  129OSM   H18T13910   3.218   5.189   4.277 -1.7800 -2.4561  1.9736
  129OSM   H18U13911   3.124   5.305   4.162 -2.4625  0.0059 -0.2608
  129OSM    C1F13912   3.258   4.791   5.536  0.1471  0.0051 -0.6722
  129OSM     OF13913   3.353   4.720   5.569  0.1839  0.3958  0.2591
  129OSM    C2F13914   3.272   4.910   5.447 -0.2453  1.1455  0.9589
  129OSM    H2F13915   3.320   4.993   5.503  2.3907  0.1363  0.3336
  129OSM    H2G13916   3.167   4.922   5.414 -0.9014  1.5623  3.0484
  129OSM    C3F13917   3.379   4.872   5.337 -0.2049  0.0503 -0.5076
  129OSM    H3F13918   3.468   4.837   5.394  0.1713  0.8778 -0.5620
  129OSM    H3G13919   3.401   4.956   5.268  0.4294  0.0541 -0.3142
  129OSM    C4F13920   3.333   4.766   5.237  0.1446 -0.6262 -0.6464
  129OSM    H4F13921   3.244   4.805   5.183 -1.1935  0.9029  2.4219
  129OSM    H4G13922   3.301   4.671   5.284  0.3789 -0.8835 -1.0004
  129OSM    C5F13923   3.440   4.720   5.141 -0.3192  0.2895 -0.5292
  129OSM    H5F13924   3.455   4.610   5.132  0.0108  0.3327 -0.5108
  129OSM    H5G13925   3.542   4.747   5.177 -0.6062  1.4949 -0.5618
  129OSM    C6F13926   3.420   4.783   4.995 -0.1689  0.0256 -0.8375
  129OSM    H6F13927   3.510   4.762   4.934 -1.5753 -2.5359 -2.1722
  129OSM    H6G13928   3.406   4.891   5.020 -0.7647 -0.2323 -0.0082
  129OSM    C7F13929   3.300   4.733   4.909 -0.1895  0.6640 -0.4208
  129OSM    H7F13930   3.201   4.743   4.957 -0.1874 -1.1576  0.0570
  129OSM    H7G13931   3.317   4.623   4.902 -0.5640  0.4079  1.9380
  129OSM    C8F13932   3.300   4.790   4.766  0.1808 -0.1092 -0.0887
  129OSM    H8F13933   3.400   4.814   4.723  0.1907 -1.7299 -1.0284
  129OSM    H8G13934   3.270   4.897   4.776 -0.1223 -0.0584 -1.3343
  129OSM    C9F13935   3.227   4.708   4.664  0.2073  0.2454 -0.5987
  129OSM    H9F13936   3.118   4.721   4.663 -0.0371 -1.3784 -2.8616
  129OSM   C10F13937   3.273   4.606   4.595  0.3811  0.4328 -0.6158
  129OSM   H10F13938   3.207   4.551   4.527 -1.4302  0.3278  1.1620
  129OSM   C11F13939   3.411   4.554   4.611  0.2389  0.2264 -0.3921
  129OSM   H11F13940   3.415   4.496   4.705 -0.8338 -0.6796 -0.8777
  129OSM   H11G13941   3.488   4.634   4.611 -0.5982  1.1383 -2.9666
  129OSM   C12F13942   3.451   4.455   4.496 -0.4365  0.2424 -0.1035
  129OSM   H12F13943   3.383   4.367   4.501  1.0595 -0.9542  0.2312
  129OSM   H12G13944   3.555   4.417   4.508 -0.1474  1.3722  1.1885
  129OSM   C13F13945   3.437   4.524   4.356 -0.0159 -0.2035 -0.0620
  129OSM   H13F13946   3.515   4.603   4.354 -0.2445  0.0302 -1.6887
  129OSM   H13G13947   3.339   4.575   4.343 -0.7798 -1.8335 -1.1100
  129OSM   C14F13948   3.455   4.426   4.241  0.1009 -0.0857  0.6620
  129OSM   H14F13949   3.553   4.374   4.246  0.2753  0.3371  2.1935
  129OSM   H14G13950   3.449   4.490   4.151 -1.1774  1.4640  1.8055
  129OSM   C15F13951   3.324   4.331   4.218 -0.5435  0.5557  0.0167
  129OSM   H15F13952   3.223   4.377   4.213 -0.4242  1.0734  1.7658
  129OSM   H15G13953   3.320   4.256   4.299 -0.5067  0.9360  0.3754
  129OSM   C16F13954   3.338   4.269   4.076  0.6720 -0.0179 -0.7495
  129OSM   H16F13955   3.441   4.238   4.051 -0.0400 -1.6040 -1.9521
  129OSM   H16G13956   3.313   4.348   4.001 -0.1258 -1.3367 -1.9215
  129OSM   C17F13957   3.228   4.159   4.066  0.1276 -0.0805 -0.2761
  129OSM   H17F13958   3.194   4.152   3.960 -0.2948  0.2362 -0.1636
  129OSM   H17G13959   3.139   4.188   4.125  1.2484  1.3311  0.7909
  129OSM   C18F13960   3.288   4.022   4.099 -0.3396 -0.5470 -0.4862
  129OSM   H18F13961   3.346   3.989   4.010 -0.6629  0.1287 -0.9597
  129OSM   H18G13962   3.203   3.953   4.117 -0.8497  0.5284  1.5672
  129OSM   H18H13963   3.358   4.034   4.184  0.1128 -1.2599 -0.7477
  130OSM      N13964   3.796   4.777   6.145 -0.1976 -0.1630 -0.3072
  130OSM    C1513965   3.778   4.763   6.289 -0.3403  0.1987 -0.6762
  130OSM   H15A13966   3.713   4.680   6.313  0.7382 -0.6634 -0.6451
  130OSM   H15B13967   3.718   4.846   6.322 -1.5053 -0.6161 -0.6780
  130OSM   H15C13968   3.866   4.745   6.348  0.1978 -2.8123 -2.1959
  130OSM    C1413969   3.833   4.643   6.090 -0.0196 -0.2281  0.2909
  130OSM   H14A13970   3.935   4.614   6.113  1.0470  2.1980 -0.9519
  130OSM   H14B13971   3.834   4.650   5.982  1.4288  1.8686  0.3810
  130OSM   H14C13972   3.767   4.571   6.136  1.2041 -1.2735  0.4644
  130OSM    C1313973   3.662   4.824   6.079 -0.4384 -0.5708  0.0075
  130OSM   H13A13974   3.674   4.869   5.981 -0.8779  0.4065  0.3960
  130OSM   H13B13975   3.587   4.873   6.138 -0.9990  0.0326 -1.1765
  130OSM   H13C13976   3.608   4.734   6.055 -1.4217  0.3585 -1.4232
  130OSM    C1213977   3.903   4.884   6.124  0.2215 -0.1570  0.3685
  130OSM   H12A13978   3.907   4.903   6.018 -1.3464  2.6391  0.7216
  130OSM   H12B13979   3.998   4.850   6.162  0.4693  1.9018  1.7387
  130OSM    C1113980   3.891   5.027   6.184  0.5896 -0.4255 -0.2246
  130OSM   H11A13981   3.869   5.013   6.292 -1.1112 -0.8634 -0.6009
  130OSM   H11B13982   3.795   5.067   6.146  1.4939 -0.1194 -2.3008
  130OSM      P13983   4.021   5.178   6.027 -0.0877  0.6406  0.0090
  130OSM    O1313984   3.936   5.297   6.052  0.2804 -0.0925 -0.9707
  130OSM    O1413985   4.164   5.204   6.008 -0.6234 -0.2193  0.5487
  130OSM    O1113986   3.961   5.089   5.910  0.1055  0.6822 -0.0541
  130OSM    O1213987   4.007   5.094   6.162 -0.0453 -0.7565  0.4730
  130OSM    C1S13988   3.837   5.117   5.842  0.3542  0.2259  0.4714
  130OSM    H1S13989   3.806   5.223   5.846  3.4693  1.2508  0.2877
  130OSM    H1T13990   3.758   5.045   5.874  0.9437 -0.6393  0.0310
  130OSM     NF13991   3.731   5.109   5.611 -0.3076  0.3798 -0.1958
  130OSM    HNF13992   3.671   5.034   5.582  0.6050 -1.0893  1.4915
  130OSM    C2S13993   3.860   5.084   5.689  0.8392 -0.6803  0.3656
  130OSM    H2S13994   3.937   5.157   5.657 -0.1236  0.0688 -0.2727
  130OSM    C3S13995   3.908   4.935   5.670 -0.1132 -1.1653  0.1639
  130OSM    H3S13996   3.823   4.874   5.706 -1.3900  0.4641  0.0374
  130OSM     O313997   4.019   4.882   5.748 -0.1205 -0.1198 -0.0369
  130OSM    HO313998   4.028   4.945   5.820  1.7005  0.2734 -0.5684
  130OSM    C4S13999   3.922   4.913   5.524  0.4429  0.4300  0.3545
  130OSM    H4S14000   3.834   4.893   5.461 -0.2525  0.7272  1.2110
  130OSM    C5S14001   4.041   4.925   5.466  0.3993 -0.1484 -0.3414
  130OSM    H5S14002   4.126   4.936   5.535  1.0696  0.1022 -1.1922
  130OSM    C6S14003   4.071   4.897   5.319 -0.1110  0.2143  0.0579
  130OSM    H6S14004   4.127   4.806   5.289  1.2194  1.5126 -1.5580
  130OSM    H6T14005   4.131   4.987   5.295  0.3025  0.5089  1.9978
  130OSM    C7S14006   3.948   4.887   5.229  0.3435 -0.4559  0.0685
  130OSM    H7S14007   3.880   4.974   5.244  0.7103  0.0351 -1.0057
  130OSM    H7T14008   3.890   4.797   5.256  0.9368 -1.6167 -2.2289
  130OSM    C8S14009   3.980   4.878   5.080  0.9740  0.2213  0.2586
  130OSM    H8S14010   4.061   4.802   5.082 -0.2589 -1.1390  3.0733
  130OSM    H8T14011   4.008   4.982   5.051 -0.2855  0.3875 -0.4185
  130OSM    C9S14012   3.860   4.825   4.998 -0.6118 -0.5414 -0.6039
  130OSM    H9S14013   3.776   4.895   5.017 -1.2358 -1.8025  1.5476
  130OSM    H9T14014   3.831   4.724   5.034  2.1221 -1.1484  0.1283
  130OSM   C10S14015   3.905   4.800   4.851  0.3018  0.0294 -0.3176
  130OSM   H10S14016   3.984   4.723   4.839  0.1116 -0.2626  0.2569
  130OSM   H10T14017   3.947   4.898   4.821  0.5757 -0.4693 -1.6376
  130OSM   C11S14018   3.783   4.768   4.757 -0.6653 -0.0553 -0.0956
  130OSM   H11S14019   3.723   4.693   4.813 -0.6710  0.2388  0.2964
  130OSM   H11T14020   3.816   4.729   4.658 -1.4648  2.1525 -1.3078
  130OSM   C12S14021   3.686   4.890   4.740  0.3657 -0.0915 -0.2661
  130OSM   H12S14022   3.647   4.935   4.834  1.1591 -1.4834  0.7797
  130OSM   H12T14023   3.603   4.845   4.680  0.8561 -1.7634  0.2359
  130OSM   C13S14024   3.743   4.992   4.637  0.3448 -0.2413  0.3957
  130OSM   H13S14025   3.787   4.934   4.553  0.8192  0.8767 -0.1495
  130OSM   H13T14026   3.824   5.045   4.691 -0.6299  0.6398  1.0208
  130OSM   C14S14027   3.654   5.111   4.584  0.1868  0.6437 -0.4404
  130OSM   H14S14028   3.712   5.186   4.525  0.4973  1.6506  1.0812
  130OSM   H14T14029   3.628   5.176   4.671  3.8012  0.3721  1.0384
  130OSM   C15S14030   3.521   5.078   4.514 -0.0517  0.9488  0.2407
  130OSM   H15S14031   3.461   5.168   4.487 -0.5757 -0.5138 -4.4419
  130OSM   H15T14032   3.451   5.020   4.578 -0.7771  0.8914 -0.5867
  130OSM   C16S14033   3.537   5.007   4.376  0.1652  0.3326 -0.2121
  130OSM   H16S14034   3.557   4.898   4.386 -1.7295 -0.0153  0.0500
  130OSM   H16T14035   3.630   5.043   4.326 -0.4676  0.9682 -0.9577
  130OSM   C17S14036   3.422   5.026   4.284  0.5139 -0.6921  0.1145
  130OSM   H17S14037   3.404   5.133   4.261  2.2152 -0.5703 -0.8679
  130OSM   H17T14038   3.323   4.987   4.315  0.7409 -0.8229  0.6934
  130OSM   C18S14039   3.430   4.949   4.152 -0.2596 -0.1379 -0.1943
  130OSM   H18S14040   3.347   4.962   4.080  1.7825 -1.7750 -3.0631
  130OSM   H18T14041   3.442   4.843   4.183  0.9062 -0.2139 -0.8306
  130OSM   H18U14042   3.518   4.984   4.095 -1.9400  0.8290 -2.3277
  130OSM    C1F14043   3.682   5.232   5.590 -0.2167  0.1553  0.5533
  130OSM     OF14044   3.758   5.332   5.601  0.4949 -0.5930 -0.1064
  130OSM    C2F14045   3.540   5.248   5.560  0.4901  0.6049  0.4325
  130OSM    H2F14046   3.499   5.301   5.649 -0.9639  0.4790 -0.1344
  130OSM    H2G14047   3.485   5.151   5.565 -0.4933  1.1671  0.7822
  130OSM    C3F14048   3.517   5.335   5.431  0.1370 -0.5917  0.6658
  130OSM    H3F14049   3.548   5.276   5.343 -0.0949 -0.4716  0.5028
  130OSM    H3G14050   3.577   5.428   5.436  1.4578 -1.2355 -1.7879
  130OSM    C4F14051   3.363   5.358   5.413 -0.3963 -0.3983  0.2103
  130OSM    H4F14052   3.328   5.421   5.497 -0.8099  0.7797 -0.8118
  130OSM    H4G14053   3.324   5.255   5.428  0.6977 -1.4359 -3.1384
  130OSM    C5F14054   3.308   5.428   5.289  0.0132 -0.4888  0.0443
  130OSM    H5F14055   3.200   5.447   5.303 -0.1512 -0.7515 -0.7704
  130OSM    H5G14056   3.325   5.368   5.196  0.3715  4.4074 -3.4581
  130OSM    C6F14057   3.370   5.570   5.257 -0.3088  0.5762 -0.2384
  130OSM    H6F14058   3.324   5.611   5.165  1.1731 -0.1759 -1.3339
  130OSM    H6G14059   3.479   5.562   5.241 -0.2473  1.8477 -0.5240
  130OSM    C7F14060   3.335   5.672   5.378 -0.1661  0.2888  0.2145
  130OSM    H7F14061   3.379   5.770   5.349  1.0935 -0.3092  0.0246
  130OSM    H7G14062   3.393   5.641   5.468 -1.5849  1.1007  1.4403
  130OSM    C8F14063   3.183   5.686   5.412 -0.2764 -0.2480 -0.3072
  130OSM    H8F14064   3.156   5.600   5.477  0.8510  0.8330  1.7095
  130OSM    H8G14065   3.125   5.683   5.317  2.2836  0.2111 -2.0138
  130OSM    C9F14066   3.155   5.815   5.485  0.3951 -0.0721  0.0179
  130OSM    H9F14067   3.220   5.828   5.573 -0.3074  1.5590  0.3276
  130OSM   C10F14068   3.118   5.925   5.424  0.9081  0.0043 -0.8267
  130OSM   H10F14069   3.095   6.016   5.481 -2.3910 -1.3588  0.2467
  130OSM   C11F14070   3.100   5.945   5.277  0.1130 -0.4482 -0.1872
  130OSM   H11F14071   3.007   5.900   5.239  0.6585 -1.1137 -0.7522
  130OSM   H11G14072   3.174   5.885   5.219  1.2277  0.5133  0.1790
  130OSM   C12F14073   3.114   6.088   5.214  0.5568 -0.3273 -0.1698
  130OSM   H12F14074   3.224   6.106   5.212  0.2798  1.9037  1.3555
  130OSM   H12G14075   3.077   6.183   5.256  1.4254 -0.2094  0.3476
  130OSM   C13F14076   3.068   6.099   5.065 -0.5142  1.0000 -1.0175
  130OSM   H13F14077   3.066   6.208   5.044 -3.1417  0.8211 -2.0648
  130OSM   H13G14078   2.970   6.049   5.049  0.1543 -1.0732  0.8638
  130OSM   C14F14079   3.166   6.039   4.962  0.3267 -0.3465  0.0209
  130OSM   H14F14080   3.199   5.940   5.000  1.5193  0.1256  0.2387
  130OSM   H14G14081   3.245   6.116   4.950 -0.4176  0.6477  1.2127
  130OSM   C15F14082   3.103   6.012   4.827  0.3245 -0.3512 -0.4324
  130OSM   H15F14083   3.054   6.104   4.788  0.7039  0.8908  1.8444
  130OSM   H15G14084   3.017   5.943   4.836 -1.4943  1.6009 -1.7998
  130OSM   C16F14085   3.213   5.969   4.727 -0.4949  0.6270  0.0452
  130OSM   H16F14086   3.250   5.874   4.772  0.7641  0.9812 -0.1913
  130OSM   H16G14087   3.300   6.037   4.713 -1.1116  0.9389 -2.8906
  130OSM   C17F14088   3.165   5.943   4.585 -0.2976 -0.5695 -0.1984
  130OSM   H17F14089   3.135   6.044   4.547 -0.8340  0.6081  3.0172
  130OSM   H17G14090   3.077   5.876   4.595  0.6222 -1.6560  0.8216
  130OSM   C18F14091   3.266   5.887   4.490  0.0212  0.1925  0.8516
  130OSM   H18F14092   3.360   5.943   4.470  1.1158 -2.4553 -2.4041
  130OSM   H18G14093   3.222   5.874   4.389 -0.0482  0.2185  0.8782
  130OSM   H18H14094   3.300   5.792   4.537 -1.2174 -0.6495  0.0944
  131OSM      N14095   3.768   1.585   5.989  1.2439  0.5461  0.1670
  131OSM    C1514096   3.901   1.513   5.984 -0.6839  0.5214  0.5048
  131OSM   H15A14097   3.892   1.410   6.014  0.6667  0.6574  1.4575
  131OSM   H15B14098   3.970   1.543   6.061  0.6712 -1.4454  0.1299
  131OSM   H15C14099   3.944   1.511   5.885 -2.9593 -2.4296 -0.5863
  131OSM    C1414100   3.687   1.501   5.890 -0.2829  0.2056 -0.0071
  131OSM   H14A14101   3.582   1.524   5.901 -0.2080 -0.7342  3.7364
  131OSM   H14B14102   3.699   1.395   5.905  0.8141  0.2252 -0.5778
  131OSM   H14C14103   3.718   1.513   5.787  1.7669 -1.4076  0.3495
  131OSM    C1314104   3.714   1.563   6.124  0.1664 -0.0742  0.0199
  131OSM   H13A14105   3.755   1.640   6.189  1.5901  1.0527 -2.0875
  131OSM   H13B14106   3.740   1.467   6.166  1.1253  0.1939  0.0617
  131OSM   H13C14107   3.608   1.586   6.126 -0.2777 -1.9864  0.4610
  131OSM    C1214108   3.777   1.725   5.950 -0.8183  0.0637 -0.1011
  131OSM   H12A14109   3.819   1.735   5.851  1.8789  1.4090  1.0913
  131OSM   H12B14110   3.854   1.772   6.009  0.6564  0.0494 -1.9102
  131OSM    C1114111   3.658   1.821   5.961 -0.2567 -0.1863 -0.2947
  131OSM   H11A14112   3.648   1.835   6.071  0.6623  0.3270 -0.2728
  131OSM   H11B14113   3.573   1.782   5.902  0.2455 -1.3491 -0.2671
  131OSM      P14114   3.738   2.070   5.961 -0.5440  0.2163  0.2210
  131OSM    O1314115   3.646   2.112   6.068  0.7437 -0.1251 -0.5512
  131OSM    O1414116   3.874   2.039   6.002 -0.0497  0.5521  0.4441
  131OSM    O1114117   3.729   2.170   5.845  0.1164 -0.4735  0.8386
  131OSM    O1214118   3.691   1.941   5.895  0.7764  0.0235  0.1930
  131OSM    C1S14119   3.846   2.250   5.809  0.0791 -0.0477  0.0397
  131OSM    H1S14120   3.932   2.224   5.875 -1.0668 -2.1512  0.8092
  131OSM    H1T14121   3.830   2.360   5.819  2.3410  0.7552 -3.4002
  131OSM     NF14122   4.021   2.308   5.636  0.1985  0.4422  0.1676
  131OSM    HNF14123   4.022   2.392   5.583  1.8189  0.2543 -0.1559
  131OSM    C2S14124   3.895   2.238   5.658 -0.0198 -0.0920  0.4010
  131OSM    H2S14125   3.907   2.130   5.634  1.3465  0.0196  0.5030
  131OSM    C3S14126   3.773   2.277   5.569 -0.2701  0.5524  0.4111
  131OSM    H3S14127   3.745   2.380   5.599 -0.5085  1.7191 -3.3554
  131OSM     O314128   3.658   2.197   5.600  0.3399  0.1413  0.6837
  131OSM    HO314129   3.686   2.157   5.682 -0.0966 -2.4594 -0.3240
  131OSM    C4S14130   3.822   2.283   5.428  0.6445  0.9402  1.2979
  131OSM    H4S14131   3.913   2.339   5.403 -0.9463  2.5951 -1.2875
  131OSM    C5S14132   3.788   2.189   5.335  0.1932 -0.2323  0.3807
  131OSM    H5S14133   3.715   2.113   5.368 -1.6731  1.2131 -0.2398
  131OSM    C6S14134   3.833   2.182   5.189 -0.0386 -0.5267 -0.3338
  131OSM    H6S14135   3.900   2.097   5.162 -1.4080 -1.4759 -0.9021
  131OSM    H6T14136   3.899   2.267   5.163 -0.9762  0.4854  0.5291
  131OSM    C7S14137   3.718   2.197   5.090  0.0888  0.1936 -0.1665
  131OSM    H7S14138   3.646   2.280   5.111 -0.3513 -0.5885  1.6049
  131OSM    H7T14139   3.661   2.102   5.091  0.7758 -0.2233  1.1843
  131OSM    C8S14140   3.748   2.215   4.936 -0.1442 -0.2477 -0.3710
  131OSM    H8S14141   3.775   2.323   4.932 -0.3145 -0.2378 -1.5270
  131OSM    H8T14142   3.653   2.208   4.879 -1.2600  1.7748  1.1169
  131OSM    C9S14143   3.852   2.123   4.878  0.2383  1.2000 -0.1425
  131OSM    H9S14144   3.817   2.019   4.894  0.6299  1.4248  2.8666
  131OSM    H9T14145   3.947   2.128   4.935  0.9803 -0.0097 -1.2350
  131OSM   C10S14146   3.868   2.140   4.730 -0.4042 -0.1290  0.1986
  131OSM   H10S14147   3.938   2.227   4.724  0.0427 -0.0850  3.7204
  131OSM   H10T14148   3.776   2.166   4.674  0.1842 -0.3874 -0.9080
  131OSM   C11S14149   3.932   2.014   4.667  0.1901 -0.8247  0.8700
  131OSM   H11S14150   3.865   1.925   4.677 -1.3575  0.0298 -1.2329
  131OSM   H11T14151   4.024   1.986   4.723 -1.2659 -3.2505  2.2569
  131OSM   C12S14152   3.970   2.028   4.515  0.2493  0.2333 -0.3274
  131OSM   H12S14153   4.041   1.943   4.502 -0.5050 -0.5410  0.4293
  131OSM   H12T14154   4.004   2.133   4.505  1.3247 -0.0554  0.1051
  131OSM   C13S14155   3.853   2.003   4.417 -0.0597 -0.2333 -0.1781
  131OSM   H13S14156   3.785   2.091   4.415 -0.2830 -0.3486  1.2197
  131OSM   H13T14157   3.793   1.917   4.453 -0.8666  0.9303  1.3354
  131OSM   C14S14158   3.901   1.969   4.271  0.0243  0.2306  0.0423
  131OSM   H14S14159   3.818   1.924   4.213  0.0176 -1.0197  0.9826
  131OSM   H14T14160   3.992   1.905   4.271  0.1043  0.2894 -1.7011
  131OSM   C15S14161   3.956   2.089   4.185 -0.3206  0.2064  0.2038
  131OSM   H15S14162   4.042   2.139   4.235  1.3361 -1.1589 -1.1549
  131OSM   H15T14163   3.874   2.163   4.177  1.8156  2.6051 -1.1933
  131OSM   C16S14164   4.000   2.037   4.049  0.0502 -0.2147 -0.0259
  131OSM   H16S14165   3.922   1.967   4.012 -2.5579  1.3706  2.1168
  131OSM   H16T14166   4.086   1.969   4.067  0.3482 -0.2760 -1.5610
  131OSM   C17S14167   4.037   2.154   3.953  0.6982  0.0338  0.1203
  131OSM   H17S14168   4.095   2.110   3.869  1.2131 -0.4354  0.7108
  131OSM   H17T14169   4.111   2.231   3.985 -0.4071  2.0041 -1.7888
  131OSM   C18S14170   3.911   2.224   3.899  0.2720 -0.3187 -0.2822
  131OSM   H18S14171   3.847   2.259   3.983 -1.8537 -1.8263 -1.1789
  131OSM   H18T14172   3.841   2.161   3.840 -0.3133  0.2152 -0.1690
  131OSM   H18U14173   3.923   2.316   3.837  0.2668  0.9002  1.4478
  131OSM    C1F14174   4.138   2.276   5.680  0.1271 -0.9127 -0.5317
  131OSM     OF14175   4.150   2.197   5.772 -0.1272  0.3129  0.1104
  131OSM    C2F14176   4.248   2.359   5.622 -0.6508 -0.7129  0.6769
  131OSM    H2F14177   4.304   2.408   5.704 -0.0919  0.6439 -0.4779
  131OSM    H2G14178   4.199   2.441   5.565  1.0837 -0.5039 -0.5976
  131OSM    C3F14179   4.346   2.267   5.545 -0.3011 -0.5814 -1.3046
  131OSM    H3F14180   4.396   2.206   5.623  0.0703  0.6549 -0.5537
  131OSM    H3G14181   4.429   2.333   5.512  2.1282 -1.2268  2.7678
  131OSM    C4F14182   4.284   2.180   5.431 -0.1585 -0.0831  0.1956
  131OSM    H4F14183   4.207   2.242   5.379 -0.0958  0.4898  0.7721
  131OSM    H4G14184   4.239   2.086   5.468  0.1247 -0.9072 -1.4639
  131OSM    C5F14185   4.392   2.142   5.322  0.5490 -0.2847 -1.0221
  131OSM    H5F14186   4.464   2.068   5.363 -0.6647  0.6295  3.2974
  131OSM    H5G14187   4.442   2.235   5.289  1.8265 -0.5599  0.0591
  131OSM    C6F14188   4.338   2.081   5.198 -0.0668  0.2451  0.5298
  131OSM    H6F14189   4.284   1.986   5.216 -1.2173  0.7972  0.1596
  131OSM    H6G14190   4.417   2.056   5.124 -1.8699 -0.4551 -1.2406
  131OSM    C7F14191   4.239   2.177   5.122 -0.4624  0.1180 -0.4027
  131OSM    H7F14192   4.280   2.280   5.134 -0.5643  0.2075 -0.8052
  131OSM    H7G14193   4.134   2.171   5.157  0.1897  3.0684  2.5925
  131OSM    C8F14194   4.247   2.171   4.966  0.2919 -0.0086 -0.5497
  131OSM    H8F14195   4.337   2.230   4.942  1.9629 -1.9039  0.7703
  131OSM    H8G14196   4.160   2.234   4.936  0.9650  0.5320 -1.3896
  131OSM    C9F14197   4.244   2.029   4.912 -0.2781  0.6846 -0.6158
  131OSM    H9F14198   4.196   1.954   4.977  1.3168  0.1887  0.0167
  131OSM   C10F14199   4.313   1.988   4.809  0.1645 -0.4620 -0.7477
  131OSM   H10F14200   4.303   1.880   4.793  0.9828 -0.7338  0.4352
  131OSM   C11F14201   4.403   2.066   4.716 -0.0328  0.2620 -0.7037
  131OSM   H11F14202   4.510   2.058   4.745 -0.6612 -0.7031  1.5755
  131OSM   H11G14203   4.363   2.170   4.714 -1.5302 -0.2862 -0.7735
  131OSM   C12F14204   4.388   2.009   4.573  0.0820  0.7925  0.6631
  131OSM   H12F14205   4.453   2.061   4.500  0.9612 -0.6546  0.3753
  131OSM   H12G14206   4.280   2.015   4.543  0.1225  3.0417  0.7848
  131OSM   C13F14207   4.426   1.854   4.552 -0.3785  0.8621 -0.2487
  131OSM   H13F14208   4.390   1.791   4.636 -2.1450  1.5570 -0.4346
  131OSM   H13G14209   4.535   1.834   4.554 -0.8989 -2.7260  0.2218
  131OSM   C14F14210   4.372   1.779   4.432  0.0313  0.2544  0.5206
  131OSM   H14F14211   4.261   1.782   4.434 -0.2542 -0.3622 -4.0385
  131OSM   H14G14212   4.404   1.673   4.428  1.5592  0.7143 -2.6523
  131OSM   C15F14213   4.431   1.830   4.296 -0.6797  0.3121  0.2375
  131OSM   H15F14214   4.452   1.938   4.308  2.7962 -0.3974  1.6660
  131OSM   H15G14215   4.346   1.828   4.225  0.7864  3.1599 -1.8150
  131OSM   C16F14216   4.550   1.747   4.247  0.3291  0.5427  0.0340
  131OSM   H16F14217   4.519   1.641   4.234  1.2069  0.1618  0.9695
  131OSM   H16G14218   4.633   1.742   4.320  1.8903 -0.9045 -1.7126
  131OSM   C17F14219   4.593   1.801   4.112  0.1845 -0.5905 -0.3318
  131OSM   H17F14220   4.621   1.909   4.105  1.2209 -0.7953  0.4829
  131OSM   H17G14221   4.509   1.780   4.042 -1.5885  0.3431  1.3978
  131OSM   C18F14222   4.720   1.721   4.064  0.1801 -0.0116 -0.6472
  131OSM   H18F14223   4.815   1.762   4.106 -0.0712 -1.6927  1.8104
  131OSM   H18G14224   4.733   1.722   3.954 -0.3801 -1.6681 -0.7466
  131OSM   H18H14225   4.696   1.619   4.099 -2.0251  0.3792 -0.9198
  132OSM      N14226   4.699   5.233   5.984  0.0371  0.6539  0.7472
  132OSM    C1514227   4.657   5.119   5.891  0.1786  0.3676 -0.2380
  132OSM   H15A14228   4.724   5.120   5.807  1.8265 -1.2864  0.9786
  132OSM   H15B14229   4.554   5.134   5.862 -0.2902  0.5578  1.4029
  132OSM   H15C14230   4.651   5.026   5.945 -2.2630  1.0480  0.8106
  132OSM    C1414231   4.682   5.356   5.895 -0.2768  0.4352  0.0905
  132OSM   H14A14232   4.581   5.373   5.862 -1.3395 -0.2376  2.7216
  132OSM   H14B14233   4.749   5.337   5.812  0.5741 -0.1889  0.9014
  132OSM   H14C14234   4.715   5.448   5.941  0.2753  0.4824 -0.3860
  132OSM    C1314235   4.601   5.253   6.096  0.3526 -0.0576  0.4234
  132OSM   H13A14236   4.501   5.277   6.065 -0.0225 -1.7716  0.1974
  132OSM   H13B14237   4.631   5.325   6.171 -2.3370  0.9275  0.6477
  132OSM   H13C14238   4.595   5.154   6.138  0.7618  0.0614  0.7670
  132OSM    C1214239   4.840   5.220   6.021 -0.3907 -0.0930  0.0455
  132OSM   H12A14240   4.852   5.135   6.087 -0.3445  0.1474  0.3512
  132OSM   H12B14241   4.872   5.306   6.079  1.0231 -1.0622  0.7640
  132OSM    C1114242   4.950   5.233   5.914  0.3888  0.7092 -0.2343
  132OSM   H11A14243   4.923   5.170   5.827 -1.3443 -0.2043  0.9052
  132OSM   H11B14244   5.044   5.196   5.960 -1.1743 -0.7363  2.0147
  132OSM      P14245   5.073   5.464   5.932 -0.0169  0.1524  0.1933
  132OSM    O1314246   5.067   5.598   5.878  0.6394 -0.7849  0.1581
  132OSM    O1414247   5.064   5.453   6.081 -0.2307 -0.9967  0.0138
  132OSM    O1114248   5.207   5.401   5.879  0.8656  0.0772  0.0850
  132OSM    O1214249   4.965   5.370   5.875  0.4631  0.0700  0.1120
  132OSM    C1S14250   5.213   5.360   5.742  0.6966 -0.6446  0.3853
  132OSM    H1S14251   5.222   5.447   5.672 -1.3957 -0.0731  0.7556
  132OSM    H1T14252   5.129   5.294   5.712 -0.0906  0.1792  0.7146
  132OSM     NF14253   5.361   5.254   5.579 -0.0349  0.4243 -0.2214
  132OSM    HNF14254   5.323   5.172   5.537  0.6423  0.2472 -0.5000
  132OSM    C2S14255   5.341   5.273   5.723 -0.1926  0.6235  0.2517
  132OSM    H2S14256   5.417   5.340   5.769 -1.0355  0.2047  2.3784
  132OSM    C3S14257   5.325   5.135   5.813 -0.0777 -0.6810  0.7646
  132OSM    H3S14258   5.235   5.076   5.784  0.5325 -1.4620  0.4027
  132OSM     O314259   5.312   5.172   5.952  0.3640  0.5257 -0.1205
  132OSM    HO314260   5.254   5.248   5.944 -1.2393 -0.5141  0.9597
  132OSM    C4S14261   5.446   5.057   5.801 -0.4846  0.3201 -0.4742
  132OSM    H4S14262   5.527   5.090   5.867  0.7056 -0.6270 -1.3962
  132OSM    C5S14263   5.467   4.957   5.715 -0.3954  0.2813 -0.0899
  132OSM    H5S14264   5.387   4.935   5.643  0.3166  2.2808 -1.5830
  132OSM    C6S14265   5.586   4.874   5.688 -0.3734  0.7329  0.4155
  132OSM    H6S14266   5.560   4.766   5.687  1.6126  0.2222  0.3128
  132OSM    H6T14267   5.670   4.897   5.757  1.5569 -2.1371 -0.7887
  132OSM    C7S14268   5.634   4.895   5.543  0.4339  0.0115  0.0840
  132OSM    H7S14269   5.657   5.003   5.529  3.5551 -0.3950  1.3145
  132OSM    H7T14270   5.559   4.865   5.467 -0.6286  0.6662  0.8378
  132OSM    C8S14271   5.761   4.814   5.522  0.5985 -0.0895  0.3341
  132OSM    H8S14272   5.742   4.709   5.552 -1.7498  0.1689 -0.0515
  132OSM    H8T14273   5.847   4.842   5.587  0.5207  0.6159  0.1377
  132OSM    C9S14274   5.808   4.795   5.374  0.6103 -0.0191 -0.0570
  132OSM    H9S14275   5.737   4.720   5.334  0.6066  0.0754 -0.2277
  132OSM    H9T14276   5.909   4.749   5.368  0.5414 -0.3420  1.0410
  132OSM   C10S14277   5.821   4.933   5.290  0.1448  0.5285 -0.5041
  132OSM   H10S14278   5.881   5.007   5.348  0.0407 -0.2336  0.5921
  132OSM   H10T14279   5.721   4.967   5.256  0.2583  0.7573 -0.6081
  132OSM   C11S14280   5.891   4.904   5.161  0.6753 -0.1511  0.6245
  132OSM   H11S14281   5.836   4.823   5.108 -2.0348  2.1984 -0.4124
  132OSM   H11T14282   5.995   4.872   5.180  0.8995  0.8120  1.0453
  132OSM   C12S14283   5.889   5.030   5.065  0.3679 -0.5957 -0.4480
  132OSM   H12S14284   5.944   5.119   5.102 -0.4103  1.0977 -3.1323
  132OSM   H12T14285   5.780   5.053   5.055  0.0027 -1.5894  0.9290
  132OSM   C13S14286   5.953   5.007   4.927  0.6034  0.6238 -0.3056
  132OSM   H13S14287   5.885   4.931   4.883 -0.2942  1.2287  0.0241
  132OSM   H13T14288   6.051   4.957   4.945 -0.4242 -1.1618  0.7220
  132OSM   C14S14289   5.937   5.126   4.840 -0.1261 -0.3952  0.1521
  132OSM   H14S14290   5.972   5.218   4.891  0.9275 -0.5421 -0.2824
  132OSM   H14T14291   5.830   5.137   4.811  0.3458 -0.1138 -1.6448
  132OSM   C15S14292   5.992   5.126   4.695  0.5543 -0.5797 -0.6803
  132OSM   H15S14293   5.922   5.061   4.637 -0.7483  0.3021 -0.1434
  132OSM   H15T14294   6.098   5.094   4.699  0.3969 -1.0220  0.1822
  132OSM   C16S14295   5.991   5.269   4.633 -0.4092  0.5893 -0.6803
  132OSM   H16S14296   6.021   5.350   4.703  1.6817  0.2017 -1.0493
  132OSM   H16T14297   5.890   5.299   4.598  0.3296  0.8989 -2.7060
  132OSM   C17S14298   6.088   5.283   4.517 -0.2552 -0.0714  0.9555
  132OSM   H17S14299   6.058   5.219   4.432  1.3424 -0.4932  0.6790
  132OSM   H17T14300   6.181   5.237   4.557 -0.4436 -1.0382  0.3017
  132OSM   C18S14301   6.101   5.426   4.470 -0.1969 -0.1902  0.8369
  132OSM   H18S14302   6.009   5.472   4.426  0.7629  0.4229 -0.6104
  132OSM   H18T14303   6.177   5.435   4.390 -1.3766 -2.3008 -0.6302
  132OSM   H18U14304   6.119   5.506   4.546 -3.2561  1.4244  0.0579
  132OSM    C1F14305   5.420   5.345   5.502 -0.2350  0.7719  0.1916
  132OSM     OF14306   5.448   5.457   5.536 -0.4297  0.0765 -0.0986
  132OSM    C2F14307   5.470   5.277   5.375 -0.8451 -0.6123  0.1201
  132OSM    H2F14308   5.404   5.306   5.291 -1.7760 -1.2746  0.6050
  132OSM    H2G14309   5.471   5.166   5.388  3.5979 -0.7988 -0.0576
  132OSM    C3F14310   5.626   5.304   5.353  0.2606  0.7422 -0.7258
  132OSM    H3F14311   5.690   5.252   5.428  0.5697  0.9717 -0.8339
  132OSM    H3G14312   5.635   5.410   5.382 -0.7106  0.2764  1.5204
  132OSM    C4F14313   5.665   5.277   5.211 -0.0494  0.2734 -0.0728
  132OSM    H4F14314   5.641   5.171   5.188 -0.1173  0.1117  0.7019
  132OSM    H4G14315   5.776   5.286   5.203  0.3341 -0.8046  2.6525
  132OSM    C5F14316   5.601   5.368   5.112 -0.3341 -0.6698  0.1968
  132OSM    H5F14317   5.628   5.465   5.160  1.2755 -0.2762 -1.3920
  132OSM    H5G14318   5.490   5.365   5.110 -0.3655  0.1431 -1.1881
  132OSM    C6F14319   5.669   5.351   4.970  0.7750 -0.5084 -0.3885
  132OSM    H6F14320   5.622   5.263   4.921  1.5218 -1.7767  1.0678
  132OSM    H6G14321   5.777   5.329   4.989  0.6840 -0.0857  0.6827
  132OSM    C7F14322   5.636   5.479   4.882 -0.1238 -0.7405 -0.6022
  132OSM    H7F14323   5.666   5.569   4.940  0.4428 -0.9536 -0.5598
  132OSM    H7G14324   5.525   5.480   4.880 -0.1828 -0.7577  1.3953
  132OSM    C8F14325   5.699   5.472   4.743  0.2036  0.3308 -0.5130
  132OSM    H8F14326   5.679   5.383   4.680  0.1889 -0.9313  1.1852
  132OSM    H8G14327   5.810   5.467   4.751  0.3298  0.6808 -1.8197
  132OSM    C9F14328   5.684   5.596   4.667 -0.2162 -0.2774 -0.1908
  132OSM    H9F14329   5.661   5.681   4.735  0.2616  1.3374 -1.9606
  132OSM   C10F14330   5.680   5.612   4.534 -0.2292 -0.4262 -0.0551
  132OSM   H10F14331   5.671   5.713   4.492 -0.4855 -0.8183 -0.9695
  132OSM   C11F14332   5.687   5.499   4.439  0.1133  0.0774  0.2901
  132OSM   H11F14333   5.608   5.423   4.456 -1.3661  1.6356  0.5247
  132OSM   H11G14334   5.791   5.459   4.428 -0.0359 -0.4060  0.6066
  132OSM   C12F14335   5.655   5.571   4.302 -0.2247  0.6297  0.2659
  132OSM   H12F14336   5.550   5.608   4.306 -0.6750 -0.3742 -1.2823
  132OSM   H12G14337   5.663   5.492   4.224  2.6976 -0.2132  1.2768
  132OSM   C13F14338   5.744   5.684   4.263 -0.3500 -0.0666  0.3571
  132OSM   H13F14339   5.765   5.761   4.340  3.2244 -0.8791  0.3273
  132OSM   H13G14340   5.711   5.728   4.166  1.4254 -0.2739 -0.3758
  132OSM   C14F14341   5.884   5.625   4.221 -0.2440 -0.1022 -0.1500
  132OSM   H14F14342   5.859   5.553   4.140 -1.0346 -0.4827  0.4238
  132OSM   H14G14343   5.927   5.570   4.307  0.8758  0.3314 -0.4125
  132OSM   C15F14344   5.981   5.728   4.165  0.3307 -0.3574 -0.4852
  132OSM   H15F14345   6.001   5.810   4.238 -0.5709  0.9534 -1.6636
  132OSM   H15G14346   5.928   5.768   4.077 -1.5199  0.8073  1.0736
  132OSM   C16F14347   6.122   5.668   4.132  0.4710  0.2976  0.7585
  132OSM   H16F14348   6.110   5.591   4.053  1.5892  0.5900  0.2884
  132OSM   H16G14349   6.157   5.628   4.230  1.0319 -0.8284  0.1125
  132OSM   C17F14350   6.208   5.780   4.082 -0.1432 -0.4701 -0.5014
  132OSM   H17F14351   6.149   5.840   4.009  1.3975 -1.4351 -2.6358
  132OSM   H17G14352   6.296   5.734   4.032 -0.5909 -1.1601 -0.6768
  132OSM   C18F14353   6.262   5.871   4.197  0.2348  0.2867  0.8464
  132OSM   H18F14354   6.331   5.946   4.154  0.6133 -0.0131  0.9262
  132OSM   H18G14355   6.307   5.805   4.274 -1.0518  0.7895  2.0654
  132OSM   H18H14356   6.177   5.909   4.258 -0.4991 -1.4400  0.9639
  133OSM      N14357   2.068   5.537   5.941  0.0336 -0.1955  0.4682
  133OSM    C1514358   1.993   5.421   5.872 -0.5239 -0.6708  0.0069
  133OSM   H15A14359   1.887   5.436   5.856 -0.1502  1.2591 -0.9636
  133OSM   H15B14360   2.004   5.328   5.926  1.5868 -2.0482 -2.5844
  133OSM   H15C14361   2.032   5.401   5.773 -0.3960  0.3921 -0.1712
  133OSM    C1414362   2.058   5.669   5.863  0.3653  0.7141 -0.4362
  133OSM   H14A14363   2.132   5.739   5.898  0.6239 -0.3348  1.2149
  133OSM   H14B14364   1.963   5.714   5.888 -0.1232 -1.0235  1.0410
  133OSM   H14C14365   2.077   5.648   5.759  0.9161 -2.3425  0.1838
  133OSM    C1314366   2.016   5.560   6.082  0.3305  0.0189  0.2521
  133OSM   H13A14367   1.995   5.469   6.137  1.1120  0.6075  1.5868
  133OSM   H13B14368   1.918   5.602   6.072  0.8646  1.2803  0.1612
  133OSM   H13C14369   2.085   5.618   6.142  2.3327  1.7454 -3.3735
  133OSM    C1214370   2.216   5.497   5.953  0.7098 -0.1717 -0.1378
  133OSM   H12A14371   2.276   5.585   5.972  0.1833 -0.0372  0.9714
  133OSM   H12B14372   2.248   5.453   5.860 -1.8303 -2.5552 -0.0319
  133OSM    C1114373   2.256   5.399   6.057 -0.3751 -0.3453 -0.4334
  133OSM   H11A14374   2.234   5.429   6.161 -1.1313 -1.6584 -0.1904
  133OSM   H11B14375   2.366   5.398   6.045 -0.1752 -1.1885  1.2958
  133OSM      P14376   2.264   5.180   5.919 -0.3250 -0.0064  0.1169
  133OSM    O1314377   2.405   5.181   5.950 -0.0981  0.7142 -0.0122
  133OSM    O1414378   2.192   5.051   5.903 -0.7552  0.2800  0.0947
  133OSM    O1114379   2.238   5.267   5.783 -0.4045 -0.2025 -0.0203
  133OSM    O1214380   2.191   5.272   6.037 -0.0373  0.0182 -0.1949
  133OSM    C1S14381   2.332   5.239   5.677  0.5217  0.5908  0.7793
  133OSM    H1S14382   2.357   5.131   5.683  1.8417  0.8460  0.1217
  133OSM    H1T14383   2.429   5.292   5.678  1.1003 -0.4298  0.1752
  133OSM     NF14384   2.364   5.193   5.437  0.6181  0.2002 -0.0112
  133OSM    HNF14385   2.407   5.224   5.353  1.6030 -0.4304  0.2456
  133OSM    C2S14386   2.278   5.268   5.531  0.1219  0.5528 -0.6044
  133OSM    H2S14387   2.176   5.228   5.515  0.3041  0.2083 -0.9307
  133OSM    C3S14388   2.269   5.423   5.518  0.3585  0.9116 -0.2452
  133OSM    H3S14389   2.376   5.451   5.527  1.1530 -1.4559 -1.5473
  133OSM     O314390   2.192   5.490   5.614  0.0149  0.0035  0.7283
  133OSM    HO314391   2.180   5.426   5.684 -1.2577  1.0486  1.5095
  133OSM    C4S14392   2.226   5.455   5.374 -0.3350 -0.0413 -0.5163
  133OSM    H4S14393   2.117   5.441   5.366 -0.5647 -0.5471  2.2920
  133OSM    C5S14394   2.307   5.496   5.276  0.7506 -0.1041  0.0019
  133OSM    H5S14395   2.415   5.506   5.295  0.2968 -0.0529  2.9177
  133OSM    C6S14396   2.261   5.526   5.136 -0.2090  0.0754  0.6365
  133OSM    H6S14397   2.152   5.510   5.126 -0.2586  0.4516  0.5756
  133OSM    H6T14398   2.297   5.448   5.065 -1.4873 -0.3437  0.4228
  133OSM    C7S14399   2.295   5.664   5.085  0.3996  0.1356  0.1268
  133OSM    H7S14400   2.403   5.681   5.106  0.1515  1.3708  0.5198
  133OSM    H7T14401   2.243   5.740   5.147 -0.0280  0.4549 -0.6149
  133OSM    C8S14402   2.253   5.678   4.936 -0.0893  0.1001  0.5513
  133OSM    H8S14403   2.144   5.686   4.912  0.2910 -0.6612 -1.7698
  133OSM    H8T14404   2.292   5.590   4.880 -0.9115  0.0531  0.0280
  133OSM    C9S14405   2.303   5.813   4.878 -0.5400 -0.2976  0.4951
  133OSM    H9S14406   2.414   5.812   4.867 -0.5091  3.8606 -1.2936
  133OSM    H9T14407   2.272   5.894   4.947  0.0678 -0.4749  0.9912
  133OSM   C10S14408   2.272   5.833   4.736 -0.3337  0.2478 -0.2717
  133OSM   H10S14409   2.337   5.916   4.699  0.0731  0.1201  0.1429
  133OSM   H10T14410   2.168   5.872   4.731 -0.7289 -0.8319 -4.3206
  133OSM   C11S14411   2.281   5.707   4.655 -0.1664 -0.6805  0.0667
  133OSM   H11S14412   2.204   5.643   4.703  1.2748 -0.8723  2.2328
  133OSM   H11T14413   2.385   5.669   4.659  0.2733  0.4757 -0.0844
  133OSM   C12S14414   2.239   5.733   4.509  0.4276  0.3309  0.3674
  133OSM   H12S14415   2.303   5.805   4.454 -1.1853  0.4624 -1.4177
  133OSM   H12T14416   2.144   5.790   4.506  0.4572  0.3424 -0.5934
  133OSM   C13S14417   2.217   5.601   4.432 -0.3890  0.3641 -0.1892
  133OSM   H13S14418   2.160   5.528   4.494  2.2800 -2.5870 -0.9347
  133OSM   H13T14419   2.306   5.535   4.425 -0.0074  0.8706 -0.2048
  133OSM   C14S14420   2.153   5.611   4.297 -0.5423  0.1769 -0.1814
  133OSM   H14S14421   2.065   5.678   4.308  0.8088  2.3874 -1.8888
  133OSM   H14T14422   2.118   5.513   4.258 -0.6755  0.2022 -0.1269
  133OSM   C15S14423   2.247   5.665   4.191 -0.0913  0.0927 -0.6243
  133OSM   H15S14424   2.306   5.579   4.153  1.6994  0.3479  1.3544
  133OSM   H15T14425   2.309   5.746   4.236  0.0496 -1.1011  1.4850
  133OSM   C16S14426   2.177   5.738   4.074  0.5351  0.7434 -0.5710
  133OSM   H16S14427   2.106   5.813   4.114 -0.5457 -0.0341 -0.9863
  133OSM   H16T14428   2.119   5.658   4.023  0.0883 -0.4876  1.7167
  133OSM   C17S14429   2.283   5.786   3.973 -0.2437  0.5717 -0.1392
  133OSM   H17S14430   2.338   5.699   3.931 -2.6058 -1.7428  1.1619
  133OSM   H17T14431   2.350   5.853   4.031  0.0658 -0.1734  0.3846
  133OSM   C18S14432   2.220   5.866   3.861  0.5238 -0.3882 -0.7453
  133OSM   H18S14433   2.289   5.932   3.805 -0.6481  1.7627  0.2425
  133OSM   H18T14434   2.149   5.940   3.905  3.2860  0.7554  2.1601
  133OSM   H18U14435   2.162   5.795   3.797 -0.4511 -1.5307  1.2994
  133OSM    C1F14436   2.351   5.057   5.428  0.7092 -0.0896 -0.0554
  133OSM     OF14437   2.272   4.995   5.505 -0.4289 -0.6724 -0.5159
  133OSM    C2F14438   2.432   4.995   5.324  0.4492  0.4518 -0.0519
  133OSM    H2F14439   2.530   4.951   5.352  0.4561  0.1679 -0.5141
  133OSM    H2G14440   2.453   5.077   5.251 -1.9525  0.2030 -1.1132
  133OSM    C3F14441   2.351   4.876   5.264 -0.5582 -0.6300 -0.6577
  133OSM    H3F14442   2.247   4.908   5.243  0.1817  3.0543  0.5573
  133OSM    H3G14443   2.347   4.800   5.345  1.4773 -0.6567 -0.5392
  133OSM    C4F14444   2.414   4.805   5.139  0.3978 -0.3802  0.6903
  133OSM    H4F14445   2.346   4.719   5.116 -0.4925  0.5344 -0.2334
  133OSM    H4G14446   2.509   4.758   5.172  1.2736  1.3337  0.6878
  133OSM    C5F14447   2.445   4.903   5.027  0.0991 -0.2107  0.7708
  133OSM    H5F14448   2.374   4.988   5.033 -0.7448 -0.7451 -0.9107
  133OSM    H5G14449   2.425   4.871   4.922  0.3638  0.4092  0.5237
  133OSM    C6F14450   2.589   4.956   5.020 -0.1727 -0.8106 -0.2564
  133OSM    H6F14451   2.666   4.878   5.008  0.0502 -0.9165  1.5411
  133OSM    H6G14452   2.599   5.005   5.119  2.1018 -0.3200 -0.6883
  133OSM    C7F14453   2.627   5.071   4.929 -0.7351 -0.6828 -0.4660
  133OSM    H7F14454   2.638   5.039   4.823  3.0737 -1.6169  0.0596
  133OSM    H7G14455   2.724   5.110   4.966 -0.6483  0.7029 -2.0396
  133OSM    C8F14456   2.520   5.193   4.933 -0.5326 -0.4987 -0.0020
  133OSM    H8F14457   2.520   5.238   5.035  0.7960  1.1838 -0.6848
  133OSM    H8G14458   2.416   5.166   4.906 -0.4110  0.5234 -1.6299
  133OSM    C9F14459   2.565   5.320   4.859 -0.1564  0.1222  0.7474
  133OSM    H9F14460   2.651   5.367   4.909 -1.7696  3.1631  0.8384
  133OSM   C10F14461   2.522   5.373   4.744  0.2474 -0.0474 -0.3483
  133OSM   H10F14462   2.566   5.467   4.709 -2.2709  0.7588 -1.5702
  133OSM   C11F14463   2.411   5.315   4.663  0.1466 -0.2481 -0.7819
  133OSM   H11F14464   2.346   5.400   4.632  0.2304 -0.2935 -1.0841
  133OSM   H11G14465   2.346   5.247   4.723 -0.6938  1.5094  0.3759
  133OSM   C12F14466   2.445   5.220   4.546  0.0153  0.4030  1.0615
  133OSM   H12F14467   2.362   5.207   4.473  0.5136  0.5564  0.4568
  133OSM   H12G14468   2.480   5.123   4.588 -1.3430 -0.1725  0.9177
  133OSM   C13F14469   2.575   5.262   4.461  0.5887  0.3466  0.5697
  133OSM   H13F14470   2.603   5.185   4.386 -0.3668  0.9110 -0.4035
  133OSM   H13G14471   2.656   5.278   4.534  0.2269  0.1646  1.0178
  133OSM   C14F14472   2.545   5.393   4.387  1.2114 -0.3510 -0.0325
  133OSM   H14F14473   2.544   5.469   4.468  1.0383  0.7034 -0.9891
  133OSM   H14G14474   2.447   5.392   4.336  1.4579  1.4975 -0.6335
  133OSM   C15F14475   2.637   5.411   4.273 -0.4350  0.3025  0.5866
  133OSM   H15F14476   2.621   5.325   4.205 -0.7063 -1.0096  2.2513
  133OSM   H15G14477   2.740   5.404   4.312 -0.0949 -2.8578 -0.5618
  133OSM   C16F14478   2.624   5.556   4.213 -0.5681 -0.5079 -0.2649
  133OSM   H16F14479   2.690   5.625   4.272 -0.8234 -1.0789  0.7182
  133OSM   H16G14480   2.521   5.591   4.233 -0.6640 -0.8375 -0.1747
  133OSM   C17F14481   2.638   5.556   4.061 -0.4511  0.3359  1.0015
  133OSM   H17F14482   2.626   5.659   4.021 -0.6795  0.5328  1.5670
  133OSM   H17G14483   2.556   5.497   4.016 -0.4425  0.0708  1.3279
  133OSM   C18F14484   2.768   5.487   4.014 -0.7031 -0.5496  0.0828
  133OSM   H18F14485   2.772   5.494   3.904  0.3066  0.5461  0.1642
  133OSM   H18G14486   2.773   5.377   4.027 -0.8212 -0.7293 -1.3279
  133OSM   H18H14487   2.855   5.540   4.059 -0.8937 -0.1879  0.0258
  134OSM      N14488   2.109   2.729   6.386  0.3627  0.0480 -0.4608
  134OSM    C1514489   2.153   2.682   6.520  0.6709 -0.2151  0.8091
  134OSM   H15A14490   2.216   2.759   6.561  1.5861 -0.6388  0.2613
  134OSM   H15B14491   2.213   2.595   6.497 -0.5986 -0.4657 -1.9729
  134OSM   H15C14492   2.069   2.647   6.577 -0.1098 -2.2242 -1.3976
  134OSM    C1414493   1.994   2.819   6.413 -0.5620 -0.2909  0.1737
  134OSM   H14A14494   2.030   2.888   6.488  0.9273  0.5787 -1.2517
  134OSM   H14B14495   1.904   2.778   6.456 -1.6884  0.6276 -1.2133
  134OSM   H14C14496   1.976   2.864   6.316  2.1819 -1.5979 -1.0778
  134OSM    C1314497   2.221   2.803   6.324 -0.3929  0.3321  0.2676
  134OSM   H13A14498   2.310   2.742   6.324  0.1982  1.1650  0.7561
  134OSM   H13B14499   2.237   2.896   6.377 -0.8760  0.1902  0.6660
  134OSM   H13C14500   2.196   2.829   6.222 -0.2499 -2.3412 -0.5097
  134OSM    C1214501   2.070   2.621   6.289  0.2073 -0.2927 -0.2756
  134OSM   H12A14502   1.976   2.580   6.322 -0.7013  1.6296 -0.3522
  134OSM   H12B14503   2.147   2.545   6.288  3.4209  2.6637  1.6585
  134OSM    C1114504   2.051   2.659   6.143 -1.0959 -0.1554  0.1509
  134OSM   H11A14505   2.015   2.577   6.077  1.2568 -1.2896  0.1684
  134OSM   H11B14506   2.151   2.673   6.096 -1.9641  2.3788 -1.1063
  134OSM      P14507   1.998   2.902   6.037 -0.2783 -0.2217  0.2522
  134OSM    O1314508   1.957   3.018   6.104 -0.2254 -0.1747 -0.7385
  134OSM    O1414509   2.135   2.905   5.984 -0.4748 -0.6347 -0.0867
  134OSM    O1114510   1.899   2.877   5.913 -0.2659  0.3643  0.7412
  134OSM    O1214511   1.972   2.772   6.122 -0.0511 -0.0281  0.1253
  134OSM    C1S14512   1.778   2.800   5.913 -0.2980  0.6508  0.6652
  134OSM    H1S14513   1.790   2.709   5.975  0.3049  0.1677 -0.1372
  134OSM    H1T14514   1.756   2.772   5.808  0.6776  3.0199 -0.2624
  134OSM     NF14515   1.526   2.817   5.945 -0.6438  0.1307 -0.5928
  134OSM    HNF14516   1.474   2.874   5.882  1.4582  1.2113 -1.4350
  134OSM    C2S14517   1.657   2.885   5.962  0.5560 -0.2698 -0.6299
  134OSM    H2S14518   1.672   2.903   6.070  2.9149  0.1635 -0.9633
  134OSM    C3S14519   1.650   3.029   5.902  0.0019  0.1788 -0.7928
  134OSM    H3S14520   1.738   3.080   5.946 -1.5630  1.1055  1.4377
  134OSM     O314521   1.529   3.099   5.934 -0.1029  0.1679 -0.1150
  134OSM    HO314522   1.482   3.041   5.994  1.0684  0.4712  1.1605
  134OSM    C4S14523   1.657   3.017   5.756  0.9442 -0.6342  0.1965
  134OSM    H4S14524   1.563   2.983   5.712 -0.3303  0.2375  2.1298
  134OSM    C5S14525   1.764   3.049   5.681  0.1027  0.0006 -0.3080
  134OSM    H5S14526   1.853   3.082   5.737  1.4786 -4.2079  0.3121
  134OSM    C6S14527   1.776   3.037   5.532  0.8569 -0.0352  0.0856
  134OSM    H6S14528   1.828   2.940   5.511 -3.8135 -2.4834 -1.6473
  134OSM    H6T14529   1.830   3.125   5.491  1.7277 -1.1915 -1.3873
  134OSM    C7S14530   1.642   3.026   5.461  0.8381  0.4046  0.2341
  134OSM    H7S14531   1.585   3.120   5.475 -0.7956 -0.5579  0.2187
  134OSM    H7T14532   1.585   2.943   5.508  0.2235  0.4610 -0.3879
  134OSM    C8S14533   1.651   2.997   5.317  0.2381  0.2886 -0.0502
  134OSM    H8S14534   1.729   2.921   5.298  0.4231  0.5476 -0.3382
  134OSM    H8T14535   1.676   3.086   5.255 -0.3010  0.9191  0.6165
  134OSM    C9S14536   1.526   2.922   5.270 -0.0814 -0.3316  0.0724
  134OSM    H9S14537   1.446   2.999   5.278  1.6644  1.4580  1.0861
  134OSM    H9T14538   1.497   2.841   5.340  1.4158 -0.3963  0.6519
  134OSM   C10S14539   1.535   2.860   5.133  0.0315  0.2444 -0.9748
  134OSM   H10S14540   1.439   2.812   5.107 -0.7123  1.5767 -0.7523
  134OSM   H10T14541   1.610   2.778   5.139 -0.1059  0.1989  0.5213
  134OSM   C11S14542   1.570   2.962   5.025  0.0521  0.4492 -0.0551
  134OSM   H11S14543   1.676   2.993   5.036 -0.1532  1.0259  0.3189
  134OSM   H11T14544   1.503   3.050   5.031  1.5160  1.5464  0.6438
  134OSM   C12S14545   1.569   2.900   4.884 -0.6064  0.1294 -0.4612
  134OSM   H12S14546   1.612   2.798   4.892 -0.6995  0.0222 -1.2343
  134OSM   H12T14547   1.633   2.964   4.820  0.5094 -1.7888 -1.3772
  134OSM   C13S14548   1.432   2.883   4.824 -0.3919 -0.5992 -0.2398
  134OSM   H13S14549   1.368   2.970   4.850  1.3842  0.3263  1.3107
  134OSM   H13T14550   1.392   2.793   4.876 -1.7312  0.4814  0.6892
  134OSM   C14S14551   1.427   2.863   4.667 -0.6440  0.4856 -0.2205
  134OSM   H14S14552   1.475   2.953   4.624  2.3854 -1.6265 -1.5976
  134OSM   H14T14553   1.321   2.860   4.634  0.0991 -1.2938 -2.8216
  134OSM   C15S14554   1.496   2.731   4.620  0.3724 -0.3042 -0.4254
  134OSM   H15S14555   1.459   2.641   4.673 -0.2700  0.5507  0.6304
  134OSM   H15T14556   1.603   2.756   4.638 -0.4936  2.2944  1.8812
  134OSM   C16S14557   1.488   2.708   4.464  0.6431 -0.0206  0.1473
  134OSM   H16S14558   1.536   2.796   4.414  0.2433  1.0989  1.6521
  134OSM   H16T14559   1.381   2.693   4.442  1.4488 -0.4822 -4.3877
  134OSM   C17S14560   1.556   2.583   4.417  0.0381 -0.0368 -0.5912
  134OSM   H17S14561   1.523   2.495   4.476 -0.0425  0.5521  0.2511
  134OSM   H17T14562   1.666   2.593   4.435  0.1199 -2.0806  0.3249
  134OSM   C18S14563   1.539   2.551   4.262 -0.4482  0.5242  0.1700
  134OSM   H18S14564   1.435   2.528   4.229  0.1223 -0.0473 -1.3551
  134OSM   H18T14565   1.601   2.465   4.229 -0.0931  1.2745 -1.1981
  134OSM   H18U14566   1.579   2.641   4.211  1.0826  1.0833  2.2530
  134OSM    C1F14567   1.484   2.710   6.016 -0.4848 -0.3600  0.4058
  134OSM     OF14568   1.553   2.663   6.107  0.2940 -0.6995 -0.0334
  134OSM    C2F14569   1.346   2.653   5.992 -0.4208 -0.3513  0.7715
  134OSM    H2F14570   1.322   2.587   6.078  1.6326 -0.1235  1.5835
  134OSM    H2G14571   1.340   2.573   5.915  0.9164  0.4712 -0.2342
  134OSM    C3F14572   1.236   2.754   5.952  0.3191 -0.0565 -0.8910
  134OSM    H3F14573   1.235   2.841   6.020 -1.0712 -0.2842 -0.5955
  134OSM    H3G14574   1.140   2.705   5.979 -0.2886  0.9702 -1.1666
  134OSM    C4F14575   1.244   2.791   5.807 -0.3576  0.5865 -0.3148
  134OSM    H4F14576   1.240   2.696   5.749 -1.2726  0.9972 -0.9721
  134OSM    H4G14577   1.335   2.849   5.782 -0.2797  0.4391 -0.3694
  134OSM    C5F14578   1.121   2.860   5.741  1.0414  0.2969 -0.6652
  134OSM    H5F14579   1.100   2.953   5.798 -1.6671  0.5616 -1.9556
  134OSM    H5G14580   1.027   2.804   5.760  0.8810  0.2456 -1.5913
  134OSM    C6F14581   1.127   2.888   5.590  0.4338 -0.4601  0.0397
  134OSM    H6F14582   1.117   2.791   5.536 -0.6387 -0.7374  0.6952
  134OSM    H6G14583   1.222   2.933   5.555  0.4531  0.2789  1.0097
  134OSM    C7F14584   1.015   2.987   5.548 -0.7510  0.4797 -0.0453
  134OSM    H7F14585   1.013   3.092   5.584  1.5567  0.9354 -1.0398
  134OSM    H7G14586   0.928   2.944   5.601  0.9864 -0.1938  2.4554
  134OSM    C8F14587   0.983   3.001   5.394  0.2592  0.0674 -0.0068
  134OSM    H8F14588   0.897   3.071   5.395  0.1597 -0.0005 -1.7341
  134OSM    H8G14589   0.947   2.898   5.375 -1.7227  0.6555  0.3317
  134OSM    C9F14590   1.103   3.037   5.308  0.2810  0.0438  0.1407
  134OSM    H9F14591   1.143   3.139   5.318  0.3268  0.5384 -3.6752
  134OSM   C10F14592   1.161   2.964   5.211 -0.3648 -0.4578 -0.2537
  134OSM   H10F14593   1.243   3.012   5.156 -0.4331 -0.8203 -0.6805
  134OSM   C11F14594   1.120   2.827   5.159  1.0756 -0.1422  0.4165
  134OSM   H11F14595   1.015   2.802   5.185  0.7144 -1.1064 -1.7231
  134OSM   H11G14596   1.190   2.749   5.197  1.7828  0.3088  0.0715
  134OSM   C12F14597   1.125   2.823   5.009  0.1165  0.3125 -0.4434
  134OSM   H12F14598   1.082   2.722   4.988 -0.5004  0.9958 -2.7579
  134OSM   H12G14599   1.233   2.840   4.986  0.4576  0.4688  1.1923
  134OSM   C13F14600   1.033   2.920   4.930  0.1800  0.2980  0.4261
  134OSM   H13F14601   1.077   3.022   4.943  0.8765 -0.2089  2.4517
  134OSM   H13G14602   0.933   2.926   4.979 -0.2867  0.4093 -0.5127
  134OSM   C14F14603   1.012   2.876   4.782  0.3581  0.1958  0.8931
  134OSM   H14F14604   0.973   2.771   4.782 -3.2206  1.3570  1.8447
  134OSM   H14G14605   1.111   2.874   4.732  0.4127  3.7473  0.6560
  134OSM   C15F14606   0.927   2.974   4.692  0.1401  0.9652 -1.3655
  134OSM   H15F14607   0.987   3.067   4.703  1.3512  0.1660 -0.9571
  134OSM   H15G14608   0.833   3.005   4.741  1.2921  1.9419  0.3557
  134OSM   C16F14609   0.912   2.927   4.545  0.2929 -0.6596  0.2126
  134OSM   H16F14610   0.897   2.817   4.542 -4.7101 -0.2373  0.2872
  134OSM   H16G14611   0.993   2.960   4.477  0.0409  0.9165  0.6167
  134OSM   C17F14612   0.772   2.975   4.482 -0.0868  0.3200 -0.0740
  134OSM   H17F14613   0.687   2.932   4.540  0.4515 -1.2987 -0.4345
  134OSM   H17G14614   0.748   2.952   4.376  1.0819  0.9464 -0.4825
  134OSM   C18F14615   0.760   3.129   4.501  0.0353 -0.7014 -0.4951
  134OSM   H18F14616   0.839   3.190   4.452 -0.4821 -0.4306 -0.9922
  134OSM   H18G14617   0.767   3.143   4.611  0.9064 -1.2737 -0.4647
  134OSM   H18H14618   0.666   3.168   4.458  0.9649 -0.7909 -2.7586
  135OSM      N14619   2.826   2.546   6.102 -0.1997  0.4834 -0.1295
  135OSM    C1514620   2.826   2.418   6.015  0.3686 -0.0237  0.8815
  135OSM   H15A14621   2.740   2.354   6.031 -0.3678  0.5902 -0.3943
  135OSM   H15B14622   2.917   2.360   6.014  1.0177  0.9777  0.3045
  135OSM   H15C14623   2.828   2.437   5.908  0.8145 -0.7581  0.7538
  135OSM    C1414624   2.815   2.486   6.245  0.2405 -0.1667  0.1660
  135OSM   H14A14625   2.778   2.552   6.321  0.1321 -1.0501  0.9069
  135OSM   H14B14626   2.904   2.434   6.276 -0.6725 -1.3412  0.9269
  135OSM   H14C14627   2.741   2.406   6.246 -0.7330  0.7052  2.0775
  135OSM    C1314628   2.957   2.616   6.088 -0.4375  0.0425 -0.6248
  135OSM   H13A14629   2.975   2.697   6.157 -0.3061 -0.5083 -0.0011
  135OSM   H13B14630   2.965   2.658   5.989  1.3629  1.2765 -0.0158
  135OSM   H13C14631   3.042   2.550   6.095 -0.4867 -0.3885 -3.0977
  135OSM    C1214632   2.708   2.641   6.070 -0.3560  0.8802 -0.7190
  135OSM   H12A14633   2.732   2.687   5.976 -0.5256 -0.4355 -1.4266
  135OSM   H12B14634   2.710   2.717   6.147  2.8962  1.1259 -0.8992
  135OSM    C1114635   2.569   2.582   6.053  0.4000  0.3953  0.0402
  135OSM   H11A14636   2.492   2.662   6.049 -0.3874 -0.2428  1.6664
  135OSM   H11B14637   2.548   2.517   6.140 -1.1608 -0.7225 -1.1047
  135OSM      P14638   2.557   2.569   5.790  0.1001 -0.2483  0.3676
  135OSM    O1314639   2.683   2.644   5.776  0.7527  0.4505 -0.1849
  135OSM    O1414640   2.528   2.466   5.686  0.2331  0.0154 -0.3828
  135OSM    O1114641   2.437   2.677   5.800 -0.2427  0.3332  0.2886
  135OSM    O1214642   2.560   2.505   5.938  0.1025  0.9903 -0.2508
  135OSM    C1S14643   2.301   2.646   5.805  0.0678 -0.1259 -0.2627
  135OSM    H1S14644   2.248   2.684   5.895 -1.6947 -0.3990 -1.1415
  135OSM    H1T14645   2.288   2.537   5.822  1.6555 -0.0747  1.6374
  135OSM     NF14646   2.261   2.600   5.564  0.4044 -0.0089  0.7193
  135OSM    HNF14647   2.348   2.615   5.519  0.5374 -1.0681  0.5931
  135OSM    C2S14648   2.232   2.692   5.673  0.6017  0.1239  0.0042
  135OSM    H2S14649   2.123   2.696   5.694  1.0896 -0.8524  3.3379
  135OSM    C3S14650   2.268   2.837   5.633 -0.5955  0.4648  0.2789
  135OSM    H3S14651   2.376   2.838   5.608  0.4777  0.6450  4.2623
  135OSM     O314652   2.272   2.934   5.732  0.1720  0.1423  0.1622
  135OSM    HO314653   2.246   2.906   5.820 -0.0507  0.5241  0.2169
  135OSM    C4S14654   2.184   2.891   5.518 -0.0908  0.1595  0.1743
  135OSM    H4S14655   2.080   2.856   5.528  0.2296 -2.5428 -3.6621
  135OSM    C5S14656   2.240   2.954   5.418  0.0382  0.6376  0.0235
  135OSM    H5S14657   2.350   2.961   5.427 -0.0073  1.0646  0.2636
  135OSM    C6S14658   2.178   2.995   5.286 -0.2060 -0.3022 -0.0157
  135OSM    H6S14659   2.246   2.985   5.199  0.4117 -0.1682  0.4481
  135OSM    H6T14660   2.166   3.105   5.297  1.2973 -0.2308  1.2602
  135OSM    C7S14661   2.036   2.930   5.250 -0.3420 -0.1226  0.0253
  135OSM    H7S14662   2.008   2.984   5.157 -0.7326 -0.4569 -0.0494
  135OSM    H7T14663   1.973   2.954   5.338  0.8151 -1.5077  1.2867
  135OSM    C8S14664   2.035   2.779   5.216 -0.3628  0.2558 -0.2785
  135OSM    H8S14665   1.936   2.747   5.179  0.1437 -2.0896  0.2210
  135OSM    H8T14666   2.058   2.713   5.302  2.0103 -1.5051 -2.1372
  135OSM    C9S14667   2.137   2.740   5.103 -0.1157 -0.5427 -0.2807
  135OSM    H9S14668   2.127   2.631   5.085  0.6142 -0.4444 -1.3390
  135OSM    H9T14669   2.241   2.768   5.130 -0.5612  2.2371 -1.1450
  135OSM   C10S14670   2.098   2.812   4.970  0.0822  0.6474 -0.4663
  135OSM   H10S14671   2.176   2.781   4.896  0.8439  2.1178 -0.3150
  135OSM   H10T14672   2.112   2.922   4.973  0.6807  0.5950 -0.9744
  135OSM   C11S14673   1.965   2.785   4.902 -0.2227  0.2657 -0.3216
  135OSM   H11S14674   1.880   2.809   4.969  0.1286 -0.1460  0.2819
  135OSM   H11T14675   1.963   2.680   4.866  0.0379  0.5001 -1.0461
  135OSM   C12S14676   1.950   2.870   4.777  0.3205  0.4332  0.0676
  135OSM   H12S14677   2.043   2.929   4.763  1.2044 -1.2707 -1.4701
  135OSM   H12T14678   1.866   2.942   4.765  0.1838  0.2969  0.2024
  135OSM   C13S14679   1.948   2.793   4.641  1.0095  0.0855  0.3043
  135OSM   H13S14680   1.869   2.714   4.636  0.0438  1.0008  0.8216
  135OSM   H13T14681   2.045   2.738   4.640  1.3957  0.6796 -2.2405
  135OSM   C14S14682   1.938   2.885   4.507 -0.5814  0.0609 -0.6383
  135OSM   H14S14683   2.018   2.954   4.541 -0.9371  0.8168 -1.2965
  135OSM   H14T14684   1.840   2.936   4.518 -0.2434  0.7059 -0.6060
  135OSM   C15S14685   1.966   2.825   4.371 -0.2842  0.4267 -0.5091
  135OSM   H15S14686   1.882   2.763   4.334 -0.3573  1.0959 -1.5017
  135OSM   H15T14687   2.056   2.764   4.397  0.3801  1.7605  0.4704
  135OSM   C16S14688   2.028   2.930   4.279  0.9830 -0.6421  0.4572
  135OSM   H16S14689   2.040   2.880   4.180 -1.3967 -1.3782  0.4756
  135OSM   H16T14690   2.131   2.953   4.313  1.0058 -1.0952  0.7041
  135OSM   C17S14691   1.952   3.057   4.253  0.6695  0.2202  1.0271
  135OSM   H17S14692   1.996   3.101   4.161  0.9228  0.3487  1.2086
  135OSM   H17T14693   1.961   3.138   4.328 -2.4874  1.7003 -0.0194
  135OSM   C18S14694   1.804   3.032   4.214  0.0479  0.2764  0.4511
  135OSM   H18S14695   1.761   3.130   4.184  0.8837  0.9066  1.2649
  135OSM   H18T14696   1.747   2.998   4.303 -3.1901  2.7265 -0.4888
  135OSM   H18U14697   1.779   2.960   4.133  0.6746  0.1435  0.3718
  135OSM    C1F14698   2.214   2.478   5.569  0.4903 -0.3030  0.4822
  135OSM     OF14699   2.143   2.443   5.658 -0.3335 -0.7221  0.1429
  135OSM    C2F14700   2.277   2.392   5.466  0.7117  0.5742  0.2755
  135OSM    H2F14701   2.263   2.287   5.501 -1.0115  0.3644 -0.8687
  135OSM    H2G14702   2.385   2.415   5.459  0.6156  1.0809  0.4405
  135OSM    C3F14703   2.204   2.401   5.330  0.2328 -0.1925 -0.4979
  135OSM    H3F14704   2.196   2.503   5.285  1.9163 -0.2906 -1.0609
  135OSM    H3G14705   2.097   2.378   5.348 -0.4891  1.9926 -1.5454
  135OSM    C4F14706   2.278   2.310   5.223 -0.0835 -0.2816 -0.0831
  135OSM    H4F14707   2.221   2.302   5.128  0.4047 -1.3446 -0.3111
  135OSM    H4G14708   2.374   2.361   5.202  0.4161 -1.6830 -1.3439
  135OSM    C5F14709   2.303   2.167   5.265  0.4691 -0.1180  0.2057
  135OSM    H5F14710   2.221   2.133   5.332  0.2699  0.5920  0.3333
  135OSM    H5G14711   2.399   2.161   5.319  0.4107  0.1128  0.3385
  135OSM    C6F14712   2.301   2.078   5.139 -0.0519 -0.5301 -0.0838
  135OSM    H6F14713   2.400   2.096   5.092  0.1002  0.8827  0.7120
  135OSM    H6G14714   2.221   2.098   5.066  1.7505 -1.2473 -2.3650
  135OSM    C7F14715   2.278   1.929   5.172  0.1754  0.5291  0.0761
  135OSM    H7F14716   2.271   1.878   5.073  2.5613 -2.1643  1.1462
  135OSM    H7G14717   2.178   1.923   5.220  0.9271 -1.0627  1.5442
  135OSM    C8F14718   2.369   1.850   5.267  0.3464  0.2472  0.1187
  135OSM    H8F14719   2.329   1.746   5.264 -0.7385  0.6365  0.8192
  135OSM    H8G14720   2.361   1.898   5.367  0.1146  3.8554 -1.4602
  135OSM    C9F14721   2.509   1.860   5.215 -0.6286 -0.0876 -0.2567
  135OSM    H9F14722   2.578   1.921   5.276  0.5912 -1.3858 -0.3006
  135OSM   C10F14723   2.562   1.814   5.100 -0.1840 -0.3936  0.1021
  135OSM   H10F14724   2.660   1.856   5.074 -0.2862  0.7535  1.4683
  135OSM   C11F14725   2.505   1.739   4.982  0.1213 -0.4295 -0.0016
  135OSM   H11F14726   2.399   1.707   4.998 -0.1560  0.3013 -0.3556
  135OSM   H11G14727   2.571   1.652   4.963  2.1411  0.5560  1.9998
  135OSM   C12F14728   2.516   1.829   4.858 -0.3431  1.0143  0.2426
  135OSM   H12F14729   2.471   1.774   4.773  1.7640 -0.2762 -0.1018
  135OSM   H12G14730   2.620   1.823   4.820  0.1980 -2.1862  1.8760
  135OSM   C13F14731   2.474   1.978   4.865 -0.3938 -0.4164  0.1837
  135OSM   H13F14732   2.536   2.031   4.939 -0.4778  0.5082 -0.3967
  135OSM   H13G14733   2.365   1.967   4.886 -1.3983  2.5379 -2.6831
  135OSM   C14F14734   2.487   2.046   4.732 -0.3652 -0.3506  0.6011
  135OSM   H14F14735   2.431   1.997   4.650 -2.0808  2.4713 -0.0319
  135OSM   H14G14736   2.594   2.059   4.704 -0.8181 -2.2284 -2.5385
  135OSM   C15F14737   2.421   2.185   4.739  0.1188 -0.4030 -0.5095
  135OSM   H15F14738   2.441   2.234   4.641 -1.1149  0.2087 -0.4622
  135OSM   H15G14739   2.456   2.257   4.816 -2.3726  1.6230 -1.1420
  135OSM   C16F14740   2.265   2.170   4.749  0.1501  0.0148  0.4816
  135OSM   H16F14741   2.243   2.115   4.843  0.2035 -2.8274 -1.0880
  135OSM   H16G14742   2.228   2.110   4.664 -2.0837  0.1599  1.2784
  135OSM   C17F14743   2.201   2.312   4.769 -0.5725 -0.1667  0.2875
  135OSM   H17F14744   2.240   2.371   4.683 -1.3855  1.4844  1.0028
  135OSM   H17G14745   2.235   2.362   4.862  1.4752 -0.0845 -0.4447
  135OSM   C18F14746   2.054   2.294   4.757  0.1280  0.2139  0.0557
  135OSM   H18F14747   2.031   2.221   4.676  2.1131 -0.6655  0.2397
  135OSM   H18G14748   2.002   2.389   4.731  2.3968  1.5657  0.2108
  135OSM   H18H14749   2.010   2.253   4.851  1.2516 -0.4340  0.3150
  136OSM      N14750   6.719   3.755   6.262  0.8253 -0.1868 -0.0914
  136OSM    C1514751   6.734   3.896   6.316 -0.0854 -0.4089  0.6155
  136OSM   H15A14752   6.637   3.931   6.347 -0.6522 -2.3594  1.1856
  136OSM   H15B14753   6.774   3.962   6.240  0.4082 -1.0403  0.3158
  136OSM   H15C14754   6.790   3.883   6.408  2.0478 -0.0118 -0.5618
  136OSM    C1414755   6.855   3.700   6.209  0.2340 -0.5723 -0.0651
  136OSM   H14A14756   6.884   3.760   6.124 -0.6700 -1.8482 -1.3160
  136OSM   H14B14757   6.842   3.600   6.171 -4.1347  0.4892 -2.0312
  136OSM   H14C14758   6.937   3.693   6.279  0.7737 -2.8558 -0.8690
  136OSM    C1314759   6.674   3.661   6.369  0.0415 -0.2506 -0.2406
  136OSM   H13A14760   6.729   3.662   6.462 -0.8731  0.9735  0.3105
  136OSM   H13B14761   6.668   3.556   6.345 -1.2509 -0.7612  2.1134
  136OSM   H13C14762   6.578   3.699   6.400  0.6355  0.9036  0.2177
  136OSM    C1214763   6.624   3.751   6.139  0.5758  0.5222 -0.4674
  136OSM   H12A14764   6.669   3.800   6.054  0.6735  0.1282 -0.6452
  136OSM   H12B14765   6.534   3.808   6.159  1.6003  1.2121  2.7260
  136OSM    C1114766   6.575   3.611   6.104  0.4129 -0.7502 -0.2106
  136OSM   H11A14767   6.496   3.578   6.175 -0.1287 -0.5159 -0.6905
  136OSM   H11B14768   6.666   3.547   6.107  1.6785  0.9940  0.4988
  136OSM      P14769   6.391   3.543   5.940  0.3851  0.1014  0.3523
  136OSM    O1314770   6.429   3.403   5.952  0.1248  0.1047 -0.7215
  136OSM    O1414771   6.285   3.600   6.023  0.5576 -0.3751  0.6260
  136OSM    O1114772   6.355   3.582   5.781 -0.0316  0.3824  0.2287
  136OSM    O1214773   6.523   3.623   5.968 -0.4009 -1.0011 -0.2747
  136OSM    C1S14774   6.393   3.714   5.748 -0.0767 -0.2229  0.5327
  136OSM    H1S14775   6.501   3.711   5.722 -0.5917 -1.2494 -1.7505
  136OSM    H1T14776   6.381   3.791   5.827 -1.2557  1.3071 -1.0548
  136OSM     NF14777   6.368   3.880   5.562 -0.4665 -0.8119 -0.2342
  136OSM    HNF14778   6.309   3.958   5.584 -3.2534 -1.7740 -3.5254
  136OSM    C2S14779   6.322   3.753   5.619  0.3234 -0.6382 -0.1008
  136OSM    H2S14780   6.337   3.676   5.540 -2.2243  0.9227 -2.2960
  136OSM    C3S14781   6.169   3.753   5.647  0.4369 -0.2843 -0.1122
  136OSM    H3S14782   6.145   3.832   5.722  0.4995 -0.4934  0.1324
  136OSM     O314783   6.117   3.632   5.709 -0.9471 -0.2158  0.3666
  136OSM    HO314784   6.197   3.586   5.736  0.2806  0.4300 -1.8542
  136OSM    C4S14785   6.093   3.788   5.522 -0.1154 -0.6958 -0.6237
  136OSM    H4S14786   6.067   3.895   5.515 -0.5568 -0.8359 -1.1040
  136OSM    C5S14787   6.053   3.709   5.425 -0.2515  0.0246 -0.1251
  136OSM    H5S14788   6.087   3.604   5.421 -2.0789 -0.6012 -4.2569
  136OSM    C6S14789   5.977   3.749   5.300  0.2344  0.0974 -0.2101
  136OSM    H6S14790   5.902   3.822   5.339  0.4029 -0.1247  0.5333
  136OSM    H6T14791   5.919   3.672   5.245 -1.1803 -0.9888  2.5936
  136OSM    C7S14792   6.053   3.838   5.200  0.1250 -0.2337 -0.2563
  136OSM    H7S14793   6.136   3.782   5.151  2.2179  1.1320  1.5413
  136OSM    H7T14794   6.099   3.929   5.244  0.6137 -0.2484 -0.7172
  136OSM    C8S14795   5.966   3.896   5.092 -0.0819  0.4662 -1.1112
  136OSM    H8S14796   5.884   3.965   5.120  0.4082  0.5129  0.2847
  136OSM    H8T14797   5.913   3.808   5.051  0.5593 -0.5392  0.1418
  136OSM    C9S14798   6.049   3.961   4.982  0.4747 -0.3111 -0.1205
  136OSM    H9S14799   6.113   3.889   4.926 -1.0297  0.5255 -3.1045
  136OSM    H9T14800   6.110   4.040   5.031 -0.0529  0.8825 -1.3390
  136OSM   C10S14801   5.972   4.027   4.868  0.5231  0.3999 -0.1755
  136OSM   H10S14802   5.914   4.115   4.902  0.3394 -0.0119  0.5923
  136OSM   H10T14803   5.907   3.959   4.809  1.1649 -0.7297  0.3734
  136OSM   C11S14804   6.073   4.094   4.771  0.3786 -0.0901 -0.0223
  136OSM   H11S14805   6.162   4.027   4.766  0.1082 -0.5838  1.4307
  136OSM   H11T14806   6.103   4.194   4.809 -1.4546  1.4651 -2.4029
  136OSM   C12S14807   6.024   4.129   4.634  1.1947 -0.3527  0.1919
  136OSM   H12S14808   6.103   4.193   4.588 -0.0879  0.8409 -0.4302
  136OSM   H12T14809   5.926   4.181   4.634  1.3916  0.0231  0.0497
  136OSM   C13S14810   6.009   4.012   4.544 -0.6892  0.2799 -0.2149
  136OSM   H13S14811   5.924   3.950   4.580  0.9150 -0.6199  2.3592
  136OSM   H13T14812   6.096   3.943   4.547 -0.0686  0.7503 -3.3403
  136OSM   C14S14813   5.962   4.053   4.399 -0.6473  0.0017  0.1218
  136OSM   H14S14814   6.003   4.151   4.368  3.4226 -1.1224  1.2969
  136OSM   H14T14815   5.852   4.053   4.391 -0.7793 -2.9345  0.7772
  136OSM   C15S14816   5.987   3.933   4.302 -1.0274 -0.1803  0.1069
  136OSM   H15S14817   5.914   3.853   4.326 -1.8526  0.9067  1.3394
  136OSM   H15T14818   6.095   3.908   4.305 -0.7563  0.9529  0.5184
  136OSM   C16S14819   5.975   3.987   4.160  0.3343 -0.2495 -0.2766
  136OSM   H16S14820   6.043   4.074   4.148  0.3336 -0.2167 -0.0405
  136OSM   H16T14821   5.874   4.030   4.143  1.0312  2.4194  1.6443
  136OSM   C17S14822   6.000   3.874   4.050 -0.6739 -0.1280 -0.4469
  136OSM   H17S14823   5.917   3.801   4.052 -0.3557 -0.4755  0.2880
  136OSM   H17T14824   6.097   3.834   4.085 -0.4795  1.0644  0.4601
  136OSM   C18S14825   6.011   3.927   3.906  0.0664 -0.7606 -0.5764
  136OSM   H18S14826   5.917   3.969   3.865 -0.0000 -0.2610  0.0555
  136OSM   H18T14827   6.046   3.847   3.838 -0.4862 -0.1469 -1.6096
  136OSM   H18U14828   6.075   4.018   3.911  0.5545 -1.1521  1.3076
  136OSM    C1F14829   6.495   3.898   5.505  0.4753  0.2841 -0.3843
  136OSM     OF14830   6.566   3.799   5.494  0.1190 -0.2365  0.8090
  136OSM    C2F14831   6.541   4.038   5.483  0.4810 -0.4523  0.0973
  136OSM    H2F14832   6.629   4.056   5.548 -1.0878 -0.5342  2.3333
  136OSM    H2G14833   6.461   4.108   5.516  1.2911  0.1745  0.7845
  136OSM    C3F14834   6.586   4.058   5.333  0.2885  0.2986 -0.4015
  136OSM    H3F14835   6.647   3.978   5.287  3.0990  1.8825  0.2757
  136OSM    H3G14836   6.653   4.148   5.337 -0.6537  0.9761  0.8214
  136OSM    C4F14837   6.470   4.077   5.234  0.2748  0.0907  0.7489
  136OSM    H4F14838   6.379   4.044   5.288  1.5470 -0.5550  2.5891
  136OSM    H4G14839   6.482   4.009   5.147 -1.9104  0.3399  0.1933
  136OSM    C5F14840   6.455   4.217   5.178  0.6411 -0.3565 -0.3822
  136OSM    H5F14841   6.552   4.237   5.127  1.0684  0.2414  0.6423
  136OSM    H5G14842   6.451   4.289   5.262  1.5729  1.3135 -1.7015
  136OSM    C6F14843   6.335   4.232   5.086 -0.0270 -0.0103 -0.4922
  136OSM    H6F14844   6.241   4.217   5.144  1.0907 -0.5000  1.2898
  136OSM    H6G14845   6.328   4.153   5.009 -0.8443  1.2484 -1.7536
  136OSM    C7F14846   6.332   4.363   5.008  0.1468 -0.3562 -0.3159
  136OSM    H7F14847   6.292   4.436   5.082 -1.0141 -1.1290 -0.1583
  136OSM    H7G14848   6.246   4.352   4.939 -1.5443 -0.5571  1.7312
  136OSM    C8F14849   6.457   4.400   4.935  0.1301 -0.1658  0.0146
  136OSM    H8F14850   6.500   4.315   4.879 -0.1863 -0.9674  0.9790
  136OSM    H8G14851   6.531   4.424   5.013  1.0957  0.2018 -0.9821
  136OSM    C9F14852   6.451   4.522   4.837  0.0295  0.8521  0.2257
  136OSM    H9F14853   6.428   4.623   4.876 -2.1845  1.1224 -1.5881
  136OSM   C10F14854   6.469   4.518   4.704 -0.8848 -0.2526  0.9409
  136OSM   H10F14855   6.457   4.610   4.645  1.3310 -0.5077 -0.0379
  136OSM   C11F14856   6.509   4.400   4.610  0.3356  0.2618 -0.3992
  136OSM   H11F14857   6.429   4.325   4.593  0.8281 -1.2305  3.0361
  136OSM   H11G14858   6.591   4.348   4.664 -0.1221  1.4107  1.4780
  136OSM   C12F14859   6.575   4.438   4.475 -0.5824  0.4519  0.1571
  136OSM   H12F14860   6.617   4.347   4.427  0.5894  1.5170 -0.9143
  136OSM   H12G14861   6.647   4.523   4.479 -1.9591  1.6540  0.2646
  136OSM   C13F14862   6.464   4.480   4.371 -0.7177 -1.0660 -0.0874
  136OSM   H13F14863   6.432   4.585   4.386 -0.5592 -1.1702  1.0336
  136OSM   H13G14864   6.374   4.425   4.405  0.3623 -1.2886  2.6724
  136OSM   C14F14865   6.493   4.455   4.225  0.0689 -0.2305  0.1371
  136OSM   H14F14866   6.527   4.350   4.221 -0.2769 -0.3118 -1.0451
  136OSM   H14G14867   6.583   4.512   4.193 -0.2884  0.4548  0.3318
  136OSM   C15F14868   6.381   4.486   4.123  0.3908 -0.7308 -0.2101
  136OSM   H15F14869   6.350   4.590   4.146 -1.3675 -1.2987  0.1876
  136OSM   H15G14870   6.288   4.429   4.147  1.0924 -1.9904 -0.4188
  136OSM   C16F14871   6.411   4.457   3.976 -0.2440  0.7350 -0.3103
  136OSM   H16F14872   6.438   4.350   3.964 -1.1394  0.2643  1.5372
  136OSM   H16G14873   6.505   4.514   3.956 -1.0649  1.8046 -1.2915
  136OSM   C17F14874   6.297   4.498   3.880  0.0225  0.3209 -0.5051
  136OSM   H17F14875   6.299   4.608   3.871  0.8435  0.4021  0.4563
  136OSM   H17G14876   6.201   4.467   3.927  1.1870  0.5796  2.2318
  136OSM   C18F14877   6.309   4.439   3.743 -0.1030 -0.0087  1.1153
  136OSM   H18F14878   6.398   4.470   3.684  0.6422 -0.9506  1.7087
  136OSM   H18G14879   6.219   4.473   3.687  0.8588  0.1239 -0.4093
  136OSM   H18H14880   6.316   4.328   3.745 -0.9540 -0.2238 -2.0360
  137OSM      N14881   2.502   1.063   6.191  0.1422 -0.5847 -0.5878
  137OSM    C1514882   2.596   0.945   6.226  0.3862  0.5666  0.6304
  137OSM   H15A14883   2.698   0.979   6.217  1.1430 -1.4906  0.8441
  137OSM   H15B14884   2.592   0.866   6.153 -2.3666  0.1118  1.1333
  137OSM   H15C14885   2.580   0.918   6.330 -0.2469  0.6715  0.5666
  137OSM    C1414886   2.358   1.024   6.174  0.2116 -0.0428 -0.0733
  137OSM   H14A14887   2.312   0.981   6.262 -1.8927 -0.5912 -1.3749
  137OSM   H14B14888   2.343   0.959   6.089  0.1075 -0.1947  0.0618
  137OSM   H14C14889   2.291   1.102   6.141 -0.5592 -1.4110 -1.8821
  137OSM    C1314890   2.508   1.166   6.302 -0.0570  0.6017  0.2809
  137OSM   H13A14891   2.452   1.251   6.265 -1.1446  0.1865  0.9178
  137OSM   H13B14892   2.604   1.206   6.328  0.4855 -0.2686 -0.3353
  137OSM   H13C14893   2.458   1.134   6.393  1.1792 -0.5346  0.5809
  137OSM    C1214894   2.549   1.118   6.053  0.5062  0.9435 -0.6887
  137OSM   H12A14895   2.572   1.034   5.989  2.2729 -0.2272  1.3151
  137OSM   H12B14896   2.649   1.155   6.069  0.4848  0.1102  2.0625
  137OSM    C1114897   2.452   1.219   5.983 -0.6000  0.1890  0.5501
  137OSM   H11A14898   2.360   1.168   5.948 -2.0389  1.0249  2.8884
  137OSM   H11B14899   2.510   1.261   5.898 -0.6208  0.5726  0.7219
  137OSM      P14900   2.270   1.367   6.083  0.2629 -0.0165 -0.0696
  137OSM    O1314901   2.189   1.250   6.116 -0.1081 -0.0149 -0.2577
  137OSM    O1414902   2.269   1.484   6.176  0.2886 -0.3332 -0.1426
  137OSM    O1114903   2.239   1.405   5.931  0.1602  0.2679 -0.0556
  137OSM    O1214904   2.419   1.319   6.071  0.6718 -0.2366 -0.6629
  137OSM    C1S14905   2.225   1.543   5.896  0.4475 -0.1034  0.4999
  137OSM    H1S14906   2.325   1.591   5.904  0.2396  0.1761  1.5537
  137OSM    H1T14907   2.168   1.603   5.971  2.5808  2.8301 -0.0378
  137OSM     NF14908   2.166   1.724   5.730 -0.4156 -0.1849 -0.4756
  137OSM    HNF14909   2.088   1.773   5.768 -1.2083 -0.9137 -1.1485
  137OSM    C2S14910   2.175   1.578   5.753  0.5556  0.3121  0.2301
  137OSM    H2S14911   2.251   1.540   5.681 -0.6521 -1.2440 -0.2606
  137OSM    C3S14912   2.035   1.500   5.738  0.7469 -0.3834 -0.5373
  137OSM    H3S14913   1.966   1.552   5.807  1.1475 -1.3465  0.6264
  137OSM     O314914   2.021   1.354   5.774  0.4744 -0.0239 -0.2777
  137OSM    HO314915   2.099   1.335   5.826 -0.0937 -0.2076  0.5247
  137OSM    C4S14916   1.989   1.521   5.600  0.5572  0.3881 -0.5698
  137OSM    H4S14917   1.911   1.599   5.604 -0.0873 -0.2495  3.6816
  137OSM    C5S14918   2.010   1.451   5.487 -0.6667 -0.2415  0.5927
  137OSM    H5S14919   2.080   1.366   5.493 -0.0183  0.2598  0.2845
  137OSM    C6S14920   1.957   1.477   5.353  0.0353 -0.3233 -0.3638
  137OSM    H6S14921   1.868   1.544   5.363 -1.0162 -1.4505 -1.6911
  137OSM    H6T14922   1.919   1.387   5.300 -0.9005 -0.1763  0.0274
  137OSM    C7S14923   2.052   1.552   5.257  0.6005 -0.1505 -0.1029
  137OSM    H7S14924   2.153   1.507   5.264 -0.1634 -2.4018 -2.2872
  137OSM    H7T14925   2.062   1.662   5.272 -3.7415  0.2057  1.3742
  137OSM    C8S14926   2.022   1.545   5.112  0.5750  0.7861  0.3020
  137OSM    H8S14927   1.916   1.574   5.095  0.6026  0.1481 -1.0992
  137OSM    H8T14928   2.029   1.437   5.085  0.3149  0.4248  1.6101
  137OSM    C9S14929   2.122   1.610   5.026  0.1579  0.2351  0.6206
  137OSM    H9S14930   2.220   1.558   5.033 -0.0581 -0.2952 -0.1500
  137OSM    H9T14931   2.139   1.717   5.050  2.0119 -0.0442  0.6860
  137OSM   C10S14932   2.077   1.619   4.877 -0.4691 -0.5731  0.3618
  137OSM   H10S14933   1.970   1.650   4.880 -1.2112 -2.9784  0.5861
  137OSM   H10T14934   2.072   1.519   4.829 -3.1721  0.2534 -1.3840
  137OSM   C11S14935   2.157   1.719   4.794  0.3388 -0.7263 -0.6411
  137OSM   H11S14936   2.262   1.685   4.784  0.2616 -1.3026  0.4315
  137OSM   H11T14937   2.163   1.813   4.852  3.8349 -2.2646  1.8688
  137OSM   C12S14938   2.095   1.752   4.656 -0.0455  0.1163 -0.1710
  137OSM   H12S14939   2.015   1.821   4.689 -1.0245 -1.1229  0.1035
  137OSM   H12T14940   2.069   1.657   4.605 -0.1356 -0.5109  1.0072
  137OSM   C13S14941   2.193   1.830   4.566  0.3538 -0.9119 -0.1919
  137OSM   H13S14942   2.290   1.778   4.550  1.7915  1.2427  1.0162
  137OSM   H13T14943   2.222   1.921   4.621 -3.7445  0.3160  0.3147
  137OSM   C14S14944   2.129   1.856   4.434  0.1679  0.0274  0.1695
  137OSM   H14S14945   2.018   1.849   4.438  0.2402 -0.8082  1.2367
  137OSM   H14T14946   2.175   1.786   4.361  3.8561  0.5557  1.7853
  137OSM   C15S14947   2.160   1.998   4.375 -0.0824 -0.0316  0.6484
  137OSM   H15S14948   2.131   2.072   4.453 -1.7351 -1.0430  1.0615
  137OSM   H15T14949   2.099   2.019   4.285  1.3744  2.2198  0.1120
  137OSM   C16S14950   2.312   2.017   4.341  0.3585 -0.0710 -0.3131
  137OSM   H16S14951   2.324   1.981   4.236  2.4158  1.6519 -0.7256
  137OSM   H16T14952   2.377   1.963   4.413  0.9175 -0.8832 -1.3918
  137OSM   C17S14953   2.354   2.164   4.350  0.1705 -0.3870  0.3588
  137OSM   H17S14954   2.313   2.217   4.439  1.3124  3.0698 -0.9734
  137OSM   H17T14955   2.316   2.225   4.265 -0.5191  0.8249  1.5003
  137OSM   C18S14956   2.508   2.176   4.362 -0.6078 -0.2169  0.2081
  137OSM   H18S14957   2.534   2.283   4.379 -1.9359  0.2805 -0.6535
  137OSM   H18T14958   2.558   2.125   4.277 -0.6545 -1.2044  0.7558
  137OSM   H18U14959   2.543   2.123   4.453 -0.4078  1.8868  1.4196
  137OSM    C1F14960   2.277   1.783   5.682 -0.7162  0.2815 -0.5960
  137OSM     OF14961   2.377   1.716   5.657  0.1155  0.4198  0.1295
  137OSM    C2F14962   2.278   1.931   5.672  0.1331 -0.2606 -0.4670
  137OSM    H2F14963   2.354   1.953   5.594 -0.3546 -0.3044 -0.9636
  137OSM    H2G14964   2.325   1.975   5.762 -0.0197 -1.5844  0.2724
  137OSM    C3F14965   2.142   1.999   5.640 -0.6095  0.3197 -0.3485
  137OSM    H3F14966   2.162   2.103   5.606  1.0207 -0.4819 -1.9818
  137OSM    H3G14967   2.078   1.994   5.731 -2.9423  0.3769 -1.9097
  137OSM    C4F14968   2.062   1.936   5.525  0.2535  0.5175 -0.1917
  137OSM    H4F14969   2.008   1.848   5.564  1.6539 -0.3911 -0.2090
  137OSM    H4G14970   2.126   1.906   5.439  0.4156 -0.5934  0.2998
  137OSM    C5F14971   1.956   2.031   5.467 -0.5715  0.4380 -0.9155
  137OSM    H5F14972   1.927   1.998   5.365 -0.4601 -1.5221 -0.3600
  137OSM    H5G14973   1.999   2.132   5.452  1.9291 -0.8628 -3.2778
  137OSM    C6F14974   1.824   2.044   5.550  0.2779  0.9030 -0.0208
  137OSM    H6F14975   1.845   2.049   5.659  1.5569 -3.0784  0.0871
  137OSM    H6G14976   1.766   1.950   5.541  0.7102  0.1286  3.5525
  137OSM    C7F14977   1.746   2.171   5.510  0.2104  0.1759  0.0432
  137OSM    H7F14978   1.722   2.160   5.402  0.7876  0.7790 -0.1523
  137OSM    H7G14979   1.802   2.267   5.518  1.3599 -0.2991 -1.6168
  137OSM    C8F14980   1.610   2.180   5.582 -0.7214 -0.1969  0.2499
  137OSM    H8F14981   1.573   2.077   5.602 -1.7482  0.3297  1.1367
  137OSM    H8G14982   1.538   2.230   5.514 -0.2730 -0.7102 -0.6303
  137OSM    C9F14983   1.614   2.238   5.719 -0.1837 -0.2743  0.1125
  137OSM    H9F14984   1.693   2.204   5.788  0.6629  0.7355 -0.3219
  137OSM   C10F14985   1.545   2.345   5.759  0.9072  0.7771 -0.8033
  137OSM   H10F14986   1.579   2.384   5.856  1.9324 -0.6372 -0.5630
  137OSM   C11F14987   1.444   2.427   5.676  0.0387  0.3255  0.0921
  137OSM   H11F14988   1.343   2.439   5.720  0.1015  1.7980 -0.1076
  137OSM   H11G14989   1.418   2.383   5.578 -4.2982 -0.1759  1.2641
  137OSM   C12F14990   1.524   2.563   5.654 -0.1380 -0.3830 -0.6390
  137OSM   H12F14991   1.546   2.612   5.751 -1.3241 -1.7008  0.3312
  137OSM   H12G14992   1.460   2.634   5.597  0.6422  1.1878  0.3727
  137OSM   C13F14993   1.652   2.559   5.562  0.5258  0.0711 -0.3671
  137OSM   H13F14994   1.722   2.476   5.585  2.6640  1.5270 -1.3273
  137OSM   H13G14995   1.708   2.654   5.575  1.9927 -0.8584  0.2846
  137OSM   C14F14996   1.619   2.539   5.420 -0.3622 -0.1699  0.4579
  137OSM   H14F14997   1.542   2.610   5.383  0.8094  1.2214  0.6259
  137OSM   H14G14998   1.586   2.433   5.413  2.6278 -1.1750  0.2149
  137OSM   C15F14999   1.733   2.549   5.319 -0.5248  0.9578  0.3450
  137OSM   H15F15000   1.825   2.507   5.366 -1.1939 -0.8691  0.0983
  137OSM   H15G15001   1.755   2.657   5.304  1.1245  1.0184  2.6877
  137OSM   C16F15002   1.695   2.491   5.184  0.0700 -0.0759  0.7845
  137OSM   H16F15003   1.624   2.559   5.132  0.7301 -0.8090 -1.1934
  137OSM   H16G15004   1.652   2.390   5.198  0.0022 -0.2920 -0.7472
  137OSM   C17F15005   1.821   2.473   5.093  0.7022  0.0140 -0.2027
  137OSM   H17F15006   1.868   2.377   5.123  0.3272  0.3108  1.4591
  137OSM   H17G15007   1.892   2.557   5.113  1.5837 -0.5565 -0.8383
  137OSM   C18F15008   1.778   2.474   4.949  0.3775 -0.4113  0.6537
  137OSM   H18F15009   1.743   2.574   4.916  0.2878 -0.8884 -0.7978
  137OSM   H18G15010   1.688   2.408   4.940 -0.6696  0.9950  0.4109
  137OSM   H18H15011   1.860   2.435   4.885  0.0896  0.1252 -0.0602
  138OSM      N15012   5.871   2.234   6.385  0.2171 -0.3222  0.1503
  138OSM    C1515013   5.730   2.273   6.347  0.8940 -0.6504 -0.1975
  138OSM   H15A15014   5.700   2.361   6.402 -0.0725 -0.8544 -0.3909
  138OSM   H15B15015   5.670   2.185   6.366 -0.2611  0.3562  1.0579
  138OSM   H15C15016   5.736   2.293   6.242 -0.3507 -1.9083 -0.5437
  138OSM    C1415017   5.903   2.281   6.523 -0.2798  0.4205 -0.3716
  138OSM   H14A15018   5.988   2.226   6.561  2.1624  0.9173 -4.4558
  138OSM   H14B15019   5.814   2.262   6.581  0.3325 -1.1492  0.1202
  138OSM   H14C15020   5.938   2.383   6.514 -1.7062  0.9619  0.0998
  138OSM    C1315021   5.883   2.083   6.384 -0.1423 -0.4734 -0.0805
  138OSM   H13A15022   5.975   2.030   6.404  0.4648  0.5165 -0.2350
  138OSM   H13B15023   5.859   2.053   6.283  0.6999  3.0473 -1.4765
  138OSM   H13C15024   5.806   2.039   6.446 -1.0803 -0.4894 -1.2120
  138OSM    C1215025   5.979   2.286   6.285 -0.3163  0.6732 -0.4088
  138OSM   H12A15026   6.077   2.250   6.313 -0.0874  0.9234 -0.8738
  138OSM   H12B15027   5.979   2.394   6.286  0.1406  0.7380  2.7974
  138OSM    C1115028   5.953   2.238   6.138 -0.2315 -0.6391 -0.2600
  138OSM   H11A15029   5.936   2.128   6.144 -2.7997 -0.2957 -0.2085
  138OSM   H11B15030   6.046   2.253   6.079 -0.9125  1.0662 -0.9772
  138OSM      P15031   5.748   2.229   5.970  0.0588  0.1677  0.1763
  138OSM    O1315032   5.765   2.083   5.983 -1.2159 -0.1873 -0.3877
  138OSM    O1415033   5.614   2.284   5.988  0.2566 -0.2234 -0.8543
  138OSM    O1115034   5.820   2.278   5.832  0.0223 -0.1700 -0.4668
  138OSM    O1215035   5.843   2.300   6.072 -0.6144  0.0482 -0.6612
  138OSM    C1S15036   5.778   2.403   5.783  0.1604 -0.9420  0.2789
  138OSM    H1S15037   5.834   2.487   5.829 -0.3343 -0.3638 -0.1460
  138OSM    H1T15038   5.671   2.426   5.803  0.2470  1.4092 -1.4154
  138OSM     NF15039   5.735   2.543   5.588 -0.1891 -0.8332 -0.5622
  138OSM    HNF15040   5.649   2.557   5.540  0.2367 -0.2552 -1.1821
  138OSM    C2S15041   5.780   2.411   5.628 -0.5212  0.0647 -0.0307
  138OSM    H2S15042   5.882   2.394   5.587 -0.8393 -1.0778 -0.4087
  138OSM    C3S15043   5.697   2.293   5.571  0.6630 -1.1747  0.1845
  138OSM    H3S15044   5.591   2.307   5.603  0.1168 -3.9212 -0.1769
  138OSM     O315045   5.744   2.167   5.619  0.5449  0.2782  0.1808
  138OSM    HO315046   5.770   2.173   5.711  0.4050  0.7145  0.1935
  138OSM    C4S15047   5.707   2.299   5.417 -0.2157  0.5370 -0.9296
  138OSM    H4S15048   5.800   2.256   5.378 -0.7923 -2.6755  0.8977
  138OSM    C5S15049   5.611   2.341   5.340  0.4010 -0.1802 -0.4745
  138OSM    H5S15050   5.515   2.373   5.382  0.8035 -1.3246  1.4298
  138OSM    C6S15051   5.631   2.349   5.193  0.6661 -0.3438  0.5029
  138OSM    H6S15052   5.627   2.456   5.163 -1.1601 -0.6639 -0.5224
  138OSM    H6T15053   5.542   2.307   5.143 -0.9300  2.4606  0.8038
  138OSM    C7S15054   5.758   2.275   5.130  0.3192  0.4773  0.8207
  138OSM    H7S15055   5.741   2.170   5.161 -0.2665  0.1334 -0.5891
  138OSM    H7T15056   5.849   2.313   5.181 -0.2638  0.6297  1.7704
  138OSM    C8S15057   5.738   2.281   4.983 -0.1007 -0.4090 -0.2022
  138OSM    H8S15058   5.755   2.384   4.944  0.6028 -0.6463 -0.5534
  138OSM    H8T15059   5.639   2.240   4.953 -0.3102 -0.5100  0.5923
  138OSM    C9S15060   5.851   2.197   4.919 -0.0499  0.0215 -0.3154
  138OSM    H9S15061   5.836   2.090   4.944  0.5700 -0.1845 -0.7933
  138OSM    H9T15062   5.947   2.230   4.963  1.2177 -0.7894 -2.3181
  138OSM   C10S15063   5.868   2.213   4.767  0.1564 -0.8161 -0.8430
  138OSM   H10S15064   5.918   2.311   4.758  1.0314 -1.1302  0.4108
  138OSM   H10T15065   5.769   2.218   4.716 -0.8566  2.2224  1.1454
  138OSM   C11S15066   5.958   2.101   4.714  0.5108 -0.2723 -0.5715
  138OSM   H11S15067   5.923   2.004   4.755  0.4898 -0.2021 -0.4238
  138OSM   H11T15068   6.060   2.109   4.758 -1.1748  2.1175  3.3963
  138OSM   C12S15069   5.973   2.099   4.568  0.3212  1.0993  0.1171
  138OSM   H12S15070   5.994   2.201   4.529  0.3196  0.9560 -0.2639
  138OSM   H12T15071   5.878   2.063   4.523  0.3301  0.0008  0.9392
  138OSM   C13S15072   6.084   2.003   4.521 -0.3032  0.3659 -0.3409
  138OSM   H13S15073   6.046   1.905   4.556  1.3971 -0.0907  0.3093
  138OSM   H13T15074   6.169   2.028   4.587 -0.7319 -1.1536  0.8489
  138OSM   C14S15075   6.111   1.998   4.379 -0.1592 -0.0612 -0.1837
  138OSM   H14S15076   6.199   1.930   4.373 -1.6645 -2.2024  0.7691
  138OSM   H14T15077   6.142   2.098   4.340  1.4297  0.1883  1.6074
  138OSM   C15S15078   5.995   1.933   4.310 -0.1058  0.2523  0.0680
  138OSM   H15S15079   5.925   2.009   4.268 -0.2317  0.0161 -0.1556
  138OSM   H15T15080   5.946   1.864   4.382 -0.4719 -0.2312 -0.6356
  138OSM   C16S15081   6.046   1.853   4.187  0.7374 -0.1325  0.1935
  138OSM   H16S15082   5.966   1.791   4.142 -0.5458 -0.3720  2.6347
  138OSM   H16T15083   6.123   1.780   4.220  1.3491  0.7153  0.7202
  138OSM   C17S15084   6.108   1.938   4.084 -0.2160 -0.6743 -0.3240
  138OSM   H17S15085   6.175   2.010   4.136 -1.0620 -0.4316  0.4501
  138OSM   H17T15086   6.028   1.990   4.029  0.2740  0.7925  0.3097
  138OSM   C18S15087   6.188   1.860   3.984 -0.3385 -0.1013  0.2772
  138OSM   H18S15088   6.112   1.803   3.927 -2.0648  1.2584  1.1259
  138OSM   H18T15089   6.248   1.783   4.037 -0.1159  0.3694  0.7212
  138OSM   H18U15090   6.249   1.932   3.927  0.0792 -0.8811 -0.2845
  138OSM    C1F15091   5.826   2.648   5.602  0.9796  0.3554  0.2656
  138OSM     OF15092   5.934   2.627   5.654  0.1190  0.1308  0.0159
  138OSM    C2F15093   5.774   2.784   5.565 -0.3428  0.3947 -0.8497
  138OSM    H2F15094   5.789   2.848   5.654  0.6512 -0.5037 -0.3490
  138OSM    H2G15095   5.668   2.785   5.531 -0.9898  3.2683  0.9200
  138OSM    C3F15096   5.859   2.851   5.459  0.0314 -0.2632 -0.5321
  138OSM    H3F15097   5.964   2.847   5.495  0.1035  0.5191 -0.6509
  138OSM    H3G15098   5.831   2.957   5.444 -0.8840 -0.7940 -3.1081
  138OSM    C4F15099   5.854   2.779   5.318  0.2194 -0.1016 -0.6317
  138OSM    H4F15100   5.882   2.675   5.344  1.3081  0.5186  0.7898
  138OSM    H4G15101   5.942   2.820   5.264 -0.2188  1.4362 -0.2351
  138OSM    C5F15102   5.735   2.810   5.233 -0.0138  0.5270 -0.6016
  138OSM    H5F15103   5.692   2.911   5.247 -0.8763  0.4659 -2.4825
  138OSM    H5G15104   5.654   2.741   5.265 -0.1031  0.2522 -1.3798
  138OSM    C6F15105   5.754   2.796   5.083 -0.4062  0.4381 -0.1877
  138OSM    H6F15106   5.797   2.892   5.048 -2.6961  1.4313 -0.4816
  138OSM    H6G15107   5.658   2.781   5.029 -0.8108 -2.7291  1.2166
  138OSM    C7F15108   5.850   2.674   5.044  0.2557  0.9593  0.2878
  138OSM    H7F15109   5.821   2.578   5.090 -0.6469  0.7910 -0.5975
  138OSM    H7G15110   5.952   2.698   5.081  0.7110  0.4008 -0.5829
  138OSM    C8F15111   5.864   2.646   4.895  0.2181 -0.4534 -0.4100
  138OSM    H8F15112   5.768   2.598   4.866  0.5928 -0.0678 -2.4206
  138OSM    H8G15113   5.931   2.558   4.885  1.4231  0.5331 -1.2959
  138OSM    C9F15114   5.904   2.763   4.807  0.3809 -0.2331 -0.1929
  138OSM    H9F15115   5.836   2.846   4.786  0.3284  0.1249  1.2921
  138OSM   C10F15116   6.020   2.761   4.736  0.4270 -0.8209  0.2530
  138OSM   H10F15117   6.039   2.844   4.666  4.8642 -2.6234 -1.0350
  138OSM   C11F15118   6.130   2.659   4.726 -0.1403  0.5255 -0.3522
  138OSM   H11F15119   6.118   2.588   4.810 -2.3163  1.4249  0.1636
  138OSM   H11G15120   6.228   2.710   4.740 -0.8405  1.7172  0.3966
  138OSM   C12F15121   6.113   2.582   4.596 -0.3389  0.5360 -0.4036
  138OSM   H12F15122   6.152   2.656   4.522  1.5081  1.1610  1.0929
  138OSM   H12G15123   6.009   2.554   4.570 -0.4956  1.1134 -0.4263
  138OSM   C13F15124   6.190   2.446   4.604  0.4991  0.5722 -0.1684
  138OSM   H13F15125   6.165   2.382   4.691  1.0208  0.3534 -0.1761
  138OSM   H13G15126   6.296   2.471   4.626  1.2883 -1.2797 -1.6849
  138OSM   C14F15127   6.178   2.382   4.466  0.1559  0.8415 -0.1659
  138OSM   H14F15128   6.070   2.370   4.445  0.3767  0.5463 -1.1867
  138OSM   H14G15129   6.228   2.284   4.484 -2.1932  0.1437  3.7534
  138OSM   C15F15130   6.242   2.455   4.350  0.0318  0.4226  0.2042
  138OSM   H15F15131   6.352   2.455   4.364 -0.1151 -0.5022  1.5203
  138OSM   H15G15132   6.192   2.554   4.344 -1.6548 -0.3923  0.1796
  138OSM   C16F15133   6.210   2.389   4.219  0.4985  0.3528  0.6570
  138OSM   H16F15134   6.281   2.305   4.205 -1.2162 -1.1315  0.4616
  138OSM   H16G15135   6.240   2.460   4.139 -0.3598 -0.1193 -0.1039
  138OSM   C17F15136   6.070   2.335   4.191  0.0967 -0.4197  0.2172
  138OSM   H17F15137   5.989   2.396   4.237 -0.5020  1.2507 -2.7503
  138OSM   H17G15138   6.050   2.233   4.230 -0.6637 -0.4326 -0.1749
  138OSM   C18F15139   6.052   2.331   4.041  0.2782  0.2324  0.8674
  138OSM   H18F15140   5.967   2.264   4.013 -1.3279  1.6238  2.2385
  138OSM   H18G15141   6.147   2.295   3.996  0.7162  1.0186  1.1447
  138OSM   H18H15142   6.034   2.429   3.992 -0.4040  0.2748  1.1899
  139OSM      N15143   6.091   5.624   6.103 -0.1737 -0.3358 -0.3147
  139OSM    C1515144   6.117   5.514   6.005 -0.5922 -0.0458 -0.8293
  139OSM   H15A15145   6.071   5.535   5.910  0.7564  2.2222 -1.0669
  139OSM   H15B15146   6.082   5.420   6.045  1.5422 -0.6770 -0.3215
  139OSM   H15C15147   6.221   5.504   5.977 -1.1304 -0.0489 -2.9661
  139OSM    C1415148   6.117   5.754   6.029 -0.0408 -0.4931  0.1210
  139OSM   H14A15149   6.081   5.835   6.090  1.6972  0.8915 -0.5713
  139OSM   H14B15150   6.062   5.748   5.936  3.1939 -2.0402 -1.9185
  139OSM   H14C15151   6.223   5.763   6.007  0.1575  0.1396  1.2818
  139OSM    C1315152   5.945   5.609   6.138  0.4247 -0.9158 -0.2759
  139OSM   H13A15153   5.880   5.616   6.051  0.5764  2.7097 -0.2388
  139OSM   H13B15154   5.926   5.696   6.200  1.1960 -2.7573  2.7568
  139OSM   H13C15155   5.929   5.522   6.200 -0.6218 -0.7639 -0.3042
  139OSM    C1215156   6.176   5.605   6.222 -0.5808 -0.1540  0.5321
  139OSM   H12A15157   6.137   5.513   6.264  0.5698 -0.5611  0.7354
  139OSM   H12B15158   6.161   5.689   6.288  0.6080  2.2837 -2.0908
  139OSM    C1115159   6.326   5.599   6.204 -0.3759  0.0527  0.5999
  139OSM   H11A15160   6.349   5.497   6.167  0.9821  0.2985  0.7180
  139OSM   H11B15161   6.373   5.607   6.304  0.5963  1.5733  0.0673
  139OSM      P15162   6.509   5.697   6.050 -0.0382  0.2695 -0.1754
  139OSM    O1315163   6.549   5.827   5.983  0.4077  0.1964  0.3587
  139OSM    O1415164   6.604   5.627   6.140 -0.1773  0.1762 -0.2802
  139OSM    O1115165   6.468   5.598   5.930  0.2033  0.4026 -0.0100
  139OSM    O1215166   6.378   5.714   6.124  0.5543  0.1086 -0.2894
  139OSM    C1S15167   6.415   5.646   5.806  0.5843 -0.2318 -0.3039
  139OSM    H1S15168   6.482   5.726   5.768 -0.6586 -0.0967 -2.3256
  139OSM    H1T15169   6.314   5.692   5.806  0.6408 -0.0462  1.1861
  139OSM     NF15170   6.391   5.593   5.570 -1.0803 -0.0360 -0.3929
  139OSM    HNF15171   6.294   5.589   5.550 -1.2137 -2.3070  0.4458
  139OSM    C2S15172   6.431   5.528   5.694  0.0113 -0.3185  0.2322
  139OSM    H2S15173   6.539   5.499   5.687  1.0368  3.2804 -0.7198
  139OSM    C3S15174   6.349   5.402   5.738 -0.1032  0.5487  0.6475
  139OSM    H3S15175   6.246   5.443   5.738 -0.3873 -0.1476  0.6416
  139OSM     O315176   6.391   5.351   5.866 -0.0601 -0.1844 -0.2111
  139OSM    HO315177   6.447   5.420   5.901 -0.1344 -0.8557  1.3197
  139OSM    C4S15178   6.374   5.292   5.640 -0.1060 -0.1259  0.6397
  139OSM    H4S15179   6.474   5.247   5.643 -0.7733 -1.7518 -0.0002
  139OSM    C5S15180   6.273   5.248   5.572 -0.4281  0.8214  0.1397
  139OSM    H5S15181   6.176   5.301   5.573 -1.1030 -0.1831 -2.3788
  139OSM    C6S15182   6.273   5.140   5.469  0.1136 -0.1489  0.4718
  139OSM    H6S15183   6.236   5.050   5.523  1.7134 -0.9720  0.2604
  139OSM    H6T15184   6.376   5.107   5.441  1.1149  0.7923  2.7913
  139OSM    C7S15185   6.199   5.164   5.341  0.5773 -0.2655  0.5875
  139OSM    H7S15186   6.103   5.208   5.375  1.0545  0.8019  0.6015
  139OSM    H7T15187   6.176   5.062   5.303  1.6556  0.3027 -1.7488
  139OSM    C8S15188   6.262   5.259   5.239  0.0717  0.3085  0.1241
  139OSM    H8S15189   6.355   5.207   5.209  0.7016  1.5587 -0.1578
  139OSM    H8T15190   6.296   5.354   5.284  0.5082 -1.0136  2.7721
  139OSM    C9S15191   6.157   5.293   5.133 -0.3824  0.1902 -0.2864
  139OSM    H9S15192   6.070   5.344   5.178  0.7543  1.2262  0.7920
  139OSM    H9T15193   6.117   5.203   5.081 -0.7578 -0.7152  1.5179
  139OSM   C10S15194   6.215   5.382   5.021 -0.0068 -0.8007  0.5079
  139OSM   H10S15195   6.265   5.320   4.943  1.9813  0.8964  0.3493
  139OSM   H10T15196   6.288   5.451   5.068 -3.3564  1.6109  2.6547
  139OSM   C11S15197   6.104   5.459   4.953  0.4321 -0.3119  0.2391
  139OSM   H11S15198   6.008   5.404   4.960  0.5855 -0.8042 -1.1929
  139OSM   H11T15199   6.139   5.467   4.848  1.8536 -1.7102  0.5679
  139OSM   C12S15200   6.079   5.604   5.013 -0.3646  0.0929  0.7403
  139OSM   H12S15201   6.173   5.663   5.016 -0.2982 -0.0062  0.6005
  139OSM   H12T15202   6.032   5.603   5.114  2.8534 -1.8642  2.3704
  139OSM   C13S15203   5.979   5.681   4.922  0.3160 -0.2938  0.6321
  139OSM   H13S15204   5.954   5.779   4.968  2.7621  1.4198 -1.4175
  139OSM   H13T15205   5.886   5.621   4.927  1.7378 -2.4805  3.0864
  139OSM   C14S15206   6.027   5.713   4.780  0.3749 -0.6299  0.7418
  139OSM   H14S15207   5.948   5.774   4.732  0.4480 -0.6573  0.5854
  139OSM   H14T15208   6.048   5.618   4.726  1.1059 -1.3190  2.1995
  139OSM   C15S15209   6.149   5.807   4.768 -0.6512 -0.7391 -0.2659
  139OSM   H15S15210   6.244   5.763   4.803  1.0786  1.3133 -2.0567
  139OSM   H15T15211   6.136   5.896   4.834 -0.4541 -0.5023 -0.5407
  139OSM   C16S15212   6.162   5.865   4.626 -0.1194 -0.5647 -0.0575
  139OSM   H16S15213   6.082   5.941   4.611 -1.2812 -2.1891 -2.6409
  139OSM   H16T15214   6.134   5.777   4.565  1.7106 -2.6157  1.9032
  139OSM   C17S15215   6.297   5.937   4.596  0.2423 -0.3134 -0.0340
  139OSM   H17S15216   6.314   6.019   4.669 -1.7885 -1.2064  1.5454
  139OSM   H17T15217   6.282   5.984   4.496 -0.3235 -1.0504 -0.2985
  139OSM   C18S15218   6.419   5.842   4.596  0.4000  0.2736 -0.0006
  139OSM   H18S15219   6.514   5.898   4.582  0.4500 -0.2413 -2.0182
  139OSM   H18T15220   6.419   5.768   4.513 -1.2351  2.4501 -2.1070
  139OSM   H18U15221   6.425   5.789   4.693 -1.7491  3.7720  2.2834
  139OSM    C1F15222   6.472   5.672   5.498  0.5144 -0.1992  0.1846
  139OSM     OF15223   6.593   5.666   5.513  0.3295 -0.4318 -0.3115
  139OSM    C2F15224   6.407   5.763   5.388  0.5035 -0.3486 -0.0383
  139OSM    H2F15225   6.390   5.857   5.446 -0.5436 -0.5578  0.0124
  139OSM    H2G15226   6.317   5.703   5.364  2.7810 -4.2058  0.3001
  139OSM    C3F15227   6.495   5.779   5.271 -0.5796  1.1940 -0.2194
  139OSM    H3F15228   6.604   5.787   5.290 -0.6158 -0.5888  1.0303
  139OSM    H3G15229   6.469   5.865   5.207 -1.4447  0.2285 -1.2011
  139OSM    C4F15230   6.473   5.661   5.167  1.2452 -0.3445  0.1393
  139OSM    H4F15231   6.370   5.674   5.128  0.9664  1.1655  1.2966
  139OSM    H4G15232   6.478   5.564   5.219 -1.7510 -0.3760  0.5321
  139OSM    C5F15233   6.565   5.655   5.040  0.4903  0.2505 -0.2780
  139OSM    H5F15234   6.665   5.615   5.066  0.4505  1.8562  2.7889
  139OSM    H5G15235   6.570   5.751   4.985 -4.0920  0.6277 -0.4177
  139OSM    C6F15236   6.522   5.543   4.938  0.2949 -0.4700  0.4257
  139OSM    H6F15237   6.415   5.554   4.913  0.2227 -3.0065 -0.5955
  139OSM    H6G15238   6.525   5.450   4.998 -1.3501  1.4683  3.8049
  139OSM    C7F15239   6.609   5.527   4.816 -1.4220 -0.3209  0.1585
  139OSM    H7F15240   6.708   5.487   4.846 -1.2681  0.5456  0.8832
  139OSM    H7G15241   6.602   5.617   4.751  0.4149 -0.6682 -0.5633
  139OSM    C8F15242   6.547   5.414   4.730 -0.2866  0.0306 -1.0320
  139OSM    H8F15243   6.462   5.455   4.671 -1.2154 -0.3741  0.0143
  139OSM    H8G15244   6.508   5.343   4.806  1.4275  1.2345  1.0787
  139OSM    C9F15245   6.639   5.333   4.642 -0.8826  0.1524  0.0404
  139OSM    H9F15246   6.699   5.253   4.687  0.5895  0.7845 -0.7268
  139OSM   C10F15247   6.658   5.353   4.506  0.3089 -0.3118 -0.8796
  139OSM   H10F15248   6.726   5.282   4.457 -0.4536 -2.6348  1.2484
  139OSM   C11F15249   6.587   5.457   4.421  0.6366 -0.6061  0.4154
  139OSM   H11F15250   6.665   5.536   4.422 -0.5217  0.5700  0.2269
  139OSM   H11G15251   6.494   5.498   4.466 -0.6424 -0.2913 -2.3235
  139OSM   C12F15252   6.543   5.420   4.271 -0.5501  0.2401  0.4056
  139OSM   H12F15253   6.481   5.328   4.267  0.5504 -0.5020 -0.3845
  139OSM   H12G15254   6.640   5.405   4.217 -0.8899 -0.9023  0.0733
  139OSM   C13F15255   6.456   5.523   4.201  0.3371  0.1569  0.1902
  139OSM   H13F15256   6.495   5.623   4.175 -0.2437  0.0206 -1.2827
  139OSM   H13G15257   6.372   5.542   4.271 -1.2304 -1.6586 -1.0771
  139OSM   C14F15258   6.402   5.449   4.071 -0.6571  0.2036 -0.3212
  139OSM   H14F15259   6.311   5.503   4.037 -2.2122 -2.5703 -0.8314
  139OSM   H14G15260   6.381   5.342   4.089  0.5059  0.5495  4.1720
  139OSM   C15F15261   6.503   5.441   3.955 -0.8719  0.5084  0.6217
  139OSM   H15F15262   6.602   5.408   3.993 -0.4097  2.6247  1.3956
  139OSM   H15G15263   6.511   5.548   3.929 -0.6803  0.9216  2.2384
  139OSM   C16F15264   6.456   5.340   3.851 -0.6444 -0.6834  0.6828
  139OSM   H16F15265   6.397   5.255   3.892 -1.9433 -0.3574 -0.4288
  139OSM   H16G15266   6.538   5.301   3.788 -1.9344 -1.8967 -0.2997
  139OSM   C17F15267   6.358   5.398   3.754  0.4066  0.3615  0.0394
  139OSM   H17F15268   6.410   5.479   3.699  3.3648 -2.3582 -1.5028
  139OSM   H17G15269   6.271   5.456   3.793  1.1269  1.8858 -0.5301
  139OSM   C18F15270   6.313   5.297   3.644 -0.1384 -0.3167  0.4181
  139OSM   H18F15271   6.246   5.351   3.573 -0.8012  0.8854  1.9241
  139OSM   H18G15272   6.257   5.215   3.693 -2.3647  1.7325  1.4753
  139OSM   H18H15273   6.396   5.254   3.583  1.5840  0.0833  2.3869
  140OSM      N15274   0.827   0.997   6.169  0.0241 -0.0097  0.1111
  140OSM    C1515275   0.842   1.051   6.033  0.0935  0.8343  0.1839
  140OSM   H15A15276   0.773   1.013   5.958  0.5751  1.0637 -0.3876
  140OSM   H15B15277   0.941   1.030   5.996  0.3960  0.8628  0.9582
  140OSM   H15C15278   0.831   1.159   6.027  2.3985  1.0989 -0.1644
  140OSM    C1415279   0.690   1.027   6.206  0.7891 -0.3149  0.0199
  140OSM   H14A15280   0.645   0.958   6.276 -1.3231 -1.2761 -2.1341
  140OSM   H14B15281   0.634   1.014   6.115 -0.7608 -0.7395  0.9831
  140OSM   H14C15282   0.674   1.123   6.253 -0.5893  0.7641 -2.4740
  140OSM    C1315283   0.855   0.848   6.171  0.3257  0.0519 -0.4717
  140OSM   H13A15284   0.785   0.782   6.120  0.3235 -0.2818 -0.0485
  140OSM   H13B15285   0.844   0.818   6.274  1.4544  0.3063 -0.2746
  140OSM   H13C15286   0.956   0.820   6.146  1.8588  3.0431  1.7820
  140OSM    C1215287   0.927   1.060   6.267 -0.4392  0.0087  0.2285
  140OSM   H12A15288   0.898   1.030   6.367 -1.1852  1.5947  0.5072
  140OSM   H12B15289   0.902   1.165   6.270 -1.4437 -0.2335  2.2176
  140OSM    C1115290   1.085   1.048   6.245  0.2131  0.0764 -0.7839
  140OSM   H11A15291   1.117   0.941   6.246  2.0879  0.5319 -2.8456
  140OSM   H11B15292   1.133   1.086   6.337 -0.7146 -1.8529  0.5618
  140OSM      P15293   1.140   1.273   6.129  0.6250  0.4577 -0.3167
  140OSM    O1315294   1.009   1.334   6.095 -0.1643  0.1852 -0.0996
  140OSM    O1415295   1.198   1.311   6.260 -0.1109  0.0648 -0.2999
  140OSM    O1115296   1.242   1.299   6.011 -0.4637 -0.0888  0.4504
  140OSM    O1215297   1.134   1.115   6.123  0.2226  0.4667  0.1502
  140OSM    C1S15298   1.264   1.212   5.899  0.3700  0.4840  0.3268
  140OSM    H1S15299   1.185   1.134   5.894 -0.3640  1.1463  1.2366
  140OSM    H1T15300   1.360   1.161   5.922  1.2411  2.4387  1.2873
  140OSM     NF15301   1.283   1.179   5.659 -0.1148 -0.1845  0.2714
  140OSM    HNF15302   1.372   1.164   5.617  0.3134  1.0897  0.6780
  140OSM    C2S15303   1.273   1.282   5.763 -0.0441 -0.1473  0.2280
  140OSM    H2S15304   1.181   1.341   5.744  1.0137  1.0003 -1.6693
  140OSM    C3S15305   1.390   1.386   5.774  0.2255 -0.5511  0.0589
  140OSM    H3S15306   1.485   1.338   5.805  0.5586  0.6521  0.9426
  140OSM     O315307   1.357   1.493   5.864  0.2585  0.1963  0.4006
  140OSM    HO315308   1.271   1.468   5.900  0.8326 -1.1541  0.8785
  140OSM    C4S15309   1.429   1.443   5.643  0.9363 -0.3347  1.2120
  140OSM    H4S15310   1.520   1.394   5.604  1.1785  2.1099 -1.6512
  140OSM    C5S15311   1.383   1.550   5.570 -0.5601 -0.3572 -0.5221
  140OSM    H5S15312   1.294   1.603   5.608 -0.2797  0.5018 -1.0583
  140OSM    C6S15313   1.449   1.612   5.444 -0.8724  0.0626 -0.8321
  140OSM    H6S15314   1.523   1.687   5.480 -0.6965  0.3614 -1.7933
  140OSM    H6T15315   1.363   1.662   5.396  1.3135  3.7078 -1.3692
  140OSM    C7S15316   1.511   1.508   5.353 -0.1642  0.4299  0.7999
  140OSM    H7S15317   1.431   1.434   5.331 -0.7996  1.0142  1.1204
  140OSM    H7T15318   1.599   1.459   5.400  0.3082 -0.5999 -1.0227
  140OSM    C8S15319   1.551   1.571   5.213 -0.5814  0.0018  0.2800
  140OSM    H8S15320   1.644   1.628   5.232 -0.3436 -0.1131 -0.5068
  140OSM    H8T15321   1.467   1.631   5.171  0.0564 -0.8074 -2.3130
  140OSM    C9S15322   1.602   1.458   5.118 -0.0988  0.2761  0.3771
  140OSM    H9S15323   1.544   1.365   5.133  0.8112 -0.5401 -0.9549
  140OSM    H9T15324   1.709   1.443   5.142  0.0534  3.0072  1.8863
  140OSM   C10S15325   1.602   1.492   4.968  0.2516 -0.3765  0.5032
  140OSM   H10S15326   1.635   1.598   4.961  2.4207 -1.0924 -1.8670
  140OSM   H10T15327   1.500   1.482   4.925  0.1104  0.1366  0.7096
  140OSM   C11S15328   1.693   1.413   4.880 -0.8636 -0.0277  0.8427
  140OSM   H11S15329   1.659   1.307   4.880 -0.2812 -0.2425 -0.7289
  140OSM   H11T15330   1.792   1.423   4.928 -0.1770  1.1251 -0.7403
  140OSM   C12S15331   1.698   1.454   4.732 -0.0423  0.4168  0.4869
  140OSM   H12S15332   1.707   1.565   4.728 -0.8234  0.5019  0.7402
  140OSM   H12T15333   1.601   1.430   4.682  0.5809 -1.3222  0.0482
  140OSM   C13S15334   1.806   1.384   4.648  0.2873  0.2825 -0.0287
  140OSM   H13S15335   1.791   1.274   4.649  0.4179  0.2712  0.8499
  140OSM   H13T15336   1.906   1.407   4.690 -0.4135  0.2774  1.7378
  140OSM   C14S15337   1.799   1.439   4.506 -0.1939 -0.1656 -0.1912
  140OSM   H14S15338   1.780   1.549   4.510 -0.1657 -0.1826  0.5644
  140OSM   H14T15339   1.716   1.386   4.456 -0.2584 -0.2624  0.0171
  140OSM   C15S15340   1.932   1.430   4.435 -0.6727  0.0141  0.9416
  140OSM   H15S15341   1.975   1.327   4.433  1.8708  0.9274  2.8170
  140OSM   H15T15342   2.002   1.498   4.488  0.7983 -0.3033 -0.5218
  140OSM   C16S15343   1.925   1.480   4.286 -0.6693  0.1385 -0.4580
  140OSM   H16S15344   1.851   1.562   4.297  0.0920  0.4991  3.4216
  140OSM   H16T15345   1.877   1.405   4.220 -1.5697  1.0499 -0.8757
  140OSM   C17S15346   2.072   1.524   4.233  0.7766  0.0102  0.3688
  140OSM   H17S15347   2.116   1.588   4.312  2.7594 -0.1774 -0.5148
  140OSM   H17T15348   2.062   1.593   4.147  1.3875 -0.7261 -0.3080
  140OSM   C18S15349   2.161   1.402   4.196 -0.2543  0.3792 -0.6511
  140OSM   H18S15350   2.208   1.369   4.292  1.7871  1.7124 -1.1250
  140OSM   H18T15351   2.254   1.426   4.141 -0.5220  0.4684 -1.0690
  140OSM   H18U15352   2.101   1.324   4.144 -1.0154  1.2574 -1.1233
  140OSM    C1F15353   1.181   1.109   5.620  0.5740 -0.5727  0.1149
  140OSM     OF15354   1.071   1.130   5.682 -0.1972 -0.0992  0.9572
  140OSM    C2F15355   1.191   1.029   5.502 -0.5873 -0.2680 -0.1256
  140OSM    H2F15356   1.085   1.015   5.470 -0.7648 -0.8775  0.7038
  140OSM    H2G15357   1.240   0.932   5.524 -1.7418 -0.5776  1.3104
  140OSM    C3F15358   1.263   1.089   5.375  0.3506 -0.2862 -0.8285
  140OSM    H3F15359   1.370   1.113   5.391 -0.1615  2.7614 -1.1924
  140OSM    H3G15360   1.220   1.187   5.342 -1.6063 -1.4794 -2.0095
  140OSM    C4F15361   1.255   0.993   5.259 -0.2691 -0.1183 -0.1530
  140OSM    H4F15362   1.150   0.963   5.235  0.4331 -1.5505 -1.5750
  140OSM    H4G15363   1.313   0.908   5.299  1.0360  0.8538  0.0885
  140OSM    C5F15364   1.304   1.047   5.126 -0.6205 -0.1368 -0.1078
  140OSM    H5F15365   1.333   0.968   5.053 -0.3888 -1.1632  1.0464
  140OSM    H5G15366   1.395   1.106   5.153  0.0382 -0.7375 -0.9478
  140OSM    C6F15367   1.211   1.142   5.057 -0.0717  0.0766 -0.0321
  140OSM    H6F15368   1.181   1.216   5.134 -0.3382  1.1287 -1.1327
  140OSM    H6G15369   1.116   1.093   5.024 -0.6719  0.5670  0.9038
  140OSM    C7F15370   1.283   1.224   4.952 -0.0192 -0.1934  0.3065
  140OSM    H7F15371   1.367   1.167   4.908 -1.9199 -1.3523 -2.1096
  140OSM    H7G15372   1.325   1.316   4.998 -0.3017  0.2327 -0.2648
  140OSM    C8F15373   1.208   1.280   4.828 -0.2836  0.2662  0.3080
  140OSM    H8F15374   1.252   1.371   4.783 -1.6647 -0.0428 -1.8352
  140OSM    H8G15375   1.114   1.326   4.866 -0.5857 -0.6894  0.7444
  140OSM    C9F15376   1.187   1.189   4.711  0.0315 -0.0531 -0.3010
  140OSM    H9F15377   1.092   1.134   4.699  0.5862 -1.1287  0.0706
  140OSM   C10F15378   1.267   1.192   4.600  0.0997 -0.4584 -0.4381
  140OSM   H10F15379   1.229   1.131   4.517  0.5310  0.2771 -1.1957
  140OSM   C11F15380   1.393   1.264   4.571  0.3159  0.2961  0.0725
  140OSM   H11F15381   1.480   1.202   4.602 -0.5422 -0.4253  1.0967
  140OSM   H11G15382   1.405   1.362   4.624  0.6598  0.2932  0.0019
  140OSM   C12F15383   1.401   1.299   4.413  0.2233 -0.4058 -0.5669
  140OSM   H12F15384   1.490   1.363   4.394  0.5274  0.8158  3.8837
  140OSM   H12G15385   1.306   1.348   4.384  0.8339 -0.7664 -3.4282
  140OSM   C13F15386   1.423   1.185   4.314 -0.2976 -0.1154  0.0910
  140OSM   H13F15387   1.328   1.141   4.278 -1.2382  0.9856  1.1296
  140OSM   H13G15388   1.481   1.105   4.363 -0.5568 -1.7923 -2.1871
  140OSM   C14F15389   1.518   1.227   4.192  0.3816  0.3141  0.1244
  140OSM   H14F15390   1.568   1.134   4.157  0.2553 -0.0282  0.8420
  140OSM   H14G15391   1.599   1.291   4.232 -0.4302  0.8346  0.9596
  140OSM   C15F15392   1.443   1.294   4.079  0.2756  0.3130 -0.2493
  140OSM   H15F15393   1.391   1.389   4.104  0.6993  1.0250 -1.9572
  140OSM   H15G15394   1.379   1.209   4.045  0.0410  0.1583  0.5454
  140OSM   C16F15395   1.549   1.311   3.967  0.3334  0.2194 -0.0145
  140OSM   H16F15396   1.500   1.326   3.868  0.0333  1.3658  0.2842
  140OSM   H16G15397   1.614   1.221   3.960  0.6817  0.4702 -0.0453
  140OSM   C17F15398   1.638   1.438   3.984 -0.4686 -0.0073 -0.0725
  140OSM   H17F15399   1.672   1.435   4.090 -0.9767 -3.8571  0.1494
  140OSM   H17G15400   1.566   1.521   3.972  0.6234  1.0563  0.5150
  140OSM   C18F15401   1.750   1.454   3.879  0.4949 -0.6081 -0.0450
  140OSM   H18F15402   1.705   1.464   3.778 -1.3303  1.8261  0.9168
  140OSM   H18G15403   1.802   1.356   3.873 -0.5031 -1.1084 -0.7385
  140OSM   H18H15404   1.815   1.540   3.903 -0.0019 -0.2212 -0.0713
  141OSM      N15405   0.197   3.528   6.014  0.1977  0.6512  0.0890
  141OSM    C1515406   0.049   3.567   6.023  0.0727 -0.2358 -0.4082
  141OSM   H15A15407  -0.013   3.505   5.960 -0.5567  1.3782 -1.4537
  141OSM   H15B15408   0.033   3.668   5.985 -1.5028  0.3595  1.6540
  141OSM   H15C15409   0.016   3.565   6.126 -0.2479 -1.1995 -0.5192
  141OSM    C1415410   0.274   3.629   6.097  0.3783  0.2665  0.3421
  141OSM   H14A15411   0.235   3.646   6.196  1.5001  0.1990  0.8181
  141OSM   H14B15412   0.286   3.724   6.047 -1.2680 -0.2179 -1.0806
  141OSM   H14C15413   0.380   3.605   6.098  0.9162  2.2892 -0.9544
  141OSM    C1315414   0.216   3.392   6.078  0.6889 -0.4124 -0.0882
  141OSM   H13A15415   0.196   3.407   6.183  2.8934 -0.2978  0.3685
  141OSM   H13B15416   0.320   3.368   6.066  0.2797 -2.2188 -0.2084
  141OSM   H13C15417   0.158   3.306   6.049 -1.0514  1.4173 -2.4387
  141OSM    C1215418   0.241   3.541   5.870 -0.1570  0.1956  0.2196
  141OSM   H12A15419   0.346   3.567   5.870  0.3925 -1.8813  0.8907
  141OSM   H12B15420   0.185   3.623   5.827 -0.3351  0.7993  1.5460
  141OSM    C1115421   0.237   3.416   5.778 -0.0342  0.0097 -0.5632
  141OSM   H11A15422   0.266   3.456   5.678 -0.0256 -0.4459 -0.7441
  141OSM   H11B15423   0.135   3.373   5.767  0.3978 -0.7481 -1.7348
  141OSM      P15424   0.484   3.335   5.807 -0.2893 -0.1112  0.1736
  141OSM    O1315425   0.520   3.469   5.864  0.2094  0.1053  0.9171
  141OSM    O1415426   0.561   3.219   5.863 -0.5485 -0.3707  0.0149
  141OSM    O1115427   0.506   3.340   5.649 -0.5991  0.3876  0.3650
  141OSM    O1215428   0.329   3.312   5.827 -0.3073 -0.1578 -0.3584
  141OSM    C1S15429   0.440   3.246   5.562  0.7778 -0.1568  0.6419
  141OSM    H1S15430   0.329   3.250   5.555  0.6249 -2.1498  1.3545
  141OSM    H1T15431   0.463   3.142   5.593  2.0419 -0.7356 -1.9394
  141OSM     NF15432   0.403   3.196   5.319 -0.5275 -0.2354 -0.2281
  141OSM    HNF15433   0.443   3.106   5.307  1.7427  0.2004  2.7703
  141OSM    C2S15434   0.486   3.277   5.413  0.5046 -0.3352  0.3542
  141OSM    H2S15435   0.474   3.383   5.382  0.2531  0.2491  2.3423
  141OSM    C3S15436   0.633   3.248   5.402 -0.3662  0.1813  0.5507
  141OSM    H3S15437   0.643   3.140   5.426  0.2239  0.6025  2.3037
  141OSM     O315438   0.718   3.329   5.488  0.2828 -0.1724 -0.2335
  141OSM    HO315439   0.653   3.352   5.555 -2.2885 -0.0462 -2.5781
  141OSM    C4S15440   0.690   3.279   5.260  0.0480 -0.7584 -0.2548
  141OSM    H4S15441   0.691   3.386   5.234 -1.2316 -0.8064 -0.5701
  141OSM    C5S15442   0.741   3.200   5.167  0.3101  0.3061  0.5124
  141OSM    H5S15443   0.745   3.092   5.183  1.0450  0.2059 -0.3051
  141OSM    C6S15444   0.794   3.262   5.040  0.3570  0.4408 -0.2572
  141OSM    H6S15445   0.904   3.253   5.032  0.6474  3.2619 -0.6638
  141OSM    H6T15446   0.782   3.373   5.040 -1.3042  0.2887  0.1945
  141OSM    C7S15447   0.712   3.212   4.915  0.2296 -0.0383  0.0173
  141OSM    H7S15448   0.717   3.102   4.902  0.0410 -0.0669  0.1736
  141OSM    H7T15449   0.762   3.267   4.832  1.3366 -0.9444  0.0598
  141OSM    C8S15450   0.566   3.258   4.923 -0.1416  0.1201  0.0406
  141OSM    H8S15451   0.560   3.361   4.964  1.4010  0.5594 -0.7741
  141OSM    H8T15452   0.512   3.201   5.002 -0.9510  2.1945  1.0593
  141OSM    C9S15453   0.509   3.242   4.780 -0.5702 -0.5193  0.1068
  141OSM    H9S15454   0.544   3.148   4.733 -2.1339 -0.6994 -0.7635
  141OSM    H9T15455   0.551   3.322   4.716  2.8437 -3.1819 -1.2821
  141OSM   C10S15456   0.352   3.245   4.771  0.3381  0.6340  0.4056
  141OSM   H10S15457   0.332   3.354   4.763  1.1920  0.8700  1.3060
  141OSM   H10T15458   0.319   3.204   4.869  1.1191  0.2997  0.5402
  141OSM   C11S15459   0.292   3.163   4.656  0.0672  0.4191 -0.2099
  141OSM   H11S15460   0.184   3.139   4.669  0.0691  0.5227  0.0026
  141OSM   H11T15461   0.343   3.067   4.678  0.5564  1.0183  1.3490
  141OSM   C12S15462   0.341   3.198   4.508  0.1400  0.0417  0.4762
  141OSM   H12S15463   0.440   3.245   4.524 -0.1439  0.0948  2.3413
  141OSM   H12T15464   0.279   3.280   4.466 -0.5359 -0.8892 -0.3830
  141OSM   C13S15465   0.362   3.073   4.430 -0.7022  0.6618  0.4914
  141OSM   H13S15466   0.263   3.024   4.418  0.0261 -0.5033 -1.0802
  141OSM   H13T15467   0.440   3.017   4.486 -1.0140  0.2334  0.4993
  141OSM   C14S15468   0.426   3.091   4.288  0.6932 -0.9197 -0.6738
  141OSM   H14S15469   0.442   2.993   4.239  1.0885 -1.2208  0.0458
  141OSM   H14T15470   0.528   3.130   4.307  0.2588 -0.5296  1.0352
  141OSM   C15S15471   0.343   3.189   4.203  0.0423 -0.2344 -0.3690
  141OSM   H15S15472   0.336   3.287   4.254 -1.9030 -0.6067  0.1638
  141OSM   H15T15473   0.241   3.149   4.188  0.0088 -1.3512  2.2382
  141OSM   C16S15474   0.418   3.206   4.070  0.3812  0.0815 -0.0522
  141OSM   H16S15475   0.461   3.108   4.042  1.4533 -0.9004  4.2217
  141OSM   H16T15476   0.507   3.272   4.087 -0.2376  1.1765 -0.9266
  141OSM   C17S15477   0.345   3.275   3.955  0.0684 -0.9094  0.1482
  141OSM   H17S15478   0.302   3.368   3.998  1.2983 -1.0733  1.8496
  141OSM   H17T15479   0.257   3.215   3.925  1.3107 -3.2608  0.9612
  141OSM   C18S15480   0.445   3.298   3.842 -0.5480  0.3742  0.2371
  141OSM   H18S15481   0.408   3.329   3.742  1.6161  2.5204  0.0238
  141OSM   H18T15482   0.506   3.207   3.830  2.6176  2.2493  0.9773
  141OSM   H18U15483   0.508   3.386   3.869 -0.1802  0.0077  0.5934
  141OSM    C1F15484   0.294   3.227   5.254 -0.2820 -0.1899  0.1106
  141OSM     OF15485   0.247   3.341   5.278 -0.2401  0.1707  0.2505
  141OSM    C2F15486   0.227   3.127   5.170 -0.7842  0.2060  1.0052
  141OSM    H2F15487   0.227   3.026   5.216 -3.0586 -0.2663  0.0846
  141OSM    H2G15488   0.287   3.109   5.078 -2.9072 -0.6364 -0.2871
  141OSM    C3F15489   0.087   3.154   5.119 -0.3351  0.2856 -0.3931
  141OSM    H3F15490   0.081   3.252   5.066  1.5264 -0.1698 -1.5515
  141OSM    H3G15491   0.009   3.167   5.197  0.6887  2.2412  0.4087
  141OSM    C4F15492   0.036   3.051   5.018 -0.6561 -0.3990 -1.0289
  141OSM    H4F15493   0.047   2.948   5.057  2.5267 -0.6711 -2.3125
  141OSM    H4G15494   0.107   3.064   4.933  0.4799 -0.7468 -0.1612
  141OSM    C5F15495  -0.107   3.085   4.983  0.0878  0.6362 -0.9646
  141OSM    H5F15496  -0.110   3.194   4.961 -1.5985  0.4083 -1.9738
  141OSM    H5G15497  -0.175   3.070   5.069  1.1239  1.0348 -0.0561
  141OSM    C6F15498  -0.154   3.018   4.854 -0.6411 -0.4549 -0.2638
  141OSM    H6F15499  -0.073   3.030   4.778  1.9554  0.7183  2.4860
  141OSM    H6G15500  -0.243   3.078   4.827  0.4524  1.1898 -0.3425
  141OSM    C7F15501  -0.168   2.865   4.867  0.6084  0.1052  0.7027
  141OSM    H7F15502  -0.218   2.846   4.964 -1.6436 -3.3693 -0.9259
  141OSM    H7G15503  -0.072   2.811   4.849 -0.3618 -0.9462 -1.7543
  141OSM    C8F15504  -0.273   2.816   4.759 -0.3373  0.7931 -0.5172
  141OSM    H8F15505  -0.270   2.705   4.763 -1.6309  0.7101 -1.3893
  141OSM    H8G15506  -0.243   2.842   4.655  1.9522  1.4009  0.2223
  141OSM    C9F15507  -0.407   2.870   4.793 -0.1519  0.3747  0.5452
  141OSM    H9F15508  -0.418   2.979   4.785  2.2567  0.5914 -1.0644
  141OSM   C10F15509  -0.517   2.799   4.804  0.2976  0.3765  0.1509
  141OSM   H10F15510  -0.609   2.859   4.816 -1.1129 -1.9776  2.1240
  141OSM   C11F15511  -0.529   2.647   4.799  0.2455 -0.3344 -0.0003
  141OSM   H11F15512  -0.536   2.603   4.901  0.6314 -0.8605 -0.1922
  141OSM   H11G15513  -0.443   2.602   4.745  1.5624  1.2577  0.6755
  141OSM   C12F15514  -0.662   2.613   4.728 -0.2561 -0.2307 -0.6475
  141OSM   H12F15515  -0.748   2.624   4.798  1.3986  0.4877  1.3975
  141OSM   H12G15516  -0.652   2.504   4.708 -0.3131 -0.2476 -0.5841
  141OSM   C13F15517  -0.678   2.686   4.593 -0.2146 -0.1105 -0.1705
  141OSM   H13F15518  -0.671   2.796   4.608  1.0140 -0.5287  3.2092
  141OSM   H13G15519  -0.772   2.650   4.546  0.1430  0.1755 -1.1194
  141OSM   C14F15520  -0.572   2.647   4.475  0.2674  0.5163 -0.3849
  141OSM   H14F15521  -0.626   2.568   4.419 -3.2309  3.1146 -1.0160
  141OSM   H14G15522  -0.476   2.610   4.516  0.3723  2.2537  1.0841
  141OSM   C15F15523  -0.539   2.768   4.400  0.4597 -0.3447  1.1107
  141OSM   H15F15524  -0.514   2.853   4.469  1.3899 -0.8445  1.4101
  141OSM   H15G15525  -0.620   2.806   4.335  1.1080 -0.7671  0.0224
  141OSM   C16F15526  -0.419   2.736   4.310 -0.7362 -0.4627  0.2421
  141OSM   H16F15527  -0.326   2.730   4.371 -1.0297  0.9139  0.8653
  141OSM   H16G15528  -0.405   2.830   4.253  1.6150  0.4485  2.1317
  141OSM   C17F15529  -0.431   2.636   4.203  0.2535  0.1361 -0.0231
  141OSM   H17F15530  -0.392   2.537   4.236  1.3482  0.0470 -1.4796
  141OSM   H17G15531  -0.352   2.651   4.127  0.8498 -4.4464 -0.5931
  141OSM   C18F15532  -0.565   2.622   4.131  0.0415 -0.3762 -0.2128
  141OSM   H18F15533  -0.552   2.545   4.051  1.2038 -0.9486  0.4978
  141OSM   H18G15534  -0.598   2.719   4.089  2.3386  0.5980  0.1105
  141OSM   H18H15535  -0.645   2.580   4.194  0.3873 -0.5162  0.1363
  142OSM      N15536   5.989   1.250   6.288  0.1921 -0.1138  0.0558
  142OSM    C1515537   5.878   1.150   6.268  0.6042  0.8476 -0.1645
  142OSM   H15A15538   5.826   1.125   6.360 -1.2431  1.4430 -0.9912
  142OSM   H15B15539   5.923   1.059   6.234  0.5056  0.9573 -0.5935
  142OSM   H15C15540   5.810   1.176   6.188  0.1144 -1.5237 -0.5750
  142OSM    C1415541   6.055   1.218   6.416 -0.3638  0.0583  0.8618
  142OSM   H14A15542   6.105   1.122   6.409 -1.1536 -0.6928  3.9984
  142OSM   H14B15543   5.989   1.207   6.501 -0.3527 -1.1309  0.7326
  142OSM   H14C15544   6.128   1.294   6.439 -0.4167  0.2176  0.5069
  142OSM    C1315545   6.083   1.235   6.179  0.1357 -0.2123 -0.3739
  142OSM   H13A15546   6.036   1.260   6.085 -0.9382  0.9109  0.4362
  142OSM   H13B15547   6.121   1.135   6.164 -0.7901 -0.8209  1.0626
  142OSM   H13C15548   6.174   1.289   6.201 -0.0061 -0.0702 -0.1335
  142OSM    C1215549   5.930   1.393   6.289 -0.4823 -0.0531 -0.1454
  142OSM   H12A15550   6.002   1.448   6.349 -0.2253 -0.8802  0.3237
  142OSM   H12B15551   5.850   1.390   6.361 -0.5070  0.6953 -0.1303
  142OSM    C1115552   5.901   1.473   6.162  0.4192  1.2921 -0.1198
  142OSM   H11A15553   5.841   1.566   6.173 -1.1003  0.2518  0.8115
  142OSM   H11B15554   5.843   1.406   6.094  1.2089  0.5950 -0.1312
  142OSM      P15555   6.045   1.562   5.948 -0.0925  0.0199  0.8105
  142OSM    O1315556   6.046   1.713   5.947 -0.1127 -0.1234 -0.2011
  142OSM    O1415557   6.173   1.503   5.896 -0.2080  0.3389  0.1392
  142OSM    O1115558   5.918   1.516   5.863 -0.4422  0.7636 -0.5688
  142OSM    O1215559   6.025   1.512   6.100 -0.3619 -0.6618  0.0356
  142OSM    C1S15560   5.894   1.388   5.824 -0.2158  0.3818 -0.4289
  142OSM    H1S15561   5.820   1.348   5.896  1.1141 -1.6234 -0.0746
  142OSM    H1T15562   5.987   1.326   5.823 -0.1772  0.4168 -1.7790
  142OSM     NF15563   5.962   1.347   5.594  0.1283  0.1294  0.3311
  142OSM    HNF15564   6.015   1.428   5.571  1.2168 -1.2573 -2.5774
  142OSM    C2S15565   5.842   1.373   5.676 -0.4255 -0.4029  0.3284
  142OSM    H2S15566   5.770   1.289   5.685 -0.6702 -0.1797  0.4843
  142OSM    C3S15567   5.755   1.494   5.637 -0.2584  0.0400 -0.8018
  142OSM    H3S15568   5.815   1.586   5.620  0.7223 -0.7060 -1.5871
  142OSM     O315569   5.653   1.527   5.732  0.3046 -0.0556 -0.6476
  142OSM    HO315570   5.663   1.466   5.805 -1.2810  0.4642  0.0603
  142OSM    C4S15571   5.691   1.454   5.501  0.3512 -0.0360 -0.7174
  142OSM    H4S15572   5.607   1.383   5.508  1.4787 -1.4196 -0.7851
  142OSM    C5S15573   5.757   1.473   5.383  0.3703  0.1031 -0.9281
  142OSM    H5S15574   5.847   1.537   5.386 -0.5453  1.3911  1.8249
  142OSM    C6S15575   5.712   1.427   5.247  0.3707 -0.0845 -0.6414
  142OSM    H6S15576   5.608   1.456   5.223 -0.6779 -1.7514  1.4850
  142OSM    H6T15577   5.723   1.316   5.241  3.5213  0.0729  0.3675
  142OSM    C7S15578   5.803   1.501   5.143 -0.0236  0.8757  0.4112
  142OSM    H7S15579   5.904   1.456   5.158 -1.2473 -0.9975  4.6206
  142OSM    H7T15580   5.800   1.609   5.167 -1.3568  0.6714  1.2934
  142OSM    C8S15581   5.757   1.481   5.000 -0.0862 -0.4781 -0.1415
  142OSM    H8S15582   5.656   1.526   5.000  1.0260  2.1963 -0.7568
  142OSM    H8T15583   5.747   1.371   4.985 -1.5257  0.0117 -4.0411
  142OSM    C9S15584   5.847   1.539   4.880  0.3976  0.4629 -0.2869
  142OSM    H9S15585   5.848   1.650   4.884  1.2642  0.4371  0.5562
  142OSM    H9T15586   5.799   1.520   4.782 -2.4102  0.9607  0.8814
  142OSM   C10S15587   5.992   1.507   4.890  0.7127 -0.8897 -0.1515
  142OSM   H10S15588   6.006   1.399   4.912 -1.5692 -1.1234  0.4644
  142OSM   H10T15589   6.045   1.567   4.967  1.8213 -0.3199 -1.3213
  142OSM   C11S15590   6.065   1.550   4.769 -0.5192  0.2646  0.3233
  142OSM   H11S15591   6.065   1.660   4.753  0.2460  0.2905  0.5106
  142OSM   H11T15592   6.014   1.507   4.680  2.6287  0.2741 -1.6449
  142OSM   C12S15593   6.211   1.507   4.773  0.1242  0.3928  0.4202
  142OSM   H12S15594   6.215   1.396   4.765 -1.6877  0.2941  0.5669
  142OSM   H12T15595   6.241   1.531   4.878 -1.2974 -1.3903  1.2858
  142OSM   C13S15596   6.313   1.579   4.681 -0.0155 -0.9095  0.3840
  142OSM   H13S15597   6.411   1.543   4.717  0.0684 -1.0481  0.0176
  142OSM   H13T15598   6.306   1.689   4.700  0.1791 -0.6305 -1.0746
  142OSM   C14S15599   6.300   1.576   4.532  0.6508  0.7691  0.4864
  142OSM   H14S15600   6.217   1.646   4.508  1.1320  1.4705  0.8163
  142OSM   H14T15601   6.278   1.471   4.502  3.9985 -0.3456  1.4536
  142OSM   C15S15602   6.427   1.618   4.467  0.3552 -0.8383  0.1575
  142OSM   H15S15603   6.497   1.535   4.487  1.0211 -1.2930 -3.3840
  142OSM   H15T15604   6.454   1.717   4.509 -1.5675  0.2447 -0.9922
  142OSM   C16S15605   6.433   1.628   4.316 -0.3471 -0.0765  0.0257
  142OSM   H16S15606   6.358   1.699   4.275 -0.7712  1.3682  3.0451
  142OSM   H16T15607   6.406   1.523   4.288  1.8888 -0.5233 -0.6457
  142OSM   C17S15608   6.563   1.667   4.245  0.0999  0.4244  0.1989
  142OSM   H17S15609   6.549   1.657   4.135 -1.8162 -1.2503  0.5254
  142OSM   H17T15610   6.645   1.593   4.257  2.5606  2.7068 -1.4468
  142OSM   C18S15611   6.616   1.818   4.282 -0.2397  0.4023 -0.2039
  142OSM   H18S15612   6.702   1.841   4.216  0.2527  2.4226  1.0486
  142OSM   H18T15613   6.657   1.814   4.386  1.1872  0.3254 -0.7545
  142OSM   H18U15614   6.537   1.896   4.280 -0.5141  0.2294  1.5185
  142OSM    C1F15615   6.019   1.230   5.582  0.2907 -0.8285 -0.4174
  142OSM     OF15616   6.009   1.133   5.653 -0.3420  0.1514  0.2497
  142OSM    C2F15617   6.122   1.229   5.474  0.0686 -0.6069 -0.6151
  142OSM    H2F15618   6.182   1.136   5.478  0.0288 -0.6917 -1.7189
  142OSM    H2G15619   6.183   1.321   5.470  0.2478 -0.7791 -2.2133
  142OSM    C3F15620   6.057   1.218   5.332  0.9744  0.5074 -0.0121
  142OSM    H3F15621   5.953   1.257   5.335  1.2760  1.3717 -0.5336
  142OSM    H3G15622   6.046   1.109   5.312 -0.6245  0.8986 -1.4783
  142OSM    C4F15623   6.132   1.287   5.220 -0.1597 -0.2979  0.2759
  142OSM    H4F15624   6.139   1.395   5.247 -2.4658  0.1029 -0.5045
  142OSM    H4G15625   6.085   1.283   5.119  1.0577  1.4734 -0.3986
  142OSM    C5F15626   6.273   1.227   5.200 -0.8973  0.9542  0.0487
  142OSM    H5F15627   6.259   1.122   5.166 -1.4800  0.7973  0.7567
  142OSM    H5G15628   6.311   1.206   5.302 -1.0279 -1.5367 -0.3478
  142OSM    C6F15629   6.375   1.287   5.101 -0.1009  0.0694 -0.1422
  142OSM    H6F15630   6.441   1.361   5.150 -1.4087  2.6350 -1.9992
  142OSM    H6G15631   6.318   1.350   5.030 -0.0536  1.4998  1.0492
  142OSM    C7F15632   6.463   1.178   5.033  0.3081 -0.4265 -0.7418
  142OSM    H7F15633   6.400   1.102   4.981 -0.8052  0.8189 -1.2883
  142OSM    H7G15634   6.521   1.131   5.115 -0.8352  0.5700  0.6966
  142OSM    C8F15635   6.554   1.243   4.934 -1.2364  0.2843  0.4191
  142OSM    H8F15636   6.600   1.338   4.967 -0.9682  0.1650  0.3915
  142OSM    H8G15637   6.505   1.286   4.844 -0.0076  1.2986  0.2166
  142OSM    C9F15638   6.673   1.161   4.893 -0.5393  0.0220  0.4313
  142OSM    H9F15639   6.760   1.157   4.961  1.4924  0.0054 -2.0361
  142OSM   C10F15640   6.687   1.089   4.776 -0.0933 -0.2940  0.2424
  142OSM   H10F15641   6.774   1.023   4.762  0.8547  1.2200 -1.4620
  142OSM   C11F15642   6.585   1.098   4.659 -0.6107  1.3659  0.0629
  142OSM   H11F15643   6.488   1.146   4.684 -1.2475 -0.5679  1.6583
  142OSM   H11G15644   6.553   0.994   4.634  1.3916  0.9144 -0.7733
  142OSM   C12F15645   6.636   1.168   4.534  0.3021  0.0507 -0.2884
  142OSM   H12F15646   6.746   1.155   4.521  0.3825  1.5012 -1.3434
  142OSM   H12G15647   6.614   1.276   4.544 -1.7656 -0.0868 -2.4066
  142OSM   C13F15648   6.563   1.129   4.404 -0.5193  0.1870 -0.0452
  142OSM   H13F15649   6.457   1.159   4.420 -0.0947  1.0374  1.3727
  142OSM   H13G15650   6.575   1.025   4.369 -0.5181  0.0474  0.3716
  142OSM   C14F15651   6.617   1.211   4.284 -0.2288 -0.0216 -1.0846
  142OSM   H14F15652   6.727   1.206   4.265 -0.0389 -1.1205  0.1471
  142OSM   H14G15653   6.604   1.319   4.304 -0.1431  0.2740 -2.5393
  142OSM   C15F15654   6.557   1.172   4.148  0.9001  0.3905 -0.1602
  142OSM   H15F15655   6.448   1.157   4.166  0.8993  0.6253  0.0235
  142OSM   H15G15656   6.594   1.071   4.122 -1.9235 -0.6545 -0.4278
  142OSM   C16F15657   6.599   1.264   4.039 -0.2323 -0.0085  0.1880
  142OSM   H16F15658   6.710   1.276   4.039  0.1391 -2.7147 -1.1321
  142OSM   H16G15659   6.547   1.361   4.057 -0.0954  0.2095 -0.5449
  142OSM   C17F15660   6.551   1.213   3.899 -0.5095  0.0993  0.2938
  142OSM   H17F15661   6.441   1.198   3.896 -0.6417  0.7596  1.4525
  142OSM   H17G15662   6.593   1.111   3.881  0.2470  0.1270  1.7783
  142OSM   C18F15663   6.595   1.307   3.787 -0.2523  1.0719  0.0033
  142OSM   H18F15664   6.706   1.321   3.789 -0.1312  0.1438  1.8532
  142OSM   H18G15665   6.552   1.408   3.802 -1.9056  0.4715 -0.4848
  142OSM   H18H15666   6.575   1.266   3.686  1.4022 -0.6680  0.3084
  143OSM      N15667   0.036   5.063   6.121 -0.2445 -0.1302 -0.3060
  143OSM    C1515668  -0.054   4.982   6.206  0.4255  0.1382  0.2145
  143OSM   H15A15669  -0.006   4.962   6.300 -0.1463  0.0509  0.4881
  143OSM   H15B15670  -0.085   4.900   6.144 -1.6613 -0.2986  1.7545
  143OSM   H15C15671  -0.146   5.033   6.231 -0.0419 -0.0952 -0.9521
  143OSM    C1415672   0.073   5.178   6.214 -0.2417 -0.3232  0.0072
  143OSM   H14A15673   0.106   5.261   6.153 -1.4818  0.2613  0.1055
  143OSM   H14B15674   0.149   5.139   6.281 -0.8004 -1.1233  0.1892
  143OSM   H14C15675  -0.012   5.211   6.272 -0.4179  0.3629 -0.6275
  143OSM    C1315676   0.170   5.001   6.095  0.6056  0.4095  0.3141
  143OSM   H13A15677   0.230   5.053   6.022  2.7081  0.5586  2.0740
  143OSM   H13B15678   0.162   4.902   6.053 -2.4493  0.3248  0.8640
  143OSM   H13C15679   0.217   4.981   6.190 -0.4712 -0.4116  0.6969
  143OSM    C1215680  -0.035   5.094   5.996 -0.3697 -1.1804  0.4054
  143OSM   H12A15681  -0.067   4.998   5.958 -0.7878 -1.3709  1.2042
  143OSM   H12B15682   0.038   5.135   5.929 -1.8229  0.8162 -0.0436
  143OSM    C1115683  -0.148   5.195   6.010 -0.4421  0.0865 -0.1773
  143OSM   H11A15684  -0.217   5.154   6.087 -0.7570 -0.7005 -0.8604
  143OSM   H11B15685  -0.193   5.196   5.908  1.7720 -1.3542 -1.2484
  143OSM      P15686  -0.001   5.411   5.952  0.2534 -0.1606  0.2869
  143OSM    O1315687  -0.032   5.557   5.961 -0.3459  0.1934  0.4354
  143OSM    O1415688   0.135   5.375   5.995 -0.5066  0.3371  0.2320
  143OSM    O1115689  -0.017   5.361   5.804  0.2605  0.4867 -0.1745
  143OSM    O1215690  -0.111   5.333   6.033  0.3212 -0.1837  0.0730
  143OSM    C1S15691   0.087   5.389   5.708 -0.1961 -0.2937  0.4257
  143OSM    H1S15692   0.161   5.306   5.711  0.3846  0.1997 -0.0080
  143OSM    H1T15693   0.144   5.479   5.739 -2.2366  1.7325 -1.3410
  143OSM     NF15694   0.153   5.416   5.475 -0.3062 -0.3530 -0.6498
  143OSM    HNF15695   0.177   5.508   5.444  0.5604  0.2936  1.7247
  143OSM    C2S15696   0.035   5.407   5.564 -0.4848  0.4427 -0.7254
  143OSM    H2S15697  -0.015   5.310   5.540  0.1361  0.1462 -0.8248
  143OSM    C3S15698  -0.072   5.524   5.554 -0.1626  0.1416  0.3716
  143OSM    H3S15699  -0.027   5.621   5.584  0.1732  0.6545 -1.6626
  143OSM     O315700  -0.186   5.506   5.633  0.1861  0.0115 -0.3663
  143OSM    HO315701  -0.160   5.435   5.692 -3.3511 -1.3901 -0.2601
  143OSM    C4S15702  -0.107   5.530   5.409  0.5026  0.4192  0.0870
  143OSM    H4S15703  -0.154   5.437   5.374 -4.3945  2.0461  1.4712
  143OSM    C5S15704  -0.086   5.624   5.317  0.3596  0.4912 -0.2799
  143OSM    H5S15705  -0.047   5.724   5.343 -0.3651  0.4434  1.0788
  143OSM    C6S15706  -0.135   5.611   5.173 -0.0258 -0.2117  0.1322
  143OSM    H6S15707  -0.165   5.507   5.149  1.0430 -0.8768  1.5576
  143OSM    H6T15708  -0.045   5.630   5.111  0.0733 -1.3056 -0.0730
  143OSM    C7S15709  -0.254   5.694   5.119  0.4437  0.0880  0.4944
  143OSM    H7S15710  -0.247   5.805   5.114 -4.6473  0.6546  0.0142
  143OSM    H7T15711  -0.338   5.665   5.186  1.7237 -1.9559  1.3209
  143OSM    C8S15712  -0.271   5.655   4.969 -0.2093 -0.5612 -0.0250
  143OSM    H8S15713  -0.340   5.571   4.947 -1.0842 -0.2424  1.3421
  143OSM    H8T15714  -0.174   5.630   4.920 -1.2570 -1.9365 -1.4936
  143OSM    C9S15715  -0.326   5.773   4.875  0.9436 -1.0942  0.7609
  143OSM    H9S15716  -0.266   5.861   4.908  0.7533 -0.6985  0.0602
  143OSM    H9T15717  -0.435   5.786   4.894  1.0950 -0.3907  1.1877
  143OSM   C10S15718  -0.283   5.747   4.731 -0.2312 -0.1194 -0.7691
  143OSM   H10S15719  -0.332   5.655   4.693 -2.7680  0.1990  1.4468
  143OSM   H10T15720  -0.172   5.738   4.729  0.0278  1.8591  0.9678
  143OSM   C11S15721  -0.307   5.854   4.632 -0.2229  0.5717 -0.1382
  143OSM   H11S15722  -0.414   5.860   4.604  0.2870  1.4685 -2.0327
  143OSM   H11T15723  -0.251   5.825   4.541  0.1974  0.0176  0.2861
  143OSM   C12S15724  -0.229   5.983   4.681  0.8021  0.2860  0.2722
  143OSM   H12S15725  -0.124   5.963   4.711 -0.0875 -1.2733  2.6910
  143OSM   H12T15726  -0.276   6.038   4.766  2.5945  1.6974  0.4010
  143OSM   C13S15727  -0.215   6.098   4.571  0.1970 -0.1670 -0.6317
  143OSM   H13S15728  -0.150   6.066   4.487  0.4233 -0.0100 -0.5195
  143OSM   H13T15729  -0.162   6.182   4.621  2.4157 -1.9104  0.1585
  143OSM   C14S15730  -0.359   6.131   4.530  0.9109 -0.0984 -0.9094
  143OSM   H14S15731  -0.424   6.145   4.619  0.3339 -1.9726 -1.0043
  143OSM   H14T15732  -0.394   6.036   4.486  1.6899 -0.7747 -0.0896
  143OSM   C15S15733  -0.367   6.247   4.430  0.4091  0.0914 -0.7371
  143OSM   H15S15734  -0.317   6.337   4.470 -0.7539 -0.5077  2.3180
  143OSM   H15T15735  -0.477   6.262   4.433  0.2352 -1.1645  1.8793
  143OSM   C16S15736  -0.311   6.214   4.294 -0.6387  0.4224 -0.5939
  143OSM   H16S15737  -0.367   6.124   4.259 -0.9394  1.1143 -1.9572
  143OSM   H16T15738  -0.201   6.204   4.300 -0.8406 -1.3908  1.4565
  143OSM   C17S15739  -0.349   6.317   4.187  0.0801 -0.5664  0.6360
  143OSM   H17S15740  -0.300   6.415   4.204 -1.9733  1.6284 -4.2808
  143OSM   H17T15741  -0.457   6.340   4.197  0.0040 -0.6599  0.0602
  143OSM   C18S15742  -0.319   6.277   4.042  0.1724 -0.3613 -0.8153
  143OSM   H18S15743  -0.209   6.278   4.028  0.5874 -3.1680  1.3721
  143OSM   H18T15744  -0.379   6.348   3.980  0.4004  1.0476  0.5266
  143OSM   H18U15745  -0.345   6.169   4.028  1.7168 -0.8845  0.1619
  143OSM    C1F15746   0.245   5.323   5.453  1.1460  0.4430  0.0433
  143OSM     OF15747   0.227   5.208   5.493  0.7451  0.3221 -0.0626
  143OSM    C2F15748   0.364   5.372   5.378  0.8046  0.1158 -0.6033
  143OSM    H2F15749   0.455   5.330   5.424 -0.5136  0.8064  2.9223
  143OSM    H2G15750   0.366   5.483   5.371 -2.5078  0.2606 -1.0965
  143OSM    C3F15751   0.364   5.323   5.232 -0.3356 -0.0930  1.1477
  143OSM    H3F15752   0.350   5.213   5.224  0.2577 -0.0488 -3.5640
  143OSM    H3G15753   0.467   5.344   5.197 -1.0122  0.5795 -0.6106
  143OSM    C4F15754   0.258   5.382   5.134 -0.2612 -0.3503  0.3680
  143OSM    H4F15755   0.240   5.489   5.157  0.2238  0.6340 -3.2169
  143OSM    H4G15756   0.155   5.344   5.150  0.0669 -0.5199  2.3854
  143OSM    C5F15757   0.306   5.385   4.988 -0.0219 -0.1123  0.2608
  143OSM    H5F15758   0.336   5.285   4.951  0.5501  0.6313 -1.3901
  143OSM    H5G15759   0.398   5.447   4.977 -2.2714  3.1985 -1.9579
  143OSM    C6F15760   0.199   5.444   4.897  0.4059  0.0850 -0.3467
  143OSM    H6F15761   0.241   5.453   4.795  0.5788  0.1490 -0.2695
  143OSM    H6G15762   0.169   5.544   4.935  1.6294 -0.0707  1.1380
  143OSM    C7F15763   0.064   5.366   4.875  0.0096  0.7191  0.0325
  143OSM    H7F15764   0.004   5.363   4.968 -0.0425  1.2356  0.0199
  143OSM    H7G15765   0.096   5.261   4.857 -1.0022  0.2721  0.7376
  143OSM    C8F15766  -0.023   5.422   4.765  0.2501 -0.6214 -0.1442
  143OSM    H8F15767   0.023   5.394   4.668 -0.0943 -0.9104 -0.2253
  143OSM    H8G15768  -0.034   5.532   4.780 -1.1183 -0.9969  1.9082
  143OSM    C9F15769  -0.149   5.343   4.776  0.1092  0.7592 -0.2617
  143OSM    H9F15770  -0.221   5.387   4.847 -0.7913  1.2141 -1.4327
  143OSM   C10F15771  -0.178   5.226   4.716 -0.1044 -0.9428 -0.4426
  143OSM   H10F15772  -0.277   5.179   4.727  0.2403 -2.2495 -2.4520
  143OSM   C11F15773  -0.088   5.151   4.629 -0.6848 -0.1451  0.8192
  143OSM   H11F15774  -0.028   5.078   4.687 -1.0242 -0.0048  1.3444
  143OSM   H11G15775  -0.038   5.220   4.557 -0.8702 -1.0236 -0.1862
  143OSM   C12F15776  -0.163   5.057   4.527  0.4768 -0.3747 -0.1652
  143OSM   H12F15777  -0.219   5.116   4.451  1.1776 -1.1115 -1.2806
  143OSM   H12G15778  -0.228   4.991   4.588 -1.8505  2.4186  0.6382
  143OSM   C13F15779  -0.066   4.981   4.437 -0.5795  0.7219 -0.1111
  143OSM   H13F15780  -0.122   4.901   4.383 -1.6810 -0.7230  2.9505
  143OSM   H13G15781   0.009   4.925   4.497  0.3818  1.0250 -0.9928
  143OSM   C14F15782   0.011   5.068   4.342  0.7432  0.0524  0.3645
  143OSM   H14F15783   0.066   5.145   4.401  1.2273 -0.1645  0.2016
  143OSM   H14G15784  -0.056   5.113   4.265 -0.1234 -2.3699 -0.3727
  143OSM   C15F15785   0.121   4.978   4.273  0.3794  0.1031 -0.6598
  143OSM   H15F15786   0.169   4.919   4.354 -1.2245  0.1417  0.3596
  143OSM   H15G15787   0.194   5.045   4.223 -1.1303  1.7503 -0.7566
  143OSM   C16F15788   0.062   4.880   4.165 -0.2539  0.0875 -0.1429
  143OSM   H16F15789  -0.020   4.826   4.218 -0.5098  0.8765  0.2858
  143OSM   H16G15790   0.133   4.796   4.147 -0.9308 -0.7330  0.8526
  143OSM   C17F15791   0.003   4.950   4.040  0.6797  0.0156  0.2195
  143OSM   H17F15792   0.070   5.027   3.995 -0.5664 -0.2082 -2.1207
  143OSM   H17G15793  -0.089   5.006   4.068 -0.4251 -1.6470  0.0341
  143OSM   C18F15794  -0.037   4.837   3.943 -0.9585  0.7276 -0.0393
  143OSM   H18F15795  -0.053   4.872   3.839 -0.9117 -1.8017 -0.9776
  143OSM   H18G15796  -0.132   4.793   3.981  0.9119 -1.1893  2.8473
  143OSM   H18H15797   0.033   4.751   3.938 -3.6261 -1.5699 -0.6468
  144OSM      N15798   0.701   4.447   5.909 -0.0541  0.6085 -0.4028
  144OSM    C1515799   0.816   4.372   5.979  0.7243  0.0518 -0.2476
  144OSM   H15A15800   0.830   4.281   5.922 -2.1183 -0.1143 -0.8182
  144OSM   H15B15801   0.800   4.345   6.082 -1.5332  1.7910 -0.0804
  144OSM   H15C15802   0.903   4.435   5.967 -0.5820  1.8200 -0.7173
  144OSM    C1415803   0.753   4.456   5.772  0.4025  0.2278  0.7078
  144OSM   H14A15804   0.682   4.504   5.706 -0.4816  0.9638  2.1188
  144OSM   H14B15805   0.744   4.359   5.725 -1.5964  1.0817 -0.8568
  144OSM   H14C15806   0.852   4.498   5.777  1.3268 -1.8568  0.7230
  144OSM    C1315807   0.585   4.367   5.928  0.1347 -0.6796 -0.3167
  144OSM   H13A15808   0.503   4.404   5.869 -1.2215 -0.8011  1.4137
  144OSM   H13B15809   0.560   4.363   6.033  2.7948  0.5853  0.4576
  144OSM   H13C15810   0.591   4.261   5.907  1.5553 -1.1043  1.8818
  144OSM    C1215811   0.678   4.584   5.960 -0.0393  0.3390 -0.5983
  144OSM   H12A15812   0.765   4.648   5.955 -0.4159  0.7423 -3.5753
  144OSM   H12B15813   0.661   4.586   6.067  0.4733 -1.8125 -0.4286
  144OSM    C1115814   0.567   4.664   5.879 -0.0042 -0.2526  0.3098
  144OSM   H11A15815   0.582   4.656   5.769  0.2971  2.1734  0.0996
  144OSM   H11B15816   0.586   4.771   5.903 -0.6690  0.1510 -0.8740
  144OSM      P15817   0.305   4.617   5.854  0.2483 -0.4120  0.1144
  144OSM    O1315818   0.322   4.557   5.721 -0.3320 -0.1263  0.3897
  144OSM    O1415819   0.204   4.564   5.937  0.0178 -0.4069 -0.3109
  144OSM    O1115820   0.287   4.776   5.840  0.1093  0.3581  0.4190
  144OSM    O1215821   0.440   4.624   5.934  0.1024 -0.7780 -0.6741
  144OSM    C1S15822   0.341   4.851   5.729 -0.4143  0.0610  0.1797
  144OSM    H1S15823   0.445   4.823   5.699 -0.4912 -0.4286  0.3549
  144OSM    H1T15824   0.348   4.957   5.760 -0.6083  1.0071 -2.7018
  144OSM     NF15825   0.325   4.932   5.490  0.1240  0.2011  0.4763
  144OSM    HNF15826   0.296   5.021   5.457  4.1221  0.3114 -3.6812
  144OSM    C2S15827   0.255   4.858   5.597  0.5850  0.5478  0.0251
  144OSM    H2S15828   0.234   4.753   5.569  1.7022  0.2942  0.0988
  144OSM    C3S15829   0.119   4.919   5.640  0.0740  0.3062  0.3527
  144OSM    H3S15830   0.148   5.023   5.665 -1.8747  0.7096  1.1215
  144OSM     O315831   0.054   4.877   5.763 -0.8811  0.3767  0.2993
  144OSM    HO315832   0.120   4.835   5.818 -0.5120  1.8812  1.0493
  144OSM    C4S15833   0.028   4.913   5.522 -0.7859  0.4957  0.2378
  144OSM    H4S15834   0.023   4.809   5.487  0.7315  0.6008 -0.3449
  144OSM    C5S15835  -0.036   5.015   5.474 -0.3131 -0.6312 -0.0653
  144OSM    H5S15836  -0.017   5.107   5.531  0.2461 -1.3080  0.8671
  144OSM    C6S15837  -0.118   5.009   5.346 -0.5374 -0.2565 -0.8688
  144OSM    H6S15838  -0.226   5.034   5.360 -0.1653  1.2307 -0.5334
  144OSM    H6T15839  -0.118   4.905   5.307  0.4210 -0.5660 -0.0718
  144OSM    C7S15840  -0.071   5.116   5.240 -0.3511  0.1490  0.8574
  144OSM    H7S15841  -0.073   5.215   5.289  2.4346  0.1402  1.1635
  144OSM    H7T15842  -0.140   5.135   5.156  0.9389 -0.5633 -0.4137
  144OSM    C8S15843   0.053   5.079   5.167 -0.5927  0.4926  0.4212
  144OSM    H8S15844   0.127   5.031   5.235 -1.6567 -1.7655  0.0935
  144OSM    H8T15845   0.088   5.174   5.122  0.9425  0.1892  0.9159
  144OSM    C9S15846   0.031   4.974   5.055  0.6289  0.2239 -0.4469
  144OSM    H9S15847  -0.039   5.029   4.989  1.0959  1.0846 -0.2549
  144OSM    H9T15848  -0.002   4.880   5.102 -0.2273 -0.3209 -2.0693
  144OSM   C10S15849   0.159   4.955   4.974  0.2608  0.0361  0.0164
  144OSM   H10S15850   0.238   4.914   5.040  0.2313 -1.7392 -0.9854
  144OSM   H10T15851   0.192   5.060   4.958  0.2707  0.1643  0.8637
  144OSM   C11S15852   0.153   4.871   4.855  0.3653 -0.2642  0.3683
  144OSM   H11S15853   0.057   4.889   4.803 -0.0200  0.8972  1.4289
  144OSM   H11T15854   0.155   4.763   4.880 -1.6567 -0.1888  1.0002
  144OSM   C12S15855   0.270   4.897   4.760 -0.5208  0.1331 -0.2295
  144OSM   H12S15856   0.264   4.822   4.679  1.2448 -0.6684  0.3321
  144OSM   H12T15857   0.365   4.880   4.815  0.4423  0.0654 -1.8641
  144OSM   C13S15858   0.265   5.037   4.690  0.4766  0.2626  0.0816
  144OSM   H13S15859   0.267   5.117   4.767 -0.1988  1.5950 -1.2191
  144OSM   H13T15860   0.169   5.042   4.634  1.3993  0.6205 -1.5447
  144OSM   C14S15861   0.384   5.052   4.585 -0.0769 -0.0988 -0.1694
  144OSM   H14S15862   0.382   4.960   4.523 -1.9331 -0.0589 -0.2206
  144OSM   H14T15863   0.476   5.064   4.647 -0.4032  2.0888 -0.0318
  144OSM   C15S15864   0.373   5.179   4.491 -0.1110 -0.0102 -0.6561
  144OSM   H15S15865   0.289   5.155   4.422 -1.1639  1.9932 -0.1664
  144OSM   H15T15866   0.468   5.184   4.435 -1.5669  0.1295 -3.3065
  144OSM   C16S15867   0.335   5.310   4.561 -0.4408 -0.0492 -0.3910
  144OSM   H16S15868   0.408   5.326   4.644 -1.4242  1.2827  0.2533
  144OSM   H16T15869   0.233   5.309   4.605 -1.3740 -0.5555 -2.4690
  144OSM   C17S15870   0.343   5.426   4.464 -0.4153 -0.3724 -0.1361
  144OSM   H17S15871   0.283   5.405   4.373  2.3519 -0.8553 -1.9782
  144OSM   H17T15872   0.445   5.448   4.426 -0.9005  0.9053 -0.7523
  144OSM   C18S15873   0.295   5.558   4.524  0.2413  0.5136  0.2472
  144OSM   H18S15874   0.191   5.540   4.559  0.1358  0.7108  0.0368
  144OSM   H18T15875   0.297   5.641   4.450 -0.0867 -0.7466 -1.2094
  144OSM   H18U15876   0.351   5.585   4.616 -0.7707  1.9276  0.4820
  144OSM    C1F15877   0.439   4.882   5.438  0.8370  0.7153 -0.1034
  144OSM     OF15878   0.478   4.772   5.459 -0.0827 -0.5340 -0.1385
  144OSM    C2F15879   0.515   4.981   5.353 -0.6925 -0.0860  0.6481
  144OSM    H2F15880   0.619   4.995   5.387  0.2373 -1.7170 -1.3042
  144OSM    H2G15881   0.456   5.075   5.350  0.0440  0.3895  0.9373
  144OSM    C3F15882   0.520   4.934   5.200  0.4487 -0.0232  0.5588
  144OSM    H3F15883   0.554   5.012   5.129 -0.6979 -1.7047 -1.9912
  144OSM    H3G15884   0.417   4.911   5.166  0.2293  1.0354  0.4713
  144OSM    C4F15885   0.609   4.808   5.180  0.1596 -0.0963 -0.4170
  144OSM    H4F15886   0.578   4.725   5.248  0.2510  0.5874  0.4799
  144OSM    H4G15887   0.714   4.840   5.198  0.2501 -0.3416 -0.5055
  144OSM    C5F15888   0.612   4.750   5.029  0.2926 -0.3799 -0.4139
  144OSM    H5F15889   0.514   4.702   5.007  0.2396  0.0676 -1.1696
  144OSM    H5G15890   0.684   4.666   5.020 -1.3167 -1.8621  0.0448
  144OSM    C6F15891   0.647   4.852   4.920  0.6138 -0.0310 -0.0572
  144OSM    H6F15892   0.700   4.940   4.963 -1.7231  1.1321  0.6492
  144OSM    H6G15893   0.557   4.913   4.896 -0.2499 -0.2227  2.3724
  144OSM    C7F15894   0.716   4.804   4.795  0.0394  0.0080  0.0296
  144OSM    H7F15895   0.804   4.743   4.825 -0.7760 -0.8237  0.7943
  144OSM    H7G15896   0.752   4.893   4.740  0.4373  0.6114  1.2191
  144OSM    C8F15897   0.631   4.710   4.704 -0.6229  0.3761  0.3468
  144OSM    H8F15898   0.527   4.747   4.696  0.0236  2.2500 -0.0535
  144OSM    H8G15899   0.617   4.608   4.744 -1.9658 -0.0151 -1.0198
  144OSM    C9F15900   0.692   4.686   4.567 -0.2474  0.4501  0.5654
  144OSM    H9F15901   0.800   4.664   4.563 -0.2257  0.5669 -2.4478
  144OSM   C10F15902   0.630   4.683   4.447  0.2394  0.0505 -0.0722
  144OSM   H10F15903   0.686   4.656   4.356  0.7917  0.8618  0.0192
  144OSM   C11F15904   0.482   4.683   4.428 -0.6795 -0.9217  0.3221
  144OSM   H11F15905   0.451   4.772   4.487  2.0014 -1.6118  3.0154
  144OSM   H11G15906   0.424   4.597   4.468 -0.6817 -1.0313  0.0846
  144OSM   C12F15907   0.432   4.708   4.281  0.8377 -0.6645  0.3403
  144OSM   H12F15908   0.509   4.758   4.218  0.1704  0.0852  0.1133
  144OSM   H12G15909   0.343   4.775   4.284  1.8822  0.7301  1.8685
  144OSM   C13F15910   0.411   4.567   4.215 -0.1015 -0.6033 -0.6360
  144OSM   H13F15911   0.325   4.511   4.258 -0.4234 -0.1089 -0.6201
  144OSM   H13G15912   0.508   4.513   4.221 -0.1450 -0.6019  0.2153
  144OSM   C14F15913   0.355   4.579   4.067 -0.1652 -0.0211 -0.0319
  144OSM   H14F15914   0.266   4.644   4.071  0.6064  1.0237  1.0978
  144OSM   H14G15915   0.323   4.478   4.034 -0.3434 -0.5566  1.6715
  144OSM   C15F15916   0.458   4.640   3.964  0.3055 -0.4745  0.5458
  144OSM   H15F15917   0.499   4.547   3.919 -0.6918 -0.5594 -0.2262
  144OSM   H15G15918   0.543   4.699   4.004  0.9704 -1.4228  0.5771
  144OSM   C16F15919   0.403   4.701   3.834 -0.2651 -0.8239 -0.1900
  144OSM   H16F15920   0.320   4.642   3.790 -0.9987 -0.1276  0.2097
  144OSM   H16G15921   0.493   4.707   3.770  2.8081  2.0641  3.8122
  144OSM   C17F15922   0.357   4.849   3.846 -0.2864  0.9695 -1.0901
  144OSM   H17F15923   0.442   4.911   3.883  0.4382 -1.5552  1.9979
  144OSM   H17G15924   0.277   4.854   3.924 -0.0098 -1.8334 -0.5367
  144OSM   C18F15925   0.294   4.902   3.716  0.1413 -0.4899  0.2593
  144OSM   H18F15926   0.236   4.996   3.730  0.4795 -0.2196 -0.1269
  144OSM   H18G15927   0.233   4.815   3.683 -0.7980  0.5246 -0.7803
  144OSM   H18H15928   0.367   4.909   3.633 -1.4866 -0.4799 -1.2359
  145OSM      N15929   1.189   0.111   6.023 -0.4605  0.1502  0.1968
  145OSM    C1515930   1.327   0.175   6.050  0.7044  0.6059 -0.7815
  145OSM   H15A15931   1.349   0.255   5.981  2.2375 -0.2511 -1.3441
  145OSM   H15B15932   1.410   0.109   6.030  0.2484 -0.7203  1.3816
  145OSM   H15C15933   1.338   0.212   6.151  0.2748 -0.7571 -0.2170
  145OSM    C1415934   1.210   0.035   5.890 -0.4138 -0.4086 -1.2281
  145OSM   H14A15935   1.295  -0.032   5.894 -0.2214 -0.1715 -1.3484
  145OSM   H14B15936   1.221   0.104   5.808 -0.5864  0.1721 -0.7620
  145OSM   H14C15937   1.120  -0.019   5.865  0.2492 -2.4252  0.4544
  145OSM    C1315938   1.156   0.015   6.131 -0.1363 -0.1191 -0.1128
  145OSM   H13A15939   1.084  -0.060   6.100  0.7317 -2.1105  2.3340
  145OSM   H13B15940   1.130   0.068   6.221  2.3454  1.9330 -0.4736
  145OSM   H13C15941   1.240  -0.047   6.158  0.0336 -0.1473 -0.6945
  145OSM    C1215942   1.082   0.211   5.998  0.7636 -0.7569 -0.3963
  145OSM   H12A15943   1.123   0.289   5.936  0.7510  0.2951  0.8836
  145OSM   H12B15944   1.074   0.253   6.097 -0.9503 -0.6746 -0.5456
  145OSM    C1115945   0.946   0.164   5.942  0.7124 -0.6761 -0.2567
  145OSM   H11A15946   0.964   0.136   5.836  0.3902 -2.2649  0.0832
  145OSM   H11B15947   0.883   0.255   5.955 -1.5064 -2.3692  2.2084
  145OSM      P15948   0.823  -0.077   5.967  0.1624  0.1920  0.2380
  145OSM    O1315949   0.885  -0.192   6.033 -0.4718 -0.1123  0.1593
  145OSM    O1415950   0.678  -0.068   5.980 -0.2049 -0.0324  0.1396
  145OSM    O1115951   0.871  -0.079   5.813  0.0425 -1.0236 -0.6552
  145OSM    O1215952   0.879   0.062   6.020 -0.3906  0.1482  0.1327
  145OSM    C1S15953   0.784  -0.056   5.702 -0.4023  0.4818  0.0400
  145OSM    H1S15954   0.761   0.052   5.691 -1.6914  0.3604  1.2195
  145OSM    H1T15955   0.684  -0.102   5.716  0.2319 -1.0553 -0.2929
  145OSM     NF15956   0.772  -0.075   5.461  0.5850 -0.2642  0.0781
  145OSM    HNF15957   0.720  -0.149   5.419  0.6931  1.1121 -2.7183
  145OSM    C2S15958   0.854  -0.105   5.576  0.3166  0.4916  0.6746
  145OSM    H2S15959   0.952  -0.054   5.564 -0.2276  2.1796  2.8100
  145OSM    C3S15960   0.887  -0.264   5.582 -0.3857  0.0416 -0.3076
  145OSM    H3S15961   0.789  -0.314   5.596  0.2215 -0.8305  1.1206
  145OSM     O315962   0.974  -0.289   5.691  0.0778  0.1700  0.9078
  145OSM    HO315963   0.971  -0.210   5.745  1.7598  0.2985  0.8838
  145OSM    C4S15964   0.944  -0.313   5.448  0.2669  1.3150 -0.3806
  145OSM    H4S15965   0.877  -0.378   5.391 -0.3352  2.1437 -0.6277
  145OSM    C5S15966   1.066  -0.266   5.400  0.4416  0.1966  0.0939
  145OSM    H5S15967   1.133  -0.202   5.459 -0.9436 -1.4275  3.7096
  145OSM    C6S15968   1.123  -0.306   5.267 -0.6586  0.0102  0.5599
  145OSM    H6S15969   1.146  -0.415   5.265 -1.7955 -0.2383 -0.1234
  145OSM    H6T15970   1.222  -0.257   5.259  1.5547 -3.8012  2.0077
  145OSM    C7S15971   1.038  -0.258   5.148 -0.0038  0.8381  0.3057
  145OSM    H7S15972   1.002  -0.154   5.164 -1.0724  0.8535 -1.8158
  145OSM    H7T15973   0.951  -0.326   5.136  1.1776 -0.7731  0.6673
  145OSM    C8S15974   1.137  -0.281   5.029 -0.4591 -0.5352  1.0023
  145OSM    H8S15975   1.158  -0.390   5.032  0.4117 -0.3486  2.8599
  145OSM    H8T15976   1.233  -0.227   5.038 -0.8802  0.1962  1.1787
  145OSM    C9S15977   1.073  -0.233   4.903 -0.2352  0.3182 -0.4278
  145OSM    H9S15978   1.028  -0.132   4.919  0.7900  0.5345  1.2709
  145OSM    H9T15979   0.987  -0.298   4.874 -0.0359  0.7625 -2.0917
  145OSM   C10S15980   1.167  -0.233   4.784  0.0642  0.3942  0.1203
  145OSM   H10S15981   1.203  -0.335   4.756  0.3392  0.8609 -1.2884
  145OSM   H10T15982   1.256  -0.171   4.805 -0.2296  2.3281 -3.6134
  145OSM   C11S15983   1.092  -0.173   4.671 -0.0455 -0.7578  1.0587
  145OSM   H11S15984   1.056  -0.073   4.702 -0.4698 -0.7037  0.4121
  145OSM   H11T15985   1.000  -0.227   4.639 -0.2951  0.2539  0.0437
  145OSM   C12S15986   1.181  -0.167   4.538  0.3773 -0.2598 -0.5502
  145OSM   H12S15987   1.222  -0.266   4.509  0.3270 -0.9800  1.6420
  145OSM   H12T15988   1.273  -0.106   4.552 -0.6458  1.2644 -0.2298
  145OSM   C13S15989   1.103  -0.085   4.428 -0.3938 -0.0683 -1.0193
  145OSM   H13S15990   1.085   0.019   4.464 -0.9565 -0.9906  1.6519
  145OSM   H13T15991   1.007  -0.138   4.410 -0.3204 -1.3045  1.6167
  145OSM   C14S15992   1.172  -0.086   4.291 -0.3519  0.7650 -0.3192
  145OSM   H14S15993   1.173  -0.190   4.251 -0.1209  0.7091 -0.1715
  145OSM   H14T15994   1.275  -0.047   4.302 -0.8796  2.8606 -2.1587
  145OSM   C15S15995   1.097   0.008   4.189  0.0627 -0.0134  1.1209
  145OSM   H15S15996   1.129   0.113   4.205  3.9887 -0.8480 -0.1129
  145OSM   H15T15997   0.989  -0.014   4.193 -0.1800  0.8891  0.0125
  145OSM   C16S15998   1.134  -0.037   4.046  0.0752  0.8778 -0.0603
  145OSM   H16S15999   1.082   0.033   3.977  0.4651  1.4981  0.2598
  145OSM   H16T16000   1.099  -0.141   4.031 -0.3248  1.2268 -1.7136
  145OSM   C17S16001   1.291  -0.034   4.012  0.2175 -0.6815  0.2806
  145OSM   H17S16002   1.342  -0.098   4.087  0.7819 -1.0495 -0.4048
  145OSM   H17T16003   1.328   0.071   4.018  0.5425 -0.8402  1.1139
  145OSM   C18S16004   1.324  -0.084   3.873  0.4307  0.5234 -0.0422
  145OSM   H18S16005   1.261  -0.031   3.799 -0.3256 -0.5938 -0.2187
  145OSM   H18T16006   1.300  -0.192   3.865  2.9229 -0.0255 -1.1493
  145OSM   H18U16007   1.425  -0.080   3.826 -0.5628 -0.1985 -2.3408
  145OSM    C1F16008   0.738   0.051   5.422 -0.0353  0.2372 -0.2995
  145OSM     OF16009   0.811   0.141   5.453 -0.6324  0.3700 -0.6059
  145OSM    C2F16010   0.623   0.078   5.325 -0.6053 -0.2267 -0.3844
  145OSM    H2F16011   0.524   0.085   5.374 -0.9964  0.0803 -1.1881
  145OSM    H2G16012   0.621   0.001   5.245 -1.3211 -2.2216  1.4981
  145OSM    C3F16013   0.644   0.208   5.245  0.1143 -0.1839  0.1013
  145OSM    H3F16014   0.654   0.293   5.316  1.4456 -0.4587  0.2709
  145OSM    H3G16015   0.559   0.226   5.176  0.1603  0.3061  0.1728
  145OSM    C4F16016   0.772   0.201   5.168  0.4945  0.7007 -0.7440
  145OSM    H4F16017   0.785   0.102   5.118 -2.4066  0.3749 -1.0041
  145OSM    H4G16018   0.857   0.220   5.237 -0.3195  3.2670 -0.3456
  145OSM    C5F16019   0.791   0.318   5.070  0.2122 -0.9969 -0.2683
  145OSM    H5F16020   0.801   0.410   5.132  1.0048 -1.8214  0.8791
  145OSM    H5G16021   0.696   0.330   5.013 -0.1221 -1.3852  0.1935
  145OSM    C6F16022   0.905   0.296   4.976 -0.5848  0.0978 -0.4266
  145OSM    H6F16023   0.897   0.186   4.958  0.6219 -0.0092 -0.3686
  145OSM    H6G16024   0.999   0.300   5.035 -2.4083 -1.8003  2.9923
  145OSM    C7F16025   0.892   0.365   4.846 -0.6333 -0.6666  0.3064
  145OSM    H7F16026   0.910   0.473   4.869  1.0316 -0.5984 -1.0987
  145OSM    H7G16027   0.789   0.362   4.805 -0.1395 -0.3438 -1.0162
  145OSM    C8F16028   1.009   0.328   4.756 -0.0301  0.1818 -0.2614
  145OSM    H8F16029   0.980   0.224   4.730 -1.8195  0.8424 -1.0919
  145OSM    H8G16030   1.109   0.335   4.803 -0.7866  2.4966  1.1665
  145OSM    C9F16031   1.011   0.427   4.638 -0.6114  0.4265 -0.4436
  145OSM    H9F16032   1.052   0.528   4.657  0.3953 -0.2048  0.8826
  145OSM   C10F16033   0.963   0.393   4.513 -0.3900  0.3067  0.4576
  145OSM   H10F16034   0.961   0.474   4.439  0.1871 -0.9118 -0.9520
  145OSM   C11F16035   0.896   0.258   4.460 -0.7950  0.0923  0.6196
  145OSM   H11F16036   0.906   0.173   4.532  1.4282  0.2635  0.6014
  145OSM   H11G16037   0.956   0.224   4.373  3.2059 -0.3823  3.2711
  145OSM   C12F16038   0.755   0.271   4.419  0.6067 -0.1032 -0.2867
  145OSM   H12F16039   0.730   0.168   4.387  0.8575 -0.1895 -0.2053
  145OSM   H12G16040   0.747   0.338   4.331 -1.3264  0.4707  0.2665
  145OSM   C13F16041   0.653   0.318   4.525 -0.2399  0.0523 -0.4485
  145OSM   H13F16042   0.647   0.428   4.538 -0.1204  0.0234 -0.1438
  145OSM   H13G16043   0.677   0.279   4.627  0.9130 -0.8293 -1.0264
  145OSM   C14F16044   0.504   0.266   4.510  0.3437  0.5421 -0.1856
  145OSM   H14F16045   0.444   0.301   4.596  2.0535  0.4619  1.1056
  145OSM   H14G16046   0.498   0.155   4.499 -1.6768  0.0773  3.7327
  145OSM   C15F16047   0.435   0.336   4.391 -0.3923  0.5962  0.3528
  145OSM   H15F16048   0.327   0.308   4.390 -0.3172 -0.1189  3.1183
  145OSM   H15G16049   0.480   0.291   4.301  1.2235 -0.0385  1.4447
  145OSM   C16F16050   0.450   0.484   4.375 -0.2640  0.2136  0.7147
  145OSM   H16F16051   0.555   0.496   4.340 -0.6792  1.7148 -0.1254
  145OSM   H16G16052   0.434   0.544   4.467  0.1003 -0.6072  1.3187
  145OSM   C17F16053   0.362   0.542   4.260 -0.0144  0.3735 -0.5051
  145OSM   H17F16054   0.328   0.644   4.289 -1.2691  0.0872 -0.8957
  145OSM   H17G16055   0.265   0.488   4.266 -0.4024  0.8938 -1.8455
  145OSM   C18F16056   0.418   0.535   4.117  0.1034  0.3615 -0.0017
  145OSM   H18F16057   0.511   0.593   4.096  0.8893 -0.7997  0.1950
  145OSM   H18G16058   0.333   0.563   4.051  0.0241 -0.6582 -0.3420
  145OSM   H18H16059   0.447   0.431   4.093  1.9216  0.1138  2.8472
  146OSM      N16060   6.890   0.099   6.317  0.6048 -0.1283  0.2781
  146OSM    C1516061   6.855   0.225   6.246 -0.8593  0.3782 -0.1317
  146OSM   H15A16062   6.749   0.247   6.249 -1.0473 -0.2779  4.3343
  146OSM   H15B16063   6.889   0.224   6.143  0.3051  0.7787  0.2297
  146OSM   H15C16064   6.899   0.310   6.297  1.8065 -1.0562  0.1217
  146OSM    C1416065   6.808   0.096   6.446 -0.5697 -0.0221  0.1766
  146OSM   H14A16066   6.819   0.185   6.507 -0.0644  0.5393 -0.7068
  146OSM   H14B16067   6.849   0.009   6.495 -0.0789 -0.5352 -1.1186
  146OSM   H14C16068   6.704   0.083   6.423 -0.8513 -2.8154  2.4464
  146OSM    C1316069   6.847  -0.017   6.225  0.0427 -0.6941 -0.0460
  146OSM   H13A16070   6.862  -0.115   6.268 -0.8053 -1.1023 -0.6407
  146OSM   H13B16071   6.897  -0.011   6.129 -1.2415 -0.1281 -0.7022
  146OSM   H13C16072   6.741  -0.017   6.206  0.3026 -0.4111 -1.7286
  146OSM    C1216073   7.031   0.094   6.356 -0.1820  0.2068  0.2793
  146OSM   H12A16074   7.046   0.004   6.414  2.0964 -0.7114 -1.5804
  146OSM   H12B16075   7.061   0.177   6.417  1.3353  0.3522 -0.6013
  146OSM    C1116076   7.141   0.076   6.243 -0.4757  0.2823  0.2419
  146OSM   H11A16077   7.115  -0.025   6.205 -0.2092 -0.4650  1.9501
  146OSM   H11B16078   7.242   0.059   6.287 -0.5185 -0.4526  0.0749
  146OSM      P16079   7.111   0.125   5.983 -0.2765 -0.1678 -0.1351
  146OSM    O1316080   6.988   0.045   5.957 -0.3695  0.7243 -0.0822
  146OSM    O1416081   7.135   0.243   5.899  0.0804  0.1630  0.5550
  146OSM    O1116082   7.236   0.025   5.976  0.5916  0.9623 -0.0328
  146OSM    O1216083   7.128   0.168   6.135 -0.0541 -0.0422 -0.0420
  146OSM    C1S16084   7.279  -0.047   5.860 -0.6679  0.1891  0.6038
  146OSM    H1S16085   7.191  -0.059   5.793 -0.9064 -0.2594  0.9999
  146OSM    H1T16086   7.309  -0.148   5.893 -0.5050  0.1049  0.2036
  146OSM     NF16087   7.440  -0.004   5.667  0.0162 -0.1905  0.0142
  146OSM    HNF16088   7.526  -0.051   5.649  0.0464 -0.6570  1.3067
  146OSM    C2S16089   7.409   0.033   5.802 -0.0450 -0.0034 -0.2149
  146OSM    H2S16090   7.382   0.141   5.809  1.8977  0.4383  1.3768
  146OSM    C3S16091   7.525   0.002   5.903  0.5068 -0.3356  0.3979
  146OSM    H3S16092   7.538  -0.108   5.894  2.5519 -0.0970 -0.2055
  146OSM     O316093   7.485   0.026   6.032 -0.0327  0.0112 -0.4929
  146OSM    HO316094   7.390   0.034   6.024 -0.2378 -1.6104  0.0305
  146OSM    C4S16095   7.643   0.074   5.868 -1.4609 -0.4930 -0.0613
  146OSM    H4S16096   7.716   0.017   5.809  0.9368  1.4285  0.8388
  146OSM    C5S16097   7.691   0.198   5.905 -0.0365 -0.0859  0.1053
  146OSM    H5S16098   7.625   0.265   5.961  0.0927 -0.5536  0.8345
  146OSM    C6S16099   7.822   0.259   5.875 -0.4908 -0.5623  0.2467
  146OSM    H6S16100   7.880   0.181   5.821  0.0261 -0.6650  0.9347
  146OSM    H6T16101   7.869   0.305   5.965 -2.8444  1.4208  0.5745
  146OSM    C7S16102   7.798   0.375   5.773  0.3089 -0.6433 -0.2996
  146OSM    H7S16103   7.898   0.410   5.739  1.1417 -1.7674  0.8866
  146OSM    H7T16104   7.757   0.468   5.817 -1.2114  0.2742 -3.3837
  146OSM    C8S16105   7.710   0.347   5.647  0.1485  0.0470 -0.2481
  146OSM    H8S16106   7.606   0.320   5.675  0.6501 -2.6247 -0.6818
  146OSM    H8T16107   7.751   0.267   5.582 -0.6385 -0.1365 -0.5321
  146OSM    C9S16108   7.695   0.475   5.557  0.3990 -0.3280  0.6029
  146OSM    H9S16109   7.788   0.476   5.497 -0.5135  0.0415 -0.8504
  146OSM    H9T16110   7.696   0.566   5.621 -0.9829 -1.7944  2.8733
  146OSM   C10S16111   7.579   0.467   5.453 -0.5870  0.3655 -0.4387
  146OSM   H10S16112   7.482   0.464   5.507 -1.0854 -2.2614 -1.3026
  146OSM   H10T16113   7.591   0.369   5.402  2.4713  0.2947  0.2129
  146OSM   C11S16114   7.589   0.580   5.346  0.6299  0.3521 -0.0062
  146OSM   H11S16115   7.688   0.566   5.297 -0.8364  1.0315 -3.3582
  146OSM   H11T16116   7.588   0.688   5.373 -4.0963  1.1755 -2.5165
  146OSM   C12S16117   7.478   0.565   5.251  0.3686  0.2388 -0.1300
  146OSM   H12S16118   7.393   0.610   5.307  1.7051  0.5594  1.7410
  146OSM   H12T16119   7.443   0.464   5.219 -1.6465  0.0045  2.3969
  146OSM   C13S16120   7.498   0.658   5.129  0.0618  0.6802  0.6977
  146OSM   H13S16121   7.512   0.766   5.154 -0.0810  1.0574 -0.7912
  146OSM   H13T16122   7.409   0.658   5.062 -0.2146 -0.0574  1.0522
  146OSM   C14S16123   7.610   0.614   5.038 -0.1037  0.1889 -0.5972
  146OSM   H14S16124   7.596   0.504   5.028 -0.9898  0.4257 -2.4984
  146OSM   H14T16125   7.705   0.633   5.093 -0.8913  1.1129  0.4643
  146OSM   C15S16126   7.616   0.694   4.907 -0.4842  0.2550 -0.0292
  146OSM   H15S16127   7.632   0.802   4.927 -0.3805 -0.1058  2.0257
  146OSM   H15T16128   7.519   0.694   4.852 -0.7523 -1.2548  0.4002
  146OSM   C16S16129   7.721   0.629   4.807  0.4072  0.4997 -0.2276
  146OSM   H16S16130   7.685   0.536   4.759  0.7354  1.3089 -2.1214
  146OSM   H16T16131   7.818   0.602   4.854  0.7324  0.5472 -0.8652
  146OSM   C17S16132   7.762   0.725   4.694 -0.2425 -0.6247  0.3545
  146OSM   H17S16133   7.835   0.661   4.640  0.3732 -0.2398  0.7273
  146OSM   H17T16134   7.819   0.807   4.741 -0.9904  0.1672 -0.0990
  146OSM   C18S16135   7.656   0.783   4.605 -0.0970  0.4410 -0.3204
  146OSM   H18S16136   7.696   0.832   4.514  3.4225 -0.7512  0.4332
  146OSM   H18T16137   7.614   0.863   4.671  0.7213 -0.0445  0.8289
  146OSM   H18U16138   7.577   0.711   4.577 -2.0402  2.7071 -1.0520
  146OSM    C1F16139   7.349   0.021   5.574 -0.6479  0.3878 -0.2315
  146OSM     OF16140   7.241   0.062   5.596  0.4672  0.0646 -0.1138
  146OSM    C2F16141   7.381  -0.033   5.438  0.3220 -0.3455 -0.0752
  146OSM    H2F16142   7.350  -0.140   5.436  0.6781 -0.4378 -0.5057
  146OSM    H2G16143   7.489  -0.022   5.416  0.4531 -3.6638 -1.5593
  146OSM    C3F16144   7.308   0.033   5.319  0.2217  0.0475  0.0372
  146OSM    H3F16145   7.357   0.129   5.292  0.3694 -0.1135 -0.2679
  146OSM    H3G16146   7.203   0.049   5.350  0.1547 -1.3974  0.6532
  146OSM    C4F16147   7.322  -0.053   5.189 -0.4277 -0.3550 -0.2780
  146OSM    H4F16148   7.299   0.004   5.096  1.5412  0.7243 -0.1465
  146OSM    H4G16149   7.264  -0.147   5.205 -0.0517 -0.6040 -0.3642
  146OSM    C5F16150   7.460  -0.119   5.155 -0.2473  0.1621 -0.0140
  146OSM    H5F16151   7.492  -0.199   5.225  1.9128  0.2755 -0.7937
  146OSM    H5G16152   7.530  -0.041   5.192 -0.6788  0.7536 -0.4263
  146OSM    C6F16153   7.481  -0.161   5.012 -0.2753 -0.3352  0.0994
  146OSM    H6F16154   7.464  -0.066   4.956  1.0636  0.7326  1.4360
  146OSM    H6G16155   7.415  -0.246   4.983 -0.5930 -0.4209  1.0378
  146OSM    C7F16156   7.623  -0.211   4.975  0.3553  0.4693 -0.8570
  146OSM    H7F16157   7.615  -0.263   4.877 -3.0959 -0.8813  0.0277
  146OSM    H7G16158   7.656  -0.278   5.057  0.3188  1.1997 -0.2395
  146OSM    C8F16159   7.723  -0.088   4.963 -0.0213 -0.2207  0.0731
  146OSM    H8F16160   7.718  -0.046   5.066 -1.0752  0.5290 -0.2689
  146OSM    H8G16161   7.671  -0.016   4.896 -0.1513  0.7050  1.1437
  146OSM    C9F16162   7.868  -0.107   4.942  0.7058 -0.3679 -0.1758
  146OSM    H9F16163   7.917  -0.154   5.028 -0.1020 -1.5150 -0.3154
  146OSM   C10F16164   7.942  -0.068   4.840  0.4521  0.0750 -0.0694
  146OSM   H10F16165   8.049  -0.089   4.825  0.4151  0.2482 -0.5993
  146OSM   C11F16166   7.886   0.006   4.727 -0.2690 -0.0485 -0.4450
  146OSM   H11F16167   7.937   0.104   4.731 -0.0986 -0.1746  0.6862
  146OSM   H11G16168   7.775   0.014   4.724 -0.2618  0.4247  0.3451
  146OSM   C12F16169   7.919  -0.077   4.602 -0.0335  0.7069  0.1508
  146OSM   H12F16170   8.027  -0.101   4.598 -0.0511  0.5343  0.6014
  146OSM   H12G16171   7.881  -0.032   4.508 -3.7370 -1.9456  0.1522
  146OSM   C13F16172   7.851  -0.220   4.607 -0.8065  0.2697 -0.2959
  146OSM   H13F16173   7.743  -0.211   4.634 -0.3025  1.6915  1.3600
  146OSM   H13G16174   7.899  -0.279   4.687  0.0251  0.0222 -0.9628
  146OSM   C14F16175   7.863  -0.292   4.471 -0.3316 -0.9725  0.0076
  146OSM   H14F16176   7.817  -0.234   4.387 -0.3369 -1.0342 -0.0323
  146OSM   H14G16177   7.972  -0.301   4.449 -0.1263 -0.5954  0.8351
  146OSM   C15F16178   7.784  -0.431   4.471  0.5942  0.1727  0.0783
  146OSM   H15F16179   7.685  -0.397   4.508  0.9596  1.5934 -0.1975
  146OSM   H15G16180   7.826  -0.509   4.539 -0.9462 -2.1769 -1.5204
  146OSM   C16F16181   7.764  -0.490   4.333  0.4093  0.2028  0.2669
  146OSM   H16F16182   7.784  -0.408   4.261  2.5673 -0.4003  0.0970
  146OSM   H16G16183   7.662  -0.529   4.317  0.8031 -1.4912  1.5667
  146OSM   C17F16184   7.855  -0.608   4.307 -0.5824 -0.0634 -0.0594
  146OSM   H17F16185   7.844  -0.684   4.387 -2.1676 -0.1393 -0.3138
  146OSM   H17G16186   7.963  -0.584   4.296 -0.6652  0.7514  0.7513
  146OSM   C18F16187   7.811  -0.689   4.179  0.3480 -0.6942 -0.4344
  146OSM   H18F16188   7.701  -0.704   4.185  0.0049  1.8476  3.2812
  146OSM   H18G16189   7.869  -0.782   4.162 -0.9040 -1.2301 -2.0123
  146OSM   H18H16190   7.826  -0.631   4.086  0.7393 -0.0675  0.0153
  147OSM      N16191   3.827   3.793   1.575  0.0031 -0.0672 -0.6430
  147OSM    C1516192   3.821   3.839   1.436 -0.0384 -0.1061 -0.5403
  147OSM   H15A16193   3.863   3.937   1.421 -0.1700 -0.2074 -1.7481
  147OSM   H15B16194   3.719   3.837   1.399 -0.1138  3.4347 -0.8843
  147OSM   H15C16195   3.880   3.776   1.371 -3.3649 -2.6521 -1.3825
  147OSM    C1416196   3.810   3.638   1.576 -0.5841 -0.6435 -0.5099
  147OSM   H14A16197   3.886   3.591   1.515 -0.4656  0.0805 -0.9322
  147OSM   H14B16198   3.712   3.614   1.539 -1.9494  0.2822  2.2867
  147OSM   H14C16199   3.819   3.605   1.678 -0.0834 -0.3642 -0.4595
  147OSM    C1316200   3.964   3.836   1.635 -0.2967 -0.7386  0.2443
  147OSM   H13A16201   4.039   3.780   1.580 -1.0357 -1.9933  0.4861
  147OSM   H13B16202   3.988   3.807   1.736 -0.6316  2.5541  1.4039
  147OSM   H13C16203   3.973   3.944   1.629 -0.1726 -0.7009  1.0447
  147OSM    C1216204   3.721   3.857   1.661  0.0801  0.3423 -0.2481
  147OSM   H12A16205   3.748   3.960   1.673 -0.7341  0.6236 -0.7439
  147OSM   H12B16206   3.730   3.819   1.762  0.6357  0.7121 -0.1578
  147OSM    C1116207   3.569   3.856   1.615 -0.7503  0.7606 -0.0180
  147OSM   H11A16208   3.573   3.886   1.508  1.9486 -1.4010 -0.6233
  147OSM   H11B16209   3.511   3.928   1.676  0.3388 -0.9850  3.3026
  147OSM      P16210   3.446   3.670   1.747 -0.2407 -0.1853  0.4780
  147OSM    O1316211   3.322   3.747   1.771 -0.1714 -0.3448 -0.0842
  147OSM    O1416212   3.432   3.523   1.730 -0.7553  0.6531 -0.4173
  147OSM    O1116213   3.552   3.697   1.860 -0.1643 -0.1012  0.4730
  147OSM    O1216214   3.515   3.726   1.614 -0.6092 -0.4142  0.1085
  147OSM    C1S16215   3.518   3.652   1.994  0.0875 -0.6298  0.7137
  147OSM    H1S16216   3.592   3.580   2.035 -0.7521 -2.5654 -1.0067
  147OSM    H1T16217   3.413   3.616   2.007  0.6314 -2.3137  0.7199
  147OSM     NF16218   3.464   3.741   2.229 -0.2321 -0.2181 -0.0143
  147OSM    HNF16219   3.384   3.792   2.260  0.9921  1.4749  0.5163
  147OSM    C2S16220   3.530   3.773   2.102 -0.4762 -0.1601 -0.4363
  147OSM    H2S16221   3.639   3.778   2.123 -0.4311 -0.6252 -0.5390
  147OSM    C3S16222   3.484   3.908   2.052 -0.2988  0.3787  0.6256
  147OSM    H3S16223   3.391   3.903   1.992  0.3131  0.3470 -0.3291
  147OSM     O316224   3.575   3.963   1.964 -0.6008  0.5645  0.2668
  147OSM    HO316225   3.631   3.889   1.939 -1.7654 -0.4944  0.6893
  147OSM    C4S16226   3.475   4.012   2.155 -0.6772  0.0859 -0.4197
  147OSM    H4S16227   3.568   4.023   2.213 -0.7273  3.5855 -0.7532
  147OSM    C5S16228   3.367   4.079   2.200 -0.3127 -0.7414  0.0998
  147OSM    H5S16229   3.273   4.064   2.146 -0.5747 -0.6217  0.5258
  147OSM    C6S16230   3.370   4.180   2.312  0.5352  0.2212  0.0218
  147OSM    H6S16231   3.269   4.199   2.354  1.3856  0.4486  2.0792
  147OSM    H6T16232   3.401   4.276   2.266  0.2230 -1.0074 -3.0187
  147OSM    C7S16233   3.455   4.125   2.432 -0.0294 -0.5348 -0.4747
  147OSM    H7S16234   3.471   4.210   2.502 -1.9133 -0.3541 -0.2074
  147OSM    H7T16235   3.553   4.088   2.396  0.1175  0.3287 -0.9850
  147OSM    C8S16236   3.383   4.008   2.510  0.0657  0.0385 -0.4792
  147OSM    H8S16237   3.358   3.924   2.442 -1.7140 -1.2751  1.6765
  147OSM    H8T16238   3.298   4.056   2.564  0.9059  0.2230  0.6999
  147OSM    C9S16239   3.464   3.940   2.620  0.0315 -0.1631  0.4971
  147OSM    H9S16240   3.550   3.898   2.565 -0.5384 -0.4340 -0.2135
  147OSM    H9T16241   3.413   3.846   2.651  0.1191 -0.0272  1.0693
  147OSM   C10S16242   3.505   4.018   2.746 -0.0895  0.2500 -0.1481
  147OSM   H10S16243   3.563   4.108   2.716 -0.5010  0.3116 -0.7615
  147OSM   H10T16244   3.571   3.948   2.802 -0.6448 -2.7193 -2.9208
  147OSM   C11S16245   3.390   4.057   2.843 -0.4872 -0.2941  0.9395
  147OSM   H11S16246   3.327   3.969   2.871 -0.1708 -1.7610 -2.5119
  147OSM   H11T16247   3.328   4.139   2.800  0.2682 -0.1353  0.1466
  147OSM   C12S16248   3.455   4.117   2.969 -0.2948 -0.4277 -0.7240
  147OSM   H12S16249   3.375   4.164   3.031  1.0766 -0.7127  1.3801
  147OSM   H12T16250   3.526   4.196   2.934 -1.0736 -0.7127 -3.1132
  147OSM   C13S16251   3.512   4.013   3.063  0.1319  0.4079  0.0977
  147OSM   H13S16252   3.606   3.976   3.015  0.9675  1.7193  0.6721
  147OSM   H13T16253   3.444   3.926   3.076  0.8423 -0.2047 -0.2128
  147OSM   C14S16254   3.534   4.077   3.204 -0.1992 -0.5606  0.2902
  147OSM   H14S16255   3.434   4.116   3.234  0.3602  0.0696  1.3899
  147OSM   H14T16256   3.594   4.168   3.182 -1.0031 -0.3006 -0.9265
  147OSM   C15S16257   3.595   3.992   3.309 -0.1032  0.0369 -0.3806
  147OSM   H15S16258   3.703   3.987   3.288  0.0076  1.7114 -0.3584
  147OSM   H15T16259   3.561   3.887   3.296  0.4783 -0.0115 -1.5615
  147OSM   C16S16260   3.567   4.047   3.447 -0.4469  0.0814  0.8066
  147OSM   H16S16261   3.466   4.015   3.479 -0.3516  1.1119  2.2532
  147OSM   H16T16262   3.575   4.158   3.446 -1.6340  0.2379  3.0002
  147OSM   C17S16263   3.644   3.998   3.575 -0.0909  0.0894 -0.1638
  147OSM   H17S16264   3.754   4.016   3.573 -0.1914  0.7358 -2.0902
  147OSM   H17T16265   3.633   3.888   3.582 -1.4365  0.2809  1.3338
  147OSM   C18S16266   3.591   4.068   3.699 -0.1708  0.2069  0.6413
  147OSM   H18S16267   3.570   4.177   3.689 -0.3025  0.1748  0.5592
  147OSM   H18T16268   3.663   4.050   3.781 -0.5405  0.3967  1.0119
  147OSM   H18U16269   3.488   4.028   3.706 -0.2352 -0.5848 -2.8733
  147OSM    C1F16270   3.504   3.643   2.317  0.2724  1.0327  0.1701
  147OSM     OF16271   3.613   3.592   2.303 -0.5210  0.3464  0.1115
  147OSM    C2F16272   3.414   3.606   2.428  0.3004  0.3122  0.0201
  147OSM    H2F16273   3.327   3.544   2.399 -3.0183  2.3103  4.4462
  147OSM    H2G16274   3.368   3.705   2.450  1.0562  0.1712  2.6063
  147OSM    C3F16275   3.501   3.547   2.547 -0.6399  0.0482  0.6992
  147OSM    H3F16276   3.576   3.626   2.570  1.1016 -1.2569 -0.2600
  147OSM    H3G16277   3.552   3.449   2.535  0.6033  1.0139 -4.2798
  147OSM    C4F16278   3.406   3.529   2.664  0.6419  0.5246  0.2789
  147OSM    H4F16279   3.321   3.457   2.657  0.4423  0.6299  1.3342
  147OSM    H4G16280   3.349   3.620   2.692 -2.1608 -1.0082  0.0372
  147OSM    C5F16281   3.477   3.496   2.794 -0.1277 -0.8023 -0.0826
  147OSM    H5F16282   3.544   3.578   2.828  0.5620 -0.8952 -1.1775
  147OSM    H5G16283   3.531   3.401   2.776 -3.6606 -3.0417  0.3602
  147OSM    C6F16284   3.382   3.448   2.898 -0.1289  0.1089 -0.0574
  147OSM    H6F16285   3.434   3.384   2.972  1.7396  0.9560 -0.5644
  147OSM    H6G16286   3.296   3.392   2.857  0.5026  0.7598 -2.4244
  147OSM    C7F16287   3.336   3.569   2.973  0.1360 -0.8278 -0.0191
  147OSM    H7F16288   3.259   3.626   2.918  0.2030 -1.8457 -1.2345
  147OSM    H7G16289   3.430   3.626   2.991 -0.4686 -0.2923  1.5310
  147OSM    C8F16290   3.286   3.530   3.119  0.6343  0.2622 -0.2539
  147OSM    H8F16291   3.371   3.474   3.164  0.7918  0.8700  0.2122
  147OSM    H8G16292   3.191   3.472   3.118  1.7761 -1.7188 -0.8677
  147OSM    C9F16293   3.258   3.657   3.193 -0.2322 -0.2468 -0.5006
  147OSM    H9F16294   3.211   3.747   3.150 -0.4198 -0.4483 -0.7227
  147OSM   C10F16295   3.288   3.670   3.324  0.2021  0.0352  0.0778
  147OSM   H10F16296   3.280   3.771   3.366 -1.2611 -0.0284 -0.0042
  147OSM   C11F16297   3.346   3.568   3.424  0.1296  0.4165  0.0500
  147OSM   H11F16298   3.456   3.572   3.438 -0.0970  1.6178  1.7313
  147OSM   H11G16299   3.327   3.465   3.386  2.8655 -0.1315 -0.0827
  147OSM   C12F16300   3.290   3.602   3.564 -0.3297  0.4669 -0.2675
  147OSM   H12F16301   3.294   3.518   3.635 -0.6188  0.8267  0.1784
  147OSM   H12G16302   3.180   3.613   3.560 -0.5225  0.8355  3.2840
  147OSM   C13F16303   3.341   3.727   3.618 -0.1566 -0.0041 -0.6574
  147OSM   H13F16304   3.336   3.801   3.535  1.5895 -0.0297 -0.8252
  147OSM   H13G16305   3.451   3.731   3.634 -0.2038  1.8697 -0.5638
  147OSM   C14F16306   3.275   3.775   3.747  0.1902 -0.0443 -0.1716
  147OSM   H14F16307   3.329   3.866   3.784 -0.7531  1.0303 -1.3547
  147OSM   H14G16308   3.283   3.700   3.829 -1.1226 -0.4086 -0.3664
  147OSM   C15F16309   3.124   3.803   3.732  0.1207 -0.2060  0.2748
  147OSM   H15F16310   3.074   3.707   3.711  0.7002 -0.5496  0.4541
  147OSM   H15G16311   3.101   3.870   3.647  0.0469  0.5411  0.8676
  147OSM   C16F16312   3.045   3.862   3.851 -0.2183 -0.2261 -0.4602
  147OSM   H16F16313   3.028   3.970   3.836 -3.3771 -0.4382  0.7308
  147OSM   H16G16314   3.108   3.847   3.941 -2.8119 -1.7374  1.2460
  147OSM   C17F16315   2.906   3.803   3.883 -0.0830  0.0827 -0.1574
  147OSM   H17F16316   2.873   3.851   3.978 -0.0039 -1.1974  0.5362
  147OSM   H17G16317   2.922   3.695   3.903  2.9198  0.8262  2.1873
  147OSM   C18F16318   2.803   3.803   3.772 -0.1902  0.3368  0.2588
  147OSM   H18F16319   2.827   3.877   3.692  0.0674  0.1874  0.1971
  147OSM   H18G16320   2.697   3.824   3.799 -1.0744 -1.2239 -1.7904
  147OSM   H18H16321   2.802   3.707   3.718  0.8220  0.4459  0.0369
  148OSM      N16322   3.290   2.153   1.815 -0.6914 -0.5527  0.3853
  148OSM    C1516323   3.373   2.250   1.722  0.5701  0.1644 -0.2711
  148OSM   H15A16324   3.301   2.316   1.674  0.7491 -0.3193 -1.2280
  148OSM   H15B16325   3.432   2.187   1.657  0.0826 -1.3491  0.7100
  148OSM   H15C16326   3.441   2.300   1.789 -1.7264 -0.5876  2.8231
  148OSM    C1416327   3.246   2.045   1.718  0.9521 -0.2134 -0.3992
  148OSM   H14A16328   3.218   2.100   1.630 -0.4643  1.3988  0.9848
  148OSM   H14B16329   3.164   1.988   1.760  0.3654 -0.1901 -1.4825
  148OSM   H14C16330   3.328   1.978   1.695  0.4477 -1.2825  0.7736
  148OSM    C1316331   3.382   2.098   1.920  0.0213 -0.5360 -0.4402
  148OSM   H13A16332   3.463   2.044   1.873 -0.8391 -0.8956 -1.5600
  148OSM   H13B16333   3.332   2.037   1.994 -0.8507 -0.9803 -1.3637
  148OSM   H13C16334   3.432   2.176   1.974 -2.3008  0.7350  0.0008
  148OSM    C1216335   3.175   2.231   1.879  0.3481  0.1811 -0.5124
  148OSM   H12A16336   3.214   2.311   1.940 -1.0288  1.0883 -0.7800
  148OSM   H12B16337   3.119   2.166   1.945 -1.7175  2.1357 -0.2317
  148OSM    C1116338   3.068   2.295   1.790 -0.7841  0.5902  0.1829
  148OSM   H11A16339   2.991   2.344   1.854  0.6232 -0.9007  3.2348
  148OSM   H11B16340   3.006   2.217   1.742 -0.9334  1.8251 -1.7560
  148OSM      P16341   3.151   2.537   1.741 -0.2688  0.3163  0.0019
  148OSM    O1316342   3.294   2.559   1.708  0.2168 -0.2364  0.7376
  148OSM    O1416343   3.058   2.631   1.676 -0.4924  0.2023  0.5528
  148OSM    O1116344   3.137   2.539   1.894 -0.1442  0.3148  0.4602
  148OSM    O1216345   3.124   2.390   1.700 -0.0023  0.0177 -0.1694
  148OSM    C1S16346   3.159   2.644   1.985  0.0464  0.4759  0.0363
  148OSM    H1S16347   3.125   2.742   1.944 -0.5590  1.1978  2.1600
  148OSM    H1T16348   3.268   2.656   2.005 -0.0971  2.1168 -0.0171
  148OSM     NF16349   3.085   2.748   2.199  0.2080  0.1232 -0.0286
  148OSM    HNF16350   3.108   2.723   2.293 -3.1091 -2.1016  0.3702
  148OSM    C2S16351   3.075   2.634   2.115  0.6274  0.1388 -0.3579
  148OSM    H2S16352   2.972   2.628   2.073  1.1546 -1.8904 -1.5178
  148OSM    C3S16353   3.091   2.498   2.191  0.1437  0.2006  0.1580
  148OSM    H3S16354   3.181   2.508   2.255 -0.5967  3.4173  0.9276
  148OSM     O316355   3.114   2.378   2.113  0.2880 -0.4074  0.0694
  148OSM    HO316356   3.117   2.416   2.025  0.1744 -3.5724 -1.4432
  148OSM    C4S16357   2.967   2.462   2.287  0.3046 -0.0839  0.9431
  148OSM    H4S16358   2.875   2.440   2.230  1.0735 -0.4265 -0.2031
  148OSM    C5S16359   2.975   2.430   2.416  0.3393  0.1288 -0.2214
  148OSM    H5S16360   3.070   2.425   2.471  0.4434  0.5662 -0.3584
  148OSM    C6S16361   2.854   2.383   2.491  0.0163  0.2617  1.5134
  148OSM    H6S16362   2.815   2.287   2.452 -2.3975  1.9962 -0.6034
  148OSM    H6T16363   2.783   2.466   2.472 -0.4715 -0.5788 -0.5651
  148OSM    C7S16364   2.890   2.362   2.643  0.0847 -0.5004  0.4878
  148OSM    H7S16365   2.922   2.463   2.675  0.4061 -0.6025  0.4934
  148OSM    H7T16366   2.972   2.287   2.651 -1.1400 -1.8323  0.9319
  148OSM    C8S16367   2.773   2.299   2.720  0.1606  0.1129  0.3529
  148OSM    H8S16368   2.745   2.199   2.680  0.3189  0.7557 -1.4500
  148OSM    H8T16369   2.685   2.364   2.710 -0.1849  0.4736  4.1989
  148OSM    C9S16370   2.814   2.295   2.862 -0.5333  0.0517 -0.3137
  148OSM    H9S16371   2.860   2.392   2.889  1.3135 -0.3153 -1.9700
  148OSM    H9T16372   2.893   2.218   2.875  0.4235  0.4821 -2.9758
  148OSM   C10S16373   2.691   2.294   2.946  0.3194  0.2264  0.8808
  148OSM   H10S16374   2.629   2.386   2.930 -0.4761 -0.3495  0.5833
  148OSM   H10T16375   2.707   2.300   3.056  0.3624 -2.6472  1.0903
  148OSM   C11S16376   2.608   2.164   2.938 -0.4242  0.2419 -0.0677
  148OSM   H11S16377   2.600   2.116   2.838 -1.3930  1.7832 -0.7639
  148OSM   H11T16378   2.506   2.205   2.956 -0.2000  1.5111 -1.4763
  148OSM   C12S16379   2.634   2.054   3.043 -0.1869  0.8496  0.0025
  148OSM   H12S16380   2.665   2.100   3.139  1.5310 -1.3709  0.6112
  148OSM   H12T16381   2.725   1.996   3.018 -1.6175 -2.4088  1.6233
  148OSM   C13S16382   2.526   1.939   3.057  0.5682 -0.4123  0.2285
  148OSM   H13S16383   2.499   1.903   2.955 -2.0476 -2.3676  1.5020
  148OSM   H13T16384   2.430   1.980   3.096 -0.4570 -1.3782 -1.1817
  148OSM   C14S16385   2.574   1.821   3.147  0.5069 -0.5810  0.2837
  148OSM   H14S16386   2.668   1.780   3.105 -1.2477 -0.7637 -3.9288
  148OSM   H14T16387   2.498   1.741   3.130  0.7473 -0.7741  0.1168
  148OSM   C15S16388   2.583   1.852   3.296  0.0772 -0.3359  0.1423
  148OSM   H15S16389   2.501   1.924   3.318  0.4226  0.2299 -0.3814
  148OSM   H15T16390   2.670   1.915   3.323 -1.1201  0.8924  1.2739
  148OSM   C16S16391   2.583   1.725   3.386 -0.5477 -0.2268  0.5482
  148OSM   H16S16392   2.666   1.653   3.370  1.3347  1.7091  1.1245
  148OSM   H16T16393   2.492   1.667   3.362 -0.0014 -0.2302 -1.8631
  148OSM   C17S16394   2.590   1.753   3.536 -0.0514  0.3125  0.0122
  148OSM   H17S16395   2.505   1.817   3.569  1.0147  1.7315  0.1217
  148OSM   H17T16396   2.684   1.808   3.556  0.0738  0.2414 -0.3729
  148OSM   C18S16397   2.593   1.622   3.606 -0.7348  0.0824  0.0436
  148OSM   H18S16398   2.671   1.551   3.568 -0.0345  0.5404  0.6004
  148OSM   H18T16399   2.500   1.563   3.593  0.8280 -2.4824 -0.3863
  148OSM   H18U16400   2.605   1.641   3.715  1.0214  0.3836 -0.1601
  148OSM    C1F16401   3.059   2.880   2.175  0.0559 -0.8396  0.2255
  148OSM     OF16402   3.023   2.917   2.068  0.4151 -0.3591  0.3235
  148OSM    C2F16403   3.081   2.978   2.291 -0.4152 -0.1595 -0.1778
  148OSM    H2F16404   2.997   2.990   2.362  0.4812 -1.6421  1.1738
  148OSM    H2G16405   3.119   3.076   2.253 -1.0159 -0.4321 -1.5690
  148OSM    C3F16406   3.184   2.935   2.400 -0.1099 -0.4561 -0.2964
  148OSM    H3F16407   3.279   2.909   2.349  1.8227  3.6769  0.7705
  148OSM    H3G16408   3.142   2.842   2.443  2.1596 -1.0874  0.6928
  148OSM    C4F16409   3.209   3.027   2.516  0.5469 -0.8272 -0.4511
  148OSM    H4F16410   3.272   3.111   2.481  0.6549  0.2079  1.9835
  148OSM    H4G16411   3.280   2.968   2.578  2.8402  1.6318 -0.6045
  148OSM    C5F16412   3.081   3.068   2.590  0.0792  0.1213  0.1598
  148OSM    H5F16413   3.014   2.983   2.616  1.8879 -1.3559  0.1463
  148OSM    H5G16414   3.015   3.133   2.528 -2.4947 -0.4863  2.0742
  148OSM    C6F16415   3.125   3.144   2.718 -0.2756 -0.7737 -0.9870
  148OSM    H6F16416   3.059   3.228   2.747  2.3428  0.9416  0.3993
  148OSM    H6G16417   3.229   3.183   2.720 -1.3149  2.3842 -2.6832
  148OSM    C7F16418   3.137   3.045   2.838  1.3029  0.4618  0.5575
  148OSM    H7F16419   3.220   2.973   2.817  0.0885 -0.4690 -1.3320
  148OSM    H7G16420   3.048   2.978   2.841  0.7155  1.2255  0.5202
  148OSM    C8F16421   3.166   3.111   2.971  0.7290 -0.5511 -0.0075
  148OSM    H8F16422   3.249   3.184   2.958 -0.1197  0.7533  1.4936
  148OSM    H8G16423   3.201   3.029   3.037  0.6321  0.7179  1.7009
  148OSM    C9F16424   3.054   3.182   3.053 -0.5483  0.0742  0.2109
  148OSM    H9F16425   3.047   3.290   3.032  0.1262  0.2935  1.0598
  148OSM   C10F16426   2.962   3.123   3.126 -0.4960 -0.6475 -0.1616
  148OSM   H10F16427   2.904   3.182   3.198  0.8674  1.5317 -0.7554
  148OSM   C11F16428   2.951   2.975   3.159 -0.0607  0.3751 -0.3282
  148OSM   H11F16429   2.959   2.923   3.061 -1.2981 -0.0500 -0.2218
  148OSM   H11G16430   2.843   2.953   3.173 -0.1387  0.7151 -0.4012
  148OSM   C12F16431   3.047   2.920   3.263 -0.2828  0.2935 -0.2983
  148OSM   H12F16432   3.152   2.932   3.229 -0.0225  2.0987  1.0216
  148OSM   H12G16433   3.026   2.812   3.280 -2.2054  0.6619 -0.1628
  148OSM   C13F16434   3.042   2.988   3.403  0.0386  0.2512 -0.5143
  148OSM   H13F16435   2.955   2.950   3.460 -0.4471  0.5176 -1.0545
  148OSM   H13G16436   3.033   3.099   3.390 -1.1910  0.3478  0.8487
  148OSM   C14F16437   3.168   2.957   3.484  0.2179  0.4670 -0.7471
  148OSM   H14F16438   3.248   3.014   3.431  1.5331 -0.0762  0.5919
  148OSM   H14G16439   3.199   2.852   3.467  1.0397  0.3788  1.0330
  148OSM   C15F16440   3.155   2.985   3.636 -0.3254 -0.0998  0.1888
  148OSM   H15F16441   3.228   2.923   3.692  1.2204  1.2314 -0.2692
  148OSM   H15G16442   3.055   2.957   3.675 -0.3665 -0.6926 -0.3300
  148OSM   C16F16443   3.184   3.132   3.650 -0.4519  0.4068 -0.1958
  148OSM   H16F16444   3.118   3.180   3.575 -3.9537 -0.2838  2.1985
  148OSM   H16G16445   3.291   3.138   3.621 -0.8296 -0.0314 -1.7576
  148OSM   C17F16446   3.155   3.183   3.789 -0.1843  0.1669 -0.1854
  148OSM   H17F16447   3.209   3.279   3.798  0.7086 -0.4271  1.1912
  148OSM   H17G16448   3.201   3.108   3.858  0.1905  1.0218  0.5070
  148OSM   C18F16449   3.019   3.193   3.834 -0.2760  0.1045 -0.3066
  148OSM   H18F16450   2.981   3.280   3.776 -0.6755  0.8259  1.0066
  148OSM   H18G16451   3.007   3.222   3.940  0.4891  0.0049 -0.1912
  148OSM   H18H16452   2.950   3.110   3.806  1.3701 -0.9022 -1.5678
  149OSM      N16453   4.322   2.286   1.334 -0.3301  0.2612  0.4514
  149OSM    C1516454   4.191   2.275   1.396  0.4713 -0.1525 -0.4002
  149OSM   H15A16455   4.153   2.180   1.428 -1.3670 -0.1961 -2.4738
  149OSM   H15B16456   4.109   2.307   1.334  0.0946  1.5605  0.8971
  149OSM   H15C16457   4.187   2.338   1.484 -1.5398  1.5508 -1.6000
  149OSM    C1416458   4.334   2.195   1.214  0.2095 -0.2067 -0.7068
  149OSM   H14A16459   4.244   2.205   1.156 -0.1857  1.0904  0.0873
  149OSM   H14B16460   4.344   2.094   1.249 -1.2155 -0.0324  0.2814
  149OSM   H14C16461   4.421   2.215   1.153  0.3391  2.7341  0.2571
  149OSM    C1316462   4.338   2.424   1.281 -0.0713  0.6881  0.6682
  149OSM   H13A16463   4.301   2.497   1.351  0.2558  1.5372 -0.0257
  149OSM   H13B16464   4.283   2.438   1.189  0.4500  0.4127  0.3113
  149OSM   H13C16465   4.440   2.448   1.253 -0.4008  0.6030 -0.6611
  149OSM    C1216466   4.430   2.261   1.448  0.3175  0.7473 -0.8728
  149OSM   H12A16467   4.530   2.264   1.407  0.7336 -0.6011 -0.0404
  149OSM   H12B16468   4.412   2.157   1.474 -0.2595  0.8454 -0.8667
  149OSM    C1116469   4.444   2.354   1.568  1.3281 -0.3787  0.6908
  149OSM   H11A16470   4.447   2.461   1.538  0.4949  0.1986  2.5586
  149OSM   H11B16471   4.546   2.337   1.611  2.2204 -0.0584 -1.1946
  149OSM      P16472   4.320   2.217   1.756  0.1555  0.0827 -0.0081
  149OSM    O1316473   4.209   2.216   1.855 -0.5564  0.5658  0.0264
  149OSM    O1416474   4.342   2.095   1.676 -0.3452  0.4922 -0.6419
  149OSM    O1116475   4.453   2.235   1.835 -0.2512 -0.0846  0.1267
  149OSM    O1216476   4.331   2.339   1.662  0.4727 -0.4728 -0.1245
  149OSM    C1S16477   4.465   2.329   1.940  0.3773 -0.4344  0.1085
  149OSM    H1S16478   4.413   2.426   1.926 -0.9328 -1.3759 -1.9768
  149OSM    H1T16479   4.574   2.353   1.945  0.1227  0.6028  1.6491
  149OSM     NF16480   4.474   2.370   2.172 -0.1781 -0.2175  0.1092
  149OSM    HNF16481   4.557   2.369   2.228 -0.3408  2.0464  0.4937
  149OSM    C2S16482   4.436   2.267   2.081 -0.5987  0.0184  0.3932
  149OSM    H2S16483   4.328   2.245   2.091 -1.0348  0.8406 -1.8475
  149OSM    C3S16484   4.510   2.133   2.107 -0.0089 -0.1295  0.1864
  149OSM    H3S16485   4.620   2.147   2.097  0.1376 -0.9639  0.5236
  149OSM     O316486   4.489   2.028   2.011  0.6243 -0.7146  0.0946
  149OSM    HO316487   4.455   2.071   1.933  0.9941 -2.9496 -1.3769
  149OSM    C4S16488   4.489   2.069   2.248  0.1818  0.4658 -0.2801
  149OSM    H4S16489   4.567   2.105   2.316 -0.0605  0.8729 -0.2097
  149OSM    C5S16490   4.386   1.990   2.299  0.0451 -0.1605 -0.8538
  149OSM    H5S16491   4.300   1.967   2.234 -2.0963 -1.2492  2.1611
  149OSM    C6S16492   4.357   1.932   2.437  0.3461  0.7745  0.2213
  149OSM    H6S16493   4.376   1.822   2.432 -2.6205  0.2030 -0.4378
  149OSM    H6T16494   4.257   1.966   2.472 -0.3524 -0.4259 -0.5438
  149OSM    C7S16495   4.447   1.981   2.554 -0.7257 -0.1398 -0.2723
  149OSM    H7S16496   4.434   2.089   2.576  0.1985  0.6070 -2.9600
  149OSM    H7T16497   4.551   1.964   2.521 -0.5177 -2.1395  1.2510
  149OSM    C8S16498   4.436   1.899   2.679  0.7399  0.8168 -0.1309
  149OSM    H8S16499   4.471   1.803   2.635 -0.7535  1.0689 -2.0140
  149OSM    H8T16500   4.332   1.874   2.708  0.7507 -1.1364 -1.5822
  149OSM    C9S16501   4.514   1.953   2.801  0.1813 -0.0387 -0.0239
  149OSM    H9S16502   4.458   2.039   2.845 -0.0216  0.4576 -1.2251
  149OSM    H9T16503   4.604   2.011   2.772  0.5972 -0.5356  0.2482
  149OSM   C10S16504   4.531   1.844   2.907  0.6987 -0.0821  0.1824
  149OSM   H10S16505   4.569   1.747   2.870 -3.2951 -1.4887 -0.7010
  149OSM   H10T16506   4.429   1.811   2.937 -0.0740  0.7277 -1.3932
  149OSM   C11S16507   4.617   1.888   3.029 -0.8337  0.4289  0.5023
  149OSM   H11S16508   4.593   1.984   3.079  1.8347  0.3867  2.0455
  149OSM   H11T16509   4.713   1.904   2.975  0.8969 -3.4935  2.0394
  149OSM   C12S16510   4.652   1.782   3.138  0.3508  0.7733  0.3517
  149OSM   H12S16511   4.722   1.834   3.207  1.7384 -1.0976  0.4481
  149OSM   H12T16512   4.718   1.713   3.080 -1.7945 -0.6848 -0.4577
  149OSM   C13S16513   4.536   1.723   3.214 -0.2701 -0.3807  0.8270
  149OSM   H13S16514   4.460   1.688   3.142 -0.6531 -0.3205  1.1958
  149OSM   H13T16515   4.482   1.804   3.268  0.6104 -0.9733  2.7121
  149OSM   C14S16516   4.568   1.610   3.323 -0.1349 -0.0150 -0.0131
  149OSM   H14S16517   4.624   1.659   3.405  1.8689  1.2244 -2.0364
  149OSM   H14T16518   4.627   1.526   3.279 -2.2790 -0.0685 -3.1484
  149OSM   C15S16519   4.438   1.537   3.374  0.1870  0.1665 -0.2322
  149OSM   H15S16520   4.392   1.487   3.287  1.4936 -3.6096  1.0527
  149OSM   H15T16521   4.367   1.613   3.413 -0.5912 -0.7902  0.2620
  149OSM   C16S16522   4.453   1.457   3.507 -0.4670  0.1603  0.4856
  149OSM   H16S16523   4.472   1.531   3.588  0.0093  0.3458  0.2069
  149OSM   H16T16524   4.524   1.372   3.499  0.7089  1.2094 -0.6435
  149OSM   C17S16525   4.325   1.374   3.543  0.2139  0.8333 -0.2928
  149OSM   H17S16526   4.311   1.290   3.472  1.3582  0.5090 -0.1400
  149OSM   H17T16527   4.246   1.452   3.545  0.1123  0.7455 -0.7493
  149OSM   C18S16528   4.334   1.328   3.689 -0.4463 -0.3381  0.0982
  149OSM   H18S16529   4.390   1.234   3.705  0.1398 -0.1599 -0.8119
  149OSM   H18T16530   4.231   1.308   3.724 -0.3577  0.2503  0.7123
  149OSM   H18U16531   4.366   1.408   3.760 -0.8588 -1.7855  1.9793
  149OSM    C1F16532   4.401   2.481   2.191  0.3288 -0.3598  0.2849
  149OSM     OF16533   4.285   2.490   2.164  0.7128 -0.1970  0.1270
  149OSM    C2F16534   4.472   2.598   2.254  0.3103  0.2133  0.2693
  149OSM    H2F16535   4.440   2.688   2.198 -1.0861 -0.3522  0.1100
  149OSM    H2G16536   4.582   2.600   2.237  0.1337  3.0397 -1.1042
  149OSM    C3F16537   4.432   2.609   2.405 -1.0002 -0.1850  0.9117
  149OSM    H3F16538   4.324   2.627   2.426 -0.8683  1.9773  0.0293
  149OSM    H3G16539   4.461   2.712   2.434  0.4485 -0.6469  1.1896
  149OSM    C4F16540   4.489   2.503   2.494  0.1034 -0.0239 -0.2834
  149OSM    H4F16541   4.599   2.487   2.493  0.1295  0.1661 -0.8880
  149OSM    H4G16542   4.444   2.409   2.455 -0.5583 -0.1521  0.7665
  149OSM    C5F16543   4.442   2.518   2.634 -0.3919 -0.2940  0.7602
  149OSM    H5F16544   4.332   2.533   2.642 -0.9463 -2.2890 -1.7001
  149OSM    H5G16545   4.498   2.604   2.676  2.0650 -0.2076 -2.2822
  149OSM    C6F16546   4.494   2.406   2.729 -0.0152 -0.2109  0.1824
  149OSM    H6F16547   4.595   2.379   2.691 -0.2874  1.2056 -1.7377
  149OSM    H6G16548   4.432   2.317   2.709  0.6988 -0.3984 -1.3597
  149OSM    C7F16549   4.507   2.448   2.875 -0.0471  0.4408  0.2968
  149OSM    H7F16550   4.403   2.452   2.913 -0.6188 -2.7219 -0.5998
  149OSM    H7G16551   4.567   2.541   2.885  1.1713 -0.2573 -0.3153
  149OSM    C8F16552   4.581   2.342   2.955  0.6568 -0.1058  0.0952
  149OSM    H8F16553   4.687   2.335   2.923  0.7646 -0.7787  0.5865
  149OSM    H8G16554   4.541   2.241   2.933  0.6235 -0.4706  1.7351
  149OSM    C9F16555   4.579   2.371   3.102  0.1102 -0.5489 -0.1357
  149OSM    H9F16556   4.635   2.464   3.118  0.9390 -0.8585 -1.1428
  149OSM   C10F16557   4.492   2.332   3.198 -0.1965  0.3420 -0.0943
  149OSM   H10F16558   4.505   2.366   3.302 -1.8768  0.8865 -0.0167
  149OSM   C11F16559   4.376   2.236   3.170  0.1114 -0.1565  0.5978
  149OSM   H11F16560   4.381   2.186   3.071  1.2712 -0.8123  0.9808
  149OSM   H11G16561   4.286   2.301   3.183  1.0144  1.3952 -0.4782
  149OSM   C12F16562   4.367   2.123   3.283  0.2059  0.5253  0.3895
  149OSM   H12F16563   4.436   2.037   3.272  1.4469  1.6088 -0.7444
  149OSM   H12G16564   4.259   2.096   3.288  0.5349 -0.9289 -0.0664
  149OSM   C13F16565   4.388   2.171   3.423  0.5563  0.1009  0.6823
  149OSM   H13F16566   4.324   2.262   3.423  0.1937 -0.0971 -1.6538
  149OSM   H13G16567   4.495   2.190   3.444  0.6361  2.4096 -1.4847
  149OSM   C14F16568   4.323   2.074   3.527  0.0233  0.3023 -0.2868
  149OSM   H14F16569   4.216   2.091   3.552  1.1142  2.3110  4.0781
  149OSM   H14G16570   4.372   2.087   3.626  1.0631 -0.2332 -0.7251
  149OSM   C15F16571   4.342   1.926   3.509  0.4849 -0.3068  0.0792
  149OSM   H15F16572   4.446   1.892   3.524  1.1913  1.1625 -1.1912
  149OSM   H15G16573   4.305   1.893   3.409 -0.1860  1.6076 -0.3722
  149OSM   C16F16574   4.269   1.853   3.618  0.0559 -0.5786 -0.2244
  149OSM   H16F16575   4.246   1.751   3.579 -1.5536 -0.5189  0.4901
  149OSM   H16G16576   4.170   1.896   3.645  0.4181  0.3873 -0.4266
  149OSM   C17F16577   4.355   1.817   3.738 -0.3259  0.0549  0.0793
  149OSM   H17F16578   4.388   1.905   3.798  0.6994 -1.5474  1.9832
  149OSM   H17G16579   4.447   1.764   3.704 -0.3956  0.1529 -0.2690
  149OSM   C18F16580   4.271   1.734   3.841 -0.5172  0.3379  0.2131
  149OSM   H18F16581   4.178   1.791   3.862 -0.9483 -0.4598  0.4931
  149OSM   H18G16582   4.329   1.715   3.933 -2.0518 -0.2785  1.0779
  149OSM   H18H16583   4.253   1.634   3.796  3.6411 -0.0293 -1.0801
  150OSM      N16584   3.011   4.549   1.672 -0.4344  0.2469  0.6058
  150OSM    C1516585   3.101   4.437   1.715 -0.1111  0.4641 -0.2415
  150OSM   H15A16586   3.117   4.365   1.636 -0.1017  1.4791 -1.1860
  150OSM   H15B16587   3.063   4.387   1.803  0.5583 -0.7379 -0.6018
  150OSM   H15C16588   3.203   4.462   1.737  1.2958 -3.9400 -0.7475
  150OSM    C1416589   2.983   4.639   1.782 -0.6780 -0.2244  0.0326
  150OSM   H14A16590   2.906   4.709   1.752 -0.0492 -0.9735 -3.9111
  150OSM   H14B16591   3.069   4.698   1.808  1.2639 -1.7466 -2.4691
  150OSM   H14C16592   2.936   4.591   1.867  0.3535  1.3893  1.5929
  150OSM    C1316593   3.076   4.631   1.561  0.1819 -0.3352  1.2371
  150OSM   H13A16594   3.113   4.574   1.477 -1.2378  0.1089  0.2616
  150OSM   H13B16595   3.159   4.693   1.592  0.2329  0.2827 -0.0715
  150OSM   H13C16596   3.000   4.692   1.513  0.0839 -0.4478  1.2486
  150OSM    C1216597   2.889   4.483   1.611  0.5877 -0.2459 -0.2990
  150OSM   H12A16598   2.915   4.409   1.537 -0.9148 -1.0940 -0.0369
  150OSM   H12B16599   2.834   4.564   1.565 -1.5480 -0.8380  1.0165
  150OSM    C1116600   2.789   4.413   1.708 -0.1807 -0.8679  0.3210
  150OSM   H11A16601   2.846   4.356   1.785 -2.2214 -1.5069  1.4324
  150OSM   H11B16602   2.731   4.342   1.645  1.7934 -2.2999  0.0038
  150OSM      P16603   2.582   4.568   1.706  0.5778 -0.0246 -0.3532
  150OSM    O1316604   2.571   4.708   1.754 -0.3625  0.0727  0.6811
  150OSM    O1416605   2.597   4.554   1.557 -0.0256 -0.4386 -0.3694
  150OSM    O1116606   2.457   4.484   1.758  0.6484 -0.5093  0.1065
  150OSM    O1216607   2.708   4.503   1.772 -0.5720 -0.4466 -0.3078
  150OSM    C1S16608   2.482   4.373   1.842 -0.3443 -0.2814  0.2474
  150OSM    H1S16609   2.576   4.376   1.901 -0.3271 -0.0203  0.2054
  150OSM    H1T16610   2.473   4.283   1.777  1.7166  0.3215 -0.9481
  150OSM     NF16611   2.384   4.263   2.046  0.1371 -0.1725 -0.4319
  150OSM    HNF16612   2.339   4.178   2.021  0.4604 -0.2957 -0.6010
  150OSM    C2S16613   2.366   4.368   1.946  0.7792 -0.2171 -1.3734
  150OSM    H2S16614   2.386   4.459   2.006  1.1095 -1.1187 -0.0665
  150OSM    C3S16615   2.227   4.368   1.884  0.0466  0.7751 -0.4914
  150OSM    H3S16616   2.209   4.265   1.847  0.8461  1.0051 -1.5701
  150OSM     O316617   2.207   4.453   1.766  0.1125 -0.2676  0.1180
  150OSM    HO316618   2.296   4.486   1.747 -0.3281  0.0416 -1.6065
  150OSM    C4S16619   2.133   4.400   1.988 -0.5547  0.1410  0.3202
  150OSM    H4S16620   2.065   4.314   1.995  1.4843 -1.4776  1.2104
  150OSM    C5S16621   2.121   4.518   2.048 -0.4819 -0.0657 -0.7028
  150OSM    H5S16622   2.184   4.599   2.010 -1.7971  0.0652 -2.7760
  150OSM    C6S16623   2.019   4.547   2.152  0.2462  0.1222 -0.0037
  150OSM    H6S16624   1.935   4.612   2.118  0.5173 -0.5015 -1.9953
  150OSM    H6T16625   2.068   4.599   2.237  1.8826  0.7185 -1.2502
  150OSM    C7S16626   1.940   4.427   2.209 -0.8176  0.0575 -0.3481
  150OSM    H7S16627   2.012   4.347   2.236 -2.6814 -1.2647  1.0250
  150OSM    H7T16628   1.868   4.392   2.132 -0.6889 -1.7816  0.3140
  150OSM    C8S16629   1.849   4.460   2.329 -0.1861  0.1624  0.1348
  150OSM    H8S16630   1.918   4.484   2.412 -0.1395  1.0062 -0.1334
  150OSM    H8T16631   1.793   4.368   2.356 -0.4057 -0.1985 -1.4040
  150OSM    C9S16632   1.755   4.575   2.303  0.1159 -0.8591 -0.8354
  150OSM    H9S16633   1.689   4.569   2.214 -2.0149  0.8248  0.5173
  150OSM    H9T16634   1.815   4.667   2.288 -1.0307 -0.2239 -1.6815
  150OSM   C10S16635   1.661   4.597   2.425 -1.0215 -0.6320 -0.2679
  150OSM   H10S16636   1.724   4.582   2.515  1.4365  1.0966 -1.6056
  150OSM   H10T16637   1.577   4.524   2.423 -0.8185 -0.8568 -0.8209
  150OSM   C11S16638   1.603   4.736   2.434  0.2304 -0.8358 -0.1918
  150OSM   H11S16639   1.553   4.755   2.336  0.7300 -0.8927 -0.4643
  150OSM   H11T16640   1.686   4.811   2.437 -0.9621  0.6693 -2.1736
  150OSM   C12S16641   1.522   4.760   2.561  0.4743  0.2418  0.1251
  150OSM   H12S16642   1.420   4.718   2.547  1.4394 -2.1996 -0.2417
  150OSM   H12T16643   1.505   4.869   2.569  1.2216  0.2562  2.3195
  150OSM   C13S16644   1.579   4.724   2.696 -0.1447 -0.5137  0.1989
  150OSM   H13S16645   1.683   4.759   2.714 -0.1922 -0.6126  0.6920
  150OSM   H13T16646   1.583   4.614   2.712 -1.0663 -0.4944  0.6096
  150OSM   C14S16647   1.495   4.790   2.801 -0.3097 -0.5878  0.1084
  150OSM   H14S16648   1.391   4.764   2.771 -0.0756  0.5518 -1.8359
  150OSM   H14T16649   1.497   4.901   2.805 -1.9942 -0.5667  1.9598
  150OSM   C15S16650   1.528   4.736   2.945  0.6101 -0.4528 -0.1346
  150OSM   H15S16651   1.633   4.739   2.981 -0.0590 -0.5584  1.9162
  150OSM   H15T16652   1.501   4.629   2.951  1.8319 -0.7550  0.1962
  150OSM   C16S16653   1.436   4.807   3.042  0.1892  1.1257 -0.0232
  150OSM   H16S16654   1.437   4.759   3.143 -0.5472  0.5417 -0.2859
  150OSM   H16T16655   1.329   4.797   3.016  0.2005  1.7971 -0.3228
  150OSM   C17S16656   1.467   4.955   3.060 -0.7019 -0.3806 -0.5774
  150OSM   H17S16657   1.544   4.998   2.992 -1.5097  0.0029 -1.2638
  150OSM   H17T16658   1.502   4.970   3.164 -0.9779 -3.3451  0.0324
  150OSM   C18S16659   1.349   5.042   3.045  0.1096  0.2117  0.0082
  150OSM   H18S16660   1.367   5.150   3.064  1.7886  0.5949 -3.1433
  150OSM   H18T16661   1.264   4.987   3.090  0.7809 -1.8849 -1.1387
  150OSM   H18U16662   1.327   5.036   2.936  2.5343  1.8785 -0.6736
  150OSM    C1F16663   2.468   4.263   2.146 -0.5867  0.2142 -0.5010
  150OSM     OF16664   2.573   4.333   2.141 -0.4969  0.4594  0.0552
  150OSM    C2F16665   2.425   4.180   2.263  0.1716 -0.3287  0.2004
  150OSM    H2F16666   2.480   4.208   2.355 -0.3877 -2.1090  1.1323
  150OSM    H2G16667   2.451   4.072   2.255 -0.4598 -0.5963  1.3981
  150OSM    C3F16668   2.275   4.207   2.310  0.6943 -0.1557  0.0994
  150OSM    H3F16669   2.212   4.152   2.237 -1.7095  1.4338  0.8540
  150OSM    H3G16670   2.250   4.313   2.289 -0.9497 -0.8690 -1.8587
  150OSM    C4F16671   2.259   4.169   2.456 -0.4059  0.4170 -0.6358
  150OSM    H4F16672   2.337   4.220   2.516 -1.0871 -0.6498  1.2257
  150OSM    H4G16673   2.265   4.059   2.468  0.0615  0.7277  3.5379
  150OSM    C5F16674   2.118   4.209   2.506  0.0863  0.2366  0.7617
  150OSM    H5F16675   2.043   4.136   2.468  0.0743  0.0612  1.1191
  150OSM    H5G16676   2.100   4.306   2.455 -0.7680 -0.2126  0.1710
  150OSM    C6F16677   2.093   4.201   2.654 -1.3428 -0.0462 -0.5284
  150OSM    H6F16678   2.183   4.227   2.715 -2.1465 -0.1499  0.7374
  150OSM    H6G16679   2.064   4.096   2.672 -1.3139  0.1111  0.5017
  150OSM    C7F16680   1.985   4.291   2.699  0.4104 -0.1331 -0.3481
  150OSM    H7F16681   1.966   4.265   2.806 -0.1016  2.0319  0.1355
  150OSM    H7G16682   1.892   4.271   2.643  0.7491 -2.1209 -0.2601
  150OSM    C8F16683   2.026   4.443   2.700  0.2932 -0.1741 -0.0376
  150OSM    H8F16684   2.033   4.491   2.600 -0.9883 -0.6130 -0.3608
  150OSM    H8G16685   2.130   4.447   2.740  0.0039 -1.2050  0.8622
  150OSM    C9F16686   1.921   4.525   2.777  0.4328  0.0100  0.2817
  150OSM    H9F16687   1.832   4.553   2.718  1.4220  1.4706 -0.5995
  150OSM   C10F16688   1.918   4.566   2.905 -0.2123 -0.7612  1.0452
  150OSM   H10F16689   1.831   4.617   2.949  0.8292  0.9456  1.2001
  150OSM   C11F16690   2.026   4.541   3.007  0.1349 -0.2661  0.3061
  150OSM   H11F16691   2.072   4.639   3.031 -0.9934 -0.2309  2.5635
  150OSM   H11G16692   2.108   4.483   2.959  0.8745 -1.1778  2.5149
  150OSM   C12F16693   1.976   4.484   3.142 -0.2849 -0.3477  0.0551
  150OSM   H12F16694   2.063   4.481   3.211  1.0153  1.2181 -1.4244
  150OSM   H12G16695   1.950   4.378   3.125  1.1286 -0.6857 -0.0676
  150OSM   C13F16696   1.850   4.558   3.197  0.2559  0.2703 -0.4655
  150OSM   H13F16697   1.770   4.494   3.153  1.8488 -2.8570  0.8222
  150OSM   H13G16698   1.844   4.662   3.161  3.7724  0.7257 -0.0724
  150OSM   C14F16699   1.830   4.560   3.351 -0.4290 -0.2398 -1.2037
  150OSM   H14F16700   1.918   4.606   3.400  1.1359 -2.2352 -2.0012
  150OSM   H14G16701   1.809   4.458   3.390  0.4205  0.0314  0.0164
  150OSM   C15F16702   1.705   4.646   3.388  0.3829 -0.0884  0.0977
  150OSM   H15F16703   1.621   4.625   3.318  0.1613  0.3263  0.2371
  150OSM   H15G16704   1.727   4.753   3.371  1.5181 -0.1156  1.2761
  150OSM   C16F16705   1.652   4.624   3.536 -0.1202  1.1428  0.0608
  150OSM   H16F16706   1.726   4.673   3.603 -1.2466  1.3354  1.2062
  150OSM   H16G16707   1.656   4.514   3.553 -0.8567  1.0437 -0.3994
  150OSM   C17F16708   1.518   4.682   3.568  0.3221 -0.0094  0.1925
  150OSM   H17F16709   1.518   4.783   3.522 -0.7038 -1.0657 -2.3055
  150OSM   H17G16710   1.497   4.672   3.676 -2.8564 -0.6422 -0.4007
  150OSM   C18F16711   1.401   4.601   3.507  0.0532 -0.6245 -0.3395
  150OSM   H18F16712   1.378   4.630   3.403  0.4843  0.7103 -0.0793
  150OSM   H18G16713   1.308   4.615   3.567  1.7431  1.6865  1.9770
  150OSM   H18H16714   1.427   4.493   3.515  2.2011 -0.0453  1.7065
  151OSM      N16715   1.967   3.985   1.678 -0.4968 -0.0278 -0.2471
  151OSM    C1516716   2.116   3.965   1.684  0.4448  0.2343  1.0935
  151OSM   H15A16717   2.156   3.996   1.780  0.8080  1.2975  0.6172
  151OSM   H15B16718   2.163   4.030   1.612 -0.1722  0.2431  0.6913
  151OSM   H15C16719   2.139   3.864   1.655 -2.8138 -0.1029 -0.8227
  151OSM    C1416720   1.940   4.129   1.716 -0.2631  0.5733 -0.4093
  151OSM   H14A16721   1.965   4.140   1.821 -2.6087 -2.2571  0.5706
  151OSM   H14B16722   1.835   4.144   1.700 -0.5495 -2.0769 -1.5466
  151OSM   H14C16723   1.998   4.198   1.657  1.0081  0.2585  0.4248
  151OSM    C1316724   1.909   3.976   1.535  0.1714  0.3354 -1.0337
  151OSM   H13A16725   1.945   4.059   1.476 -0.8787  0.8964 -0.9200
  151OSM   H13B16726   1.801   3.980   1.529  0.1610  1.1158 -0.4851
  151OSM   H13C16727   1.946   3.883   1.494 -0.3957 -0.2248 -0.3023
  151OSM    C1216728   1.898   3.897   1.772 -0.5351  1.0938 -0.7902
  151OSM   H12A16729   1.791   3.909   1.758 -0.6206  1.1339 -0.1507
  151OSM   H12B16730   1.918   3.918   1.876  1.4975 -1.8594 -0.4791
  151OSM    C1116731   1.922   3.744   1.760  0.0197  0.1849 -0.1778
  151OSM   H11A16732   1.902   3.712   1.656  0.8195 -1.8836  0.2567
  151OSM   H11B16733   1.848   3.684   1.817  1.0539 -0.2761  0.7195
  151OSM      P16734   2.080   3.663   1.951  0.3922 -0.7458  0.3705
  151OSM    O1316735   2.047   3.525   1.971 -0.1076  0.2990  0.0818
  151OSM    O1416736   2.211   3.710   1.996 -0.0754 -0.2914  0.1881
  151OSM    O1116737   1.966   3.747   2.012 -0.1836 -0.1561 -0.7268
  151OSM    O1216738   2.049   3.700   1.798  0.2221  0.7480  0.9388
  151OSM    C1S16739   1.873   3.694   2.109 -0.6277 -0.4516  0.7571
  151OSM    H1S16740   1.834   3.594   2.083 -0.3642 -0.1972 -0.6686
  151OSM    H1T16741   1.788   3.765   2.125  1.2909  2.2335 -0.2528
  151OSM     NF16742   1.835   3.637   2.332 -0.1213 -0.2347  0.2549
  151OSM    HNF16743   1.776   3.703   2.378  1.1938  0.6011  0.7768
  151OSM    C2S16744   1.933   3.697   2.258 -0.8127 -0.6005 -0.2309
  151OSM    H2S16745   2.017   3.625   2.251 -0.3561 -0.0329 -0.6338
  151OSM    C3S16746   1.970   3.838   2.308  0.4059 -0.0374 -0.3181
  151OSM    H3S16747   1.896   3.916   2.282 -1.5030 -1.3496  0.9065
  151OSM     O316748   2.088   3.876   2.243  0.1479 -0.0842  0.3415
  151OSM    HO316749   2.097   3.813   2.171 -1.3956 -0.8862  0.7990
  151OSM    C4S16750   1.999   3.832   2.451  0.0400  0.2226  0.4210
  151OSM    H4S16751   2.089   3.773   2.476 -0.8331 -1.3230  0.0019
  151OSM    C5S16752   1.920   3.868   2.549  0.1446 -0.6200 -0.2314
  151OSM    H5S16753   1.829   3.924   2.524  1.4091  1.0418 -1.2829
  151OSM    C6S16754   1.943   3.846   2.699 -0.5273  0.5023  0.8064
  151OSM    H6S16755   1.882   3.758   2.728  0.3203 -1.0825 -1.8790
  151OSM    H6T16756   1.917   3.937   2.757  0.4445  0.8607  0.7005
  151OSM    C7S16757   2.097   3.828   2.742 -0.5631 -0.3565 -0.1031
  151OSM    H7S16758   2.172   3.897   2.699  1.7544 -1.9967  1.0769
  151OSM    H7T16759   2.126   3.737   2.684 -0.1529  0.6863 -1.5809
  151OSM    C8S16760   2.124   3.812   2.890 -0.0946 -0.5395  0.2859
  151OSM    H8S16761   2.071   3.892   2.946  1.8627 -0.4232  2.1267
  151OSM    H8T16762   2.234   3.815   2.908 -0.2716  0.4712  1.3159
  151OSM    C9S16763   2.077   3.687   2.963  0.4210  0.5854 -0.6008
  151OSM    H9S16764   2.089   3.598   2.898 -0.5971  0.0969 -0.1463
  151OSM    H9T16765   1.966   3.689   2.975  0.4279 -1.9104  0.3472
  151OSM   C10S16766   2.140   3.673   3.099 -0.0190 -0.4940  0.1558
  151OSM   H10S16767   2.066   3.638   3.174  0.1372 -1.4134 -0.1140
  151OSM   H10T16768   2.183   3.772   3.126 -0.7371  0.3521 -1.6010
  151OSM   C11S16769   2.241   3.563   3.098 -0.1143  0.2824  0.0392
  151OSM   H11S16770   2.316   3.593   3.022 -2.3049 -0.6451 -2.7010
  151OSM   H11T16771   2.195   3.470   3.057  0.4459 -0.4183  0.9845
  151OSM   C12S16772   2.301   3.518   3.235  0.4486 -0.5614 -0.1786
  151OSM   H12S16773   2.362   3.602   3.273  1.1859 -1.7766  1.4454
  151OSM   H12T16774   2.373   3.436   3.214 -0.9293 -2.1536  1.0317
  151OSM   C13S16775   2.195   3.485   3.347 -0.4790  0.2030  0.1835
  151OSM   H13S16776   2.118   3.412   3.314 -3.0941  1.5800  2.8362
  151OSM   H13T16777   2.138   3.572   3.384 -2.1548 -1.0587  0.6960
  151OSM   C14S16778   2.275   3.428   3.470  0.0019  0.1142  0.3931
  151OSM   H14S16779   2.370   3.482   3.490 -0.2283  0.3478  0.8706
  151OSM   H14T16780   2.310   3.324   3.452 -2.0585 -0.4583 -0.5897
  151OSM   C15S16781   2.200   3.427   3.601  0.6989  0.2298  0.1981
  151OSM   H15S16782   2.123   3.348   3.596 -2.0036  2.7956 -1.8350
  151OSM   H15T16783   2.139   3.520   3.604 -0.5095 -0.5458  0.3270
  151OSM   C16S16784   2.283   3.425   3.732  0.0494 -0.7403  0.0307
  151OSM   H16S16785   2.359   3.505   3.722 -0.8598  0.6519  3.1702
  151OSM   H16T16786   2.348   3.336   3.749 -2.7953 -3.1722 -1.0310
  151OSM   C17S16787   2.199   3.455   3.852  0.3515  0.2065  0.3209
  151OSM   H17S16788   2.152   3.554   3.836 -1.6253 -0.7684 -0.2072
  151OSM   H17T16789   2.274   3.457   3.934  1.7346 -0.2853 -0.8840
  151OSM   C18S16790   2.092   3.353   3.896 -0.1413 -0.2606 -0.9408
  151OSM   H18S16791   2.137   3.252   3.886 -1.5124 -1.1453  1.0354
  151OSM   H18T16792   1.999   3.355   3.835 -2.6903 -0.1368  2.6700
  151OSM   H18U16793   2.064   3.351   4.003 -0.2343  0.7471 -0.9430
  151OSM    C1F16794   1.829   3.505   2.341  0.3630  0.3560  0.0515
  151OSM     OF16795   1.912   3.439   2.288  0.2613  0.8645 -0.0424
  151OSM    C2F16796   1.721   3.439   2.421 -0.3427  0.1645  0.0931
  151OSM    H2F16797   1.728   3.329   2.403 -2.5688 -0.0090 -0.0296
  151OSM    H2G16798   1.623   3.472   2.380  0.8417  1.2116 -2.0367
  151OSM    C3F16799   1.730   3.480   2.568 -0.0931  0.0604 -0.2512
  151OSM    H3F16800   1.763   3.585   2.577  1.6023 -0.4414 -0.2528
  151OSM    H3G16801   1.809   3.419   2.618 -0.1538  0.6345  0.5615
  151OSM    C4F16802   1.600   3.448   2.653  0.8570 -0.2874  0.0881
  151OSM    H4F16803   1.511   3.493   2.604  0.1667  0.4260  1.9286
  151OSM    H4G16804   1.615   3.499   2.750 -0.2141  1.7155 -0.7318
  151OSM    C5F16805   1.580   3.298   2.659 -0.3543 -0.6201 -0.2790
  151OSM    H5F16806   1.678   3.251   2.681 -0.6382 -0.7491  0.7277
  151OSM    H5G16807   1.537   3.258   2.565 -2.9334  1.3546 -0.0513
  151OSM    C6F16808   1.503   3.263   2.783  0.6411 -0.3276 -0.2991
  151OSM    H6F16809   1.552   3.309   2.872 -2.4048  1.5548  0.5648
  151OSM    H6G16810   1.507   3.153   2.792  1.2346 -0.4248 -1.6723
  151OSM    C7F16811   1.357   3.316   2.793  0.4613  0.2665 -0.1134
  151OSM    H7F16812   1.288   3.271   2.718 -0.0172 -0.8770  0.9702
  151OSM    H7G16813   1.357   3.420   2.755 -0.2573  0.4953  0.4773
  151OSM    C8F16814   1.291   3.309   2.935 -0.1899  0.2096  0.4571
  151OSM    H8F16815   1.332   3.386   3.004 -1.3619  1.6839 -0.4317
  151OSM    H8G16816   1.324   3.207   2.964  2.7121  0.8788 -0.1143
  151OSM    C9F16817   1.140   3.324   2.946 -1.8367  0.1846  0.2157
  151OSM    H9F16818   1.084   3.255   2.881 -1.0545 -0.2896  0.0246
  151OSM   C10F16819   1.085   3.433   3.015  0.2186  0.2389 -0.0466
  151OSM   H10F16820   0.976   3.428   3.025  0.3118 -0.7061  0.6335
  151OSM   C11F16821   1.149   3.550   3.087 -0.4152  0.4580 -0.4240
  151OSM   H11F16822   1.089   3.643   3.077 -1.2988 -0.1323 -0.7285
  151OSM   H11G16823   1.253   3.572   3.054  0.1389 -0.1824  0.8328
  151OSM   C12F16824   1.164   3.511   3.235  0.3634 -0.1353 -0.1845
  151OSM   H12F16825   1.228   3.421   3.234  3.9902  2.2010 -0.1011
  151OSM   H12G16826   1.064   3.486   3.276 -0.8571  3.9196 -0.2314
  151OSM   C13F16827   1.232   3.623   3.318  1.1803  0.7012  0.0905
  151OSM   H13F16828   1.167   3.713   3.305 -0.7227 -0.5601  0.3957
  151OSM   H13G16829   1.335   3.641   3.281  0.8823  0.2761 -0.9701
  151OSM   C14F16830   1.239   3.574   3.465 -0.0259 -0.7146 -0.4558
  151OSM   H14F16831   1.313   3.491   3.460  2.1528  0.9662  1.7595
  151OSM   H14G16832   1.138   3.542   3.498  0.6461 -2.3087  0.1575
  151OSM   C15F16833   1.280   3.696   3.558  0.6808  0.1446 -0.0933
  151OSM   H15F16834   1.266   3.677   3.667 -1.3528 -0.3449 -0.3921
  151OSM   H15G16835   1.210   3.781   3.545  0.4346  0.3523  2.2069
  151OSM   C16F16836   1.425   3.742   3.533  0.4166 -0.4988  0.1195
  151OSM   H16F16837   1.441   3.772   3.428  1.9530  0.5902  0.6316
  151OSM   H16G16838   1.481   3.647   3.545 -2.5158 -2.6514 -1.9704
  151OSM   C17F16839   1.478   3.837   3.634 -0.0765 -1.0349 -0.2717
  151OSM   H17F16840   1.401   3.914   3.656 -0.9506 -1.7708 -0.6972
  151OSM   H17G16841   1.559   3.894   3.583 -1.5650  0.7615 -0.7128
  151OSM   C18F16842   1.539   3.766   3.760 -0.2669 -0.0075 -0.0073
  151OSM   H18F16843   1.578   3.841   3.831 -0.0520 -1.3360  1.3192
  151OSM   H18G16844   1.620   3.697   3.727 -0.5131 -0.2117 -0.1909
  151OSM   H18H16845   1.472   3.705   3.824  0.4595  1.2032  1.9902
  152OSM      N16846   2.847   5.439   1.630  0.1657  0.3419 -0.1106
  152OSM    C1516847   2.757   5.331   1.676  0.1761  0.2951  0.2249
  152OSM   H15A16848   2.810   5.254   1.731  2.7064  0.3829 -1.8715
  152OSM   H15B16849   2.704   5.278   1.598  0.7657 -0.8238  0.5577
  152OSM   H15C16850   2.679   5.378   1.733 -1.4176  0.6824 -2.1286
  152OSM    C1416851   2.959   5.367   1.565  0.3102  0.0215  0.2299
  152OSM   H14A16852   2.921   5.297   1.492 -3.2491  0.6475  1.3189
  152OSM   H14B16853   3.015   5.317   1.643 -2.0105  0.1397  2.0912
  152OSM   H14C16854   3.027   5.428   1.506  0.0919  0.1479  0.1101
  152OSM    C1316855   2.776   5.515   1.528 -1.0390  0.0051  0.4555
  152OSM   H13A16856   2.836   5.594   1.487  1.7346 -3.0669 -1.9694
  152OSM   H13B16857   2.683   5.557   1.562 -2.1313 -1.3524 -0.7155
  152OSM   H13C16858   2.743   5.440   1.458  0.7522 -0.7069  0.3107
  152OSM    C1216859   2.892   5.533   1.738  0.7434 -0.3008 -0.6145
  152OSM   H12A16860   2.804   5.588   1.767  0.6766 -1.6685  2.0011
  152OSM   H12B16861   2.954   5.607   1.690 -0.8055  1.6845  0.3257
  152OSM    C1116862   2.975   5.495   1.856 -0.8149 -0.0630 -0.2487
  152OSM   H11A16863   2.926   5.417   1.917 -1.2006  0.7249  0.4701
  152OSM   H11B16864   2.982   5.574   1.934 -1.6051 -1.1385  0.9397
  152OSM      P16865   3.233   5.548   1.791 -0.1953 -0.2014 -0.8242
  152OSM    O1316866   3.324   5.487   1.698  0.2599 -0.1294  0.0764
  152OSM    O1416867   3.178   5.678   1.745  0.0498 -0.2325 -0.7760
  152OSM    O1116868   3.303   5.567   1.934  0.9534 -0.0379  0.4073
  152OSM    O1216869   3.109   5.452   1.820  0.1079 -0.5649  0.4879
  152OSM    C1S16870   3.221   5.592   2.044 -0.0611  0.3692  0.1189
  152OSM    H1S16871   3.188   5.497   2.090 -0.2551  0.0400 -0.6817
  152OSM    H1T16872   3.135   5.659   2.023  0.7786  0.8400 -2.0432
  152OSM     NF16873   3.209   5.684   2.276  0.0243 -0.3104  0.4000
  152OSM    HNF16874   3.151   5.765   2.282 -1.7658 -1.4688 -0.2670
  152OSM    C2S16875   3.301   5.672   2.160  0.5983  0.2413  0.4383
  152OSM    H2S16876   3.386   5.608   2.191 -0.9377 -0.0260  4.8556
  152OSM    C3S16877   3.352   5.807   2.109  0.4222 -0.8014 -0.2413
  152OSM    H3S16878   3.262   5.870   2.090  1.2981  0.0687 -1.6946
  152OSM     O316879   3.422   5.812   1.986 -0.4427  0.1949 -0.2498
  152OSM    HO316880   3.422   5.723   1.951 -0.7321  0.6313 -1.4181
  152OSM    C4S16881   3.440   5.880   2.218 -0.1447 -0.0352  0.1235
  152OSM    H4S16882   3.538   5.836   2.239  0.4835  1.2378  0.0021
  152OSM    C5S16883   3.418   5.996   2.280  0.0705 -0.6616  0.2294
  152OSM    H5S16884   3.328   6.053   2.252  0.3058  0.2597  1.2781
  152OSM    C6S16885   3.510   6.066   2.384 -0.2174  0.9758  0.3002
  152OSM    H6S16886   3.444   6.085   2.472 -1.2294 -1.2578  0.0928
  152OSM    H6T16887   3.542   6.163   2.340 -0.0336  0.8401  0.1330
  152OSM    C7S16888   3.637   5.986   2.434  0.6721 -0.0978 -0.1131
  152OSM    H7S16889   3.683   5.950   2.341 -0.7560 -0.6069 -0.6498
  152OSM    H7T16890   3.601   5.901   2.496 -0.5390 -0.0020 -0.6637
  152OSM    C8S16891   3.732   6.069   2.522  0.0501 -0.1605  0.2077
  152OSM    H8S16892   3.685   6.115   2.611 -0.5866 -0.8215  0.2146
  152OSM    H8T16893   3.766   6.151   2.455 -1.1836 -0.3410 -0.6595
  152OSM    C9S16894   3.857   5.999   2.560 -0.6071  0.3453 -0.0975
  152OSM    H9S16895   3.938   6.069   2.591 -0.4744  0.3733 -0.5065
  152OSM    H9T16896   3.890   5.950   2.466  0.6294  0.1272  0.4284
  152OSM   C10S16897   3.829   5.902   2.677 -0.0019  0.9565  0.0629
  152OSM   H10S16898   3.762   5.825   2.632  2.5675  0.0402 -2.4688
  152OSM   H10T16899   3.780   5.961   2.758 -0.5770  1.8240 -0.8897
  152OSM   C11S16900   3.951   5.825   2.732  0.0044  0.4158 -0.3349
  152OSM   H11S16901   4.028   5.898   2.763  0.9748  0.7921 -3.2928
  152OSM   H11T16902   4.007   5.778   2.648  0.5337 -0.2993  0.4103
  152OSM   C12S16903   3.916   5.742   2.850  0.0569 -0.7981 -0.3775
  152OSM   H12S16904   4.007   5.690   2.888  0.2774 -0.7113 -0.7739
  152OSM   H12T16905   3.839   5.667   2.822  0.1705 -0.9125 -0.3899
  152OSM   C13S16906   3.879   5.828   2.977  0.3966  0.7336  0.4218
  152OSM   H13S16907   3.773   5.856   2.962  0.3075 -0.8410 -2.4692
  152OSM   H13T16908   3.953   5.910   2.992  1.4459 -0.1925  0.4500
  152OSM   C14S16909   3.870   5.733   3.091 -0.4729 -0.4100 -0.4492
  152OSM   H14S16910   3.870   5.802   3.179 -0.7235 -2.4949  1.2837
  152OSM   H14T16911   3.959   5.671   3.119  0.2466  1.5680  2.1134
  152OSM   C15S16912   3.743   5.642   3.099 -0.0416  0.1897  0.2905
  152OSM   H15S16913   3.725   5.564   3.022  0.6738 -0.7216  1.0162
  152OSM   H15T16914   3.658   5.713   3.094  0.5511  1.2697  3.3784
  152OSM   C16S16915   3.736   5.568   3.236 -0.6035 -0.7271 -0.1587
  152OSM   H16S16916   3.734   5.635   3.325 -1.3542  2.0699 -2.1448
  152OSM   H16T16917   3.816   5.491   3.249  0.3908  0.1647 -0.7963
  152OSM   C17S16918   3.602   5.486   3.247  0.5414  0.4951 -0.1109
  152OSM   H17S16919   3.596   5.422   3.156 -0.5871  0.6635 -0.1668
  152OSM   H17T16920   3.519   5.560   3.249  0.2321  0.2097  3.7052
  152OSM   C18S16921   3.597   5.403   3.372  0.0934 -0.1329 -0.5080
  152OSM   H18S16922   3.613   5.470   3.459  1.6737 -0.5448 -0.4601
  152OSM   H18T16923   3.682   5.332   3.371 -1.2135 -2.0333  3.1492
  152OSM   H18U16924   3.500   5.349   3.383 -0.2957  0.9312  2.0389
  152OSM    C1F16925   3.178   5.577   2.352  0.3146 -0.0644 -0.5493
  152OSM     OF16926   3.240   5.476   2.344 -0.7236 -0.0279 -0.4076
  152OSM    C2F16927   3.070   5.601   2.454  0.2221  0.0011  0.0337
  152OSM    H2F16928   2.978   5.645   2.409 -0.5211 -1.5271 -0.0198
  152OSM    H2G16929   3.106   5.678   2.526 -1.6045  1.8395 -0.8842
  152OSM    C3F16930   3.032   5.480   2.542 -0.1803 -1.0393  0.0602
  152OSM    H3F16931   3.124   5.431   2.581  0.4371  1.1096  1.4858
  152OSM    H3G16932   2.994   5.412   2.463 -0.2284  1.2461 -1.9902
  152OSM    C4F16933   2.921   5.498   2.650 -0.7613  0.7846  0.1470
  152OSM    H4F16934   2.888   5.399   2.689  1.2514 -0.2064 -0.5267
  152OSM    H4G16935   2.834   5.540   2.595 -2.7383 -1.3733  1.4076
  152OSM    C5F16936   2.959   5.604   2.764 -0.3979 -0.3985  0.0873
  152OSM    H5F16937   2.859   5.644   2.793 -0.7612 -2.2081  1.5250
  152OSM    H5G16938   3.024   5.687   2.730 -1.6635  0.1055 -1.2461
  152OSM    C6F16939   3.022   5.548   2.883 -0.5488  0.1643 -0.6263
  152OSM    H6F16940   3.131   5.533   2.873 -0.7229 -1.1966 -0.7372
  152OSM    H6G16941   2.995   5.442   2.905  2.7464 -0.5762  0.3163
  152OSM    C7F16942   2.993   5.637   3.004  0.4438 -0.5577  0.4353
  152OSM    H7F16943   2.928   5.585   3.078  0.9912 -1.6352  0.1849
  152OSM    H7G16944   2.935   5.721   2.962 -0.3361 -0.7859  1.0288
  152OSM    C8F16945   3.117   5.697   3.078  0.3310 -0.0631 -0.5193
  152OSM    H8F16946   3.175   5.743   2.994  0.4762 -0.9371 -0.9142
  152OSM    H8G16947   3.188   5.624   3.123 -0.3019  0.3511  1.1906
  152OSM    C9F16948   3.081   5.797   3.186 -0.0266  0.5375  0.2392
  152OSM    H9F16949   2.993   5.858   3.161  0.4333  0.4450 -1.7804
  152OSM   C10F16950   3.150   5.825   3.298  0.0938  0.2493 -0.2440
  152OSM   H10F16951   3.106   5.886   3.378 -2.1050 -2.0377  0.3929
  152OSM   C11F16952   3.272   5.751   3.339 -0.3964 -0.1254  0.1767
  152OSM   H11F16953   3.335   5.752   3.247 -0.9983  0.1231 -0.2332
  152OSM   H11G16954   3.251   5.645   3.365  0.4949 -0.8793 -1.9069
  152OSM   C12F16955   3.349   5.815   3.454  0.4866 -0.0674 -0.9997
  152OSM   H12F16956   3.290   5.798   3.546 -1.2815  0.6707 -1.9604
  152OSM   H12G16957   3.349   5.926   3.446 -0.0568  0.0438  0.2779
  152OSM   C13F16958   3.492   5.764   3.473  0.2631 -0.4479  0.1418
  152OSM   H13F16959   3.552   5.795   3.385 -0.9398  1.6628  0.0021
  152OSM   H13G16960   3.475   5.654   3.475 -3.3823 -0.1349 -2.7812
  152OSM   C14F16961   3.572   5.810   3.598  0.3122 -0.2061  0.4332
  152OSM   H14F16962   3.509   5.803   3.689 -2.3847 -2.0225 -1.4363
  152OSM   H14G16963   3.603   5.915   3.580  0.2091 -0.2943 -0.2980
  152OSM   C15F16964   3.697   5.733   3.625 -0.3086 -0.4661 -0.7386
  152OSM   H15F16965   3.761   5.738   3.535  0.6364  1.7986 -0.0337
  152OSM   H15G16966   3.677   5.625   3.638 -2.0870  0.0467  1.7901
  152OSM   C16F16967   3.792   5.798   3.728  0.0226 -0.6123  0.1022
  152OSM   H16F16968   3.799   5.907   3.705  0.1021 -0.5404  0.4578
  152OSM   H16G16969   3.898   5.767   3.717  0.5247  0.9676  0.1599
  152OSM   C17F16970   3.752   5.778   3.876  0.1200 -0.1163  0.3077
  152OSM   H17F16971   3.644   5.798   3.885  0.0472 -1.2823  2.6187
  152OSM   H17G16972   3.804   5.847   3.946  0.2221  1.1044 -0.9301
  152OSM   C18F16973   3.754   5.631   3.922  0.1036  0.2372 -0.1837
  152OSM   H18F16974   3.856   5.593   3.944 -0.1807  0.6550  2.0462
  152OSM   H18G16975   3.713   5.561   3.846 -0.6857  1.1730 -0.6401
  152OSM   H18H16976   3.688   5.620   4.010  0.5255 -1.7311 -0.0459
  153OSM      N16977   1.740   5.331   1.631 -0.0143  0.3209  0.2811
  153OSM    C1516978   1.678   5.200   1.644 -0.8889  0.2643 -0.3955
  153OSM   H15A16979   1.590   5.207   1.707 -2.2454 -2.6190 -1.7895
  153OSM   H15B16980   1.749   5.132   1.688 -1.1495  0.9307  1.1333
  153OSM   H15C16981   1.656   5.160   1.546 -0.1934 -1.5614  0.1545
  153OSM    C1416982   1.836   5.335   1.511  0.5495  0.8378 -0.2307
  153OSM   H14A16983   1.785   5.310   1.419 -0.3996 -0.4914  0.6230
  153OSM   H14B16984   1.902   5.251   1.521 -1.2369 -0.7224 -0.8941
  153OSM   H14C16985   1.887   5.430   1.502  1.3186  0.3863 -0.6679
  153OSM    C1316986   1.632   5.429   1.611  0.2977  0.1363  0.1432
  153OSM   H13A16987   1.672   5.529   1.605  0.5650 -0.0563 -2.8541
  153OSM   H13B16988   1.564   5.435   1.694  2.6690 -1.5836  2.3664
  153OSM   H13C16989   1.576   5.405   1.521  0.6827  1.7105 -0.5524
  153OSM    C1216990   1.804   5.369   1.764 -0.0055 -0.6231  0.2743
  153OSM   H12A16991   1.723   5.381   1.835  1.0986  1.1813  1.3053
  153OSM   H12B16992   1.843   5.469   1.757  2.8149 -1.6186  0.6460
  153OSM    C1116993   1.920   5.279   1.822  1.3802 -0.3098  0.4184
  153OSM   H11A16994   1.880   5.178   1.844  1.8757 -0.7701 -0.7084
  153OSM   H11B16995   1.946   5.308   1.926 -0.4675 -0.2237  0.8912
  153OSM      P16996   2.135   5.371   1.710 -0.0288  0.0011  0.1664
  153OSM    O1316997   2.250   5.292   1.655  0.4844  0.0655 -0.1404
  153OSM    O1416998   2.081   5.469   1.619  0.8514 -0.1208  0.5154
  153OSM    O1116999   2.178   5.436   1.849 -0.7643  0.0546 -0.4539
  153OSM    O1217000   2.022   5.259   1.736 -0.3402  0.2949  0.3189
  153OSM    C1S17001   2.214   5.341   1.953  0.2696  0.6943  0.1884
  153OSM    H1S17002   2.320   5.314   1.939 -0.5158 -2.1058 -1.0754
  153OSM    H1T17003   2.162   5.243   1.954  0.5962  0.4605  3.3068
  153OSM     NF17004   2.249   5.287   2.206  0.1974 -0.1164 -0.0597
  153OSM    HNF17005   2.176   5.247   2.260  0.5111 -2.1058 -1.0094
  153OSM    C2S17006   2.206   5.390   2.104 -0.0985 -0.5206 -0.3623
  153OSM    H2S17007   2.287   5.466   2.111  0.2615 -0.6244 -2.7340
  153OSM    C3S17008   2.063   5.444   2.130  0.0344  0.2831 -0.5576
  153OSM    H3S17009   1.983   5.368   2.125 -2.9918  3.0238  2.1243
  153OSM     O317010   2.012   5.546   2.039  0.4459 -0.0936 -0.0459
  153OSM    HO317011   2.063   5.533   1.958  0.1115 -0.5293 -0.1868
  153OSM    C4S17012   2.054   5.495   2.275 -0.6959 -0.4436 -0.4438
  153OSM    H4S17013   2.130   5.556   2.326 -1.6823  0.2944  0.1689
  153OSM    C5S17014   1.947   5.464   2.347  0.1816 -0.1243 -0.2277
  153OSM    H5S17015   1.857   5.422   2.301  0.1280  0.4811 -0.6960
  153OSM    C6S17016   1.927   5.499   2.493  0.1005 -0.0757 -0.2426
  153OSM    H6S17017   1.827   5.480   2.538  0.5234  0.3744  0.9089
  153OSM    H6T17018   1.938   5.608   2.512  2.9117 -0.6160  1.6973
  153OSM    C7S17019   2.036   5.420   2.578  0.1175  0.0206 -0.4699
  153OSM    H7S17020   2.135   5.465   2.555  1.0744 -2.4786 -1.6320
  153OSM    H7T17021   2.049   5.318   2.536  0.5017  0.4984 -1.5451
  153OSM    C8S17022   2.021   5.424   2.726  0.3390  0.1709  0.3947
  153OSM    H8S17023   1.924   5.372   2.739  1.1090 -1.3200  0.3120
  153OSM    H8T17024   2.004   5.527   2.766 -0.3310  0.2618 -0.1136
  153OSM    C9S17025   2.127   5.334   2.801  0.5494 -0.6293  0.7286
  153OSM    H9S17026   2.229   5.371   2.781  0.4796 -1.7613 -2.1996
  153OSM    H9T17027   2.120   5.235   2.751 -2.0783  0.7572 -1.9810
  153OSM   C10S17028   2.104   5.326   2.953  0.5772 -1.1561  0.5248
  153OSM   H10S17029   2.139   5.225   2.986  0.2438 -1.5263 -0.2298
  153OSM   H10T17030   1.997   5.333   2.984  1.1076  0.9054  2.0936
  153OSM   C11S17031   2.169   5.441   3.033  1.2567 -0.6963 -0.5919
  153OSM   H11S17032   2.097   5.525   3.024  1.5100 -0.4493 -0.3549
  153OSM   H11T17033   2.272   5.466   2.998  0.7253  2.4938 -0.1946
  153OSM   C12S17034   2.192   5.416   3.186  0.5258  0.2249  0.2317
  153OSM   H12S17035   2.252   5.325   3.206 -0.7610 -0.2940  2.0409
  153OSM   H12T17036   2.088   5.394   3.218 -0.0957  0.3213 -1.5725
  153OSM   C13S17037   2.248   5.533   3.268  0.2669  0.5895  0.5847
  153OSM   H13S17038   2.341   5.558   3.213  0.1725 -1.7386 -0.7547
  153OSM   H13T17039   2.264   5.493   3.371 -2.3765 -0.5668  0.6307
  153OSM   C14S17040   2.147   5.649   3.267 -0.1680 -0.1937 -0.7108
  153OSM   H14S17041   2.048   5.604   3.291 -0.9601  0.8112 -1.9428
  153OSM   H14T17042   2.127   5.693   3.166  0.6040  0.2202 -0.6879
  153OSM   C15S17043   2.191   5.759   3.365 -0.0873 -0.1836 -0.3529
  153OSM   H15S17044   2.274   5.815   3.316 -1.3227  1.3627 -0.7744
  153OSM   H15T17045   2.213   5.703   3.458 -2.0773  2.1239  1.6708
  153OSM   C16S17046   2.086   5.866   3.392  0.0791  0.4452  0.0200
  153OSM   H16S17047   1.987   5.821   3.414 -0.2685 -0.2448 -2.6542
  153OSM   H16T17048   2.074   5.910   3.291 -0.9180  4.0579  1.5640
  153OSM   C17S17049   2.117   5.978   3.489 -0.4826  0.9238  0.3174
  153OSM   H17S17050   2.122   5.938   3.592 -1.9861  0.8847  0.3994
  153OSM   H17T17051   2.031   6.047   3.478 -0.8427  0.1923 -1.9560
  153OSM   C18S17052   2.245   6.066   3.465 -0.1732  0.4989 -0.2582
  153OSM   H18S17053   2.244   6.161   3.523  0.5049 -1.2371  2.8512
  153OSM   H18T17054   2.256   6.074   3.355 -0.2881 -0.6737 -0.3695
  153OSM   H18U17055   2.326   6.008   3.515  0.4958 -0.0845 -1.9372
  153OSM    C1F17056   2.375   5.245   2.213  0.8227  0.7299 -0.4056
  153OSM     OF17057   2.459   5.270   2.130  0.3122 -0.2546 -0.0727
  153OSM    C2F17058   2.396   5.166   2.331 -0.5451  0.3909  0.3631
  153OSM    H2F17059   2.330   5.078   2.319 -2.1677  1.4017  1.4016
  153OSM    H2G17060   2.365   5.223   2.421  0.7398  0.0454  1.0592
  153OSM    C3F17061   2.544   5.120   2.350 -0.4429  0.5297  0.4035
  153OSM    H3F17062   2.603   5.214   2.361 -0.3026  0.4399  0.4169
  153OSM    H3G17063   2.590   5.059   2.270  0.0205 -0.5072  1.4371
  153OSM    C4F17064   2.566   5.067   2.493 -0.1422 -0.4322  0.0935
  153OSM    H4F17065   2.672   5.038   2.505 -0.0601 -0.2312 -0.1338
  153OSM    H4G17066   2.512   4.970   2.496  0.5281 -0.7991  1.1674
  153OSM    C5F17067   2.517   5.155   2.610 -0.3799  0.3475 -0.0075
  153OSM    H5F17068   2.406   5.146   2.615 -0.4304 -0.7793 -1.9408
  153OSM    H5G17069   2.551   5.259   2.595  0.7680  0.0892  0.7221
  153OSM    C6F17070   2.574   5.112   2.752 -1.1295  0.0060 -0.5163
  153OSM    H6F17071   2.685   5.106   2.751 -1.1704 -0.8227 -0.3700
  153OSM    H6G17072   2.532   5.011   2.770 -1.4886  0.1650 -0.4736
  153OSM    C7F17073   2.532   5.210   2.860  0.7746 -0.0573 -0.3344
  153OSM    H7F17074   2.421   5.208   2.855  0.6366  1.2963  1.2853
  153OSM    H7G17075   2.573   5.312   2.840  0.4704  0.5074  1.7172
  153OSM    C8F17076   2.573   5.156   2.997 -0.1462  0.0264  0.3343
  153OSM    H8F17077   2.682   5.139   2.989 -0.4115 -1.3243 -0.8696
  153OSM    H8G17078   2.535   5.054   3.017  1.0787 -0.0938  2.3666
  153OSM    C9F17079   2.526   5.231   3.119 -0.3177  0.2974  0.1853
  153OSM    H9F17080   2.420   5.214   3.139 -0.2295 -1.5414 -0.6711
  153OSM   C10F17081   2.595   5.286   3.223 -0.0377  0.3593  0.2764
  153OSM   H10F17082   2.537   5.325   3.307 -0.0864 -0.3565  0.5834
  153OSM   C11F17083   2.748   5.287   3.226  0.0277 -0.0690  0.9022
  153OSM   H11F17084   2.785   5.307   3.123  2.4336 -0.3384  1.6613
  153OSM   H11G17085   2.800   5.198   3.266  1.4633 -0.4478 -1.5928
  153OSM   C12F17086   2.807   5.398   3.317  0.3935 -0.1976  0.2595
  153OSM   H12F17087   2.764   5.390   3.419 -0.3985 -0.0315 -0.0559
  153OSM   H12G17088   2.772   5.490   3.265  3.4909 -0.6900 -3.1927
  153OSM   C13F17089   2.965   5.404   3.342  0.1900  0.7632  0.1578
  153OSM   H13F17090   3.006   5.453   3.252 -0.4304  0.0741 -0.5163
  153OSM   H13G17091   3.001   5.300   3.356  0.9321  1.0837  0.7081
  153OSM   C14F17092   2.994   5.496   3.462 -0.2448  0.5819 -0.2228
  153OSM   H14F17093   2.926   5.472   3.547  2.7993 -0.0029  2.2438
  153OSM   H14G17094   3.001   5.607   3.451  0.1348  0.6004  0.1506
  153OSM   C15F17095   3.132   5.454   3.520  0.3477  0.1848  0.3545
  153OSM   H15F17096   3.220   5.459   3.453  0.8339  0.4664  1.0058
  153OSM   H15G17097   3.124   5.346   3.546  1.2800  0.3537  1.4190
  153OSM   C16F17098   3.160   5.531   3.651  0.2524 -0.1534  0.5888
  153OSM   H16F17099   3.069   5.519   3.713 -0.2671  3.9217  0.8599
  153OSM   H16G17100   3.164   5.640   3.632 -1.1247 -0.1182  0.4210
  153OSM   C17F17101   3.290   5.487   3.721  0.1478  0.1261 -0.4613
  153OSM   H17F17102   3.377   5.528   3.665 -0.3974  3.3782  0.8271
  153OSM   H17G17103   3.289   5.376   3.719 -0.8906  0.0466  1.6591
  153OSM   C18F17104   3.307   5.536   3.868 -0.3860  0.2301 -0.3020
  153OSM   H18F17105   3.391   5.480   3.915  0.7158  1.9670 -0.1161
  153OSM   H18G17106   3.223   5.526   3.941  0.6629  2.5841  1.3820
  153OSM   H18H17107   3.329   5.645   3.866 -0.4439  0.2471 -0.0408
  154OSM      N17108   1.203   4.859   1.702 -0.1736 -0.6939  0.2338
  154OSM    C1517109   1.076   4.926   1.661 -0.3066  0.6856  0.4654
  154OSM   H15A17110   1.092   4.988   1.573 -0.5143 -1.1211 -0.8914
  154OSM   H15B17111   1.031   4.982   1.742 -2.0992 -2.6123  1.9209
  154OSM   H15C17112   1.011   4.847   1.628 -1.2372  1.7094 -0.2245
  154OSM    C1417113   1.255   4.776   1.586  0.0120 -0.9460  0.1308
  154OSM   H14A17114   1.360   4.750   1.582  0.4353  0.7321 -0.9484
  154OSM   H14B17115   1.238   4.850   1.509 -0.7692  1.5726  2.5614
  154OSM   H14C17116   1.188   4.693   1.570 -1.9535  0.5204  0.3562
  154OSM    C1317117   1.316   4.954   1.740  0.8542  0.1221  0.5018
  154OSM   H13A17118   1.343   5.004   1.648 -1.5704  1.1357  0.2565
  154OSM   H13B17119   1.400   4.896   1.773 -0.2876 -2.1079 -0.3086
  154OSM   H13C17120   1.281   5.033   1.805 -0.1488  0.2025 -0.1164
  154OSM    C1217121   1.179   4.771   1.822  0.2147  0.1495 -0.9126
  154OSM   H12A17122   1.140   4.831   1.903 -1.3632  1.0305 -2.2712
  154OSM   H12B17123   1.274   4.734   1.858  0.4678 -0.9307 -2.5789
  154OSM    C1117124   1.086   4.648   1.802  0.2800 -0.5283 -0.8158
  154OSM   H11A17125   0.981   4.681   1.784  0.3913 -0.4411 -1.3023
  154OSM   H11B17126   1.077   4.605   1.904  1.6303  0.9228 -0.0517
  154OSM      P17127   1.033   4.439   1.655 -0.3279  0.0326  0.0828
  154OSM    O1317128   0.904   4.499   1.616 -0.3583 -0.1995 -0.0287
  154OSM    O1417129   1.109   4.364   1.549  0.7397 -0.3878 -0.0289
  154OSM    O1117130   1.008   4.346   1.782 -0.3499 -0.1210  0.2956
  154OSM    O1217131   1.125   4.552   1.707 -0.3798  0.3721  0.4999
  154OSM    C1S17132   1.108   4.247   1.831 -0.0873  0.3105 -0.3405
  154OSM    H1S17133   1.196   4.221   1.768  0.2993  0.1577  0.2567
  154OSM    H1T17134   1.042   4.159   1.846 -2.0625  1.3790 -2.1795
  154OSM     NF17135   1.254   4.187   2.028  0.1330  0.1270  0.3669
  154OSM    HNF17136   1.233   4.105   2.082  1.7321 -0.1924  0.5506
  154OSM    C2S17137   1.160   4.283   1.976  0.6365 -0.3478 -0.0484
  154OSM    H2S17138   1.202   4.385   1.961 -0.8331  0.4736  1.1681
  154OSM    C3S17139   1.046   4.318   2.081 -0.2959  0.7499 -0.4004
  154OSM    H3S17140   0.996   4.223   2.110 -0.4801  0.6813 -0.9186
  154OSM     O317141   0.940   4.397   2.032  0.1656  0.2026 -0.3564
  154OSM    HO317142   0.954   4.382   1.938 -2.4433 -2.5150 -0.4389
  154OSM    C4S17143   1.107   4.376   2.206  0.2184 -0.2816  0.5685
  154OSM    H4S17144   1.132   4.297   2.278 -0.1612 -0.0115  1.0073
  154OSM    C5S17145   1.131   4.504   2.256 -0.6985 -0.1401  0.3573
  154OSM    H5S17146   1.120   4.592   2.191  2.1391  1.2065  1.5223
  154OSM    C6S17147   1.197   4.516   2.395  0.4026  0.5000 -0.0889
  154OSM    H6S17148   1.259   4.608   2.398  2.6071 -0.9308  1.7353
  154OSM    H6T17149   1.264   4.432   2.421 -0.6188  0.2446  1.9599
  154OSM    C7S17150   1.094   4.528   2.513 -0.1754  0.2358  0.1477
  154OSM    H7S17151   1.028   4.439   2.507 -2.3012  1.8153 -2.9295
  154OSM    H7T17152   1.026   4.615   2.498  0.0096  0.1285 -1.3986
  154OSM    C8S17153   1.168   4.544   2.646  0.1547 -0.3074  0.0836
  154OSM    H8S17154   1.243   4.625   2.633  0.6816 -0.6559  0.8736
  154OSM    H8T17155   1.229   4.454   2.668  1.8721  0.8495  0.1872
  154OSM    C9S17156   1.077   4.573   2.767 -0.1758 -0.1146  0.1388
  154OSM    H9S17157   1.032   4.474   2.789 -0.5665  0.2131  0.8521
  154OSM    H9T17158   0.999   4.639   2.722  1.8767  1.0262 -1.9555
  154OSM   C10S17159   1.151   4.628   2.884  0.2180 -0.8239 -0.1905
  154OSM   H10S17160   1.196   4.724   2.849  1.8419 -1.7442 -0.7739
  154OSM   H10T17161   1.249   4.586   2.918  1.5694  1.9112 -0.4422
  154OSM   C11S17162   1.068   4.635   3.013 -0.4361  0.2434 -0.2764
  154OSM   H11S17163   0.961   4.645   2.986 -0.3028  1.1742 -0.4872
  154OSM   H11T17164   1.091   4.732   3.062  1.2019  0.7650 -1.9460
  154OSM   C12S17165   1.071   4.522   3.119 -0.2365  0.1035 -1.3328
  154OSM   H12S17166   1.168   4.483   3.155 -1.0771 -0.2736  0.7293
  154OSM   H12T17167   1.017   4.432   3.080  0.9245 -1.0944 -0.2932
  154OSM   C13S17168   0.994   4.567   3.248 -0.4984 -0.7733  0.5446
  154OSM   H13S17169   0.886   4.578   3.223 -0.3427  1.2711  0.5990
  154OSM   H13T17170   1.027   4.663   3.293  0.9953 -0.6743 -0.6945
  154OSM   C14S17171   0.999   4.459   3.356 -0.0729  0.0754 -0.2361
  154OSM   H14S17172   1.106   4.438   3.379 -0.1290 -0.3771 -0.3947
  154OSM   H14T17173   0.947   4.370   3.316  0.2719 -0.0752 -0.3564
  154OSM   C15S17174   0.932   4.497   3.493 -0.3187 -0.2837  0.6532
  154OSM   H15S17175   0.971   4.601   3.502  0.7274 -0.6173  0.1766
  154OSM   H15T17176   0.976   4.436   3.574 -0.2808  0.7684  1.4541
  154OSM   C16S17177   0.773   4.499   3.479 -0.3237  0.4812 -0.0530
  154OSM   H16S17178   0.738   4.404   3.434 -0.4164 -0.2818  1.5539
  154OSM   H16T17179   0.747   4.583   3.412 -1.0629  0.0274 -0.3462
  154OSM   C17S17180   0.699   4.530   3.608 -0.5441 -0.4745  0.7710
  154OSM   H17S17181   0.592   4.541   3.579 -0.8164  0.8829  2.1234
  154OSM   H17T17182   0.733   4.621   3.663  0.7738 -1.4825  1.6723
  154OSM   C18S17183   0.733   4.420   3.709  0.8963  0.3475 -0.4717
  154OSM   H18S17184   0.835   4.440   3.749  1.5444 -1.4229 -1.1679
  154OSM   H18T17185   0.723   4.314   3.677  0.4519 -0.1182  1.1134
  154OSM   H18U17186   0.656   4.423   3.790 -0.7064 -3.1633 -1.6507
  154OSM    C1F17187   1.378   4.171   1.977 -0.7833 -0.3656  0.3841
  154OSM     OF17188   1.422   4.248   1.893  0.0031  0.3415 -0.3564
  154OSM    C2F17189   1.462   4.049   2.016 -1.2190 -1.0231  0.1965
  154OSM    H2F17190   1.466   3.978   1.931  0.7672 -0.7945  0.0594
  154OSM    H2G17191   1.419   3.984   2.095 -0.0904 -0.9425  0.9104
  154OSM    C3F17192   1.615   4.078   2.053  0.5604 -0.6547 -0.0361
  154OSM    H3F17193   1.669   4.125   1.968 -0.6320 -3.0861 -2.2646
  154OSM    H3G17194   1.663   3.980   2.076  1.4464 -0.5129 -1.1719
  154OSM    C4F17195   1.629   4.163   2.181  0.5254  0.0593 -0.5711
  154OSM    H4F17196   1.586   4.264   2.163  0.2120 -0.1847 -1.2262
  154OSM    H4G17197   1.736   4.180   2.208  0.3362  0.4339 -0.0397
  154OSM    C5F17198   1.563   4.099   2.311  0.1813  0.8821 -1.2298
  154OSM    H5F17199   1.615   4.007   2.344  2.3643  0.9695 -4.0160
  154OSM    H5G17200   1.455   4.085   2.287  0.5165 -0.6967 -1.9480
  154OSM    C6F17201   1.555   4.194   2.436 -0.5972  0.0177  0.0559
  154OSM    H6F17202   1.513   4.294   2.412  1.8643  1.7848  2.4037
  154OSM    H6G17203   1.659   4.206   2.475  0.5905 -2.0876 -2.1849
  154OSM    C7F17204   1.453   4.151   2.541  0.2091  0.8247 -0.9830
  154OSM    H7F17205   1.497   4.056   2.578 -1.8909  0.4076  0.6579
  154OSM    H7G17206   1.354   4.133   2.494  0.5119 -0.7024 -1.0720
  154OSM    C8F17207   1.439   4.265   2.642  0.2341 -0.3779 -0.1729
  154OSM    H8F17208   1.353   4.244   2.710  1.0276 -0.0349  0.9731
  154OSM    H8G17209   1.406   4.357   2.590  0.0721  0.3642  1.1895
  154OSM    C9F17210   1.566   4.299   2.722  0.4926 -0.2424  0.4846
  154OSM    H9F17211   1.651   4.331   2.660  2.0614 -3.9471  0.4529
  154OSM   C10F17212   1.592   4.275   2.855 -1.1060  0.1198 -0.7122
  154OSM   H10F17213   1.681   4.324   2.898 -1.1593 -0.4615  0.0891
  154OSM   C11F17214   1.497   4.218   2.958 -0.2296 -0.1979  0.2127
  154OSM   H11F17215   1.558   4.136   3.002  0.4065 -0.4409 -1.0485
  154OSM   H11G17216   1.412   4.164   2.911 -0.2669 -0.3903  0.4950
  154OSM   C12F17217   1.454   4.322   3.060 -0.4819 -0.3078  0.1337
  154OSM   H12F17218   1.379   4.380   3.001 -0.3041 -0.7639 -0.5520
  154OSM   H12G17219   1.546   4.377   3.088 -1.9630  0.4547  4.1755
  154OSM   C13F17220   1.393   4.266   3.184 -0.4922  0.6025  0.3220
  154OSM   H13F17221   1.367   4.358   3.241  1.4284  1.8400 -0.7047
  154OSM   H13G17222   1.476   4.225   3.246  0.0961  1.4993  0.1371
  154OSM   C14F17223   1.278   4.172   3.176  0.9106  0.2357  0.2354
  154OSM   H14F17224   1.311   4.074   3.136 -0.8259 -1.4147  2.5555
  154OSM   H14G17225   1.205   4.228   3.114  0.6609  0.5768  0.8282
  154OSM   C15F17226   1.226   4.146   3.313 -0.4918  0.0292 -0.1251
  154OSM   H15F17227   1.228   4.242   3.370 -1.7692 -0.5861  1.0360
  154OSM   H15G17228   1.292   4.074   3.366 -0.9023  0.0725  0.4626
  154OSM   C16F17229   1.087   4.083   3.326  0.2677  0.7286  0.1473
  154OSM   H16F17230   1.094   3.975   3.302 -0.7551  0.3445  1.4025
  154OSM   H16G17231   1.016   4.130   3.255  0.3403  1.3668  0.4897
  154OSM   C17F17232   1.020   4.092   3.469 -0.4184  0.4726 -0.6611
  154OSM   H17F17233   1.000   4.200   3.488 -2.3415  0.3294 -1.6111
  154OSM   H17G17234   1.092   4.052   3.543 -0.5221  1.4682  0.0095
  154OSM   C18F17235   0.892   4.014   3.479  0.3193  0.0726  0.1479
  154OSM   H18F17236   0.822   4.035   3.395 -2.2806 -1.5739  1.7328
  154OSM   H18G17237   0.856   4.046   3.579 -1.0692 -2.1675  0.4457
  154OSM   H18H17238   0.898   3.903   3.482 -0.4757 -0.0755 -1.9948
  155OSM      N17239   1.840   1.170   1.409 -0.3141 -0.3951 -0.0023
  155OSM    C1517240   1.763   1.296   1.438 -0.0252 -0.4641  0.5592
  155OSM   H15A17241   1.709   1.330   1.351 -0.1568 -0.7284  0.5348
  155OSM   H15B17242   1.825   1.373   1.481 -2.1362  1.5667  0.1635
  155OSM   H15C17243   1.689   1.278   1.515 -1.4206 -0.9098 -0.8239
  155OSM    C1417244   1.755   1.076   1.338  0.3589  1.1400 -0.0768
  155OSM   H14A17245   1.742   1.103   1.234  2.2814  1.4332 -0.2800
  155OSM   H14B17246   1.656   1.071   1.382  0.5578  0.7978  0.3374
  155OSM   H14C17247   1.783   0.973   1.353  0.1262  1.1474  0.4595
  155OSM    C1317248   1.953   1.213   1.320  0.4685  0.1612  0.6561
  155OSM   H13A17249   1.917   1.272   1.237 -0.6801 -0.8470  0.4093
  155OSM   H13B17250   1.981   1.118   1.278 -0.0184  0.7168 -1.0042
  155OSM   H13C17251   2.034   1.258   1.375  0.9885 -0.6113  0.5437
  155OSM    C1217252   1.879   1.105   1.541 -0.1255 -0.2113  0.2090
  155OSM   H12A17253   1.953   1.165   1.593  0.4402 -0.4863 -0.2708
  155OSM   H12B17254   1.926   1.010   1.519 -0.7958 -0.3742 -0.5518
  155OSM    C1117255   1.768   1.075   1.642  0.2644  0.2242 -1.6069
  155OSM   H11A17256   1.811   1.020   1.729 -2.2242  0.8221  0.0850
  155OSM   H11B17257   1.702   0.996   1.600 -0.6677 -2.0938  3.3989
  155OSM      P17258   1.731   1.302   1.788 -0.0544 -0.2852  0.4365
  155OSM    O1317259   1.755   1.433   1.723  0.4468  0.3205  0.1391
  155OSM    O1417260   1.632   1.298   1.897 -0.0736  0.5412 -0.1884
  155OSM    O1117261   1.866   1.240   1.841 -0.6937 -0.2000  0.2847
  155OSM    O1217262   1.689   1.189   1.678 -0.2228 -0.1326 -0.0684
  155OSM    C1S17263   1.963   1.327   1.907  0.0795 -0.2927 -0.0903
  155OSM    H1S17264   1.951   1.435   1.884 -0.0877 -0.0521  1.0453
  155OSM    H1T17265   2.069   1.316   1.876  0.6284  1.4399  1.0300
  155OSM     NF17266   2.026   1.426   2.122 -0.1810 -0.1956  0.2481
  155OSM    HNF17267   2.121   1.400   2.139  1.1734  2.3494 -2.5556
  155OSM    C2S17268   1.954   1.311   2.064  0.5260 -0.2715  0.0952
  155OSM    H2S17269   1.848   1.328   2.093  1.0535 -1.5724  3.2018
  155OSM    C3S17270   1.995   1.169   2.127 -0.1618 -0.1887 -0.0307
  155OSM    H3S17271   2.105   1.161   2.127 -0.0191  0.5909 -2.8516
  155OSM     O317272   1.956   1.069   2.037  0.0783  0.1691  0.5405
  155OSM    HO317273   1.946   1.117   1.955  3.7374 -1.6408 -1.2311
  155OSM    C4S17274   1.926   1.152   2.262  0.2655 -0.7258  0.3663
  155OSM    H4S17275   1.818   1.129   2.261 -0.2121  1.2452  0.5959
  155OSM    C5S17276   1.991   1.162   2.383  0.3658  0.4503  0.3902
  155OSM    H5S17277   2.095   1.198   2.390  0.1860  0.9550  0.4289
  155OSM    C6S17278   1.927   1.143   2.514  0.0788  0.0194  0.0274
  155OSM    H6S17279   1.969   1.225   2.575 -0.3047  1.0349 -1.0325
  155OSM    H6T17280   1.969   1.051   2.561  1.2037  1.5879  2.2905
  155OSM    C7S17281   1.774   1.151   2.521 -0.0859 -0.9517 -0.9089
  155OSM    H7S17282   1.733   1.071   2.455  0.2276 -0.2510 -1.9892
  155OSM    H7T17283   1.740   1.250   2.482  1.2190  0.2053  0.7415
  155OSM    C8S17284   1.714   1.158   2.664  0.8222 -0.0389  0.2226
  155OSM    H8S17285   1.603   1.164   2.665  0.8361  2.9391 -1.7548
  155OSM    H8T17286   1.740   1.258   2.705 -0.3525 -0.0771  1.1160
  155OSM    C9S17287   1.759   1.058   2.764 -0.0782 -0.1977  0.2386
  155OSM    H9S17288   1.862   1.018   2.749  0.5872  1.7239 -0.6422
  155OSM    H9T17289   1.698   0.969   2.739 -1.6951  0.7536  0.6143
  155OSM   C10S17290   1.725   1.098   2.910 -0.2513 -0.3232  0.9836
  155OSM   H10S17291   1.616   1.087   2.932 -0.4215 -2.3589 -0.5621
  155OSM   H10T17292   1.762   1.201   2.926 -2.5001  1.1340 -2.1493
  155OSM   C11S17293   1.792   1.003   3.012  0.0346 -0.5495  0.0944
  155OSM   H11S17294   1.899   0.999   2.982 -0.2502 -1.0841 -0.9030
  155OSM   H11T17295   1.751   0.900   3.008 -1.2265 -0.1279  1.4025
  155OSM   C12S17296   1.764   1.052   3.157  0.7137  0.1754 -0.8054
  155OSM   H12S17297   1.665   1.013   3.191  1.0579  0.5464  0.7135
  155OSM   H12T17298   1.748   1.162   3.157 -1.3942 -0.0108  1.7857
  155OSM   C13S17299   1.875   1.010   3.262 -1.0599  0.5541 -0.4966
  155OSM   H13S17300   1.968   1.059   3.227 -1.3337  1.2194 -0.3157
  155OSM   H13T17301   1.889   0.900   3.266  0.0365  0.6468 -1.3173
  155OSM   C14S17302   1.844   1.050   3.408  0.0056  0.3189 -0.8628
  155OSM   H14S17303   1.808   1.155   3.411  1.4979  0.8402  0.9918
  155OSM   H14T17304   1.939   1.036   3.464  0.1804 -1.0215 -1.4539
  155OSM   C15S17305   1.735   0.969   3.477 -0.4286 -0.4570 -0.4227
  155OSM   H15S17306   1.751   0.859   3.472  1.8127 -0.2930  1.4910
  155OSM   H15T17307   1.637   0.988   3.428 -1.8133 -0.9706  1.9733
  155OSM   C16S17308   1.728   0.995   3.633 -0.2202  0.2391  0.2315
  155OSM   H16S17309   1.727   1.104   3.652  0.8568  0.0616  1.4491
  155OSM   H16T17310   1.829   0.977   3.676  0.2737  2.2560 -0.0037
  155OSM   C17S17311   1.631   0.912   3.713 -0.0182 -0.6462  0.7210
  155OSM   H17S17312   1.531   0.949   3.684  0.5140 -1.0481 -1.8820
  155OSM   H17T17313   1.654   0.941   3.818 -0.4232 -1.5212  1.0583
  155OSM   C18S17314   1.639   0.759   3.692 -0.3302 -0.0180 -0.5799
  155OSM   H18S17315   1.613   0.737   3.586 -1.3887  0.8272 -0.5235
  155OSM   H18T17316   1.583   0.701   3.768  0.9600  0.3723  0.7099
  155OSM   H18U17317   1.744   0.726   3.706 -0.9558 -0.5329  5.3281
  155OSM    C1F17318   1.996   1.558   2.110  0.2691  0.2732 -0.0279
  155OSM     OF17319   1.897   1.596   2.051  0.0293  0.3207 -0.3786
  155OSM    C2F17320   2.097   1.650   2.174  0.3787  0.0333  0.1319
  155OSM    H2F17321   2.157   1.699   2.094  3.1662 -1.5012  1.1867
  155OSM    H2G17322   2.162   1.586   2.237  2.3093  2.0115  0.2383
  155OSM    C3F17323   2.027   1.765   2.245 -0.4978  0.0540 -0.1543
  155OSM    H3F17324   1.946   1.721   2.307 -0.0157 -1.1313 -0.3208
  155OSM    H3G17325   1.978   1.844   2.184 -1.0976 -0.3233 -0.1691
  155OSM    C4F17326   2.116   1.829   2.354  0.2650 -0.2900  0.4523
  155OSM    H4F17327   2.138   1.934   2.325  0.5581  0.2999  2.6073
  155OSM    H4G17328   2.213   1.775   2.355  1.4884  1.7945 -0.5496
  155OSM    C5F17329   2.065   1.826   2.498  0.3649  0.0071 -0.6792
  155OSM    H5F17330   2.052   1.718   2.521  1.6312  0.1142  0.7027
  155OSM    H5G17331   1.968   1.880   2.504  1.1052  1.2891  0.3293
  155OSM    C6F17332   2.158   1.880   2.596  0.3348 -0.1493  0.3765
  155OSM    H6F17333   2.171   1.990   2.587 -0.8991  0.0781  1.1300
  155OSM    H6G17334   2.257   1.833   2.581 -0.0459 -0.8349 -0.0570
  155OSM    C7F17335   2.128   1.835   2.743 -0.4940 -0.0240  0.1226
  155OSM    H7F17336   2.195   1.751   2.772  1.2119  1.2705  0.0807
  155OSM    H7G17337   2.023   1.800   2.734 -0.1713 -0.9217 -0.3615
  155OSM    C8F17338   2.146   1.954   2.836 -0.0446  0.0726 -0.3044
  155OSM    H8F17339   2.214   2.024   2.784  1.8523 -1.9593 -0.7411
  155OSM    H8G17340   2.199   1.914   2.925 -0.1862 -1.6889 -0.9559
  155OSM    C9F17341   2.015   2.014   2.885  0.1418 -0.4921  0.5641
  155OSM    H9F17342   1.960   2.062   2.802 -2.8000 -2.4177  1.2657
  155OSM   C10F17343   1.954   2.005   2.997 -0.2067 -0.4762  0.1349
  155OSM   H10F17344   1.866   2.070   3.009  0.1323  0.4062 -1.6981
  155OSM   C11F17345   1.986   1.925   3.123 -0.6917 -0.2786 -0.0402
  155OSM   H11F17346   2.066   1.850   3.105 -0.1000  0.0715  1.0369
  155OSM   H11G17347   1.896   1.875   3.166 -0.7226  0.4546  0.7819
  155OSM   C12F17348   2.054   2.019   3.225 -0.1647  1.0590 -0.2742
  155OSM   H12F17349   1.968   2.073   3.271 -1.9761 -1.8863  0.1126
  155OSM   H12G17350   2.129   2.082   3.175  1.5255  0.4472  1.3765
  155OSM   C13F17351   2.133   1.937   3.326  0.8942  0.3751 -0.7579
  155OSM   H13F17352   2.213   2.006   3.361  0.3263  0.4978  0.3639
  155OSM   H13G17353   2.194   1.857   3.277 -1.0915 -2.6236  1.2862
  155OSM   C14F17354   2.046   1.871   3.432 -0.1387  0.1023 -0.2659
  155OSM   H14F17355   1.995   1.781   3.392 -1.7516  0.1934  1.4582
  155OSM   H14G17356   1.960   1.937   3.454  0.2546  1.0978 -1.6050
  155OSM   C15F17357   2.131   1.852   3.567  0.2487 -0.3079 -0.0561
  155OSM   H15F17358   2.230   1.809   3.541 -0.1275 -2.0397  1.2009
  155OSM   H15G17359   2.074   1.785   3.634  0.1622  1.2026  1.4450
  155OSM   C16F17360   2.153   1.980   3.653  0.4550  0.5693  0.5404
  155OSM   H16F17361   2.058   2.035   3.672  0.4661  0.5910  0.5346
  155OSM   H16G17362   2.216   2.056   3.602  0.4390  2.3972  3.0142
  155OSM   C17F17363   2.228   1.951   3.790  1.0110 -0.5234 -0.4526
  155OSM   H17F17364   2.255   2.052   3.826  0.5381 -0.1882 -1.0207
  155OSM   H17G17365   2.315   1.892   3.756  0.8395 -0.5930 -0.7706
  155OSM   C18F17366   2.134   1.871   3.887  0.7518  0.8784 -0.4865
  155OSM   H18F17367   2.042   1.921   3.927 -0.6804 -3.0071  1.5397
  155OSM   H18G17368   2.194   1.831   3.971  3.2114 -0.3842 -2.7198
  155OSM   H18H17369   2.094   1.783   3.833 -1.1969  1.3561  0.0747
  156OSM      N17370   4.838   6.104   1.422  0.0581  0.2413  0.2082
  156OSM    C1517371   4.696   6.063   1.454 -0.4654 -0.3077 -0.5849
  156OSM   H15A17372   4.664   6.001   1.371 -0.3208  1.1142 -1.7529
  156OSM   H15B17373   4.633   6.151   1.465 -0.2554 -0.4089  1.8559
  156OSM   H15C17374   4.698   6.010   1.548 -0.0470 -0.5314 -0.7179
  156OSM    C1417375   4.846   6.157   1.280  0.2577  0.0460 -0.5584
  156OSM   H14A17376   4.766   6.229   1.276 -1.8280 -2.0381  1.0090
  156OSM   H14B17377   4.818   6.081   1.208  0.3379  0.5078 -1.0817
  156OSM   H14C17378   4.944   6.200   1.267  0.7803 -0.5841  1.0044
  156OSM    C1317379   4.880   6.215   1.517  0.3177  0.3032 -0.1971
  156OSM   H13A17380   4.828   6.309   1.505 -0.4761 -0.0920  0.1560
  156OSM   H13B17381   4.987   6.232   1.511  0.6994 -2.3259 -2.9342
  156OSM   H13C17382   4.865   6.181   1.619 -0.4898 -0.9878 -0.7272
  156OSM    C1217383   4.922   5.989   1.445 -0.2676 -0.1052  0.8771
  156OSM   H12A17384   4.893   5.901   1.390  0.5009  0.7632 -1.0070
  156OSM   H12B17385   4.900   5.959   1.546 -1.8057 -0.6029  0.4210
  156OSM    C1117386   5.075   6.002   1.434 -0.0349 -0.2081  0.2467
  156OSM   H11A17387   5.110   6.047   1.339 -0.4811  0.2228  0.2856
  156OSM   H11B17388   5.122   5.902   1.432 -1.5838 -0.9740  0.3129
  156OSM      P17389   5.105   6.008   1.690  0.2387  0.1010 -0.1101
  156OSM    O1317390   5.004   6.076   1.772  0.1915 -0.0212 -0.0870
  156OSM    O1417391   5.082   5.860   1.675  0.5043  0.1815  0.3145
  156OSM    O1117392   5.253   6.044   1.748 -0.1731  0.3490  0.3252
  156OSM    O1217393   5.125   6.077   1.550  0.4581  0.0069  0.1690
  156OSM    C1S17394   5.282   6.152   1.839  0.3036  0.1177 -0.7915
  156OSM    H1S17395   5.209   6.236   1.837 -1.0385 -0.9149  1.2287
  156OSM    H1T17396   5.388   6.175   1.814  0.6544  0.3429  0.7883
  156OSM     NF17397   5.319   6.205   2.076  0.2339  0.3934  0.1712
  156OSM    HNF17398   5.408   6.196   2.122  0.3579  1.8401  0.2533
  156OSM    C2S17399   5.290   6.096   1.982 -0.3143  0.7096  0.2631
  156OSM    H2S17400   5.191   6.062   2.021 -0.2875  1.7505  1.2763
  156OSM    C3S17401   5.384   5.976   2.003  0.1771 -0.5079  0.0978
  156OSM    H3S17402   5.487   6.009   1.979 -0.3188  1.7465  0.7648
  156OSM     O317403   5.356   5.865   1.921 -0.4183 -0.3006  0.3376
  156OSM    HO317404   5.305   5.906   1.850  0.1932 -2.0554 -1.2134
  156OSM    C4S17405   5.386   5.921   2.145 -0.2331 -0.2368  0.2928
  156OSM    H4S17406   5.289   5.879   2.173 -1.0890  0.1455 -1.9563
  156OSM    C5S17407   5.495   5.925   2.224 -0.2733 -0.4820 -0.0432
  156OSM    H5S17408   5.594   5.945   2.179 -0.4475  3.9153  1.0813
  156OSM    C6S17409   5.490   5.863   2.359  0.9143 -0.4625 -0.0932
  156OSM    H6S17410   5.574   5.790   2.362  0.5536 -0.9221 -0.9805
  156OSM    H6T17411   5.393   5.815   2.382 -0.2581  2.4016  1.3686
  156OSM    C7S17412   5.496   5.969   2.470 -0.1792 -0.0475 -0.2559
  156OSM    H7S17413   5.398   6.021   2.473  0.1886  0.7196  3.7128
  156OSM    H7T17414   5.581   6.040   2.456  1.8957 -2.2591  0.5277
  156OSM    C8S17415   5.529   5.910   2.606  0.7904 -0.1468 -0.3851
  156OSM    H8S17416   5.638   5.890   2.614  0.0593 -4.6483  1.0313
  156OSM    H8T17417   5.472   5.817   2.629  0.5601  0.5382  2.0627
  156OSM    C9S17418   5.485   6.005   2.725 -0.1973  0.2600 -0.0862
  156OSM    H9S17419   5.374   6.002   2.721 -0.2239 -2.3133  0.6897
  156OSM    H9T17420   5.533   6.104   2.715  2.1547 -0.8809 -0.6028
  156OSM   C10S17421   5.525   5.948   2.858  0.1848  0.4076  0.2369
  156OSM   H10S17422   5.635   5.959   2.862  0.5146 -1.7250 -1.3150
  156OSM   H10T17423   5.497   5.841   2.866  0.9534  0.1361 -0.5765
  156OSM   C11S17424   5.462   6.035   2.970 -0.0788 -0.2993  0.0145
  156OSM   H11S17425   5.352   6.019   2.965  0.1088 -1.4137 -1.2008
  156OSM   H11T17426   5.482   6.140   2.942  0.0448 -0.6730 -1.3980
  156OSM   C12S17427   5.514   5.997   3.107  0.5731  0.5104  0.9748
  156OSM   H12S17428   5.625   6.004   3.106  0.8836 -2.4791  2.6312
  156OSM   H12T17429   5.500   5.887   3.120 -1.8699  0.6409 -0.1069
  156OSM   C13S17430   5.454   6.064   3.238  0.1617  0.4486  0.4131
  156OSM   H13S17431   5.439   5.991   3.320  1.9024 -1.3522 -0.7777
  156OSM   H13T17432   5.356   6.111   3.214  0.9975  1.4975 -1.1398
  156OSM   C14S17433   5.546   6.177   3.288 -0.5007 -0.3306 -0.4339
  156OSM   H14S17434   5.655   6.155   3.278 -0.5653 -1.5151  1.1545
  156OSM   H14T17435   5.519   6.178   3.395 -3.8096  2.2735 -1.1169
  156OSM   C15S17436   5.506   6.315   3.232 -0.1940 -0.0100  0.6083
  156OSM   H15S17437   5.401   6.333   3.265 -0.6250  1.7974 -1.5019
  156OSM   H15T17438   5.514   6.327   3.122  1.6677 -0.6956  0.6301
  156OSM   C16S17439   5.591   6.426   3.295  0.7294 -0.2944  0.6698
  156OSM   H16S17440   5.698   6.416   3.265 -0.5761 -2.5621 -4.1545
  156OSM   H16T17441   5.588   6.417   3.406 -1.9115  0.9480  0.7798
  156OSM   C17S17442   5.539   6.568   3.264 -0.2906  0.0688 -0.1204
  156OSM   H17S17443   5.438   6.586   3.307  0.7889  1.5704  1.9877
  156OSM   H17T17444   5.524   6.581   3.155 -0.1577  0.0526 -0.1406
  156OSM   C18S17445   5.627   6.685   3.316 -0.7821  0.1139  0.3519
  156OSM   H18S17446   5.716   6.692   3.250 -1.2372 -0.3031 -0.3159
  156OSM   H18T17447   5.679   6.670   3.413  0.5242  2.6921  0.1611
  156OSM   H18U17448   5.579   6.785   3.317 -0.9457  0.0393  1.3937
  156OSM    C1F17449   5.231   6.303   2.114 -0.0072 -0.1140  0.4374
  156OSM     OF17450   5.109   6.295   2.090  0.0561 -0.1234 -0.6667
  156OSM    C2F17451   5.293   6.425   2.170  0.2155 -0.7014 -0.1028
  156OSM    H2F17452   5.243   6.508   2.116 -3.3758 -1.6868  1.3978
  156OSM    H2G17453   5.400   6.434   2.144  0.0309  2.3073 -0.1956
  156OSM    C3F17454   5.279   6.426   2.326  0.2136  0.1613 -0.4989
  156OSM    H3F17455   5.176   6.401   2.361  0.6055 -1.3218 -0.3349
  156OSM    H3G17456   5.308   6.528   2.357 -1.0203  0.9456 -1.7933
  156OSM    C4F17457   5.378   6.331   2.403  0.1935  0.7271 -0.3185
  156OSM    H4F17458   5.484   6.339   2.370  0.5597 -1.8087  0.0371
  156OSM    H4G17459   5.339   6.233   2.368  1.1309  0.8677 -1.8349
  156OSM    C5F17460   5.351   6.339   2.554 -0.1414 -0.1688  0.0648
  156OSM    H5F17461   5.363   6.240   2.602 -1.8557 -0.6232 -0.3813
  156OSM    H5G17462   5.241   6.355   2.564  0.1605  0.8783  2.4071
  156OSM    C6F17463   5.440   6.441   2.635  0.1092  0.1120 -1.1022
  156OSM    H6F17464   5.415   6.543   2.599  2.5699  1.0451 -0.3772
  156OSM    H6G17465   5.548   6.417   2.624 -0.2032 -2.3579  0.4891
  156OSM    C7F17466   5.432   6.428   2.792 -0.3381 -0.5186 -0.0491
  156OSM    H7F17467   5.513   6.487   2.840  0.4503 -1.2417 -0.4557
  156OSM    H7G17468   5.457   6.322   2.815  0.8551 -0.4763 -1.0379
  156OSM    C8F17469   5.286   6.464   2.849 -0.2548 -0.4192  0.2496
  156OSM    H8F17470   5.220   6.441   2.763  1.4272 -1.1296 -0.8954
  156OSM    H8G17471   5.269   6.572   2.869  1.6449 -0.4287  2.2431
  156OSM    C9F17472   5.240   6.376   2.965  0.4207 -0.1390  0.1848
  156OSM    H9F17473   5.278   6.273   2.954  2.5169  0.6611 -0.7609
  156OSM   C10F17474   5.180   6.415   3.080 -0.2927 -0.2635 -0.5589
  156OSM   H10F17475   5.138   6.329   3.135  0.1913 -0.8354 -1.0641
  156OSM   C11F17476   5.159   6.551   3.131 -0.1406 -0.5926 -0.0335
  156OSM   H11F17477   5.122   6.614   3.047  0.4437 -3.1605 -2.3688
  156OSM   H11G17478   5.261   6.583   3.159 -0.0567 -0.8699 -0.0226
  156OSM   C12F17479   5.056   6.580   3.239 -0.0640  0.2475 -0.2591
  156OSM   H12F17480   4.957   6.531   3.228 -0.0704 -0.7868  3.2698
  156OSM   H12G17481   5.041   6.690   3.242  1.8739  0.5526  3.1565
  156OSM   C13F17482   5.107   6.542   3.383  0.4010 -0.1179 -0.2927
  156OSM   H13F17483   5.184   6.463   3.372 -3.3373 -4.0209 -1.4106
  156OSM   H13G17484   5.026   6.492   3.442  1.8248 -1.0275  0.9909
  156OSM   C14F17485   5.165   6.658   3.461 -0.0751 -0.3376  0.1737
  156OSM   H14F17486   5.090   6.735   3.489  0.4531 -0.5088  2.2052
  156OSM   H14G17487   5.244   6.711   3.403  1.0865 -1.5697  0.5851
  156OSM   C15F17488   5.207   6.610   3.604  1.0885  0.3187  1.0730
  156OSM   H15F17489   5.272   6.521   3.589  2.6685  1.4448  0.8688
  156OSM   H15G17490   5.122   6.571   3.662  1.2737 -1.8217 -0.0150
  156OSM   C16F17491   5.280   6.725   3.676  0.0267  0.2662 -0.5646
  156OSM   H16F17492   5.218   6.816   3.657  0.0540  0.4156  0.0128
  156OSM   H16G17493   5.381   6.734   3.632  0.7756  1.1069  1.1984
  156OSM   C17F17494   5.283   6.699   3.825 -0.3313  0.1148 -0.0324
  156OSM   H17F17495   5.352   6.612   3.824  1.8409  1.7366  0.2568
  156OSM   H17G17496   5.178   6.683   3.859  0.7336  0.9972  4.3121
  156OSM   C18F17497   5.354   6.806   3.901  0.0987 -0.2232  0.1080
  156OSM   H18F17498   5.273   6.878   3.923  1.3168  1.1774  0.1694
  156OSM   H18G17499   5.422   6.866   3.837  0.0723 -0.6188 -0.2997
  156OSM   H18H17500   5.405   6.766   3.992  0.4420 -0.8283 -0.3402
  157OSM      N17501   4.758   0.761   1.519  0.1779  0.0449 -0.3372
  157OSM    C1517502   4.902   0.744   1.570  0.4741  0.1535  1.6160
  157OSM   H15A17503   4.942   0.845   1.577 -1.2447  0.9569  0.4723
  157OSM   H15B17504   4.966   0.685   1.507 -0.1517  0.0509  1.0694
  157OSM   H15C17505   4.898   0.693   1.665  0.3342  0.1129  1.5878
  157OSM    C1417506   4.742   0.839   1.392 -0.5872  0.6020 -0.5522
  157OSM   H14A17507   4.784   0.936   1.411 -0.3266  0.5423 -0.8259
  157OSM   H14B17508   4.638   0.842   1.361 -1.1097 -2.4407  0.5011
  157OSM   H14C17509   4.799   0.796   1.310  1.0724  0.0545  0.8338
  157OSM    C1317510   4.719   0.618   1.500  0.7097  0.4057 -0.1008
  157OSM   H13A17511   4.731   0.574   1.598  0.7779 -1.6402 -0.9659
  157OSM   H13B17512   4.771   0.570   1.418  1.0355 -0.6930  0.7289
  157OSM   H13C17513   4.615   0.618   1.470  0.0919  1.3503  1.9054
  157OSM    C1217514   4.678   0.825   1.632 -0.0475  0.0643  0.8389
  157OSM   H12A17515   4.574   0.837   1.605  0.0124 -1.2308 -0.0583
  157OSM   H12B17516   4.702   0.930   1.637 -0.0918  0.1642 -0.5589
  157OSM    C1117517   4.681   0.773   1.777 -0.1365 -0.0836  0.7407
  157OSM   H11A17518   4.628   0.844   1.844  2.8507  4.3493 -1.1701
  157OSM   H11B17519   4.787   0.774   1.810 -0.2007  2.8326  1.0945
  157OSM      P17520   4.675   0.516   1.855 -0.0806 -0.3374  0.0806
  157OSM    O1317521   4.594   0.401   1.821  0.2303  0.1481  0.1317
  157OSM    O1417522   4.822   0.489   1.834 -0.0836 -0.0095 -0.0237
  157OSM    O1117523   4.657   0.541   2.004 -0.5350 -0.2441  0.4810
  157OSM    O1217524   4.620   0.646   1.783 -0.0818 -0.0818 -0.4422
  157OSM    C1S17525   4.543   0.610   2.058 -0.6571 -0.5520 -0.0448
  157OSM    H1S17526   4.453   0.547   2.046 -0.1512 -1.3637  0.3058
  157OSM    H1T17527   4.535   0.708   2.008  1.9163 -0.0205  0.4182
  157OSM     NF17528   4.443   0.705   2.261  0.1940 -0.5763 -0.2860
  157OSM    HNF17529   4.431   0.803   2.249 -0.1944 -0.2744  2.1037
  157OSM    C2S17530   4.566   0.651   2.206  0.8326  0.2646 -0.9943
  157OSM    H2S17531   4.595   0.561   2.264  0.1191  0.3198 -0.5424
  157OSM    C3S17532   4.684   0.752   2.213 -0.5666 -0.2012 -0.5913
  157OSM    H3S17533   4.659   0.844   2.154  0.9876  2.4698  2.5807
  157OSM     O317534   4.814   0.707   2.169 -0.1771  0.4741 -0.1072
  157OSM    HO317535   4.805   0.619   2.132 -1.5011  1.1945 -1.6109
  157OSM    C4S17536   4.702   0.797   2.352 -0.2939  0.3238 -0.7152
  157OSM    H4S17537   4.741   0.714   2.413 -0.9386 -1.0064 -2.0546
  157OSM    C5S17538   4.679   0.921   2.404 -0.4102  0.5015  0.9430
  157OSM    H5S17539   4.629   0.989   2.333 -0.4253 -1.5389 -1.1157
  157OSM    C6S17540   4.704   0.971   2.543  0.1480  0.0543  1.1844
  157OSM    H6S17541   4.646   1.064   2.559  2.5575  1.9259 -0.2675
  157OSM    H6T17542   4.810   0.991   2.566  1.1138 -3.9361  1.0087
  157OSM    C7S17543   4.663   0.863   2.642  0.1242  0.2245 -0.3008
  157OSM    H7S17544   4.708   0.767   2.608  1.1950  1.6284 -3.2107
  157OSM    H7T17545   4.552   0.855   2.651  0.3064  0.4316  3.0985
  157OSM    C8S17546   4.721   0.895   2.785 -0.0457  0.1794  0.5070
  157OSM    H8S17547   4.691   0.998   2.817  0.9646  1.4421 -2.3074
  157OSM    H8T17548   4.831   0.904   2.771 -0.3083 -1.2171 -3.8029
  157OSM    C9S17549   4.685   0.803   2.898 -0.5477  0.3865 -0.5293
  157OSM    H9S17550   4.721   0.700   2.876 -2.4843 -0.4788  0.1300
  157OSM    H9T17551   4.578   0.801   2.926 -0.6808  0.1090 -1.0417
  157OSM   C10S17552   4.766   0.851   3.016  0.9131  0.2589 -0.6696
  157OSM   H10S17553   4.751   0.959   3.036  0.3181 -0.1068  1.0426
  157OSM   H10T17554   4.872   0.835   2.986 -0.3361 -2.3176 -4.4132
  157OSM   C11S17555   4.736   0.778   3.140  0.4004 -0.3478  0.2837
  157OSM   H11S17556   4.776   0.674   3.142 -1.4096 -1.0782  1.9981
  157OSM   H11T17557   4.625   0.771   3.148  0.3822  0.2152  0.5991
  157OSM   C12S17558   4.780   0.844   3.271 -0.5096 -0.2522  0.0167
  157OSM   H12S17559   4.719   0.934   3.291 -0.6665 -0.4942  0.6847
  157OSM   H12T17560   4.876   0.898   3.259 -0.1240 -0.6229  1.2458
  157OSM   C13S17561   4.785   0.746   3.392 -0.9082  0.2569  0.2359
  157OSM   H13S17562   4.846   0.657   3.366 -1.3033 -0.1799  0.7832
  157OSM   H13T17563   4.687   0.693   3.403 -0.3494 -1.5963 -2.5961
  157OSM   C14S17564   4.830   0.804   3.522  0.4055 -0.5096  0.4043
  157OSM   H14S17565   4.743   0.860   3.563 -1.0150 -2.9904  0.9684
  157OSM   H14T17566   4.907   0.880   3.497  1.3034 -1.7705 -0.8555
  157OSM   C15S17567   4.872   0.708   3.636 -0.4285  0.8279  0.1910
  157OSM   H15S17568   4.869   0.760   3.734 -2.2430 -2.2077  1.8877
  157OSM   H15T17569   4.980   0.701   3.612 -0.2250  3.5477 -0.0160
  157OSM   C16S17570   4.786   0.578   3.643 -0.0771  0.3586 -0.2125
  157OSM   H16S17571   4.793   0.523   3.547 -1.7805 -0.1719 -0.0673
  157OSM   H16T17572   4.685   0.615   3.670  0.3473  0.4741  1.2969
  157OSM   C17S17573   4.827   0.494   3.760  0.5528  0.1113  0.2831
  157OSM   H17S17574   4.774   0.397   3.752 -2.1092  1.6269 -3.0974
  157OSM   H17T17575   4.778   0.554   3.840 -0.4568 -0.2531 -0.0479
  157OSM   C18S17576   4.975   0.480   3.791 -0.6789 -0.3792  0.1322
  157OSM   H18S17577   5.011   0.580   3.823  0.7821 -0.2759 -1.6757
  157OSM   H18T17578   5.041   0.436   3.713 -0.2166 -1.9595  1.3467
  157OSM   H18U17579   4.990   0.415   3.880  0.1557 -1.0078 -0.4479
  157OSM    C1F17580   4.336   0.624   2.297 -0.2909 -1.2378 -0.4228
  157OSM     OF17581   4.341   0.503   2.290  0.0300  0.2502  0.2749
  157OSM    C2F17582   4.211   0.695   2.342  0.1433 -0.3900  1.0513
  157OSM    H2F17583   4.139   0.673   2.260  0.6643 -1.7894  0.9410
  157OSM    H2G17584   4.240   0.802   2.346  2.5710 -0.9071 -0.6858
  157OSM    C3F17585   4.169   0.636   2.473  0.2166 -0.2365 -0.2438
  157OSM    H3F17586   4.155   0.526   2.472  0.1517 -0.2791 -2.6635
  157OSM    H3G17587   4.074   0.682   2.507  0.4512  0.6088 -0.6978
  157OSM    C4F17588   4.266   0.659   2.590  0.1163 -0.1146  0.3376
  157OSM    H4F17589   4.301   0.763   2.571 -2.5086  0.8817  0.5955
  157OSM    H4G17590   4.343   0.580   2.578 -0.6063 -0.6282 -1.1480
  157OSM    C5F17591   4.193   0.647   2.726 -0.3500  0.4451  0.1799
  157OSM    H5F17592   4.143   0.548   2.729  1.2833 -0.4024  0.3170
  157OSM    H5G17593   4.099   0.708   2.729 -1.8128 -1.6995 -0.0694
  157OSM    C6F17594   4.294   0.657   2.844  0.2255 -0.4827 -0.0612
  157OSM    H6F17595   4.335   0.760   2.850 -1.1562 -0.0023  2.0871
  157OSM    H6G17596   4.377   0.583   2.843 -0.1133 -0.8646 -0.1871
  157OSM    C7F17597   4.228   0.639   2.985  0.1404  0.2489 -0.2854
  157OSM    H7F17598   4.193   0.535   3.001 -0.9635  0.1720 -2.6493
  157OSM    H7G17599   4.134   0.697   2.974 -0.1891 -0.2138  0.0778
  157OSM    C8F17600   4.295   0.691   3.107 -0.7349  0.2855  0.1399
  157OSM    H8F17601   4.227   0.671   3.193 -1.9715 -1.5670 -1.2126
  157OSM    H8G17602   4.308   0.802   3.105  1.6340  0.0951 -3.1352
  157OSM    C9F17603   4.425   0.611   3.121  0.5627 -0.2810 -0.3939
  157OSM    H9F17604   4.497   0.615   3.038  0.0281  0.7921 -0.8156
  157OSM   C10F17605   4.445   0.515   3.211 -0.4781  0.5714 -0.4697
  157OSM   H10F17606   4.543   0.464   3.219 -1.1109 -0.3838  3.0248
  157OSM   C11F17607   4.351   0.466   3.321 -0.2507  0.8117  0.1249
  157OSM   H11F17608   4.342   0.358   3.301  3.0402  0.0457  1.9916
  157OSM   H11G17609   4.252   0.516   3.325  0.2234  1.7939  0.1055
  157OSM   C12F17610   4.405   0.480   3.463 -0.8622 -0.1734  0.2302
  157OSM   H12F17611   4.406   0.589   3.485  2.9803 -0.4068  2.2995
  157OSM   H12G17612   4.509   0.441   3.466 -0.3615  1.1435  1.0482
  157OSM   C13F17613   4.324   0.404   3.563  0.0660  0.5943 -0.0058
  157OSM   H13F17614   4.323   0.295   3.543  0.1576  0.5115  0.4327
  157OSM   H13G17615   4.223   0.448   3.544 -0.6989 -1.4670 -1.0236
  157OSM   C14F17616   4.375   0.427   3.706  0.0750 -0.1523 -1.5951
  157OSM   H14F17617   4.366   0.532   3.742 -1.5385  0.2043 -2.8791
  157OSM   H14G17618   4.482   0.397   3.705  0.6420  1.7115 -1.6331
  157OSM   C15F17619   4.298   0.333   3.794  0.1925 -0.2342 -1.0556
  157OSM   H15F17620   4.302   0.224   3.773  1.8127 -0.1666 -1.2050
  157OSM   H15G17621   4.191   0.360   3.780  0.3861 -0.5234 -3.3935
  157OSM   C16F17622   4.329   0.373   3.943  1.0414 -0.4778  0.6060
  157OSM   H16F17623   4.329   0.484   3.952 -1.0352 -0.6178  3.7291
  157OSM   H16G17624   4.431   0.334   3.967  0.2873 -1.8474  1.6748
  157OSM   C17F17625   4.227   0.310   4.036 -0.0724 -0.4155 -0.0374
  157OSM   H17F17626   4.273   0.317   4.137 -1.0544 -1.9669  0.5506
  157OSM   H17G17627   4.231   0.201   4.012  0.1205 -0.2585 -0.7204
  157OSM   C18F17628   4.095   0.388   4.043  0.1919  0.3649 -0.0645
  157OSM   H18F17629   4.115   0.489   4.083 -1.3451  0.3064  0.9642
  157OSM   H18G17630   4.028   0.332   4.113  2.6814 -2.8993 -0.0489
  157OSM   H18H17631   4.050   0.384   3.941 -0.9359 -0.3427  0.4330
  158OSM      N17632   1.643   0.160   1.803  0.5856 -0.2174  0.0247
  158OSM    C1517633   1.644   0.259   1.906  0.3926  0.0471 -0.7021
  158OSM   H15A17634   1.618   0.360   1.879 -0.0832  0.3482  0.8092
  158OSM   H15B17635   1.745   0.273   1.941 -0.2979  0.6140  1.2016
  158OSM   H15C17636   1.594   0.222   1.994  0.7588 -1.9717 -1.2760
  158OSM    C1417637   1.499   0.137   1.771  0.8548  0.5726 -0.6274
  158OSM   H14A17638   1.446   0.095   1.855  0.1060 -1.6420 -2.0970
  158OSM   H14B17639   1.488   0.062   1.694  0.4782 -1.3248  1.1799
  158OSM   H14C17640   1.455   0.232   1.747  0.1000  0.4231  0.1275
  158OSM    C1317641   1.698   0.222   1.682 -0.2928 -0.4952  0.1370
  158OSM   H13A17642   1.806   0.232   1.691 -0.4153  1.7252 -0.2496
  158OSM   H13B17643   1.656   0.320   1.669 -0.1630 -0.4819 -0.1984
  158OSM   H13C17644   1.681   0.168   1.590  1.2752  0.1133 -0.5538
  158OSM    C1217645   1.718   0.029   1.841 -0.3573  0.3956 -1.0823
  158OSM   H12A17646   1.816   0.056   1.877 -1.1600  0.6618  1.0871
  158OSM   H12B17647   1.738  -0.019   1.747  2.0710  2.2984 -1.6220
  158OSM    C1117648   1.658  -0.068   1.946 -0.5979 -0.4547  0.3405
  158OSM   H11A17649   1.619  -0.003   2.028 -0.6406 -2.2220  1.7703
  158OSM   H11B17650   1.751  -0.115   1.984  1.2032  0.4933 -2.5671
  158OSM      P17651   1.617  -0.284   1.802  0.2109  0.4436 -0.0058
  158OSM    O1317652   1.509  -0.382   1.763 -0.4219 -0.0351 -0.3548
  158OSM    O1417653   1.697  -0.234   1.690 -0.1032  0.4352  0.0325
  158OSM    O1117654   1.721  -0.357   1.903  0.1656 -0.0193  0.1602
  158OSM    O1217655   1.566  -0.160   1.891 -0.2518  0.2298 -0.1629
  158OSM    C1S17656   1.672  -0.416   2.025 -0.5035  0.0339  0.1343
  158OSM    H1S17657   1.566  -0.390   2.046  0.3151  1.7748  2.5522
  158OSM    H1T17658   1.730  -0.373   2.110 -0.1473 -0.0525 -0.0638
  158OSM     NF17659   1.627  -0.613   2.162  0.1105 -0.6800 -0.6858
  158OSM    HNF17660   1.691  -0.642   2.232  0.5146  1.1650 -0.2377
  158OSM    C2S17661   1.699  -0.567   2.041  0.1073 -0.5789  0.0941
  158OSM    H2S17662   1.658  -0.618   1.951 -0.6734 -0.3312  0.3041
  158OSM    C3S17663   1.849  -0.585   2.045 -0.9625 -0.1361  0.0346
  158OSM    H3S17664   1.894  -0.508   2.111 -1.2321  2.0733 -2.2072
  158OSM     O317665   1.899  -0.553   1.913  0.3413 -0.4988  0.1388
  158OSM    HO317666   1.846  -0.478   1.884  0.7646 -0.1923  0.1378
  158OSM    C4S17667   1.883  -0.730   2.084  0.0044 -0.0185  0.4210
  158OSM    H4S17668   1.886  -0.744   2.193 -1.2409 -0.0540  0.4581
  158OSM    C5S17669   1.918  -0.818   1.992 -0.1054  0.4032  1.2353
  158OSM    H5S17670   1.916  -0.791   1.885  1.3069 -2.1013  0.4969
  158OSM    C6S17671   1.951  -0.963   2.025 -1.2047 -0.6694  0.9661
  158OSM    H6S17672   2.061  -0.969   2.042 -0.7185  2.5714 -0.3595
  158OSM    H6T17673   1.920  -1.024   1.937 -0.5398  0.4963 -0.1164
  158OSM    C7S17674   1.900  -1.034   2.145  0.1167  0.3608 -0.6253
  158OSM    H7S17675   1.932  -1.140   2.133  1.5068  0.7039 -0.1039
  158OSM    H7T17676   1.789  -1.040   2.146  0.1383 -0.4274  0.6970
  158OSM    C8S17677   1.951  -0.992   2.282 -0.4889 -0.3571 -0.3877
  158OSM    H8S17678   1.922  -0.888   2.308 -0.0125 -0.5450  0.9765
  158OSM    H8T17679   2.058  -0.981   2.255 -0.0883  0.9809  1.5975
  158OSM    C9S17680   1.925  -1.097   2.391 -0.0528 -0.1897  0.0631
  158OSM    H9S17681   1.977  -1.187   2.353  0.2508  0.1105 -0.2379
  158OSM    H9T17682   1.814  -1.110   2.392 -0.2127  0.9962  0.6506
  158OSM   C10S17683   1.971  -1.058   2.532 -0.6767 -0.5597  0.6506
  158OSM   H10S17684   1.912  -0.970   2.565 -0.9103 -0.2910 -0.4506
  158OSM   H10T17685   2.079  -1.033   2.526 -0.5180 -1.2875  0.3684
  158OSM   C11S17686   1.944  -1.173   2.635 -0.3379  0.3054  0.1000
  158OSM   H11S17687   1.975  -1.270   2.590 -2.4265 -0.1227 -0.5251
  158OSM   H11T17688   1.834  -1.169   2.653 -0.1586  3.1086  1.0320
  158OSM   C12S17689   2.001  -1.150   2.773 -0.1661  0.8843 -0.5349
  158OSM   H12S17690   2.111  -1.149   2.757  0.0209  2.1263  0.6473
  158OSM   H12T17691   1.976  -1.240   2.834 -1.2889  1.2064 -0.5109
  158OSM   C13S17692   1.963  -1.015   2.836  0.3241 -0.4897  0.3079
  158OSM   H13S17693   1.858  -1.007   2.872  0.7512 -0.1600  1.5394
  158OSM   H13T17694   1.989  -0.930   2.770 -0.1314 -0.4446  0.1802
  158OSM   C14S17695   2.048  -0.997   2.964 -0.1504 -0.2239 -0.1102
  158OSM   H14S17696   2.153  -0.967   2.942  0.3451  0.8690  3.1974
  158OSM   H14T17697   2.047  -1.096   3.015  0.2904 -0.7058 -1.0061
  158OSM   C15S17698   1.995  -0.882   3.059 -0.1616 -0.6972 -0.0123
  158OSM   H15S17699   1.885  -0.893   3.069 -0.4941  0.9602 -1.4034
  158OSM   H15T17700   2.008  -0.789   3.000  0.9645 -0.9753 -0.2229
  158OSM   C16S17701   2.062  -0.905   3.199  0.5220 -0.3063 -0.1888
  158OSM   H16S17702   2.172  -0.917   3.189  0.6768  0.3452  0.6451
  158OSM   H16T17703   2.010  -0.993   3.242  1.4884  0.9151  3.9551
  158OSM   C17S17704   2.036  -0.798   3.296  0.6031 -0.3070 -0.4357
  158OSM   H17S17705   1.927  -0.776   3.285  0.4171  0.0695  1.6888
  158OSM   H17T17706   2.094  -0.709   3.263 -1.6965  1.4159 -0.1100
  158OSM   C18S17707   2.078  -0.821   3.437  0.0686  0.3922  0.0285
  158OSM   H18S17708   2.184  -0.839   3.462 -0.2201 -2.2117 -0.3709
  158OSM   H18T17709   2.031  -0.916   3.469 -0.7750  1.2695  1.5058
  158OSM   H18U17710   2.037  -0.745   3.508 -0.2727 -0.7735  1.1073
  158OSM    C1F17711   1.492  -0.623   2.171  0.2064  0.8204 -0.5531
  158OSM     OF17712   1.421  -0.611   2.071 -0.0808 -0.4555  0.2581
  158OSM    C2F17713   1.427  -0.656   2.306 -0.2056 -0.4404 -0.5703
  158OSM    H2F17714   1.386  -0.757   2.285 -0.4363 -0.5055  0.1859
  158OSM    H2G17715   1.353  -0.575   2.322  1.4264  0.8763  0.7052
  158OSM    C3F17716   1.524  -0.677   2.424 -0.3921 -0.1107  0.0462
  158OSM    H3F17717   1.580  -0.587   2.455  0.3351 -0.9160  1.1845
  158OSM    H3G17718   1.598  -0.756   2.398 -0.8736 -0.7170  0.4745
  158OSM    C4F17719   1.450  -0.733   2.546 -0.3350  0.1529 -1.3126
  158OSM    H4F17720   1.383  -0.817   2.517 -0.6355  0.5106 -1.6883
  158OSM    H4G17721   1.376  -0.660   2.587  1.2990  0.0179  2.1849
  158OSM    C5F17722   1.541  -0.770   2.657 -0.2461  0.0900 -0.1501
  158OSM    H5F17723   1.604  -0.680   2.671 -2.2638  1.8856 -2.0179
  158OSM    H5G17724   1.611  -0.846   2.614 -0.7966 -0.2895 -0.3897
  158OSM    C6F17725   1.473  -0.813   2.788 -0.2392 -0.0907 -0.2248
  158OSM    H6F17726   1.390  -0.881   2.757  0.9353 -1.7572  0.1802
  158OSM    H6G17727   1.417  -0.729   2.834 -0.5672 -0.2592 -0.3043
  158OSM    C7F17728   1.568  -0.889   2.885 -0.0918 -0.4856  0.1424
  158OSM    H7F17729   1.662  -0.831   2.880 -1.4731  1.8138 -0.9813
  158OSM    H7G17730   1.594  -0.989   2.843 -0.6825  0.0084 -1.4914
  158OSM    C8F17731   1.517  -0.921   3.035 -0.6092  0.7506 -0.5855
  158OSM    H8F17732   1.610  -0.963   3.078  0.5583  2.1889 -1.5989
  158OSM    H8G17733   1.450  -1.009   3.036 -0.0744  0.3219 -1.6428
  158OSM    C9F17734   1.458  -0.808   3.116  0.4422  0.0911  0.3981
  158OSM    H9F17735   1.370  -0.757   3.072  1.2773  0.7968 -0.4990
  158OSM   C10F17736   1.515  -0.753   3.227 -0.2239  0.3255  0.3370
  158OSM   H10F17737   1.473  -0.655   3.252 -1.0239  0.0115  0.2801
  158OSM   C11F17738   1.641  -0.791   3.300  0.6465  0.2626 -0.4268
  158OSM   H11F17739   1.728  -0.723   3.282  0.1106  1.7547  2.1995
  158OSM   H11G17740   1.683  -0.885   3.256 -1.3650  0.6756 -3.5797
  158OSM   C12F17741   1.614  -0.809   3.452 -0.5953  0.0337 -0.4983
  158OSM   H12F17742   1.542  -0.889   3.479 -1.6791  0.8386 -0.9281
  158OSM   H12G17743   1.561  -0.719   3.487 -0.8914 -1.2662  2.7080
  158OSM   C13F17744   1.742  -0.814   3.538  0.3579 -0.0717  0.1319
  158OSM   H13F17745   1.821  -0.747   3.497  0.7603 -0.7109 -0.1520
  158OSM   H13G17746   1.782  -0.916   3.521  0.2330 -0.1339  0.2089
  158OSM   C14F17747   1.731  -0.785   3.689 -0.4107  0.1748  0.6316
  158OSM   H14F17748   1.693  -0.880   3.732 -0.1434  0.2551  1.0534
  158OSM   H14G17749   1.659  -0.703   3.709 -2.3324 -1.3122  0.0207
  158OSM   C15F17750   1.861  -0.747   3.759 -0.2528  0.7314 -0.6679
  158OSM   H15F17751   1.833  -0.706   3.858 -0.0028 -0.3196 -0.1582
  158OSM   H15G17752   1.913  -0.666   3.702  0.2755 -1.3856 -3.4486
  158OSM   C16F17753   1.949  -0.866   3.776 -0.1451 -0.3371  0.5257
  158OSM   H16F17754   1.962  -0.924   3.682 -0.3455 -0.5598  0.6359
  158OSM   H16G17755   1.904  -0.941   3.844  0.2743 -0.9346  0.1539
  158OSM   C17F17756   2.086  -0.823   3.826  0.7495 -0.1771  0.6033
  158OSM   H17F17757   2.071  -0.758   3.914 -0.4907 -2.9357  2.5844
  158OSM   H17G17758   2.134  -0.776   3.738 -1.0527 -1.3776 -1.1141
  158OSM   C18F17759   2.159  -0.948   3.877 -0.3274 -0.2231 -0.1008
  158OSM   H18F17760   2.174  -1.027   3.801 -3.1085 -0.1203 -0.8653
  158OSM   H18G17761   2.092  -0.995   3.952 -1.9236  0.4692 -1.0393
  158OSM   H18H17762   2.259  -0.922   3.919 -1.3023  1.1519  1.5407
  159OSM      N17763   3.482   0.103   1.816  0.0290 -0.8300  0.2738
  159OSM    C1517764   3.597   0.121   1.717  0.6090  0.5161 -0.4715
  159OSM   H15A17765   3.692   0.101   1.764 -0.3780 -1.2779  0.8834
  159OSM   H15B17766   3.583   0.219   1.673 -1.8251  0.2120 -0.5081
  159OSM   H15C17767   3.588   0.049   1.637  0.3791  0.0290 -0.0111
  159OSM    C1417768   3.505   0.210   1.918 -0.5167  0.2111 -0.2329
  159OSM   H14A17769   3.432   0.205   1.997  1.0297 -0.1294  1.2484
  159OSM   H14B17770   3.496   0.307   1.872 -1.7303 -0.7179 -2.0649
  159OSM   H14C17771   3.608   0.208   1.951 -1.2798 -0.9335  2.3182
  159OSM    C1317772   3.355   0.125   1.739 -0.3918 -0.4899  0.6012
  159OSM   H13A17773   3.344   0.057   1.656 -1.0910 -0.1798  0.4321
  159OSM   H13B17774   3.358   0.224   1.696  1.3251 -1.1209 -0.8700
  159OSM   H13C17775   3.272   0.130   1.807  1.0567  0.5196  2.3899
  159OSM    C1217776   3.494  -0.042   1.879  0.5975 -0.0217  0.1109
  159OSM   H12A17777   3.489  -0.110   1.795  0.5144 -0.3420  0.3718
  159OSM   H12B17778   3.403  -0.068   1.931 -0.1867 -1.9036 -1.9968
  159OSM    C1117779   3.612  -0.069   1.972  0.6459 -0.0839 -0.0063
  159OSM   H11A17780   3.593  -0.170   2.014 -1.6403 -0.4365 -1.6778
  159OSM   H11B17781   3.618  -0.013   2.068 -0.2543 -0.9295  0.5669
  159OSM      P17782   3.808  -0.179   1.846 -0.5497  0.6648  0.0121
  159OSM    O1317783   3.712  -0.281   1.806 -0.4782  0.6003  0.3057
  159OSM    O1417784   3.914  -0.130   1.752  0.4572  0.4401 -0.2484
  159OSM    O1117785   3.889  -0.229   1.970  0.3791 -0.4044 -0.4052
  159OSM    O1217786   3.735  -0.055   1.903  0.0741 -0.1998  0.3725
  159OSM    C1S17787   3.952  -0.124   2.046  0.4379  0.2745  0.0187
  159OSM    H1S17788   3.914  -0.022   2.025  2.0289  0.7652 -0.6832
  159OSM    H1T17789   4.061  -0.131   2.022  0.1713  3.3914 -2.8126
  159OSM     NF17790   4.004  -0.062   2.281 -0.2207  0.5600  0.0645
  159OSM    HNF17791   4.093  -0.100   2.309 -0.0113  0.0889 -1.2024
  159OSM    C2S17792   3.917  -0.146   2.201  0.1052  0.6503 -0.2978
  159OSM    H2S17793   3.809  -0.121   2.214 -0.3972 -1.0907 -0.8086
  159OSM    C3S17794   3.924  -0.300   2.241  0.0184 -0.5923 -0.0086
  159OSM    H3S17795   4.028  -0.333   2.220 -0.3511 -1.4605 -0.5430
  159OSM     O317796   3.848  -0.392   2.163  0.1897 -0.3786 -0.2034
  159OSM    HO317797   3.833  -0.341   2.082  1.1048  1.2617  0.6030
  159OSM    C4S17798   3.902  -0.323   2.389  0.0273 -0.2704  0.2525
  159OSM    H4S17799   3.992  -0.307   2.451 -0.6257 -1.2443  1.5128
  159OSM    C5S17800   3.786  -0.361   2.459 -0.2588  0.3446 -1.2711
  159OSM    H5S17801   3.693  -0.383   2.405 -1.4481  1.4248  0.2730
  159OSM    C6S17802   3.777  -0.373   2.613  0.2339 -0.2554 -0.0830
  159OSM    H6S17803   3.875  -0.416   2.643 -0.6543 -2.8713 -0.6650
  159OSM    H6T17804   3.698  -0.446   2.640 -0.7485  0.9606  0.4205
  159OSM    C7S17805   3.753  -0.238   2.680  0.7333 -0.5613 -0.3559
  159OSM    H7S17806   3.656  -0.200   2.641  0.7093 -1.1820 -0.9080
  159OSM    H7T17807   3.831  -0.164   2.652 -0.4248  0.5977 -0.6803
  159OSM    C8S17808   3.755  -0.241   2.831  0.0081  0.1897 -0.1511
  159OSM    H8S17809   3.861  -0.263   2.857  1.1791  3.8646 -1.1181
  159OSM    H8T17810   3.691  -0.324   2.867  0.1191  0.3598  0.4677
  159OSM    C9S17811   3.722  -0.116   2.920  0.7253 -0.1413  0.3874
  159OSM    H9S17812   3.727  -0.143   3.028 -0.3511  1.2263  0.8189
  159OSM    H9T17813   3.614  -0.101   2.899  0.2064 -1.9529  1.5553
  159OSM   C10S17814   3.803   0.009   2.890 -0.1052 -0.6358 -0.1670
  159OSM   H10S17815   3.798   0.047   2.786  2.4411 -1.2811 -0.5921
  159OSM   H10T17816   3.909  -0.024   2.888 -0.7779 -3.0504 -2.6776
  159OSM   C11S17817   3.788   0.117   3.004 -0.0674  0.2171  0.2989
  159OSM   H11S17818   3.685   0.124   3.045  0.7855  0.1706  2.5892
  159OSM   H11T17819   3.829   0.215   2.971  2.3379 -0.8100  0.0050
  159OSM   C12S17820   3.871   0.083   3.134 -0.6027  0.2284  0.5363
  159OSM   H12S17821   3.981   0.082   3.117 -0.6890 -1.4956 -0.2107
  159OSM   H12T17822   3.840  -0.012   3.184 -0.1419  1.1250  2.6447
  159OSM   C13S17823   3.851   0.182   3.241  0.5973 -0.6918 -0.0027
  159OSM   H13S17824   3.852   0.284   3.197 -2.0759 -0.3761  0.4697
  159OSM   H13T17825   3.928   0.185   3.320  1.7792 -0.3043 -1.1337
  159OSM   C14S17826   3.719   0.192   3.311  0.4342  0.1144  0.5522
  159OSM   H14S17827   3.674   0.099   3.352  2.6162 -1.4603 -0.4366
  159OSM   H14T17828   3.637   0.243   3.255 -1.2637  0.1544  2.9357
  159OSM   C15S17829   3.730   0.265   3.448 -0.4717 -0.0652  0.2660
  159OSM   H15S17830   3.753   0.371   3.426 -5.1296  1.1293  0.0126
  159OSM   H15T17831   3.816   0.226   3.506 -0.5254 -0.8036 -0.1323
  159OSM   C16S17832   3.589   0.271   3.515  1.1335 -0.0458 -0.1155
  159OSM   H16S17833   3.552   0.167   3.523  0.3572 -0.0601 -2.8351
  159OSM   H16T17834   3.516   0.328   3.454  1.2258  1.3570  1.0350
  159OSM   C17S17835   3.584   0.356   3.646 -0.4555  0.8207  0.4045
  159OSM   H17S17836   3.490   0.414   3.656 -0.6326  0.3703  1.4229
  159OSM   H17T17837   3.667   0.430   3.637  1.0048 -0.8188 -0.0843
  159OSM   C18S17838   3.613   0.278   3.776 -0.4775  0.2677 -0.0013
  159OSM   H18S17839   3.694   0.204   3.760 -0.3648  0.4045 -0.0587
  159OSM   H18T17840   3.522   0.230   3.819 -0.0110  0.8882  1.7935
  159OSM   H18U17841   3.639   0.339   3.865  0.2953 -0.9330  0.6191
  159OSM    C1F17842   3.976   0.065   2.288  0.5910  0.2229  0.3464
  159OSM     OF17843   3.876   0.106   2.231  0.1888  0.0098 -0.1856
  159OSM    C2F17844   4.069   0.157   2.346 -0.1184 -0.4776 -0.0076
  159OSM    H2F17845   4.075   0.252   2.288 -0.0706 -0.5497 -0.1211
  159OSM    H2G17846   4.171   0.115   2.333  1.1816  2.9090 -1.9460
  159OSM    C3F17847   4.033   0.159   2.498  0.1203  0.0283 -0.9246
  159OSM    H3F17848   4.003   0.060   2.538 -0.3798  0.6477  0.2560
  159OSM    H3G17849   3.939   0.219   2.495  0.5755  0.7257 -2.4309
  159OSM    C4F17850   4.137   0.222   2.589  0.2246 -0.7896  0.0318
  159OSM    H4F17851   4.166   0.323   2.554 -0.9058 -0.3868  0.2276
  159OSM    H4G17852   4.220   0.149   2.575  1.2182  0.4948 -1.0348
  159OSM    C5F17853   4.106   0.223   2.740  0.0808 -0.1187 -0.2373
  159OSM    H5F17854   4.067   0.121   2.761  1.1692 -0.0617  2.4623
  159OSM    H5G17855   4.023   0.296   2.751 -0.8007 -1.0782 -0.3795
  159OSM    C6F17856   4.223   0.254   2.835 -0.7243 -0.5026  0.5136
  159OSM    H6F17857   4.250   0.361   2.831  0.4909 -0.7984  0.5844
  159OSM    H6G17858   4.311   0.199   2.796 -0.5253  1.4758 -2.1115
  159OSM    C7F17859   4.181   0.208   2.973  0.0149 -0.3486 -0.4528
  159OSM    H7F17860   4.149   0.102   2.959  2.9393 -1.3748 -0.0461
  159OSM    H7G17861   4.088   0.255   3.012  0.2002 -0.8855  0.6804
  159OSM    C8F17862   4.291   0.215   3.086  0.1836  0.1493 -0.0771
  159OSM    H8F17863   4.218   0.203   3.169 -1.9709  1.0898 -1.7261
  159OSM    H8G17864   4.333   0.318   3.081  1.7581 -0.3847  1.2008
  159OSM    C9F17865   4.401   0.109   3.087 -0.7823  0.9350  0.0251
  159OSM    H9F17866   4.483   0.124   3.015  0.8382  0.1788  1.6059
  159OSM   C10F17867   4.393  -0.004   3.156  0.1496  0.0177  0.2971
  159OSM   H10F17868   4.480  -0.071   3.160 -0.2603 -0.4738  1.2467
  159OSM   C11F17869   4.283  -0.047   3.247 -0.7174 -0.5365  0.2978
  159OSM   H11F17870   4.214  -0.119   3.198 -0.1037 -0.8297 -0.1365
  159OSM   H11G17871   4.217   0.036   3.280 -1.7378 -1.1105 -0.2309
  159OSM   C12F17872   4.340  -0.119   3.366 -0.7126 -0.0662  0.2947
  159OSM   H12F17873   4.409  -0.049   3.418 -0.7356  0.1224  0.0749
  159OSM   H12G17874   4.396  -0.208   3.332 -1.9670 -1.1407  0.9561
  159OSM   C13F17875   4.243  -0.166   3.472 -0.7912  0.5548  0.4503
  159OSM   H13F17876   4.159  -0.208   3.413  0.9033 -3.9803  0.8673
  159OSM   H13G17877   4.203  -0.085   3.536 -0.1412  1.8528 -0.7217
  159OSM   C14F17878   4.304  -0.261   3.569 -0.1244  0.9765 -0.2348
  159OSM   H14F17879   4.374  -0.212   3.639  0.1222  0.9074 -0.4315
  159OSM   H14G17880   4.376  -0.326   3.515  0.0325  0.3264  0.7323
  159OSM   C15F17881   4.193  -0.331   3.645  0.1627 -0.3716 -0.1647
  159OSM   H15F17882   4.137  -0.396   3.573 -0.1005 -0.2050 -0.1109
  159OSM   H15G17883   4.132  -0.247   3.683  0.7655 -0.3965  0.8801
  159OSM   C16F17884   4.242  -0.420   3.759  0.8256 -0.3761  1.1231
  159OSM   H16F17885   4.285  -0.359   3.841  0.2899  1.0914  0.3464
  159OSM   H16G17886   4.325  -0.481   3.716  0.2824  0.1556 -0.7850
  159OSM   C17F17887   4.127  -0.497   3.822 -0.0035 -0.6333 -0.3422
  159OSM   H17F17888   4.066  -0.533   3.736  1.0201 -0.7305 -1.0381
  159OSM   H17G17889   4.066  -0.429   3.885  0.5937  0.1494 -0.5968
  159OSM   C18F17890   4.166  -0.619   3.904 -0.3228  0.6389  0.0490
  159OSM   H18F17891   4.084  -0.693   3.921  0.4955 -0.1281  0.7202
  159OSM   H18G17892   4.217  -0.587   3.998  0.8063 -1.2326  0.1312
  159OSM   H18H17893   4.234  -0.676   3.837 -0.0554  0.3145  0.5893
  160OSM      N17894   1.096   1.447   1.830  0.1774 -0.2660  0.9004
  160OSM    C1517895   1.144   1.535   1.711 -0.0877 -0.6738 -0.1159
  160OSM   H15A17896   1.060   1.599   1.690  1.2434  1.1175 -0.2224
  160OSM   H15B17897   1.170   1.483   1.620 -2.9645  1.5821 -2.4370
  160OSM   H15C17898   1.230   1.597   1.730  0.6265 -1.5505 -0.4290
  160OSM    C1417899   1.216   1.383   1.899 -0.1576  0.1560  0.0815
  160OSM   H14A17900   1.190   1.303   1.966  1.5644  1.0143  1.8799
  160OSM   H14B17901   1.284   1.449   1.951  0.8983 -2.1836  1.8546
  160OSM   H14C17902   1.280   1.333   1.828 -2.2349 -2.0008 -0.3874
  160OSM    C1317903   1.020   1.530   1.928  0.3162 -0.6751  0.0783
  160OSM   H13A17904   0.943   1.586   1.876  2.2714  0.5822 -1.6261
  160OSM   H13B17905   1.091   1.605   1.959 -0.7075  1.2927 -2.0408
  160OSM   H13C17906   0.976   1.468   2.004 -2.5974  2.5424  1.2978
  160OSM    C1217907   1.008   1.340   1.776 -0.0962  0.5940  0.0565
  160OSM   H12A17908   1.067   1.281   1.707  0.6380  1.2377  0.1282
  160OSM   H12B17909   0.923   1.377   1.721  0.1132 -0.4102 -0.9947
  160OSM    C1117910   0.945   1.241   1.883 -0.2915 -0.3343  0.5302
  160OSM   H11A17911   0.855   1.197   1.835  0.1805  0.8739 -1.5573
  160OSM   H11B17912   0.906   1.298   1.970 -0.6881 -0.4220  0.4131
  160OSM      P17913   1.051   1.015   1.830  0.1426  0.2182 -0.0252
  160OSM    O1317914   0.946   0.911   1.846  0.0692 -0.3109 -0.1115
  160OSM    O1417915   1.074   1.071   1.696  0.0978  0.1727 -0.2082
  160OSM    O1117916   1.194   0.966   1.869  0.8188 -0.5042 -0.1453
  160OSM    O1217917   1.029   1.134   1.925 -0.0197  0.1237 -0.3367
  160OSM    C1S17918   1.249   1.013   1.992  0.4479  0.0522  0.2283
  160OSM    H1S17919   1.180   0.987   2.076 -1.9480 -0.0702 -1.6742
  160OSM    H1T17920   1.259   1.123   1.993 -0.2429  0.1574 -1.6336
  160OSM     NF17921   1.429   0.984   2.152  0.9036  0.1323 -0.0766
  160OSM    HNF17922   1.494   1.059   2.162  0.6412  0.3553 -0.0363
  160OSM    C2S17923   1.388   0.943   2.020 -0.3685 -0.6562  0.2927
  160OSM    H2S17924   1.380   0.833   2.030 -2.3710 -0.5781 -0.0146
  160OSM    C3S17925   1.487   0.986   1.905 -0.5537  0.1129 -0.6269
  160OSM    H3S17926   1.502   1.096   1.906  1.9355 -0.1785 -0.1486
  160OSM     O317927   1.446   0.945   1.767 -0.2608  0.2959 -0.3642
  160OSM    HO317928   1.353   0.919   1.769 -0.5390  1.1436 -1.2962
  160OSM    C4S17929   1.625   0.930   1.926 -0.3104 -0.4147  0.5277
  160OSM    H4S17930   1.688   1.000   1.983 -0.4978 -0.1618  0.4204
  160OSM    C5S17931   1.663   0.803   1.901  0.8083 -0.3279 -0.5240
  160OSM    H5S17932   1.584   0.735   1.865 -0.7395  2.6300 -3.2108
  160OSM    C6S17933   1.796   0.748   1.935 -0.5104 -0.2498 -0.4933
  160OSM    H6S17934   1.887   0.798   1.895 -0.9291  1.6101  0.7412
  160OSM    H6T17935   1.797   0.647   1.888  2.5159 -0.0556 -1.0720
  160OSM    C7S17936   1.816   0.731   2.088 -0.3132  0.0233  0.5444
  160OSM    H7S17937   1.734   0.675   2.138 -1.9532  1.6969 -0.1691
  160OSM    H7T17938   1.845   0.827   2.135  2.1878  0.2773 -1.3197
  160OSM    C8S17939   1.929   0.628   2.122  0.1435 -0.1697 -0.3918
  160OSM    H8S17940   2.013   0.662   2.058  1.7666 -2.0180  0.6385
  160OSM    H8T17941   1.914   0.522   2.092  0.7036  0.0277 -1.4125
  160OSM    C9S17942   1.962   0.644   2.271  0.3572 -0.1641  0.3292
  160OSM    H9S17943   1.965   0.752   2.299 -2.6116  0.0715  0.0780
  160OSM    H9T17944   2.070   0.624   2.285  0.8721  1.7808 -0.5304
  160OSM   C10S17945   1.875   0.570   2.372  0.1730 -0.3183 -0.3210
  160OSM   H10S17946   1.901   0.463   2.392 -0.2977 -0.2475  0.7565
  160OSM   H10T17947   1.766   0.585   2.356  0.9276  3.5490 -3.2252
  160OSM   C11S17948   1.909   0.632   2.506 -0.2858 -0.5552  0.0147
  160OSM   H11S17949   1.876   0.738   2.515  1.1294 -0.2617  3.6934
  160OSM   H11T17950   2.019   0.617   2.514 -0.5880 -2.0882  2.3857
  160OSM   C12S17951   1.845   0.572   2.630  0.0005  1.1234 -0.0497
  160OSM   H12S17952   1.896   0.614   2.719  0.0814 -0.5090  0.7208
  160OSM   H12T17953   1.841   0.461   2.618 -2.1633  1.1287  0.1270
  160OSM   C13S17954   1.699   0.615   2.648 -0.1377 -0.2419 -1.0437
  160OSM   H13S17955   1.643   0.590   2.555  0.5565 -1.1233 -1.2366
  160OSM   H13T17956   1.685   0.725   2.662  0.5641 -0.0897 -1.4832
  160OSM   C14S17957   1.628   0.546   2.759  0.3600 -0.0641 -1.3441
  160OSM   H14S17958   1.666   0.442   2.771  0.3029  0.0949  0.6111
  160OSM   H14T17959   1.520   0.550   2.734 -0.1756 -0.1625  0.7258
  160OSM   C15S17960   1.646   0.621   2.886 -0.2273  0.8893 -0.3673
  160OSM   H15S17961   1.610   0.726   2.878 -0.9181  0.5914 -1.5041
  160OSM   H15T17962   1.752   0.620   2.917 -0.9463 -2.0227  2.5836
  160OSM   C16S17963   1.568   0.556   3.006 -0.0392  0.4568  0.2385
  160OSM   H16S17964   1.594   0.450   3.031 -2.0021  0.0585  0.7744
  160OSM   H16T17965   1.461   0.551   2.977  0.1760 -2.9860 -0.3810
  160OSM   C17S17966   1.579   0.640   3.138  0.1598 -0.0763  0.1523
  160OSM   H17S17967   1.487   0.619   3.196 -0.7001  1.6798 -0.4830
  160OSM   H17T17968   1.585   0.750   3.120  3.9860  0.3225  2.7177
  160OSM   C18S17969   1.702   0.617   3.219 -0.4055  0.3651 -0.4282
  160OSM   H18S17970   1.794   0.609   3.156 -1.3384 -0.7508 -1.7027
  160OSM   H18T17971   1.697   0.521   3.275 -1.1933  0.3123 -0.5850
  160OSM   H18U17972   1.717   0.701   3.290  0.2094  1.7191 -2.0787
  160OSM    C1F17973   1.364   0.940   2.260  0.5609  0.7345 -0.3294
  160OSM     OF17974   1.283   0.850   2.254 -0.6080 -0.2853  0.2673
  160OSM    C2F17975   1.404   1.004   2.396  0.6097 -0.0677 -0.3010
  160OSM    H2F17976   1.339   1.094   2.403 -3.4474 -2.8754  1.5014
  160OSM    H2G17977   1.515   1.010   2.397  0.9291 -3.5532 -1.4747
  160OSM    C3F17978   1.341   0.913   2.508 -0.6109 -0.8258 -0.2647
  160OSM    H3F17979   1.383   0.811   2.489  0.0016 -0.6793  0.2734
  160OSM    H3G17980   1.231   0.914   2.492 -0.5398 -0.6212 -0.7644
  160OSM    C4F17981   1.385   0.955   2.658  0.1692  0.0650 -0.0234
  160OSM    H4F17982   1.360   1.064   2.655  0.4965  0.1639  0.7999
  160OSM    H4G17983   1.493   0.951   2.683 -0.2122 -1.8254  1.5429
  160OSM    C5F17984   1.301   0.887   2.758  0.0669  0.2165 -0.4661
  160OSM    H5F17985   1.316   0.777   2.766 -2.6236 -0.1521  0.6920
  160OSM    H5G17986   1.195   0.901   2.728 -0.1905 -0.8643 -0.1136
  160OSM    C6F17987   1.313   0.933   2.910  0.0692  0.3127  0.0429
  160OSM    H6F17988   1.308   1.043   2.894 -1.0860  0.5279  1.6214
  160OSM    H6G17989   1.412   0.903   2.948 -0.5113 -0.5940  0.8801
  160OSM    C7F17990   1.199   0.896   3.005 -0.0953  0.3051  0.5171
  160OSM    H7F17991   1.200   0.787   3.029 -0.1253  0.2893  0.4468
  160OSM    H7G17992   1.104   0.921   2.953 -0.3577  0.4258  1.0467
  160OSM    C8F17993   1.197   0.971   3.136 -0.0011  0.1992 -0.1888
  160OSM    H8F17994   1.105   0.937   3.187 -1.2388  0.3280 -2.2441
  160OSM    H8G17995   1.196   1.082   3.133  0.8758  0.2795  1.1818
  160OSM    C9F17996   1.318   0.939   3.220 -0.0153 -1.3254 -0.2476
  160OSM    H9F17997   1.413   0.983   3.186  0.6069 -0.5674  2.2316
  160OSM   C10F17998   1.329   0.887   3.344  0.6071 -0.1886  0.4817
  160OSM   H10F17999   1.421   0.854   3.396  0.2953 -1.9932 -0.0438
  160OSM   C11F18000   1.205   0.843   3.423  0.4803  0.6588 -0.0333
  160OSM   H11F18001   1.124   0.818   3.351  0.8334 -1.6295  0.2941
  160OSM   H11G18002   1.172   0.923   3.493 -0.1073  1.3799 -1.0936
  160OSM   C12F18003   1.235   0.723   3.507 -0.3558  0.4521 -0.9878
  160OSM   H12F18004   1.324   0.747   3.569 -1.4341  0.8073  0.4762
  160OSM   H12G18005   1.255   0.637   3.440 -0.7887 -0.0835 -0.4389
  160OSM   C13F18006   1.131   0.698   3.620 -0.3857  0.5580  0.1100
  160OSM   H13F18007   1.041   0.657   3.570 -0.1318  0.9555 -0.6769
  160OSM   H13G18008   1.119   0.797   3.669  0.3549  0.6826  0.0484
  160OSM   C14F18009   1.199   0.603   3.720 -0.0615 -0.1986 -0.1055
  160OSM   H14F18010   1.292   0.654   3.753  0.2161 -0.8682  0.1591
  160OSM   H14G18011   1.228   0.507   3.673  1.4488 -0.0020  0.3765
  160OSM   C15F18012   1.102   0.562   3.842  0.0382 -0.5262  0.2231
  160OSM   H15F18013   1.029   0.490   3.800 -0.4388 -0.3208  0.6816
  160OSM   H15G18014   1.052   0.655   3.876 -0.2333 -0.1295 -1.2000
  160OSM   C16F18015   1.199   0.493   3.949  0.7007  0.0936 -0.1004
  160OSM   H16F18016   1.264   0.566   4.002  0.0346 -1.0287  2.3851
  160OSM   H16G18017   1.262   0.426   3.887  0.0623  0.2801 -0.9760
  160OSM   C17F18018   1.116   0.411   4.046 -0.1752 -0.4388 -0.4221
  160OSM   H17F18019   1.175   0.359   4.125  1.2264 -0.5367 -1.4901
  160OSM   H17G18020   1.065   0.330   3.990 -0.0273 -1.3613  0.7280
  160OSM   C18F18021   1.008   0.485   4.125  0.0954 -0.0587 -0.6594
  160OSM   H18F18022   0.944   0.423   4.191  1.1998  0.1144  0.6118
  160OSM   H18G18023   0.943   0.546   4.058 -1.0363 -0.1670  0.3113
  160OSM   H18H18024   1.059   0.549   4.200 -0.0082  0.9301 -1.4011
  161OSM      N18025   5.535   5.970   1.557  0.5284  0.7241  0.6587
  161OSM    C1518026   5.607   5.952   1.682  0.1315  0.1173  0.0306
  161OSM   H15A18027   5.537   5.929   1.761 -2.5461  0.2825 -2.1806
  161OSM   H15B18028   5.660   6.042   1.709  1.7810 -1.0266  0.8012
  161OSM   H15C18029   5.682   5.875   1.674 -1.0480 -1.3382  2.0629
  161OSM    C1418030   5.631   5.970   1.450  0.3977 -0.1451  0.3956
  161OSM   H14A18031   5.590   6.012   1.359  1.4461  0.5924  0.2492
  161OSM   H14B18032   5.680   5.877   1.424 -0.2199 -0.1920 -0.6861
  161OSM   H14C18033   5.720   6.030   1.458  3.0107 -3.3247 -1.8845
  161OSM    C1318034   5.441   5.854   1.540  0.5613  0.4564 -0.2599
  161OSM   H13A18035   5.402   5.839   1.441 -1.2785 -1.5136  0.6881
  161OSM   H13B18036   5.359   5.852   1.610  0.6179 -2.3721 -0.1557
  161OSM   H13C18037   5.501   5.769   1.571  1.2938  0.8497 -0.5679
  161OSM    C1218038   5.467   6.104   1.559  0.6248 -0.6873  0.5055
  161OSM   H12A18039   5.401   6.105   1.644 -0.4265  1.4011 -0.2507
  161OSM   H12B18040   5.394   6.108   1.479 -0.8141 -1.0422  1.7599
  161OSM    C1118041   5.544   6.233   1.557  0.0492 -0.4118  0.4687
  161OSM   H11A18042   5.481   6.322   1.540 -1.0561 -1.4461 -1.1331
  161OSM   H11B18043   5.602   6.242   1.463  0.7203  0.5959  0.9539
  161OSM      P18044   5.669   6.395   1.720 -0.2261  0.4003 -0.1841
  161OSM    O1318045   5.772   6.455   1.632  0.0004  0.1423  0.1816
  161OSM    O1418046   5.539   6.461   1.730  0.5365  0.0003  0.1939
  161OSM    O1118047   5.732   6.380   1.863  0.5717 -0.2154  0.0425
  161OSM    O1218048   5.643   6.242   1.659  0.6582 -0.3956 -0.2774
  161OSM    C1S18049   5.832   6.283   1.883 -0.4265 -0.4165  0.2861
  161OSM    H1S18050   5.918   6.310   1.818 -0.0306  0.8330  1.2848
  161OSM    H1T18051   5.797   6.187   1.840  0.0912  0.3578 -2.0395
  161OSM     NF18052   5.993   6.199   2.053  0.6058  0.2894  0.6877
  161OSM    HNF18053   6.006   6.100   2.050  2.2338  0.4730  0.7051
  161OSM    C2S18054   5.864   6.270   2.038 -0.8393  0.0767  0.6616
  161OSM    H2S18055   5.870   6.370   2.087 -0.5585 -0.6160  2.0959
  161OSM    C3S18056   5.746   6.208   2.116 -0.9240  0.5029  0.3916
  161OSM    H3S18057   5.743   6.103   2.082  3.6307  0.4323 -0.3712
  161OSM     O318058   5.620   6.268   2.082 -0.3362  0.7310  0.1210
  161OSM    HO318059   5.640   6.329   2.011  0.5260 -0.4541 -0.6913
  161OSM    C4S18060   5.775   6.211   2.264 -0.3514 -0.0439 -0.2142
  161OSM    H4S18061   5.733   6.301   2.310 -1.4427 -1.1285  0.9662
  161OSM    C5S18062   5.845   6.118   2.335 -0.8936  0.2712  0.0524
  161OSM    H5S18063   5.890   6.032   2.283 -0.0774  0.1613  0.9297
  161OSM    C6S18064   5.882   6.138   2.483  0.1557  0.1835 -0.0346
  161OSM    H6S18065   5.989   6.164   2.497 -0.0118  1.5767 -1.1308
  161OSM    H6T18066   5.874   6.049   2.548 -2.8512  0.3379 -0.0452
  161OSM    C7S18067   5.811   6.247   2.576 -0.2473  0.0414 -0.1009
  161OSM    H7S18068   5.707   6.209   2.576 -1.3748  2.8352 -1.6527
  161OSM    H7T18069   5.811   6.352   2.541 -0.4596 -0.5389 -1.9561
  161OSM    C8S18070   5.877   6.241   2.718 -0.4963 -0.5094  1.2315
  161OSM    H8S18071   5.965   6.309   2.726  1.4116 -2.8256  0.7684
  161OSM    H8T18072   5.913   6.143   2.754 -0.2869 -0.8754  0.0508
  161OSM    C9S18073   5.786   6.299   2.823  0.6536  0.0497 -0.2324
  161OSM    H9S18074   5.691   6.245   2.806  0.1328  0.2601  1.7918
  161OSM    H9T18075   5.788   6.410   2.817  2.9461  0.1154  0.5286
  161OSM   C10S18076   5.840   6.261   2.961 -0.2128 -0.6314  0.3057
  161OSM   H10S18077   5.844   6.151   2.977 -4.1963 -1.1527 -1.0804
  161OSM   H10T18078   5.769   6.303   3.035 -0.2510 -0.6003  0.2518
  161OSM   C11S18079   5.969   6.342   2.993 -0.0995 -0.2496  0.4940
  161OSM   H11S18080   5.970   6.442   2.946 -0.2759  0.2357  1.4861
  161OSM   H11T18081   6.059   6.286   2.960  0.5999  1.6432 -0.9534
  161OSM   C12S18082   5.984   6.363   3.145  0.0210  0.2012 -0.5714
  161OSM   H12S18083   5.903   6.428   3.184 -0.0815  1.6489 -2.9749
  161OSM   H12T18084   6.081   6.412   3.164 -0.6707  2.5032 -2.5134
  161OSM   C13S18085   5.961   6.237   3.225 -0.0521  0.5733  0.2828
  161OSM   H13S18086   6.028   6.163   3.176 -1.3127 -0.3589 -0.0926
  161OSM   H13T18087   5.854   6.211   3.213  0.4724 -2.2887  1.2508
  161OSM   C14S18088   6.004   6.251   3.374 -0.1794 -0.0765  0.0119
  161OSM   H14S18089   6.043   6.355   3.386 -1.2540  0.3928 -0.4479
  161OSM   H14T18090   6.091   6.189   3.402 -0.0498 -0.8645 -1.9836
  161OSM   C15S18091   5.884   6.239   3.472  0.1659  0.1801  0.0236
  161OSM   H15S18092   5.829   6.143   3.458  1.8515 -0.9134  0.6365
  161OSM   H15T18093   5.819   6.327   3.458 -1.1418 -0.8139 -0.3642
  161OSM   C16S18094   5.919   6.225   3.623 -0.8197 -0.0795 -0.1922
  161OSM   H16S18095   5.845   6.278   3.687  1.0192  0.3930  1.6545
  161OSM   H16T18096   6.020   6.263   3.650 -0.1297 -2.5440  0.9300
  161OSM   C17S18097   5.932   6.080   3.663 -0.5105  0.0631  0.0812
  161OSM   H17S18098   5.985   6.022   3.585  0.4127 -0.1667  0.8609
  161OSM   H17T18099   5.832   6.032   3.661  0.3295 -1.8199  1.1056
  161OSM   C18S18100   6.009   6.049   3.793 -0.0623 -0.1942  0.0442
  161OSM   H18S18101   5.941   6.058   3.880  1.2964 -1.2193  1.2331
  161OSM   H18T18102   6.095   6.119   3.807 -1.0517  1.2944 -0.9414
  161OSM   H18U18103   6.052   5.947   3.795  2.0109  0.4876 -2.8386
  161OSM    C1F18104   6.101   6.254   2.003  0.2956 -0.3001 -0.5162
  161OSM     OF18105   6.101   6.378   1.975 -0.0893  0.6658 -0.1100
  161OSM    C2F18106   6.211   6.168   1.977 -0.3777 -1.2223 -0.0822
  161OSM    H2F18107   6.246   6.170   1.872  2.6639  0.3726  0.8435
  161OSM    H2G18108   6.202   6.061   2.006  0.8673 -1.6459 -1.1309
  161OSM    C3F18109   6.334   6.223   2.053 -0.0222  0.2476 -0.3233
  161OSM    H3F18110   6.348   6.328   2.018 -2.4087  0.7485  0.0881
  161OSM    H3G18111   6.414   6.155   2.015  0.1131 -0.0406  0.4622
  161OSM    C4F18112   6.315   6.225   2.207 -0.4517  0.1394  0.0124
  161OSM    H4F18113   6.227   6.287   2.233 -0.0519  0.7346 -0.0102
  161OSM    H4G18114   6.404   6.278   2.248  0.1498 -0.9763  0.1850
  161OSM    C5F18115   6.305   6.089   2.272  0.2245  0.5010  0.3791
  161OSM    H5F18116   6.393   6.034   2.232 -1.3158 -0.7150 -1.5257
  161OSM    H5G18117   6.214   6.042   2.228  0.9498  1.3817 -2.2725
  161OSM    C6F18118   6.308   6.075   2.422  0.2752 -0.6578 -0.2013
  161OSM    H6F18119   6.301   5.967   2.449  1.5781 -0.8626 -0.5968
  161OSM    H6G18120   6.222   6.136   2.455  0.1546  0.0550 -1.7314
  161OSM    C7F18121   6.445   6.105   2.488  0.0648 -0.1598  0.2206
  161OSM    H7F18122   6.452   6.214   2.508  1.6386  0.3506 -2.5930
  161OSM    H7G18123   6.525   6.075   2.416  0.3462  0.9644  0.0521
  161OSM    C8F18124   6.482   6.026   2.622  0.4559  0.1016  0.7013
  161OSM    H8F18125   6.590   6.038   2.646  0.3046 -0.5329  1.7710
  161OSM    H8G18126   6.460   5.917   2.618  0.0817  0.1333  1.6460
  161OSM    C9F18127   6.393   6.087   2.728  0.2283 -0.8267 -0.0758
  161OSM    H9F18128   6.327   6.169   2.694  0.6701 -0.3033  0.3209
  161OSM   C10F18129   6.390   6.063   2.856 -0.2536 -0.2442 -0.2134
  161OSM   H10F18130   6.315   6.115   2.917  0.4934 -0.0996  0.5978
  161OSM   C11F18131   6.471   5.956   2.931 -0.8593  0.3026 -0.0228
  161OSM   H11F18132   6.576   5.991   2.926 -0.5064 -0.7606 -0.4006
  161OSM   H11G18133   6.465   5.865   2.867 -4.5277 -0.5196  1.2529
  161OSM   C12F18134   6.432   5.917   3.073  0.3375  0.0366 -0.7094
  161OSM   H12F18135   6.333   5.865   3.075  0.5931 -0.4398 -0.4647
  161OSM   H12G18136   6.410   6.010   3.130  0.7951  0.5420 -1.3425
  161OSM   C13F18137   6.529   5.830   3.136  0.1362 -0.2225  0.3101
  161OSM   H13F18138   6.629   5.878   3.130 -0.4763  0.9333 -2.0574
  161OSM   H13G18139   6.533   5.736   3.077 -2.1915  0.0395 -0.3893
  161OSM   C14F18140   6.506   5.800   3.283  0.2717  0.3513 -0.0607
  161OSM   H14F18141   6.584   5.727   3.313  2.3331  2.5114  0.1911
  161OSM   H14G18142   6.408   5.750   3.297 -0.2388  1.4173  0.2767
  161OSM   C15F18143   6.509   5.909   3.386  0.5136 -0.3531 -0.1713
  161OSM   H15F18144   6.440   5.991   3.359 -0.2136 -0.8971  0.0174
  161OSM   H15G18145   6.612   5.951   3.381 -0.0969  1.1581 -0.6993
  161OSM   C16F18146   6.488   5.875   3.533 -0.3239  0.3213 -0.3493
  161OSM   H16F18147   6.530   5.962   3.588  0.6240 -1.5604  2.0840
  161OSM   H16G18148   6.545   5.782   3.550 -1.4271 -0.4640 -0.8108
  161OSM   C17F18149   6.347   5.845   3.576  0.5751 -0.2442  0.0441
  161OSM   H17F18150   6.309   5.753   3.528 -1.2144  0.9608 -0.9980
  161OSM   H17G18151   6.289   5.925   3.524  0.6650 -1.3749 -1.8904
  161OSM   C18F18152   6.324   5.844   3.724 -0.7178 -0.5109 -0.2808
  161OSM   H18F18153   6.242   5.773   3.745  0.1932 -1.4471  0.2307
  161OSM   H18G18154   6.308   5.951   3.753 -0.1205 -0.8155  1.3046
  161OSM   H18H18155   6.420   5.811   3.770 -0.6257  0.6236  0.3860
  162OSM      N18156   0.075   5.633   1.469  0.4189 -0.1069  0.3877
  162OSM    C1518157   0.139   5.661   1.604 -0.4986 -0.2121  0.2496
  162OSM   H15A18158   0.239   5.622   1.614 -1.0343 -1.9267 -0.7235
  162OSM   H15B18159   0.090   5.605   1.682  2.6810 -2.4299  0.8030
  162OSM   H15C18160   0.131   5.767   1.626  1.4646 -0.4428  2.4110
  162OSM    C1418161  -0.067   5.685   1.472 -0.0396 -0.0230  0.2839
  162OSM   H14A18162  -0.116   5.632   1.552 -0.7260  1.1702  0.6895
  162OSM   H14B18163  -0.127   5.665   1.385  0.0465 -0.4308  0.3164
  162OSM   H14C18164  -0.063   5.786   1.511  2.0097 -0.1124  0.4214
  162OSM    C1318165   0.156   5.714   1.371 -0.4146  0.8986  0.1340
  162OSM   H13A18166   0.261   5.696   1.387 -0.6668 -0.5655  0.2442
  162OSM   H13B18167   0.146   5.820   1.392  1.8284  0.6054  3.4892
  162OSM   H13C18168   0.123   5.693   1.271 -0.1431  0.1889  0.1897
  162OSM    C1218169   0.077   5.494   1.431  0.7393  0.6348  0.0264
  162OSM   H12A18170   0.063   5.470   1.326 -3.5402 -2.0019  0.9097
  162OSM   H12B18171  -0.005   5.444   1.480 -0.2141  1.6076 -0.5167
  162OSM    C1118172   0.202   5.419   1.475  0.2628 -0.6183  0.2889
  162OSM   H11A18173   0.215   5.317   1.433  0.8800 -0.0420 -0.9640
  162OSM   H11B18174   0.186   5.396   1.583  0.1763 -1.5718  0.0865
  162OSM      P18175   0.446   5.494   1.536  0.1527  0.5142  0.0959
  162OSM    O1318176   0.507   5.355   1.531 -0.0835  0.5507  0.6074
  162OSM    O1418177   0.523   5.614   1.512  0.0178 -0.5264 -0.3091
  162OSM    O1118178   0.394   5.509   1.684  0.1245 -0.1055  0.1190
  162OSM    O1218179   0.324   5.485   1.441 -0.1617 -0.4773  0.1194
  162OSM    C1S18180   0.487   5.497   1.794  0.1901  0.0531 -0.1270
  162OSM    H1S18181   0.549   5.589   1.803 -0.5125  0.7955 -2.3556
  162OSM    H1T18182   0.562   5.418   1.771  0.6021  0.9257 -2.0178
  162OSM     NF18183   0.520   5.479   2.027  0.2904  0.1862 -0.5872
  162OSM    HNF18184   0.568   5.397   2.058  3.0927  1.1213 -2.0650
  162OSM    C2S18185   0.419   5.462   1.932  0.2010 -0.1696  0.5129
  162OSM    H2S18186   0.344   5.544   1.936  0.5604  0.2164 -0.4587
  162OSM    C3S18187   0.350   5.327   1.924  0.3384 -0.1093 -0.4662
  162OSM    H3S18188   0.427   5.255   1.888 -0.6208 -0.7083 -1.3668
  162OSM     O318189   0.248   5.330   1.825 -0.7848 -0.2491  0.1231
  162OSM    HO318190   0.278   5.391   1.758  0.3575  0.8157  1.5442
  162OSM    C4S18191   0.294   5.302   2.059  0.1663 -0.2193  0.2361
  162OSM    H4S18192   0.207   5.359   2.095  2.0020  2.1247  1.1989
  162OSM    C5S18193   0.342   5.190   2.132  1.2118  0.0065  0.0819
  162OSM    H5S18194   0.417   5.126   2.083  3.3206  2.8373 -0.6576
  162OSM    C6S18195   0.277   5.146   2.258 -0.5240  0.2760 -0.1190
  162OSM    H6S18196   0.332   5.183   2.348 -0.3567 -2.0710  0.8012
  162OSM    H6T18197   0.278   5.037   2.278 -1.3671 -0.5030 -3.7272
  162OSM    C7S18198   0.133   5.194   2.267  0.6013 -0.1572  0.0850
  162OSM    H7S18199   0.080   5.158   2.176  1.6656  0.8708 -0.9819
  162OSM    H7T18200   0.132   5.305   2.266  1.4071 -0.1436 -0.2704
  162OSM    C8S18201   0.060   5.152   2.390  0.1717  0.3458 -0.4522
  162OSM    H8S18202   0.085   5.045   2.403  3.5645  0.5652 -3.6434
  162OSM    H8T18203  -0.049   5.173   2.382 -0.1376 -1.2106 -0.6437
  162OSM    C9S18204   0.110   5.235   2.514 -0.0931  0.1128 -0.3479
  162OSM    H9S18205   0.126   5.344   2.501  4.2647 -0.1669  0.9264
  162OSM    H9T18206   0.209   5.195   2.546 -0.2349  1.5774  2.2178
  162OSM   C10S18207   0.006   5.226   2.627 -0.0385 -0.5494  0.2140
  162OSM   H10S18208  -0.019   5.119   2.639  3.6989 -1.5394  0.4017
  162OSM   H10T18209  -0.091   5.280   2.615 -0.9706 -2.0003  0.9057
  162OSM   C11S18210   0.055   5.271   2.762 -0.4157 -0.4122  0.1087
  162OSM   H11S18211   0.078   5.379   2.765 -1.5373  0.0256 -3.2132
  162OSM   H11T18212   0.151   5.218   2.786 -1.2245 -2.0622 -0.1352
  162OSM   C12S18213  -0.038   5.225   2.875 -0.3915 -0.3592 -0.4293
  162OSM   H12S18214  -0.041   5.117   2.853 -0.3376 -0.3838 -0.3186
  162OSM   H12T18215  -0.140   5.268   2.869 -0.5441 -0.5568  0.5648
  162OSM   C13S18216   0.038   5.241   3.016 -0.3044  0.2546 -0.7430
  162OSM   H13S18217   0.035   5.349   3.038 -0.4409  0.0107  0.4657
  162OSM   H13T18218   0.144   5.213   3.000 -1.4085 -3.9325 -2.0695
  162OSM   C14S18219  -0.037   5.177   3.134  0.1978  0.0299  0.4360
  162OSM   H14S18220  -0.032   5.066   3.128  2.6100  0.1551 -1.2776
  162OSM   H14T18221  -0.145   5.202   3.144  0.1540 -0.2977  0.7776
  162OSM   C15S18222   0.034   5.222   3.262  0.2110  0.1507 -0.1124
  162OSM   H15S18223  -0.026   5.190   3.349  1.5532  0.2181  0.8746
  162OSM   H15T18224   0.044   5.333   3.266  1.7437  0.0549 -0.5092
  162OSM   C16S18225   0.178   5.151   3.282  0.0817 -0.0536 -0.5026
  162OSM   H16S18226   0.244   5.194   3.203  0.4015  0.4805  0.0491
  162OSM   H16T18227   0.170   5.041   3.267 -1.8468 -0.1419  0.8456
  162OSM   C17S18228   0.230   5.167   3.422  0.5626 -0.1255 -0.9356
  162OSM   H17S18229   0.167   5.131   3.506  1.5566  0.8332  0.2644
  162OSM   H17T18230   0.250   5.269   3.462 -1.2935 -0.7483  1.8695
  162OSM   C18S18231   0.363   5.095   3.443  0.7873  0.5095 -0.0500
  162OSM   H18S18232   0.449   5.129   3.381  0.7214 -0.8780 -0.9705
  162OSM   H18T18233   0.357   4.986   3.423  2.9593 -0.3692  3.2455
  162OSM   H18U18234   0.383   5.109   3.551 -1.5596 -1.4279  0.7360
  162OSM    C1F18235   0.557   5.603   2.071 -0.2775  0.8711 -0.1560
  162OSM     OF18236   0.495   5.699   2.036 -0.1869 -1.1492 -0.0276
  162OSM    C2F18237   0.683   5.603   2.152 -0.4711  0.1814  0.4516
  162OSM    H2F18238   0.734   5.696   2.121 -0.8125  0.5385  0.9391
  162OSM    H2G18239   0.744   5.512   2.133  1.1918  1.1233  1.1189
  162OSM    C3F18240   0.657   5.618   2.300  0.1507  0.2120 -0.3831
  162OSM    H3F18241   0.590   5.706   2.309  1.8504  1.3850  2.2746
  162OSM    H3G18242   0.754   5.643   2.350 -0.7637  3.3323  0.0912
  162OSM    C4F18243   0.605   5.493   2.367 -0.1384  1.2197 -0.4522
  162OSM    H4F18244   0.642   5.401   2.318 -0.8532 -0.0604  1.2981
  162OSM    H4G18245   0.495   5.493   2.360 -0.1812 -1.3307 -0.6557
  162OSM    C5F18246   0.644   5.502   2.518  1.1007 -0.0048 -0.6404
  162OSM    H5F18247   0.577   5.565   2.580 -2.0247 -2.6344 -1.0917
  162OSM    H5G18248   0.747   5.544   2.520  0.5920  1.2735  1.1905
  162OSM    C6F18249   0.659   5.364   2.582  0.2654 -0.4114  0.3178
  162OSM    H6F18250   0.741   5.368   2.658  0.5995 -2.3372  0.1087
  162OSM    H6G18251   0.691   5.290   2.507  0.0476 -1.6582  1.4245
  162OSM    C7F18252   0.534   5.314   2.659 -0.2230 -0.6124 -0.3035
  162OSM    H7F18253   0.556   5.223   2.719 -1.6205 -0.5315  0.3750
  162OSM    H7G18254   0.449   5.286   2.592 -1.8830 -1.8850  2.1893
  162OSM    C8F18255   0.474   5.406   2.768 -0.0585 -0.3884  0.0661
  162OSM    H8F18256   0.398   5.345   2.822  0.3704 -1.8212 -0.9000
  162OSM    H8G18257   0.420   5.495   2.731  1.6234  0.1608 -1.1907
  162OSM    C9F18258   0.572   5.451   2.868  0.1432 -0.2371 -0.4677
  162OSM    H9F18259   0.647   5.516   2.822  0.3780  0.1395  0.4339
  162OSM   C10F18260   0.589   5.423   2.997  0.1374  0.4784  0.9963
  162OSM   H10F18261   0.685   5.450   3.045  1.4853  1.6648 -2.1395
  162OSM   C11F18262   0.501   5.327   3.072  0.0105 -0.1891  0.4063
  162OSM   H11F18263   0.563   5.244   3.112 -1.6498 -0.9839  1.4494
  162OSM   H11G18264   0.430   5.276   3.004  0.7026  0.5166 -0.8847
  162OSM   C12F18265   0.431   5.392   3.193  0.1703 -0.3059  0.1325
  162OSM   H12F18266   0.508   5.431   3.262 -1.5233  1.9703  0.8405
  162OSM   H12G18267   0.386   5.307   3.248  1.9144 -1.5655 -0.2970
  162OSM   C13F18268   0.329   5.507   3.167 -0.0719  0.2811 -0.4492
  162OSM   H13F18269   0.224   5.476   3.153 -0.5527  2.0805 -1.1557
  162OSM   H13G18270   0.344   5.554   3.067 -2.6208  0.5957 -0.7340
  162OSM   C14F18271   0.333   5.609   3.277 -0.3611 -0.9689  0.7950
  162OSM   H14F18272   0.438   5.643   3.263 -0.6279 -0.0924  0.8475
  162OSM   H14G18273   0.323   5.565   3.379  1.0516 -2.3180  0.3879
  162OSM   C15F18274   0.236   5.725   3.260  0.1927  0.0398  0.1308
  162OSM   H15F18275   0.155   5.720   3.336  0.5282  1.3647  0.5979
  162OSM   H15G18276   0.188   5.725   3.160 -0.3356 -0.6591  0.3716
  162OSM   C16F18277   0.303   5.862   3.282 -0.2621 -0.7822  0.0161
  162OSM   H16F18278   0.376   5.883   3.201  0.4608  1.0967  1.0944
  162OSM   H16G18279   0.361   5.856   3.376 -0.2278 -0.5767  0.0082
  162OSM   C17F18280   0.209   5.976   3.296  0.4465  0.2214 -0.8002
  162OSM   H17F18281   0.126   5.969   3.369 -0.8104  0.4062 -2.1722
  162OSM   H17G18282   0.150   5.983   3.203  0.9748  0.2716 -1.1369
  162OSM   C18F18283   0.283   6.107   3.318 -0.1098 -0.3741  0.1645
  162OSM   H18F18284   0.358   6.111   3.236  0.3610  3.3026  0.6209
  162OSM   H18G18285   0.334   6.118   3.416  0.2403  0.8490 -0.1358
  162OSM   H18H18286   0.219   6.198   3.316  2.1110  1.5176  3.8879
  163OSM      N18287   6.329   7.216   1.749  0.0941  0.1807  0.2712
  163OSM    C1518288   6.209   7.279   1.683  0.2869 -0.6851 -0.5703
  163OSM   H15A18289   6.232   7.345   1.600 -1.0657  0.1235 -0.3251
  163OSM   H15B18290   6.149   7.339   1.750  1.1190 -0.8780  0.3669
  163OSM   H15C18291   6.148   7.196   1.653 -1.7845  0.7022 -0.3894
  163OSM    C1418292   6.428   7.332   1.782 -0.1890 -0.0821  0.0728
  163OSM   H14A18293   6.441   7.403   1.701  0.0835 -0.5143 -0.2679
  163OSM   H14B18294   6.527   7.295   1.804  0.4156  0.3594 -1.7216
  163OSM   H14C18295   6.389   7.389   1.865  1.4661 -1.2439  1.7243
  163OSM    C1318296   6.294   7.140   1.867  0.0548 -0.1431  0.1105
  163OSM   H13A18297   6.244   7.196   1.944 -1.4486  0.1047 -1.0023
  163OSM   H13B18298   6.386   7.102   1.909 -0.6043 -1.6219  0.2733
  163OSM   H13C18299   6.229   7.054   1.866 -0.0353 -0.1413  2.3050
  163OSM    C1218300   6.403   7.126   1.647  0.4396  0.8336 -0.2562
  163OSM   H12A18301   6.449   7.194   1.577  2.4950  0.0574  0.2495
  163OSM   H12B18302   6.338   7.056   1.597  2.6224 -0.7496 -1.0538
  163OSM    C1118303   6.517   7.034   1.704 -0.0207 -0.4054 -0.0491
  163OSM   H11A18304   6.580   7.101   1.767  0.5557 -1.3773  0.4243
  163OSM   H11B18305   6.591   7.008   1.625  1.8907 -1.1575  1.8843
  163OSM      P18306   6.408   6.808   1.706 -0.0197 -0.0911  0.3554
  163OSM    O1318307   6.380   6.840   1.563  0.3373  0.7401 -0.5999
  163OSM    O1418308   6.484   6.684   1.747  0.0645  0.7048 -0.2302
  163OSM    O1118309   6.274   6.806   1.784  0.3387  0.2199  0.0994
  163OSM    O1218310   6.477   6.923   1.779 -0.5908  0.5241 -0.0102
  163OSM    C1S18311   6.267   6.746   1.918 -0.2033  0.0286  0.0369
  163OSM    H1S18312   6.314   6.816   1.991 -1.3988  0.5959  0.3025
  163OSM    H1T18313   6.311   6.645   1.931 -1.0227 -0.0429  2.9368
  163OSM     NF18314   6.116   6.636   2.077  0.1764 -0.1355  0.6514
  163OSM    HNF18315   6.063   6.554   2.053 -0.7102 -0.0643  2.2160
  163OSM    C2S18316   6.120   6.736   1.971  0.1445 -0.6845  0.7291
  163OSM    H2S18317   6.074   6.832   2.002 -0.9662 -0.0474 -2.5050
  163OSM    C3S18318   6.031   6.695   1.855  0.2646 -0.7211  0.7919
  163OSM    H3S18319   6.081   6.607   1.808  0.9438  0.4220 -0.7027
  163OSM     O318320   6.022   6.791   1.755 -0.2743  0.2982  0.1873
  163OSM    HO318321   6.108   6.832   1.765 -0.8046  1.6342 -0.4659
  163OSM    C4S18322   5.889   6.666   1.916 -0.0216  0.6988  0.4722
  163OSM    H4S18323   5.866   6.563   1.946 -0.5759 -0.0027 -2.1634
  163OSM    C5S18324   5.782   6.747   1.918 -0.5580  0.5269 -0.6545
  163OSM    H5S18325   5.800   6.847   1.877 -2.1368  0.2451 -2.1734
  163OSM    C6S18326   5.644   6.710   1.980 -0.0367 -0.4687 -0.1701
  163OSM    H6S18327   5.621   6.605   1.952  1.7858 -1.3549  1.3540
  163OSM    H6T18328   5.571   6.784   1.942 -1.8984 -0.8365  2.4376
  163OSM    C7S18329   5.634   6.727   2.136 -0.4950  0.4546  0.7333
  163OSM    H7S18330   5.530   6.713   2.172 -0.1897 -1.0592  1.0901
  163OSM    H7T18331   5.664   6.828   2.173  0.6642  0.7605 -0.9335
  163OSM    C8S18332   5.711   6.611   2.206  0.5963  0.1065 -0.9262
  163OSM    H8S18333   5.816   6.615   2.170  0.0252 -1.3742 -2.9672
  163OSM    H8T18334   5.669   6.524   2.152 -2.4304  0.5810  0.4605
  163OSM    C9S18335   5.681   6.594   2.358 -0.1757 -0.2041  0.0750
  163OSM    H9S18336   5.710   6.494   2.397  1.2556  0.6940  1.4380
  163OSM    H9T18337   5.573   6.611   2.376 -0.9119  0.2954 -3.8981
  163OSM   C10S18338   5.769   6.688   2.449 -0.4304  0.3587 -0.6488
  163OSM   H10S18339   5.739   6.793   2.426 -1.1209  0.6440  1.3045
  163OSM   H10T18340   5.875   6.666   2.425 -0.8393 -0.8567 -1.3993
  163OSM   C11S18341   5.760   6.660   2.602  0.0059 -0.6902 -0.1602
  163OSM   H11S18342   5.778   6.551   2.616 -1.8378 -0.8654  1.2686
  163OSM   H11T18343   5.652   6.670   2.624 -0.0098 -0.3807 -0.3769
  163OSM   C12S18344   5.844   6.756   2.685 -0.2181 -0.0477  0.2857
  163OSM   H12S18345   5.799   6.855   2.664 -1.0085 -0.4448  0.0384
  163OSM   H12T18346   5.946   6.758   2.641  0.3807  2.3092  1.6345
  163OSM   C13S18347   5.841   6.729   2.834 -0.5101 -0.0903  0.0120
  163OSM   H13S18348   5.845   6.619   2.849  1.2762 -0.1850 -0.8703
  163OSM   H13T18349   5.744   6.762   2.877 -0.4485 -0.8767  0.7692
  163OSM   C14S18350   5.960   6.798   2.907 -0.4414 -1.2035  0.1964
  163OSM   H14S18351   5.935   6.906   2.911 -3.0528 -1.7830  2.1194
  163OSM   H14T18352   6.065   6.779   2.878 -0.6916 -2.0250 -0.2163
  163OSM   C15S18353   5.959   6.754   3.059  0.3424 -0.6640  0.0379
  163OSM   H15S18354   5.994   6.649   3.057 -0.2242 -0.8968  1.2652
  163OSM   H15T18355   5.859   6.740   3.106  0.3771 -1.4790 -0.1241
  163OSM   C16S18356   6.033   6.843   3.155 -0.7559  0.3969 -0.3613
  163OSM   H16S18357   5.992   6.946   3.163  0.9258  1.0297  0.8168
  163OSM   H16T18358   6.137   6.866   3.123 -0.4231 -1.6091 -0.8390
  163OSM   C17S18359   6.046   6.777   3.293 -0.0664  0.4085 -0.6621
  163OSM   H17S18360   6.133   6.708   3.297 -0.5093 -0.1157  0.1175
  163OSM   H17T18361   5.955   6.724   3.327 -2.5682  4.2939 -0.7056
  163OSM   C18S18362   6.073   6.894   3.399 -0.5109 -0.4681 -0.1791
  163OSM   H18S18363   5.990   6.967   3.405  1.0253  1.3220 -0.0267
  163OSM   H18T18364   6.167   6.946   3.371 -1.4247  0.8870 -0.8387
  163OSM   H18U18365   6.085   6.843   3.497  1.1334  0.2368  0.0174
  163OSM    C1F18366   6.167   6.662   2.198  0.1356 -0.6248 -0.2929
  163OSM     OF18367   6.186   6.779   2.232 -0.4001 -0.3658 -0.0812
  163OSM    C2F18368   6.201   6.546   2.299 -0.4267 -0.1013 -0.2134
  163OSM    H2F18369   6.301   6.509   2.267 -0.6628  1.3517 -3.0069
  163OSM    H2G18370   6.128   6.464   2.282 -1.1577  0.5781 -0.3884
  163OSM    C3F18371   6.198   6.603   2.440  0.6612  0.3978 -0.5155
  163OSM    H3F18372   6.098   6.652   2.443  0.9952  1.2234 -1.8032
  163OSM    H3G18373   6.285   6.671   2.452  2.2974 -1.6242 -0.4938
  163OSM    C4F18374   6.210   6.490   2.541 -0.1196  0.1313  0.0754
  163OSM    H4F18375   6.297   6.429   2.509 -0.1899 -0.3035  0.6961
  163OSM    H4G18376   6.122   6.423   2.537 -0.3171  0.2674  1.6339
  163OSM    C5F18377   6.229   6.548   2.684 -0.7819  0.1538 -0.1492
  163OSM    H5F18378   6.132   6.568   2.733 -1.3830 -0.3505 -1.0935
  163OSM    H5G18379   6.289   6.639   2.665 -1.7636  0.4067 -2.4364
  163OSM    C6F18380   6.305   6.459   2.787  0.0370 -0.1877 -0.3218
  163OSM    H6F18381   6.409   6.446   2.751 -0.5020 -1.0516 -1.6149
  163OSM    H6G18382   6.257   6.361   2.805  1.0372 -0.3306  1.9060
  163OSM    C7F18383   6.316   6.515   2.925  0.0877  0.0136 -0.5366
  163OSM    H7F18384   6.218   6.558   2.957  0.2312 -0.7706  1.0594
  163OSM    H7G18385   6.389   6.598   2.929  3.4910 -2.6741 -1.4014
  163OSM    C8F18386   6.340   6.409   3.039 -0.1702  0.0415 -0.5760
  163OSM    H8F18387   6.421   6.342   3.003 -1.1623 -1.1450 -0.6866
  163OSM    H8G18388   6.251   6.343   3.053 -0.7451  0.7871 -0.6246
  163OSM    C9F18389   6.382   6.478   3.163  0.0432  0.1578 -0.3661
  163OSM    H9F18390   6.424   6.577   3.139 -1.3618  0.1329 -3.3899
  163OSM   C10F18391   6.395   6.416   3.286  0.4750 -0.2885  0.4083
  163OSM   H10F18392   6.433   6.482   3.365 -1.0688 -0.8712  1.6896
  163OSM   C11F18393   6.375   6.274   3.326  0.9881 -0.3541  0.1986
  163OSM   H11F18394   6.463   6.216   3.291  2.1155  1.9780 -1.0868
  163OSM   H11G18395   6.286   6.232   3.276  0.4813 -0.0502  0.8190
  163OSM   C12F18396   6.343   6.265   3.476  0.6113  0.5166  0.0249
  163OSM   H12F18397   6.305   6.163   3.499  0.1130  0.7228  0.1274
  163OSM   H12G18398   6.264   6.337   3.504  0.6874  0.0349  1.5805
  163OSM   C13F18399   6.469   6.288   3.564 -0.0884  0.3588 -0.2910
  163OSM   H13F18400   6.505   6.391   3.542 -0.4296  0.1895 -1.7381
  163OSM   H13G18401   6.548   6.211   3.554 -2.0748 -1.8581  0.0473
  163OSM   C14F18402   6.432   6.294   3.712  0.1838 -0.4383 -0.5345
  163OSM   H14F18403   6.385   6.200   3.747  0.7526 -0.2798  0.7157
  163OSM   H14G18404   6.361   6.379   3.719  0.7845 -0.0376  1.4539
  163OSM   C15F18405   6.550   6.317   3.805 -0.3002 -0.4568 -0.3286
  163OSM   H15F18406   6.609   6.406   3.772  0.5518 -0.6837  0.5256
  163OSM   H15G18407   6.617   6.229   3.802 -0.2739 -0.5969  2.1513
  163OSM   C16F18408   6.513   6.325   3.958  0.2812  0.2874  0.2371
  163OSM   H16F18409   6.445   6.412   3.973 -0.2093 -0.0382 -0.0799
  163OSM   H16G18410   6.602   6.350   4.020 -1.1099  3.1845  1.2809
  163OSM   C17F18411   6.430   6.209   4.017  0.3563  0.5773  0.2974
  163OSM   H17F18412   6.475   6.113   3.984 -1.4781 -0.6440  1.1841
  163OSM   H17G18413   6.324   6.209   3.984 -0.1926 -0.8313  1.9546
  163OSM   C18F18414   6.444   6.215   4.176  0.2785  0.1390 -0.3252
  163OSM   H18F18415   6.370   6.290   4.212 -0.0626 -0.2298 -0.2552
  163OSM   H18G18416   6.542   6.255   4.211 -0.4569 -0.3210  2.4680
  163OSM   H18H18417   6.425   6.116   4.221 -0.9642  0.0797 -0.9357
  164OSM      N18418   0.590   0.373   1.919  0.4930 -0.1558  0.3394
  164OSM    C1518419   0.457   0.339   1.858 -0.1441 -0.3039 -0.2342
  164OSM   H15A18420   0.441   0.232   1.858  0.7737 -0.6190  3.6337
  164OSM   H15B18421   0.467   0.370   1.755  0.5393  0.5358  0.0738
  164OSM   H15C18422   0.374   0.386   1.909  0.3150  0.7354 -0.4339
  164OSM    C1418423   0.624   0.518   1.896 -0.4133 -0.5264  0.6745
  164OSM   H14A18424   0.543   0.586   1.919  0.3056 -0.2989  2.6909
  164OSM   H14B18425   0.661   0.538   1.796  1.4689  0.8971  1.5983
  164OSM   H14C18426   0.701   0.554   1.962  0.1071 -0.0947 -0.1452
  164OSM    C1318427   0.581   0.358   2.070 -0.6666  0.8928 -0.5380
  164OSM   H13A18428   0.550   0.259   2.099 -0.6612  0.6129 -1.4527
  164OSM   H13B18429   0.509   0.427   2.112  0.5439  2.1464 -0.4253
  164OSM   H13C18430   0.669   0.391   2.123 -1.5606  1.8123  0.4298
  164OSM    C1218431   0.702   0.278   1.871 -0.2772 -0.3044 -0.0032
  164OSM   H12A18432   0.669   0.184   1.914 -1.0527 -0.2149 -0.3810
  164OSM   H12B18433   0.796   0.293   1.922 -0.2878 -1.4112  0.3818
  164OSM    C1118434   0.743   0.267   1.724  0.2405 -0.1693 -0.3974
  164OSM   H11A18435   0.651   0.236   1.669 -0.9298  0.2285  1.2724
  164OSM   H11B18436   0.805   0.177   1.710 -2.4323 -1.8031 -3.0582
  164OSM      P18437   0.947   0.422   1.672 -0.1182  0.0425  0.2644
  164OSM    O1318438   1.011   0.317   1.587 -0.6791  0.1972  0.6756
  164OSM    O1418439   0.971   0.560   1.632  0.5429  0.6580  0.6050
  164OSM    O1118440   0.999   0.400   1.817  0.4348 -0.1423 -0.2375
  164OSM    O1218441   0.789   0.396   1.675  0.5209 -0.2080  0.1253
  164OSM    C1S18442   0.980   0.494   1.925 -0.2662 -0.1514  0.3619
  164OSM    H1S18443   0.880   0.480   1.971 -0.5553  0.1871 -0.1543
  164OSM    H1T18444   0.989   0.600   1.896 -3.2672  0.2450  0.5818
  164OSM     NF18445   1.049   0.530   2.159 -0.3999 -0.2808 -0.3507
  164OSM    HNF18446   1.071   0.622   2.191 -1.6108  0.1627 -0.7427
  164OSM    C2S18447   1.095   0.471   2.030 -0.5817  0.7185  0.4408
  164OSM    H2S18448   1.106   0.361   2.042  0.8745  0.7805 -0.0407
  164OSM    C3S18449   1.231   0.526   1.965  0.0739  0.9940 -0.4798
  164OSM    H3S18450   1.216   0.632   1.936  0.8134  1.4581  0.7752
  164OSM     O318451   1.266   0.460   1.845  0.5250 -0.3067  0.4632
  164OSM    HO318452   1.185   0.420   1.814 -0.4265  3.0120 -1.9100
  164OSM    C4S18453   1.343   0.531   2.066  0.0277  0.1217 -0.1882
  164OSM    H4S18454   1.351   0.633   2.106  0.3197  0.1803 -0.3970
  164OSM    C5S18455   1.423   0.433   2.109 -0.1127 -0.0115 -0.4694
  164OSM    H5S18456   1.400   0.331   2.074 -2.1189 -0.1529  1.0535
  164OSM    C6S18457   1.533   0.459   2.213  0.5313 -0.1556  0.3965
  164OSM    H6S18458   1.520   0.560   2.258 -0.2282 -0.3196  0.5672
  164OSM    H6T18459   1.626   0.463   2.153  0.5849  0.4159  0.5162
  164OSM    C7S18460   1.539   0.345   2.322  0.8058  0.1697  0.3797
  164OSM    H7S18461   1.629   0.382   2.376  0.7608  2.5701 -1.0231
  164OSM    H7T18462   1.554   0.242   2.284  2.1243  0.4135  0.1634
  164OSM    C8S18463   1.422   0.336   2.415  0.1469 -0.2246 -1.0275
  164OSM    H8S18464   1.322   0.314   2.372 -2.0512  1.2496  2.8249
  164OSM    H8T18465   1.398   0.434   2.461 -0.2484 -0.9441  0.3271
  164OSM    C9S18466   1.438   0.241   2.539  0.4795  0.0389  0.0109
  164OSM    H9S18467   1.527   0.282   2.592 -0.2540  0.3261  1.0480
  164OSM    H9T18468   1.452   0.141   2.494 -0.9759 -1.5057  2.7753
  164OSM   C10S18469   1.311   0.249   2.624  0.2618  0.1509 -0.1479
  164OSM   H10S18470   1.242   0.165   2.599  0.1472  0.1096  0.3107
  164OSM   H10T18471   1.258   0.346   2.607 -0.6201 -0.2814  0.0777
  164OSM   C11S18472   1.344   0.241   2.775 -0.5476 -0.9171 -0.0911
  164OSM   H11S18473   1.399   0.325   2.822  0.5935 -1.6374 -0.0955
  164OSM   H11T18474   1.420   0.162   2.795  0.0385 -0.0259  1.3060
  164OSM   C12S18475   1.235   0.204   2.875 -0.1918 -0.1203 -0.4264
  164OSM   H12S18476   1.196   0.105   2.843  0.2216 -0.3078 -0.3575
  164OSM   H12T18477   1.155   0.280   2.867 -0.5590 -0.5525 -0.9757
  164OSM   C13S18478   1.292   0.187   3.020 -0.3524 -0.2935 -0.7766
  164OSM   H13S18479   1.335   0.286   3.047 -1.5508 -0.0562  0.3953
  164OSM   H13T18480   1.381   0.122   3.007  0.3139  0.1319  1.2267
  164OSM   C14S18481   1.171   0.144   3.108 -0.5894 -0.2167  0.0441
  164OSM   H14S18482   1.117   0.059   3.062 -0.8409 -1.0056  1.7500
  164OSM   H14T18483   1.100   0.230   3.104 -0.0731  0.1942 -0.6903
  164OSM   C15S18484   1.215   0.095   3.243  0.4046 -0.8930  0.6725
  164OSM   H15S18485   1.275   0.169   3.300 -0.2806 -1.7155  2.5543
  164OSM   H15T18486   1.284   0.009   3.228  2.5662  0.8204  0.3278
  164OSM   C16S18487   1.102   0.054   3.329  0.3055 -0.6697 -0.3646
  164OSM   H16S18488   1.045  -0.029   3.283 -0.6267  1.4405 -3.3331
  164OSM   H16T18489   1.030   0.138   3.341 -1.1289 -1.8590 -0.4066
  164OSM   C17S18490   1.154   0.004   3.469  0.1846  0.6030 -0.1254
  164OSM   H17S18491   1.207   0.088   3.519 -0.2019  0.9042 -0.2187
  164OSM   H17T18492   1.235  -0.071   3.460 -0.3271  0.2444 -2.2479
  164OSM   C18S18493   1.030  -0.039   3.552 -0.2442 -0.4482  0.2495
  164OSM   H18S18494   0.968   0.049   3.578  0.7707  0.2406  0.3910
  164OSM   H18T18495   1.065  -0.075   3.651  1.4138 -2.3378 -0.9481
  164OSM   H18U18496   0.981  -0.131   3.513  0.4035 -0.6116 -0.2072
  164OSM    C1F18497   0.952   0.471   2.227 -0.6532 -0.1633  0.1179
  164OSM     OF18498   0.893   0.371   2.186  0.3177 -0.6987 -0.1429
  164OSM    C2F18499   0.909   0.536   2.365 -0.0731 -0.3245  0.0822
  164OSM    H2F18500   0.808   0.498   2.390 -0.0582 -1.1250 -1.0209
  164OSM    H2G18501   0.899   0.646   2.349  1.2823 -0.1386  0.3813
  164OSM    C3F18502   1.000   0.499   2.488  0.1799 -0.2780  0.3949
  164OSM    H3F18503   1.100   0.528   2.449 -1.0479 -0.8434 -3.6007
  164OSM    H3G18504   1.016   0.389   2.493  1.8304 -0.1191 -0.5497
  164OSM    C4F18505   0.957   0.555   2.622 -0.3815  0.7624 -0.2472
  164OSM    H4F18506   0.850   0.537   2.649 -0.2725 -0.1353 -0.3858
  164OSM    H4G18507   0.963   0.666   2.630  0.4712  0.6213  1.3954
  164OSM    C5F18508   1.051   0.517   2.736 -0.0934 -0.1014  0.4492
  164OSM    H5F18509   1.149   0.569   2.726  0.1863 -0.9492 -1.9004
  164OSM    H5G18510   1.063   0.407   2.732  0.0416 -0.0590 -1.9730
  164OSM    C6F18511   0.999   0.567   2.876 -0.2699  0.3236 -0.1217
  164OSM    H6F18512   0.889   0.553   2.879 -0.0884 -1.6628 -0.9033
  164OSM    H6G18513   0.998   0.678   2.875 -0.7394  0.3341 -1.5089
  164OSM    C7F18514   1.061   0.500   3.003  0.0226  0.3551 -0.3445
  164OSM    H7F18515   1.171   0.501   2.991  0.0524 -0.4849 -0.2064
  164OSM    H7G18516   1.017   0.399   3.009  0.5253  0.1370 -0.2958
  164OSM    C8F18517   1.017   0.565   3.133 -0.1185 -0.2354  0.2378
  164OSM    H8F18518   0.910   0.590   3.122 -0.3470 -1.2498  0.0567
  164OSM    H8G18519   1.058   0.668   3.134  2.1855 -1.0579 -0.9474
  164OSM    C9F18520   1.046   0.501   3.263  0.1624  0.2335  0.3420
  164OSM    H9F18521   1.142   0.518   3.315  0.0867  0.2232  0.4839
  164OSM   C10F18522   0.960   0.423   3.325 -0.4807 -1.0227  0.1246
  164OSM   H10F18523   0.988   0.384   3.425 -0.1972  0.1130  0.5017
  164OSM   C11F18524   0.816   0.404   3.289  1.0052  0.4702  0.2883
  164OSM   H11F18525   0.794   0.298   3.267  1.8920  0.1482  0.9268
  164OSM   H11G18526   0.786   0.462   3.199 -0.6479 -1.0644 -0.1944
  164OSM   C12F18527   0.719   0.448   3.397 -0.0131 -0.1574  0.3235
  164OSM   H12F18528   0.617   0.462   3.355  0.1272  2.8223  0.8099
  164OSM   H12G18529   0.742   0.550   3.433 -0.5808  0.1177 -0.0785
  164OSM   C13F18530   0.704   0.361   3.521 -0.3664 -0.3004  0.5995
  164OSM   H13F18531   0.785   0.288   3.542 -0.9191 -1.1982 -0.2923
  164OSM   H13G18532   0.615   0.297   3.502 -1.2390  1.3381 -1.1365
  164OSM   C14F18533   0.680   0.441   3.648 -0.4984  0.0325  0.0286
  164OSM   H14F18534   0.599   0.514   3.630  0.0398  0.0849 -2.4621
  164OSM   H14G18535   0.765   0.511   3.667  0.2521 -0.9984  0.6319
  164OSM   C15F18536   0.663   0.349   3.774  0.3663 -0.1936  0.8213
  164OSM   H15F18537   0.606   0.259   3.741 -1.5163  1.1399  0.2646
  164OSM   H15G18538   0.613   0.412   3.851  1.1793 -0.0666  1.2495
  164OSM   C16F18539   0.797   0.317   3.836 -0.0270  0.3692 -0.5579
  164OSM   H16F18540   0.846   0.411   3.870  0.9046 -0.6582  1.0279
  164OSM   H16G18541   0.862   0.269   3.760 -1.6119 -0.2820 -1.5547
  164OSM   C17F18542   0.771   0.216   3.949  0.0448  0.1488 -0.4410
  164OSM   H17F18543   0.870   0.194   3.994  0.2281  0.7864 -0.5200
  164OSM   H17G18544   0.735   0.125   3.897  2.4207  0.9659 -3.8619
  164OSM   C18F18545   0.675   0.255   4.064  0.3920  0.0558 -0.5898
  164OSM   H18F18546   0.684   0.197   4.158  2.5103  1.3550  0.0636
  164OSM   H18G18547   0.573   0.250   4.021  0.3199  1.0417 -0.5696
  164OSM   H18H18548   0.687   0.365   4.080  1.4634  0.0610 -1.3305
  165SAPS     N18549   5.306   4.974   6.215  0.1388  0.3521 -0.1172
  165SAPS   HN118550   5.394   4.929   6.182  0.7325  2.0827 -1.0030
  165SAPS   HN218551   5.294   5.050   6.146  1.5272 -1.2237 -2.2033
  165SAPS   HN318552   5.337   5.013   6.307 -1.2073 -1.0552  0.9876
  165SAPS   C1218553   5.186   4.882   6.214  0.0694  0.1703  0.4544
  165SAPS  H12A18554   5.182   4.834   6.310 -0.0744 -1.7662 -0.4812
  165SAPS   C1318555   5.047   4.958   6.205 -0.3204 -0.2979 -0.3697
  165SAPS  O13A18556   5.042   5.085   6.213 -0.3627  0.5641 -0.3707
  165SAPS  O13B18557   4.942   4.893   6.244 -0.0733 -0.4392 -0.2322
  165SAPS   C1118558   5.209   4.794   6.085  0.5535 -0.0789 -0.6329
  165SAPS  H11A18559   5.218   4.860   5.996 -3.9289 -0.7067 -1.7897
  165SAPS  H11B18560   5.113   4.741   6.071  1.0865 -0.6753 -2.2633
  165SAPS     P18561   5.386   4.628   5.975  0.5838 -0.3396  0.2635
  165SAPS   O1318562   5.528   4.671   5.982  0.1532  0.9226  0.1877
  165SAPS   O1418563   5.348   4.488   5.989  0.5513 -0.0842  0.5257
  165SAPS   O1218564   5.315   4.699   6.101  0.1112 -0.1944  0.1260
  165SAPS   O1118565   5.318   4.695   5.847  0.8451  0.0328 -0.0005
  165SAPS    C118566   5.215   4.620   5.777 -0.4273 -0.4095 -0.1707
  165SAPS    HA18567   5.246   4.516   5.753 -2.3340 -1.1595  0.4089
  165SAPS    HB18568   5.134   4.602   5.851 -0.1620 -0.7080  0.0518
  165SAPS    C218569   5.172   4.682   5.634 -0.8703 -0.2792 -0.1515
  165SAPS    HS18570   5.101   4.611   5.587 -0.0704 -0.2474 -1.4354
  165SAPS   O2118571   5.292   4.698   5.556  0.0909 -0.3450 -0.2803
  165SAPS   C2118572   5.327   4.593   5.481 -0.3259  0.8963  0.0369
  165SAPS   O2218573   5.279   4.483   5.492 -0.0448  0.1896 -0.5789
  165SAPS   C2218574   5.434   4.636   5.378 -0.6456 -0.5370 -0.2656
  165SAPS   H2R18575   5.434   4.747   5.370  1.3354 -0.2196  2.5504
  165SAPS   H2S18576   5.538   4.617   5.412 -0.9348 -0.8602  0.4704
  165SAPS    C318577   5.113   4.824   5.649 -0.0566  0.0398  0.0382
  165SAPS    HX18578   5.196   4.894   5.674  0.1751  0.3224 -1.4565
  165SAPS    HY18579   5.048   4.821   5.739 -0.3790 -0.7109 -0.2068
  165SAPS   O3118580   5.032   4.857   5.532 -0.5759 -0.3639 -0.3866
  165SAPS   C3118581   5.078   4.956   5.467  0.0331 -0.5993  0.2706
  165SAPS   O3218582   5.174   5.027   5.500  0.3670  0.3204  0.2944
  165SAPS   C3218583   4.984   4.979   5.345  0.0684 -0.4872  0.2311
  165SAPS   H2X18584   5.025   5.065   5.288  0.2556 -0.6432  0.1307
  165SAPS   H2Y18585   4.892   5.021   5.390 -0.2191  0.7367 -1.3924
  165SAPS   C2318586   5.410   4.571   5.243  0.0350  0.4326 -0.7919
  165SAPS   H3R18587   5.307   4.587   5.204  0.1165  0.7431 -0.8869
  165SAPS   H3S18588   5.425   4.462   5.253  1.1383  0.4613 -1.9928
  165SAPS   C2418589   5.495   4.626   5.128  0.0359 -0.4352 -0.2422
  165SAPS   H4R18590   5.481   4.558   5.040  1.0581 -1.4089  0.3221
  165SAPS   H4S18591   5.601   4.614   5.159  0.1291  2.4803  0.8327
  165SAPS   C2518592   5.471   4.777   5.103  0.2046 -0.1164  0.1504
  165SAPS   H5R18593   5.415   4.829   5.181 -0.3101 -0.9019  0.3177
  165SAPS   C2618594   5.526   4.838   4.999 -0.1178 -0.2950 -0.3724
  165SAPS   H6R18595   5.514   4.947   4.984  3.6234  0.8513  3.2470
  165SAPS   C2718596   5.608   4.774   4.892 -0.1291  0.3139  0.1663
  165SAPS   H7R18597   5.653   4.680   4.932  0.5577  0.2161 -0.8126
  165SAPS   H7S18598   5.694   4.837   4.861 -2.0641  2.7456 -0.5873
  165SAPS   C2818599   5.524   4.735   4.775  0.2216  0.2563  0.1756
  165SAPS   H8R18600   5.434   4.676   4.798 -0.7521  1.8907  0.7711
  165SAPS   C2918601   5.533   4.793   4.646  0.5061 -0.3343  0.1040
  165SAPS   H9R18602   5.457   4.764   4.572 -1.5265 -1.4981  2.4717
  165SAPS  C21018603   5.635   4.896   4.611  0.0139  0.6537 -0.0636
  165SAPS  H10R18604   5.661   4.873   4.505  0.0483 -0.6753  0.2081
  165SAPS  H10S18605   5.732   4.875   4.660  0.7195 -0.2597 -1.7488
  165SAPS  C21118606   5.605   5.039   4.622  0.5647  0.6775 -0.4544
  165SAPS  H11R18607   5.644   5.079   4.717 -0.7330 -0.2478  0.5136
  165SAPS  C21218608   5.560   5.122   4.526  0.4747 -1.1436  0.0297
  165SAPS  H12R18609   5.535   5.225   4.555  1.7878 -0.5222 -0.9163
  165SAPS  C21318610   5.524   5.091   4.382  0.4892  0.1473 -0.3631
  165SAPS  H13R18611   5.415   5.067   4.383  0.5795 -0.2624  0.6599
  165SAPS  H13S18612   5.575   4.994   4.361  1.8014  0.2711  1.9008
  165SAPS  C21418613   5.555   5.199   4.284 -0.2105 -0.2702 -0.0079
  165SAPS  H14R18614   5.478   5.270   4.249  0.3900  0.4421  0.0735
  165SAPS  C21518615   5.674   5.204   4.226 -0.0141  0.0985 -0.0240
  165SAPS  H15R18616   5.682   5.276   4.143  1.1993 -0.8411 -0.7670
  165SAPS  C21618617   5.789   5.103   4.242 -0.0099 -0.3210  0.4767
  165SAPS  H16R18618   5.765   5.013   4.183 -0.5136 -0.3653  0.7404
  165SAPS  H16S18619   5.811   5.079   4.348 -4.0004 -2.9095  0.9565
  165SAPS  C21718620   5.922   5.140   4.177  0.2543  0.2744 -0.4045
  165SAPS  H17R18621   5.954   5.236   4.224  2.7495 -0.3330 -0.7144
  165SAPS  H17S18622   5.907   5.170   4.070  0.8841 -0.6308 -0.7578
  165SAPS  C21818623   6.025   5.031   4.198 -0.2956 -0.3009  0.0382
  165SAPS  H18R18624   5.980   4.948   4.140  0.9408 -0.7102 -0.3523
  165SAPS  H18S18625   6.031   5.008   4.306  0.5631 -0.8090 -0.1115
  165SAPS  C21918626   6.167   5.049   4.147  0.3727 -0.5790 -0.1700
  165SAPS  H19R18627   6.223   5.117   4.214  2.4494 -0.2172 -2.1523
  165SAPS  H19S18628   6.171   5.099   4.048  1.1879  0.1743  0.2382
  165SAPS  C22018629   6.242   4.918   4.130  0.6145  0.5879  0.1439
  165SAPS  H20R18630   6.266   4.874   4.229 -0.3654  2.6837  1.3984
  165SAPS  H20S18631   6.341   4.935   4.082  1.5811  0.2453  1.9397
  165SAPS  H20T18632   6.194   4.836   4.073 -2.5457  2.2802  0.1074
  165SAPS   C3318633   4.951   4.864   5.248 -0.3681 -0.7228  0.0874
  165SAPS   H3X18634   4.861   4.891   5.189  1.3740  1.2148 -1.8536
  165SAPS   H3Y18635   4.923   4.769   5.299 -1.2149 -1.1190 -1.0735
  165SAPS   C3418636   5.066   4.848   5.144  0.3475 -0.0615 -0.1436
  165SAPS   H4X18637   5.159   4.828   5.200  1.0649  1.7756 -0.6032
  165SAPS   H4Y18638   5.088   4.951   5.108  0.7242 -1.0996 -3.1364
  165SAPS   C3518639   5.035   4.766   5.018 -0.1508  0.4960 -0.1026
  165SAPS   H5X18640   5.012   4.666   5.062 -3.3423  1.9910  1.9770
  165SAPS   H5Y18641   5.129   4.758   4.959  0.5042  1.7176  0.7333
  165SAPS   C3618642   4.921   4.810   4.930 -0.6802 -0.1201  0.3042
  165SAPS   H6X18643   4.943   4.909   4.885 -1.3783 -0.2231 -0.2848
  165SAPS   H6Y18644   4.827   4.823   4.988 -1.0957 -1.5624 -0.0125
  165SAPS   C3718645   4.889   4.719   4.808 -0.1057 -0.7681 -0.1385
  165SAPS   H7X18646   4.969   4.712   4.731 -0.9694 -0.4446 -1.0877
  165SAPS   H7Y18647   4.798   4.756   4.756 -0.5287 -1.2180  0.2704
  165SAPS   C3818648   4.854   4.573   4.854 -0.5903  0.3212 -0.7246
  165SAPS   H8X18649   4.767   4.563   4.923 -0.7461  0.2530 -0.9295
  165SAPS   H8Y18650   4.945   4.535   4.906  0.4669  0.4024 -2.4454
  165SAPS   C3918651   4.822   4.475   4.733  0.8095  0.3298 -0.2364
  165SAPS   H9X18652   4.763   4.385   4.761  0.4904  0.6384  0.0919
  165SAPS   H9Y18653   4.909   4.443   4.672  1.1409  1.4034 -0.3349
  165SAPS  C31018654   4.728   4.546   4.638 -0.1712 -0.3642  0.4271
  165SAPS  H10X18655   4.794   4.623   4.592  2.9969 -2.2799  1.4098
  165SAPS  H10Y18656   4.635   4.595   4.676 -1.3150  0.4119 -3.0429
  165SAPS  C31118657   4.669   4.449   4.533 -0.6882 -0.3133  0.0553
  165SAPS  H11X18658   4.611   4.379   4.597 -0.8148  2.5659  3.3785
  165SAPS  H11Y18659   4.756   4.401   4.484  0.2940  2.0161 -0.6063
  165SAPS  C31218660   4.597   4.530   4.419  0.1359  0.6095  0.0654
  165SAPS  H12X18661   4.664   4.609   4.379 -0.4543  1.0714 -0.0245
  165SAPS  H12Y18662   4.501   4.578   4.447 -1.0407 -0.4369 -1.9651
  165SAPS  C31318663   4.568   4.444   4.300 -0.4158 -0.1691 -0.7416
  165SAPS  H13X18664   4.505   4.357   4.329  0.9589 -1.9996 -2.9026
  165SAPS  H13Y18665   4.662   4.393   4.268  0.1232 -0.0510  0.5603
  165SAPS  C31418666   4.500   4.523   4.188 -0.3821 -0.0567  0.8174
  165SAPS  H14X18667   4.548   4.623   4.179 -0.8113  0.0710 -0.2496
  165SAPS  H14Y18668   4.393   4.545   4.210 -0.7996  1.0220 -1.9049
  165SAPS  C31518669   4.500   4.448   4.054 -1.3139  0.2818 -0.6483
  165SAPS  H15X18670   4.419   4.491   3.992  0.4677 -0.0809 -3.4438
  165SAPS  H15Y18671   4.468   4.344   4.074 -2.5149  1.1273  2.3783
  165SAPS  C31618672   4.639   4.461   3.983  0.0614  0.8102  0.8404
  165SAPS  H16X18673   4.705   4.394   4.042  1.2848  0.1013 -1.2278
  165SAPS  H16Y18674   4.674   4.567   3.984  0.6045  0.6482 -0.2409
  165SAPS  C31718675   4.635   4.404   3.834  0.3636  0.4625  0.1631
  165SAPS  H17X18676   4.570   4.471   3.773 -0.2870  1.0854  1.5162
  165SAPS  H17Y18677   4.586   4.305   3.834  0.1530  0.5534  1.3619
  165SAPS  C31818678   4.766   4.398   3.760 -0.5778 -0.2171  0.7823
  165SAPS  H18X18679   4.763   4.359   3.656  0.5099 -2.6900  1.5955
  165SAPS  H18Y18680   4.842   4.334   3.810 -0.4610  0.4258  1.4534
  165SAPS  H18Z18681   4.806   4.501   3.755 -0.8989 -0.0765  1.0222
  166SAPS     N18682   2.073   4.959   5.687  0.2325 -0.4563  0.0218
  166SAPS   HN118683   2.137   4.940   5.608  0.3663  0.9575 -0.2387
  166SAPS   HN218684   2.003   5.033   5.661  1.7832 -0.3795 -5.0566
  166SAPS   HN318685   2.130   5.002   5.763 -1.4248  0.1818  0.9742
  166SAPS   C1218686   2.007   4.834   5.732 -0.7523 -0.5884 -0.5986
  166SAPS  H12A18687   1.931   4.809   5.661 -1.1562  0.2432 -0.4692
  166SAPS   C1318688   2.106   4.713   5.731  0.4235  0.1162  0.0491
  166SAPS  O13A18689   2.227   4.725   5.698 -0.4046 -0.4381  0.1843
  166SAPS  O13B18690   2.056   4.607   5.778 -0.0301  0.4022 -0.1645
  166SAPS   C1118691   1.945   4.848   5.878  0.2640  0.7437  0.0645
  166SAPS  H11A18692   2.017   4.843   5.962 -0.2401 -0.1437  0.4638
  166SAPS  H11B18693   1.888   4.753   5.888 -0.0524  0.9004 -0.2025
  166SAPS     P18694   1.710   4.974   5.844 -0.4373 -0.0898  0.4483
  166SAPS   O1318695   1.610   4.958   5.952 -0.6008 -0.1332  0.3583
  166SAPS   O1418696   1.699   5.091   5.754 -0.3550  0.3064 -0.1582
  166SAPS   O1218697   1.858   4.960   5.906 -0.0935  0.3978 -0.0000
  166SAPS   O1118698   1.702   4.850   5.750  0.5500 -0.1067  0.2036
  166SAPS    C118699   1.596   4.806   5.662 -0.5375 -0.5281  0.9572
  166SAPS    HA18700   1.533   4.721   5.695 -0.4061 -0.3317  1.7186
  166SAPS    HB18701   1.524   4.888   5.643 -1.8645 -1.9421 -0.4458
  166SAPS    C218702   1.660   4.783   5.519 -0.3278  0.1441 -0.2408
  166SAPS    HS18703   1.754   4.725   5.531 -0.0615  0.3779 -1.0930
  166SAPS   O2118704   1.681   4.908   5.450  0.0708 -0.0183 -0.1043
  166SAPS   C2118705   1.805   4.930   5.398  0.0752  0.4197 -0.2420
  166SAPS   O2218706   1.902   4.859   5.424 -0.0193  0.0816  0.1176
  166SAPS   C2218707   1.816   5.051   5.319 -0.0944 -0.2276 -0.6633
  166SAPS   H2R18708   1.755   5.044   5.226 -0.9123  2.8320 -0.4665
  166SAPS   H2S18709   1.780   5.128   5.390 -0.8164 -0.3755 -0.8517
  166SAPS    C318710   1.577   4.687   5.428  0.3007 -0.5583 -0.5522
  166SAPS    HX18711   1.478   4.738   5.421  0.7857  0.3147 -1.3324
  166SAPS    HY18712   1.564   4.590   5.481 -0.0638 -0.6383 -0.7865
  166SAPS   O3118713   1.614   4.677   5.289  0.1282  0.2601  0.0529
  166SAPS   C3118714   1.725   4.601   5.273  1.0435 -0.2651 -0.3914
  166SAPS   O3218715   1.768   4.524   5.353 -0.2750  0.6254 -0.5538
  166SAPS   C3218716   1.788   4.628   5.136 -0.0410  0.0089 -0.2586
  166SAPS   H2X18717   1.745   4.726   5.105 -0.7728  0.4552  1.9996
  166SAPS   H2Y18718   1.735   4.552   5.074 -1.5170  1.3679 -0.7392
  166SAPS   C2318719   1.965   5.069   5.267 -0.1908  0.8406 -0.3092
  166SAPS   H3R18720   1.991   4.992   5.191 -1.1974 -2.6232  2.5742
  166SAPS   H3S18721   2.042   5.063   5.347 -0.3082 -1.6413 -0.2784
  166SAPS   C2418722   1.978   5.205   5.196  0.7555 -0.8559 -0.2985
  166SAPS   H4R18723   2.085   5.224   5.176  0.7681 -0.5277  0.0788
  166SAPS   H4S18724   1.935   5.277   5.269  1.3944  0.5656 -1.2800
  166SAPS   C2518725   1.886   5.211   5.076 -0.0532  0.1291 -0.1176
  166SAPS   H5R18726   1.780   5.199   5.103  0.2672 -0.7839  0.7914
  166SAPS   C2618727   1.916   5.216   4.945 -0.1684  0.2670  0.0951
  166SAPS   H6R18728   1.840   5.213   4.865  1.7479  2.3193 -1.9319
  166SAPS   C2718729   2.053   5.223   4.880 -0.0660  0.4259 -0.5400
  166SAPS   H7R18730   2.073   5.130   4.823 -0.5870  0.0978 -0.1992
  166SAPS   H7S18731   2.131   5.235   4.959 -1.5261  0.7920  0.8988
  166SAPS   C2818732   2.036   5.338   4.783 -0.4157 -0.3245 -0.1511
  166SAPS   H8R18733   2.036   5.438   4.830 -1.4566 -0.2517 -0.2820
  166SAPS   C2918734   2.013   5.329   4.647  0.3190 -0.0989 -0.5050
  166SAPS   H9R18735   1.996   5.415   4.580 -2.0600 -1.1700 -1.3581
  166SAPS  C21018736   1.988   5.200   4.571  0.6300 -0.2862  0.0340
  166SAPS  H10R18737   2.024   5.107   4.620 -0.2129 -1.0641 -0.7927
  166SAPS  H10S18738   2.056   5.201   4.483  0.6198  0.9584  0.0286
  166SAPS  C21118739   1.838   5.196   4.535 -0.8085  0.4100 -0.8332
  166SAPS  H11R18740   1.764   5.188   4.616 -1.7396  2.3668 -1.4332
  166SAPS  C21218741   1.779   5.185   4.417  0.7413  0.0563  0.0047
  166SAPS  H12R18742   1.671   5.164   4.416  1.0992 -2.3070  1.6025
  166SAPS  C21318743   1.847   5.203   4.282  0.1148  1.2114  0.6042
  166SAPS  H13R18744   1.783   5.158   4.204  0.4721  0.5327  0.6915
  166SAPS  H13S18745   1.940   5.142   4.280 -0.3589  0.4870 -0.1506
  166SAPS  C21418746   1.875   5.348   4.252  0.2111 -0.0677 -0.4708
  166SAPS  H14R18747   1.944   5.396   4.323 -0.9404  1.9453 -0.6293
  166SAPS  C21518748   1.847   5.419   4.142 -0.7778 -0.4635  0.5181
  166SAPS  H15R18749   1.859   5.529   4.146 -0.4593 -0.5435  3.2372
  166SAPS  C21618750   1.765   5.366   4.033  0.1330 -0.5248 -0.0971
  166SAPS  H16R18751   1.692   5.440   3.991 -0.1326  0.1107  1.4210
  166SAPS  H16S18752   1.706   5.275   4.053 -1.8875  0.4663 -1.1454
  166SAPS  C21718753   1.856   5.313   3.913  0.4125 -0.1226 -0.2876
  166SAPS  H17R18754   1.781   5.272   3.842  0.0722  0.6695 -0.3825
  166SAPS  H17S18755   1.924   5.238   3.959 -1.3593 -0.9564  1.0896
  166SAPS  C21818756   1.943   5.416   3.840 -0.3932 -0.4397 -0.3045
  166SAPS  H18R18757   2.001   5.366   3.760  0.6851  0.8870 -0.3852
  166SAPS  H18S18758   2.013   5.460   3.914 -1.5237  0.8209  0.0682
  166SAPS  C21918759   1.867   5.528   3.767  0.6360  0.0835 -0.4085
  166SAPS  H19R18760   1.813   5.588   3.843  1.3018 -2.1907  2.0031
  166SAPS  H19S18761   1.787   5.482   3.705 -0.4506  1.0686  0.2040
  166SAPS  C22018762   1.948   5.608   3.661 -0.1298 -0.5537  0.1818
  166SAPS  H20R18763   2.056   5.583   3.667  0.0413 -0.5684 -2.0902
  166SAPS  H20S18764   1.936   5.717   3.679 -1.4458 -0.2415 -2.1702
  166SAPS  H20T18765   1.922   5.591   3.554 -0.1960 -1.3227  0.3167
  166SAPS   C3318766   1.940   4.623   5.125 -0.8279 -0.1606  0.1291
  166SAPS   H3X18767   1.974   4.520   5.145  0.3320  0.1395 -0.2505
  166SAPS   H3Y18768   1.988   4.689   5.201 -2.9568 -0.1086  1.5148
  166SAPS   C3418769   1.996   4.647   4.984  0.6733  0.7607 -0.8719
  166SAPS   H4X18770   1.911   4.622   4.916 -0.4003  0.1988  0.6282
  166SAPS   H4Y18771   2.070   4.565   4.971 -1.9152 -1.8138 -0.5344
  166SAPS   C3518772   2.046   4.787   4.966 -0.0876 -0.4315  0.1844
  166SAPS   H5X18773   2.148   4.798   5.008  0.8107 -1.7684 -1.5426
  166SAPS   H5Y18774   1.976   4.848   5.028  0.5782  0.1406  0.3824
  166SAPS   C3618775   2.059   4.827   4.811  0.2452 -0.2305 -0.8198
  166SAPS   H6X18776   2.066   4.937   4.793  0.9480 -0.2979 -0.9679
  166SAPS   H6Y18777   1.965   4.810   4.754  0.3286 -1.0292 -0.7235
  166SAPS   C3718778   2.172   4.760   4.734 -1.0759  0.0894 -0.1083
  166SAPS   H7X18779   2.141   4.657   4.706  1.9263 -0.8102 -0.5307
  166SAPS   H7Y18780   2.253   4.756   4.810 -3.0793 -0.7558  2.1099
  166SAPS   C3818781   2.217   4.826   4.607 -0.0944  0.0605  0.3672
  166SAPS   H8X18782   2.308   4.783   4.560 -0.0595 -3.5406  3.2089
  166SAPS   H8Y18783   2.249   4.930   4.627  0.7875  0.3970 -2.4420
  166SAPS   C3918784   2.107   4.835   4.494  0.2529  0.4170 -0.7654
  166SAPS   H9X18785   2.028   4.899   4.538 -1.1488 -2.5613  1.4700
  166SAPS   H9Y18786   2.061   4.733   4.491 -3.2763  1.8139  0.3714
  166SAPS  C31018787   2.143   4.877   4.351  0.4772 -0.2764  0.1419
  166SAPS  H10X18788   2.048   4.911   4.305  0.6642  0.0214 -0.0278
  166SAPS  H10Y18789   2.192   4.793   4.297  1.5333 -0.7170  1.7094
  166SAPS  C31118790   2.246   4.997   4.338  0.4096  0.3664  0.0439
  166SAPS  H11X18791   2.340   4.961   4.385 -0.0062  0.4628  0.9516
  166SAPS  H11Y18792   2.213   5.084   4.397  3.8476  1.3970  0.6197
  166SAPS  C31218793   2.288   5.014   4.194 -0.5262 -0.9370 -0.1457
  166SAPS  H12X18794   2.314   4.921   4.139 -0.2058  0.1960 -2.0134
  166SAPS  H12Y18795   2.380   5.077   4.190  1.4649 -3.4279  2.4155
  166SAPS  C31318796   2.185   5.104   4.118  0.2134  0.5055  0.0444
  166SAPS  H13X18797   2.167   5.201   4.168 -1.6981  0.9273 -1.3408
  166SAPS  H13Y18798   2.088   5.049   4.117  1.1656 -1.2592  0.2014
  166SAPS  C31418799   2.230   5.144   3.976 -0.1325  0.8789  0.1738
  166SAPS  H14X18800   2.139   5.158   3.914  1.8057 -1.2126 -3.5369
  166SAPS  H14Y18801   2.284   5.059   3.929  0.9979  1.0293  1.1646
  166SAPS  C31518802   2.309   5.275   3.963 -0.4281  0.3358  0.5608
  166SAPS  H15X18803   2.415   5.266   3.996  0.1317 -0.9434 -1.3604
  166SAPS  H15Y18804   2.262   5.346   4.033 -1.1217 -1.2113  1.7169
  166SAPS  C31618805   2.315   5.340   3.823 -0.0258  0.2796 -0.3451
  166SAPS  H16X18806   2.375   5.433   3.838  0.2253 -0.2551  2.7167
  166SAPS  H16Y18807   2.213   5.359   3.782 -0.0105 -0.9315 -0.9850
  166SAPS  C31718808   2.379   5.254   3.725 -0.5249 -0.2295  0.4936
  166SAPS  H17X18809   2.343   5.149   3.724 -0.5207 -0.2509 -1.3133
  166SAPS  H17Y18810   2.487   5.246   3.752 -0.2201  1.5929 -0.0855
  166SAPS  C31818811   2.377   5.308   3.582 -0.0744 -0.5616 -0.0825
  166SAPS  H18X18812   2.274   5.290   3.544 -0.4836  1.3500  0.0250
  166SAPS  H18Y18813   2.460   5.260   3.525 -0.4135 -1.1949 -0.0542
  166SAPS  H18Z18814   2.394   5.417   3.569  1.8900 -1.0748 -2.3887
  167SAPS     N18815   4.005   6.122   6.163  0.4023 -0.1064  0.2637
  167SAPS   HN118816   4.099   6.080   6.174  0.6673 -0.3340 -2.4154
  167SAPS   HN218817   3.973   6.133   6.262  3.1389  1.0189  1.1404
  167SAPS   HN318818   3.936   6.062   6.114 -2.2543  2.7307  0.1861
  167SAPS   C1218819   4.013   6.250   6.100 -0.2433 -0.6712 -0.0905
  167SAPS  H12A18820   3.952   6.260   6.012 -0.1459 -2.1724 -0.3484
  167SAPS   C1318821   3.983   6.368   6.197 -0.2393  0.5843  0.3012
  167SAPS  O13A18822   3.942   6.348   6.312  0.2932  0.8591 -0.1645
  167SAPS  O13B18823   3.973   6.486   6.142  0.1369 -0.1019 -1.1940
  167SAPS   C1118824   4.163   6.271   6.059  0.3381  0.4248 -0.3632
  167SAPS  H11A18825   4.222   6.274   6.153 -0.8972  0.8608  0.4272
  167SAPS  H11B18826   4.166   6.373   6.014 -0.3055  0.7458  0.2998
  167SAPS     P18827   4.323   6.166   5.877  0.2799 -0.2840  0.0389
  167SAPS   O1318828   4.440   6.165   5.963  0.2446  0.0005  0.5395
  167SAPS   O1418829   4.314   6.051   5.783  0.4815  0.5236  0.6277
  167SAPS   O1218830   4.205   6.166   5.970 -0.1148  0.5760 -0.6670
  167SAPS   O1118831   4.312   6.308   5.803  0.1848  0.0030 -0.3215
  167SAPS    C118832   4.193   6.332   5.727 -0.5758 -0.2919  0.1503
  167SAPS    HA18833   4.128   6.243   5.715  0.0137 -0.8533  0.9944
  167SAPS    HB18834   4.143   6.419   5.776  2.2904  1.5029  0.1140
  167SAPS    C218835   4.230   6.385   5.595 -0.2092  0.2723  0.5764
  167SAPS    HS18836   4.278   6.483   5.612 -2.7519  1.3988  1.7695
  167SAPS   O2118837   4.110   6.395   5.507  0.6270  0.4662 -0.7598
  167SAPS   C2118838   4.043   6.515   5.521  0.0666 -0.7135 -0.4399
  167SAPS   O2218839   4.073   6.599   5.607  0.5320  0.3175  0.5936
  167SAPS   C2218840   3.933   6.521   5.421  0.6577 -0.0055  0.6458
  167SAPS   H2R18841   3.853   6.453   5.457  0.3526 -0.8739 -1.5500
  167SAPS   H2S18842   3.895   6.625   5.422 -1.2902 -0.6935  0.8956
  167SAPS    C318843   4.324   6.279   5.523 -0.0809 -0.4233 -0.1373
  167SAPS    HX18844   4.251   6.203   5.488  0.7479 -1.3743  0.1235
  167SAPS    HY18845   4.396   6.239   5.598 -0.0994  2.0066  1.3008
  167SAPS   O3118846   4.399   6.334   5.412  0.3515 -0.0352  0.0910
  167SAPS   C3118847   4.367   6.292   5.287 -0.5199 -0.2632 -0.5069
  167SAPS   O3218848   4.287   6.210   5.258  0.0674 -0.2254  0.2522
  167SAPS   C3218849   4.441   6.372   5.184  0.0308  0.0286  1.0477
  167SAPS   H2X18850   4.551   6.372   5.194  0.2306  1.4022 -0.6896
  167SAPS   H2Y18851   4.400   6.475   5.180 -2.4824 -0.8941 -2.9350
  167SAPS   C2318852   3.992   6.500   5.284  0.0611 -1.0832 -0.1644
  167SAPS   H3R18853   3.910   6.546   5.224 -0.4795  1.2026  2.1538
  167SAPS   H3S18854   3.995   6.395   5.248 -0.4951 -1.4434  0.8120
  167SAPS   C2418855   4.115   6.590   5.250  0.3209 -0.0393  0.1724
  167SAPS   H4R18856   4.144   6.570   5.145  1.9977  1.2998  0.3411
  167SAPS   H4S18857   4.198   6.569   5.321  2.1690  1.6547 -1.4030
  167SAPS   C2518858   4.086   6.739   5.257  0.2233 -0.2339  0.8533
  167SAPS   H5R18859   4.099   6.787   5.355 -1.5378  0.8952  0.5733
  167SAPS   C2618860   4.025   6.812   5.160  0.7710 -0.0288  0.1989
  167SAPS   H6R18861   3.979   6.911   5.175 -0.0353 -0.2653 -0.5801
  167SAPS   C2718862   3.974   6.765   5.025 -1.4225 -0.8331 -0.1924
  167SAPS   H7R18863   3.864   6.769   5.040 -1.2919 -1.3251  1.0078
  167SAPS   H7S18864   3.986   6.656   5.011 -1.0831 -0.8615  0.3084
  167SAPS   C2818865   4.036   6.840   4.910  0.4639  0.3913  0.4400
  167SAPS   H8R18866   4.129   6.791   4.880 -0.0844 -0.5497  0.2195
  167SAPS   C2918867   3.984   6.945   4.842 -0.0906 -0.7566 -0.3805
  167SAPS   H9R18868   4.046   7.002   4.771  0.2806 -0.1152  0.4509
  167SAPS  C21018869   3.852   7.011   4.871  0.1148 -0.4658 -0.3390
  167SAPS  H10R18870   3.826   6.983   4.975 -2.1933 -1.3993 -1.1161
  167SAPS  H10S18871   3.772   6.978   4.802 -0.4891  0.7033 -0.2229
  167SAPS  C21118872   3.860   7.155   4.863  0.2722 -0.4092 -0.1085
  167SAPS  H11R18873   3.886   7.195   4.962  2.3316  1.8676 -1.4600
  167SAPS  C21218874   3.859   7.244   4.764  0.5368 -0.6429 -0.0964
  167SAPS  H12R18875   3.853   7.352   4.788  1.0799 -0.3761 -1.1317
  167SAPS  C21318876   3.844   7.202   4.615 -0.3603 -0.5511  0.0664
  167SAPS  H13R18877   3.780   7.282   4.573 -0.5406 -1.5768 -1.7021
  167SAPS  H13S18878   3.793   7.104   4.599  0.7117 -1.1755  0.3721
  167SAPS  C21418879   3.980   7.213   4.544  0.4712 -0.8703 -0.3128
  167SAPS  H14R18880   4.071   7.194   4.604 -0.4528  1.1817  1.9046
  167SAPS  C21518881   4.003   7.244   4.413 -0.1440 -0.0573  0.6083
  167SAPS  H15R18882   4.108   7.267   4.389 -0.1636 -0.7328 -0.1933
  167SAPS  C21618883   3.901   7.282   4.316 -0.5459  0.0422 -0.3504
  167SAPS  H16R18884   3.885   7.391   4.326 -0.2750 -0.0879  2.1781
  167SAPS  H16S18885   3.808   7.220   4.317 -0.2475 -0.4193 -0.6199
  167SAPS  C21718886   3.979   7.276   4.176 -0.2867  0.1358 -0.5296
  167SAPS  H17R18887   4.067   7.343   4.181 -0.2183  0.2737 -2.7391
  167SAPS  H17S18888   3.903   7.297   4.097 -1.4422 -0.0786  0.4926
  167SAPS  C21818889   4.030   7.131   4.137  0.4855  0.8036 -0.6099
  167SAPS  H18R18890   3.937   7.070   4.125  0.3645  1.0990 -1.2393
  167SAPS  H18S18891   4.085   7.088   4.223 -0.7346  1.6234  0.6293
  167SAPS  C21918892   4.113   7.131   4.012 -0.2443  0.2377 -0.8081
  167SAPS  H19R18893   4.159   7.030   4.009 -1.6415 -0.4921  0.8405
  167SAPS  H19S18894   4.203   7.193   4.031 -2.6587  3.8090 -0.0157
  167SAPS  C22018895   4.058   7.169   3.878  0.3446  0.4581 -0.7081
  167SAPS  H20R18896   3.972   7.107   3.844  0.4861  0.5107 -1.1582
  167SAPS  H20S18897   4.139   7.177   3.803  1.5704 -0.9054  0.4080
  167SAPS  H20T18898   4.011   7.269   3.891 -0.2640 -0.0685  1.6567
  167SAPS   C3318899   4.416   6.308   5.043 -0.5412 -0.3853 -0.2343
  167SAPS   H3X18900   4.319   6.254   5.031 -0.7067 -0.3026  0.6453
  167SAPS   H3Y18901   4.503   6.245   5.019  0.0408  0.6194 -0.8093
  167SAPS   C3418902   4.399   6.421   4.940  0.1648  0.0651  0.4749
  167SAPS   H4X18903   4.465   6.503   4.976  0.9770 -0.2786 -0.2124
  167SAPS   H4Y18904   4.293   6.456   4.936  0.0098 -0.5182 -0.9454
  167SAPS   C3518905   4.441   6.376   4.801  0.2566  0.4369 -0.1144
  167SAPS   H5X18906   4.412   6.450   4.724  1.9064  0.7136 -0.4983
  167SAPS   H5Y18907   4.407   6.274   4.772  0.3741  0.3020  0.2109
  167SAPS   C3618908   4.589   6.368   4.788  0.1677 -0.0716  0.1806
  167SAPS   H6X18909   4.640   6.292   4.851 -1.5479 -0.9002  0.6484
  167SAPS   H6Y18910   4.638   6.460   4.827  0.8449 -0.3149 -0.0878
  167SAPS   C3718911   4.634   6.366   4.636 -0.2905 -0.4290 -0.1717
  167SAPS   H7X18912   4.588   6.451   4.581  0.4263  1.0422  1.3885
  167SAPS   H7Y18913   4.599   6.270   4.593 -1.0328 -0.5481  0.6810
  167SAPS   C3818914   4.790   6.386   4.616  0.2386 -0.1480  0.5036
  167SAPS   H8X18915   4.834   6.289   4.650  1.7717  0.6084  0.7542
  167SAPS   H8Y18916   4.821   6.470   4.682  0.9830 -0.4209  0.5112
  167SAPS   C3918917   4.822   6.426   4.471 -0.8083 -0.3291 -0.0803
  167SAPS   H9X18918   4.929   6.452   4.462 -0.5794 -1.1489  0.2400
  167SAPS   H9Y18919   4.765   6.520   4.453  2.0019  1.7668  1.2316
  167SAPS  C31018920   4.793   6.311   4.375 -0.7344 -0.3203  0.0481
  167SAPS  H10X18921   4.683   6.297   4.382 -0.9127  1.4881  1.8257
  167SAPS  H10Y18922   4.843   6.219   4.412  0.8641  1.0924  1.5769
  167SAPS  C31118923   4.841   6.346   4.229  0.6873  0.2672 -0.4767
  167SAPS  H11X18924   4.844   6.454   4.206  0.8021  0.1503 -1.0149
  167SAPS  H11Y18925   4.765   6.313   4.155 -0.0510  0.7268  0.0577
  167SAPS  C31218926   4.976   6.284   4.194  0.4378 -0.0560 -0.2265
  167SAPS  H12X18927   4.964   6.175   4.207  3.0598 -0.3143  0.7220
  167SAPS  H12Y18928   5.050   6.319   4.270  0.2355  1.7391 -0.8120
  167SAPS  C31318929   5.029   6.320   4.052  0.2365 -0.1535 -0.2412
  167SAPS  H13X18930   5.028   6.430   4.041 -0.6970 -0.1066  0.2914
  167SAPS  H13Y18931   4.959   6.275   3.978  1.2582 -0.7830 -0.8536
  167SAPS  C31418932   5.171   6.267   4.001 -0.1858 -0.3550 -0.3753
  167SAPS  H14X18933   5.183   6.158   4.016  0.9246 -0.7114 -3.2302
  167SAPS  H14Y18934   5.254   6.321   4.051 -1.1103  2.0501 -1.2864
  167SAPS  C31518935   5.185   6.293   3.853  0.5232  0.3000  0.2775
  167SAPS  H15X18936   5.140   6.394   3.843 -1.3251 -0.3132  1.8918
  167SAPS  H15Y18937   5.126   6.219   3.794  2.6971  1.0534 -3.1737
  167SAPS  C31618938   5.328   6.309   3.819 -0.0862  0.3343 -0.2956
  167SAPS  H16X18939   5.375   6.388   3.881 -1.7426 -0.2573  1.8063
  167SAPS  H16Y18940   5.346   6.361   3.722  1.3320 -0.0730 -0.2838
  167SAPS  C31718941   5.405   6.176   3.811  0.8009  0.0268 -0.3923
  167SAPS  H17X18942   5.395   6.137   3.915  0.4679  0.4674 -0.2561
  167SAPS  H17Y18943   5.510   6.206   3.787  0.1290 -0.3916 -4.5519
  167SAPS  C31818944   5.357   6.066   3.723  0.7863  0.1151  0.1756
  167SAPS  H18X18945   5.252   6.039   3.746  0.3040  2.0299  0.3590
  167SAPS  H18Y18946   5.424   5.977   3.720  0.2540 -0.3603 -3.7831
  167SAPS  H18Z18947   5.348   6.106   3.620  0.5629 -0.9026 -0.2097
  168SAPS     N18948   2.713   7.089   5.768 -0.4738  0.3504 -0.2114
  168SAPS   HN118949   2.718   7.189   5.742  1.1667  0.3089 -0.1317
  168SAPS   HN218950   2.799   7.032   5.754 -0.4978  0.2716 -0.0459
  168SAPS   HN318951   2.638   7.051   5.707 -1.4859  1.3983  0.3368
  168SAPS   C1218952   2.686   7.090   5.912 -0.0159  0.5626  0.8306
  168SAPS  H12A18953   2.776   7.067   5.967 -0.2392 -0.2633  0.8630
  168SAPS   C1318954   2.661   7.235   5.961 -0.3565  0.0873 -0.3836
  168SAPS  O13A18955   2.654   7.326   5.874  0.1278 -0.5021 -0.3583
  168SAPS  O13B18956   2.655   7.255   6.084  0.0764 -0.2802 -0.0858
  168SAPS   C1118957   2.561   7.015   5.940 -0.1317 -0.1026 -0.3707
  168SAPS  H11A18958   2.484   7.053   5.869  1.5363  1.8025 -1.2438
  168SAPS  H11B18959   2.524   7.036   6.043  1.7060  1.7351 -0.0251
  168SAPS     P18960   2.481   6.766   5.954  0.3082 -0.1386 -0.1978
  168SAPS   O1318961   2.525   6.640   5.885 -0.3665  0.3722 -0.3513
  168SAPS   O1418962   2.466   6.761   6.101  0.3177 -0.0880  0.2278
  168SAPS   O1218963   2.590   6.878   5.922  0.1006  0.3948 -0.0503
  168SAPS   O1118964   2.355   6.832   5.895  0.3201  0.3563  0.0402
  168SAPS    C118965   2.269   6.785   5.795  0.5759  0.2916  0.3643
  168SAPS    HA18966   2.255   6.675   5.797  0.5840  0.2994  0.9058
  168SAPS    HB18967   2.167   6.826   5.807  0.6385  1.0744 -1.4880
  168SAPS    C218968   2.299   6.827   5.644 -1.0207  0.0472 -0.1106
  168SAPS    HS18969   2.230   6.791   5.565  1.8575  0.7781 -3.2036
  168SAPS   O2118970   2.446   6.802   5.613 -0.3309  0.1500 -0.3212
  168SAPS   C2118971   2.469   6.674   5.571  0.4844 -0.1155 -0.4886
  168SAPS   O2218972   2.383   6.593   5.549  0.4492 -0.3118 -0.5796
  168SAPS   C2218973   2.614   6.652   5.534  0.2525  0.7904 -0.5661
  168SAPS   H2R18974   2.683   6.713   5.596  0.4226  1.6540 -1.5666
  168SAPS   H2S18975   2.633   6.543   5.546  1.3207  0.9643 -0.5103
  168SAPS    C318976   2.279   6.984   5.636  0.3857 -0.4606 -1.5444
  168SAPS    HX18977   2.331   7.031   5.722  1.1714  0.2753 -2.3903
  168SAPS    HY18978   2.172   6.998   5.662  1.2877  1.1004  1.8532
  168SAPS   O3118979   2.315   7.045   5.515 -0.5064  0.2669 -0.3620
  168SAPS   C3118980   2.424   7.111   5.506  0.5538  0.2129  0.0876
  168SAPS   O3218981   2.513   7.120   5.585 -0.4343  0.2264 -0.3383
  168SAPS   C3218982   2.435   7.164   5.362  1.0004 -0.5739  0.3253
  168SAPS   H2X18983   2.351   7.234   5.343  0.2967 -2.0878 -2.7456
  168SAPS   H2Y18984   2.416   7.085   5.287  0.2416  0.5884 -0.7367
  168SAPS   C2318985   2.646   6.677   5.388 -0.2432 -0.5564  0.0776
  168SAPS   H3R18986   2.570   6.635   5.320 -1.1424 -0.3580  0.9345
  168SAPS   H3S18987   2.742   6.634   5.354 -1.8780 -4.5796  0.0325
  168SAPS   C2418988   2.656   6.830   5.352 -0.1068 -0.9684  0.0315
  168SAPS   H4R18989   2.571   6.892   5.388  0.5062 -0.0394 -0.0754
  168SAPS   H4S18990   2.640   6.840   5.242 -0.4857 -2.7384 -0.1017
  168SAPS   C2518991   2.782   6.906   5.394  0.5899 -0.4910 -0.5509
  168SAPS   H5R18992   2.799   6.934   5.499 -2.3125 -0.6213  0.0457
  168SAPS   C2618993   2.878   6.955   5.307  0.1245  0.3666  0.0704
  168SAPS   H6R18994   2.965   7.011   5.344  0.8915 -1.0230  0.4506
  168SAPS   C2718995   2.882   6.928   5.156  0.3813  0.0096  0.1073
  168SAPS   H7R18996   2.791   6.873   5.121 -1.3392  0.6664  3.1878
  168SAPS   H7S18997   2.967   6.859   5.138  1.3867  1.1262  0.4779
  168SAPS   C2818998   2.910   7.056   5.082 -0.6633 -0.1955 -0.4778
  168SAPS   H8R18999   2.937   7.140   5.148 -3.0523  1.0202 -0.9456
  168SAPS   C2919000   2.898   7.071   4.952 -0.3421 -0.0257  0.6422
  168SAPS   H9R19001   2.918   7.165   4.899 -0.9912 -1.2157 -1.8570
  168SAPS  C21019002   2.848   6.958   4.857 -0.5373 -1.1017  0.3036
  168SAPS  H10R19003   2.836   6.862   4.912  0.6458 -0.2954  2.0491
  168SAPS  H10S19004   2.931   6.953   4.783 -0.3993  1.1930  0.2479
  168SAPS  C21119005   2.724   7.011   4.788 -0.0590 -0.2303  0.4536
  168SAPS  H11R19006   2.631   7.000   4.847 -1.8756 -0.3774 -2.2720
  168SAPS  C21219007   2.710   7.042   4.658  0.7847 -0.1215  0.3813
  168SAPS  H12R19008   2.609   7.075   4.628  1.2906 -0.2436 -1.5744
  168SAPS  C21319009   2.808   7.038   4.543  0.2515  0.0254 -0.4372
  168SAPS  H13R19010   2.913   7.038   4.580  1.7905 -1.6168 -4.2871
  168SAPS  H13S19011   2.809   7.134   4.487  0.8047 -0.1485 -0.7313
  168SAPS  C21419012   2.792   6.914   4.460 -0.0841 -0.2838 -0.7177
  168SAPS  H14R19013   2.833   6.825   4.512  1.6329  0.6489 -0.3938
  168SAPS  C21519014   2.735   6.894   4.337  0.3023  0.0721 -0.5762
  168SAPS  H15R19015   2.724   6.794   4.294  2.3710 -0.1522 -0.6872
  168SAPS  C21619016   2.671   6.992   4.242 -0.6260 -0.0254  0.2818
  168SAPS  H16R19017   2.753   7.021   4.172 -0.9087  0.5587  0.1894
  168SAPS  H16S19018   2.632   7.084   4.292  0.9920 -0.8064  3.2301
  168SAPS  C21719019   2.551   6.939   4.164  0.2758  0.2382  0.1664
  168SAPS  H17R19020   2.500   7.023   4.113  2.2777  0.6891 -1.2248
  168SAPS  H17S19021   2.480   6.898   4.239  0.2688  1.0603  0.6267
  168SAPS  C21819022   2.591   6.850   4.051 -0.0133  0.1939 -0.3927
  168SAPS  H18R19023   2.594   6.748   4.095  1.2421  0.2493 -0.3329
  168SAPS  H18S19024   2.694   6.872   4.016  0.1084 -0.0250 -0.1761
  168SAPS  C21919025   2.492   6.840   3.937  1.1003 -0.2136  0.2304
  168SAPS  H19R19026   2.398   6.786   3.962 -0.0892  1.4604 -0.4182
  168SAPS  H19S19027   2.547   6.781   3.860  2.6981 -0.2761  1.3782
  168SAPS  C22019028   2.464   6.981   3.875  0.1802 -0.4066 -0.4057
  168SAPS  H20R19029   2.557   7.039   3.851 -0.3931 -0.1951 -2.3177
  168SAPS  H20S19030   2.386   7.039   3.929  0.2082 -1.1387  0.4365
  168SAPS  H20T19031   2.424   6.955   3.775 -0.0874  0.2310 -0.4705
  168SAPS   C3319032   2.568   7.221   5.315  0.8064 -0.0844  0.0182
  168SAPS   H3X19033   2.651   7.154   5.345 -0.1329 -1.0678  0.4686
  168SAPS   H3Y19034   2.583   7.327   5.345 -0.1422  0.2038 -0.4904
  168SAPS   C3419035   2.577   7.241   5.160 -0.5702 -1.0175 -0.1711
  168SAPS   H4X19036   2.586   7.145   5.106 -0.7801 -0.6864 -0.8065
  168SAPS   H4Y19037   2.669   7.301   5.140 -1.4159  0.6054  0.5705
  168SAPS   C3519038   2.450   7.317   5.109 -0.1111  0.4256 -0.3859
  168SAPS   H5X19039   2.458   7.418   5.154  0.4107  0.8546 -1.4024
  168SAPS   H5Y19040   2.356   7.270   5.145 -0.9911  2.2731 -0.1869
  168SAPS   C3619041   2.437   7.332   4.956 -0.0931  0.1630 -0.7220
  168SAPS   H6X19042   2.331   7.353   4.930 -0.8255  0.0057  1.8835
  168SAPS   H6Y19043   2.451   7.228   4.919 -2.3598 -0.4964  0.1222
  168SAPS   C3719044   2.531   7.432   4.903 -0.1778  0.0271 -0.2606
  168SAPS   H7X19045   2.635   7.396   4.912 -0.4032 -0.3430  1.0124
  168SAPS   H7Y19046   2.544   7.529   4.955  0.6036 -0.0615 -0.2854
  168SAPS   C3819047   2.511   7.480   4.754  0.3735 -0.5444 -0.1775
  168SAPS   H8X19048   2.598   7.535   4.714 -1.0191  0.4272 -2.0011
  168SAPS   H8Y19049   2.427   7.552   4.746  0.3226 -0.7127 -1.2707
  168SAPS   C3919050   2.472   7.363   4.665 -0.2278 -0.3308 -0.2164
  168SAPS   H9X19051   2.367   7.342   4.695 -0.0331 -1.2250 -0.1320
  168SAPS   H9Y19052   2.532   7.270   4.676 -0.5623 -0.4061  1.1363
  168SAPS  C31019053   2.473   7.420   4.522  0.7010 -0.0264 -0.0842
  168SAPS  H10X19054   2.570   7.468   4.496 -0.8247  3.9877  1.0071
  168SAPS  H10Y19055   2.402   7.504   4.530 -0.2784 -0.6755 -1.4841
  168SAPS  C31119056   2.414   7.317   4.423  0.3267 -0.2939  0.0639
  168SAPS  H11X19057   2.317   7.280   4.462  0.1518  1.1782  1.1052
  168SAPS  H11Y19058   2.477   7.226   4.433  4.9881  2.7002  0.7958
  168SAPS  C31219059   2.398   7.371   4.280  0.3893 -0.0694  0.3821
  168SAPS  H12X19060   2.306   7.433   4.282  0.0021 -0.6377  1.7604
  168SAPS  H12Y19061   2.380   7.280   4.218  1.5071  0.5378 -0.8920
  168SAPS  C31319062   2.518   7.440   4.216 -1.0078 -0.1402  0.3887
  168SAPS  H13X19063   2.604   7.378   4.248 -2.2058 -1.4048  1.2558
  168SAPS  H13Y19064   2.547   7.540   4.255 -0.7487  0.2272 -0.7042
  168SAPS  C31419065   2.508   7.451   4.060 -0.2564 -0.1692  0.3051
  168SAPS  H14X19066   2.547   7.549   4.025  1.2570 -0.1636  1.8489
  168SAPS  H14Y19067   2.402   7.437   4.030 -0.2788  0.6518 -0.0088
  168SAPS  C31519068   2.602   7.349   3.992 -0.0898 -0.1829  1.1764
  168SAPS  H15X19069   2.567   7.342   3.886 -1.4478 -1.3361  1.6541
  168SAPS  H15Y19070   2.598   7.245   4.032  2.4291 -0.7189  0.2073
  168SAPS  C31619071   2.752   7.394   3.984 -0.2464 -0.0248 -0.1599
  168SAPS  H16X19072   2.781   7.441   4.080  1.9926 -2.5315  0.5320
  168SAPS  H16Y19073   2.772   7.469   3.905  0.3504  0.1618  0.1644
  168SAPS  C31719074   2.840   7.277   3.976 -0.1980  0.1780  0.1752
  168SAPS  H17X19075   2.795   7.215   3.896  2.8742  2.4296 -3.6508
  168SAPS  H17Y19076   2.836   7.211   4.065 -3.4391 -0.6576 -0.4354
  168SAPS  C31819077   2.989   7.305   3.947  0.7594  0.2733  0.6090
  168SAPS  H18X19078   3.061   7.220   3.950 -0.2930 -0.6550  0.3953
  168SAPS  H18Y19079   3.026   7.380   4.020  1.7118 -0.7426  1.2061
  168SAPS  H18Z19080   3.001   7.363   3.853  1.2532 -0.7924 -0.0073
  169SAPS     N19081   6.219   1.920   5.859  0.0405 -0.4928 -0.0152
  169SAPS   HN119082   6.214   1.888   5.760 -1.6717 -0.9989  0.2029
  169SAPS   HN219083   6.151   1.862   5.912 -1.5127  1.7700  0.5889
  169SAPS   HN319084   6.184   2.018   5.857  1.1964 -0.0734 -1.0991
  169SAPS   C1219085   6.351   1.909   5.920  0.1018 -0.1702  0.7875
  169SAPS  H12A19086   6.425   1.969   5.869 -0.4829  1.6918  2.0017
  169SAPS   C1319087   6.362   1.956   6.068  0.1556 -0.1524  1.3630
  169SAPS  O13A19088   6.265   2.021   6.117 -0.0481 -0.1294  0.3479
  169SAPS  O13B19089   6.479   1.958   6.119 -0.5263  0.5486 -0.1336
  169SAPS   C1119090   6.399   1.758   5.906  0.1617 -0.1847  0.4557
  169SAPS  H11A19091   6.339   1.685   5.964  3.0927 -1.2664  2.3779
  169SAPS  H11B19092   6.492   1.738   5.963  0.5232 -0.0008 -0.0595
  169SAPS     P19093   6.527   1.667   5.698 -0.0466 -0.3123  0.0049
  169SAPS   O1319094   6.643   1.762   5.702 -0.1249 -0.1208 -0.5559
  169SAPS   O1419095   6.560   1.530   5.743  0.2949  0.0189  0.2382
  169SAPS   O1219096   6.401   1.724   5.765  0.6678  0.0930 -0.3502
  169SAPS   O1119097   6.468   1.656   5.550  0.2418 -0.3415  0.0835
  169SAPS    C119098   6.471   1.764   5.451  0.0755  0.0118  0.4740
  169SAPS    HA19099   6.568   1.818   5.461  1.2090 -1.6240 -1.1236
  169SAPS    HB19100   6.472   1.719   5.350  0.2260  0.4762  0.2635
  169SAPS    C219101   6.363   1.870   5.481  0.3545 -0.2552 -0.0323
  169SAPS    HS19102   6.361   1.892   5.590 -0.6608 -1.4428  0.2118
  169SAPS   O2119103   6.235   1.837   5.428  0.0600  0.6599  0.7848
  169SAPS   C2119104   6.131   1.837   5.505  0.1320  0.0546  0.0703
  169SAPS   O2219105   6.120   1.869   5.624  0.0570 -0.2880  0.6968
  169SAPS   C2219106   6.013   1.780   5.417 -0.1509 -0.5123 -0.2684
  169SAPS   H2R19107   6.053   1.725   5.330 -2.2722  0.2297 -1.7810
  169SAPS   H2S19108   5.958   1.713   5.486 -3.0211  0.7989 -1.1290
  169SAPS    C319109   6.412   2.008   5.413  0.4786  0.0890  0.1144
  169SAPS    HX19110   6.445   1.989   5.309 -1.3927 -1.2991 -0.2722
  169SAPS    HY19111   6.499   2.042   5.473 -0.6866 -0.1631  2.0612
  169SAPS   O3119112   6.307   2.109   5.409 -0.0672  0.3390  0.2030
  169SAPS   C3119113   6.275   2.182   5.516  0.0795  0.5668 -0.6241
  169SAPS   O3219114   6.321   2.165   5.628 -0.4928 -0.1250  0.3754
  169SAPS   C3219115   6.168   2.289   5.490 -0.3016 -0.0012 -0.0584
  169SAPS   H2X19116   6.196   2.374   5.555 -1.0161  0.2723 -0.1000
  169SAPS   H2Y19117   6.072   2.251   5.529  0.1316  2.4710  4.0066
  169SAPS   C2319118   5.932   1.905   5.377  0.6071 -0.0373 -0.2048
  169SAPS   H3R19119   5.904   1.971   5.462  1.1959 -0.7909  0.5896
  169SAPS   H3S19120   5.837   1.871   5.330  0.1582  1.0276 -0.0941
  169SAPS   C2419121   5.996   1.994   5.262  0.0724  0.5957 -0.7685
  169SAPS   H4R19122   6.094   2.031   5.302  0.9963 -1.8290 -0.5791
  169SAPS   H4S19123   5.935   2.086   5.247 -0.8685  0.1565  0.2072
  169SAPS   C2519124   5.997   1.921   5.124  0.4502 -0.1040  0.1340
  169SAPS   H5R19125   5.897   1.909   5.080  0.4565  1.1715 -0.2603
  169SAPS   C2619126   6.109   1.881   5.062 -0.3265  0.6178  1.0603
  169SAPS   H6R19127   6.096   1.816   4.974  2.3417  2.2633 -0.6788
  169SAPS   C2719128   6.249   1.888   5.101 -0.2952  0.1942  0.2944
  169SAPS   H7R19129   6.261   1.943   5.197  0.8191  1.1208 -0.3488
  169SAPS   H7S19130   6.303   1.943   5.021  1.0445 -1.1305  0.2297
  169SAPS   C2819131   6.311   1.745   5.106  0.5711 -0.4130  0.3936
  169SAPS   H8R19132   6.254   1.667   5.158 -0.3263  1.5932  2.6063
  169SAPS   C2919133   6.430   1.722   5.054 -0.4483  0.1597 -0.1715
  169SAPS   H9R19134   6.471   1.622   5.072 -0.6553  0.4115  1.9888
  169SAPS  C21019135   6.523   1.822   4.991 -0.7470  0.2142  0.4382
  169SAPS  H10R19136   6.627   1.807   5.028 -0.9953  1.8537  1.9215
  169SAPS  H10S19137   6.506   1.925   5.026  0.5676  0.6988 -0.2567
  169SAPS  C21119138   6.522   1.823   4.842 -0.2671 -0.3455  0.4097
  169SAPS  H11R19139   6.444   1.885   4.796 -0.3735 -0.9242 -0.2075
  169SAPS  C21219140   6.614   1.761   4.767  0.4259  0.2834  0.6165
  169SAPS  H12R19141   6.613   1.784   4.659 -2.5180  2.3110  0.9803
  169SAPS  C21319142   6.725   1.675   4.820  0.6347  0.1034  0.3687
  169SAPS  H13R19143   6.708   1.647   4.926  0.1712  0.1884  0.3189
  169SAPS  H13S19144   6.823   1.729   4.822  0.7911 -0.1737  0.2196
  169SAPS  C21419145   6.734   1.546   4.735 -0.3075 -0.1617  0.3427
  169SAPS  H14R19146   6.652   1.474   4.748  0.7334 -1.5933 -0.6461
  169SAPS  C21519147   6.829   1.505   4.644  0.2042 -0.5648  0.0670
  169SAPS  H15R19148   6.821   1.418   4.577 -0.4599  1.5166 -2.7563
  169SAPS  C21619149   6.953   1.570   4.598 -0.0757 -0.4762 -0.5241
  169SAPS  H16R19150   7.031   1.491   4.597 -0.0815 -0.4784 -0.7321
  169SAPS  H16S19151   6.976   1.646   4.676  2.3707 -1.6114 -0.0625
  169SAPS  C21719152   6.950   1.639   4.456 -1.2994  0.9392 -0.5975
  169SAPS  H17R19153   7.052   1.684   4.459 -0.0871 -1.5796  3.0645
  169SAPS  H17S19154   6.885   1.728   4.447 -0.1335  1.7801 -0.9602
  169SAPS  C21819155   6.947   1.550   4.331 -0.0855 -0.1077  0.1141
  169SAPS  H18R19156   6.943   1.626   4.251  1.4764 -0.6376 -0.5014
  169SAPS  H18S19157   6.865   1.476   4.337  0.1450 -0.4741 -1.1560
  169SAPS  C21919158   7.081   1.480   4.291  0.6234  0.0070  0.3328
  169SAPS  H19R19159   7.120   1.412   4.370  0.7784  0.9719  1.1058
  169SAPS  H19S19160   7.169   1.545   4.277  1.0636 -0.9245 -1.5826
  169SAPS  C22019161   7.065   1.404   4.165  0.0232  0.8293  0.2104
  169SAPS  H20R19162   7.023   1.466   4.082  0.6030  1.2327  0.2116
  169SAPS  H20S19163   6.993   1.321   4.178  0.6137  0.3042  0.1476
  169SAPS  H20T19164   7.162   1.360   4.133  0.0451  1.4540 -0.6402
  169SAPS   C3319165   6.153   2.334   5.345  1.0723  0.2080 -0.1655
  169SAPS   H3X19166   6.056   2.388   5.331  2.0108  1.7464 -1.0105
  169SAPS   H3Y19167   6.128   2.244   5.286 -0.7180  0.6906 -0.2075
  169SAPS   C3419168   6.263   2.426   5.287  0.1651 -0.7005  0.4081
  169SAPS   H4X19169   6.359   2.379   5.316 -0.4964 -0.5248  3.1957
  169SAPS   H4Y19170   6.263   2.517   5.351  0.2245 -2.4020  2.9955
  169SAPS   C3519171   6.252   2.447   5.136 -0.1220 -0.8127  0.8735
  169SAPS   H5X19172   6.321   2.524   5.097 -0.4548 -1.0239 -0.1608
  169SAPS   H5Y19173   6.148   2.476   5.110  1.2128  2.2901 -1.6436
  169SAPS   C3619174   6.284   2.326   5.039 -0.6033  0.4587 -0.2697
  169SAPS   H6X19175   6.270   2.365   4.936 -0.7479  0.7061 -0.1585
  169SAPS   H6Y19176   6.219   2.237   5.053 -1.1179  0.9407  0.5064
  169SAPS   C3719177   6.428   2.279   5.069 -0.4688  0.6040  0.3979
  169SAPS   H7X19178   6.417   2.224   5.165 -0.4306  0.0554  0.0919
  169SAPS   H7Y19179   6.499   2.364   5.068  0.4008 -0.0684 -2.1177
  169SAPS   C3819180   6.482   2.184   4.965  0.3035 -0.0536 -0.1813
  169SAPS   H8X19181   6.398   2.118   4.933  0.4569  0.6793 -2.2566
  169SAPS   H8Y19182   6.570   2.126   5.001 -0.0612 -1.1683 -1.0196
  169SAPS   C3919183   6.540   2.264   4.844  0.0602 -0.3470  0.5851
  169SAPS   H9X19184   6.634   2.317   4.872 -0.6427  0.5725  1.2429
  169SAPS   H9Y19185   6.467   2.346   4.828 -0.4313 -0.1299  3.4576
  169SAPS  C31019186   6.559   2.184   4.715  0.1162  1.0018 -0.1229
  169SAPS  H10X19187   6.466   2.127   4.698 -1.0910  1.7756  3.1702
  169SAPS  H10Y19188   6.633   2.104   4.734  0.7151  1.5453 -0.1015
  169SAPS  C31119189   6.596   2.263   4.586 -0.0201  0.2884  0.1198
  169SAPS  H11X19190   6.675   2.337   4.613  0.0671  0.5201 -0.7396
  169SAPS  H11Y19191   6.507   2.321   4.554 -1.9398 -2.3677  0.2844
  169SAPS  C31219192   6.650   2.178   4.473  0.2186 -0.5985 -0.9870
  169SAPS  H12X19193   6.564   2.127   4.424 -0.9790  0.1374  0.2554
  169SAPS  H12Y19194   6.717   2.104   4.523  1.8828 -0.0309 -2.3062
  169SAPS  C31319195   6.733   2.251   4.363 -0.3804  0.7802 -0.0934
  169SAPS  H13X19196   6.822   2.300   4.408 -0.0807 -1.0763  1.4539
  169SAPS  H13Y19197   6.674   2.332   4.316 -0.6011  1.0229  0.5858
  169SAPS  C31419198   6.774   2.165   4.248  0.1306  0.0900  1.1182
  169SAPS  H14X19199   6.676   2.141   4.201  0.0309  0.4668  1.1312
  169SAPS  H14Y19200   6.838   2.082   4.284  1.4425  0.1425 -0.9621
  169SAPS  C31519201   6.855   2.232   4.138  0.1181  0.1525  0.1508
  169SAPS  H15X19202   6.954   2.263   4.179 -0.7203  1.9346  0.9417
  169SAPS  H15Y19203   6.807   2.329   4.112 -1.9204 -0.6751  0.6272
  169SAPS  C31619204   6.890   2.144   4.013 -0.4226 -0.0022  0.7608
  169SAPS  H16X19205   6.905   2.039   4.047 -0.7679 -0.3884 -0.2393
  169SAPS  H16Y19206   6.985   2.177   3.967 -0.0368 -1.8798  0.1284
  169SAPS  C31719207   6.795   2.163   3.894  0.1304  0.0568  0.1304
  169SAPS  H17X19208   6.780   2.273   3.897 -0.1680  0.0093  0.4178
  169SAPS  H17Y19209   6.712   2.093   3.914 -0.4341 -0.9638 -4.6034
  169SAPS  C31819210   6.852   2.130   3.756 -0.3504 -0.2154 -0.3398
  169SAPS  H18X19211   6.947   2.186   3.739 -0.6038  0.3225 -0.0037
  169SAPS  H18Y19212   6.783   2.161   3.675  0.7520 -0.4431 -1.4061
  169SAPS  H18Z19213   6.882   2.024   3.743  1.9894  0.3358  0.0536
  170SAPS     N19214   6.452   6.059   6.062 -0.4682  0.3210  0.0446
  170SAPS   HN119215   6.479   5.980   6.001  0.5876 -0.3231  1.2935
  170SAPS   HN219216   6.491   6.153   6.040 -0.2648  0.5806  1.4092
  170SAPS   HN319217   6.499   6.041   6.153  0.4438  2.4398  0.0678
  170SAPS   C1219218   6.298   6.061   6.087 -0.7097  0.6978 -0.6970
  170SAPS  H12A19219   6.276   5.959   6.115  2.6737 -0.1901 -0.8488
  170SAPS   C1319220   6.231   6.150   6.197  0.4037 -0.7817 -0.6491
  170SAPS  O13A19221   6.311   6.219   6.272 -0.1861 -0.2018  0.4034
  170SAPS  O13B19222   6.131   6.099   6.252 -0.1613 -0.0109 -0.1881
  170SAPS   C1119223   6.232   6.092   5.956  0.0088  0.4673  0.2810
  170SAPS  H11A19224   6.279   6.183   5.912 -1.2634  1.2779  0.5379
  170SAPS  H11B19225   6.127   6.124   5.976 -0.1283 -0.6382  1.4245
  170SAPS     P19226   6.161   5.997   5.718 -0.4248  0.0349 -0.4295
  170SAPS   O1319227   6.189   5.875   5.638 -0.1521 -0.7848  0.6078
  170SAPS   O1419228   6.019   6.033   5.742 -0.3614  0.5212 -0.4595
  170SAPS   O1219229   6.232   5.979   5.857  0.1090 -0.1089 -1.0880
  170SAPS   O1119230   6.238   6.127   5.668 -0.2499  0.0894  0.2128
  170SAPS    C119231   6.378   6.101   5.626 -0.2285 -0.3848  0.5115
  170SAPS    HA19232   6.436   6.052   5.706 -1.1887 -0.2350  1.3190
  170SAPS    HB19233   6.388   6.039   5.534  0.6568  1.3195 -0.6033
  170SAPS    C219234   6.450   6.239   5.586  0.1664  0.5504 -0.0704
  170SAPS    HS19235   6.436   6.309   5.670  1.7847  0.7397  0.0822
  170SAPS   O2119236   6.395   6.296   5.467  0.7440  0.3864 -0.3844
  170SAPS   C2119237   6.419   6.423   5.443 -0.2658  0.1138  0.2322
  170SAPS   O2219238   6.495   6.493   5.506  0.1626 -0.1841  0.0837
  170SAPS   C2219239   6.345   6.468   5.314 -0.2451  0.2001 -0.0358
  170SAPS   H2R19240   6.377   6.394   5.238  2.4709  0.1975  1.0163
  170SAPS   H2S19241   6.238   6.444   5.332 -0.3356 -1.6992 -2.5362
  170SAPS    C319242   6.607   6.207   5.561  0.1816  0.2823 -0.2203
  170SAPS    HX19243   6.642   6.157   5.654 -1.2621  1.1663  0.8590
  170SAPS    HY19244   6.667   6.301   5.555 -0.3431  0.6588  0.3206
  170SAPS   O3119245   6.639   6.127   5.449 -0.2665 -0.0023  0.7102
  170SAPS   C3119246   6.701   6.182   5.349  0.5549  0.2401 -0.0039
  170SAPS   O3219247   6.749   6.294   5.349 -0.6891  0.4220  0.0555
  170SAPS   C3219248   6.701   6.085   5.230  0.0511  0.0612  0.1468
  170SAPS   H2X19249   6.638   5.996   5.250 -0.3707 -0.0879 -1.6809
  170SAPS   H2Y19250   6.806   6.048   5.223  0.1586  0.1212  1.2852
  170SAPS   C2319251   6.387   6.610   5.267  0.6433  0.3992  0.2578
  170SAPS   H3R19252   6.368   6.691   5.341  0.8199  1.3005 -0.6648
  170SAPS   H3S19253   6.317   6.640   5.186  0.6932  1.9006  0.7296
  170SAPS   C2419254   6.537   6.635   5.225  1.0002 -0.4809  0.0597
  170SAPS   H4R19255   6.598   6.625   5.317  2.4248 -0.4177 -0.8402
  170SAPS   H4S19256   6.546   6.744   5.206  0.0002  0.1279  2.6013
  170SAPS   C2519257   6.588   6.537   5.121 -0.2513  0.1384 -0.4568
  170SAPS   H5R19258   6.561   6.434   5.150  0.1993 -0.0871 -0.8125
  170SAPS   C2619259   6.657   6.562   5.009  0.4142  0.5373 -0.1178
  170SAPS   H6R19260   6.703   6.475   4.960  0.0043  0.4519 -0.3553
  170SAPS   C2719261   6.698   6.705   4.965  0.4003 -0.0084 -0.6642
  170SAPS   H7R19262   6.805   6.720   4.991 -0.1136  1.3700  0.8218
  170SAPS   H7S19263   6.646   6.788   5.017  1.0290  0.7449 -1.2275
  170SAPS   C2819264   6.675   6.726   4.820 -0.0614 -0.2541 -0.2365
  170SAPS   H8R19265   6.748   6.668   4.761  0.1821 -0.7121  0.5078
  170SAPS   C2919266   6.583   6.799   4.758 -0.0879 -0.1066 -0.2659
  170SAPS   H9R19267   6.595   6.811   4.650  2.0358 -0.6614 -0.1372
  170SAPS  C21019268   6.486   6.885   4.830  0.3711 -0.1325 -1.2579
  170SAPS  H10R19269   6.526   6.988   4.833 -0.3397  0.1761  2.4964
  170SAPS  H10S19270   6.453   6.841   4.927  0.5300  0.4377 -0.9415
  170SAPS  C21119271   6.355   6.884   4.758 -0.3567 -0.0358  0.2480
  170SAPS  H11R19272   6.275   6.825   4.806 -1.4583  1.0802 -0.1649
  170SAPS  C21219273   6.328   6.947   4.640  0.2085  0.3032  0.4997
  170SAPS  H12R19274   6.228   6.931   4.596 -0.1088 -1.0536  1.6319
  170SAPS  C21319275   6.417   7.034   4.554  0.1904  0.0173 -0.9743
  170SAPS  H13R19276   6.462   6.971   4.474 -0.7510 -0.5128 -1.1035
  170SAPS  H13S19277   6.509   7.052   4.613 -0.4054  0.0337 -0.0248
  170SAPS  C21419278   6.343   7.161   4.506 -0.3530  0.4006 -0.1554
  170SAPS  H14R19279   6.328   7.244   4.577  0.6386  1.4211 -1.0994
  170SAPS  C21519280   6.299   7.188   4.382 -0.3816 -0.0089  0.5723
  170SAPS  H15R19281   6.267   7.292   4.367 -1.9220 -0.4400  0.6852
  170SAPS  C21619282   6.329   7.100   4.259  0.4660 -0.5270 -0.2252
  170SAPS  H16R19283   6.262   7.012   4.264 -1.1346  0.4331 -2.6945
  170SAPS  H16S19284   6.434   7.065   4.261  0.5136 -0.3747 -0.0144
  170SAPS  C21719285   6.300   7.180   4.128  0.6527  0.6916 -0.1398
  170SAPS  H17R19286   6.315   7.113   4.041  1.0307 -0.3317  0.6933
  170SAPS  H17S19287   6.377   7.260   4.122  1.4150  0.0357  0.7175
  170SAPS  C21819288   6.151   7.236   4.124 -0.2000  0.0657  0.5071
  170SAPS  H18R19289   6.138   7.322   4.192  0.0296 -0.4372  1.1921
  170SAPS  H18S19290   6.082   7.151   4.143  2.0991 -2.0573 -0.0407
  170SAPS  C21919291   6.106   7.280   3.987  0.6726  0.3834 -0.1365
  170SAPS  H19R19292   6.152   7.208   3.916  0.9751  0.1012  0.3380
  170SAPS  H19S19293   6.147   7.379   3.959 -2.1080  2.1514  1.5625
  170SAPS  C22019294   5.955   7.276   3.963  0.1906  0.1826 -0.4308
  170SAPS  H20R19295   5.923   7.346   3.883  1.3277 -1.7463 -2.6782
  170SAPS  H20S19296   5.899   7.304   4.055  0.6537 -1.6849  0.4580
  170SAPS  H20T19297   5.923   7.177   3.926  1.4679 -0.3157 -0.2384
  170SAPS   C3319298   6.626   6.151   5.104 -0.5112  0.0445  0.5282
  170SAPS   H3X19299   6.660   6.256   5.091 -0.1838 -0.2448 -1.2689
  170SAPS   H3Y19300   6.515   6.155   5.115 -0.3630  0.0890  2.3669
  170SAPS   C3419301   6.661   6.067   4.976  0.5189 -0.0187 -0.0596
  170SAPS   H4X19302   6.654   5.958   4.996 -2.1067 -0.1906 -1.5629
  170SAPS   H4Y19303   6.768   6.095   4.962  0.5314  0.9792  1.7396
  170SAPS   C3519304   6.584   6.100   4.846  0.2034 -0.6039  0.1407
  170SAPS   H5X19305   6.481   6.058   4.853 -0.1562  0.4612  2.3407
  170SAPS   H5Y19306   6.637   6.053   4.761  1.2823 -0.7212  0.8633
  170SAPS   C3619307   6.581   6.249   4.818  0.2437  0.7062  0.5103
  170SAPS   H6X19308   6.681   6.296   4.828  0.1475  1.2297 -0.8018
  170SAPS   H6Y19309   6.520   6.300   4.896  1.2384  0.7172  1.3095
  170SAPS   C3719310   6.529   6.269   4.675  1.1084  0.1191 -0.5561
  170SAPS   H7X19311   6.423   6.236   4.678  1.4818 -1.5350 -2.9802
  170SAPS   H7Y19312   6.581   6.203   4.604  1.3621 -0.7420  0.3992
  170SAPS   C3819313   6.550   6.413   4.615 -0.1499 -0.7329  0.5792
  170SAPS   H8X19314   6.660   6.423   4.608 -0.3659  1.3775 -0.6500
  170SAPS   H8Y19315   6.515   6.488   4.689  2.3446 -0.1743  1.2652
  170SAPS   C3919316   6.476   6.425   4.482  0.2950  0.3769 -0.0275
  170SAPS   H9X19317   6.368   6.405   4.497  0.5184 -1.7006 -0.8118
  170SAPS   H9Y19318   6.508   6.343   4.414 -1.3711  0.5838 -1.0983
  170SAPS  C31019319   6.509   6.559   4.424 -0.0199 -0.3969  0.0934
  170SAPS  H10X19320   6.616   6.579   4.444 -0.3885 -0.5886  2.6733
  170SAPS  H10Y19321   6.448   6.640   4.470  0.4943 -0.5259  1.0234
  170SAPS  C31119322   6.487   6.564   4.271 -0.3453 -0.4703  0.5688
  170SAPS  H11X19323   6.381   6.540   4.248 -0.6323  0.1704  1.1607
  170SAPS  H11Y19324   6.556   6.497   4.216 -0.6493 -0.6203  0.3623
  170SAPS  C31219325   6.502   6.711   4.214 -0.9000  0.3486 -0.3807
  170SAPS  H12X19326   6.529   6.769   4.305  1.0136  0.8543 -1.2031
  170SAPS  H12Y19327   6.403   6.736   4.171 -1.8009 -3.6854 -1.0628
  170SAPS  C31319328   6.598   6.741   4.099 -0.3127  0.5111 -0.4995
  170SAPS  H13X19329   6.585   6.848   4.073 -0.5542  0.0327 -2.4925
  170SAPS  H13Y19330   6.584   6.662   4.022 -0.5326  0.9565 -0.9171
  170SAPS  C31419331   6.748   6.722   4.124 -0.1936  0.0154  0.3431
  170SAPS  H14X19332   6.768   6.614   4.144 -3.8260 -1.4795 -2.7677
  170SAPS  H14Y19333   6.768   6.783   4.214  2.7715  2.2115 -1.6252
  170SAPS  C31519334   6.839   6.771   4.016 -0.4973  0.5797  0.8424
  170SAPS  H15X19335   6.936   6.801   4.063 -1.6903  2.7712  2.0938
  170SAPS  H15Y19336   6.807   6.873   3.986 -1.3383  0.7205  2.1494
  170SAPS  C31619337   6.854   6.680   3.896 -0.4941  0.0216  0.2659
  170SAPS  H16X19338   6.761   6.652   3.842 -0.2873  1.0341 -0.6533
  170SAPS  H16Y19339   6.892   6.581   3.930 -0.1557 -0.6015 -1.7757
  170SAPS  C31719340   6.952   6.737   3.797 -0.1218 -0.0915  0.2991
  170SAPS  H17X19341   7.047   6.752   3.851  0.8656  0.2558 -1.4468
  170SAPS  H17Y19342   6.925   6.839   3.761  0.3162 -0.1354 -0.1625
  170SAPS  C31819343   6.979   6.640   3.679 -0.3624 -0.6118  0.9628
  170SAPS  H18X19344   7.063   6.691   3.627 -0.5557  1.9283  2.9769
  170SAPS  H18Y19345   6.890   6.631   3.612  1.1667  0.6790 -1.3926
  170SAPS  H18Z19346   7.010   6.540   3.714  3.0952 -0.7892 -2.0348
  171SAPS     N19347   0.208   5.679   6.055 -0.0367  0.2276  0.3392
  171SAPS   HN119348   0.201   5.578   6.033 -1.0332  0.2852  0.3804
  171SAPS   HN219349   0.282   5.701   6.125  1.5040  0.3318 -1.2260
  171SAPS   HN319350   0.123   5.716   6.101  0.5588  0.6115  1.1611
  171SAPS   C1219351   0.238   5.766   5.935  0.2123  0.9653  1.0471
  171SAPS  H12A19352   0.167   5.745   5.856  0.7349 -1.4554  1.1375
  171SAPS   C1319353   0.249   5.914   5.960  0.7061  0.0031 -0.2051
  171SAPS  O13A19354   0.248   5.955   6.078  0.2040  0.5169 -0.1329
  171SAPS  O13B19355   0.279   5.992   5.862  0.2322  0.9802 -0.4846
  171SAPS   C1119356   0.376   5.724   5.871  0.1164  1.1116  0.0905
  171SAPS  H11A19357   0.446   5.736   5.956  0.5616  4.0674 -0.5710
  171SAPS  H11B19358   0.400   5.798   5.791  4.5549  1.9589  1.9663
  171SAPS     P19359   0.481   5.528   5.751 -0.6750 -0.0264 -0.1803
  171SAPS   O1319360   0.608   5.559   5.832 -0.1620 -0.6364  0.4327
  171SAPS   O1419361   0.445   5.385   5.725 -0.5363  0.3800  0.1585
  171SAPS   O1219362   0.359   5.588   5.823  0.2486  0.2738  0.0045
  171SAPS   O1119363   0.481   5.606   5.614  0.5141 -0.4352  0.6050
  171SAPS    C119364   0.592   5.644   5.537 -0.8915  0.1081 -0.7336
  171SAPS    HA19365   0.676   5.572   5.539 -0.1285  0.9813  1.0840
  171SAPS    HB19366   0.562   5.666   5.432 -0.6713  1.9893 -0.4347
  171SAPS    C219367   0.647   5.777   5.600  0.0617  0.7052  0.5731
  171SAPS    HS19368   0.658   5.769   5.710 -0.1715  0.6705  0.5942
  171SAPS   O2119369   0.543   5.870   5.571 -0.3402 -0.1655 -0.0569
  171SAPS   C2119370   0.552   5.996   5.614 -0.1990  0.5345  0.4992
  171SAPS   O2219371   0.633   6.038   5.690 -0.0518 -0.5559  0.1389
  171SAPS   C2219372   0.446   6.086   5.543 -0.8197 -0.1022  0.3440
  171SAPS   H2R19373   0.383   6.031   5.470  0.8471  0.3941 -1.5849
  171SAPS   H2S19374   0.389   6.150   5.614 -1.7052 -0.3203 -0.1549
  171SAPS    C319375   0.776   5.814   5.534  0.3396  0.5565 -0.3991
  171SAPS    HX19376   0.859   5.747   5.565 -0.7521 -0.0273  1.3936
  171SAPS    HY19377   0.803   5.917   5.564  4.2099 -0.3480 -0.2644
  171SAPS   O3119378   0.755   5.802   5.390 -0.4490 -0.6865  0.1025
  171SAPS   C3119379   0.762   5.918   5.317 -0.6715  0.2674 -0.1427
  171SAPS   O3219380   0.801   6.027   5.358 -0.3206 -0.0341 -0.9793
  171SAPS   C3219381   0.732   5.895   5.168 -0.4094  0.5861  0.5462
  171SAPS   H2X19382   0.835   5.868   5.137  1.1931  2.8343  3.4241
  171SAPS   H2Y19383   0.710   5.994   5.123  0.5082  0.7869  0.5151
  171SAPS   C2319384   0.514   6.187   5.448 -0.0167  0.4528 -0.1558
  171SAPS   H3R19385   0.552   6.127   5.363  0.0676  0.3388 -0.0371
  171SAPS   H3S19386   0.595   6.248   5.493  0.2808  0.8289 -1.1646
  171SAPS   C2419387   0.402   6.273   5.379 -0.4294 -0.5593 -0.4432
  171SAPS   H4R19388   0.344   6.325   5.458  2.1620 -0.1829  1.3404
  171SAPS   H4S19389   0.328   6.210   5.325 -1.4290  0.8345 -0.7382
  171SAPS   C2519390   0.456   6.385   5.286  0.2058 -0.0052  0.2795
  171SAPS   H5R19391   0.484   6.477   5.340 -0.7311  0.3253  0.2182
  171SAPS   C2619392   0.474   6.377   5.153  0.6420  0.2374  1.0912
  171SAPS   H6R19393   0.523   6.463   5.105  0.2917 -0.0803  0.1433
  171SAPS   C2719394   0.433   6.261   5.060 -0.2737 -0.8966 -0.2300
  171SAPS   H7R19395   0.357   6.299   4.988 -0.1428  0.6308  0.4037
  171SAPS   H7S19396   0.373   6.186   5.115 -1.9977  1.8406  1.9065
  171SAPS   C2819397   0.553   6.207   4.980  0.4303  0.4106  0.4254
  171SAPS   H8R19398   0.654   6.217   5.020  0.9015 -0.3658 -0.5252
  171SAPS   C2919399   0.536   6.139   4.862  0.3181 -0.4105  0.2603
  171SAPS   H9R19400   0.631   6.108   4.816  0.4474 -1.9539  1.4669
  171SAPS  C21019401   0.408   6.096   4.785  0.1023 -0.3849  0.1999
  171SAPS  H10R19402   0.420   6.115   4.676 -1.1769 -0.0979  0.0952
  171SAPS  H10S19403   0.321   6.157   4.818  0.6412  0.9495 -0.7316
  171SAPS  C21119404   0.369   5.959   4.809 -0.8796  0.7174  0.7406
  171SAPS  H11R19405   0.431   5.902   4.879  0.6628  0.6807 -0.5895
  171SAPS  C21219406   0.269   5.894   4.744 -0.7251 -0.3164  0.0442
  171SAPS  H12R19407   0.240   5.789   4.764  0.9181 -1.1419 -1.6165
  171SAPS  C21319408   0.195   5.962   4.639  0.0171  0.2780  0.3144
  171SAPS  H13R19409   0.261   6.027   4.577 -0.4904 -1.1454 -1.8229
  171SAPS  H13S19410   0.126   6.034   4.689 -2.1268 -0.4090 -1.4845
  171SAPS  C21419411   0.117   5.870   4.548 -0.3489 -0.0834  0.2303
  171SAPS  H14R19412   0.034   5.826   4.605 -1.5556  0.3933 -1.1149
  171SAPS  C21519413   0.123   5.863   4.415  0.4978  0.5041 -0.2912
  171SAPS  H15R19414   0.055   5.792   4.366  0.1237  0.6353  0.0304
  171SAPS  C21619415   0.209   5.942   4.325  0.5926 -0.1692  0.2769
  171SAPS  H16R19416   0.259   5.875   4.253  1.5837  2.0382 -1.2015
  171SAPS  H16S19417   0.288   5.993   4.384  0.4376 -0.3619  0.6531
  171SAPS  C21719418   0.131   6.048   4.237  0.5150  0.0416 -0.3595
  171SAPS  H17R19419   0.205   6.114   4.187  0.3018  0.5243 -0.0422
  171SAPS  H17S19420   0.065   6.106   4.304 -0.7401 -0.6485 -0.9591
  171SAPS  C21819421   0.035   5.986   4.138  0.6769  0.2365  0.3560
  171SAPS  H18R19422  -0.014   6.070   4.084 -0.2459  0.7011  1.8636
  171SAPS  H18S19423  -0.044   5.945   4.205 -0.5227 -1.6436 -2.0522
  171SAPS  C21919424   0.095   5.889   4.040 -0.2882  0.0110 -0.0956
  171SAPS  H19R19425   0.155   5.805   4.081 -0.3310 -0.3820 -0.8206
  171SAPS  H19S19426   0.157   5.947   3.968 -0.6885  1.6101  0.7930
  171SAPS  C22019427  -0.019   5.818   3.961  0.1180  1.1111 -0.4583
  171SAPS  H20R19428  -0.056   5.890   3.885  1.1756  2.8484  0.5959
  171SAPS  H20S19429  -0.091   5.788   4.041  1.7443  1.1547  1.1001
  171SAPS  H20T19430   0.021   5.724   3.917  1.0448  2.4712 -2.6926
  171SAPS   C3319431   0.618   5.793   5.147  0.4448 -0.2346  0.0619
  171SAPS   H3X19432   0.637   5.697   5.200  1.7515 -1.7001 -2.8196
  171SAPS   H3Y19433   0.612   5.782   5.037 -2.7150  0.5064  0.0666
  171SAPS   C3419434   0.483   5.862   5.199 -0.6230  0.4577  0.1090
  171SAPS   H4X19435   0.485   5.967   5.163  0.0851  0.8075  1.1411
  171SAPS   H4Y19436   0.499   5.868   5.308  0.3159  1.1503 -0.0533
  171SAPS   C3519437   0.364   5.764   5.184  0.0539 -0.4648 -0.3179
  171SAPS   H5X19438   0.387   5.676   5.247 -1.1900  0.0221  0.8820
  171SAPS   H5Y19439   0.359   5.729   5.079 -2.0170 -0.2959 -0.3141
  171SAPS   C3619440   0.235   5.819   5.234 -0.5658 -0.2580 -0.4882
  171SAPS   H6X19441   0.241   5.845   5.342  1.8696 -0.8298 -0.4409
  171SAPS   H6Y19442   0.156   5.743   5.214 -1.4672  0.3173  0.7642
  171SAPS   C3719443   0.188   5.947   5.160  0.1975  0.0017  0.4664
  171SAPS   H7X19444   0.202   5.931   5.051 -0.7832  1.4550  0.0935
  171SAPS   H7Y19445   0.250   6.029   5.202  2.2167 -1.8223  1.2073
  171SAPS   C3819446   0.038   5.972   5.170  0.2760 -0.6554  0.3539
  171SAPS   H8X19447   0.012   5.990   5.276  0.3780 -1.0983  0.4553
  171SAPS   H8Y19448  -0.016   5.880   5.139  0.7789 -0.5187 -1.0065
  171SAPS   C3919449   0.002   6.091   5.083 -0.0822 -0.7361  0.5156
  171SAPS   H9X19450   0.031   6.065   4.979 -5.1748 -2.2612 -0.7891
  171SAPS   H9Y19451   0.057   6.183   5.113 -3.5270  1.5647  0.3302
  171SAPS  C31019452  -0.144   6.132   5.086  0.5559  0.1305 -0.1515
  171SAPS  H10X19453  -0.194   6.120   5.185 -0.2081  0.5109 -0.4800
  171SAPS  H10Y19454  -0.196   6.059   5.020  3.2447 -3.7089  1.6486
  171SAPS  C31119455  -0.161   6.283   5.055  0.5173 -0.6518  0.1812
  171SAPS  H11X19456  -0.103   6.330   5.137  0.9834 -1.3581  0.2644
  171SAPS  H11Y19457  -0.266   6.307   5.079  0.4104 -0.6263 -0.2913
  171SAPS  C31219458  -0.125   6.318   4.907 -0.4145 -0.5571  0.2351
  171SAPS  H12X19459  -0.133   6.239   4.830 -1.6047 -1.3871  1.1642
  171SAPS  H12Y19460  -0.017   6.345   4.905 -0.7048  0.6023 -0.3062
  171SAPS  C31319461  -0.202   6.440   4.857 -0.1795 -0.0714 -0.3884
  171SAPS  H13X19462  -0.189   6.519   4.934 -0.8509 -1.6177  1.3725
  171SAPS  H13Y19463  -0.305   6.400   4.864 -0.1946  0.1359  0.8749
  171SAPS  C31419464  -0.158   6.478   4.723 -0.1776 -0.9440  0.0408
  171SAPS  H14X19465  -0.164   6.391   4.654 -0.3746  0.2367 -1.4995
  171SAPS  H14Y19466  -0.048   6.495   4.717 -0.6280  4.5567  1.4636
  171SAPS  C31519467  -0.233   6.597   4.668 -0.2667  0.8962 -0.0092
  171SAPS  H15X19468  -0.239   6.668   4.753 -0.4435 -1.2921  1.9068
  171SAPS  H15Y19469  -0.335   6.561   4.642 -0.3296  1.3836 -0.4598
  171SAPS  C31619470  -0.150   6.658   4.546  0.0132  0.9586 -0.0036
  171SAPS  H16X19471  -0.137   6.573   4.476 -0.2455 -1.1670  2.3695
  171SAPS  H16Y19472  -0.050   6.694   4.578  0.1344 -0.3315  1.1815
  171SAPS  C31719473  -0.233   6.763   4.482  0.4626 -0.3758  0.2850
  171SAPS  H17X19474  -0.256   6.842   4.558  1.1649 -0.8479  1.0053
  171SAPS  H17Y19475  -0.332   6.727   4.446 -1.1871  3.3176  0.5730
  171SAPS  C31819476  -0.162   6.831   4.369  0.0109  0.1214 -0.0235
  171SAPS  H18X19477  -0.234   6.890   4.308  0.8078  1.9876  0.7951
  171SAPS  H18Y19478  -0.150   6.743   4.301 -1.0933 -0.1391  0.0931
  171SAPS  H18Z19479  -0.061   6.870   4.389  0.6085 -1.3621 -0.0132
  172SAPS     N19480   7.106   6.281   5.696  0.0956 -0.1980 -0.0967
  172SAPS   HN119481   7.188   6.280   5.759 -1.2477 -2.1023  1.7532
  172SAPS   HN219482   7.101   6.201   5.629 -1.2341 -0.3079  0.1074
  172SAPS   HN319483   7.106   6.365   5.634  1.3477 -1.2030 -1.5385
  172SAPS   C1219484   6.963   6.286   5.751 -0.1423  0.1406 -0.5315
  172SAPS  H12A19485   6.902   6.294   5.663  2.0626 -0.8778 -2.2552
  172SAPS   C1319486   6.916   6.171   5.842  0.1042 -0.4994 -0.0571
  172SAPS  O13A19487   6.992   6.079   5.877 -0.6931 -0.2702 -0.3056
  172SAPS  O13B19488   6.794   6.178   5.889 -0.4071 -0.0781  0.5843
  172SAPS   C1119489   6.942   6.424   5.829  0.3386  0.0524  1.4739
  172SAPS  H11A19490   6.961   6.407   5.937  1.1780 -1.2198  1.1366
  172SAPS  H11B19491   6.834   6.448   5.825  0.3080 -0.1984 -1.2378
  172SAPS     P19492   6.964   6.673   5.769 -0.2331  0.2316 -0.5473
  172SAPS   O1319493   6.906   6.692   5.903  0.0867  0.1809 -0.0912
  172SAPS   O1419494   7.077   6.761   5.722  0.7514  0.1591 -0.3006
  172SAPS   O1219495   7.024   6.525   5.780 -0.9957  0.0006  0.4628
  172SAPS   O1119496   6.853   6.653   5.651 -0.1257 -0.0188  0.5774
  172SAPS    C119497   6.873   6.584   5.529  0.4123 -0.3553  0.7037
  172SAPS    HA19498   6.934   6.492   5.537  0.2720 -0.3615  1.8698
  172SAPS    HB19499   6.774   6.551   5.492  0.9024 -1.3284  0.2412
  172SAPS    C219500   6.946   6.672   5.420  1.2036 -0.1356 -0.4105
  172SAPS    HS19501   7.042   6.700   5.469  0.1536  0.0505  1.6437
  172SAPS   O2119502   6.870   6.791   5.391  0.3022 -0.0780 -0.4167
  172SAPS   C2119503   6.937   6.889   5.334  0.3198  0.4393 -0.1740
  172SAPS   O2219504   7.056   6.903   5.349 -0.1163 -0.1644  0.0316
  172SAPS   C2219505   6.847   6.968   5.241 -0.5470 -0.1217  0.1533
  172SAPS   H2R19506   6.781   6.898   5.184 -2.5572  0.3797  1.7107
  172SAPS   H2S19507   6.783   7.042   5.295 -0.3706  0.5609 -0.5723
  172SAPS    C319508   6.960   6.590   5.292  0.0084 -0.6159 -0.7204
  172SAPS    HX19509   6.864   6.580   5.237 -0.8088  0.5042  0.4512
  172SAPS    HY19510   6.987   6.487   5.324 -0.1809 -0.9481 -1.6084
  172SAPS   O3119511   7.057   6.643   5.205  0.0106  0.7676 -0.0518
  172SAPS   C3119512   7.185   6.609   5.238 -0.7813  0.5449  0.3980
  172SAPS   O3219513   7.222   6.537   5.327  0.6128  0.3451 -0.3870
  172SAPS   C3219514   7.268   6.673   5.126  0.0861  0.4408 -0.0120
  172SAPS   H2X19515   7.281   6.776   5.163  0.2988 -0.5026  2.7835
  172SAPS   H2Y19516   7.213   6.680   5.029  1.3836  0.1873 -0.7930
  172SAPS   C2319517   6.921   7.065   5.149 -0.7839 -0.0479 -0.1596
  172SAPS   H3R19518   6.991   7.126   5.210 -1.8369  0.6319  0.3977
  172SAPS   H3S19519   6.843   7.130   5.105 -1.6059 -0.9181 -0.0221
  172SAPS   C2419520   6.999   6.998   5.033  0.7553  0.7607 -0.5495
  172SAPS   H4R19521   6.919   6.957   4.969  1.4368  0.9524 -1.5447
  172SAPS   H4S19522   7.062   6.911   5.061  0.0020  0.1217 -0.7965
  172SAPS   C2519523   7.081   7.096   4.955  0.0486 -0.8669 -0.2161
  172SAPS   H5R19524   7.062   7.195   5.000  1.3664 -0.4160 -0.6259
  172SAPS   C2619525   7.147   7.083   4.842  0.7063 -0.7304  0.0840
  172SAPS   H6R19526   7.211   7.167   4.813 -3.3266  1.7656 -2.5569
  172SAPS   C2719527   7.173   6.965   4.755 -0.0259  0.7148  0.1628
  172SAPS   H7R19528   7.155   6.997   4.651 -1.0025  0.0850  0.1315
  172SAPS   H7S19529   7.097   6.886   4.773 -0.2793  0.6135 -1.2443
  172SAPS   C2819530   7.312   6.902   4.752  0.9792 -0.0836 -0.5190
  172SAPS   H8R19531   7.329   6.805   4.802  0.9202 -0.1854 -0.6944
  172SAPS   C2919532   7.408   6.962   4.686 -1.1739 -0.1535  0.1154
  172SAPS   H9R19533   7.509   6.921   4.681 -0.5349  1.3848 -0.3919
  172SAPS  C21019534   7.411   7.096   4.613 -0.5840  0.6887  0.1796
  172SAPS  H10R19535   7.509   7.148   4.624 -0.5849  0.7515 -0.0971
  172SAPS  H10S19536   7.336   7.166   4.655  0.6396  1.6256  0.8957
  172SAPS  C21119537   7.388   7.067   4.463  0.2817  0.6291  0.1294
  172SAPS  H11R19538   7.405   6.967   4.421  0.2936  1.5713 -2.2980
  172SAPS  C21219539   7.352   7.162   4.372 -0.8692  0.1962 -0.2238
  172SAPS  H12R19540   7.340   7.129   4.268 -1.5257 -2.5728  0.6306
  172SAPS  C21319541   7.337   7.305   4.399  0.0029 -1.5809  0.5134
  172SAPS  H13R19542   7.400   7.357   4.324 -1.8563  0.0891  0.0227
  172SAPS  H13S19543   7.375   7.346   4.496  0.1130  0.7129 -0.4246
  172SAPS  C21419544   7.189   7.349   4.370 -0.1085  0.1641 -0.5038
  172SAPS  H14R19545   7.120   7.268   4.398  0.3744  0.4963  1.8634
  172SAPS  C21519546   7.147   7.465   4.319  0.5087  0.8253  0.4035
  172SAPS  H15R19547   7.039   7.482   4.327  0.0164 -2.1374  1.5958
  172SAPS  C21619548   7.227   7.585   4.271  0.0472  0.4412  0.6712
  172SAPS  H16R19549   7.200   7.606   4.166 -0.8498 -1.1265  0.5669
  172SAPS  H16S19550   7.337   7.567   4.274 -0.3425 -2.6681 -0.3546
  172SAPS  C21719551   7.193   7.711   4.354  0.0811  0.0637 -0.2200
  172SAPS  H17R19552   7.082   7.716   4.358 -0.0118 -1.4497 -0.3104
  172SAPS  H17S19553   7.231   7.806   4.313 -1.2102  1.2550  1.2124
  172SAPS  C21819554   7.226   7.695   4.506 -0.5000  0.5093  0.2068
  172SAPS  H18R19555   7.334   7.686   4.529 -0.5103 -2.0575 -0.4739
  172SAPS  H18S19556   7.195   7.596   4.545  0.1014  0.0560 -0.4496
  172SAPS  C21919557   7.171   7.816   4.595  0.0165 -0.0776  0.5410
  172SAPS  H19R19558   7.111   7.763   4.672 -0.4494 -3.0632 -1.6838
  172SAPS  H19S19559   7.105   7.869   4.522 -0.5722  0.1537  1.2251
  172SAPS  C22019560   7.267   7.908   4.672 -0.0664  0.2496  0.1201
  172SAPS  H20R19561   7.224   7.997   4.723  1.3072  0.6953  0.5470
  172SAPS  H20S19562   7.338   7.940   4.593 -2.4514  1.4521 -1.6769
  172SAPS  H20T19563   7.338   7.855   4.739  0.1009  0.2029 -0.0954
  172SAPS   C3319564   7.405   6.612   5.116  0.4283 -0.3009 -0.2117
  172SAPS   H3X19565   7.393   6.502   5.124 -1.1196 -0.2003 -0.6757
  172SAPS   H3Y19566   7.453   6.642   5.211 -0.4952 -1.1185  0.5348
  172SAPS   C3419567   7.486   6.668   5.004 -0.5655  0.2702 -0.1774
  172SAPS   H4X19568   7.594   6.659   5.027 -0.3068  0.3332 -1.3167
  172SAPS   H4Y19569   7.461   6.774   4.984  0.0744  0.0406 -2.4791
  172SAPS   C3519570   7.467   6.582   4.876  0.3112 -0.8563 -0.0891
  172SAPS   H5X19571   7.368   6.615   4.838  1.3214  1.4565 -0.8558
  172SAPS   H5Y19572   7.456   6.478   4.914  3.1750 -1.0803  0.3929
  172SAPS   C3619573   7.575   6.614   4.780  0.0012 -0.6239  0.1978
  172SAPS   H6X19574   7.669   6.608   4.838 -0.1854  0.2648  0.6093
  172SAPS   H6Y19575   7.561   6.718   4.743 -0.1777  0.1885  2.3886
  172SAPS   C3719576   7.588   6.505   4.667  0.2727  0.2423 -0.6702
  172SAPS   H7X19577   7.576   6.404   4.711  0.9741 -0.0671 -1.1849
  172SAPS   H7Y19578   7.680   6.516   4.606  0.7732 -0.4128 -0.0569
  172SAPS   C3819579   7.460   6.518   4.572 -0.1269 -0.4543 -0.2544
  172SAPS   H8X19580   7.435   6.623   4.544  3.6708  1.0726  1.3024
  172SAPS   H8Y19581   7.374   6.484   4.634  1.3124  1.0526  2.7888
  172SAPS   C3919582   7.476   6.435   4.445 -0.7497 -0.0498 -0.1924
  172SAPS   H9X19583   7.489   6.328   4.474  0.6001  0.1016 -0.1768
  172SAPS   H9Y19584   7.564   6.475   4.391 -1.0809  0.9469 -0.0173
  172SAPS  C31019585   7.349   6.426   4.356 -0.8139 -0.2636 -0.2958
  172SAPS  H10X19586   7.276   6.386   4.429  0.7909  0.9702  2.1338
  172SAPS  H10Y19587   7.357   6.349   4.276  0.1706 -1.3545  0.7992
  172SAPS  C31119588   7.298   6.555   4.292  0.0711  0.5580 -0.3870
  172SAPS  H11X19589   7.300   6.630   4.373 -1.5832 -1.6082  1.8170
  172SAPS  H11Y19590   7.202   6.548   4.238 -0.0678 -0.7314 -0.0202
  172SAPS  C31219591   7.398   6.602   4.187 -0.6420 -0.6525  0.0070
  172SAPS  H12X19592   7.428   6.524   4.114  0.6854 -0.3559  0.2195
  172SAPS  H12Y19593   7.492   6.634   4.236  0.3225 -1.2912 -1.3552
  172SAPS  C31319594   7.347   6.735   4.126  0.4678 -0.2321  0.3887
  172SAPS  H13X19595   7.356   6.818   4.199  1.3034  0.8021 -0.8422
  172SAPS  H13Y19596   7.242   6.719   4.094  0.4631  1.5004 -0.5359
  172SAPS  C31419597   7.436   6.773   4.001 -0.3990  0.3681  0.4558
  172SAPS  H14X19598   7.389   6.829   3.917  1.8050  2.4298  0.4886
  172SAPS  H14Y19599   7.478   6.679   3.959  1.9531  1.3617  0.4554
  172SAPS  C31519600   7.571   6.851   4.032 -0.1700  0.5386  0.2265
  172SAPS  H15X19601   7.638   6.834   3.946 -0.8053  1.4436 -0.4625
  172SAPS  H15Y19602   7.616   6.793   4.116 -0.3196  0.7821  0.4765
  172SAPS  C31619603   7.547   7.000   4.062 -0.4757 -0.3404  0.4103
  172SAPS  H16X19604   7.497   7.060   3.983  0.7886  0.3478  0.1079
  172SAPS  H16Y19605   7.481   7.006   4.152  1.0201  0.1100  1.5113
  172SAPS  C31719606   7.672   7.078   4.109  0.1805 -0.0984 -0.2040
  172SAPS  H17X19607   7.741   7.096   4.024  1.5163 -0.1308  0.8427
  172SAPS  H17Y19608   7.717   7.018   4.190  1.1468 -0.0151 -0.6706
  172SAPS  C31819609   7.649   7.212   4.169  0.3838 -0.1792 -0.5252
  172SAPS  H18X19610   7.542   7.224   4.197  0.0606  0.6183 -1.9696
  172SAPS  H18Y19611   7.662   7.285   4.087  1.4671  0.7895  0.4740
  172SAPS  H18Z19612   7.709   7.240   4.258  0.9309 -3.0845  0.1072
  173SAPS     N19613   5.700   4.138   1.383 -0.3218 -0.5568 -0.3699
  173SAPS   HN119614   5.728   4.041   1.359 -0.8361 -0.4021 -1.6951
  173SAPS   HN219615   5.726   4.207   1.310 -1.0936  0.9304  0.6940
  173SAPS   HN319616   5.754   4.161   1.469  0.7903 -0.4448 -1.0806
  173SAPS   C1219617   5.549   4.146   1.401 -0.1401  0.0981  0.1105
  173SAPS  H12A19618   5.535   4.244   1.443  1.7399 -0.1334  1.4242
  173SAPS   C1319619   5.471   4.125   1.266 -0.3868 -0.2377 -0.1284
  173SAPS  O13A19620   5.525   4.102   1.153  0.5535  0.3369 -0.2492
  173SAPS  O13B19621   5.351   4.152   1.267  0.7005  0.1603 -0.1499
  173SAPS   C1119622   5.516   4.038   1.498 -0.8902 -0.3561  0.0450
  173SAPS  H11A19623   5.564   3.943   1.466 -0.0844  0.1478 -0.2730
  173SAPS  H11B19624   5.407   4.018   1.498 -0.9542 -0.0206  0.2449
  173SAPS     P19625   5.469   4.111   1.751  0.0021  0.2083 -0.3169
  173SAPS   O1319626   5.527   4.209   1.842  0.3780  0.0496 -0.1544
  173SAPS   O1419627   5.338   4.140   1.690  0.2991 -0.6294 -0.1660
  173SAPS   O1219628   5.567   4.075   1.629  0.1399 -0.0203 -0.0170
  173SAPS   O1119629   5.449   3.969   1.830 -0.0781 -0.2607 -0.2461
  173SAPS    C119630   5.558   3.898   1.897 -0.1065 -0.5666  0.3885
  173SAPS    HA19631   5.631   3.859   1.824  1.3678  1.9078  0.4354
  173SAPS    HB19632   5.607   3.973   1.963 -0.7802 -0.9323  1.3422
  173SAPS    C219633   5.501   3.797   1.997  0.0952  0.2212 -0.4060
  173SAPS    HS19634   5.437   3.721   1.946  1.5468 -2.3454  1.4103
  173SAPS   O2119635   5.424   3.875   2.088 -0.5068  0.4771  0.0426
  173SAPS   C2119636   5.295   3.877   2.067  0.2102  0.5921 -0.5301
  173SAPS   O2219637   5.233   3.821   1.979  0.1446 -0.5210  0.5145
  173SAPS   C2219638   5.233   3.961   2.189 -0.8129  0.8758 -0.1453
  173SAPS   H2R19639   5.122   3.964   2.183 -1.0086  0.1566  2.0043
  173SAPS   H2S19640   5.267   3.906   2.280  1.7374  0.1590 -1.4239
  173SAPS    C319641   5.607   3.719   2.088  0.2165 -0.8876 -0.5807
  173SAPS    HX19642   5.662   3.793   2.150 -1.1908 -0.9486  0.8131
  173SAPS    HY19643   5.682   3.670   2.022 -0.9787 -3.0385 -0.4406
  173SAPS   O3119644   5.538   3.622   2.172  0.1526 -0.0346  0.3351
  173SAPS   C3119645   5.513   3.652   2.295  0.5229  0.0591  0.1580
  173SAPS   O3219646   5.529   3.756   2.350  0.4378  0.3474 -0.0962
  173SAPS   C3219647   5.431   3.537   2.352  0.4425  0.0478  0.6980
  173SAPS   H2X19648   5.458   3.444   2.298  1.5677  0.2189  0.9251
  173SAPS   H2Y19649   5.325   3.557   2.330  0.7332  0.4178 -0.4169
  173SAPS   C2319650   5.289   4.104   2.180 -0.0420  0.0069 -0.1824
  173SAPS   H3R19651   5.243   4.141   2.087  0.1315  0.1424 -0.2141
  173SAPS   H3S19652   5.400   4.107   2.174 -0.1049  2.4831 -1.0957
  173SAPS   C2419653   5.259   4.200   2.299 -0.0278  0.4823 -0.0608
  173SAPS   H4R19654   5.148   4.202   2.308 -0.0744 -0.5896 -0.2001
  173SAPS   H4S19655   5.287   4.305   2.275  1.4046  0.2803  0.6338
  173SAPS   C2519656   5.329   4.175   2.428  0.1775  0.7530  0.0404
  173SAPS   H5R19657   5.431   4.214   2.426 -0.3193  2.1949 -2.6055
  173SAPS   C2619658   5.278   4.110   2.534 -0.6798 -0.0178  0.2227
  173SAPS   H6R19659   5.344   4.113   2.622  1.0523  0.1804 -1.0326
  173SAPS   C2719660   5.141   4.046   2.553  0.7899 -0.3035  0.0993
  173SAPS   H7R19661   5.156   3.940   2.581  2.3044  0.0760  0.8417
  173SAPS   H7S19662   5.094   4.034   2.453 -2.1173 -0.1140  1.3468
  173SAPS   C2819663   5.041   4.111   2.644  0.0631 -0.3239  0.2176
  173SAPS   H8R19664   5.046   4.220   2.656  1.3615 -0.3165 -0.2136
  173SAPS   C2919665   4.961   4.042   2.723 -0.4916 -0.1617  0.2074
  173SAPS   H9R19666   4.882   4.097   2.776  0.3246  1.5903 -0.3103
  173SAPS  C21019667   4.938   3.892   2.738  0.0814  0.0060 -0.8187
  173SAPS  H10R19668   5.015   3.857   2.811  1.2950  0.2147 -1.9493
  173SAPS  H10S19669   4.968   3.829   2.652  1.1933  0.8501 -1.0853
  173SAPS  C21119670   4.789   3.860   2.763  0.1804 -0.2948  0.3719
  173SAPS  H11R19671   4.767   3.860   2.871 -0.7982 -0.8516  0.1847
  173SAPS  C21219672   4.693   3.826   2.672 -0.2366 -0.9569 -0.9470
  173SAPS  H12R19673   4.587   3.818   2.699 -0.5289  1.0184 -1.3620
  173SAPS  C21319674   4.722   3.814   2.525  0.0779  0.3889 -0.4742
  173SAPS  H13R19675   4.820   3.863   2.508  0.4662  0.9350  2.6875
  173SAPS  H13S19676   4.644   3.876   2.476 -1.5918 -1.5110 -0.3869
  173SAPS  C21419677   4.721   3.671   2.475  0.8325 -0.9254 -0.1785
  173SAPS  H14R19678   4.620   3.632   2.491  0.4412 -0.1491 -0.6655
  173SAPS  C21519679   4.814   3.611   2.391  0.7275 -0.5218  0.0743
  173SAPS  H15R19680   4.798   3.518   2.334  0.1690  0.2901 -1.1390
  173SAPS  C21619681   4.941   3.673   2.342 -0.3119 -0.6293  0.1871
  173SAPS  H16R19682   5.027   3.637   2.402  0.4289 -0.2092 -0.5921
  173SAPS  H16S19683   4.951   3.783   2.352  1.1747 -0.9120  2.2601
  173SAPS  C21719684   4.972   3.655   2.195 -0.5143  0.2957  0.0709
  173SAPS  H17R19685   5.052   3.713   2.144  0.0224 -2.4193 -2.4924
  173SAPS  H17S19686   4.883   3.676   2.132 -0.6100 -1.2558 -0.3649
  173SAPS  C21819687   5.018   3.511   2.164  0.4891 -0.3006 -0.4283
  173SAPS  H18R19688   4.939   3.438   2.193  0.7044  0.8155  3.5080
  173SAPS  H18S19689   5.109   3.494   2.226  0.5664  2.5851  0.3742
  173SAPS  C21919690   5.053   3.496   2.014  0.2097  0.4222 -0.0994
  173SAPS  H19R19691   5.117   3.574   1.969  0.6567 -0.2536 -0.6714
  173SAPS  H19S19692   4.956   3.488   1.962 -0.9413 -0.2252  2.0322
  173SAPS  C22019693   5.120   3.357   1.999 -0.7152  0.0386 -0.4740
  173SAPS  H20R19694   5.060   3.269   2.032 -0.5904  0.2631  0.3589
  173SAPS  H20S19695   5.206   3.345   2.068 -1.3566 -1.5843  0.1101
  173SAPS  H20T19696   5.156   3.344   1.894 -0.5642  1.0210 -0.5520
  173SAPS   C3319697   5.443   3.522   2.500 -0.2602 -0.1739 -0.9404
  173SAPS   H3X19698   5.427   3.618   2.554 -1.0429 -0.5102 -0.5655
  173SAPS   H3Y19699   5.554   3.510   2.505 -0.1320  1.0591 -0.4621
  173SAPS   C3419700   5.375   3.397   2.556  0.7720 -0.0037 -0.9244
  173SAPS   H4X19701   5.405   3.387   2.663 -1.3430  0.6633 -0.2323
  173SAPS   H4Y19702   5.403   3.301   2.507  0.6549 -0.7540  0.4247
  173SAPS   C3519703   5.225   3.420   2.561 -0.3019  1.1082  0.8049
  173SAPS   H5X19704   5.170   3.331   2.598  0.7435  0.2930  0.4548
  173SAPS   H5Y19705   5.181   3.442   2.462 -0.1908 -1.3654  0.1258
  173SAPS   C3619706   5.186   3.526   2.664  0.5481  0.0903 -0.3776
  173SAPS   H6X19707   5.090   3.567   2.626  0.1070 -0.9595 -0.4222
  173SAPS   H6Y19708   5.265   3.604   2.673  0.1923  0.2113  3.0656
  173SAPS   C3719709   5.162   3.475   2.808  0.2656 -0.6381  0.0030
  173SAPS   H7X19710   5.250   3.421   2.847  0.6887  1.9957  3.1380
  173SAPS   H7Y19711   5.070   3.414   2.819 -0.1138 -0.0748  0.0123
  173SAPS   C3819712   5.132   3.585   2.905  0.0992 -0.2352  0.1929
  173SAPS   H8X19713   5.046   3.642   2.864  1.3368  1.6052  0.0387
  173SAPS   H8Y19714   5.219   3.655   2.900 -0.4697  0.3919 -2.9389
  173SAPS   C3919715   5.110   3.529   3.046  0.0546 -0.9984 -0.0543
  173SAPS   H9X19716   5.131   3.609   3.121  0.6125 -0.3232 -0.9100
  173SAPS   H9Y19717   5.197   3.461   3.056  1.9948  1.2561 -0.5620
  173SAPS  C31019718   4.975   3.461   3.070  0.7743 -0.6431  0.3332
  173SAPS  H10X19719   4.955   3.377   2.999  0.6748  0.8788 -1.5363
  173SAPS  H10Y19720   4.886   3.526   3.056  1.1021 -0.3941 -0.7567
  173SAPS  C31119721   4.965   3.409   3.215  0.3337  0.1027 -0.1406
  173SAPS  H11X19722   5.042   3.476   3.259  0.6534  0.6094 -1.4150
  173SAPS  H11Y19723   5.002   3.305   3.220  0.1588  0.0228 -0.4545
  173SAPS  C31219724   4.834   3.430   3.296  0.4711  0.1231  0.3167
  173SAPS  H12X19725   4.752   3.397   3.228 -0.8121  0.4023  1.6737
  173SAPS  H12Y19726   4.804   3.533   3.325  1.0327  0.6602 -0.9434
  173SAPS  C31319727   4.833   3.336   3.419 -0.4183  0.1060 -0.0293
  173SAPS  H13X19728   4.885   3.239   3.402 -1.0672 -0.7640  2.4282
  173SAPS  H13Y19729   4.729   3.308   3.448 -0.4941  0.2487 -0.1647
  173SAPS  C31419730   4.913   3.400   3.535  0.5631  0.6763 -0.2958
  173SAPS  H14X19731   5.018   3.419   3.506  1.8407  0.1014  3.4748
  173SAPS  H14Y19732   4.909   3.331   3.621  1.3306 -1.0418 -1.5822
  173SAPS  C31519733   4.857   3.534   3.577  0.1658 -0.6062  0.1239
  173SAPS  H15X19734   4.746   3.528   3.590  0.1077 -0.8018 -0.4672
  173SAPS  H15Y19735   4.878   3.601   3.491  0.1495 -1.4234 -0.5272
  173SAPS  C31619736   4.922   3.579   3.704  0.2844 -0.1845  0.2978
  173SAPS  H16X19737   4.882   3.520   3.789 -0.2324 -0.0036  0.1852
  173SAPS  H16Y19738   4.878   3.680   3.720 -0.8621  0.1216 -3.7749
  173SAPS  C31719739   5.071   3.596   3.700 -0.9296 -0.2902 -0.4367
  173SAPS  H17X19740   5.106   3.616   3.597  1.7642 -1.1811  0.2252
  173SAPS  H17Y19741   5.114   3.496   3.722 -1.2135 -0.1511  0.8664
  173SAPS  C31819742   5.127   3.696   3.799  0.3521 -0.7425  0.0841
  173SAPS  H18X19743   5.073   3.793   3.800  2.1650  0.4090  3.2982
  173SAPS  H18Y19744   5.233   3.709   3.770 -0.4394 -1.0232 -3.3440
  173SAPS  H18Z19745   5.125   3.651   3.901  0.0972 -1.0563 -0.0592
  174SAPS     N19746   1.875   3.341   1.905  0.4379  0.2572  0.0186
  174SAPS   HN119747   1.784   3.374   1.943  0.0025  0.1500 -0.9115
  174SAPS   HN219748   1.897   3.244   1.936  1.0557  0.4704  0.2571
  174SAPS   HN319749   1.936   3.412   1.950  0.9244 -0.5353  0.6356
  174SAPS   C1219750   1.892   3.347   1.761  0.1370 -0.1525  0.0807
  174SAPS  H12A19751   1.932   3.445   1.741 -0.4628  0.5697  2.1553
  174SAPS   C1319752   1.991   3.239   1.696 -0.0658  0.1822  0.1455
  174SAPS  O13A19753   2.002   3.122   1.745 -0.0508 -0.3158 -0.2161
  174SAPS  O13B19754   2.030   3.261   1.573  0.5036 -0.2921 -0.1101
  174SAPS   C1119755   1.747   3.326   1.701  0.2579 -0.5372 -0.4966
  174SAPS  H11A19756   1.714   3.220   1.707 -0.6560 -0.2434 -0.1519
  174SAPS  H11B19757   1.753   3.351   1.592  0.8407  0.9735 -0.1461
  174SAPS     P19758   1.507   3.408   1.769 -0.2481 -0.0849  0.4150
  174SAPS   O1319759   1.437   3.529   1.822 -0.9275  0.5775  0.5006
  174SAPS   O1419760   1.461   3.365   1.634 -0.4520 -0.2648 -0.2211
  174SAPS   O1219761   1.654   3.427   1.752 -0.2654 -0.7306 -0.2315
  174SAPS   O1119762   1.500   3.293   1.871  0.4869  0.5146  0.2652
  174SAPS    C119763   1.389   3.197   1.874 -0.0296 -0.5821  0.1531
  174SAPS    HA19764   1.295   3.255   1.862  0.7546  1.4168  2.7708
  174SAPS    HB19765   1.404   3.122   1.793 -1.0898  0.1554 -0.7695
  174SAPS    C219766   1.392   3.115   2.012 -0.1213  0.0753  0.1130
  174SAPS    HS19767   1.298   3.055   2.008  0.0315 -0.1476 -0.2548
  174SAPS   O2119768   1.404   3.201   2.126 -0.2197  0.9636 -0.5030
  174SAPS   C2119769   1.297   3.267   2.151  0.0538  0.2626 -0.4153
  174SAPS   O2219770   1.198   3.277   2.076 -0.4932 -0.1534 -0.2669
  174SAPS   C2219771   1.308   3.318   2.299  0.7988 -1.0743  0.2574
  174SAPS   H2R19772   1.254   3.244   2.362 -0.8705 -0.1554 -0.0509
  174SAPS   H2S19773   1.418   3.334   2.306  0.5770  0.2932  0.8777
  174SAPS    C319774   1.509   3.018   2.013  0.0303 -0.1244 -0.4242
  174SAPS    HX19775   1.600   3.078   1.990 -0.2981  1.2152  1.5337
  174SAPS    HY19776   1.496   2.940   1.935 -0.2022 -1.0720  0.5504
  174SAPS   O3119777   1.528   2.962   2.142  0.1316  0.1212  0.2924
  174SAPS   C3119778   1.619   2.999   2.229  0.1767  0.8381 -0.1249
  174SAPS   O3219779   1.687   3.109   2.235  0.5487  0.2432  0.0889
  174SAPS   C3219780   1.639   2.885   2.333 -0.5181 -0.2310  0.2170
  174SAPS   H2X19781   1.675   2.794   2.281  0.7337 -0.1847  0.9676
  174SAPS   H2Y19782   1.544   2.874   2.389  0.6344 -1.3432  2.0337
  174SAPS   C2319783   1.234   3.455   2.307 -1.2092 -0.4456  0.4465
  174SAPS   H3R19784   1.134   3.450   2.259 -1.8460 -2.4180  1.8463
  174SAPS   H3S19785   1.306   3.525   2.258  1.4238 -2.7463  0.7262
  174SAPS   C2419786   1.213   3.493   2.456 -0.4217 -0.1414  0.2693
  174SAPS   H4R19787   1.311   3.529   2.493  0.2860 -1.8168  0.1328
  174SAPS   H4S19788   1.174   3.401   2.504 -0.9390 -0.0401  0.0457
  174SAPS   C2519789   1.108   3.605   2.475  0.1603  0.0843  0.1311
  174SAPS   H5R19790   1.035   3.602   2.393 -1.4756  0.4758  1.5068
  174SAPS   C2619791   1.092   3.682   2.581 -0.4277 -0.3639 -0.2577
  174SAPS   H6R19792   1.019   3.764   2.590  1.2392  1.1557  0.2084
  174SAPS   C2719793   1.194   3.693   2.696 -0.2265 -0.2942 -0.7728
  174SAPS   H7R19794   1.269   3.612   2.700  0.5468  0.3979 -0.9819
  174SAPS   H7S19795   1.145   3.685   2.796  2.1542  2.3521  0.7715
  174SAPS   C2819796   1.288   3.812   2.706 -0.3856  0.1006  0.5339
  174SAPS   H8R19797   1.255   3.893   2.639  0.9646 -1.4969 -2.2276
  174SAPS   C2919798   1.382   3.837   2.799 -0.4059 -0.0715  0.4699
  174SAPS   H9R19799   1.440   3.930   2.794 -1.0773  0.3431  0.2137
  174SAPS  C21019800   1.421   3.763   2.927  0.6183  0.8978 -0.3389
  174SAPS  H10R19801   1.420   3.653   2.909  0.4703  1.1090 -1.8188
  174SAPS  H10S19802   1.341   3.789   2.999  2.5667  0.6498  2.0429
  174SAPS  C21119803   1.549   3.784   2.999  0.1756  0.3987 -0.1771
  174SAPS  H11R19804   1.581   3.889   3.007 -1.0207  0.5930  3.3439
  174SAPS  C21219805   1.628   3.691   3.062 -0.6746  0.7858  0.1687
  174SAPS  H12R19806   1.719   3.713   3.119 -0.0715 -1.9803  0.3806
  174SAPS  C21319807   1.603   3.546   3.075 -0.6387  0.2871 -0.0649
  174SAPS  H13R19808   1.572   3.516   2.972  1.8432  2.7133 -1.6565
  174SAPS  H13S19809   1.526   3.537   3.155  0.2880 -0.3842  0.7897
  174SAPS  C21419810   1.726   3.464   3.106 -0.4128  0.0661 -0.3618
  174SAPS  H14R19811   1.736   3.383   3.032 -0.6944  0.7910 -1.2147
  174SAPS  C21519812   1.799   3.470   3.219 -1.0670  0.0598  0.0357
  174SAPS  H15R19813   1.887   3.404   3.220 -0.9392  0.1925 -0.9024
  174SAPS  C21619814   1.782   3.562   3.331  0.0806  0.2727 -0.1751
  174SAPS  H16R19815   1.695   3.629   3.316 -0.5922  0.3280  3.1862
  174SAPS  H16S19816   1.880   3.614   3.331 -0.1060  0.6274 -0.2863
  174SAPS  C21719817   1.746   3.501   3.473  0.7616  0.2676  0.1768
  174SAPS  H17R19818   1.703   3.585   3.532  0.6350  0.6018 -0.3900
  174SAPS  H17S19819   1.841   3.470   3.523  0.3080 -1.7793 -0.1403
  174SAPS  C21819820   1.638   3.389   3.472 -0.0625  0.1286  0.3595
  174SAPS  H18R19821   1.694   3.301   3.434  0.3175  1.8901 -3.6309
  174SAPS  H18S19822   1.556   3.423   3.404 -2.2366 -0.9048  2.3094
  174SAPS  C21919823   1.586   3.351   3.614  0.2585 -0.1021  0.1275
  174SAPS  H19R19824   1.495   3.290   3.598  0.4353 -0.5044  0.5917
  174SAPS  H19S19825   1.565   3.445   3.669  0.9227  0.4163 -0.4807
  174SAPS  C22019826   1.691   3.264   3.688  0.1701 -0.6920  0.0619
  174SAPS  H20R19827   1.714   3.172   3.629 -1.9152 -0.6787 -0.8594
  174SAPS  H20S19828   1.636   3.232   3.779 -1.6123 -3.4013 -1.8258
  174SAPS  H20T19829   1.788   3.316   3.702 -1.1423  1.6424  1.0619
  174SAPS   C3319830   1.749   2.923   2.437  0.1150 -0.0807  0.2079
  174SAPS   H3X19831   1.722   3.023   2.477 -2.7919 -0.1172 -1.3803
  174SAPS   H3Y19832   1.854   2.918   2.400  0.6320 -0.8381  1.6920
  174SAPS   C3419833   1.759   2.826   2.556 -0.1802  0.9064 -0.7918
  174SAPS   H4X19834   1.663   2.826   2.612  0.5560 -0.1646  0.5323
  174SAPS   H4Y19835   1.823   2.868   2.637 -2.4992 -0.8849  2.1910
  174SAPS   C3519836   1.806   2.678   2.519 -0.0432  0.3732 -0.4458
  174SAPS   H5X19837   1.902   2.686   2.464 -0.3815  0.0295 -1.0863
  174SAPS   H5Y19838   1.728   2.644   2.447  0.0721  0.1751 -0.4771
  174SAPS   C3619839   1.821   2.588   2.641 -0.6343 -0.2354 -0.0582
  174SAPS   H6X19840   1.895   2.632   2.711  0.5022  1.1590 -2.0382
  174SAPS   H6Y19841   1.861   2.491   2.605  2.7055  1.5458 -1.6092
  174SAPS   C3719842   1.694   2.539   2.711 -0.5024  0.3082 -0.1178
  174SAPS   H7X19843   1.647   2.478   2.631  2.0421 -0.4948 -1.1095
  174SAPS   H7Y19844   1.643   2.631   2.747  1.5759  1.2856  0.4802
  174SAPS   C3819845   1.703   2.456   2.833 -0.0512 -0.2954  0.1480
  174SAPS   H8X19846   1.723   2.530   2.914 -0.7347 -0.7830  0.7732
  174SAPS   H8Y19847   1.779   2.375   2.829  0.9138  0.6530 -2.5339
  174SAPS   C3919848   1.571   2.383   2.865 -0.1495 -0.5786  0.0057
  174SAPS   H9X19849   1.545   2.305   2.791 -2.4679 -0.7960  0.9386
  174SAPS   H9Y19850   1.490   2.457   2.887  3.8661  3.7597  1.8489
  174SAPS  C31019851   1.593   2.287   2.981  0.1804  0.9235 -0.2929
  174SAPS  H10X19852   1.675   2.222   2.942 -0.2476  0.2505 -0.0800
  174SAPS  H10Y19853   1.514   2.209   2.971  0.7900  0.5104 -2.6792
  174SAPS  C31119854   1.615   2.341   3.126 -0.2895 -0.4004  0.7284
  174SAPS  H11X19855   1.528   2.410   3.138 -0.8952 -1.0834  0.3382
  174SAPS  H11Y19856   1.705   2.405   3.142 -0.8829  0.3910  0.9570
  174SAPS  C31219857   1.621   2.233   3.232  0.2008  0.3108 -0.2189
  174SAPS  H12X19858   1.714   2.172   3.236  0.3674  0.5633 -0.2680
  174SAPS  H12Y19859   1.545   2.157   3.203  1.0118 -1.2396  1.4357
  174SAPS  C31319860   1.586   2.290   3.370 -0.4815 -0.4711 -1.0121
  174SAPS  H13X19861   1.478   2.312   3.372 -0.7430 -1.5749  2.0361
  174SAPS  H13Y19862   1.642   2.385   3.382 -0.0373 -0.9085  0.6052
  174SAPS  C31419863   1.616   2.201   3.485  0.5619  0.0566  0.8335
  174SAPS  H14X19864   1.571   2.243   3.577 -1.3816  0.5363 -0.2791
  174SAPS  H14Y19865   1.725   2.198   3.507  0.2359 -1.0347  2.4429
  174SAPS  C31519866   1.560   2.060   3.467 -0.6115 -0.6742  0.5192
  174SAPS  H15X19867   1.618   2.007   3.388 -2.8860  1.0667 -2.5637
  174SAPS  H15Y19868   1.454   2.075   3.438 -0.8057  1.5018  2.1208
  174SAPS  C31619869   1.580   1.972   3.588 -0.0288 -0.0062  0.3912
  174SAPS  H16X19870   1.543   1.869   3.567  3.0365 -1.8001  2.8152
  174SAPS  H16Y19871   1.522   2.017   3.671  0.2910 -1.0433  1.2005
  174SAPS  C31719872   1.724   1.962   3.634  0.1699 -0.4460  0.4028
  174SAPS  H17X19873   1.761   2.054   3.685  0.5717  0.0990 -0.8367
  174SAPS  H17Y19874   1.791   1.938   3.549  0.6857  0.9039  0.3946
  174SAPS  C31819875   1.738   1.836   3.724 -0.1834 -0.5749  0.5641
  174SAPS  H18X19876   1.845   1.815   3.741 -0.5556 -2.5860  0.6548
  174SAPS  H18Y19877   1.698   1.751   3.665 -0.8526 -0.7502  1.2477
  174SAPS  H18Z19878   1.681   1.854   3.818  0.9439 -0.7480  1.3013
  175SAPS     N19879   5.120   2.048   1.482 -0.5958  0.2634  0.1523
  175SAPS   HN119880   5.062   2.052   1.395  0.2657  1.8164 -0.3906
  175SAPS   HN219881   5.197   1.979   1.477  1.9253  2.6991  1.9319
  175SAPS   HN319882   5.052   2.030   1.558  0.1716 -0.2978  0.7142
  175SAPS   C1219883   5.175   2.188   1.500  0.2161 -0.3706  0.3323
  175SAPS  H12A19884   5.250   2.217   1.428  1.3979  0.3145  1.8014
  175SAPS   C1319885   5.081   2.306   1.493 -0.0226  0.1522  0.7434
  175SAPS  O13A19886   4.964   2.291   1.443 -0.3199  0.4382  0.6288
  175SAPS  O13B19887   5.141   2.419   1.488 -0.3457 -0.1477 -0.5704
  175SAPS   C1119888   5.250   2.198   1.641 -0.2712  0.6632 -0.2422
  175SAPS  H11A19889   5.174   2.182   1.720  1.1095 -1.7483  0.7096
  175SAPS  H11B19890   5.293   2.300   1.650  3.2160 -0.8629  3.5554
  175SAPS     P19891   5.419   2.086   1.814  0.0187  0.2500  0.3475
  175SAPS   O1319892   5.413   1.941   1.847 -0.1925  0.7512  0.4559
  175SAPS   O1419893   5.545   2.165   1.831  0.4303  0.0207  0.1294
  175SAPS   O1219894   5.362   2.106   1.664 -0.2430 -0.1061 -0.2686
  175SAPS   O1119895   5.310   2.152   1.908 -0.2244  0.0147 -0.0434
  175SAPS    C119896   5.289   2.118   2.043  0.2039 -0.5592 -0.0968
  175SAPS    HA19897   5.283   2.009   2.061  0.4068 -0.9171 -1.9586
  175SAPS    HB19898   5.374   2.149   2.108  0.5813 -0.8972 -0.4192
  175SAPS    C219899   5.157   2.186   2.105  0.3323  0.4903  0.0660
  175SAPS    HS19900   5.164   2.290   2.064 -0.7311  0.4218 -0.3298
  175SAPS   O2119901   5.167   2.187   2.245  0.8068 -0.1347 -0.3579
  175SAPS   C2119902   5.094   2.276   2.311  0.3839  0.0023 -0.0780
  175SAPS   O2219903   5.032   2.369   2.267  0.6452 -0.0076 -0.1468
  175SAPS   C2219904   5.105   2.240   2.464 -0.1349 -0.5374 -0.4142
  175SAPS   H2R19905   5.161   2.146   2.486  2.4867  0.7184 -1.2962
  175SAPS   H2S19906   5.159   2.326   2.510 -2.4712  1.1054 -0.6003
  175SAPS    C319907   5.027   2.122   2.052 -0.4112 -0.1007  0.1536
  175SAPS    HX19908   5.039   2.129   1.942 -2.1398  0.0225 -0.0436
  175SAPS    HY19909   4.954   2.201   2.077  0.2151  0.7136 -0.5363
  175SAPS   O3119910   5.008   1.986   2.100  0.2483 -0.0961  0.2415
  175SAPS   C3119911   4.908   1.979   2.180  0.3561  0.2033  0.3395
  175SAPS   O3219912   4.828   2.062   2.207 -0.5232  0.1294  0.2883
  175SAPS   C3219913   4.887   1.825   2.217 -0.1681 -0.4031  0.3685
  175SAPS   H2X19914   4.897   1.775   2.119  0.2998  1.5922 -0.6672
  175SAPS   H2Y19915   4.784   1.814   2.258 -1.2938 -0.4756 -2.2324
  175SAPS   C2319916   4.969   2.246   2.533 -0.4388  0.0119  0.0044
  175SAPS   H3R19917   4.916   2.155   2.497  0.9945 -1.0604  0.4723
  175SAPS   H3S19918   4.900   2.327   2.504 -0.2034  0.1262 -0.2480
  175SAPS   C2419919   4.977   2.233   2.691  0.2526 -0.2399  0.5745
  175SAPS   H4R19920   5.047   2.149   2.711 -0.0768 -0.0376  2.8033
  175SAPS   H4S19921   4.880   2.195   2.732 -0.6274 -0.2779 -1.4083
  175SAPS   C2519922   5.027   2.354   2.761  1.2203  0.0003 -0.0580
  175SAPS   H5R19923   5.088   2.420   2.697  0.1797  0.0534 -1.0122
  175SAPS   C2619924   5.026   2.385   2.888 -0.4983  0.6901 -0.4262
  175SAPS   H6R19925   5.078   2.474   2.926 -0.3967 -0.3505  2.0801
  175SAPS   C2719926   4.984   2.302   3.005  0.1022  0.8062  0.2958
  175SAPS   H7R19927   5.069   2.235   3.030  0.9629  0.9415 -2.0348
  175SAPS   H7S19928   4.904   2.230   2.976  1.3050 -0.8712  0.9970
  175SAPS   C2819929   4.937   2.384   3.123 -0.1130 -0.1067  0.3987
  175SAPS   H8R19930   4.916   2.489   3.096  2.8424  0.0272 -1.7952
  175SAPS   C2919931   4.914   2.348   3.253 -0.0411 -0.1485  0.1447
  175SAPS   H9R19932   4.879   2.424   3.325 -2.8477 -0.9775 -0.2413
  175SAPS  C21019933   4.928   2.206   3.314 -0.1730 -0.8496  0.0812
  175SAPS  H10R19934   4.995   2.222   3.401  0.6219 -1.3171 -0.4299
  175SAPS  H10S19935   4.987   2.142   3.245 -1.2924 -0.6314 -1.1236
  175SAPS  C21119936   4.806   2.135   3.367 -0.9419  0.2563  0.2328
  175SAPS  H11R19937   4.708   2.174   3.334 -0.8318 -0.3706 -0.8714
  175SAPS  C21219938   4.804   2.023   3.450 -0.1646 -0.4743  0.7570
  175SAPS  H12R19939   4.712   1.975   3.485  0.9818 -3.4121  0.0152
  175SAPS  C21319940   4.921   1.953   3.508  0.0612 -0.4758 -0.3585
  175SAPS  H13R19941   5.005   1.977   3.439 -0.6229 -0.5601 -1.2355
  175SAPS  H13S19942   4.901   1.844   3.502 -0.4771 -0.3420 -1.2880
  175SAPS  C21419943   4.939   1.995   3.651  0.1665 -0.3852 -0.3532
  175SAPS  H14R19944   4.848   2.034   3.698 -1.1190  0.0888 -3.0670
  175SAPS  C21519945   5.052   1.980   3.720 -0.0064 -0.4785  0.3241
  175SAPS  H15R19946   5.061   2.020   3.823 -0.0187  3.0624 -0.9082
  175SAPS  C21619947   5.181   1.928   3.666  0.1873  0.0283  0.4100
  175SAPS  H16R19948   5.253   2.012   3.670  0.7100 -0.3772 -0.3938
  175SAPS  H16S19949   5.172   1.900   3.559 -0.1169 -0.8813  0.6633
  175SAPS  C21719950   5.243   1.814   3.750 -0.2090 -0.3040  0.4948
  175SAPS  H17R19951   5.266   1.857   3.850  0.8582  1.6451 -0.5183
  175SAPS  H17S19952   5.336   1.785   3.695 -0.0774 -0.2662  0.6961
  175SAPS  C21819953   5.164   1.684   3.757 -0.4525  0.3066 -0.1797
  175SAPS  H18R19954   5.149   1.650   3.652 -0.5038  1.1046 -0.4356
  175SAPS  H18S19955   5.058   1.699   3.787 -0.9754 -1.7201 -0.8457
  175SAPS  C21919956   5.238   1.571   3.838  0.7124 -0.7014  0.3271
  175SAPS  H19R19957   5.336   1.552   3.790  1.1144 -1.4805  1.4192
  175SAPS  H19S19958   5.173   1.483   3.817 -1.6404  0.8140  0.8421
  175SAPS  C22019959   5.250   1.585   3.990 -0.0974 -0.3658  0.2453
  175SAPS  H20R19960   5.150   1.605   4.034  0.4116  1.0642  0.8152
  175SAPS  H20S19961   5.320   1.669   4.012 -0.5602  0.0579  0.1207
  175SAPS  H20T19962   5.281   1.485   4.025 -1.7781 -0.5867  1.2116
  175SAPS   C3319963   4.971   1.772   2.326  0.0154  0.5918 -0.5529
  175SAPS   H3X19964   4.949   1.668   2.358  1.3115  0.7781  1.0630
  175SAPS   H3Y19965   4.948   1.830   2.417 -1.7110 -1.0293  0.1175
  175SAPS   C3419966   5.123   1.786   2.296 -1.0402  0.3861  0.0245
  175SAPS   H4X19967   5.143   1.891   2.263 -1.4210  0.7101  0.8134
  175SAPS   H4Y19968   5.160   1.714   2.219  0.1708 -1.8295  2.5354
  175SAPS   C3519969   5.202   1.770   2.427  0.3412  0.0310 -0.3190
  175SAPS   H5X19970   5.152   1.844   2.493 -1.1856 -1.2362  0.0023
  175SAPS   H5Y19971   5.304   1.804   2.400  0.0784  0.0194 -1.4042
  175SAPS   C3619972   5.228   1.633   2.482  0.4479  0.1305 -0.1934
  175SAPS   H6X19973   5.292   1.587   2.404  1.2695 -0.2238  0.6772
  175SAPS   H6Y19974   5.136   1.572   2.496  1.7378 -1.1819  3.7726
  175SAPS   C3719975   5.306   1.634   2.614 -0.0695  0.2705 -0.1870
  175SAPS   H7X19976   5.230   1.652   2.693 -3.0799  0.7974 -2.9557
  175SAPS   H7Y19977   5.378   1.718   2.607 -0.1209  0.2228 -1.6536
  175SAPS   C3819978   5.384   1.503   2.632  0.2190 -0.5376 -0.2191
  175SAPS   H8X19979   5.474   1.500   2.566  0.0442 -0.6335 -0.4529
  175SAPS   H8Y19980   5.316   1.419   2.609 -1.2408  0.0896  1.5469
  175SAPS   C3919981   5.427   1.484   2.776 -0.1172  0.5484 -0.1984
  175SAPS   H9X19982   5.346   1.510   2.848  1.1490  0.9395  1.1327
  175SAPS   H9Y19983   5.502   1.563   2.799 -1.2310  2.2466 -1.9928
  175SAPS  C31019984   5.486   1.339   2.794 -0.1010 -0.6502 -0.1807
  175SAPS  H10X19985   5.574   1.324   2.727 -0.0998  0.1984 -0.3742
  175SAPS  H10Y19986   5.406   1.263   2.781  0.7530 -1.7295  0.6472
  175SAPS  C31119987   5.540   1.320   2.941 -1.1080  0.4424 -0.8299
  175SAPS  H11X19988   5.464   1.366   3.006  0.4490 -1.4889  2.6254
  175SAPS  H11Y19989   5.637   1.373   2.946 -0.2139 -1.1180 -0.9075
  175SAPS  C31219990   5.560   1.181   2.996 -0.2426 -0.0347  0.0103
  175SAPS  H12X19991   5.652   1.136   2.952 -1.5071 -0.4926 -2.3176
  175SAPS  H12Y19992   5.477   1.113   2.967 -1.4937  1.5165 -0.2268
  175SAPS  C31319993   5.578   1.189   3.150  1.2518 -0.0236 -0.8390
  175SAPS  H13X19994   5.476   1.208   3.190  1.5151 -0.3948  0.0241
  175SAPS  H13Y19995   5.645   1.273   3.177  1.5374 -1.1192  2.1657
  175SAPS  C31419996   5.650   1.070   3.214 -0.5928 -1.2142  0.1205
  175SAPS  H14X19997   5.739   1.058   3.148  0.0117  0.8544  0.4845
  175SAPS  H14Y19998   5.581   0.983   3.225  0.3694 -1.7568  2.4430
  175SAPS  C31519999   5.709   1.103   3.359  0.1707 -0.1597 -0.1648
  175SAPS  H15X20000   5.631   1.117   3.437  0.4463 -0.3267  0.1426
  175SAPS  H15Y20001   5.769   1.196   3.358 -1.4556  1.0002  2.0018
  175SAPS  C31620002   5.815   1.001   3.405  0.7904  0.4268  0.1785
  175SAPS  H16X20003   5.917   1.040   3.385  1.1530 -0.7186 -0.2764
  175SAPS  H16Y20004   5.806   0.913   3.337  0.3693  1.6753 -1.4448
  175SAPS  C31720005   5.798   0.935   3.543  0.5214  0.8609 -0.0469
  175SAPS  H17X20006   5.881   0.863   3.552 -0.9277 -1.0047 -1.0717
  175SAPS  H17Y20007   5.701   0.880   3.547  1.4656 -0.7960  1.0494
  175SAPS  C31820008   5.800   1.040   3.655  0.7101  0.5961  0.7376
  175SAPS  H18X20009   5.725   1.120   3.639 -1.0848 -1.2729 -0.7926
  175SAPS  H18Y20010   5.897   1.093   3.654 -0.1967  2.3282  1.1311
  175SAPS  H18Z20011   5.786   0.986   3.752 -1.4754 -1.5102 -0.6380
  176SAPS     N20012   3.378   0.527   1.460 -0.3192  0.9738  0.1635
  176SAPS   HN120013   3.298   0.567   1.407 -0.7670 -0.3732 -0.2360
  176SAPS   HN220014   3.443   0.477   1.396  1.3621  0.8949  1.8548
  176SAPS   HN320015   3.345   0.457   1.530  0.8930  3.2762  3.2431
  176SAPS   C1220016   3.454   0.628   1.531  0.0220 -0.0776  1.1657
  176SAPS  H12A20017   3.551   0.642   1.486 -0.3491 -2.2723 -0.4601
  176SAPS   C1320018   3.399   0.775   1.525  0.6587  0.1940  0.3109
  176SAPS  O13A20019   3.310   0.802   1.437  0.1382 -0.0422 -0.9541
  176SAPS  O13B20020   3.472   0.862   1.574 -0.2481  0.1588 -0.5452
  176SAPS   C1120021   3.471   0.587   1.683  0.2870  0.0743  0.0523
  176SAPS  H11A20022   3.546   0.652   1.733  0.2686 -1.4099  2.1246
  176SAPS  H11B20023   3.509   0.483   1.683 -1.8221 -0.7634  0.4052
  176SAPS     P20024   3.246   0.472   1.779 -0.4409  0.1929 -0.3399
  176SAPS   O1320025   3.114   0.527   1.820 -0.1825 -0.7384 -0.0892
  176SAPS   O1420026   3.256   0.381   1.663  0.6677  0.0956 -0.0576
  176SAPS   O1220027   3.342   0.586   1.744  0.1614 -0.4048 -1.0169
  176SAPS   O1120028   3.317   0.405   1.905 -0.3503  0.1265 -0.1099
  176SAPS    C120029   3.335   0.476   2.028 -0.5590  0.4055  0.5855
  176SAPS    HA20030   3.442   0.466   2.056 -0.5916 -2.3591  0.0086
  176SAPS    HB20031   3.326   0.586   2.014  0.2991  0.3393 -0.5782
  176SAPS    C220032   3.233   0.417   2.133 -0.2459 -0.3075 -0.0690
  176SAPS    HS20033   3.130   0.431   2.092 -0.3690  0.0228  0.3470
  176SAPS   O2120034   3.241   0.488   2.259  0.4983 -0.3100 -0.2215
  176SAPS   C2120035   3.220   0.614   2.264 -0.3550  0.4112 -0.0568
  176SAPS   O2220036   3.174   0.681   2.173  0.0187 -0.0533  0.1474
  176SAPS   C2220037   3.271   0.669   2.398  0.1116  0.0510  0.0602
  176SAPS   H2R20038   3.293   0.575   2.453 -3.2900 -1.0637 -0.2728
  176SAPS   H2S20039   3.358   0.735   2.373 -0.6568  1.1336  0.1603
  176SAPS    C320040   3.247   0.265   2.153  0.7917  0.4540 -0.1326
  176SAPS    HX20041   3.229   0.211   2.057 -3.4900 -2.1923  1.8372
  176SAPS    HY20042   3.171   0.236   2.228  1.8202  0.3171  0.8829
  176SAPS   O3120043   3.379   0.227   2.189 -0.2644 -0.3480 -0.4066
  176SAPS   C3120044   3.399   0.125   2.267 -0.0132  0.1664 -0.5787
  176SAPS   O3220045   3.312   0.042   2.302 -0.0827 -0.0578 -0.1776
  176SAPS   C3220046   3.542   0.116   2.320 -0.0337 -0.1628  0.2704
  176SAPS   H2X20047   3.561   0.221   2.350  0.7827  0.4736 -2.2276
  176SAPS   H2Y20048   3.612   0.100   2.236 -0.7501  2.9654 -1.0780
  176SAPS   C2320049   3.153   0.741   2.470  0.2325 -0.9345  0.0483
  176SAPS   H3R20050   3.058   0.688   2.488 -2.2281  2.8544 -0.5446
  176SAPS   H3S20051   3.120   0.814   2.393 -0.8951 -2.4497 -0.9448
  176SAPS   C2420052   3.198   0.818   2.596  0.0684  0.5768 -0.1888
  176SAPS   H4R20053   3.109   0.880   2.617  0.7590  1.8775 -1.0208
  176SAPS   H4S20054   3.281   0.891   2.582 -1.1114  1.8314 -0.7583
  176SAPS   C2520055   3.211   0.722   2.710  0.1341  0.2061  0.2217
  176SAPS   H5R20056   3.240   0.622   2.672 -1.2947  0.6182 -2.2148
  176SAPS   C2620057   3.177   0.736   2.839 -0.2750  0.6471  0.3009
  176SAPS   H6R20058   3.183   0.642   2.896 -0.4122 -0.8313 -1.9822
  176SAPS   C2720059   3.124   0.862   2.908 -0.6559  0.5405  0.3441
  176SAPS   H7R20060   3.147   0.957   2.855  0.5712  0.6815  1.0796
  176SAPS   H7S20061   3.160   0.867   3.013  0.4409  0.3246  0.0014
  176SAPS   C2820062   2.978   0.848   2.921 -0.3936  0.0592 -0.1390
  176SAPS   H8R20063   2.923   0.846   2.826 -2.3306 -2.6499  0.9147
  176SAPS   C2920064   2.908   0.801   3.027  0.3595 -0.5173  0.6184
  176SAPS   H9R20065   2.798   0.801   3.022  0.3592  1.4546 -0.2319
  176SAPS  C21020066   2.978   0.755   3.151  0.3905  0.7595 -0.5519
  176SAPS  H10R20067   3.088   0.743   3.144  0.3448 -0.8282  0.9172
  176SAPS  H10S20068   2.939   0.654   3.172  1.2247  0.6877  0.7418
  176SAPS  C21120069   2.949   0.856   3.250 -0.4802 -0.7390 -0.1676
  176SAPS  H11R20070   3.005   0.950   3.241  0.0074 -0.8292  1.4433
  176SAPS  C21220071   2.867   0.845   3.360 -0.4823 -0.1460 -0.3761
  176SAPS  H12R20072   2.852   0.926   3.432  1.2433 -0.4308  0.3524
  176SAPS  C21320073   2.777   0.724   3.388  0.2430  0.7516 -0.4270
  176SAPS  H13R20074   2.829   0.664   3.466  0.2738 -0.0980 -1.0774
  176SAPS  H13S20075   2.758   0.651   3.306 -4.7945  1.2443 -0.0271
  176SAPS  C21420076   2.638   0.765   3.440  0.3168  0.6859 -0.2573
  176SAPS  H14R20077   2.573   0.803   3.359 -0.3860  1.5085  0.6680
  176SAPS  C21520078   2.586   0.759   3.566 -0.4991  0.0578  0.3232
  176SAPS  H15R20079   2.480   0.784   3.583 -0.9359 -2.2620  1.3827
  176SAPS  C21620080   2.663   0.709   3.692  0.1723  0.4122  0.8803
  176SAPS  H16R20081   2.770   0.690   3.670 -0.0826  0.0175 -0.1212
  176SAPS  H16S20082   2.623   0.610   3.723 -1.6824  0.4661 -1.1066
  176SAPS  C21720083   2.644   0.809   3.811 -0.1090 -0.2578 -0.1054
  176SAPS  H17R20084   2.536   0.823   3.830  0.4309  0.7416  2.6925
  176SAPS  H17S20085   2.680   0.912   3.789  1.0981 -0.2574  1.6519
  176SAPS  C21820086   2.716   0.749   3.935 -0.3223 -0.1134 -0.3647
  176SAPS  H18R20087   2.690   0.643   3.957 -0.4545  0.0504  0.3043
  176SAPS  H18S20088   2.686   0.811   4.023  4.0176  2.4374 -0.3961
  176SAPS  C21920089   2.871   0.764   3.937 -0.7894 -0.2458  0.3639
  176SAPS  H19R20090   2.904   0.863   3.900  2.3040 -0.7066  1.6047
  176SAPS  H19S20091   2.926   0.695   3.870  0.5969  1.1599  0.0015
  176SAPS  C22020092   2.935   0.743   4.078 -0.0111 -1.1937  0.7063
  176SAPS  H20R20093   2.890   0.668   4.146 -3.0596  1.5109  1.9509
  176SAPS  H20S20094   2.924   0.838   4.134 -1.4334  0.8276 -2.6941
  176SAPS  H20T20095   3.046   0.742   4.068  0.1777  3.0928  0.4638
  176SAPS   C3320096   3.559   0.017   2.443 -0.1247  0.4831 -0.2083
  176SAPS   H3X20097   3.654  -0.038   2.429 -0.6341 -0.3875 -0.3251
  176SAPS   H3Y20098   3.478  -0.060   2.438  1.5236 -1.3773  0.5607
  176SAPS   C3420099   3.536   0.084   2.578  0.2007  0.1149  0.2936
  176SAPS   H4X20100   3.630   0.138   2.603  1.6287 -1.3813 -1.5007
  176SAPS   H4Y20101   3.531   0.008   2.659 -4.2832  0.4720  0.5705
  176SAPS   C3520102   3.424   0.189   2.596 -0.4093  0.1503 -0.3468
  176SAPS   H5X20103   3.323   0.151   2.569 -0.7863  1.0482 -0.2311
  176SAPS   H5Y20104   3.454   0.272   2.529  1.1310 -1.5664 -1.9046
  176SAPS   C3620105   3.434   0.261   2.732  0.2635  0.2116 -0.0813
  176SAPS   H6X20106   3.361   0.344   2.747  1.4404  1.3847 -0.6524
  176SAPS   H6Y20107   3.536   0.305   2.735 -0.0475  1.2104 -2.1983
  176SAPS   C3720108   3.432   0.174   2.860 -0.3439  0.0762 -0.0920
  176SAPS   H7X20109   3.508   0.093   2.862 -2.3254 -1.8588  1.1034
  176SAPS   H7Y20110   3.339   0.112   2.860  0.5253 -1.2937 -1.5466
  176SAPS   C3820111   3.437   0.255   2.995  0.5453  0.4201  0.0538
  176SAPS   H8X20112   3.519   0.327   2.976 -0.3172  1.4983  0.2991
  176SAPS   H8Y20113   3.462   0.185   3.078  0.0144 -1.6090 -1.4273
  176SAPS   C3920114   3.301   0.322   3.028  0.6477 -0.5782  0.2071
  176SAPS   H9X20115   3.221   0.245   3.033  2.2029 -2.2015  1.4101
  176SAPS   H9Y20116   3.270   0.395   2.951  0.6613 -0.9185 -0.1233
  176SAPS  C31020117   3.307   0.399   3.151  0.3867 -0.1564 -0.3861
  176SAPS  H10X20118   3.332   0.335   3.238 -1.3302  0.5402  0.6882
  176SAPS  H10Y20119   3.207   0.434   3.187  1.1527 -1.0443  2.9170
  176SAPS  C31120120   3.399   0.521   3.144 -0.2397 -0.2229  0.1187
  176SAPS  H11X20121   3.365   0.603   3.077  2.3763 -0.5001 -1.7409
  176SAPS  H11Y20122   3.495   0.493   3.096 -0.3980  0.8673 -0.8787
  176SAPS  C31220123   3.430   0.593   3.276 -0.0905  0.7190  0.4455
  176SAPS  H12X20124   3.517   0.661   3.261  1.6686 -1.8536 -1.9075
  176SAPS  H12Y20125   3.455   0.526   3.360 -0.4966  1.5012  1.2088
  176SAPS  C31320126   3.311   0.680   3.323 -0.2649  0.6770  0.6758
  176SAPS  H13X20127   3.220   0.616   3.331 -1.1333  1.9499  1.3583
  176SAPS  H13Y20128   3.290   0.762   3.252 -1.1125 -1.2400 -1.3938
  176SAPS  C31420129   3.345   0.755   3.449  0.0234  0.0761 -0.0705
  176SAPS  H14X20130   3.434   0.818   3.427  0.6643 -1.0850 -0.8973
  176SAPS  H14Y20131   3.383   0.679   3.521 -0.4688  0.0925  0.2143
  176SAPS  C31520132   3.231   0.840   3.503  0.6629 -0.3109  0.0150
  176SAPS  H15X20133   3.150   0.770   3.533  1.2267 -0.5861  0.9446
  176SAPS  H15Y20134   3.209   0.917   3.427  0.3642  0.3613  0.7733
  176SAPS  C31620135   3.277   0.915   3.626 -0.1919 -0.4389 -0.1576
  176SAPS  H16X20136   3.296   0.846   3.712 -0.6076 -1.9838 -1.2529
  176SAPS  H16Y20137   3.188   0.968   3.666 -0.7141  1.8623 -3.9117
  176SAPS  C31720138   3.404   1.005   3.612 -0.5519  0.3716  0.9382
  176SAPS  H17X20139   3.388   1.058   3.515  0.5066 -0.9389  0.0122
  176SAPS  H17Y20140   3.500   0.950   3.608 -0.4824  0.4114  1.8767
  176SAPS  C31820141   3.411   1.112   3.711 -0.1293  0.0886  0.2074
  176SAPS  H18X20142   3.491   1.185   3.686 -1.0450  1.5471  1.3883
  176SAPS  H18Y20143   3.433   1.066   3.810 -1.6585 -3.6590 -0.9921
  176SAPS  H18Z20144   3.316   1.169   3.706 -1.0582 -1.5090 -1.5129
  177SAPS     N20145   0.160   2.541   2.095  0.2239  0.2091  0.1881
  177SAPS   HN120146   0.164   2.643   2.118  0.5819  0.0841  0.7060
  177SAPS   HN220147   0.063   2.503   2.095  1.0370 -2.0404 -1.0247
  177SAPS   HN320148   0.210   2.495   2.174  0.5886  0.2536 -0.0175
  177SAPS   C1220149   0.230   2.519   1.964  0.3738  0.1941  0.0910
  177SAPS  H12A20150   0.175   2.571   1.887  1.5442 -1.8860 -2.2919
  177SAPS   C1320151   0.376   2.565   1.958  0.4299  0.0889  0.2032
  177SAPS  O13A20152   0.422   2.626   2.061  0.4979 -0.0416 -0.2566
  177SAPS  O13B20153   0.435   2.553   1.849  0.5983  0.2242 -0.5189
  177SAPS   C1120154   0.225   2.365   1.931 -0.0191 -0.2362 -0.6982
  177SAPS  H11A20155   0.261   2.310   2.021 -1.0113  0.3828  0.1040
  177SAPS  H11B20156   0.289   2.346   1.842 -0.9055 -1.4805 -1.0961
  177SAPS     P20157   0.048   2.184   1.838  0.3079 -0.4784 -0.2071
  177SAPS   O1320158  -0.088   2.198   1.776 -0.8636  0.4177  0.1985
  177SAPS   O1420159   0.163   2.127   1.763 -0.1702  0.3158 -0.0032
  177SAPS   O1220160   0.090   2.329   1.896  0.6321 -0.2489  0.0202
  177SAPS   O1120161   0.028   2.111   1.980 -0.5265  0.3325  0.1047
  177SAPS    C120162  -0.086   2.144   2.062 -0.0549  0.1280 -0.3685
  177SAPS    HA20163  -0.060   2.149   2.170 -0.7058  0.2636 -0.2136
  177SAPS    HB20164  -0.133   2.243   2.041 -1.6763 -0.5434 -0.0698
  177SAPS    C220165  -0.201   2.045   2.046 -0.4144 -0.1167  0.3930
  177SAPS    HS20166  -0.253   2.050   1.948 -0.4476 -2.4558  0.2278
  177SAPS   O2120167  -0.292   2.068   2.151 -0.0096  0.1467  0.0534
  177SAPS   C2120168  -0.406   2.003   2.153  0.0284 -0.5499  0.2224
  177SAPS   O2220169  -0.436   1.918   2.072  0.0753 -0.2250  0.8395
  177SAPS   C2220170  -0.503   2.048   2.261 -0.9759 -1.2962 -0.4807
  177SAPS   H2R20171  -0.459   2.141   2.303 -1.4118 -0.7258 -1.2609
  177SAPS   H2S20172  -0.604   2.076   2.224 -0.7135  2.1265  1.0220
  177SAPS    C320173  -0.132   1.902   2.052  0.0961 -0.1481  0.1337
  177SAPS    HX20174  -0.072   1.917   1.959 -0.5089  1.0426 -0.0879
  177SAPS    HY20175  -0.206   1.820   2.035  0.6706 -0.7207  0.3585
  177SAPS   O3120176  -0.045   1.883   2.166 -0.3442  0.5671 -0.3278
  177SAPS   C3120177  -0.105   1.828   2.277  0.2604 -0.0107  0.0679
  177SAPS   O3220178  -0.227   1.809   2.285 -0.4156 -0.4197  0.1688
  177SAPS   C3220179  -0.001   1.776   2.377  0.2230  0.4295  0.1560
  177SAPS   H2X20180   0.101   1.819   2.370  0.9790 -1.2864  0.2304
  177SAPS   H2Y20181   0.020   1.669   2.354  3.2260  0.9710  0.0425
  177SAPS   C2320182  -0.517   1.935   2.359  0.1698  0.6497 -0.2353
  177SAPS   H3R20183  -0.418   1.901   2.396 -0.6490 -0.8491  0.6866
  177SAPS   H3S20184  -0.578   1.854   2.313 -1.9881  0.7530  2.2605
  177SAPS   C2420185  -0.588   1.964   2.493 -0.4264  0.1645 -0.6342
  177SAPS   H4R20186  -0.597   1.863   2.537 -1.6110 -0.1079 -1.4461
  177SAPS   H4S20187  -0.690   2.003   2.476 -0.1687  0.7325 -0.9110
  177SAPS   C2520188  -0.519   2.060   2.580 -0.0221  0.4359  0.3043
  177SAPS   H5R20189  -0.517   2.157   2.528 -3.1399 -0.5438 -1.9127
  177SAPS   C2620190  -0.480   2.046   2.706 -0.3524  0.0691 -0.3083
  177SAPS   H6R20191  -0.436   2.135   2.753 -0.0468 -0.0692 -0.3305
  177SAPS   C2720192  -0.481   1.914   2.787 -0.3248  0.1615  0.2222
  177SAPS   H7R20193  -0.485   1.827   2.717 -1.1035 -0.2393  0.7480
  177SAPS   H7S20194  -0.574   1.913   2.848  0.2080 -0.1648  1.0366
  177SAPS   C2820195  -0.370   1.900   2.883 -0.3003  0.3007 -0.9039
  177SAPS   H8R20196  -0.287   1.966   2.853  0.3017 -0.8643 -1.8665
  177SAPS   C2920197  -0.354   1.831   2.994  0.2492  0.5395 -0.2399
  177SAPS   H9R20198  -0.255   1.824   3.042  0.4109  0.2309 -0.6029
  177SAPS  C21020199  -0.461   1.743   3.042 -0.6841  0.5098 -0.1008
  177SAPS  H10R20200  -0.526   1.714   2.956  0.5767  0.0021 -0.9233
  177SAPS  H10S20201  -0.531   1.813   3.091 -1.2049 -0.7768  1.0641
  177SAPS  C21120202  -0.424   1.639   3.143  0.2578  0.1116  0.4046
  177SAPS  H11R20203  -0.323   1.652   3.185 -0.1835  2.6272  0.8877
  177SAPS  C21220204  -0.505   1.545   3.182 -0.0182  0.0250 -0.2093
  177SAPS  H12R20205  -0.477   1.482   3.268  3.4190 -1.0009 -1.9072
  177SAPS  C21320206  -0.657   1.533   3.154 -0.4296 -0.3171  0.3616
  177SAPS  H13R20207  -0.689   1.427   3.146  0.7295 -0.7148  0.8316
  177SAPS  H13S20208  -0.678   1.577   3.054  0.8337 -0.2311  0.1105
  177SAPS  C21420209  -0.736   1.604   3.263  0.2392  0.4115  0.4033
  177SAPS  H14R20210  -0.711   1.712   3.264  0.5606  0.4484 -2.5867
  177SAPS  C21520211  -0.823   1.551   3.352 -0.2510  0.1859  0.1464
  177SAPS  H15R20212  -0.841   1.610   3.443 -0.3170  1.5952 -0.7440
  177SAPS  C21620213  -0.851   1.409   3.355 -1.2240 -0.1018  0.1352
  177SAPS  H16R20214  -0.766   1.346   3.319  0.2855  1.0776  1.4786
  177SAPS  H16S20215  -0.931   1.385   3.282  0.8549 -1.3667 -1.8841
  177SAPS  C21720216  -0.870   1.368   3.493  0.0606 -0.1479 -0.5188
  177SAPS  H17R20217  -0.954   1.427   3.537 -1.0266 -2.6157  0.9536
  177SAPS  H17S20218  -0.776   1.374   3.551  1.0984  0.1807 -2.1815
  177SAPS  C21820219  -0.921   1.220   3.501 -0.2430 -0.4567  0.4071
  177SAPS  H18R20220  -0.846   1.149   3.462  2.3346  2.2193  0.1873
  177SAPS  H18S20221  -1.004   1.220   3.426  0.3200  1.7185 -0.3049
  177SAPS  C21920222  -0.980   1.172   3.628  0.1707 -0.4471 -0.2417
  177SAPS  H19R20223  -1.046   1.256   3.658  1.8545  0.8170  0.0975
  177SAPS  H19S20224  -0.899   1.159   3.703  2.4185 -1.1199 -2.6294
  177SAPS  C22020225  -1.058   1.045   3.622  0.5836  0.0667 -0.9357
  177SAPS  H20R20226  -1.148   1.064   3.560 -0.1102 -0.2149 -0.0361
  177SAPS  H20S20227  -1.097   1.022   3.723 -4.3512  0.7851 -2.3884
  177SAPS  H20T20228  -1.008   0.956   3.579 -1.6272 -1.4601 -0.5280
  177SAPS   C3320229  -0.051   1.766   2.525 -0.3113 -0.7339  0.5583
  177SAPS   H3X20230   0.023   1.705   2.582  1.0012 -0.7774 -1.1178
  177SAPS   H3Y20231  -0.149   1.714   2.520 -0.9830  0.5723 -0.2715
  177SAPS   C3420232  -0.071   1.908   2.580 -0.3577  0.1894  0.2537
  177SAPS   H4X20233  -0.097   1.898   2.688 -0.8363 -0.3672  0.0855
  177SAPS   H4Y20234  -0.162   1.955   2.536  0.8642  1.7777 -0.7065
  177SAPS   C3520235   0.045   2.011   2.559 -0.2884  0.8590 -0.4676
  177SAPS   H5X20236   0.049   2.022   2.448 -1.3658 -0.0837 -0.6156
  177SAPS   H5Y20237   0.143   1.977   2.597  0.8850  1.0199 -3.1118
  177SAPS   C3620238   0.023   2.152   2.608  0.2475  0.4066 -0.3272
  177SAPS   H6X20239  -0.075   2.184   2.568  0.0261 -0.5835 -0.6105
  177SAPS   H6Y20240   0.085   2.234   2.567 -0.1558  1.0719  0.3834
  177SAPS   C3720241   0.029   2.166   2.762 -0.5615  0.5376  0.2850
  177SAPS   H7X20242   0.135   2.168   2.795 -0.4023  2.1742 -0.2281
  177SAPS   H7Y20243  -0.017   2.078   2.811 -1.0794  1.1133  0.8549
  177SAPS   C3820244  -0.053   2.280   2.813 -0.4330  0.6705 -0.4336
  177SAPS   H8X20245  -0.152   2.287   2.764 -0.3996  4.5489 -0.2163
  177SAPS   H8Y20246  -0.003   2.378   2.800 -0.3116  0.6634 -0.0322
  177SAPS   C3920247  -0.092   2.264   2.963 -0.7397  0.7296  0.4725
  177SAPS   H9X20248  -0.007   2.221   3.022 -1.3177  0.2891  0.9993
  177SAPS   H9Y20249  -0.163   2.181   2.981  1.7740 -1.5943  0.4485
  177SAPS  C31020250  -0.141   2.397   3.023  0.4274  0.4766 -0.3369
  177SAPS  H10X20251  -0.218   2.422   2.947 -0.9496 -3.2508 -0.3477
  177SAPS  H10Y20252  -0.063   2.475   3.037 -1.1437  2.0920 -0.1619
  177SAPS  C31120253  -0.217   2.378   3.150 -0.1366 -0.3089 -0.6246
  177SAPS  H11X20254  -0.157   2.337   3.235 -2.0505  0.8350  1.3908
  177SAPS  H11Y20255  -0.308   2.318   3.131  1.0147 -2.6545  0.8115
  177SAPS  C31220256  -0.270   2.515   3.198 -0.1391 -0.0238 -0.2550
  177SAPS  H12X20257  -0.356   2.552   3.138  0.8091  0.7889 -1.1433
  177SAPS  H12Y20258  -0.187   2.583   3.168  0.9197 -0.8876  0.6455
  177SAPS  C31320259  -0.301   2.511   3.346 -0.3779 -0.3155 -0.4415
  177SAPS  H13X20260  -0.207   2.520   3.405  0.0881 -3.3978 -0.5094
  177SAPS  H13Y20261  -0.342   2.409   3.366 -0.2407 -0.4255 -0.7074
  177SAPS  C31420262  -0.404   2.616   3.408 -0.1386 -0.3477 -0.4149
  177SAPS  H14X20263  -0.373   2.719   3.380  0.2589 -0.3836 -0.1162
  177SAPS  H14Y20264  -0.394   2.611   3.519  1.4172  1.3219 -0.4320
  177SAPS  C31520265  -0.548   2.598   3.365 -0.5758  0.8883  0.2214
  177SAPS  H15X20266  -0.583   2.495   3.388  0.4592  0.1111 -1.5373
  177SAPS  H15Y20267  -0.546   2.626   3.257  0.0001  1.1470  0.2994
  177SAPS  C31620268  -0.650   2.690   3.428 -0.3475 -0.2002 -0.5366
  177SAPS  H16X20269  -0.604   2.791   3.417 -1.8340  0.2667 -3.6541
  177SAPS  H16Y20270  -0.668   2.676   3.537 -1.3946 -0.0321 -0.6796
  177SAPS  C31720271  -0.787   2.684   3.360  0.4096  0.1196  0.1362
  177SAPS  H17X20272  -0.798   2.574   3.344  2.5931 -0.3229  1.2001
  177SAPS  H17Y20273  -0.776   2.730   3.260 -0.6513 -1.1435 -0.5852
  177SAPS  C31820274  -0.906   2.746   3.444 -0.4221 -0.0553  0.2373
  177SAPS  H18X20275  -0.887   2.713   3.549  1.1013  0.7311  0.2433
  177SAPS  H18Y20276  -1.001   2.704   3.404 -1.5627  1.2929  1.3990
  177SAPS  H18Z20277  -0.906   2.856   3.429  0.1555 -0.2311 -1.1886
  178SAPS     N20278   4.556   6.811   1.772 -1.0176  0.4888  0.4089
  178SAPS   HN120279   4.635   6.787   1.835 -1.8340  2.2816  2.2217
  178SAPS   HN220280   4.475   6.751   1.796 -0.6760 -0.0852  0.1557
  178SAPS   HN320281   4.585   6.798   1.673  1.4584  0.1703  1.1071
  178SAPS   C1220282   4.532   6.958   1.783 -0.4112  0.1655 -0.0174
  178SAPS  H12A20283   4.613   7.000   1.726 -2.1620 -0.1451 -2.9717
  178SAPS   C1320284   4.408   7.008   1.712  0.0665 -0.2460 -0.1132
  178SAPS  O13A20285   4.341   6.933   1.633  0.0441  0.6290  0.5774
  178SAPS  O13B20286   4.382   7.130   1.710  0.3586  0.0397 -0.2632
  178SAPS   C1120287   4.522   7.013   1.932 -0.1029  0.3231 -0.1724
  178SAPS  H11A20288   4.439   6.951   1.970  2.1921 -1.7403  1.7933
  178SAPS  H11B20289   4.489   7.119   1.931 -2.1678 -0.2810 -0.4672
  178SAPS     P20290   4.755   7.100   2.021  0.1949  0.1885  0.2062
  178SAPS   O1320291   4.886   7.038   2.056  0.1972 -0.7734  0.5662
  178SAPS   O1420292   4.755   7.193   1.912 -0.7120 -0.2307  0.0175
  178SAPS   O1220293   4.648   6.989   1.995  0.2365 -0.1587  0.6408
  178SAPS   O1120294   4.688   7.170   2.142  0.7442 -0.1748 -0.1281
  178SAPS    C120295   4.753   7.217   2.259 -0.1458  0.1038 -0.3469
  178SAPS    HA20296   4.691   7.193   2.348 -0.9433 -0.8315 -1.1196
  178SAPS    HB20297   4.851   7.168   2.278  0.1714  0.5039 -0.9277
  178SAPS    C220298   4.787   7.369   2.244 -1.1204  1.1722  0.2662
  178SAPS    HS20299   4.837   7.370   2.145 -1.2188 -0.4685  0.1763
  178SAPS   O2120300   4.886   7.398   2.343 -0.6782 -0.3212  0.7298
  178SAPS   C2120301   4.959   7.502   2.316  0.7329  0.2225 -0.0392
  178SAPS   O2220302   4.945   7.573   2.217 -0.0997 -0.1382 -0.3743
  178SAPS   C2220303   5.057   7.527   2.432 -0.2386 -0.4978  0.5472
  178SAPS   H2R20304   5.117   7.437   2.455 -0.0651  0.2610  3.5546
  178SAPS   H2S20305   5.134   7.594   2.387 -1.5924 -0.0414 -1.1788
  178SAPS    C320306   4.673   7.473   2.236 -0.5791  0.8983 -0.4024
  178SAPS    HX20307   4.613   7.436   2.149  1.3012  0.5297 -1.6115
  178SAPS    HY20308   4.709   7.570   2.196 -1.0990  1.1895 -0.1731
  178SAPS   O3120309   4.593   7.484   2.357  0.2686  0.2499  0.0232
  178SAPS   C3120310   4.639   7.584   2.448  0.3004  0.3304  0.1091
  178SAPS   O3220311   4.730   7.656   2.421 -0.3811  0.1999  0.4154
  178SAPS   C3220312   4.554   7.586   2.572  0.4665  0.2326 -0.2627
  178SAPS   H2X20313   4.455   7.543   2.544  0.0633 -0.2775  1.7638
  178SAPS   H2Y20314   4.550   7.689   2.613  0.6280  1.3868 -2.9531
  178SAPS   C2320315   5.007   7.573   2.562  0.1954 -1.7153 -0.0390
  178SAPS   H3R20316   4.906   7.531   2.579 -0.9034  0.9426  0.3229
  178SAPS   H3S20317   5.001   7.683   2.573 -1.4775 -2.0235  5.3520
  178SAPS   C2420318   5.106   7.537   2.671  0.8491 -0.2165  0.1528
  178SAPS   H4R20319   5.096   7.613   2.752  2.2810 -3.0815  3.2592
  178SAPS   H4S20320   5.209   7.536   2.631  1.1027 -0.1283  0.7856
  178SAPS   C2520321   5.090   7.397   2.736 -0.4181 -0.1402  0.1728
  178SAPS   H5R20322   5.092   7.314   2.664  3.7144 -0.5542  0.5168
  178SAPS   C2620323   5.085   7.376   2.869  0.2898  0.4010  0.4113
  178SAPS   H6R20324   5.057   7.276   2.906 -2.0777  1.6338  2.2780
  178SAPS   C2720325   5.087   7.484   2.978  0.4665 -0.2348  0.2249
  178SAPS   H7R20326   5.136   7.574   2.935 -2.6314  0.7430 -1.5662
  178SAPS   H7S20327   5.155   7.450   3.059  1.3153  0.0021 -0.3657
  178SAPS   C2820328   4.958   7.544   3.035 -0.2681  1.2806  0.0543
  178SAPS   H8R20329   4.920   7.632   2.981  2.5714  2.1431 -0.7343
  178SAPS   C2920330   4.901   7.503   3.148  0.8789  0.1994  0.2675
  178SAPS   H9R20331   4.801   7.536   3.180 -0.3934 -3.8473  1.0499
  178SAPS  C21020332   4.950   7.389   3.238 -0.0619 -0.7400  0.0357
  178SAPS  H10R20333   5.052   7.354   3.209  0.1088 -0.2929  0.0875
  178SAPS  H10S20334   4.878   7.305   3.230 -1.9622  0.7162  1.1496
  178SAPS  C21120335   4.958   7.428   3.389  0.2999  0.6069  0.2177
  178SAPS  H11R20336   5.050   7.480   3.420 -1.3260  2.9211  1.4310
  178SAPS  C21220337   4.869   7.405   3.491 -0.6270 -0.2923  0.4230
  178SAPS  H12R20338   4.865   7.450   3.591 -2.1552 -1.2892  0.8456
  178SAPS  C21320339   4.744   7.323   3.460  0.1885 -0.3331  0.8409
  178SAPS  H13R20340   4.773   7.218   3.484 -1.1075 -1.2746 -1.4075
  178SAPS  H13S20341   4.723   7.313   3.351  1.4628 -2.1477  0.7189
  178SAPS  C21420342   4.614   7.359   3.529  0.2582  0.1008 -0.8807
  178SAPS  H14R20343   4.565   7.437   3.469  2.2538  0.0465 -2.7397
  178SAPS  C21520344   4.561   7.315   3.644  0.1313  0.5326 -0.1507
  178SAPS  H15R20345   4.464   7.358   3.673  0.0252 -0.2188  0.6377
  178SAPS  C21620346   4.613   7.213   3.744  0.4985 -0.4374  0.7197
  178SAPS  H16R20347   4.709   7.164   3.715 -0.2067 -0.7911 -1.1838
  178SAPS  H16S20348   4.539   7.130   3.740 -1.1738  0.8831  2.7237
  178SAPS  C21720349   4.623   7.263   3.888 -0.1819 -0.0798  0.4986
  178SAPS  H17R20350   4.678   7.188   3.948  0.2960 -0.4237 -0.3656
  178SAPS  H17S20351   4.517   7.270   3.922 -0.0268  1.8438  0.6998
  178SAPS  C21820352   4.688   7.396   3.916  0.2718  0.3536  0.1722
  178SAPS  H18R20353   4.636   7.472   3.853  2.0719  0.1718 -1.6188
  178SAPS  H18S20354   4.792   7.390   3.877 -0.4928 -2.1688 -1.7008
  178SAPS  C21920355   4.672   7.455   4.059 -0.2939  1.2943 -0.7950
  178SAPS  H19R20356   4.733   7.394   4.130 -0.3895  0.1412 -1.6739
  178SAPS  H19S20357   4.573   7.470   4.105  0.0602  0.0579  0.4598
  178SAPS  C22020358   4.742   7.590   4.065 -0.0785  0.2406  0.1131
  178SAPS  H20R20359   4.731   7.620   4.172  1.2844 -2.1928  1.0105
  178SAPS  H20S20360   4.681   7.664   4.009  0.4594 -1.1317 -2.4235
  178SAPS  H20T20361   4.847   7.584   4.029  1.1268  0.6221  3.2145
  178SAPS   C3320362   4.609   7.504   2.690  0.3892  0.3377 -0.3952
  178SAPS   H3X20363   4.533   7.487   2.768  0.6999  0.2199 -0.1187
  178SAPS   H3Y20364   4.696   7.554   2.738  0.3143 -0.4027  0.5154
  178SAPS   C3420365   4.657   7.367   2.653  0.5526 -0.4975 -0.0869
  178SAPS   H4X20366   4.721   7.364   2.562 -1.8943 -2.3169 -1.9121
  178SAPS   H4Y20367   4.578   7.303   2.607 -0.9732  1.3831 -0.1938
  178SAPS   C3520368   4.716   7.303   2.771  0.2029  0.0190 -0.1013
  178SAPS   H5X20369   4.645   7.325   2.854 -0.5705 -1.9266 -0.2046
  178SAPS   H5Y20370   4.821   7.339   2.787  1.1867 -1.9720 -1.6588
  178SAPS   C3620371   4.745   7.153   2.733  0.2089 -0.1568 -0.9521
  178SAPS   H6X20372   4.806   7.143   2.641  2.3488 -0.8919  0.4924
  178SAPS   H6Y20373   4.646   7.103   2.731  0.0263  0.2142 -1.3752
  178SAPS   C3720374   4.818   7.090   2.850 -0.0344  0.2158 -0.8353
  178SAPS   H7X20375   4.916   7.141   2.863 -0.7103  1.2591  0.3303
  178SAPS   H7Y20376   4.849   6.987   2.824  1.6974  0.7280 -0.9769
  178SAPS   C3820377   4.744   7.099   2.981 -0.7375  0.0780 -0.4745
  178SAPS   H8X20378   4.638   7.073   2.964 -0.6784  0.6928 -1.9413
  178SAPS   H8Y20379   4.752   7.204   3.017  1.2723 -0.0633 -0.3827
  178SAPS   C3920380   4.813   7.011   3.092  0.1234 -0.0982 -0.1810
  178SAPS   H9X20381   4.914   7.050   3.117 -1.0101  3.1050 -0.1817
  178SAPS   H9Y20382   4.817   6.910   3.044 -0.7749 -1.6481  2.7412
  178SAPS  C31020383   4.742   6.999   3.228  0.4768 -1.2105 -0.4229
  178SAPS  H10X20384   4.642   6.957   3.205  0.0069 -0.7630  0.7494
  178SAPS  H10Y20385   4.727   7.103   3.265 -0.2473 -1.4081 -0.1326
  178SAPS  C31120386   4.811   6.909   3.330  0.9027 -0.3996  0.2521
  178SAPS  H11X20387   4.912   6.944   3.361  0.7707 -0.5710  0.8810
  178SAPS  H11Y20388   4.834   6.809   3.286 -1.7913 -1.2773  0.6443
  178SAPS  C31220389   4.733   6.890   3.461  0.2147  0.8782  0.0179
  178SAPS  H12X20390   4.623   6.906   3.450  0.1412  0.1382 -0.4533
  178SAPS  H12Y20391   4.760   6.970   3.532 -1.6296 -0.1840  2.0214
  178SAPS  C31320392   4.767   6.749   3.520 -0.8443  0.4721  0.0605
  178SAPS  H13X20393   4.870   6.749   3.562 -0.8325 -3.1229  0.3436
  178SAPS  H13Y20394   4.754   6.661   3.453 -0.2882  0.9943 -0.7495
  178SAPS  C31420395   4.681   6.724   3.637 -0.0779  0.4491  0.1977
  178SAPS  H14X20396   4.586   6.697   3.587 -0.4782  0.8406  0.7289
  178SAPS  H14Y20397   4.645   6.821   3.677  0.6903  0.5306  0.7273
  178SAPS  C31520398   4.724   6.624   3.746 -0.7527  0.3358  0.9570
  178SAPS  H15X20399   4.806   6.670   3.806 -2.1821  1.2539  2.2846
  178SAPS  H15Y20400   4.756   6.531   3.693 -3.1821 -0.0873  0.1222
  178SAPS  C31620401   4.603   6.583   3.826  0.3734 -0.3159 -1.0482
  178SAPS  H16X20402   4.530   6.554   3.748 -0.1237  3.4098 -2.1934
  178SAPS  H16Y20403   4.553   6.669   3.877 -0.0772 -0.6122 -0.9864
  178SAPS  C31720404   4.619   6.478   3.934 -0.2836 -0.1214 -0.3682
  178SAPS  H17X20405   4.518   6.454   3.974 -0.6235  1.7065 -0.0552
  178SAPS  H17Y20406   4.675   6.527   4.016 -0.7652 -0.5295  0.2167
  178SAPS  C31820407   4.681   6.351   3.883  0.0498 -0.6351  0.5602
  178SAPS  H18X20408   4.631   6.315   3.790  3.7858 -2.0791 -1.0818
  178SAPS  H18Y20409   4.686   6.273   3.961  3.6991 -0.4194  0.6956
  178SAPS  H18Z20410   4.787   6.377   3.863 -0.9803  1.6941 -2.8777
  179SAPS     N20411   0.523   0.848   1.691 -0.6658  0.3266 -0.4826
  179SAPS   HN120412   0.494   0.760   1.644 -0.5874  0.8848 -1.6050
  179SAPS   HN220413   0.574   0.915   1.629  0.4454  1.7166  1.7942
  179SAPS   HN320414   0.593   0.836   1.766  0.7336 -0.7989 -1.8969
  179SAPS   C1220415   0.404   0.914   1.730  0.6791 -0.1576 -0.5523
  179SAPS  H12A20416   0.425   0.979   1.814 -0.4846 -0.8197  0.2934
  179SAPS   C1320417   0.350   0.997   1.611 -0.3543 -0.6821 -0.0102
  179SAPS  O13A20418   0.419   1.015   1.508  0.3066 -0.3006  0.1543
  179SAPS  O13B20419   0.242   1.062   1.626 -0.0537  0.0807  0.2458
  179SAPS   C1120420   0.297   0.808   1.779  0.7540  0.7650 -0.3540
  179SAPS  H11A20421   0.286   0.732   1.699  0.9061 -0.0921  0.4235
  179SAPS  H11B20422   0.197   0.855   1.793  0.4826  0.0884  0.0618
  179SAPS     P20423   0.247   0.655   1.989 -0.2650 -0.2187  0.0076
  179SAPS   O1320424   0.131   0.623   1.907  0.1130  0.1519 -0.0205
  179SAPS   O1420425   0.322   0.537   2.034  0.0805 -1.1697  0.1551
  179SAPS   O1220426   0.348   0.735   1.897  0.3136 -0.0528 -0.1818
  179SAPS   O1120427   0.211   0.745   2.103 -0.4767  0.2886 -0.0773
  179SAPS    C120428   0.302   0.844   2.146 -0.1318  0.4403 -0.0735
  179SAPS    HA20429   0.334   0.907   2.061  0.8765  0.8101  0.5633
  179SAPS    HB20430   0.247   0.922   2.203 -0.8197  1.0588 -1.5436
  179SAPS    C220431   0.435   0.793   2.222  0.4278 -0.4542  0.5081
  179SAPS    HS20432   0.490   0.730   2.150 -1.7257 -1.1942 -0.5743
  179SAPS   O2120433   0.406   0.718   2.342  0.3045  0.8866  0.3982
  179SAPS   C2120434   0.500   0.630   2.376 -0.0084 -0.8194 -0.2830
  179SAPS   O2220435   0.611   0.617   2.320  0.2016  0.3183  0.2282
  179SAPS   C2220436   0.447   0.538   2.493  0.3779  0.1388  0.7399
  179SAPS   H2R20437   0.344   0.578   2.508 -0.7631 -1.5688 -1.9011
  179SAPS   H2S20438   0.459   0.435   2.453 -1.4366 -0.7087  2.2518
  179SAPS    C320439   0.517   0.917   2.257 -0.0906 -0.0441  0.3258
  179SAPS    HX20440   0.444   0.980   2.312 -0.5920  1.1646 -1.6255
  179SAPS    HY20441   0.539   0.968   2.161 -0.1999  0.5152  0.5991
  179SAPS   O3120442   0.643   0.889   2.321  0.3865 -0.4176 -0.0070
  179SAPS   C3120443   0.690   1.003   2.389  0.1867  0.1227 -0.0764
  179SAPS   O3220444   0.633   1.110   2.394  0.4082 -0.3612  0.2897
  179SAPS   C3220445   0.825   0.973   2.443 -0.2047  0.3110  0.4155
  179SAPS   H2X20446   0.897   1.015   2.369 -0.4847  1.0821  0.5681
  179SAPS   H2Y20447   0.848   0.865   2.457  3.7108  0.7662 -1.2417
  179SAPS   C2320448   0.530   0.545   2.628  0.6388 -0.1876  0.0766
  179SAPS   H3R20449   0.528   0.648   2.670  0.2657 -0.0948 -0.1590
  179SAPS   H3S20450   0.635   0.523   2.601  1.3275  1.1500  1.5198
  179SAPS   C2420451   0.487   0.447   2.737  0.0980  0.0319  0.9950
  179SAPS   H4R20452   0.560   0.450   2.821 -0.4268  0.0600  1.4566
  179SAPS   H4S20453   0.485   0.340   2.706  2.7497  0.9324 -3.0140
  179SAPS   C2520454   0.357   0.492   2.797  0.5932  0.1752  0.3259
  179SAPS   H5R20455   0.268   0.445   2.754  0.2628  2.0779 -1.2107
  179SAPS   C2620456   0.339   0.592   2.888  0.3121  0.8896  0.0132
  179SAPS   H6R20457   0.236   0.613   2.922 -0.2753 -2.2368  0.4986
  179SAPS   C2720458   0.440   0.683   2.953  0.2038 -0.4459 -0.1073
  179SAPS   H7R20459   0.408   0.790   2.950 -1.6031 -0.9562 -0.4537
  179SAPS   H7S20460   0.531   0.675   2.891  0.3767 -0.9903  0.2137
  179SAPS   C2820461   0.468   0.649   3.098  0.4139 -0.1034 -0.0762
  179SAPS   H8R20462   0.566   0.602   3.114 -0.9545 -2.2627  2.8194
  179SAPS   C2920463   0.397   0.677   3.206  0.0041  0.1289  0.5036
  179SAPS   H9R20464   0.446   0.658   3.303  2.1385  0.5682 -0.4423
  179SAPS  C21020465   0.278   0.766   3.214 -0.4065 -0.0627 -0.7575
  179SAPS  H10R20466   0.198   0.690   3.210 -0.0480 -0.5188  0.2786
  179SAPS  H10S20467   0.277   0.819   3.116  0.3325  0.5354 -0.4528
  179SAPS  C21120468   0.277   0.871   3.321 -0.0605 -0.1843  0.2235
  179SAPS  H11R20469   0.353   0.869   3.401  1.0398 -1.9019 -0.7798
  179SAPS  C21220470   0.195   0.975   3.311  0.2049  0.0758  0.5281
  179SAPS  H12R20471   0.202   1.054   3.387  0.5638  0.3093  0.2599
  179SAPS  C21320472   0.085   1.001   3.214 -0.1496  0.1672  0.2515
  179SAPS  H13R20473   0.115   0.973   3.111 -1.1196 -0.4120  0.1118
  179SAPS  H13S20474   0.079   1.111   3.218 -2.0237  0.1475 -0.6462
  179SAPS  C21420475  -0.050   0.951   3.257 -0.8659  0.0761 -0.4160
  179SAPS  H14R20476  -0.056   0.928   3.365  2.6724  0.4565 -0.0112
  179SAPS  C21520477  -0.158   0.952   3.183  0.0562  0.2115  0.7940
  179SAPS  H15R20478  -0.248   0.912   3.233  0.3314 -1.4813 -0.0189
  179SAPS  C21620479  -0.179   1.012   3.047  0.0257 -0.8370 -0.0753
  179SAPS  H16R20480  -0.096   1.067   2.998 -1.4649  0.2067 -1.5525
  179SAPS  H16S20481  -0.251   1.096   3.056 -0.1661 -0.8392 -1.3940
  179SAPS  C21720482  -0.233   0.917   2.939 -0.5305 -0.4732 -0.7038
  179SAPS  H17R20483  -0.320   0.859   2.975 -0.6783  0.5738  0.7080
  179SAPS  H17S20484  -0.147   0.849   2.922  1.3803  1.7161 -0.3270
  179SAPS  C21820485  -0.256   0.976   2.798 -0.2038  0.0778 -0.8028
  179SAPS  H18R20486  -0.154   0.986   2.755 -0.3952  0.0328 -1.2738
  179SAPS  H18S20487  -0.311   1.073   2.790 -0.1519  0.6351  3.4176
  179SAPS  C21920488  -0.327   0.875   2.709  0.1367 -0.5162 -0.7273
  179SAPS  H19R20489  -0.432   0.880   2.745  0.3611  0.4924 -0.1712
  179SAPS  H19S20490  -0.288   0.773   2.727  1.3537  0.2106  0.9720
  179SAPS  C22020491  -0.335   0.924   2.561 -0.0064  0.7108 -0.4932
  179SAPS  H20R20492  -0.241   0.905   2.504 -0.0883  1.2266 -0.8068
  179SAPS  H20S20493  -0.360   1.031   2.545 -0.1139  0.8268  0.4112
  179SAPS  H20T20494  -0.420   0.876   2.509  0.0787 -0.2220  0.1921
  179SAPS   C3320495   0.848   1.033   2.580 -0.0842 -0.2966  0.4356
  179SAPS   H3X20496   0.846   1.144   2.585 -0.7604 -0.1137 -2.3891
  179SAPS   H3Y20497   0.953   1.011   2.609  0.4061 -3.3233 -2.9619
  179SAPS   C3420498   0.765   0.962   2.683 -0.1365  0.0193  0.4194
  179SAPS   H4X20499   0.771   0.852   2.676 -3.1090 -0.2575  1.1220
  179SAPS   H4Y20500   0.659   0.993   2.669  0.5083  1.6631 -1.3706
  179SAPS   C3520501   0.812   1.002   2.822  0.1198 -0.6349  0.1497
  179SAPS   H5X20502   0.787   1.108   2.844  2.2936 -0.4213  1.9627
  179SAPS   H5Y20503   0.921   0.985   2.837 -0.1354 -1.6364  0.9852
  179SAPS   C3620504   0.751   0.915   2.931 -0.1101 -0.8183 -0.0206
  179SAPS   H6X20505   0.768   0.809   2.900  3.6423  0.1524 -1.9519
  179SAPS   H6Y20506   0.641   0.928   2.922 -0.4756 -1.9777  2.0864
  179SAPS   C3720507   0.822   0.942   3.064 -0.1107 -0.7111  0.3227
  179SAPS   H7X20508   0.847   1.050   3.064 -1.1074 -0.4602  1.1583
  179SAPS   H7Y20509   0.911   0.879   3.084  0.6607  0.3905  0.4019
  179SAPS   C3820510   0.730   0.903   3.183  0.4024  0.1046  0.7519
  179SAPS   H8X20511   0.688   0.803   3.161  1.5547  0.0240 -1.2444
  179SAPS   H8Y20512   0.648   0.979   3.181  0.0520 -0.2146  1.9474
  179SAPS   C3920513   0.807   0.908   3.308 -0.3255  0.2547 -0.6628
  179SAPS   H9X20514   0.865   1.003   3.318  2.6585 -1.4541 -0.5203
  179SAPS   H9Y20515   0.886   0.830   3.304 -1.1253 -0.5790 -0.3733
  179SAPS  C31020516   0.722   0.880   3.435 -0.8038  0.1827  0.4124
  179SAPS  H10X20517   0.677   0.779   3.428 -2.1692  0.8256 -0.5160
  179SAPS  H10Y20518   0.632   0.945   3.440 -0.9850  0.1052 -1.1705
  179SAPS  C31120519   0.802   0.910   3.566 -0.3171  0.2862  0.1462
  179SAPS  H11X20520   0.790   1.015   3.601  1.2286 -0.1426  2.1307
  179SAPS  H11Y20521   0.909   0.887   3.550  0.0018  2.2331 -0.8427
  179SAPS  C31220522   0.753   0.807   3.664 -0.2886  0.3192  0.1489
  179SAPS  H12X20523   0.801   0.710   3.641 -1.1646 -0.1752  0.3625
  179SAPS  H12Y20524   0.645   0.781   3.657 -0.6477  1.3011  1.6027
  179SAPS  C31320525   0.791   0.842   3.808  0.1390 -0.0829  0.2587
  179SAPS  H13X20526   0.758   0.946   3.829  1.3586  0.5876 -0.9414
  179SAPS  H13Y20527   0.902   0.851   3.816  0.1540 -0.7719  0.9366
  179SAPS  C31420528   0.754   0.739   3.922 -0.1181 -0.1730  0.4443
  179SAPS  H14X20529   0.805   0.644   3.896  0.0045  0.4045 -1.5507
  179SAPS  H14Y20530   0.644   0.723   3.924 -0.0479 -0.6680  0.3998
  179SAPS  C31520531   0.774   0.791   4.064  0.2853 -0.5933  0.4899
  179SAPS  H15X20532   0.883   0.782   4.085  0.3671 -0.8241 -0.0279
  179SAPS  H15Y20533   0.725   0.717   4.131 -1.5133  1.4691  1.5998
  179SAPS  C31620534   0.728   0.929   4.097  0.2369 -1.1251 -0.2305
  179SAPS  H16X20535   0.626   0.943   4.054  0.5762 -0.8092 -0.9380
  179SAPS  H16Y20536   0.801   0.999   4.053 -0.3797  0.1679  0.7458
  179SAPS  C31720537   0.719   0.962   4.244 -0.9488  0.8497 -0.2333
  179SAPS  H17X20538   0.659   0.885   4.296 -0.0752  0.3387  0.0331
  179SAPS  H17Y20539   0.667   1.060   4.252 -0.3527  1.0292  1.9594
  179SAPS  C31820540   0.867   0.972   4.304 -0.0140 -0.7713 -0.0822
  179SAPS  H18X20541   0.866   1.015   4.406  2.5269 -1.7626  0.4366
  179SAPS  H18Y20542   0.923   1.043   4.240 -1.6273 -1.7067 -2.6646
  179SAPS  H18Z20543   0.919   0.874   4.310 -0.5384 -1.0382  0.1224
  180SAPS     N20544   6.776   6.669   1.772  0.2750  0.1897  0.0301
  180SAPS   HN120545   6.761   6.751   1.834 -1.7306  1.6929 -2.2614
  180SAPS   HN220546   6.785   6.708   1.676  0.2952 -0.7320 -0.3500
  180SAPS   HN320547   6.690   6.612   1.770 -0.2300  0.9483 -0.8125
  180SAPS   C1220548   6.896   6.590   1.806  0.0900  0.9833 -0.2563
  180SAPS  H12A20549   6.881   6.559   1.908 -2.2547  0.4630 -0.7013
  180SAPS   C1320550   6.909   6.463   1.716 -0.4960  0.1842 -0.9158
  180SAPS  O13A20551   6.836   6.446   1.614 -0.7756 -0.1664 -0.0474
  180SAPS  O13B20552   7.017   6.398   1.732 -0.4267  0.0995 -0.4192
  180SAPS   C1120553   7.017   6.681   1.798  0.3497  0.7064  0.3076
  180SAPS  H11A20554   7.046   6.703   1.693  0.7509  0.1348  0.2973
  180SAPS  H11B20555   7.100   6.616   1.834  0.2942 -0.5837 -1.7336
  180SAPS     P20556   7.126   6.898   1.900  0.0517 -0.0766 -0.1841
  180SAPS   O1320557   7.251   6.832   1.871 -0.5349 -0.2707  0.0362
  180SAPS   O1420558   7.100   7.034   1.849  0.4977 -0.2260  0.0884
  180SAPS   O1220559   7.007   6.792   1.877  0.4086  0.1016  0.7018
  180SAPS   O1120560   7.126   6.913   2.058 -0.0322  0.1129 -0.5197
  180SAPS    C120561   7.210   7.000   2.128 -0.0823  0.0790  0.5761
  180SAPS    HA20562   7.316   6.968   2.133  0.1576  0.6272 -0.5691
  180SAPS    HB20563   7.211   7.100   2.080 -0.2110 -0.2359 -0.1052
  180SAPS    C220564   7.153   7.025   2.272  0.8184  0.0239  0.1441
  180SAPS    HS20565   7.209   7.112   2.312  1.3928  0.7389 -2.0711
  180SAPS   O2120566   7.171   6.907   2.346 -0.1856  0.0896  0.3190
  180SAPS   C2120567   7.295   6.888   2.385 -0.7803  0.1373 -0.3076
  180SAPS   O2220568   7.393   6.962   2.369 -0.0137  0.1294  0.2401
  180SAPS   C2220569   7.295   6.752   2.456 -1.2160 -0.4302  0.9401
  180SAPS   H2R20570   7.198   6.734   2.508 -1.6503  2.8230  1.4431
  180SAPS   H2S20571   7.318   6.690   2.367 -1.7084 -0.6134  0.9370
  180SAPS    C320572   7.005   7.062   2.266 -0.0026 -0.2839  0.0666
  180SAPS    HX20573   6.939   6.978   2.235 -2.1692  0.7389  1.6877
  180SAPS    HY20574   6.995   7.146   2.194 -0.1703  0.0442  0.4733
  180SAPS   O3120575   6.964   7.106   2.398  0.4814 -0.4386 -0.1511
  180SAPS   C3120576   6.834   7.122   2.414 -0.1623  0.7441 -0.6651
  180SAPS   O3220577   6.746   7.092   2.341 -0.5363  0.1379  0.0307
  180SAPS   C3220578   6.814   7.195   2.550  0.1888  0.5112 -0.8065
  180SAPS   H2X20579   6.896   7.269   2.562  0.2466  0.5333 -1.3265
  180SAPS   H2Y20580   6.811   7.121   2.633 -1.7030  1.0286 -0.3655
  180SAPS   C2320581   7.412   6.726   2.549 -0.4891  0.2538  0.1403
  180SAPS   H3R20582   7.511   6.763   2.516 -0.3765 -0.2257 -0.0689
  180SAPS   H3S20583   7.423   6.616   2.557 -1.1820  0.1182 -0.7117
  180SAPS   C2420584   7.390   6.782   2.698  0.0623 -0.7414 -0.1863
  180SAPS   H4R20585   7.468   6.749   2.770  1.5015  1.6099 -0.5753
  180SAPS   H4S20586   7.293   6.743   2.735 -1.4862  3.8583  1.2923
  180SAPS   C2520587   7.399   6.927   2.731  0.4484 -0.1929 -0.7469
  180SAPS   H5R20588   7.460   6.983   2.659 -0.8144  0.2868 -1.4780
  180SAPS   C2620589   7.332   7.004   2.817  0.1448 -0.1445  0.1739
  180SAPS   H6R20590   7.350   7.112   2.827 -2.0612  0.4851 -1.7231
  180SAPS   C2720591   7.222   6.952   2.908  0.1335 -0.5501  0.4017
  180SAPS   H7R20592   7.139   6.912   2.846 -0.0397 -0.6849  0.7194
  180SAPS   H7S20593   7.181   7.045   2.954 -0.9199  0.7738 -2.9009
  180SAPS   C2820594   7.266   6.864   3.019  0.8790 -0.3100 -1.0217
  180SAPS   H8R20595   7.308   6.770   2.978 -0.1352 -0.7588 -1.0602
  180SAPS   C2920596   7.268   6.887   3.152  0.4834  0.0262  0.4245
  180SAPS   H9R20597   7.303   6.798   3.206 -2.7126 -1.1854  0.7272
  180SAPS  C21020598   7.230   7.013   3.227  0.0633  0.0898  0.1578
  180SAPS  H10R20599   7.127   7.000   3.265 -0.5106  0.3116 -1.2785
  180SAPS  H10S20600   7.229   7.098   3.156  0.3442 -0.5119 -0.5866
  180SAPS  C21120601   7.339   7.027   3.331  0.3471  0.1051 -0.5399
  180SAPS  H11R20602   7.441   6.988   3.324  0.6806  0.0896  2.7908
  180SAPS  C21220603   7.319   7.081   3.453 -0.6593 -1.0058  0.5332
  180SAPS  H12R20604   7.407   7.094   3.517 -0.5697 -0.0922  0.2433
  180SAPS  C21320605   7.185   7.130   3.502 -0.3704  0.2487  0.1178
  180SAPS  H13R20606   7.118   7.145   3.415 -0.8510  2.3583  0.7708
  180SAPS  H13S20607   7.198   7.231   3.546 -0.7312 -0.1597  1.1960
  180SAPS  C21420608   7.119   7.035   3.602 -0.5007  0.2233  0.3507
  180SAPS  H14R20609   7.116   6.927   3.581  2.1638  0.1156  0.2446
  180SAPS  C21520610   7.090   7.066   3.727  0.0164 -0.2943 -0.1761
  180SAPS  H15R20611   7.042   6.990   3.790 -1.2728 -0.1375 -0.9194
  180SAPS  C21620612   7.119   7.196   3.799  0.1138  0.2326 -0.4350
  180SAPS  H16R20613   7.030   7.243   3.847 -0.0506  1.3540 -1.7500
  180SAPS  H16S20614   7.144   7.287   3.740 -2.6455  1.3922 -0.0086
  180SAPS  C21720615   7.218   7.193   3.920  0.0543 -0.0330  0.3175
  180SAPS  H17R20616   7.310   7.132   3.905  1.8806  2.4237  0.9584
  180SAPS  H17S20617   7.155   7.131   3.988 -0.8750 -2.2717 -2.3645
  180SAPS  C21820618   7.249   7.322   3.979  0.3086 -0.2290  0.1598
  180SAPS  H18R20619   7.248   7.318   4.090 -1.1341  0.1090  0.1925
  180SAPS  H18S20620   7.163   7.391   3.957  0.0089 -0.0314  1.8457
  180SAPS  C21920621   7.369   7.409   3.928  0.0859  0.2995 -0.1171
  180SAPS  H19R20622   7.458   7.361   3.972 -1.1451 -3.0991 -1.0170
  180SAPS  H19S20623   7.353   7.514   3.961  0.6195  0.3241  0.0657
  180SAPS  C22020624   7.391   7.423   3.776 -0.2666  0.2729 -0.1838
  180SAPS  H20R20625   7.424   7.328   3.727 -2.1521 -0.1270 -0.7800
  180SAPS  H20S20626   7.298   7.451   3.723  0.3281  1.1878 -0.7705
  180SAPS  H20T20627   7.473   7.495   3.755 -0.5572  0.5304 -0.4497
  180SAPS   C3320628   6.681   7.277   2.555 -0.4641  0.4201 -0.8989
  180SAPS   H3X20629   6.603   7.198   2.563  1.5227 -1.4484  1.4815
  180SAPS   H3Y20630   6.672   7.349   2.471 -1.3440 -0.0124 -1.1782
  180SAPS   C3420631   6.672   7.356   2.688 -0.8801 -0.5065 -0.7353
  180SAPS   H4X20632   6.570   7.399   2.693 -0.1072  1.5297 -1.5374
  180SAPS   H4Y20633   6.738   7.445   2.678 -1.2311 -0.2776 -1.0077
  180SAPS   C3520634   6.704   7.273   2.809  0.8840  0.3027 -0.0522
  180SAPS   H5X20635   6.807   7.232   2.803  0.3326 -1.3116  0.7215
  180SAPS   H5Y20636   6.631   7.189   2.803  1.1770  0.1311 -1.4743
  180SAPS   C3620637   6.685   7.344   2.945  0.8475 -0.7276  0.1325
  180SAPS   H6X20638   6.583   7.388   2.949  0.0887 -2.1276 -1.8539
  180SAPS   H6Y20639   6.760   7.425   2.949  0.2618 -0.1899  0.4850
  180SAPS   C3720640   6.706   7.242   3.060  0.4037 -0.7803  0.7844
  180SAPS   H7X20641   6.795   7.176   3.048  0.7991 -0.0120 -0.7867
  180SAPS   H7Y20642   6.618   7.176   3.049 -1.0796  1.4065 -1.2547
  180SAPS   C3820643   6.707   7.297   3.206 -0.3054  0.9586  0.5725
  180SAPS   H8X20644   6.610   7.349   3.224  0.6281  2.3965  1.5847
  180SAPS   H8Y20645   6.783   7.377   3.217 -0.1471  0.9902 -0.5847
  180SAPS   C3920646   6.729   7.188   3.315 -0.0841 -0.2216 -0.0813
  180SAPS   H9X20647   6.829   7.139   3.307 -0.3022 -0.3801 -2.4387
  180SAPS   H9Y20648   6.659   7.104   3.298 -0.8372  0.6271 -1.2820
  180SAPS  C31020649   6.719   7.253   3.454 -0.0763  0.5414 -0.2061
  180SAPS  H10X20650   6.621   7.305   3.460 -0.1361  0.5380 -1.0024
  180SAPS  H10Y20651   6.792   7.337   3.456  0.8513 -0.1922 -1.8220
  180SAPS  C31120652   6.742   7.149   3.566 -0.1405  0.8936 -0.1352
  180SAPS  H11X20653   6.842   7.100   3.556 -1.2565 -1.1079 -2.5259
  180SAPS  H11Y20654   6.673   7.064   3.549  1.6654 -0.7978  0.4971
  180SAPS  C31220655   6.728   7.206   3.714 -0.1953  0.0800  0.7958
  180SAPS  H12X20656   6.651   7.285   3.727  0.0352  0.5481 -0.6000
  180SAPS  H12Y20657   6.829   7.244   3.740 -0.5720  1.5307  0.2296
  180SAPS  C31320658   6.676   7.089   3.803 -0.6542  0.5380  0.8762
  180SAPS  H13X20659   6.746   7.005   3.782 -0.7302  1.0889 -2.1361
  180SAPS  H13Y20660   6.575   7.054   3.776  0.5600 -1.3399 -1.6826
  180SAPS  C31420661   6.673   7.131   3.946 -0.0152  0.9581  0.1448
  180SAPS  H14X20662   6.634   7.043   4.001 -0.1617 -0.0228 -1.4978
  180SAPS  H14Y20663   6.603   7.218   3.951 -0.2560  0.7919 -0.3846
  180SAPS  C31520664   6.807   7.174   4.008 -1.1044  0.8294  0.0990
  180SAPS  H15X20665   6.857   7.259   3.957  1.1711 -1.2507 -1.3745
  180SAPS  H15Y20666   6.882   7.095   3.985 -1.4010  1.3166 -3.0501
  180SAPS  C31620667   6.811   7.197   4.159 -0.3176 -0.1313 -0.5419
  180SAPS  H16X20668   6.912   7.229   4.192  0.7482 -2.7925 -0.9783
  180SAPS  H16Y20669   6.800   7.099   4.211 -0.0870 -1.7572 -3.3239
  180SAPS  C31720670   6.702   7.291   4.211 -0.0909  0.0547  1.4496
  180SAPS  H17X20671   6.601   7.246   4.227  0.7448 -1.9564  1.4140
  180SAPS  H17Y20672   6.686   7.378   4.145  0.2626 -0.4596  0.6674
  180SAPS  C31820673   6.745   7.355   4.345  0.2456  0.4681 -0.2582
  180SAPS  H18X20674   6.659   7.402   4.397 -1.6432 -2.1412 -0.8341
  180SAPS  H18Y20675   6.822   7.433   4.324  0.0445  1.4656  2.3798
  180SAPS  H18Z20676   6.782   7.285   4.422 -1.0695  0.0180 -0.0179
  181POPC     N20677   5.656   2.918   6.054 -0.1201 -0.3402  0.8827
  181POPC   C1220678   5.598   2.890   5.917 -0.3752 -0.4674  0.3048
  181POPC  H12A20679   5.665   2.929   5.842  0.1212 -1.2290  0.3337
  181POPC  H12B20680   5.507   2.946   5.902  0.7420  1.0110 -1.3934
  181POPC   C1320681   5.669   3.064   6.068 -0.7150 -0.8366 -0.1298
  181POPC  H13A20682   5.577   3.116   6.045 -1.7930 -2.0179  1.2861
  181POPC  H13B20683   5.713   3.083   6.165  3.1352 -3.9645 -0.9825
  181POPC  H13C20684   5.745   3.090   5.996 -0.6091 -0.9802 -0.0702
  181POPC   C1420685   5.568   2.860   6.161  0.3781  0.1085 -0.0650
  181POPC  H14A20686   5.582   2.905   6.258  0.4856 -1.6087  0.7552
  181POPC  H14B20687   5.463   2.877   6.141  0.2403 -1.5995 -0.9295
  181POPC  H14C20688   5.589   2.755   6.171  0.6523  0.0928 -0.7582
  181POPC   C1520689   5.789   2.846   6.074  0.2323  0.1517 -0.2708
  181POPC  H15A20690   5.873   2.884   6.018  0.6667 -1.2548 -0.6134
  181POPC  H15B20691   5.771   2.740   6.081 -0.1580  0.3154  2.7845
  181POPC  H15C20692   5.826   2.865   6.174  2.0890 -3.1762 -0.1867
  181POPC   C1120693   5.576   2.742   5.874 -0.1043 -0.9642 -0.8274
  181POPC  H11A20694   5.673   2.690   5.883  2.1691  2.6966 -2.0033
  181POPC  H11B20695   5.553   2.749   5.765 -1.5339  3.9519 -0.4528
  181POPC     P20696   5.319   2.724   5.912  0.1353 -0.0717  0.0985
  181POPC   O1320697   5.322   2.864   5.878 -0.0614 -0.1424  0.0565
  181POPC   O1420698   5.235   2.686   6.023  0.1563  0.3727  0.4316
  181POPC   O1220699   5.465   2.682   5.946  0.0488 -0.1913 -0.2130
  181POPC   O1120700   5.277   2.644   5.782 -0.4828  0.1732  0.6594
  181POPC    C120701   5.352   2.532   5.746  0.0724  0.3712 -0.1727
  181POPC    HA20702   5.360   2.453   5.824  1.8364  0.9782  0.3188
  181POPC    HB20703   5.455   2.564   5.719 -0.5578  1.3683 -1.5469
  181POPC    C220704   5.283   2.459   5.617 -0.3506 -0.1049 -0.1405
  181POPC    HS20705   5.338   2.372   5.574 -0.4201  0.3517 -1.1889
  181POPC   O2120706   5.249   2.556   5.518  0.0753  0.3666 -0.1472
  181POPC   C2120707   5.352   2.607   5.458 -0.7797  0.1104  0.5424
  181POPC   O2220708   5.471   2.593   5.475 -0.0204  0.0568  0.1816
  181POPC   C2220709   5.292   2.706   5.360 -0.3628  0.3011  0.7056
  181POPC   H2R20710   5.322   2.807   5.394 -0.5866  0.0685  1.6188
  181POPC   H2S20711   5.183   2.686   5.356  0.2090 -3.6082  0.7725
  181POPC    C320712   5.149   2.405   5.668 -1.1096 -0.0901 -0.2401
  181POPC    HX20713   5.073   2.473   5.712 -2.3395 -0.3625 -1.8631
  181POPC    HY20714   5.172   2.330   5.747 -0.1750 -1.0070 -1.3523
  181POPC   O3120715   5.088   2.319   5.573  1.0196 -0.2090 -0.0500
  181POPC   C3120716   4.960   2.346   5.543  0.8109 -0.0602  0.6344
  181POPC   O3220717   4.900   2.450   5.569  0.3735  0.4280 -0.4772
  181POPC   C3220718   4.909   2.228   5.461  0.3219 -0.2288  0.6161
  181POPC   H2X20719   4.884   2.144   5.530  0.8485 -0.3266  0.6922
  181POPC   H2Y20720   5.003   2.205   5.408  1.0976  3.2610  0.2755
  181POPC   C2320721   5.351   2.689   5.219 -0.1349 -0.2428  0.3648
  181POPC   H3R20722   5.456   2.653   5.224  0.4621  1.2292 -0.8089
  181POPC   H3S20723   5.333   2.784   5.164 -0.6268 -1.2293 -1.2722
  181POPC   C2420724   5.268   2.585   5.137  0.0416 -0.0972 -0.0508
  181POPC   H4R20725   5.162   2.616   5.123 -0.1526 -1.2245 -1.3020
  181POPC   H4S20726   5.271   2.492   5.197  0.4277  0.2983  0.5503
  181POPC   C2520727   5.312   2.576   4.987 -0.1052 -0.5545 -0.6902
  181POPC   H5R20728   5.417   2.538   4.990  0.6037  1.3274  0.6551
  181POPC   H5S20729   5.316   2.672   4.931 -1.2101 -0.4883 -0.6677
  181POPC   C2620730   5.226   2.482   4.896  0.0539 -0.4515 -0.7080
  181POPC   H6R20731   5.124   2.525   4.903  0.1904 -0.3925  1.6997
  181POPC   H6S20732   5.219   2.380   4.941  1.0338 -0.1108  0.2599
  181POPC   C2720733   5.276   2.475   4.754  0.7982 -0.2987 -0.8978
  181POPC   H7R20734   5.379   2.434   4.765  0.7255  0.2177  3.4980
  181POPC   H7S20735   5.280   2.576   4.709  3.7789 -0.0030 -0.1755
  181POPC   C2820736   5.193   2.372   4.675 -0.9509 -0.5342 -0.0762
  181POPC   H8R20737   5.111   2.433   4.632  1.6368  3.1212 -0.2318
  181POPC   H8S20738   5.147   2.295   4.741  0.2567 -2.2060 -1.1163
  181POPC   C2920739   5.262   2.302   4.565  0.3623  0.8531  0.4425
  181POPC   H9120740   5.313   2.208   4.589 -0.3189  0.4635  0.3778
  181POPC  C21020741   5.272   2.359   4.441  0.5477  0.6118 -0.1064
  181POPC  H10120742   5.328   2.299   4.368  0.9392 -1.3420  1.6865
  181POPC  C21120743   5.233   2.495   4.402  0.3358 -0.4457  0.5625
  181POPC  H11R20744   5.310   2.532   4.330 -0.2684  0.4526  0.3678
  181POPC  H11S20745   5.238   2.560   4.492 -0.9196 -0.6572  0.8020
  181POPC  C21220746   5.088   2.503   4.344  0.3523  0.1779 -0.5677
  181POPC  H12R20747   5.014   2.474   4.422  0.3084 -0.0646 -0.7001
  181POPC  H12S20748   5.072   2.429   4.263 -2.1390 -1.7316  1.4808
  181POPC  C21320749   5.048   2.646   4.297  0.9868 -0.3894 -0.8030
  181POPC  H13R20750   5.135   2.710   4.272  1.8242 -1.8638 -1.7535
  181POPC  H13S20751   5.010   2.692   4.391  5.6817  0.3492  0.9948
  181POPC  C21420752   4.933   2.651   4.194  0.5983 -0.2040  0.1685
  181POPC  H14R20753   4.846   2.591   4.228 -0.7461  1.0941 -0.8203
  181POPC  H14S20754   4.978   2.588   4.114 -1.1945 -2.8787  1.1414
  181POPC  C21520755   4.890   2.783   4.136  0.0155 -0.5354 -0.1326
  181POPC  H15R20756   4.975   2.841   4.094 -1.1638  0.2474 -1.5288
  181POPC  H15S20757   4.842   2.847   4.213 -2.4436 -3.4956  1.0196
  181POPC  C21620758   4.787   2.769   4.021  0.5802  0.4217 -1.0572
  181POPC  H16R20759   4.693   2.725   4.062 -0.2280  1.8860 -1.2507
  181POPC  H16S20760   4.832   2.696   3.951  2.5152  1.7477 -1.2821
  181POPC  C21720761   4.744   2.905   3.963  0.4195  0.6306  0.3074
  181POPC  H17R20762   4.840   2.953   3.937  0.2897  0.4323 -0.5621
  181POPC  H17S20763   4.695   2.955   4.049  0.2551  1.1590 -0.0917
  181POPC  C21820764   4.662   2.889   3.836 -0.3052 -0.2457 -0.2153
  181POPC  H18R20765   4.612   2.985   3.811  0.3354  0.2402  0.3229
  181POPC  H18S20766   4.587   2.808   3.848  0.6958 -1.1366  0.2073
  181POPC  H18T20767   4.727   2.861   3.749  1.9821  0.9789  0.9955
  181POPC   C3320768   4.791   2.262   5.370 -0.8917 -0.9173  0.1806
  181POPC   H3X20769   4.718   2.326   5.423 -0.9300 -0.4763 -0.3958
  181POPC   H3Y20770   4.748   2.163   5.341  2.7233 -1.2294 -5.7732
  181POPC   C3420771   4.841   2.319   5.238 -0.4561  0.0376  0.1817
  181POPC   H4X20772   4.948   2.290   5.226 -0.5604 -0.1423 -0.3333
  181POPC   H4Y20773   4.848   2.429   5.252 -0.7641  0.0876 -0.0631
  181POPC   C3520774   4.740   2.294   5.126  0.3159  0.3373 -0.5769
  181POPC   H5X20775   4.649   2.352   5.149  0.3851  0.5760 -0.8985
  181POPC   H5Y20776   4.717   2.185   5.123  1.7364 -0.0137  0.1076
  181POPC   C3620777   4.793   2.348   4.997  0.2946 -0.3758  0.1689
  181POPC   H6X20778   4.896   2.308   4.992 -0.3758 -2.1823 -0.2579
  181POPC   H6Y20779   4.786   2.459   4.992  2.9375 -0.0017  2.3504
  181POPC   C3720780   4.722   2.283   4.877 -0.3487 -0.4312  1.2592
  181POPC   H7X20781   4.611   2.289   4.875 -0.4345 -0.5516 -2.6462
  181POPC   H7Y20782   4.742   2.175   4.890  1.0989 -0.8966 -3.1962
  181POPC   C3820783   4.785   2.325   4.737 -0.8128  0.2494 -0.1245
  181POPC   H8X20784   4.891   2.296   4.754 -0.6893  0.6772 -0.1536
  181POPC   H8Y20785   4.778   2.434   4.717  0.9112  0.4906  0.4090
  181POPC   C3920786   4.732   2.243   4.620  0.5658 -0.3648 -1.1209
  181POPC   H9X20787   4.621   2.253   4.625  0.2319 -3.4761 -0.1651
  181POPC   H9Y20788   4.748   2.134   4.636 -0.9460 -0.7039 -1.6989
  181POPC  C31020789   4.780   2.295   4.489 -0.0139  0.4078 -0.4954
  181POPC  H10X20790   4.891   2.292   4.491 -0.0243 -0.1079  1.4575
  181POPC  H10Y20791   4.743   2.400   4.481 -0.3467  0.4571  1.2373
  181POPC  C31120792   4.729   2.215   4.375  0.0605  0.6119  0.2622
  181POPC  H11X20793   4.619   2.229   4.363 -0.0170  0.4038  0.6910
  181POPC  H11Y20794   4.744   2.107   4.394 -3.1203 -0.3571 -1.7763
  181POPC  C31220795   4.805   2.246   4.238  0.2738 -0.1756 -0.1465
  181POPC  H12X20796   4.914   2.238   4.256  0.7981  3.5854 -0.7916
  181POPC  H12Y20797   4.795   2.357   4.243  3.4857  0.1492  2.3156
  181POPC  C31320798   4.750   2.189   4.110 -0.3263 -1.1397  0.6302
  181POPC  H13X20799   4.785   2.087   4.084  1.8462  0.0710 -1.5287
  181POPC  H13Y20800   4.799   2.252   4.033 -0.9154 -1.1888  0.2100
  181POPC  C31420801   4.601   2.201   4.108 -0.6949 -0.7204 -0.0861
  181POPC  H14X20802   4.572   2.302   4.145 -1.5144 -1.0008  0.0537
  181POPC  H14Y20803   4.542   2.134   4.175 -1.6140  0.6454  0.5339
  181POPC  C31520804   4.548   2.173   3.973  0.1548  0.0124  0.3937
  181POPC  H15X20805   4.592   2.082   3.926 -0.4158  0.3381 -0.8097
  181POPC  H15Y20806   4.570   2.262   3.910  1.1426 -1.1943 -1.0441
  181POPC  C31620807   4.392   2.163   3.956  0.0020 -0.1659 -0.0854
  181POPC  H16X20808   4.347   2.261   3.984  2.4191  0.7532  0.8881
  181POPC  H16Y20809   4.343   2.090   4.023  0.4133 -0.5397 -0.1858
  181POPC  H16Z20810   4.365   2.140   3.851  1.9713  0.8909 -0.8873
  182POPC     N20811   2.727   1.528   6.004  0.2949  0.1652  0.2300
  182POPC   C1220812   2.775   1.473   5.875  0.5156 -0.5471  0.7296
  182POPC  H12A20813   2.743   1.539   5.795 -1.7335 -1.8513  0.4493
  182POPC  H12B20814   2.711   1.387   5.861 -1.8887  1.2587 -0.3866
  182POPC   C1320815   2.741   1.426   6.103 -0.5095  1.0040 -0.2576
  182POPC  H13A20816   2.838   1.381   6.087 -1.4841 -1.4902  0.3896
  182POPC  H13B20817   2.731   1.458   6.205  0.6754 -1.0718  0.5728
  182POPC  H13C20818   2.667   1.351   6.082  0.4289 -1.2937  3.6585
  182POPC   C1420819   2.808   1.652   6.047  0.0622 -0.5073 -0.1649
  182POPC  H14A20820   2.783   1.682   6.148  2.5353  0.1318  0.3178
  182POPC  H14B20821   2.912   1.626   6.039 -0.2819 -1.7439 -0.9321
  182POPC  H14C20822   2.778   1.726   5.974  0.7824  0.7842  0.8044
  182POPC   C1520823   2.578   1.564   5.995 -0.1575  0.6965 -0.4480
  182POPC  H15A20824   2.552   1.636   6.071  0.5323  1.5954 -1.0348
  182POPC  H15B20825   2.526   1.473   6.023  1.6614  0.6892  3.4435
  182POPC  H15C20826   2.548   1.607   5.900  0.8668  0.0483 -1.0860
  182POPC   C1120827   2.922   1.433   5.861  0.2890 -0.3376  0.3050
  182POPC  H11A20828   2.987   1.523   5.862  1.3709 -1.0911  0.5098
  182POPC  H11B20829   2.939   1.404   5.755  2.8278 -0.0713  0.5745
  182POPC     P20830   2.936   1.182   5.938 -0.1813  0.1134 -0.2819
  182POPC   O1320831   2.791   1.178   5.937 -0.3269  0.5963 -0.8670
  182POPC   O1420832   3.008   1.106   6.041 -0.1968 -0.3380  0.2386
  182POPC   O1220833   2.967   1.332   5.961  0.5433 -0.1129  0.0039
  182POPC   O1120834   2.993   1.144   5.798 -0.1094 -0.1082  0.4551
  182POPC    C120835   3.130   1.182   5.769  0.0045  0.1794 -0.5173
  182POPC    HA20836   3.198   1.136   5.843 -1.6317 -1.4490  0.0543
  182POPC    HB20837   3.147   1.292   5.774  0.2461  0.0976  0.8910
  182POPC    C220838   3.171   1.122   5.634 -0.1634  0.2330  0.5656
  182POPC    HS20839   3.270   1.163   5.606  0.3743 -0.0025  2.0687
  182POPC   O2120840   3.079   1.158   5.527 -0.4306  0.0840  0.2377
  182POPC   C2120841   3.065   1.282   5.495  0.3358  0.3337 -0.1520
  182POPC   O2220842   3.128   1.374   5.539 -0.4796 -0.2664 -0.2266
  182POPC   C2220843   2.952   1.287   5.389 -1.1467 -0.5850 -0.1806
  182POPC   H2R20844   2.901   1.188   5.389 -1.7852 -0.3209  2.5853
  182POPC   H2S20845   2.998   1.312   5.291 -2.0706 -1.3846 -0.8418
  182POPC    C320846   3.186   0.965   5.646  0.1029 -0.0167  0.0368
  182POPC    HX20847   3.094   0.934   5.700 -1.5767  2.4905 -1.1964
  182POPC    HY20848   3.272   0.936   5.709 -0.6348 -0.5933  0.8083
  182POPC   O3120849   3.186   0.910   5.511  0.0254  0.5347 -0.3479
  182POPC   C3120850   3.070   0.882   5.461  0.2576  0.7725  0.3952
  182POPC   O3220851   2.960   0.895   5.516  0.3309 -0.3518  0.2310
  182POPC   C3220852   3.073   0.835   5.315 -0.4530 -0.0396 -0.2110
  182POPC   H2X20853   3.032   0.732   5.309 -0.1758 -0.1855  0.4197
  182POPC   H2Y20854   3.183   0.822   5.304 -0.2685  0.1634  1.2664
  182POPC   C2320855   2.856   1.396   5.426  0.6625 -0.1828 -0.6311
  182POPC   H3R20856   2.913   1.491   5.430 -0.7255  0.8205 -2.9720
  182POPC   H3S20857   2.816   1.403   5.529 -0.1265 -0.8040 -0.8906
  182POPC   C2420858   2.747   1.437   5.327 -0.4077  0.2043 -0.5488
  182POPC   H4R20859   2.705   1.533   5.365 -2.6666 -1.2366  0.8345
  182POPC   H4S20860   2.662   1.367   5.343  0.6741 -1.0691 -0.1782
  182POPC   C2520861   2.778   1.440   5.177 -0.2386  0.1755  0.3197
  182POPC   H5R20862   2.687   1.466   5.119 -0.4225 -0.8018  0.1492
  182POPC   H5S20863   2.808   1.340   5.138 -1.6162  0.2171 -0.9653
  182POPC   C2620864   2.882   1.545   5.141  0.1255 -0.4020 -0.0006
  182POPC   H6R20865   2.966   1.533   5.213  0.5335 -1.1610 -0.5873
  182POPC   H6S20866   2.845   1.648   5.161  0.2738  0.1308 -2.2355
  182POPC   C2720867   2.920   1.542   4.995  0.0245  0.2444  0.6857
  182POPC   H7R20868   2.827   1.527   4.936 -0.8443  2.2175  1.4963
  182POPC   H7S20869   2.975   1.446   4.983  1.8923  1.2623  0.6365
  182POPC   C2820870   2.993   1.665   4.936  0.2499 -0.9193 -0.1835
  182POPC   H8R20871   3.064   1.715   5.005 -0.1737  0.4875 -0.7259
  182POPC   H8S20872   2.918   1.743   4.910  2.1812  1.0528 -0.1358
  182POPC   C2920873   3.062   1.636   4.807  0.3295 -0.1595  0.0009
  182POPC   H9120874   3.171   1.648   4.809  0.0872  2.4605  0.5204
  182POPC  C21020875   3.002   1.606   4.694 -0.2729  0.3347  0.6234
  182POPC  H10120876   3.069   1.569   4.615 -2.6623 -1.8475 -0.5565
  182POPC  C21120877   2.849   1.604   4.663 -0.6493  0.1166 -0.2573
  182POPC  H11R20878   2.775   1.609   4.745  0.9645 -0.1246  1.2900
  182POPC  H11S20879   2.818   1.521   4.596 -2.5468  2.6129 -2.7106
  182POPC  C21220880   2.814   1.725   4.569 -0.6808  0.6090  0.2118
  182POPC  H12R20881   2.881   1.725   4.480 -1.7801  1.2869 -0.6461
  182POPC  H12S20882   2.841   1.815   4.628  3.5269 -0.0770 -0.3554
  182POPC  C21320883   2.666   1.734   4.528  0.0349  0.0304  0.1346
  182POPC  H13R20884   2.640   1.842   4.517  1.6289  0.2333 -2.3898
  182POPC  H13S20885   2.604   1.692   4.610 -1.7030 -2.0312 -2.0770
  182POPC  C21420886   2.645   1.652   4.397  0.1312 -0.1755  0.0854
  182POPC  H14R20887   2.674   1.546   4.416 -0.0307 -0.3874 -0.7942
  182POPC  H14S20888   2.706   1.708   4.324 -0.9980 -1.7356 -2.1887
  182POPC  C21520889   2.501   1.666   4.366  0.2902 -0.3606 -0.2519
  182POPC  H15R20890   2.472   1.773   4.359 -3.1082 -1.1550  0.0645
  182POPC  H15S20891   2.442   1.641   4.457 -0.4995 -2.1633 -1.2027
  182POPC  C21620892   2.450   1.596   4.247 -0.2219  0.1575  0.5233
  182POPC  H16R20893   2.344   1.626   4.231 -0.9626 -2.0901  0.8554
  182POPC  H16S20894   2.445   1.487   4.266 -1.3261  0.4249  2.0049
  182POPC  C21720895   2.526   1.623   4.115 -0.1523  0.3130 -0.3956
  182POPC  H17R20896   2.627   1.587   4.143 -0.6137  0.2631  1.3717
  182POPC  H17S20897   2.510   1.732   4.101 -2.4419  0.0364 -0.2497
  182POPC  C21820898   2.484   1.551   3.983 -0.2220  0.1497 -0.5920
  182POPC  H18R20899   2.558   1.573   3.903 -0.0886  1.6283 -0.0972
  182POPC  H18S20900   2.391   1.602   3.951  0.9603  2.2807 -0.8378
  182POPC  H18T20901   2.463   1.442   3.991 -0.1615  0.0916 -1.2150
  182POPC   C3320902   3.007   0.917   5.205 -0.1351  0.1684 -0.0199
  182POPC   H3X20903   3.048   0.890   5.105 -0.2677  1.4460 -0.4368
  182POPC   H3Y20904   3.045   1.021   5.210  0.9748 -0.1995 -0.3496
  182POPC   C3420905   2.858   0.923   5.214 -0.0673 -0.5484 -0.8209
  182POPC   H4X20906   2.825   0.937   5.320 -0.4048  1.6465 -1.1727
  182POPC   H4Y20907   2.823   0.823   5.182  0.4368 -1.8657  2.3034
  182POPC   C3520908   2.789   1.041   5.144 -0.0513 -1.4825  0.6305
  182POPC   H5X20909   2.825   1.130   5.200  1.3116 -0.9229 -1.0625
  182POPC   H5Y20910   2.678   1.044   5.148 -0.0098 -0.8344  2.1339
  182POPC   C3620911   2.845   1.058   4.999  0.0108 -0.5735 -0.7301
  182POPC   H6X20912   2.855   0.959   4.950 -0.3569 -0.4232 -1.1194
  182POPC   H6Y20913   2.945   1.105   5.003  0.2838 -1.1422 -0.8169
  182POPC   C3720914   2.755   1.145   4.915  0.4159 -0.3648  0.2659
  182POPC   H7X20915   2.792   1.250   4.917  1.4898 -0.6129 -2.3030
  182POPC   H7Y20916   2.649   1.144   4.946 -0.1845  1.0992 -1.5856
  182POPC   C3820917   2.783   1.112   4.766  0.2749  0.5370  0.6948
  182POPC   H8X20918   2.714   1.179   4.709  0.4711  0.2038  0.0609
  182POPC   H8Y20919   2.764   1.003   4.750 -3.7211  1.1024  0.4830
  182POPC   C3920920   2.922   1.148   4.703 -0.8222 -0.5304 -0.1416
  182POPC   H9X20921   3.000   1.094   4.761 -0.3614  0.7028  0.4091
  182POPC   H9Y20922   2.941   1.254   4.729  1.6677 -1.3273  1.6542
  182POPC  C31020923   2.928   1.127   4.555  0.1679  0.0066 -0.2696
  182POPC  H10X20924   2.840   1.165   4.498 -1.0449  0.2629  1.6859
  182POPC  H10Y20925   2.942   1.020   4.531 -1.3296 -0.4742  0.8439
  182POPC  C31120926   3.058   1.196   4.500 -0.4478 -0.0706  0.7899
  182POPC  H11X20927   3.140   1.163   4.566  0.2857  2.8218  1.4527
  182POPC  H11Y20928   3.036   1.305   4.505  2.4344  0.7681 -1.6422
  182POPC  C31220929   3.078   1.163   4.352  0.2997 -0.0050 -0.3206
  182POPC  H12X20930   3.163   1.229   4.326  1.4077 -0.3040  2.2366
  182POPC  H12Y20931   2.987   1.191   4.294  1.6775  2.5363 -1.3949
  182POPC  C31320932   3.103   1.010   4.332 -0.7291 -0.8039  0.4411
  182POPC  H13X20933   3.136   0.980   4.230  3.2491 -1.7441  1.8265
  182POPC  H13Y20934   3.014   0.947   4.349 -0.7373 -1.1434 -0.7669
  182POPC  C31420935   3.225   0.961   4.410  0.6251 -0.0059 -0.1512
  182POPC  H14X20936   3.186   0.953   4.514  0.6718 -0.7154 -0.1846
  182POPC  H14Y20937   3.314   1.027   4.414  0.5400  0.0813  0.4904
  182POPC  C31520938   3.265   0.818   4.372 -0.7206 -0.4035 -0.3473
  182POPC  H15X20939   3.173   0.755   4.373 -0.3565 -0.9512  1.3196
  182POPC  H15Y20940   3.322   0.774   4.457 -0.9729 -0.1943 -0.0701
  182POPC  C31620941   3.350   0.797   4.243 -1.1803 -0.4903  0.0223
  182POPC  H16X20942   3.344   0.694   4.202 -0.0615 -0.0109 -1.4070
  182POPC  H16Y20943   3.457   0.823   4.252 -1.7343  1.6664  1.3300
  182POPC  H16Z20944   3.311   0.862   4.161 -1.5116 -0.3873  0.2568
  183POPC     N20945   2.952   6.762   6.089  0.2705 -0.0737 -0.3764
  183POPC   C1220946   2.949   6.744   5.939 -0.5825  0.6481 -0.5277
  183POPC  H12A20947   2.899   6.831   5.899  0.5522  1.1139 -0.9507
  183POPC  H12B20948   2.879   6.665   5.915 -1.0795  1.3149 -1.3312
  183POPC   C1320949   3.002   6.637   6.153 -0.2499 -0.3061 -0.0793
  183POPC  H13A20950   3.105   6.631   6.121 -0.5355  0.9926 -1.3646
  183POPC  H13B20951   2.993   6.639   6.261 -0.2928  1.2309 -0.0795
  183POPC  H13C20952   2.955   6.545   6.123 -0.0817 -0.5237  0.3119
  183POPC   C1420953   3.029   6.876   6.126  0.1192  0.5244 -0.4595
  183POPC  H14A20954   3.129   6.863   6.086 -0.2990 -2.3590 -0.7838
  183POPC  H14B20955   2.990   6.961   6.073 -1.0497  1.0122  1.1297
  183POPC  H14C20956   3.035   6.884   6.233 -2.7572 -2.5860  0.0918
  183POPC   C1520957   2.809   6.785   6.146 -0.3779  0.7977 -0.0974
  183POPC  H15A20958   2.804   6.840   6.238  0.3589  0.8586 -0.0873
  183POPC  H15B20959   2.748   6.696   6.147 -3.5961  2.8800  1.2935
  183POPC  H15C20960   2.751   6.849   6.081 -1.0702  1.9634  1.6054
  183POPC   C1120961   3.085   6.728   5.858 -0.2059 -0.0375  0.5817
  183POPC  H11A20962   3.059   6.670   5.767  1.2062 -0.6692  0.5540
  183POPC  H11B20963   3.161   6.665   5.908 -0.0538 -1.6978 -1.6033
  183POPC     P20964   3.092   6.959   5.727 -0.2859  0.5535  0.1220
  183POPC   O1320965   3.161   7.094   5.751  0.1991 -0.0120  0.0315
  183POPC   O1420966   2.943   6.962   5.728  0.6531 -0.0629  0.9483
  183POPC   O1220967   3.142   6.853   5.830 -0.7819 -0.0887  0.1398
  183POPC   O1120968   3.144   6.890   5.596 -0.3843  0.1587 -0.4191
  183POPC    C120969   3.276   6.830   5.603 -0.9094  0.1319  0.5411
  183POPC    HA20970   3.261   6.722   5.625 -1.0644 -0.2617 -1.3319
  183POPC    HB20971   3.342   6.875   5.680  2.6735 -2.5085 -0.7113
  183POPC    C220972   3.345   6.833   5.463 -0.1701 -0.2702  0.2850
  183POPC    HS20973   3.447   6.791   5.472  1.5790  3.4304 -0.4224
  183POPC   O2120974   3.361   6.971   5.423 -0.0927  0.3850 -0.2043
  183POPC   C2120975   3.477   7.023   5.391  0.2847  0.3161  0.2537
  183POPC   O2220976   3.583   6.965   5.403 -0.4244 -0.2630  0.0139
  183POPC   C2220977   3.467   7.163   5.349 -0.5106 -0.1142 -0.1064
  183POPC   H2R20978   3.573   7.194   5.345 -0.7506  0.6540 -2.7457
  183POPC   H2S20979   3.437   7.218   5.441  0.3701 -3.2483  2.2364
  183POPC    C320980   3.257   6.746   5.367  0.1702 -0.2300  1.1914
  183POPC    HX20981   3.152   6.783   5.373  0.5215  0.7949  1.1767
  183POPC    HY20982   3.260   6.642   5.409 -1.0293 -2.0826 -2.8259
  183POPC   O3120983   3.313   6.750   5.233 -0.2347 -0.2707  0.0627
  183POPC   C3120984   3.408   6.651   5.216  0.4412 -0.2742 -0.3656
  183POPC   O3220985   3.427   6.571   5.304  0.1192  0.3728 -0.6836
  183POPC   C3220986   3.496   6.675   5.086 -0.7693  0.2295 -0.8191
  183POPC   H2X20987   3.521   6.782   5.072  0.0655  0.2362  0.5850
  183POPC   H2Y20988   3.435   6.641   4.999 -1.7330 -2.0119  0.6549
  183POPC   C2320989   3.393   7.188   5.221  0.1955 -0.1834 -0.1294
  183POPC   H3R20990   3.377   7.295   5.194 -0.4803  0.0528  1.1117
  183POPC   H3S20991   3.290   7.148   5.233 -0.8766  2.3686 -0.1762
  183POPC   C2420992   3.456   7.114   5.096  0.3024 -0.1398 -0.5767
  183POPC   H4R20993   3.488   7.010   5.117 -1.3963 -0.5737  0.0383
  183POPC   H4S20994   3.556   7.163   5.091 -0.4046  1.3726 -0.5976
  183POPC   C2520995   3.375   7.128   4.969  0.0182 -0.1636  0.2649
  183POPC   H5R20996   3.340   7.231   4.945 -2.6979 -1.6246 -2.6703
  183POPC   H5S20997   3.273   7.091   4.991 -1.5419  3.1774 -0.6245
  183POPC   C2620998   3.453   7.080   4.843 -0.1018  0.0143 -0.7906
  183POPC   H6R20999   3.482   6.973   4.841 -2.1398 -0.5914 -0.2637
  183POPC   H6S21000   3.551   7.132   4.855 -0.7164  0.8733  0.8854
  183POPC   C2721001   3.394   7.129   4.712  0.9560  0.3435  0.2625
  183POPC   H7R21002   3.362   7.235   4.724 -2.5294 -0.6504  0.8034
  183POPC   H7S21003   3.305   7.067   4.688  0.4352  0.8326  0.8984
  183POPC   C2821004   3.487   7.128   4.597 -0.2068  0.4040  0.3568
  183POPC   H8R21005   3.578   7.188   4.615  1.3472 -1.0763 -2.0555
  183POPC   H8S21006   3.434   7.182   4.515  0.4790  1.7232  0.7542
  183POPC   C2921007   3.518   6.983   4.547 -0.1039 -0.1393  0.9218
  183POPC   H9121008   3.621   6.949   4.562 -0.0288 -0.2981  0.1219
  183POPC  C21021009   3.426   6.900   4.485  0.1342  0.3514 -0.4842
  183POPC  H10121010   3.462   6.799   4.462  0.0987  0.7367 -2.3900
  183POPC  C21121011   3.284   6.939   4.446  0.4257 -0.4167 -0.7617
  183POPC  H11R21012   3.264   7.045   4.471 -1.3076 -1.0069  0.5281
  183POPC  H11S21013   3.215   6.876   4.506  0.6738  0.0216  0.0050
  183POPC  C21221014   3.270   6.917   4.294 -0.1521 -0.0777 -0.2334
  183POPC  H12R21015   3.322   6.822   4.266  0.6800  0.3872 -0.3101
  183POPC  H12S21016   3.326   6.998   4.243  0.9844  1.2284  2.8358
  183POPC  C21321017   3.131   6.936   4.223  0.0110  0.6386  0.2682
  183POPC  H13R21018   3.069   7.017   4.267  0.3402  0.5197  0.9535
  183POPC  H13S21019   3.081   6.845   4.262 -0.1230  0.8164  0.5203
  183POPC  C21421020   3.140   6.941   4.079 -0.0439  0.3082  0.7481
  183POPC  H14R21021   3.215   6.872   4.036 -0.5049 -0.6804  1.4895
  183POPC  H14S21022   3.183   7.041   4.057 -0.3431  0.4340  0.7269
  183POPC  C21521023   3.004   6.915   4.017 -0.7640 -0.2588 -0.6561
  183POPC  H15R21024   2.962   7.015   3.993  1.9184  1.3510  0.7811
  183POPC  H15S21025   2.929   6.862   4.080  0.9964 -2.4460 -0.2815
  183POPC  C21621026   3.025   6.810   3.906 -0.2939 -0.1252  0.6351
  183POPC  H16R21027   3.044   6.713   3.957 -0.7241 -1.1723 -1.0688
  183POPC  H16S21028   3.109   6.836   3.838 -1.2524  2.0219  0.1881
  183POPC  C21721029   2.897   6.784   3.824 -1.4399 -0.2525 -0.6776
  183POPC  H17R21030   2.862   6.883   3.789 -1.3497  0.2295  0.5402
  183POPC  H17S21031   2.813   6.739   3.882 -1.6217  1.3007  0.3247
  183POPC  C21821032   2.906   6.697   3.706 -0.2803  0.6132  0.5394
  183POPC  H18R21033   2.944   6.596   3.733 -0.9847  0.1070 -0.3038
  183POPC  H18S21034   2.967   6.745   3.626  1.0486 -1.2363  0.3845
  183POPC  H18T21035   2.808   6.676   3.658  0.4001  0.5736 -0.8842
  183POPC   C3321036   3.626   6.587   5.090 -0.2521  0.2029 -0.3609
  183POPC   H3X21037   3.607   6.485   5.128 -0.1905  1.0374  2.0703
  183POPC   H3Y21038   3.687   6.625   5.175 -2.0858 -2.3236  2.2632
  183POPC   C3421039   3.699   6.571   4.961  0.3574  0.0893  0.4635
  183POPC   H4X21040   3.788   6.509   4.984  0.0368 -0.6420 -0.2107
  183POPC   H4Y21041   3.722   6.673   4.925  0.0047 -0.5809 -1.8146
  183POPC   C3521042   3.618   6.506   4.840  0.4155  0.6014  0.2738
  183POPC   H5X21043   3.549   6.581   4.795 -0.4362 -0.8168 -0.8828
  183POPC   H5Y21044   3.550   6.434   4.889 -1.9264  0.5884 -2.6664
  183POPC   C3621045   3.711   6.436   4.734  0.1174 -0.2975  0.2659
  183POPC   H6X21046   3.719   6.327   4.755 -0.8783 -0.7732 -1.5648
  183POPC   H6Y21047   3.807   6.492   4.742  0.2228 -0.5472  0.7691
  183POPC   C3721048   3.663   6.468   4.594 -0.0208 -0.2254  0.1511
  183POPC   H7X21049   3.641   6.577   4.591 -0.7804 -0.3763 -2.1295
  183POPC   H7Y21050   3.569   6.408   4.590  0.1681 -0.6809  1.7752
  183POPC   C3821051   3.753   6.424   4.483  0.7513  0.4105 -0.1320
  183POPC   H8X21052   3.783   6.319   4.505 -0.1368  0.1389 -0.1568
  183POPC   H8Y21053   3.851   6.476   4.483  1.1244 -0.2558  0.6680
  183POPC   C3921054   3.692   6.426   4.347  0.8764 -0.7150  0.1894
  183POPC   H9X21055   3.643   6.524   4.328 -0.5108 -1.6003 -1.1815
  183POPC   H9Y21056   3.613   6.349   4.330  0.8789 -0.5576 -0.6001
  183POPC  C31021057   3.792   6.408   4.233 -0.6783  0.7662 -0.1581
  183POPC  H10X21058   3.893   6.399   4.278 -0.5122 -1.7310 -0.8727
  183POPC  H10Y21059   3.805   6.489   4.157  0.5078  0.7361 -0.0064
  183POPC  C31121060   3.789   6.273   4.159  0.3888  0.6083  0.3411
  183POPC  H11X21061   3.786   6.197   4.240  2.1464  0.9138  0.7342
  183POPC  H11Y21062   3.887   6.268   4.108 -1.0069 -1.5112 -2.3939
  183POPC  C31221063   3.676   6.243   4.054  0.3952  0.0441 -0.5482
  183POPC  H12X21064   3.581   6.269   4.106  1.2418 -2.0922  2.3320
  183POPC  H12Y21065   3.667   6.133   4.045 -2.1213 -0.0905  2.1719
  183POPC  C31321066   3.674   6.309   3.914  0.1238 -0.1132 -0.2098
  183POPC  H13X21067   3.675   6.420   3.927 -0.3509 -0.1413  0.0964
  183POPC  H13Y21068   3.567   6.300   3.883 -0.0142 -0.0341  0.2304
  183POPC  C31421069   3.765   6.257   3.800  0.2844 -0.2153 -0.3254
  183POPC  H14X21070   3.745   6.150   3.778  0.0639 -0.1067 -0.6528
  183POPC  H14Y21071   3.874   6.265   3.820 -0.0235 -0.2343  1.4988
  183POPC  C31521072   3.728   6.325   3.662 -0.1839  0.2660 -0.5467
  183POPC  H15X21073   3.619   6.299   3.662  0.3231 -2.2555  0.9354
  183POPC  H15Y21074   3.775   6.267   3.580 -0.5495  1.7493 -1.8463
  183POPC  C31621075   3.765   6.474   3.645  0.7572  0.5254 -0.4153
  183POPC  H16X21076   3.875   6.483   3.639  0.8219 -1.0654 -2.9761
  183POPC  H16Y21077   3.730   6.542   3.726  2.2028 -0.2664  0.9239
  183POPC  H16Z21078   3.733   6.509   3.544  2.2595  1.9562 -0.4357
  184POPC     N21079   4.068   6.851   5.875 -0.0085  0.5062  0.5810
  184POPC   C1221080   4.173   6.910   5.780 -0.1565  0.4309  0.4170
  184POPC  H12A21081   4.159   7.016   5.769  3.1511  1.1782  2.0442
  184POPC  H12B21082   4.152   6.864   5.685 -0.2744  1.2817  0.0238
  184POPC   C1321083   4.084   6.704   5.889 -0.3435 -0.3343 -0.2315
  184POPC  H13A21084   4.164   6.681   5.958 -1.3175  1.0246  1.4281
  184POPC  H13B21085   3.996   6.668   5.942 -0.8492  1.0979 -0.0611
  184POPC  H13C21086   4.096   6.650   5.796  0.5444  0.8085 -0.7973
  184POPC   C1421087   4.069   6.925   6.003  0.2818 -0.0987  0.4267
  184POPC  H14A21088   4.084   7.031   5.989  0.9934 -0.2609 -0.0592
  184POPC  H14B21089   3.992   6.888   6.069 -0.9698 -0.3765 -1.1285
  184POPC  H14C21090   4.163   6.900   6.051  1.1215  2.1573  0.0588
  184POPC   C1521091   3.926   6.864   5.821 -0.2786 -0.3825  0.6063
  184POPC  H15A21092   3.858   6.835   5.899 -3.6411  0.6288 -1.7344
  184POPC  H15B21093   3.909   6.799   5.737 -0.9420  0.3725  0.1439
  184POPC  H15C21094   3.910   6.966   5.789  1.2307 -0.6130 -1.0440
  184POPC   C1121095   4.323   6.882   5.794  0.1489  0.1219 -0.6820
  184POPC  H11A21096   4.364   6.907   5.694 -1.5463 -0.4376 -1.5625
  184POPC  H11B21097   4.339   6.775   5.816  2.2360  0.7367  1.1618
  184POPC     P21098   4.402   7.112   5.874  0.4285  0.3383  0.4160
  184POPC   O1321099   4.487   7.163   5.989  0.2677 -0.1031 -0.0166
  184POPC   O1421100   4.273   7.181   5.845  0.0579 -0.9141 -0.0004
  184POPC   O1221101   4.370   6.962   5.899 -0.3499  0.6997  0.2433
  184POPC   O1121102   4.489   7.115   5.743  0.5710  0.1384 -0.0716
  184POPC    C121103   4.624   7.076   5.736  0.2191 -0.0125  0.6684
  184POPC    HA21104   4.644   7.026   5.638  0.4381  0.9376  0.2149
  184POPC    HB21105   4.650   7.002   5.815  0.2872 -0.3261  0.3561
  184POPC    C221106   4.733   7.190   5.749 -0.1929 -0.1516  0.2179
  184POPC    HS21107   4.712   7.244   5.844 -2.4374  0.3503 -0.5026
  184POPC   O2121108   4.718   7.272   5.636  0.3708 -0.4797 -0.2645
  184POPC   C2121109   4.781   7.392   5.643 -0.5952  0.6352  0.9746
  184POPC   O2221110   4.846   7.431   5.734  0.0350 -0.3665 -0.4819
  184POPC   C2221111   4.759   7.467   5.503 -0.2650  0.4458 -0.2729
  184POPC   H2R21112   4.770   7.572   5.540  2.5655 -0.1965  1.0488
  184POPC   H2S21113   4.656   7.441   5.472 -1.1358  1.9684  1.1267
  184POPC    C321114   4.879   7.128   5.769  0.3105 -0.7283 -0.6366
  184POPC    HX21115   4.884   7.075   5.867 -1.6463 -2.3837 -1.3681
  184POPC    HY21116   4.940   7.221   5.779  0.4483 -1.0289  1.9556
  184POPC   O3121117   4.920   7.032   5.673 -0.0352  0.3367  0.0023
  184POPC   C3121118   5.047   7.037   5.635 -1.0770 -0.1673  0.1529
  184POPC   O3221119   5.126   7.129   5.666  0.0336 -0.2500  0.5835
  184POPC   C3221120   5.082   6.925   5.530  0.7475  0.1223 -0.9407
  184POPC   H2X21121   5.031   6.833   5.567 -0.9453  1.0421 -0.9067
  184POPC   H2Y21122   5.193   6.913   5.528  0.7138 -0.6119  0.3977
  184POPC   C2321123   4.867   7.436   5.404 -0.3489 -0.0897 -0.3816
  184POPC   H3R21124   4.958   7.482   5.449 -0.5582 -1.1497  1.2332
  184POPC   H3S21125   4.847   7.491   5.310 -2.6797  0.6592  0.4706
  184POPC   C2421126   4.891   7.287   5.356 -0.7557 -0.4356 -0.4698
  184POPC   H4R21127   4.929   7.231   5.444 -0.9962  1.2202  0.7563
  184POPC   H4S21128   4.968   7.273   5.278 -1.8603  0.2818 -1.7343
  184POPC   C2521129   4.766   7.217   5.318 -0.3538  0.4496 -0.4610
  184POPC   H5R21130   4.688   7.213   5.397 -0.1855  0.1476 -0.3075
  184POPC   H5S21131   4.788   7.113   5.285 -1.2354  0.3417 -0.7478
  184POPC   C2621132   4.694   7.275   5.193 -0.7799 -0.1732 -0.5631
  184POPC   H6R21133   4.767   7.274   5.110 -0.8581  2.2745 -0.7319
  184POPC   H6S21134   4.666   7.381   5.215 -0.5164  0.5275 -3.2818
  184POPC   C2721135   4.569   7.190   5.147  0.1836  0.7560  0.3940
  184POPC   H7R21136   4.613   7.093   5.117 -0.2545  0.6303  0.1402
  184POPC   H7S21137   4.510   7.241   5.067 -2.5799 -1.4345  0.8661
  184POPC   C2821138   4.461   7.186   5.258  0.3622  0.2699 -0.1417
  184POPC   H8R21139   4.433   7.287   5.296  0.8460 -0.1041  1.2660
  184POPC   H8S21140   4.501   7.129   5.344 -1.9755 -0.2981  0.6451
  184POPC   C2921141   4.330   7.114   5.222 -0.1776  0.0471 -0.2610
  184POPC   H9121142   4.326   7.010   5.260 -1.8561 -0.4734 -1.7167
  184POPC  C21021143   4.222   7.154   5.150  0.0428  0.5303  0.4772
  184POPC  H10121144   4.132   7.094   5.132 -0.7566  1.5747  0.8862
  184POPC  C21121145   4.225   7.284   5.072  0.6075 -0.1478  0.2168
  184POPC  H11R21146   4.314   7.347   5.092  0.1308 -0.0374  2.1247
  184POPC  H11S21147   4.133   7.342   5.093  0.6218  0.7046 -1.8738
  184POPC  C21221148   4.226   7.266   4.917  0.2679 -1.1351 -0.1331
  184POPC  H12R21149   4.127   7.228   4.881  1.2436 -1.7537 -2.3450
  184POPC  H12S21150   4.299   7.188   4.888 -0.5351 -1.2246 -2.0695
  184POPC  C21321151   4.245   7.406   4.850 -0.2262 -0.1102  0.1287
  184POPC  H13R21152   4.245   7.397   4.739 -1.1730  1.3507 -0.0211
  184POPC  H13S21153   4.343   7.444   4.887 -0.1584 -0.6640  0.5295
  184POPC  C21421154   4.128   7.506   4.869  0.4771 -0.4682  0.4388
  184POPC  H14R21155   4.117   7.548   4.971 -2.5275  1.2292 -0.4759
  184POPC  H14S21156   4.039   7.441   4.852  0.3954 -0.5998  1.3139
  184POPC  C21521157   4.131   7.622   4.772  0.0769  0.2011  0.2249
  184POPC  H15R21158   4.237   7.655   4.767  0.2470 -0.3069  0.4340
  184POPC  H15S21159   4.066   7.704   4.810 -0.4889  1.2245 -2.6567
  184POPC  C21621160   4.074   7.596   4.636 -0.3402  0.7270  0.0779
  184POPC  H16R21161   3.977   7.542   4.646  1.1740 -2.3402 -0.5731
  184POPC  H16S21162   4.136   7.522   4.582  0.2451  0.3766  1.2061
  184POPC  C21721163   4.066   7.725   4.543 -0.6075  0.0940 -0.0103
  184POPC  H17R21164   4.171   7.756   4.525 -0.6254  0.0118 -0.2607
  184POPC  H17S21165   4.011   7.806   4.596  0.4152  1.0212 -0.3301
  184POPC  C21821166   3.997   7.688   4.411  0.8251  0.4511  0.3795
  184POPC  H18R21167   3.897   7.643   4.424  1.2407 -0.6090  0.0106
  184POPC  H18S21168   4.056   7.614   4.352 -1.4889 -3.0313  2.0969
  184POPC  H18T21169   3.980   7.778   4.349  1.7447 -0.4543 -1.2777
  184POPC   C3321170   5.046   6.952   5.387  0.2417  0.4530 -0.1022
  184POPC   H3X21171   5.101   7.042   5.354 -0.1432 -0.3029 -3.0388
  184POPC   H3Y21172   4.938   6.979   5.379  0.5151  1.8529  0.5284
  184POPC   C3421173   5.092   6.830   5.298 -0.2652 -0.8303 -0.1495
  184POPC   H4X21174   5.036   6.736   5.315 -3.1606  1.0411  1.3272
  184POPC   H4Y21175   5.197   6.798   5.318 -0.2101 -0.4291  0.2286
  184POPC   C3521176   5.092   6.851   5.143  0.9072 -0.4902 -0.0842
  184POPC   H5X21177   5.144   6.764   5.098  1.3244 -0.8368  1.0541
  184POPC   H5Y21178   5.159   6.938   5.127  0.0989 -0.1815 -2.2134
  184POPC   C3621179   4.954   6.861   5.077  0.6082  0.3002  0.3094
  184POPC   H6X21180   4.912   6.963   5.092  0.8623  0.3080  1.0507
  184POPC   H6Y21181   4.892   6.787   5.131 -0.8448  0.3201 -1.2497
  184POPC   C3721182   4.951   6.822   4.928  0.7989 -0.1466 -0.4906
  184POPC   H7X21183   4.846   6.808   4.894  0.1737 -1.0262  1.6290
  184POPC   H7Y21184   5.001   6.724   4.916 -0.7578 -1.3412  1.9661
  184POPC   C3821185   5.019   6.926   4.833  0.9993 -0.1103 -0.3139
  184POPC   H8X21186   5.129   6.933   4.850  0.4732  1.8319  3.5197
  184POPC   H8Y21187   4.985   7.029   4.858  0.8346  0.0072 -0.9998
  184POPC   C3921188   4.999   6.905   4.680 -0.2157 -0.0261 -0.4353
  184POPC   H9X21189   5.044   6.998   4.638  0.7839 -0.2580  0.1117
  184POPC   H9Y21190   4.892   6.917   4.652 -0.5309  1.3836  1.1767
  184POPC  C31021191   5.065   6.775   4.628 -0.8786 -0.0419 -0.2927
  184POPC  H10X21192   5.033   6.693   4.695  1.3518  0.1205  1.0541
  184POPC  H10Y21193   5.174   6.784   4.650 -0.5409 -3.5734  0.0602
  184POPC  C31121194   5.046   6.745   4.484 -0.2687 -0.2419  0.1151
  184POPC  H11X21195   5.057   6.843   4.433 -0.9814 -1.1327 -1.8562
  184POPC  H11Y21196   4.943   6.704   4.474 -0.9321  1.4083 -0.0630
  184POPC  C31221197   5.153   6.655   4.419 -0.2671 -0.1414 -0.1046
  184POPC  H12X21198   5.101   6.604   4.336 -1.8187  1.0534  0.0898
  184POPC  H12Y21199   5.180   6.582   4.499 -0.1293 -0.0656 -0.0812
  184POPC  C31321200   5.276   6.721   4.366 -0.3358  0.2610  0.4796
  184POPC  H13X21201   5.333   6.765   4.450 -2.7018  1.1896  1.6741
  184POPC  H13Y21202   5.248   6.804   4.297  1.1422 -0.4615 -1.0499
  184POPC  C31421203   5.356   6.619   4.288  0.6163  0.1038 -0.5588
  184POPC  H14X21204   5.311   6.587   4.192  1.1835 -2.0713 -0.1607
  184POPC  H14Y21205   5.361   6.527   4.350  0.9044  1.2414  1.1680
  184POPC  C31521206   5.506   6.653   4.262  0.0757 -0.8960  0.7222
  184POPC  H15X21207   5.538   6.684   4.363  2.0101  1.3667 -0.4638
  184POPC  H15Y21208   5.500   6.734   4.186 -6.2417 -1.8919 -0.4440
  184POPC  C31621209   5.583   6.538   4.210  0.2570  0.1853 -0.0218
  184POPC  H16X21210   5.522   6.502   4.125  1.4640  1.2791 -1.4016
  184POPC  H16Y21211   5.596   6.456   4.284 -0.4213 -1.8997 -2.0858
  184POPC  H16Z21212   5.681   6.569   4.168 -0.5675  2.8180 -0.1673
  185POPC     N21213   4.521   3.802   2.035 -0.1785 -0.4130  0.0248
  185POPC   C1221214   4.388   3.766   2.103  0.3136  0.2074 -0.4802
  185POPC  H12A21215   4.325   3.705   2.041  1.0420 -1.0800  0.0042
  185POPC  H12B21216   4.323   3.852   2.106  0.4886  0.3201  0.6835
  185POPC   C1321217   4.491   3.846   1.889  0.8046 -0.0749 -0.2434
  185POPC  H13A21218   4.427   3.933   1.894 -2.3322 -2.0850 -1.7278
  185POPC  H13B21219   4.580   3.872   1.835  1.6677 -1.1068  0.6371
  185POPC  H13C21220   4.436   3.773   1.832 -1.9335  1.9606 -0.4234
  185POPC   C1421221   4.582   3.909   2.116  1.2235  0.0845  0.8286
  185POPC  H14A21222   4.683   3.931   2.085  1.5231 -0.1658  1.6181
  185POPC  H14B21223   4.518   3.996   2.124  2.4365  1.0476  0.3088
  185POPC  H14C21224   4.593   3.867   2.215 -0.9622  0.2361  1.1837
  185POPC   C1521225   4.617   3.683   2.038  0.1514  0.4377  1.1674
  185POPC  H15A21226   4.587   3.613   1.962 -2.0352  1.6156  0.8525
  185POPC  H15B21227   4.629   3.646   2.139 -0.9847  2.5456  2.1384
  185POPC  H15C21228   4.713   3.722   2.008  0.1466 -0.9277 -0.7744
  185POPC   C1121229   4.394   3.697   2.243  0.5863 -0.0365  0.1414
  185POPC  H11A21230   4.290   3.703   2.283 -0.5133 -4.7779 -1.3743
  185POPC  H11B21231   4.457   3.737   2.325 -1.0010 -1.7021  2.2856
  185POPC     P21232   4.339   3.450   2.178  0.3047 -0.2619  0.2057
  185POPC   O1321233   4.389   3.403   2.046 -0.0893 -0.3230 -0.1045
  185POPC   O1421234   4.202   3.494   2.185  0.2211 -0.3603  0.2836
  185POPC   O1221235   4.436   3.560   2.237 -0.3508 -0.3016 -0.0770
  185POPC   O1121236   4.351   3.329   2.285  0.7388  0.5917  0.1634
  185POPC    C121237   4.472   3.312   2.362  1.1064 -0.3910  1.3741
  185POPC    HA21238   4.475   3.397   2.434 -0.3892  0.0133  1.0034
  185POPC    HB21239   4.559   3.322   2.293 -2.8654  0.2482 -4.2479
  185POPC    C221240   4.473   3.183   2.438  0.6376  0.4917  0.1989
  185POPC    HS21241   4.471   3.102   2.362 -0.0037  0.8413 -0.1671
  185POPC   O2121242   4.365   3.188   2.539 -0.0305  0.2646 -0.3783
  185POPC   C2121243   4.316   3.080   2.580 -0.1994  0.6877  0.1032
  185POPC   O2221244   4.337   2.970   2.528  0.3683  0.0356 -0.0989
  185POPC   C2221245   4.216   3.111   2.689 -0.1945  0.4854 -0.1133
  185POPC   H2R21246   4.135   3.143   2.621 -0.6172 -0.2342  0.0364
  185POPC   H2S21247   4.252   3.191   2.757  2.1492  1.1458 -2.0067
  185POPC    C321248   4.614   3.157   2.510  0.2482  0.4650 -0.2995
  185POPC    HX21249   4.688   3.137   2.430  0.7775  0.2804  0.2310
  185POPC    HY21250   4.593   3.063   2.565 -0.8259 -0.3408 -1.9799
  185POPC   O3121251   4.652   3.264   2.594  0.0726  0.6036  0.5790
  185POPC   C3121252   4.729   3.227   2.692  0.7219  0.5014  0.7221
  185POPC   O3221253   4.777   3.118   2.711 -0.4483 -0.0456 -0.3768
  185POPC   C3221254   4.745   3.341   2.785  0.0131 -0.1753  0.7535
  185POPC   H2X21255   4.749   3.433   2.722 -1.2095 -1.3468 -1.1614
  185POPC   H2Y21256   4.844   3.327   2.833 -0.5025  0.1584  1.9300
  185POPC   C2321257   4.183   2.979   2.765 -0.5646  0.7915 -0.2224
  185POPC   H3R21258   4.136   2.899   2.704  1.7935 -0.8669 -0.0163
  185POPC   H3S21259   4.105   3.009   2.839  1.7810  0.1292  2.7259
  185POPC   C2421260   4.298   2.923   2.851  0.1184 -0.7467  0.3924
  185POPC   H4R21261   4.352   3.012   2.892  0.3961 -1.0298  0.6538
  185POPC   H4S21262   4.357   2.860   2.781  1.5735 -0.0248  0.9135
  185POPC   C2521263   4.251   2.838   2.968  0.2604 -0.8193 -0.1941
  185POPC   H5R21264   4.203   2.743   2.937  0.3610 -0.5797 -1.1048
  185POPC   H5S21265   4.175   2.888   3.031 -0.5274 -0.6127 -1.2940
  185POPC   C2621266   4.366   2.818   3.064  0.3523  0.9668 -0.1743
  185POPC   H6R21267   4.422   2.912   3.083  3.6304 -0.6970 -0.7818
  185POPC   H6S21268   4.446   2.753   3.020 -1.9558 -1.8319 -0.5435
  185POPC   C2721269   4.326   2.735   3.193 -0.9260 -0.6217  0.4931
  185POPC   H7R21270   4.297   2.636   3.151 -0.5951  0.1390 -1.5999
  185POPC   H7S21271   4.244   2.780   3.253 -1.6481 -2.4345  0.9501
  185POPC   C2821272   4.448   2.706   3.293 -0.5894  0.1533  1.0780
  185POPC   H8R21273   4.537   2.701   3.227  0.1155 -3.2379  2.0622
  185POPC   H8S21274   4.439   2.600   3.325 -1.7289 -1.0745 -2.7515
  185POPC   C2921275   4.464   2.804   3.402  0.4731 -0.6994 -0.7587
  185POPC   H9121276   4.435   2.907   3.377 -0.8842 -0.3857  1.8920
  185POPC  C21021277   4.486   2.776   3.534 -0.4114 -0.1190 -0.1094
  185POPC  H10121278   4.493   2.849   3.616  0.2947 -1.1507  0.7865
  185POPC  C21121279   4.510   2.635   3.582  0.5261 -1.0472  1.0874
  185POPC  H11R21280   4.440   2.559   3.542 -0.3575  0.3377 -0.0703
  185POPC  H11S21281   4.503   2.633   3.693 -0.9244  2.9978  1.2019
  185POPC  C21221282   4.646   2.572   3.556  0.7920  0.0791 -0.0940
  185POPC  H12R21283   4.724   2.651   3.550  1.0521 -0.0975  0.8452
  185POPC  H12S21284   4.637   2.519   3.459  1.8577 -3.9958  1.8261
  185POPC  C21321285   4.677   2.467   3.670  0.3966  0.1807  0.3756
  185POPC  H13R21286   4.589   2.400   3.675  1.8643 -1.8908  0.1226
  185POPC  H13S21287   4.691   2.520   3.766 -3.7481  0.3930  1.0174
  185POPC  C21421288   4.788   2.373   3.622 -0.2989  0.2059 -0.1723
  185POPC  H14R21289   4.777   2.354   3.513  2.3945 -2.2876 -0.1158
  185POPC  H14S21290   4.781   2.278   3.679  0.1166 -0.0995 -0.6216
  185POPC  C21521291   4.930   2.435   3.637  0.1602  0.0474 -0.1662
  185POPC  H15R21292   4.931   2.529   3.578  0.6325 -1.1156 -2.0675
  185POPC  H15S21293   5.000   2.364   3.589 -1.0662 -1.3154 -0.0339
  185POPC  C21621294   4.979   2.457   3.773 -0.2900  0.7879  0.1275
  185POPC  H16R21295   4.891   2.495   3.829 -1.8629  0.1338 -1.7917
  185POPC  H16S21296   5.056   2.537   3.779 -0.1164  0.5595  1.3462
  185POPC  C21721297   5.048   2.332   3.838 -0.4699 -0.3071 -0.1001
  185POPC  H17R21298   5.134   2.302   3.774 -0.2223  0.3913 -0.1137
  185POPC  H17S21299   4.974   2.250   3.837 -0.1472 -0.5979 -0.9997
  185POPC  C21821300   5.088   2.354   3.978  0.2908 -0.1066  0.1237
  185POPC  H18R21301   5.161   2.435   3.998 -2.2024  2.3072 -0.0617
  185POPC  H18S21302   5.132   2.259   4.016 -1.0065 -1.2997 -1.2410
  185POPC  H18T21303   4.997   2.377   4.038 -0.4905 -1.4322 -0.4905
  185POPC   C3321304   4.649   3.341   2.899 -0.4581  0.7598  0.0722
  185POPC   H3X21305   4.543   3.345   2.867 -0.4905  2.9538  0.2859
  185POPC   H3Y21306   4.666   3.427   2.968 -3.6822 -0.8328  3.1754
  185POPC   C3421307   4.664   3.213   2.987 -0.2884  0.8060  0.5264
  185POPC   H4X21308   4.768   3.192   3.020  0.0024 -2.7951 -2.1179
  185POPC   H4Y21309   4.638   3.125   2.924 -0.2242  1.3519 -0.2771
  185POPC   C3521310   4.572   3.199   3.118 -0.3485 -0.2290  0.6211
  185POPC   H5X21311   4.617   3.260   3.199 -0.5517  2.4719 -1.1920
  185POPC   H5Y21312   4.573   3.096   3.160  1.8624  0.0256  1.3267
  185POPC   C3621313   4.428   3.241   3.105  0.7520  0.0835 -0.0318
  185POPC   H6X21314   4.380   3.192   3.018  1.0345  1.0988 -0.7731
  185POPC   H6Y21315   4.424   3.348   3.073  0.9971 -0.0940 -0.6722
  185POPC   C3721316   4.340   3.217   3.234 -0.4647 -0.4618  0.3329
  185POPC   H7X21317   4.387   3.273   3.318 -0.4490  0.1009 -0.0441
  185POPC   H7Y21318   4.343   3.108   3.255  0.6702 -0.5851 -0.3735
  185POPC   C3821319   4.203   3.279   3.215  0.3385  0.3030  0.2608
  185POPC   H8X21320   4.144   3.223   3.139  0.7540  1.7188 -1.1638
  185POPC   H8Y21321   4.215   3.383   3.177 -0.9905  1.5805  3.0370
  185POPC   C3921322   4.132   3.299   3.350  0.2213 -0.8551  0.3491
  185POPC   H9X21323   4.038   3.355   3.334  0.3926  0.0066  2.0919
  185POPC   H9Y21324   4.190   3.371   3.412 -1.3766  0.9593 -0.1737
  185POPC  C31021325   4.117   3.176   3.437  0.3225 -0.5658  0.3594
  185POPC  H10X21326   4.102   3.205   3.543  2.7521  2.2507  0.0498
  185POPC  H10Y21327   4.211   3.118   3.435  0.6628 -0.0319  0.5920
  185POPC  C31121328   4.005   3.086   3.390 -0.0524  0.1276 -0.1976
  185POPC  H11X21329   4.030   3.054   3.286 -1.2429  0.9501 -0.7656
  185POPC  H11Y21330   3.911   3.144   3.374 -0.8039 -0.6190  1.2968
  185POPC  C31221331   3.965   2.954   3.477 -0.7890  0.1186 -0.2456
  185POPC  H12X21332   3.863   2.921   3.449 -0.2072 -1.8244 -0.2617
  185POPC  H12Y21333   3.965   2.992   3.581 -1.9301  0.6475 -0.4248
  185POPC  C31321334   4.068   2.841   3.456 -0.9507  0.3504 -0.5177
  185POPC  H13X21335   4.170   2.876   3.482 -0.0182 -2.1086 -0.6190
  185POPC  H13Y21336   4.079   2.819   3.348  1.1640 -1.6630  0.0216
  185POPC  C31421337   4.029   2.705   3.521 -0.0806  0.2592  0.3827
  185POPC  H14X21338   3.921   2.700   3.498 -0.3968  2.2630  1.1919
  185POPC  H14Y21339   4.055   2.698   3.629  2.2676  1.6475 -0.0172
  185POPC  C31521340   4.099   2.569   3.464  0.1931 -0.2321  0.1377
  185POPC  H15X21341   4.209   2.584   3.465  0.4446 -1.8127 -0.4926
  185POPC  H15Y21342   4.066   2.573   3.358 -1.0727 -2.7722  0.3552
  185POPC  C31621343   4.071   2.445   3.542 -0.1373  0.0976 -0.4718
  185POPC  H16X21344   4.113   2.352   3.498 -0.0679  0.2010 -0.6254
  185POPC  H16Y21345   3.961   2.433   3.552 -0.0741 -0.8345 -0.7739
  185POPC  H16Z21346   4.114   2.449   3.644 -1.4801 -1.3271  0.2003
  186POPC     N21347   4.754   4.990   1.474  0.4368 -0.3387 -0.1687
  186POPC   C1221348   4.812   5.048   1.603  0.4179 -0.2337  0.1544
  186POPC  H12A21349   4.729   5.087   1.661  1.0700 -1.0482  1.7078
  186POPC  H12B21350   4.883   5.121   1.569  1.8407 -1.3263  0.6591
  186POPC   C1321351   4.665   5.086   1.399  0.4811 -0.0069 -0.2027
  186POPC  H13A21352   4.719   5.167   1.352 -0.8474  0.3121 -1.2385
  186POPC  H13B21353   4.601   5.028   1.334  1.5082 -1.2477 -0.1368
  186POPC  H13C21354   4.597   5.141   1.462  0.4718 -0.6655  0.3771
  186POPC   C1421355   4.859   4.955   1.376  0.0260  0.0326  0.4433
  186POPC  H14A21356   4.924   4.880   1.417  0.4881  0.8473  1.2345
  186POPC  H14B21357   4.817   4.913   1.285  1.1498 -1.8457  0.7413
  186POPC  H14C21358   4.925   5.035   1.345  1.5744 -1.3967 -0.1114
  186POPC   C1521359   4.675   4.866   1.503  0.3391 -0.2572 -0.0407
  186POPC  H15A21360   4.660   4.807   1.413  1.5548 -0.5453 -0.0793
  186POPC  H15B21361   4.581   4.899   1.543  0.1616 -0.1897 -0.5005
  186POPC  H15C21362   4.718   4.806   1.581  1.0056  2.1527  1.5363
  186POPC   C1121363   4.879   4.950   1.705 -0.4017 -0.0110 -0.0710
  186POPC  H11A21364   4.944   5.014   1.769  1.3115 -0.1278 -1.6163
  186POPC  H11B21365   4.942   4.882   1.644  0.7454  1.9771 -1.2204
  186POPC     P21366   4.808   4.771   1.880 -0.3698 -0.2596 -0.3154
  186POPC   O1321367   4.869   4.653   1.814 -0.0519 -0.2047 -0.2991
  186POPC   O1421368   4.695   4.745   1.968  0.0228  0.5895 -0.2215
  186POPC   O1221369   4.775   4.884   1.778  0.4575 -0.5543  0.6992
  186POPC   O1121370   4.909   4.847   1.977  0.0934 -0.6656  0.3966
  186POPC    C121371   5.050   4.815   1.967 -0.4843 -0.0281  0.0955
  186POPC    HA21372   5.109   4.897   2.013 -2.4786  2.8792 -2.0921
  186POPC    HB21373   5.095   4.796   1.867  1.1323 -1.1235  0.9935
  186POPC    C221374   5.092   4.686   2.051  0.2223  0.2745  0.0089
  186POPC    HS21375   5.068   4.598   1.988  0.1309  1.4066 -1.5894
  186POPC   O2121376   5.026   4.688   2.183 -0.3536 -0.4730 -0.4769
  186POPC   C2121377   5.024   4.583   2.255 -0.6201 -0.0075  0.1890
  186POPC   O2221378   5.054   4.470   2.213  0.0814 -0.5715 -0.5481
  186POPC   C2221379   4.995   4.612   2.400 -0.0944  0.4339  0.0110
  186POPC   H2R21380   4.892   4.641   2.430 -0.4663 -1.1752  0.4013
  186POPC   H2S21381   5.069   4.680   2.447  0.5899 -1.4464  1.8152
  186POPC    C321382   5.248   4.679   2.084  0.4974 -0.0462  0.2701
  186POPC    HX21383   5.311   4.691   1.993 -0.5395 -1.2026 -0.6229
  186POPC    HY21384   5.270   4.577   2.122 -2.3229 -0.0209  2.2654
  186POPC   O3121385   5.273   4.764   2.199 -0.4758 -0.8779 -0.1348
  186POPC   C3121386   5.327   4.875   2.171 -0.0571  0.7384  0.6075
  186POPC   O3221387   5.376   4.906   2.063  0.7350  0.9629 -0.3317
  186POPC   C3221388   5.320   4.966   2.295 -0.3996 -0.0652  0.2115
  186POPC   H2X21389   5.270   5.062   2.268  0.8140  1.4211  2.9387
  186POPC   H2Y21390   5.427   4.989   2.315 -0.4058 -0.2802  0.4900
  186POPC   C2321391   5.027   4.479   2.481  0.5036 -0.2384  1.0648
  186POPC   H3R21392   5.129   4.446   2.453  0.6543 -1.5956  3.0118
  186POPC   H3S21393   4.956   4.395   2.469  1.2233 -0.8648  1.0947
  186POPC   C2421394   5.028   4.520   2.627  0.1903 -0.4040  0.5587
  186POPC   H4R21395   5.099   4.604   2.646 -0.2619  0.1088  0.0170
  186POPC   H4S21396   5.060   4.431   2.686  1.1845 -0.9156 -0.6907
  186POPC   C2521397   4.893   4.564   2.678 -0.5912 -0.0928  0.2582
  186POPC   H5R21398   4.823   4.484   2.644  0.3735 -0.7329 -0.2511
  186POPC   H5S21399   4.867   4.662   2.632 -0.4263  0.1479  0.6701
  186POPC   C2621400   4.876   4.576   2.831  0.2447  0.1194  0.1139
  186POPC   H6R21401   4.949   4.655   2.861  2.2769 -1.2603 -0.9744
  186POPC   H6S21402   4.911   4.482   2.878  1.1558 -1.0275 -2.6564
  186POPC   C2721403   4.740   4.617   2.881  0.3202 -0.1140 -0.0125
  186POPC   H7R21404   4.710   4.683   2.797 -0.8782 -1.5723 -0.7763
  186POPC   H7S21405   4.752   4.677   2.974 -0.9216 -2.1504  1.5484
  186POPC   C2821406   4.642   4.505   2.911  0.5442  0.4897 -0.5912
  186POPC   H8R21407   4.559   4.543   2.974  1.7306 -0.3825  1.6124
  186POPC   H8S21408   4.693   4.430   2.975  1.6091  2.4609  1.0185
  186POPC   C2921409   4.578   4.454   2.780 -0.1522 -0.4564  0.2845
  186POPC   H9121410   4.583   4.528   2.699  5.4776 -1.5407 -0.7958
  186POPC  C21021411   4.529   4.328   2.755  0.0696  0.4040 -0.6753
  186POPC  H10121412   4.483   4.305   2.658 -3.6569  3.8275  0.0311
  186POPC  C21121413   4.537   4.222   2.859  0.5919 -0.2833 -0.1249
  186POPC  H11R21414   4.550   4.264   2.961 -2.5330  0.7710 -0.0703
  186POPC  H11S21415   4.628   4.160   2.841  3.5769  3.5580  0.2372
  186POPC  C21221416   4.411   4.135   2.867  0.1597  0.5255  0.1466
  186POPC  H12R21417   4.322   4.192   2.900 -0.1190  0.2523 -0.1208
  186POPC  H12S21418   4.420   4.063   2.952  1.5428  1.2450  0.6341
  186POPC  C21321419   4.385   4.066   2.731  0.5879  0.2522  0.4212
  186POPC  H13R21420   4.477   4.050   2.670  0.6278  1.6896  0.0776
  186POPC  H13S21421   4.315   4.126   2.669  3.1066  0.8631 -2.0265
  186POPC  C21421422   4.328   3.928   2.759 -0.3290  0.3125  1.3437
  186POPC  H14R21423   4.239   3.947   2.823 -0.1138  1.6690  1.2721
  186POPC  H14S21424   4.405   3.871   2.815 -0.6831 -1.0618  0.4866
  186POPC  C21521425   4.303   3.836   2.640  0.0259  0.0739  0.0179
  186POPC  H15R21426   4.395   3.833   2.577  0.3941  1.9075  0.4046
  186POPC  H15S21427   4.224   3.881   2.577 -0.4144 -0.9377 -0.1829
  186POPC  C21621428   4.277   3.692   2.692  0.5389 -0.2317  0.3469
  186POPC  H16R21429   4.189   3.699   2.760  0.9004 -0.2076  0.8102
  186POPC  H16S21430   4.365   3.653   2.747 -0.0593  0.1389  1.5940
  186POPC  C21721431   4.235   3.592   2.582 -0.2284  0.1942 -0.4252
  186POPC  H17R21432   4.321   3.555   2.523 -0.3540 -1.3231  0.3076
  186POPC  H17S21433   4.157   3.634   2.514 -0.0423  1.7709  0.2750
  186POPC  C21821434   4.166   3.458   2.628 -0.9555  0.6449  0.2323
  186POPC  H18R21435   4.057   3.470   2.646 -0.7838  2.2917  0.3333
  186POPC  H18S21436   4.178   3.380   2.550 -2.5170 -1.1530  1.7091
  186POPC  H18T21437   4.221   3.431   2.721  1.7563  0.5371 -1.2884
  186POPC   C3321438   5.254   4.909   2.432 -0.2804  0.1977  0.6355
  186POPC   H3X21439   5.296   4.810   2.458  0.2565  0.1555 -0.3311
  186POPC   H3Y21440   5.145   4.902   2.409 -0.2193  0.2133  0.3302
  186POPC   C3421441   5.292   4.989   2.550  0.5227 -0.2548  0.3471
  186POPC   H4X21442   5.217   5.071   2.559  2.2938  1.6662 -1.1773
  186POPC   H4Y21443   5.396   5.028   2.558  0.7730 -1.1849  2.1724
  186POPC   C3521444   5.270   4.917   2.680  0.1123 -0.5233  0.2527
  186POPC   H5X21445   5.369   4.872   2.705  0.4463 -0.3653 -0.7059
  186POPC   H5Y21446   5.190   4.841   2.675  0.2083 -0.5912 -0.3699
  186POPC   C3621447   5.235   4.999   2.806  0.0958 -0.5267  0.4482
  186POPC   H6X21448   5.150   5.064   2.777  1.1224  0.1606 -1.1635
  186POPC   H6Y21449   5.320   5.071   2.809 -0.4377  0.0823  1.4571
  186POPC   C3721450   5.194   4.930   2.933  0.6590 -0.2472  0.0453
  186POPC   H7X21451   5.253   4.838   2.953 -0.1097 -0.4756  1.3842
  186POPC   H7Y21452   5.087   4.906   2.915  0.0431  1.0380  1.7193
  186POPC   C3821453   5.216   5.017   3.054 -0.7512 -0.9373 -0.0976
  186POPC   H8X21454   5.178   5.119   3.027  0.8313 -0.1394  0.5766
  186POPC   H8Y21455   5.327   5.022   3.057 -0.7886 -0.4171  1.5421
  186POPC   C3921456   5.162   4.947   3.178 -0.1621 -0.2421 -0.0720
  186POPC   H9X21457   5.211   4.848   3.183  1.7074  0.5447 -1.8188
  186POPC   H9Y21458   5.054   4.928   3.161  0.2048 -1.3199 -1.3713
  186POPC  C31021459   5.173   5.029   3.302  0.5673 -0.4584  0.2104
  186POPC  H10X21460   5.119   5.125   3.289  2.0535  0.2311 -1.4616
  186POPC  H10Y21461   5.281   5.056   3.309  0.4564 -0.3600  1.7363
  186POPC  C31121462   5.112   4.959   3.421  0.5609 -0.2320  0.3421
  186POPC  H11X21463   5.157   4.857   3.414  0.8731 -0.0555 -0.3122
  186POPC  H11Y21464   5.002   4.945   3.414  0.0901  2.2243  1.7779
  186POPC  C31221465   5.147   5.020   3.554  0.0540 -0.6447  0.1674
  186POPC  H12X21466   5.142   5.130   3.546 -0.2327 -0.5909  0.9820
  186POPC  H12Y21467   5.246   4.989   3.595 -0.9259 -5.4269 -0.4586
  186POPC  C31321468   5.034   4.999   3.656  0.4547 -0.3099 -0.5146
  186POPC  H13X21469   4.934   5.015   3.611  1.3903  2.8303 -1.7602
  186POPC  H13Y21470   5.045   5.072   3.739 -0.5331 -0.3842 -0.3030
  186POPC  C31421471   5.044   4.857   3.713  0.0312 -0.0790 -0.1422
  186POPC  H14X21472   5.144   4.840   3.758  0.5449 -1.5005 -1.7413
  186POPC  H14Y21473   5.039   4.792   3.623 -2.9499  1.1822 -1.0182
  186POPC  C31521474   4.926   4.806   3.801  0.6085  0.4828  0.3319
  186POPC  H15X21475   4.943   4.697   3.813  2.8159  0.8890  1.2578
  186POPC  H15Y21476   4.828   4.818   3.750  0.2197 -1.2901  0.6106
  186POPC  C31621477   4.917   4.872   3.940 -0.7431 -0.2535 -0.0838
  186POPC  H16X21478   4.834   4.832   4.002 -2.2252  1.5919 -0.7676
  186POPC  H16Y21479   4.887   4.977   3.919 -0.0718  0.1850  0.9996
  186POPC  H16Z21480   5.011   4.875   3.999 -2.1285 -0.4875  2.2861
  187POPC     N21481   3.678   1.206   1.723 -0.4382 -0.4933  0.6021
  187POPC   C1221482   3.746   1.273   1.834  0.1053 -0.7236 -0.3938
  187POPC  H12A21483   3.836   1.221   1.862  0.8060  1.7626  2.4347
  187POPC  H12B21484   3.687   1.268   1.924  0.4324  1.4617 -0.0200
  187POPC   C1321485   3.561   1.280   1.658  0.0633  0.8696 -0.8383
  187POPC  H13A21486   3.584   1.382   1.631  0.9423  0.4785 -1.5990
  187POPC  H13B21487   3.520   1.229   1.572 -0.9806  0.5272 -0.1729
  187POPC  H13C21488   3.477   1.288   1.727  1.7345  1.1245  1.2711
  187POPC   C1421489   3.776   1.191   1.601 -0.3486  0.3198 -0.5795
  187POPC  H14A21490   3.814   1.291   1.583 -1.3362  0.9821  0.8131
  187POPC  H14B21491   3.854   1.124   1.634 -0.9211 -0.1404 -0.1385
  187POPC  H14C21492   3.727   1.156   1.512  0.5629 -1.3530 -0.4591
  187POPC   C1521493   3.644   1.068   1.759 -0.3578 -0.2367  0.5132
  187POPC  H15A21494   3.582   1.071   1.848 -0.8679 -0.7789  0.1828
  187POPC  H15B21495   3.730   1.009   1.785 -0.8368 -1.1372  0.1160
  187POPC  H15C21496   3.591   1.014   1.682 -0.7681  0.6739  0.1408
  187POPC   C1121497   3.782   1.423   1.806  0.5179  0.1284 -0.1718
  187POPC  H11A21498   3.825   1.449   1.905 -0.9868 -0.9208  0.8135
  187POPC  H11B21499   3.691   1.482   1.782  1.5083  0.6526 -3.0169
  187POPC     P21500   4.032   1.408   1.727  0.0158  0.0237 -0.2917
  187POPC   O1321501   4.108   1.495   1.631  0.1034  0.0616  0.5944
  187POPC   O1421502   4.062   1.264   1.736  0.1767  0.6526 -0.1439
  187POPC   O1221503   3.874   1.444   1.701 -0.3208 -0.3436  0.6635
  187POPC   O1121504   4.064   1.469   1.867  0.4883  0.3418  0.0444
  187POPC    C121505   4.068   1.610   1.887  0.1849  0.6707  0.6475
  187POPC    HA21506   4.008   1.631   1.978 -0.1293  0.7049  0.4323
  187POPC    HB21507   4.029   1.671   1.803 -1.1538 -0.4201  0.4554
  187POPC    C221508   4.210   1.658   1.913 -0.1089 -1.1987 -0.5400
  187POPC    HS21509   4.271   1.623   1.827 -0.8848 -0.3517 -1.4391
  187POPC   O2121510   4.264   1.605   2.039  0.2483 -0.6233  0.1542
  187POPC   C2121511   4.396   1.603   2.044 -0.1957  0.3480 -1.1210
  187POPC   O2221512   4.470   1.625   1.948 -0.1036 -0.7115 -0.3196
  187POPC   C2221513   4.442   1.564   2.188  0.4821  0.2424  0.3776
  187POPC   H2R21514   4.413   1.458   2.202 -1.0614 -0.0697 -3.8340
  187POPC   H2S21515   4.394   1.641   2.253  0.3044  1.6768 -1.3597
  187POPC    C321516   4.221   1.817   1.922  0.4719 -0.2443  0.2810
  187POPC    HX21517   4.183   1.860   1.826 -0.7474 -0.1214  0.8050
  187POPC    HY21518   4.329   1.845   1.922  0.0951  1.4151 -1.3867
  187POPC   O3121519   4.165   1.872   2.040 -0.0374 -0.1184 -0.2158
  187POPC   C3121520   4.047   1.924   2.032  0.5611 -0.7017 -0.3066
  187POPC   O3221521   3.970   1.927   1.936  0.3941  0.5698  0.2266
  187POPC   C3221522   4.005   1.985   2.164 -0.4077  0.1192 -0.2084
  187POPC   H2X21523   4.086   1.941   2.226  1.6048  0.6454 -2.3224
  187POPC   H2Y21524   3.898   1.965   2.184  0.1079 -1.8574  0.8032
  187POPC   C2321525   4.595   1.601   2.195  0.4729  0.1160 -0.2178
  187POPC   H3R21526   4.601   1.711   2.186  3.0678 -0.0159 -0.8029
  187POPC   H3S21527   4.642   1.551   2.108 -0.6992  0.3282 -0.9862
  187POPC   C2421528   4.656   1.541   2.328 -0.0139 -0.0296 -0.4643
  187POPC   H4R21529   4.766   1.525   2.316  0.1533  0.3329  0.5474
  187POPC   H4S21530   4.631   1.433   2.334 -2.1690  0.4589 -0.0271
  187POPC   C2521531   4.617   1.629   2.448 -0.3088  0.5119 -0.4060
  187POPC   H5R21532   4.507   1.614   2.460 -0.2957  1.5668  1.3258
  187POPC   H5S21533   4.633   1.732   2.411 -0.0254 -0.1410 -2.2490
  187POPC   C2621534   4.691   1.595   2.582 -0.5444 -0.0443  0.4661
  187POPC   H6R21535   4.662   1.677   2.651  0.2925  0.6078  0.0651
  187POPC   H6S21536   4.802   1.587   2.578 -0.4175  1.5165  0.5165
  187POPC   C2721537   4.629   1.469   2.639  0.0487  0.0588  0.0200
  187POPC   H7R21538   4.615   1.393   2.559 -0.2742  0.4677 -0.3112
  187POPC   H7S21539   4.528   1.494   2.678 -0.1496 -0.3482 -0.2222
  187POPC   C2821540   4.704   1.389   2.748  0.0120  0.3774 -0.5288
  187POPC   H8R21541   4.809   1.374   2.714  0.6050 -2.7731  2.1461
  187POPC   H8S21542   4.663   1.287   2.764  1.1488  0.1675  1.2723
  187POPC   C2921543   4.710   1.465   2.877 -0.5866 -0.1154 -0.3326
  187POPC   H9121544   4.737   1.571   2.875 -1.4441  0.1117 -0.1297
  187POPC  C21021545   4.687   1.417   3.000 -0.0712 -0.6292  0.6733
  187POPC  H10121546   4.676   1.491   3.080 -0.3648  0.7100 -0.5523
  187POPC  C21121547   4.648   1.276   3.030  0.5587  0.6272  0.4007
  187POPC  H11R21548   4.705   1.242   3.119 -0.3720 -0.9880  0.4161
  187POPC  H11S21549   4.678   1.216   2.941 -0.5365  0.3953  0.1784
  187POPC  C21221550   4.498   1.274   3.059 -1.0014 -0.3762 -0.7180
  187POPC  H12R21551   4.438   1.294   2.968 -3.8256  1.3901  1.3739
  187POPC  H12S21552   4.464   1.360   3.120 -0.0277  0.0410 -0.7358
  187POPC  C21321553   4.468   1.139   3.124  0.5788 -0.3737  0.2728
  187POPC  H13R21554   4.533   1.060   3.081  0.4952  0.7463 -2.0666
  187POPC  H13S21555   4.365   1.115   3.091  0.0304  3.3734 -1.2722
  187POPC  C21421556   4.482   1.139   3.280 -0.4140 -0.4932 -0.5481
  187POPC  H14R21557   4.401   1.205   3.319  1.3688 -1.1188  5.2842
  187POPC  H14S21558   4.568   1.198   3.318 -2.1635  1.9409 -0.0688
  187POPC  C21521559   4.456   1.002   3.352 -0.7904  0.1031 -0.3091
  187POPC  H15R21560   4.524   0.919   3.324 -1.0037 -0.5309  1.0111
  187POPC  H15S21561   4.356   0.963   3.321  0.1271 -1.3333 -1.6032
  187POPC  C21621562   4.469   1.021   3.501 -0.1474  0.1870 -0.7602
  187POPC  H16R21563   4.391   1.090   3.540  0.0351  0.2049 -0.4214
  187POPC  H16S21564   4.569   1.066   3.521  0.1300 -0.9204  0.4766
  187POPC  C21721565   4.460   0.887   3.584 -0.0264  0.1675  0.3536
  187POPC  H17R21566   4.514   0.906   3.680  0.9861 -0.3908 -0.0913
  187POPC  H17S21567   4.521   0.812   3.530  1.0200 -0.0877  1.8334
  187POPC  C21821568   4.316   0.837   3.614  0.4054 -0.0470  0.0980
  187POPC  H18R21569   4.306   0.750   3.682 -0.9841 -1.6122 -1.9873
  187POPC  H18S21570   4.280   0.819   3.511  2.8612  1.0972 -1.0412
  187POPC  H18T21571   4.255   0.922   3.652 -4.5300 -2.6877 -1.0974
  187POPC   C3321572   4.017   2.134   2.174 -0.6214  0.0692 -0.3749
  187POPC   H3X21573   3.950   2.183   2.100  0.2453  2.3484  0.2640
  187POPC   H3Y21574   4.124   2.155   2.148 -0.8635  1.3202 -0.4073
  187POPC   C3421575   3.990   2.179   2.317 -0.5619 -0.3682  0.6012
  187POPC   H4X21576   4.041   2.106   2.383 -4.0293 -2.4128  1.2867
  187POPC   H4Y21577   3.884   2.183   2.349 -0.6747 -0.2795  0.2173
  187POPC   C3521578   4.065   2.312   2.341 -0.3984 -0.2871 -0.0857
  187POPC   H5X21579   4.030   2.401   2.285 -0.7388  0.1544  0.7986
  187POPC   H5Y21580   4.166   2.292   2.299  0.5245  1.6479  1.0155
  187POPC   C3621581   4.106   2.355   2.488 -0.6549  0.0847 -0.8402
  187POPC   H6X21582   4.194   2.423   2.485  1.2515 -2.2768 -1.6517
  187POPC   H6Y21583   4.132   2.262   2.543 -1.5891  0.3137  0.0303
  187POPC   C3721584   3.990   2.416   2.565  0.2385  0.5966 -0.0683
  187POPC   H7X21585   3.918   2.332   2.579  1.1215  0.1783  2.3913
  187POPC   H7Y21586   3.956   2.492   2.491  1.7856  1.6271  0.2496
  187POPC   C3821587   4.031   2.484   2.695 -0.1055 -0.9717  0.3247
  187POPC   H8X21588   4.077   2.584   2.678 -1.5664  0.1364  2.4230
  187POPC   H8Y21589   4.108   2.426   2.750 -0.0276  1.0147  2.4958
  187POPC   C3921590   3.907   2.492   2.789 -0.6882  0.0537 -0.5311
  187POPC   H9X21591   3.860   2.391   2.794  0.7092 -0.7905 -2.9086
  187POPC   H9Y21592   3.838   2.567   2.746 -0.8347  1.4323  1.9195
  187POPC  C31021593   3.949   2.528   2.930  0.2207  0.4195 -1.3876
  187POPC  H10X21594   4.012   2.619   2.935  0.8156  0.0067 -1.2861
  187POPC  H10Y21595   4.020   2.454   2.972  0.7811  2.1493  0.8986
  187POPC  C31121596   3.826   2.560   3.016  0.1430  0.0420  0.8081
  187POPC  H11X21597   3.775   2.463   3.030  2.9047 -1.2966  2.2553
  187POPC  H11Y21598   3.757   2.620   2.953 -0.6031 -1.5776  0.0228
  187POPC  C31221599   3.865   2.626   3.149 -0.4235  0.1123 -0.5722
  187POPC  H12X21600   3.928   2.714   3.126  0.0084 -0.6248 -2.3573
  187POPC  H12Y21601   3.936   2.558   3.201 -2.0227 -1.0663  0.1575
  187POPC  C31321602   3.741   2.660   3.235 -0.0010  0.5713  0.0604
  187POPC  H13X21603   3.671   2.712   3.165 -0.6969 -1.9827 -1.2699
  187POPC  H13Y21604   3.761   2.721   3.326 -1.3357  2.1997 -0.6738
  187POPC  C31421605   3.660   2.531   3.279  0.2155  0.3436  0.4383
  187POPC  H14X21606   3.730   2.457   3.323 -1.6112 -1.6185  0.2398
  187POPC  H14Y21607   3.626   2.482   3.185  2.1323  0.5833 -0.4233
  187POPC  C31521608   3.535   2.548   3.358  0.2698  0.0058 -0.0158
  187POPC  H15X21609   3.480   2.452   3.357  2.8639 -1.6997  3.1720
  187POPC  H15Y21610   3.479   2.631   3.309  0.3695  0.9885  1.4753
  187POPC  C31621611   3.555   2.587   3.508 -0.5937  0.4353  0.4644
  187POPC  H16X21612   3.569   2.695   3.526  2.0420  0.7956 -2.8271
  187POPC  H16Y21613   3.641   2.528   3.548 -0.0080  1.6660  1.0854
  187POPC  H16Z21614   3.468   2.543   3.561 -0.9181  1.1697  0.5561
  188POPC     N21615   6.385   2.719   1.657 -0.2705  0.6345  0.2079
  188POPC   C1221616   6.400   2.799   1.779 -1.2642  0.0206 -0.2554
  188POPC  H12A21617   6.356   2.897   1.771  0.5588  1.0652  1.5288
  188POPC  H12B21618   6.506   2.815   1.791 -1.4039  0.3558  0.6412
  188POPC   C1321619   6.244   2.680   1.636  0.6048  0.1261  0.6366
  188POPC  H13A21620   6.213   2.636   1.541 -0.2174 -2.3671  1.9585
  188POPC  H13B21621   6.217   2.599   1.703  0.3650 -1.2224 -0.9989
  188POPC  H13C21622   6.172   2.760   1.645  3.6913  3.6323 -2.5860
  188POPC   C1421623   6.427   2.810   1.537 -0.4858 -0.3552  0.0495
  188POPC  H14A21624   6.531   2.832   1.555 -0.6760 -0.3004  1.1934
  188POPC  H14B21625   6.424   2.744   1.452  2.1294 -1.1153  0.4607
  188POPC  H14C21626   6.368   2.899   1.520 -0.5316 -0.5363 -0.7993
  188POPC   C1521627   6.478   2.599   1.656  0.2321 -0.3368 -0.4964
  188POPC  H15A21628   6.464   2.542   1.565 -1.5846 -0.7636  0.0163
  188POPC  H15B21629   6.463   2.527   1.735  1.7519 -0.6246 -0.4352
  188POPC  H15C21630   6.582   2.631   1.652  0.6992 -1.8685 -2.7859
  188POPC   C1121631   6.353   2.745   1.915  0.3859  0.4630  0.0992
  188POPC  H11A21632   6.243   2.741   1.898  0.3493  0.8000  0.2530
  188POPC  H11B21633   6.371   2.827   1.988 -1.6180 -0.1203  1.3553
  188POPC     P21634   6.551   2.634   2.027 -0.1486 -0.1047 -0.2855
  188POPC   O1321635   6.636   2.746   1.985 -1.2020  0.2179  0.1063
  188POPC   O1421636   6.620   2.500   2.030 -0.2139 -0.0129 -0.6712
  188POPC   O1221637   6.422   2.618   1.936  0.2938  0.1355  0.1987
  188POPC   O1121638   6.507   2.669   2.172  0.1008 -0.3610  0.1875
  188POPC    C121639   6.388   2.606   2.228  0.2239 -0.1285 -0.1349
  188POPC    HA21640   6.406   2.558   2.327  1.4640  1.2066  0.3225
  188POPC    HB21641   6.341   2.523   2.171 -1.0463  1.0258 -0.8469
  188POPC    C221642   6.275   2.704   2.256 -0.3501 -0.7438  0.0244
  188POPC    HS21643   6.263   2.757   2.159  1.0669 -3.8311 -2.0023
  188POPC   O2121644   6.311   2.796   2.365 -0.7296  0.2207  0.0762
  188POPC   C2121645   6.267   2.923   2.340  0.2410  0.2677 -0.6608
  188POPC   O2221646   6.192   2.960   2.253  0.2608 -0.1606 -0.1456
  188POPC   C2221647   6.304   3.004   2.463 -0.0308  0.7565 -0.7971
  188POPC   H2R21648   6.415   3.005   2.460  0.3080 -3.9421  1.9564
  188POPC   H2S21649   6.278   2.940   2.550  2.6394 -0.0560 -0.5101
  188POPC    C321650   6.146   2.637   2.308 -0.1216 -0.2884 -0.1722
  188POPC    HX21651   6.123   2.568   2.224 -0.4546 -1.3835  0.7866
  188POPC    HY21652   6.065   2.712   2.325 -1.5758 -2.0985  1.3518
  188POPC   O3121653   6.173   2.568   2.430 -0.4091  0.0816  0.0860
  188POPC   C3121654   6.148   2.639   2.543 -0.3898 -0.7181 -0.3148
  188POPC   O3221655   6.081   2.744   2.547 -0.8129 -0.4108  0.0481
  188POPC   C3221656   6.206   2.568   2.665  0.0288 -0.2921  0.1493
  188POPC   H2X21657   6.317   2.580   2.661 -0.1626  1.8381  0.1066
  188POPC   H2Y21658   6.172   2.463   2.664 -0.7942 -0.0499  1.2441
  188POPC   C2321659   6.232   3.139   2.472 -0.5757 -0.5572  0.2385
  188POPC   H3R21660   6.123   3.127   2.495 -0.9072 -0.3727 -1.1364
  188POPC   H3S21661   6.224   3.192   2.374  1.1284  0.4818  0.6302
  188POPC   C2421662   6.302   3.228   2.576 -0.5200  0.4762  0.8157
  188POPC   H4R21663   6.255   3.328   2.567  0.1902  0.7232 -0.2776
  188POPC   H4S21664   6.411   3.234   2.557 -0.0631 -2.6169  1.8589
  188POPC   C2521665   6.287   3.182   2.719  0.2346  0.0903  0.4694
  188POPC   H5R21666   6.351   3.257   2.769 -2.2955  0.3006  3.7195
  188POPC   H5S21667   6.333   3.082   2.734  0.1835  0.1728  1.2202
  188POPC   C2621668   6.142   3.187   2.762 -0.5370 -0.9489 -1.0003
  188POPC   H6R21669   6.080   3.112   2.710 -3.7914  2.1919 -2.0327
  188POPC   H6S21670   6.099   3.285   2.735  0.1214 -0.6755 -1.0856
  188POPC   C2721671   6.133   3.168   2.913  0.1692 -0.3445  0.0199
  188POPC   H7R21672   6.029   3.164   2.950 -0.0352 -3.4023 -0.6146
  188POPC   H7S21673   6.171   3.264   2.955 -0.2807 -0.0363 -0.2599
  188POPC   C2821674   6.202   3.045   2.967 -0.1490 -0.7428 -0.2241
  188POPC   H8R21675   6.311   3.065   2.971 -0.1045  0.0800 -3.5007
  188POPC   H8S21676   6.191   2.964   2.892 -1.7522  0.0582 -0.9001
  188POPC   C2921677   6.156   2.990   3.103  0.6907 -0.1997  0.0228
  188POPC   H9121678   6.076   2.916   3.090 -0.4887  0.8576  1.0943
  188POPC  C21021679   6.200   3.019   3.226 -0.0761 -0.1754 -0.1545
  188POPC  H10121680   6.157   2.975   3.318 -1.5951  0.6286 -0.4385
  188POPC  C21121681   6.309   3.121   3.254  0.5155 -0.6814  0.4801
  188POPC  H11R21682   6.367   3.145   3.162 -1.5393  0.4263 -0.5942
  188POPC  H11S21683   6.382   3.066   3.318  0.0877 -2.3065 -0.3848
  188POPC  C21221684   6.258   3.252   3.324 -0.5335 -0.2662  0.2161
  188POPC  H12R21685   6.336   3.315   3.371 -0.5913 -0.5860  0.7518
  188POPC  H12S21686   6.197   3.237   3.415 -0.3492 -0.1840  0.3525
  188POPC  C21321687   6.180   3.344   3.235  0.0369 -0.0490 -0.0411
  188POPC  H13R21688   6.089   3.292   3.197  0.3106  0.0635 -0.8632
  188POPC  H13S21689   6.243   3.354   3.144  1.1816 -0.3400  0.7076
  188POPC  C21421690   6.154   3.482   3.294 -0.3478  0.3594  0.4051
  188POPC  H14R21691   6.255   3.523   3.318 -0.9248  2.2108 -0.1584
  188POPC  H14S21692   6.100   3.469   3.390  1.1049  0.4255  1.2744
  188POPC  C21521693   6.091   3.579   3.191 -0.7706  0.4300  0.5649
  188POPC  H15R21694   5.992   3.534   3.171 -0.3081 -0.8766  1.1455
  188POPC  H15S21695   6.142   3.579   3.092 -0.5660 -1.9741  0.6145
  188POPC  C21621696   6.065   3.722   3.236 -0.2664 -0.7615 -0.2314
  188POPC  H16R21697   6.161   3.777   3.250 -2.0023  2.9819 -1.7266
  188POPC  H16S21698   6.004   3.736   3.327  0.0091 -1.9110  0.1446
  188POPC  C21721699   5.987   3.800   3.127 -0.4259 -0.4780 -0.3822
  188POPC  H17R21700   5.891   3.745   3.117 -1.2215  0.7672  0.2020
  188POPC  H17S21701   6.036   3.800   3.027  0.5201 -0.4450  0.0785
  188POPC  C21821702   5.955   3.939   3.174  0.9002  0.1330 -0.5952
  188POPC  H18R21703   5.888   3.985   3.099  1.3958  0.6351 -0.7337
  188POPC  H18S21704   6.037   4.009   3.199  0.5784 -0.3227  2.0522
  188POPC  H18T21705   5.893   3.939   3.267  0.3798 -1.4080 -0.9173
  188POPC   C3321706   6.149   2.635   2.788 -0.2533  0.2611 -0.2673
  188POPC   H3X21707   6.039   2.648   2.781 -0.1053  1.6690 -0.3895
  188POPC   H3Y21708   6.194   2.736   2.803  3.1735 -0.5101 -3.8059
  188POPC   C3421709   6.178   2.552   2.911  0.5560  1.0980 -0.0239
  188POPC   H4X21710   6.289   2.540   2.917  0.4726 -0.6526 -1.1649
  188POPC   H4Y21711   6.133   2.452   2.892  0.0393  1.2695  0.2726
  188POPC   C3521712   6.109   2.604   3.033  0.4590 -0.0898 -0.2598
  188POPC   H5X21713   6.002   2.613   3.003  0.3752 -0.1352  0.0198
  188POPC   H5Y21714   6.145   2.705   3.062 -0.8569  0.7919 -1.5540
  188POPC   C3621715   6.099   2.505   3.148  0.5474 -0.5254 -0.0046
  188POPC   H6X21716   6.198   2.486   3.193  0.9415 -1.5939 -1.2692
  188POPC   H6Y21717   6.066   2.404   3.117 -0.3807 -1.2640  3.0473
  188POPC   C3721718   6.009   2.550   3.267 -0.0590  0.4258 -0.9494
  188POPC   H7X21719   5.904   2.557   3.232 -0.7097 -0.5697  0.7025
  188POPC   H7Y21720   6.049   2.649   3.297  0.2701 -0.2360  0.9619
  188POPC   C3821721   6.019   2.447   3.383  0.8923 -0.2041 -0.3952
  188POPC   H8X21722   6.118   2.451   3.434  1.1650  2.9709 -0.9958
  188POPC   H8Y21723   5.999   2.350   3.331 -2.1092  0.5444 -0.7819
  188POPC   C3921724   5.902   2.469   3.487 -0.6684 -0.1045 -1.0560
  188POPC   H9X21725   5.801   2.447   3.447 -0.3569 -2.9901 -0.4640
  188POPC   H9Y21726   5.916   2.572   3.526  1.5771 -1.4995  2.3498
  188POPC  C31021727   5.929   2.375   3.610  0.3352  0.2291  0.4767
  188POPC  H10X21728   6.015   2.421   3.664 -0.0798  0.1460  1.2212
  188POPC  H10Y21729   5.958   2.275   3.571  0.5171  0.6453 -0.4871
  188POPC  C31121730   5.803   2.355   3.697  0.0668  0.2580  0.2505
  188POPC  H11X21731   5.840   2.301   3.787 -0.7880 -1.2795 -0.2951
  188POPC  H11Y21732   5.733   2.282   3.651 -0.1469  0.6200 -0.0069
  188POPC  C31221733   5.728   2.478   3.739 -0.0158 -0.3389  0.0390
  188POPC  H12X21734   5.667   2.513   3.654  1.2348  1.2396 -0.2545
  188POPC  H12Y21735   5.807   2.554   3.759 -0.5327  0.4258 -0.7931
  188POPC  C31321736   5.635   2.457   3.861 -0.4325 -0.3145  0.4689
  188POPC  H13X21737   5.688   2.440   3.957  0.5596 -0.6564 -0.1291
  188POPC  H13Y21738   5.570   2.368   3.845 -1.1990  0.4666 -0.9830
  188POPC  C31421739   5.548   2.583   3.879 -0.4242 -0.2346  0.3351
  188POPC  H14X21740   5.478   2.599   3.794 -2.5177 -0.2623  1.9775
  188POPC  H14Y21741   5.600   2.681   3.886 -0.3184 -0.2474 -0.2029
  188POPC  C31521742   5.468   2.553   4.012 -0.0179 -0.0942  0.4111
  188POPC  H15X21743   5.535   2.550   4.101 -0.7249 -1.0723  0.9225
  188POPC  H15Y21744   5.405   2.463   3.996 -0.2895  0.2868 -0.6911
  188POPC  C31621745   5.367   2.667   4.049 -0.4091 -0.4388  0.4030
  188POPC  H16X21746   5.329   2.707   3.952  0.4666  1.1162  0.6681
  188POPC  H16Y21747   5.409   2.754   4.104  0.3454 -1.9719  2.3921
  188POPC  H16Z21748   5.283   2.633   4.113 -0.1204  0.5494  1.3329
  189SAPI   C1221749   3.700   1.061   6.027 -0.0969  0.0823 -0.1545
  189SAPI    H221750   3.689   1.005   5.932 -2.0390 -0.9781  0.6391
  189SAPI    O221751   3.595   1.154   6.009 -0.1550  0.1479 -0.4147
  189SAPI   HO221752   3.578   1.174   5.917 -0.9140 -0.6565 -0.4617
  189SAPI   C1321753   3.672   0.986   6.154 -0.3505 -0.1623  0.6409
  189SAPI    H321754   3.753   0.912   6.170 -0.9997 -0.7982  1.0572
  189SAPI    O321755   3.554   0.912   6.146  0.3322  0.9139  0.1181
  189SAPI   HO321756   3.487   0.973   6.113 -0.2473  1.0222  1.4273
  189SAPI   C1421757   3.670   1.077   6.278  0.2576 -0.2947 -0.0351
  189SAPI    H421758   3.596   1.154   6.249 -0.4560 -0.1436  2.0063
  189SAPI    O421759   3.622   1.020   6.401 -0.0739 -0.3617 -0.1887
  189SAPI   HO421760   3.680   0.949   6.427 -0.2399 -0.1422  0.8246
  189SAPI   C1521761   3.807   1.142   6.296  0.1480  1.0633  0.1953
  189SAPI    H521762   3.870   1.053   6.315 -3.3761 -1.3971  1.4019
  189SAPI    O521763   3.817   1.223   6.417  0.4882  0.3534  0.1235
  189SAPI   HO521764   3.754   1.296   6.415 -0.2981 -0.2873  0.7162
  189SAPI   C1621765   3.846   1.213   6.171 -0.4649  0.2023 -0.4693
  189SAPI    H621766   3.767   1.289   6.157  0.3581  1.3968  1.1165
  189SAPI    O621767   3.970   1.274   6.192 -0.3254 -0.9076  0.6298
  189SAPI   HO621768   4.038   1.209   6.176  0.2324 -0.0265 -0.8592
  189SAPI   C1121769   3.841   1.123   6.047 -0.1944 -0.0084 -0.6163
  189SAPI    H121770   3.908   1.039   6.076 -0.6917 -0.4887 -0.8435
  189SAPI     P21771   3.944   1.118   5.802  0.1292 -0.0970  0.1570
  189SAPI   O1321772   3.886   1.186   5.686  0.1819  0.2468  0.1301
  189SAPI   O1421773   3.935   0.970   5.812  0.3257 -0.2311 -0.3723
  189SAPI   O1221774   3.886   1.195   5.931 -0.6377  0.0424  0.0598
  189SAPI   O1121775   4.093   1.145   5.817 -0.4042  0.7519 -0.0287
  189SAPI    C121776   4.177   1.147   5.698  0.0563 -0.1306  0.3002
  189SAPI    HA21777   4.256   1.069   5.706 -0.7597 -0.8375  2.3388
  189SAPI    HB21778   4.131   1.134   5.598  2.1183  0.5368 -0.7771
  189SAPI    C221779   4.248   1.281   5.695  0.0653  0.6390 -0.4135
  189SAPI    HS21780   4.311   1.279   5.787 -1.1997 -2.4837  0.5057
  189SAPI   O2121781   4.154   1.386   5.681 -0.2780  0.8893 -0.4944
  189SAPI   C2121782   4.182   1.490   5.754 -0.4514  0.0051  0.3872
  189SAPI   O2221783   4.237   1.486   5.861 -0.7141 -0.5402 -0.3043
  189SAPI   C2221784   4.106   1.612   5.701 -0.5314  0.0661 -0.5430
  189SAPI   H2R21785   4.165   1.631   5.609  0.6356  0.9565  0.3514
  189SAPI   H2S21786   4.002   1.584   5.672 -0.6425 -0.5558  0.3979
  189SAPI    C321787   4.347   1.283   5.576 -0.2043 -0.4697 -0.4441
  189SAPI    HX21788   4.423   1.207   5.604  1.3023  1.0449 -0.2873
  189SAPI    HY21789   4.401   1.380   5.571 -1.6925  0.4594  0.6905
  189SAPI   O3121790   4.288   1.247   5.451 -0.5201  0.1270  0.1331
  189SAPI   C3121791   4.248   1.346   5.376  0.5648 -0.3848 -0.0627
  189SAPI   O3221792   4.255   1.464   5.408 -0.1414 -0.4429  0.2160
  189SAPI   C3221793   4.183   1.297   5.240 -0.5968  0.2175  0.1848
  189SAPI   H2X21794   4.075   1.305   5.263 -0.6541  1.1213 -0.3521
  189SAPI   H2Y21795   4.203   1.188   5.229 -2.7607 -0.0271 -1.9425
  189SAPI   C2321796   4.113   1.734   5.800 -0.1158  0.1408  0.0036
  189SAPI   H3R21797   4.214   1.731   5.846  0.2371 -0.1085 -0.7724
  189SAPI   H3S21798   4.031   1.733   5.875 -2.0030  1.4183 -1.9321
  189SAPI   C2421799   4.117   1.867   5.728  0.1550 -0.2096  0.1198
  189SAPI   H4R21800   4.206   1.861   5.662  0.3402 -1.9733  0.4818
  189SAPI   H4S21801   4.133   1.948   5.803  1.2101 -1.1440  0.9381
  189SAPI   C2521802   3.985   1.876   5.658 -0.0181 -0.1056 -0.1322
  189SAPI   H5R21803   3.905   1.916   5.723 -2.4221  0.7687 -3.3673
  189SAPI   C2621804   3.955   1.854   5.527  0.3037 -0.0010  0.0565
  189SAPI   H6R21805   3.854   1.864   5.487  0.2057 -1.0702  0.0064
  189SAPI   C2721806   4.054   1.802   5.434 -0.0493  0.0855  0.8699
  189SAPI   H7R21807   4.041   1.692   5.431 -2.0665  0.3023 -0.6785
  189SAPI   H7S21808   4.157   1.835   5.460  0.0855 -0.8683  1.5622
  189SAPI   C2821809   4.021   1.860   5.294  1.5856  0.6787 -0.5360
  189SAPI   H8R21810   4.060   1.961   5.272  2.0828 -0.2420 -4.8904
  189SAPI   C2921811   3.950   1.798   5.194 -0.2392 -0.7900 -0.3872
  189SAPI   H9R21812   3.935   1.854   5.101  1.1751  0.7295  0.2523
  189SAPI  C21021813   3.879   1.671   5.211  0.8702  0.3520  0.2639
  189SAPI  H10R21814   3.772   1.704   5.207  0.8673  0.4053  0.7173
  189SAPI  H10S21815   3.887   1.630   5.314  1.1658 -2.0388 -0.6655
  189SAPI  C21121816   3.896   1.550   5.117 -0.3688 -0.0163 -0.3867
  189SAPI  H11R21817   3.974   1.478   5.142  0.9027  1.1760 -0.7713
  189SAPI  C21221818   3.871   1.543   4.987 -0.2275  0.4527  0.7980
  189SAPI  H12R21819   3.893   1.448   4.937  1.8051  1.5159 -0.5141
  189SAPI  C21321820   3.813   1.654   4.900 -0.2982  0.2506 -0.6607
  189SAPI  H13R21821   3.898   1.712   4.858 -0.8242  1.2720 -0.3493
  189SAPI  H13S21822   3.759   1.730   4.960  1.5576  1.2267 -0.1727
  189SAPI  C21421823   3.719   1.608   4.790  0.4021 -0.2033  0.5206
  189SAPI  H14R21824   3.623   1.583   4.838  1.5003 -0.9506  2.4360
  189SAPI  C21521825   3.752   1.597   4.662 -0.2257 -0.0462 -0.4911
  189SAPI  H15R21826   3.677   1.549   4.597 -1.1219  1.6592 -0.7798
  189SAPI  C21621827   3.879   1.634   4.592 -0.2214  0.2967 -0.1594
  189SAPI  H16R21828   3.962   1.669   4.658  0.5385 -0.3935 -0.7146
  189SAPI  H16S21829   3.872   1.711   4.513  0.4891  1.7789  1.1723
  189SAPI  C21721830   3.925   1.501   4.517  1.3188 -1.0876 -0.5665
  189SAPI  H17R21831   3.854   1.473   4.435  0.6645  0.7228 -0.6607
  189SAPI  H17S21832   3.943   1.419   4.590  0.8739 -1.0717 -0.4364
  189SAPI  C21821833   4.063   1.518   4.450  0.3335  0.2940  0.6010
  189SAPI  H18R21834   4.133   1.564   4.523 -0.6674 -1.4348  2.7313
  189SAPI  H18S21835   4.033   1.587   4.368  0.1718 -1.4042 -0.8303
  189SAPI  C21921836   4.117   1.381   4.410  0.4192 -0.0815 -0.0892
  189SAPI  H19R21837   4.055   1.332   4.331  0.4149  1.3648 -1.0114
  189SAPI  H19S21838   4.121   1.311   4.496 -4.2798 -2.0640 -1.1507
  189SAPI  C22021839   4.260   1.395   4.354 -0.4527 -0.0174  0.0066
  189SAPI  H20R21840   4.261   1.458   4.262 -2.8017  2.0362  1.2809
  189SAPI  H20S21841   4.298   1.294   4.326 -2.3851 -0.9467  0.4875
  189SAPI  H20T21842   4.329   1.441   4.428 -1.9445 -0.7652  1.9531
  189SAPI   C3321843   4.222   1.385   5.117 -0.0272 -0.1704  0.2044
  189SAPI   H3X21844   4.333   1.388   5.122  0.1016 -0.4295 -1.6634
  189SAPI   H3Y21845   4.188   1.490   5.125 -0.8806 -0.3079 -1.1728
  189SAPI   C3421846   4.171   1.326   4.988  0.0609 -0.4202  0.8520
  189SAPI   H4X21847   4.062   1.349   4.985  0.7161  3.4391 -2.4551
  189SAPI   H4Y21848   4.173   1.216   4.975  2.0155 -0.2035 -1.7232
  189SAPI   C3521849   4.224   1.405   4.864  0.3004  0.2985 -0.3985
  189SAPI   H5X21850   4.196   1.512   4.868 -0.6825  0.2496 -3.5304
  189SAPI   H5Y21851   4.162   1.362   4.783 -2.5733  0.8207  1.3692
  189SAPI   C3621852   4.371   1.396   4.828  0.5073  0.4572 -0.3171
  189SAPI   H6X21853   4.396   1.288   4.822  0.0920  0.3943 -0.9845
  189SAPI   H6Y21854   4.440   1.427   4.909  1.3508 -1.4107 -0.2646
  189SAPI   C3721855   4.423   1.451   4.697 -0.0547 -0.0366 -0.3935
  189SAPI   H7X21856   4.386   1.554   4.677 -1.6065 -0.2412  1.1875
  189SAPI   H7Y21857   4.379   1.382   4.622  0.9609 -1.2682  0.1003
  189SAPI   C3821858   4.580   1.438   4.687 -0.2258  0.0288 -0.2162
  189SAPI   H8X21859   4.612   1.332   4.695 -1.3446 -0.4302 -1.4536
  189SAPI   H8Y21860   4.624   1.476   4.781 -0.5280 -0.0686 -0.0336
  189SAPI   C3921861   4.650   1.503   4.561 -0.0008  0.1590  0.0082
  189SAPI   H9X21862   4.610   1.606   4.553 -0.9164 -0.1030  1.0571
  189SAPI   H9Y21863   4.615   1.450   4.470  2.3231 -0.6305 -0.5045
  189SAPI  C31021864   4.792   1.485   4.549 -0.0364 -0.7629  0.2152
  189SAPI  H10X21865   4.835   1.383   4.558  1.7108 -0.1994 -1.0361
  189SAPI  H10Y21866   4.839   1.540   4.634 -0.3051  0.1339 -0.1992
  189SAPI  C31121867   4.849   1.562   4.430 -0.5168 -0.5827 -0.3910
  189SAPI  H11X21868   4.800   1.662   4.427  0.8775  0.1278 -0.0606
  189SAPI  H11Y21869   4.814   1.507   4.340 -1.0215 -0.5906 -0.1980
  189SAPI  C31221870   5.003   1.589   4.430  0.2433 -0.0607 -0.4591
  189SAPI  H12X21871   5.023   1.644   4.525 -2.2562 -0.2842  0.2630
  189SAPI  H12Y21872   5.024   1.659   4.347 -1.2920  0.1124 -0.7256
  189SAPI  C31321873   5.093   1.461   4.420 -0.1910 -0.5402 -0.4594
  189SAPI  H13X21874   5.055   1.418   4.325  0.7993  1.2543 -1.7259
  189SAPI  H13Y21875   5.073   1.389   4.502  0.4733 -0.0413  0.1558
  189SAPI  C31421876   5.244   1.488   4.415  0.0245 -0.2716  0.7196
  189SAPI  H14X21877   5.278   1.589   4.384  1.8107 -1.2079 -0.6227
  189SAPI  H14Y21878   5.280   1.425   4.331  2.8450  0.0242  1.5863
  189SAPI  C31521879   5.330   1.454   4.540  0.0613  0.1283  0.1670
  189SAPI  H15X21880   5.441   1.463   4.531 -0.0061  0.4657 -0.3874
  189SAPI  H15Y21881   5.315   1.347   4.566  2.0744 -0.6208 -1.4742
  189SAPI  C31621882   5.294   1.547   4.653  0.1323  0.4778 -0.2791
  189SAPI  H16X21883   5.187   1.548   4.682  0.6045  2.6868  1.7793
  189SAPI  H16Y21884   5.318   1.653   4.633 -0.7964  0.7615  0.0529
  189SAPI  C31721885   5.368   1.510   4.778 -0.1108  0.3097  0.2859
  189SAPI  H17X21886   5.477   1.512   4.757 -0.0557 -0.9337  0.3710
  189SAPI  H17Y21887   5.342   1.402   4.791 -1.6008  0.7028  0.8162
  189SAPI  C31821888   5.341   1.594   4.896  0.0014  0.9551 -0.7190
  189SAPI  H18X21889   5.236   1.579   4.929  1.0203 -1.8647  1.6743
  189SAPI  H18Y21890   5.373   1.698   4.873  2.7240  0.8466  1.9921
  189SAPI  H18Z21891   5.403   1.570   4.985 -0.9650 -2.1530 -0.7861
  190SAPI   C1221892   4.365   1.045   6.111 -0.2706  0.5881 -0.4300
  190SAPI    H221893   4.385   1.152   6.087  0.4301  0.9616  1.6021
  190SAPI    O221894   4.443   1.009   6.227  0.2551 -0.7324  0.9157
  190SAPI   HO221895   4.517   0.961   6.189  0.0208 -1.6952  1.6597
  190SAPI   C1321896   4.219   1.025   6.136  0.5092  1.2716  0.3542
  190SAPI    H321897   4.154   1.057   6.052 -0.2941  1.7369  1.1381
  190SAPI    O321898   4.172   1.101   6.242 -0.2641 -1.0672 -0.6969
  190SAPI   HO321899   4.243   1.123   6.303 -1.5073  0.2167  0.3481
  190SAPI   C1421900   4.182   0.873   6.165 -0.2126 -0.7904  0.4864
  190SAPI    H421901   4.245   0.848   6.252  0.7511  0.5501  0.2027
  190SAPI    O421902   4.047   0.859   6.202 -0.2112  0.0434 -0.5825
  190SAPI   HO421903   4.034   0.898   6.288 -1.8733  2.1581 -1.6990
  190SAPI   C1521904   4.221   0.788   6.042 -0.3579 -0.4977 -0.1425
  190SAPI    H521905   4.166   0.826   5.953 -0.3198  0.0605  0.0695
  190SAPI    O521906   4.180   0.650   6.051  0.5212  0.0159 -0.2922
  190SAPI   HO521907   4.170   0.630   5.958 -0.7845  2.2704 -0.7182
  190SAPI   C1621908   4.374   0.808   6.023  0.2540 -0.2848  0.7051
  190SAPI    H621909   4.422   0.767   6.114  0.9568 -1.2471 -0.0748
  190SAPI    O621910   4.416   0.725   5.921  0.1711  0.2800  0.4708
  190SAPI   HO621911   4.352   0.726   5.850 -0.2840  0.4903  0.8763
  190SAPI   C1121912   4.415   0.953   5.991  0.3966  0.4620 -0.8199
  190SAPI    H121913   4.345   0.974   5.907 -0.8241  0.5901  0.1804
  190SAPI     P21914   4.615   1.090   5.889 -0.3337  0.1424  0.6864
  190SAPI   O1321915   4.761   1.088   5.900  0.0865  0.2250  0.3276
  190SAPI   O1421916   4.550   1.221   5.901  0.2254 -0.4800 -0.1269
  190SAPI   O1221917   4.554   0.968   5.967 -0.0036  0.1783 -0.4831
  190SAPI   O1121918   4.583   1.053   5.741 -0.1053  0.1622  0.2302
  190SAPI    C121919   4.610   0.937   5.682 -0.1262 -0.0825  0.5029
  190SAPI    HA21920   4.634   0.851   5.749  1.6020 -0.3105 -0.3274
  190SAPI    HB21921   4.533   0.893   5.615  2.0304 -2.6374 -0.5296
  190SAPI    C221922   4.742   0.962   5.592 -0.4374 -0.0383  0.1201
  190SAPI    HS21923   4.819   1.006   5.658  2.0306 -1.9799 -1.2721
  190SAPI   O2121924   4.709   1.059   5.491 -0.5020 -0.3230  0.5723
  190SAPI   C2121925   4.814   1.130   5.443 -0.2429 -0.8696 -0.0742
  190SAPI   O2221926   4.928   1.126   5.481 -0.2240 -0.5487 -0.2289
  190SAPI   C2221927   4.769   1.242   5.357  0.3407 -0.4544  0.3248
  190SAPI   H2R21928   4.658   1.244   5.354  0.2618 -0.9568  2.0264
  190SAPI   H2S21929   4.812   1.337   5.396 -0.4408  0.1750 -0.3318
  190SAPI    C321930   4.800   0.839   5.521  0.7400 -0.1976 -0.6550
  190SAPI    HX21931   4.807   0.769   5.607  3.7413  1.5323  0.6794
  190SAPI    HY21932   4.904   0.860   5.488  1.5357 -1.6870  0.7930
  190SAPI   O3121933   4.724   0.794   5.402 -0.5470 -0.3121  0.5775
  190SAPI   C3121934   4.649   0.682   5.421  0.4520  0.1543 -0.3408
  190SAPI   O3221935   4.632   0.627   5.532 -0.2356 -0.1325  0.1335
  190SAPI   C3221936   4.592   0.636   5.287 -0.1505  0.8773 -0.2453
  190SAPI   H2X21937   4.675   0.646   5.214 -1.3041 -3.1550 -2.4192
  190SAPI   H2Y21938   4.505   0.693   5.248 -0.9330 -1.3856 -2.0482
  190SAPI   C2321939   4.827   1.220   5.213  0.3975  0.1860  0.3888
  190SAPI   H3R21940   4.929   1.177   5.218  0.2252 -0.1099  1.7826
  190SAPI   H3S21941   4.831   1.315   5.155  1.8895  0.8160  1.4625
  190SAPI   C2421942   4.736   1.120   5.131  0.0092 -0.1866 -0.2296
  190SAPI   H4R21943   4.734   1.018   5.174 -0.4627  0.7302  2.0710
  190SAPI   H4S21944   4.784   1.122   5.031 -0.4354  0.6957 -0.4435
  190SAPI   C2521945   4.596   1.168   5.101 -0.1219  0.1795  0.2541
  190SAPI   H5R21946   4.590   1.260   5.041 -1.5913 -0.6679 -0.9956
  190SAPI   C2621947   4.482   1.112   5.138 -0.4137  0.1786  0.4611
  190SAPI   H6R21948   4.386   1.159   5.114  0.1863  1.3418  0.2872
  190SAPI   C2721949   4.465   0.980   5.200  0.1978  0.3495 -0.7557
  190SAPI   H7R21950   4.560   0.923   5.208  1.1683  2.0859  0.8730
  190SAPI   H7S21951   4.405   0.920   5.128  1.6455 -0.9315 -0.9473
  190SAPI   C2821952   4.399   0.966   5.334 -0.0784 -0.5401  0.5637
  190SAPI   H8R21953   4.462   1.015   5.409  0.9527 -1.4001  0.2837
  190SAPI   C2921954   4.283   0.908   5.363  0.2995 -0.7081  0.4346
  190SAPI   H9R21955   4.239   0.915   5.464 -1.0239  1.6414 -0.2170
  190SAPI  C21021956   4.187   0.843   5.263  0.6058  0.1525 -0.3958
  190SAPI  H10R21957   4.198   0.893   5.165 -0.2881  1.3403  0.0749
  190SAPI  H10S21958   4.087   0.870   5.303  1.3774 -1.4172  2.9880
  190SAPI  C21121959   4.186   0.695   5.270 -0.4630 -0.1890  0.7858
  190SAPI  H11R21960   4.181   0.650   5.370 -1.7299 -2.4120 -0.2024
  190SAPI  C21221961   4.196   0.614   5.169  0.0481 -0.6514  0.9020
  190SAPI  H12R21962   4.208   0.505   5.183  1.4368 -0.4173  1.7341
  190SAPI  C21321963   4.216   0.665   5.027  0.2214  0.1775  0.5788
  190SAPI  H13R21964   4.232   0.574   4.964 -0.3748  1.0469 -0.8709
  190SAPI  H13S21965   4.317   0.706   5.005  0.2819 -0.6558 -0.8681
  190SAPI  C21421966   4.111   0.741   4.956  0.2383  0.7680 -0.4321
  190SAPI  H14R21967   4.028   0.764   5.025 -0.4908  2.0172 -1.6804
  190SAPI  C21521968   4.105   0.793   4.834  0.0858 -0.3421  0.0683
  190SAPI  H15R21969   4.017   0.841   4.789  1.3829  0.5159 -1.6682
  190SAPI  C21621970   4.223   0.794   4.733  0.8414  0.7286 -0.0866
  190SAPI  H16R21971   4.199   0.720   4.653 -0.1027  0.4860  0.4090
  190SAPI  H16S21972   4.320   0.766   4.780  1.3279  0.5882 -1.1289
  190SAPI  C21721973   4.237   0.929   4.659  0.1457  0.0198  0.2229
  190SAPI  H17R21974   4.244   1.014   4.730  0.1175  0.6565 -0.5224
  190SAPI  H17S21975   4.150   0.938   4.590 -1.0814 -0.4724  1.6536
  190SAPI  C21821976   4.357   0.951   4.571 -0.6638  0.2244 -0.1300
  190SAPI  H18R21977   4.329   0.903   4.475  1.3772  0.2970 -0.7959
  190SAPI  H18S21978   4.453   0.909   4.608 -1.4660 -1.4482  0.1902
  190SAPI  C21921979   4.394   1.096   4.534 -0.0514 -0.0277 -0.6663
  190SAPI  H19R21980   4.445   1.147   4.618  2.6274 -2.8637 -0.4254
  190SAPI  H19S21981   4.304   1.158   4.512  0.6883  1.7409  0.9822
  190SAPI  C22021982   4.491   1.115   4.413  0.5769  0.1052  0.6339
  190SAPI  H20R21983   4.428   1.102   4.322  1.1149 -0.4054  0.3228
  190SAPI  H20S21984   4.575   1.043   4.410  0.6148  0.1439 -2.0184
  190SAPI  H20T21985   4.516   1.223   4.408 -0.4450  0.3289  0.1007
  190SAPI   C3321986   4.547   0.489   5.281  0.0745  0.0472  0.2604
  190SAPI   H3X21987   4.459   0.484   5.348  1.2706  1.1969  2.0152
  190SAPI   H3Y21988   4.620   0.416   5.323 -0.0487 -0.4906 -0.4607
  190SAPI   C3421989   4.520   0.452   5.142  0.4956 -0.4803 -0.0501
  190SAPI   H4X21990   4.461   0.534   5.096  0.5223 -0.0387  0.6868
  190SAPI   H4Y21991   4.442   0.373   5.148  0.0002  0.0044  0.0021
  190SAPI   C3521992   4.642   0.425   5.058 -0.4338  0.4333 -0.0577
  190SAPI   H5X21993   4.711   0.386   5.136 -2.5595 -2.8459  0.3818
  190SAPI   H5Y21994   4.694   0.514   5.016 -1.4461  0.0506 -2.2871
  190SAPI   C3621995   4.630   0.316   4.949  0.1880  0.2872  0.1086
  190SAPI   H6X21996   4.571   0.235   4.996 -1.1399  0.3293 -1.4149
  190SAPI   H6Y21997   4.728   0.278   4.911 -0.9476 -0.8502 -1.8279
  190SAPI   C3721998   4.556   0.366   4.830  0.2130  0.0993  0.1172
  190SAPI   H7X21999   4.455   0.399   4.862 -0.0116 -1.0119  0.6102
  190SAPI   H7Y22000   4.539   0.278   4.764  3.3084 -2.5185  2.4856
  190SAPI   C3822001   4.613   0.487   4.750 -0.1572 -0.2456 -0.2125
  190SAPI   H8X22002   4.706   0.454   4.699  0.0323 -0.4498  0.2607
  190SAPI   H8Y22003   4.634   0.566   4.825  1.3391  0.0053 -0.8586
  190SAPI   C3922004   4.514   0.545   4.652  0.8629  0.0128 -0.4615
  190SAPI   H9X22005   4.454   0.629   4.693  0.3516 -1.0167  1.0124
  190SAPI   H9Y22006   4.448   0.459   4.626  1.4207 -0.7034  0.4154
  190SAPI  C31022007   4.584   0.599   4.533  0.7928  0.1421  0.3390
  190SAPI  H10X22008   4.643   0.512   4.497 -1.3027 -1.1171 -0.2155
  190SAPI  H10Y22009   4.650   0.684   4.560  1.1999  0.1617 -0.6725
  190SAPI  C31122010   4.483   0.622   4.413 -0.5047  0.8018  0.1630
  190SAPI  H11X22011   4.416   0.710   4.423 -1.8022  0.5496 -4.0909
  190SAPI  H11Y22012   4.432   0.527   4.387  1.4819 -0.1696 -0.4171
  190SAPI  C31222013   4.559   0.674   4.285 -0.8393  0.3858  0.0218
  190SAPI  H12X22014   4.625   0.589   4.255 -1.1878 -0.5011  1.6614
  190SAPI  H12Y22015   4.631   0.753   4.315 -1.2013 -0.1912  2.6097
  190SAPI  C31322016   4.477   0.713   4.159  0.4594  0.5057  0.2532
  190SAPI  H13X22017   4.412   0.800   4.182  0.6514  0.0397  2.8872
  190SAPI  H13Y22018   4.410   0.628   4.133 -1.5575  1.9238  0.5310
  190SAPI  C31422019   4.559   0.744   4.032 -0.1014 -0.0830  0.1570
  190SAPI  H14X22020   4.503   0.811   3.963 -1.8880 -0.7525  0.8961
  190SAPI  H14Y22021   4.579   0.646   3.985  0.7323  0.3445 -0.3939
  190SAPI  C31522022   4.692   0.819   4.044  0.2947  0.2134  0.2875
  190SAPI  H15X22023   4.756   0.833   3.955  2.6726  2.9363  2.2298
  190SAPI  H15Y22024   4.756   0.765   4.117 -1.2349 -1.6965  0.2925
  190SAPI  C31622025   4.686   0.966   4.092  0.4080 -0.2348  1.0671
  190SAPI  H16X22026   4.632   0.971   4.189  0.0623  1.0959  0.8294
  190SAPI  H16Y22027   4.625   1.027   4.021  0.3836 -0.4401  0.9107
  190SAPI  C31722028   4.821   1.038   4.091  0.0737 -0.2066 -0.3222
  190SAPI  H17X22029   4.858   1.045   3.987  1.3922 -2.6375 -0.1014
  190SAPI  H17Y22030   4.886   0.968   4.148 -1.1667 -1.0165  0.1520
  190SAPI  C31822031   4.807   1.182   4.160 -0.4440  0.5106  0.2463
  190SAPI  H18X22032   4.739   1.241   4.094 -1.7303 -0.3519  0.7838
  190SAPI  H18Y22033   4.904   1.236   4.164 -0.3622  0.2855  1.8042
  190SAPI  H18Z22034   4.761   1.175   4.260  2.0525 -1.9780  1.3218
  191SAPI   C1222035   0.960   5.624   1.819  0.1209 -0.9713 -0.1952
  191SAPI    H222036   0.982   5.655   1.923 -0.3505  1.0843 -0.6649
  191SAPI    O222037   0.899   5.498   1.812  0.4301  0.2140  0.0385
  191SAPI   HO222038   0.964   5.433   1.784  3.2869  3.2598 -0.9524
  191SAPI   C1322039   0.866   5.727   1.758  0.9606  0.1656  0.1645
  191SAPI    H322040   0.916   5.826   1.751  2.1538 -0.4835 -0.8813
  191SAPI    O322041   0.751   5.735   1.847  0.4934  0.1575 -0.3107
  191SAPI   HO322042   0.718   5.649   1.871  1.7378 -0.0354  0.8618
  191SAPI   C1422043   0.835   5.692   1.615  0.4309 -0.3674  0.1923
  191SAPI    H422044   0.797   5.590   1.592 -1.9633  0.2979  0.9968
  191SAPI    O422045   0.728   5.772   1.559  0.0987  0.1243  0.3002
  191SAPI   HO422046   0.646   5.723   1.567 -0.7895  1.6380  0.9883
  191SAPI   C1522047   0.964   5.701   1.537 -0.0130  0.3317 -0.1031
  191SAPI    H522048   0.996   5.808   1.533 -2.0536  0.9443 -2.2827
  191SAPI    O522049   0.937   5.663   1.399  0.5245 -0.4936 -0.1192
  191SAPI   HO522050   0.893   5.735   1.354  2.2884  0.3885 -0.4935
  191SAPI   C1622051   1.064   5.612   1.591 -0.7652  0.3918  0.5682
  191SAPI    H622052   1.027   5.508   1.583 -2.1594  0.9604 -0.7154
  191SAPI    O622053   1.186   5.634   1.517  0.8113 -0.4513  0.4783
  191SAPI   HO622054   1.258   5.639   1.580 -0.0415 -1.5688  1.6063
  191SAPI   C1122055   1.088   5.631   1.742  0.1666 -0.0601 -0.0750
  191SAPI    H122056   1.123   5.733   1.770 -0.4548 -0.1198  0.9783
  191SAPI     P22057   1.338   5.575   1.808  0.0791 -0.3479  0.1938
  191SAPI   O1322058   1.363   5.666   1.694  0.0814  0.4508 -0.0123
  191SAPI   O1422059   1.428   5.463   1.842 -0.6302  0.6540  0.1161
  191SAPI   O1222060   1.181   5.531   1.794 -0.3102 -0.4952  0.2682
  191SAPI   O1122061   1.331   5.669   1.938 -0.2350  0.4622 -0.0112
  191SAPI    C122062   1.312   5.609   2.068  0.7377 -0.1600  0.9047
  191SAPI    HA22063   1.272   5.506   2.057  0.8133  0.0445 -2.3628
  191SAPI    HB22064   1.407   5.606   2.124 -0.0767 -2.2202  2.2750
  191SAPI    C222065   1.195   5.680   2.142 -0.0894  0.3242  0.0920
  191SAPI    HS22066   1.104   5.658   2.083 -0.9664  2.4771  0.5643
  191SAPI   O2122067   1.234   5.817   2.158  0.4603 -0.2105  0.3490
  191SAPI   C2122068   1.128   5.900   2.165  0.1189 -0.3270 -0.0820
  191SAPI   O2222069   1.010   5.873   2.134 -0.6621 -0.2034  0.1811
  191SAPI   C2222070   1.195   6.029   2.210 -0.2349 -0.4970  0.4106
  191SAPI   H2R22071   1.213   6.018   2.319  2.0603 -2.1585 -0.0797
  191SAPI   H2S22072   1.291   6.047   2.159  0.6124  0.2033  2.1541
  191SAPI    C322073   1.169   5.614   2.282 -0.8531 -0.5084 -0.4511
  191SAPI    HX22074   1.170   5.506   2.256 -0.8634 -1.3482  2.6884
  191SAPI    HY22075   1.064   5.631   2.313  0.3048  1.3590  2.9938
  191SAPI   O3122076   1.266   5.640   2.382 -0.0968 -0.1595  0.6627
  191SAPI   C3122077   1.237   5.738   2.459  0.2141  0.1136 -0.0267
  191SAPI   O3222078   1.137   5.807   2.459  0.2469  0.3197  0.8002
  191SAPI   C3222079   1.344   5.745   2.562 -0.0205  0.3791 -0.4351
  191SAPI   H2X22080   1.440   5.793   2.532  0.8830 -1.6738 -1.0298
  191SAPI   H2Y22081   1.365   5.638   2.584  2.4347  0.6918 -0.8896
  191SAPI   C2322082   1.106   6.152   2.173  0.2637  0.0167  0.0741
  191SAPI   H3R22083   1.023   6.155   2.247 -1.4660  0.4195 -1.7922
  191SAPI   H3S22084   1.051   6.141   2.077  0.0181 -0.8759  0.3057
  191SAPI   C2422085   1.189   6.272   2.185  0.1361 -0.6015 -0.4956
  191SAPI   H4R22086   1.267   6.261   2.107  1.0427 -0.3252  0.3626
  191SAPI   H4S22087   1.240   6.266   2.283  1.3355 -0.0416 -1.0674
  191SAPI   C2522088   1.126   6.402   2.170 -0.3231  0.0523 -0.3299
  191SAPI   H5R22089   1.124   6.439   2.066  0.7002  1.4962  0.1326
  191SAPI   C2622090   1.085   6.483   2.270  0.5236  0.2838  0.0884
  191SAPI   H6R22091   1.051   6.585   2.250 -0.3851 -0.2063 -0.9964
  191SAPI   C2722092   1.098   6.460   2.422  0.0522 -0.2845  0.2784
  191SAPI   H7R22093   1.079   6.551   2.482 -2.5367 -0.6584  0.1411
  191SAPI   H7S22094   1.187   6.402   2.455  0.6506  1.0633  1.1294
  191SAPI   C2822095   0.983   6.371   2.462  0.5735 -0.4535 -0.6479
  191SAPI   H8R22096   0.909   6.366   2.380  1.1487  1.7384 -1.3708
  191SAPI   C2922097   0.949   6.324   2.584  0.5260  0.3179 -0.1562
  191SAPI   H9R22098   0.851   6.275   2.597 -0.0613  1.9351  2.2206
  191SAPI  C21022099   1.019   6.352   2.719 -0.2100 -0.0558  0.9340
  191SAPI  H10R22100   1.120   6.395   2.702 -0.4775  0.9834  1.8152
  191SAPI  H10S22101   1.028   6.251   2.766  3.5133 -0.3176 -0.0543
  191SAPI  C21122102   0.954   6.447   2.811 -0.1099 -0.2132  0.3968
  191SAPI  H11R22103   0.904   6.528   2.755  0.0021 -0.5480 -0.1980
  191SAPI  C21222104   0.959   6.447   2.947 -0.1759 -0.5102 -0.1329
  191SAPI  H12R22105   0.920   6.541   2.991  1.5900  0.0060  0.4229
  191SAPI  C21322106   1.036   6.346   3.034 -0.4735  0.2084 -0.9467
  191SAPI  H13R22107   1.140   6.379   3.057 -0.6709  1.3571 -1.6267
  191SAPI  H13S22108   1.047   6.252   2.976  0.9426  0.6209 -1.4023
  191SAPI  C21422109   0.947   6.338   3.162  0.1745 -0.3493  0.3080
  191SAPI  H14R22110   0.841   6.320   3.137  0.3513 -0.7601 -0.1772
  191SAPI  C21522111   0.993   6.347   3.291  0.1556  0.6773  0.3784
  191SAPI  H15R22112   0.918   6.349   3.372 -0.1768 -0.9249  0.1507
  191SAPI  C21622113   1.133   6.373   3.341 -0.4448 -0.6622  0.0265
  191SAPI  H16R22114   1.147   6.472   3.389  1.2777  0.0994 -1.9245
  191SAPI  H16S22115   1.208   6.367   3.260  0.5244 -1.4407  0.9479
  191SAPI  C21722116   1.182   6.254   3.427  0.0348 -0.7058  0.9491
  191SAPI  H17R22117   1.115   6.250   3.516 -2.1150  1.6187 -0.4489
  191SAPI  H17S22118   1.288   6.274   3.452  0.8410 -1.9162 -1.2685
  191SAPI  C21822119   1.192   6.121   3.355  0.5473  0.1627  0.2171
  191SAPI  H18R22120   1.089   6.096   3.321  0.7051 -1.7593  1.0561
  191SAPI  H18S22121   1.219   6.042   3.428 -1.9827 -1.6926 -0.6935
  191SAPI  C21922122   1.288   6.119   3.238  0.2632  0.6359  0.3051
  191SAPI  H19R22123   1.384   6.169   3.264  0.0307  2.6777 -2.2441
  191SAPI  H19S22124   1.256   6.172   3.145  0.0758  0.4852  0.2860
  191SAPI  C22022125   1.326   5.976   3.190 -0.5317  0.0052 -0.8447
  191SAPI  H20R22126   1.238   5.928   3.143 -0.5250 -1.2529  0.3650
  191SAPI  H20S22127   1.347   5.921   3.284 -0.8625 -0.1209 -0.8437
  191SAPI  H20T22128   1.409   5.973   3.115 -0.9996  1.8033 -1.4732
  191SAPI   C3322129   1.289   5.814   2.686  0.2991 -0.4418  0.0980
  191SAPI   H3X22130   1.186   5.777   2.706 -0.4826  1.1207 -0.8631
  191SAPI   H3Y22131   1.289   5.925   2.676  0.1437 -0.1123  3.0338
  191SAPI   C3422132   1.378   5.765   2.805  0.4241  0.3657 -1.1120
  191SAPI   H4X22133   1.375   5.654   2.814  1.1619  0.4523  0.5935
  191SAPI   H4Y22134   1.325   5.817   2.888  1.5269  1.2070 -0.9219
  191SAPI   C3522135   1.524   5.809   2.806 -0.2457 -0.1028 -0.6499
  191SAPI   H5X22136   1.536   5.919   2.800  2.2617 -0.2965 -0.4613
  191SAPI   H5Y22137   1.584   5.769   2.721 -0.5486 -2.5152  0.1904
  191SAPI   C3622138   1.603   5.757   2.924 -0.0118  0.6748 -0.6416
  191SAPI   H6X22139   1.618   5.649   2.905  0.6361  0.4119  1.1989
  191SAPI   H6Y22140   1.538   5.763   3.014 -0.3119  1.4411 -0.8976
  191SAPI   C3722141   1.739   5.819   2.956  0.2553  0.0309  0.2060
  191SAPI   H7X22142   1.725   5.923   2.994 -0.4598 -0.3479  1.0132
  191SAPI   H7Y22143   1.804   5.820   2.866  0.7987  0.7301  0.5917
  191SAPI   C3822144   1.818   5.735   3.063 -0.5391  0.0290  0.3575
  191SAPI   H8X22145   1.920   5.777   3.072  0.0481 -1.3188  0.2163
  191SAPI   H8Y22146   1.819   5.631   3.024 -2.4535 -0.8966  2.5185
  191SAPI   C3922147   1.747   5.731   3.206  0.0035 -0.2539 -0.3331
  191SAPI   H9X22148   1.812   5.671   3.273 -1.3988  1.1105  2.4252
  191SAPI   H9Y22149   1.643   5.690   3.201  0.4132 -1.6077  1.5334
  191SAPI  C31022150   1.741   5.877   3.266 -0.2290 -0.4007  0.2724
  191SAPI  H10X22151   1.675   5.931   3.195  2.4289 -2.4365 -4.1789
  191SAPI  H10Y22152   1.843   5.921   3.267 -0.0354 -0.8347  1.9996
  191SAPI  C31122153   1.698   5.870   3.405  0.2201 -0.0255 -0.7543
  191SAPI  H11X22154   1.761   5.802   3.465  0.8918  0.8466 -0.4590
  191SAPI  H11Y22155   1.598   5.820   3.406  0.0067  0.3823 -1.2557
  191SAPI  C31222156   1.677   5.998   3.485  0.0949  0.9435  0.6840
  191SAPI  H12X22157   1.634   6.072   3.415 -0.0736  0.5594  0.3733
  191SAPI  H12Y22158   1.776   6.032   3.520  0.8683 -1.7854  1.4275
  191SAPI  C31322159   1.579   5.978   3.600  0.5606 -0.6733 -1.1062
  191SAPI  H13X22160   1.616   5.895   3.664 -1.6271 -1.6174 -0.9856
  191SAPI  H13Y22161   1.481   5.948   3.558  0.1755  1.1992 -1.6316
  191SAPI  C31422162   1.562   6.095   3.692  0.2580 -0.3034 -1.2262
  191SAPI  H14X22163   1.515   6.169   3.624 -2.2196 -0.7496 -0.0971
  191SAPI  H14Y22164   1.663   6.120   3.730 -0.8728  1.7198  0.6411
  191SAPI  C31522165   1.462   6.082   3.808  0.3981  0.5282 -0.3703
  191SAPI  H15X22166   1.480   5.982   3.854  1.5572  0.6105 -0.6193
  191SAPI  H15Y22167   1.355   6.071   3.779  0.8317 -1.1124 -1.4881
  191SAPI  C31622168   1.475   6.188   3.917 -0.4499 -0.0063 -0.2923
  191SAPI  H16X22169   1.582   6.215   3.927 -0.6055  0.8211 -0.7044
  191SAPI  H16Y22170   1.448   6.155   4.019 -0.1229 -1.3047 -0.6180
  191SAPI  C31722171   1.402   6.315   3.890  0.2008 -0.6854  0.4727
  191SAPI  H17X22172   1.292   6.305   3.894  0.0576  0.4888 -0.2322
  191SAPI  H17Y22173   1.427   6.348   3.787 -0.6787  2.2406  1.1076
  191SAPI  C31822174   1.441   6.427   3.991  0.2864 -0.1196 -0.3520
  191SAPI  H18X22175   1.393   6.527   3.982  1.4763  0.5527  0.5549
  191SAPI  H18Y22176   1.547   6.448   3.964  0.2115  0.6421 -0.0638
  191SAPI  H18Z22177   1.429   6.392   4.096 -0.7074 -1.2886 -0.8322
  192SAPI   C1222178   3.184   7.025   1.491 -0.5546  0.6054 -0.0318
  192SAPI    H222179   3.272   6.983   1.542 -0.3678 -0.3725 -1.1121
  192SAPI    O222180   3.209   7.160   1.464 -0.0913 -0.7461  0.0810
  192SAPI   HO222181   3.145   7.216   1.508  1.7075 -0.6799  2.8315
  192SAPI   C1322182   3.156   6.947   1.359  0.9719  0.3744 -1.0978
  192SAPI    H322183   3.149   6.840   1.389  0.1754  0.5490 -0.6384
  192SAPI    O322184   3.259   6.952   1.268  0.0037  0.0725  0.3869
  192SAPI   HO322185   3.240   6.932   1.176 -0.8600  0.3696  0.4839
  192SAPI   C1422186   3.026   6.991   1.301  0.6224 -0.2643 -0.0273
  192SAPI    H422187   3.053   7.098   1.285  0.4218  0.1281  2.0130
  192SAPI    O422188   3.001   6.930   1.174  0.2042 -0.0467  0.0838
  192SAPI   HO422189   3.068   6.961   1.112 -1.1050  0.7094 -1.0229
  192SAPI   C1522190   2.911   6.976   1.391  0.5163 -0.4122 -0.1829
  192SAPI    H522191   2.882   6.870   1.407 -2.0369  0.0313 -1.3030
  192SAPI    O522192   2.792   7.032   1.330 -0.0962 -0.0423  0.3517
  192SAPI   HO522193   2.797   7.128   1.323  1.3005 -0.1411 -0.2755
  192SAPI   C1622194   2.943   7.049   1.523  0.1883 -0.2694  0.0848
  192SAPI    H622195   2.949   7.157   1.500 -1.1796 -0.3828 -0.9426
  192SAPI    O622196   2.835   7.029   1.610  0.0296 -0.5434 -0.4419
  192SAPI   HO622197   2.823   6.940   1.643 -0.6865  0.3049  1.8172
  192SAPI   C1122198   3.071   7.008   1.587  0.1523  0.2259 -0.2887
  192SAPI    H122199   3.050   6.900   1.603  0.0212  0.0701 -1.4402
  192SAPI     P22200   3.187   6.994   1.831 -0.2476 -0.3048 -0.3178
  192SAPI   O1322201   3.218   7.093   1.938 -0.6227  0.1350  0.5466
  192SAPI   O1422202   3.298   6.917   1.773  0.1623 -0.0862  0.4491
  192SAPI   O1222203   3.099   7.076   1.711 -0.0889  0.8593  0.0344
  192SAPI   O1122204   3.088   6.889   1.900 -0.1173 -0.2074 -0.3591
  192SAPI    C122205   2.954   6.903   1.952  0.9425 -0.6049  0.1911
  192SAPI    HA22206   2.895   6.985   1.906 -0.7496 -0.5584  2.2728
  192SAPI    HB22207   2.906   6.810   1.912  0.7028  0.1204 -1.2819
  192SAPI    C222208   2.938   6.913   2.110  0.0670  0.7562  0.3186
  192SAPI    HS22209   2.831   6.895   2.135  0.6873 -1.3299  1.8007
  192SAPI   O2122210   2.985   7.036   2.166 -0.4946  0.0704  0.3858
  192SAPI   C2122211   2.907   7.134   2.150 -0.5996  0.5847 -0.3909
  192SAPI   O2222212   2.802   7.140   2.087 -0.0648  0.1859  0.0280
  192SAPI   C2222213   2.971   7.245   2.225 -0.4073 -0.1340  0.3143
  192SAPI   H2R22214   3.082   7.247   2.216 -0.3572 -0.8125  0.7011
  192SAPI   H2S22215   2.926   7.341   2.193  1.1722  1.3358  2.2156
  192SAPI    C322216   3.020   6.787   2.156  0.4392 -0.9705 -0.5126
  192SAPI    HX22217   3.128   6.802   2.135  1.1100 -0.6230  2.7230
  192SAPI    HY22218   2.996   6.695   2.099  1.7731 -1.6180 -0.0611
  192SAPI   O3122219   2.987   6.755   2.297 -0.3200 -0.1804  0.0646
  192SAPI   C3122220   2.872   6.699   2.311  0.0635 -0.0627  0.0851
  192SAPI   O3222221   2.787   6.678   2.228 -0.3422 -0.2359  0.1855
  192SAPI   C3222222   2.850   6.672   2.462 -0.1623  0.2147 -0.2243
  192SAPI   H2X22223   2.936   6.624   2.514  0.7287  0.6837 -1.2238
  192SAPI   H2Y22224   2.776   6.590   2.468  0.3543 -0.3743 -1.4890
  192SAPI   C2322225   2.934   7.229   2.374 -0.0617  0.4279 -0.0370
  192SAPI   H3R22226   2.977   7.131   2.404  2.1034  1.0862 -0.8266
  192SAPI   H3S22227   2.823   7.221   2.379 -0.1168  0.5082 -1.0838
  192SAPI   C2422228   2.991   7.346   2.463 -0.2671  0.4909 -0.5717
  192SAPI   H4R22229   3.102   7.338   2.466 -0.1892  1.3814 -0.9207
  192SAPI   H4S22230   2.957   7.319   2.566  0.2261 -0.7971 -0.7236
  192SAPI   C2522231   2.954   7.490   2.427 -0.8134  0.4957  0.1180
  192SAPI   H5R22232   2.900   7.508   2.333 -0.6386  1.6653  0.2267
  192SAPI   C2622233   2.989   7.598   2.506 -0.4614 -0.3047  0.6471
  192SAPI   H6R22234   2.956   7.699   2.477  1.6897  0.1943 -0.2811
  192SAPI   C2722235   3.063   7.590   2.636 -0.1393 -0.0464 -0.6609
  192SAPI   H7R22236   3.160   7.643   2.627  0.3692 -0.4608  1.6665
  192SAPI   H7S22237   3.098   7.488   2.662 -2.0295 -0.9539 -1.4508
  192SAPI   C2822238   2.988   7.656   2.753  0.5064  0.0066 -0.0824
  192SAPI   H8R22239   2.988   7.766   2.755  1.7289  0.0049  1.6219
  192SAPI   C2922240   2.923   7.597   2.857  0.0563 -0.3477  0.0369
  192SAPI   H9R22241   2.874   7.657   2.935  0.3135 -1.5769  1.1844
  192SAPI  C21022242   2.915   7.445   2.878  0.4778 -0.8309 -0.2368
  192SAPI  H10R22243   3.018   7.428   2.916  0.8416  0.8106 -0.4119
  192SAPI  H10S22244   2.900   7.384   2.787 -3.3727 -0.5655  0.0601
  192SAPI  C21122245   2.818   7.392   2.978 -0.4654  0.1616  0.5190
  192SAPI  H11R22246   2.723   7.346   2.946 -0.1448 -1.4766  1.7582
  192SAPI  C21222247   2.817   7.414   3.109 -0.1482 -0.4240 -0.8396
  192SAPI  H12R22248   2.740   7.366   3.171  0.0898  1.1714  0.7880
  192SAPI  C21322249   2.927   7.484   3.186  0.3870 -0.6779 -0.1354
  192SAPI  H13R22250   2.985   7.550   3.117 -0.1960 -0.6140 -0.5693
  192SAPI  H13S22251   3.000   7.412   3.229  1.2503  1.4861  2.3548
  192SAPI  C21422252   2.869   7.573   3.298  0.1916  0.1893  0.2171
  192SAPI  H14R22253   2.808   7.658   3.265  0.5579  0.5616  0.4836
  192SAPI  C21522254   2.910   7.568   3.427 -0.2836  0.0690  0.0844
  192SAPI  H15R22255   2.853   7.624   3.503  0.6343 -0.0866  0.9034
  192SAPI  C21622256   3.016   7.480   3.484  0.0357 -0.4393  0.4762
  192SAPI  H16R22257   3.109   7.500   3.426  0.2794 -2.1759  0.1956
  192SAPI  H16S22258   2.988   7.372   3.478 -0.3762 -0.3351  0.5566
  192SAPI  C21722259   3.054   7.509   3.628  0.2822 -0.7300 -0.5894
  192SAPI  H17R22260   3.117   7.426   3.666  2.8202  2.6387  3.4757
  192SAPI  H17S22261   2.965   7.512   3.694  0.9831  2.0692  0.3467
  192SAPI  C21822262   3.130   7.643   3.652 -0.3899  0.8582  0.4932
  192SAPI  H18R22263   3.066   7.731   3.626  0.8395  2.7188  3.3584
  192SAPI  H18S22264   3.225   7.655   3.596 -0.1565 -2.2228  0.0612
  192SAPI  C21922265   3.166   7.677   3.799  0.1732  0.0136 -0.1450
  192SAPI  H19R22266   3.238   7.601   3.835  2.1656  1.1927 -1.4485
  192SAPI  H19S22267   3.079   7.672   3.868  0.9941  2.5885  1.1960
  192SAPI  C22022268   3.220   7.817   3.820  0.9752 -0.3098  0.5001
  192SAPI  H20R22269   3.155   7.897   3.780 -0.5177 -1.8721 -0.2875
  192SAPI  H20S22270   3.312   7.820   3.757 -1.1764 -2.7695 -3.0526
  192SAPI  H20T22271   3.243   7.838   3.927 -0.0571  1.0847  0.4811
  192SAPI   C3322272   2.801   6.802   2.537 -0.3483  0.0814  0.2678
  192SAPI   H3X22273   2.720   6.841   2.472 -1.1985 -2.3751 -0.2512
  192SAPI   H3Y22274   2.884   6.876   2.542 -0.0395 -0.2385 -0.0535
  192SAPI   C3422275   2.740   6.781   2.676  0.3056 -0.2444 -0.6876
  192SAPI   H4X22276   2.642   6.732   2.656 -0.2871  0.7580 -0.3173
  192SAPI   H4Y22277   2.709   6.880   2.717  1.1882  0.5857 -1.9472
  192SAPI   C3522278   2.823   6.697   2.762 -0.2837  0.4659 -0.5434
  192SAPI   H5X22279   2.926   6.680   2.725  0.3286 -2.5354  2.1404
  192SAPI   H5Y22280   2.775   6.597   2.765 -1.1073  0.8704  1.1479
  192SAPI   C3622281   2.840   6.739   2.907  0.3544 -0.4130 -0.3696
  192SAPI   H6X22282   2.741   6.774   2.942 -0.7428 -1.1670 -2.5262
  192SAPI   H6Y22283   2.898   6.834   2.903  1.2178 -0.9745 -2.6493
  192SAPI   C3722284   2.909   6.641   3.001  0.3665 -0.0686  0.3045
  192SAPI   H7X22285   2.994   6.604   2.940 -0.0614  0.5488 -0.6880
  192SAPI   H7Y22286   2.849   6.548   3.010  2.0514 -1.3146 -0.7249
  192SAPI   C3822287   2.956   6.706   3.135  0.6930  0.3417 -0.1951
  192SAPI   H8X22288   2.872   6.772   3.165 -1.0308 -0.9619 -1.8597
  192SAPI   H8Y22289   3.050   6.759   3.110  1.9356 -0.6502  1.9991
  192SAPI   C3922290   2.991   6.601   3.242  0.7678 -0.3546  0.5996
  192SAPI   H9X22291   3.061   6.529   3.195  1.2179 -0.6538  1.6945
  192SAPI   H9Y22292   2.897   6.549   3.271  1.3812 -2.4078 -0.7817
  192SAPI  C31022293   3.073   6.640   3.366  0.2062 -0.3504 -0.3838
  192SAPI  H10X22294   3.077   6.557   3.440 -1.3455  0.9391  1.2413
  192SAPI  H10Y22295   3.030   6.727   3.420  0.9829  0.3278 -0.8223
  192SAPI  C31122296   3.222   6.673   3.345 -0.2686  0.1486  0.2894
  192SAPI  H11X22297   3.228   6.779   3.312 -2.4492  0.7102  1.4782
  192SAPI  H11Y22298   3.251   6.594   3.273 -0.9597 -2.6301  2.8633
  192SAPI  C31222299   3.316   6.658   3.468  0.3473 -0.8964  0.1728
  192SAPI  H12X22300   3.305   6.561   3.522  0.1182 -1.2058 -0.4139
  192SAPI  H12Y22301   3.301   6.744   3.536  0.3426  0.8155 -1.8678
  192SAPI  C31322302   3.464   6.674   3.429  0.6361  0.0130 -0.0832
  192SAPI  H13X22303   3.515   6.655   3.526  0.3738  2.0528  0.4848
  192SAPI  H13Y22304   3.497   6.773   3.393  3.1939 -1.3037 -1.6986
  192SAPI  C31422305   3.527   6.570   3.325  0.1451 -0.3572  0.4984
  192SAPI  H14X22306   3.637   6.580   3.318  0.0387  1.3686  0.9281
  192SAPI  H14Y22307   3.489   6.598   3.225  1.5825  1.2484  0.3576
  192SAPI  C31522308   3.494   6.425   3.364  0.1240 -0.1808  0.1174
  192SAPI  H15X22309   3.384   6.419   3.347  0.5401 -0.8085 -2.8883
  192SAPI  H15Y22310   3.531   6.412   3.468  2.6426  3.3698 -0.1351
  192SAPI  C31622311   3.574   6.331   3.277  0.1296  0.2995 -0.1895
  192SAPI  H16X22312   3.682   6.359   3.274 -0.0007  1.4859  2.9172
  192SAPI  H16Y22313   3.538   6.337   3.172 -0.6801 -0.9153  0.0085
  192SAPI  C31722314   3.572   6.189   3.334  0.4969 -0.5454 -0.4267
  192SAPI  H17X22315   3.466   6.157   3.322  0.3523  0.1238 -0.9411
  192SAPI  H17Y22316   3.601   6.171   3.440 -0.4270 -0.1510 -0.0971
  192SAPI  C31822317   3.664   6.106   3.251 -0.3394 -0.1720 -0.6243
  192SAPI  H18X22318   3.771   6.135   3.252  0.3803 -2.5139 -2.0308
  192SAPI  H18Y22319   3.632   6.095   3.146 -2.1276  0.3750 -0.1728
  192SAPI  H18Z22320   3.666   6.012   3.311 -0.4292  1.9097  2.9167
  193SOD    SOD22321   2.324   1.855   6.695  0.0323 -0.0138  0.7184
  194SOD    SOD22322   1.121   4.096   7.837 -0.3546  0.2158  0.0304
  195SOD    SOD22323   0.871   3.740   1.277  0.1795  0.2855 -0.1770
  196SOD    SOD22324   4.487   3.999   6.237  0.4914  0.7452  0.6351
  197SOD    SOD22325   3.965   6.148   1.364  0.0905 -0.0783  0.4438
  198SOD    SOD22326   2.334   3.248   2.081 -0.2815  0.1720  0.3653
  199SOD    SOD22327   3.230   1.887   7.423 -0.1397 -0.1812  0.4369
  200SOD    SOD22328   0.368   0.332   1.157  0.3618  0.2532 -0.2042
  201SOD    SOD22329   3.474   1.477   7.791 -0.6211  0.1696 -0.1752
  202SOD    SOD22330   1.055   2.057   1.709  0.2295 -0.0214  0.0021
  203SOD    SOD22331   5.845   0.532   6.544 -0.2164  0.3905 -0.4924
  204SOD    SOD22332   1.168   6.816   1.147 -0.2576  0.2092 -0.4096
  205SOD    SOD22333   1.475   4.048   7.138  0.0619  0.0852 -0.3870
  206SOD    SOD22334   4.411   4.787   6.980  0.3764  0.0996  0.1388
  207SOD    SOD22335   2.391   3.228   6.146 -0.3798 -0.0759  0.4537
  208SOD    SOD22336   5.721   6.182   6.772 -0.3465 -0.3561 -0.3064
  209SOD    SOD22337   0.374   1.607   6.604  0.2577  0.3000 -0.0935
  210SOD    SOD22338   5.820   6.891   6.398 -0.3271 -0.4142  0.0516
  211SOD    SOD22339   3.857   3.362   1.917 -0.4252  0.6210  0.2385
  212SOD    SOD22340   3.881   3.114   0.435  0.2059  0.4862  0.0054
  213SOD    SOD22341   5.202   3.812   1.004  0.7607 -0.3190  0.0656
  214SOD    SOD22342   6.375   6.312   1.508  0.1701  0.4316 -0.3113
  215SOD    SOD22343   4.082   0.177   6.363  0.2732  0.4368 -0.1639
  216SOD    SOD22344   4.801   5.992   0.550  0.1541 -0.0111  0.4214
  217SOD    SOD22345   6.817   6.040   1.887 -0.1400 -0.7234  0.2467
  218SOD    SOD22346   2.234   3.380   1.506  0.1616 -0.6182  0.1076
  219SOD    SOD22347   5.755   1.877   1.676 -0.0357  0.2714 -0.4180
  220SOD    SOD22348   7.062   3.104   0.514  0.2248 -0.1628  0.2783
  221SOD    SOD22349   5.192   6.335   0.224 -0.1907 -0.0563 -0.8693
  222SOD    SOD22350   1.820   7.006   7.974  0.0911 -0.1670 -0.0267
  223SOD    SOD22351   0.214   0.899   6.483  0.5585  0.1704  0.2407
  224SOD    SOD22352   1.070   7.104   1.737 -0.1650  0.3708  0.0388
  225SOD    SOD22353   6.990   5.651   5.830  0.1521 -0.4764  0.0674
  226SOD    SOD22354   2.363   5.806   6.574 -0.6308 -0.2343  0.5354
  227SOD    SOD22355   7.219   4.710   0.468  0.0043  0.1453 -0.0129
  228SOD    SOD22356   3.240   6.496   6.875 -0.3716  0.0246  0.3744
  229SOD    SOD22357   0.048   6.606   0.181  0.1893  0.3551  0.0226
  230CLA    CLA22358   1.359   0.638   0.404 -0.1791  0.4727  0.0260
  231CLA    CLA22359   0.345   4.482   6.899 -0.2664 -0.1535  0.0243
  232CLA    CLA22360   5.889   1.814   7.258 -0.1848  0.1464 -0.2554
  233CLA    CLA22361   4.713   6.275   0.093 -0.2468 -0.0382 -0.2847
  234CLA    CLA22362   2.748   3.310   0.144 -0.0573  0.0764 -0.3433
  235CLA    CLA22363   6.811   3.012   0.055  0.3734  0.2987 -0.1617
  236CLA    CLA22364   4.906   5.904   0.787  0.0479  0.5178  0.1215
  237CLA    CLA22365   4.124   2.474   0.290  0.1855 -0.1727 -0.1817
  238CLA    CLA22366   2.663   2.952   0.776 -0.3706  0.5414 -0.1166
  239CLA    CLA22367   6.184   5.400   1.458 -0.0722 -0.2044 -0.2931
  240CLA    CLA22368   4.787   7.088   7.219  0.3652 -0.1436  0.3895
  241CLA    CLA22369   3.973   3.623   7.599 -0.5739 -0.3041  0.1058
  242CLA    CLA22370   1.629   5.009   1.341 -0.5845  0.2607 -0.1593
  243CLA    CLA22371   4.544   3.380   1.168 -0.2402  0.6802 -0.1549
  244CLA    CLA22372   6.118   5.028   0.390  0.2273 -0.3185 -0.3550
  245CLA    CLA22373   2.031   4.414   7.958 -0.5087 -0.0553  0.2399
  246CLA    CLA22374   5.583   6.875   6.570 -0.0409  0.0703  0.2735
  247TIP3   OH222375   1.536   0.053   7.811 -0.2950 -0.5214 -0.1135
  247TIP3    H122376   1.562  -0.037   7.788  1.9458  0.0472 -0.1044
  247TIP3    H222377   1.517   0.049   7.905  0.4567 -0.8817  0.0347
  248TIP3   OH222378   5.410   1.845   7.313 -0.6025 -0.6126  0.2261
  248TIP3    H122379   5.493   1.893   7.306 -0.8115 -0.3450 -0.5186
  248TIP3    H222380   5.391   1.844   7.407  0.3476 -0.8584  0.4303
  249TIP3   OH222381   7.172   3.179   1.117  0.4979 -0.0091  0.3845
  249TIP3    H122382   7.209   3.099   1.154  0.2013 -0.4788 -0.3185
  249TIP3    H222383   7.122   3.217   1.190 -0.4531 -1.1621  0.3833
  250TIP3   OH222384   1.111   2.046   6.077  0.2794  0.1107  0.0300
  250TIP3    H122385   1.152   2.002   6.151 -0.7004 -2.0928 -0.6650
  250TIP3    H222386   1.184   2.080   6.025  1.1719 -1.9336 -0.1252
  251TIP3   OH222387   3.349   3.796   7.647  0.4691 -0.1641  0.0605
  251TIP3    H122388   3.360   3.714   7.696  1.9140 -0.2417 -0.3488
  251TIP3    H222389   3.415   3.855   7.684  0.3889  0.3509 -0.6036
  252TIP3   OH222390   1.633   4.821   1.587 -0.1457 -0.2555 -0.2146
  252TIP3    H122391   1.600   4.735   1.560 -0.4987 -0.1167 -0.2278
  252TIP3    H222392   1.625   4.875   1.508 -0.8900  0.0672  0.0788
  253TIP3   OH222393   7.128   0.070   0.505 -0.6404 -0.4632  0.4450
  253TIP3    H122394   7.052   0.128   0.510 -1.2406 -1.0334 -1.2037
  253TIP3    H222395   7.199   0.124   0.471 -1.0427 -0.5189 -0.5280
  254TIP3   OH222396   6.327   6.460   7.270  0.1599 -0.3942 -0.6152
  254TIP3    H122397   6.385   6.412   7.211  2.7244  1.6485  0.0515
  254TIP3    H222398   6.351   6.552   7.258 -2.5457  0.5166  0.2139
  255TIP3   OH222399   3.394   5.412   5.919 -0.2723 -0.1680  0.2987
  255TIP3    H122400   3.326   5.350   5.893 -0.1370  0.4346 -1.7092
  255TIP3    H222401   3.346   5.482   5.963 -0.9962  0.2283 -1.0579
  256TIP3   OH222402   4.958   5.603   6.546 -0.2330 -1.2499  0.1416
  256TIP3    H122403   5.053   5.598   6.540  0.0532  2.1232  0.5096
  256TIP3    H222404   4.928   5.574   6.459  1.1788 -1.1799 -0.3954
  257TIP3   OH222405   3.303   2.839   5.882  0.1114 -0.4491 -0.0620
  257TIP3    H122406   3.350   2.826   5.799 -0.4109  0.6879 -0.5489
  257TIP3    H222407   3.337   2.922   5.916 -0.9792  0.0120 -0.0495
  258TIP3   OH222408   0.459   3.630   6.596 -0.2208 -0.3425 -0.1591
  258TIP3    H122409   0.508   3.571   6.539  0.2627 -2.0407  1.8630
  258TIP3    H222410   0.368   3.599   6.589  0.1753 -2.2457  1.7332
  259TIP3   OH222411   5.672   1.372   6.436 -0.0362 -0.3286 -0.3215
  259TIP3    H122412   5.649   1.312   6.365  0.4156 -1.3611  0.3854
  259TIP3    H222413   5.588   1.408   6.465 -0.3889 -1.2047 -0.2417
  260TIP3   OH222414   0.118   3.986   7.977 -0.0154 -0.2957 -0.1293
  260TIP3    H122415   0.174   4.020   8.047  0.6305 -0.1357 -0.7174
  260TIP3    H222416   0.033   3.973   8.019  0.0402  0.9165  0.4026
  261TIP3   OH222417   5.066   3.675   7.468  0.5209  0.2431  0.5593
  261TIP3    H122418   5.053   3.606   7.534 -0.8089  0.3865  0.4737
  261TIP3    H222419   4.992   3.665   7.409  1.6822  0.1386 -0.9371
  262TIP3   OH222420   3.530   7.142   7.275  0.0504  0.2375 -0.4065
  262TIP3    H122421   3.581   7.067   7.306  0.6665  0.9628  0.3658
  262TIP3    H222422   3.532   7.134   7.179  0.1779 -0.6831 -0.3362
  263TIP3   OH222423   5.987   0.082   6.967  0.0310  0.4527 -0.0287
  263TIP3    H122424   5.986   0.026   6.890 -1.3985  1.8215 -1.0699
  263TIP3    H222425   6.017   0.167   6.936  1.1726  0.5791  1.3089
  264TIP3   OH222426   5.988   4.386   1.953  0.4717 -0.5264  0.1418
  264TIP3    H122427   5.935   4.307   1.960  1.5415 -1.3036 -0.1245
  264TIP3    H222428   5.997   4.417   2.043  0.6403 -1.1288  0.3413
  265TIP3   OH222429   4.729   3.572   0.203 -0.1363 -0.0092  0.4777
  265TIP3    H122430   4.659   3.635   0.218 -1.5833 -1.3064 -0.5044
  265TIP3    H222431   4.769   3.559   0.289 -1.5190  0.2934  1.1905
  266TIP3   OH222432   2.568   3.207   7.661 -0.1937 -0.1868  0.5806
  266TIP3    H122433   2.557   3.262   7.738 -0.5793  0.9232 -0.2340
  266TIP3    H222434   2.478   3.186   7.633 -0.1101  0.7581 -0.4703
  267TIP3   OH222435   3.769   4.936   0.048 -0.3604 -0.4514 -0.3266
  267TIP3    H122436   3.705   4.964   0.113 -0.2452 -0.7127 -0.0996
  267TIP3    H222437   3.847   4.990   0.066 -0.5183 -0.1246 -0.6110
  268TIP3   OH222438   0.825   1.835   7.550  0.0918  0.1179  0.4200
  268TIP3    H122439   0.775   1.851   7.470  1.2950  0.9195 -0.1901
  268TIP3    H222440   0.885   1.764   7.526  0.7992  0.7016  0.4535
  269TIP3   OH222441   2.073   6.586   6.056 -0.3024 -0.2030 -0.0612
  269TIP3    H122442   2.029   6.646   5.995  0.0337  0.8037  0.6475
  269TIP3    H222443   2.099   6.512   6.002 -0.3572  0.4785 -1.0654
  270TIP3   OH222444   0.531   1.722   6.738  0.0500  0.1933  0.0645
  270TIP3    H122445   0.537   1.813   6.710 -1.5783  0.1947 -0.3762
  270TIP3    H222446   0.552   1.724   6.831 -1.4762  1.2658  0.4078
  271TIP3   OH222447   3.785   1.380   0.789  0.4938  0.4418  0.0356
  271TIP3    H122448   3.810   1.357   0.878 -2.6234 -0.9614  0.7018
  271TIP3    H222449   3.828   1.315   0.733 -0.4649 -1.0352  0.9525
  272TIP3   OH222450   5.284   4.942   0.391  0.6119 -0.0699  0.1043
  272TIP3    H122451   5.315   4.974   0.476  0.4599  0.1722  0.0692
  272TIP3    H222452   5.198   4.905   0.409 -0.1361  1.4249 -0.2164
  273TIP3   OH222453   1.291   6.577   6.439 -0.3655  0.0525  0.1190
  273TIP3    H122454   1.208   6.586   6.393 -0.6256 -0.4536  0.4778
  273TIP3    H222455   1.273   6.603   6.529 -0.4572 -1.2292  0.4993
  274TIP3   OH222456   0.513   1.081   7.861 -0.8758 -0.4059  0.1533
  274TIP3    H122457   0.538   0.990   7.879 -0.2517 -0.1052  0.8777
  274TIP3    H222458   0.505   1.121   7.948  0.6727  0.7084 -0.1842
  275TIP3   OH222459   2.630   1.642   0.139 -0.0745 -0.5495  0.3562
  275TIP3    H122460   2.549   1.652   0.188 -0.4152 -1.1613 -0.0718
  275TIP3    H222461   2.610   1.676   0.052  0.1961 -0.4775  0.3216
  276TIP3   OH222462   1.552   7.164   1.520  0.9157  0.3155  0.4571
  276TIP3    H122463   1.605   7.110   1.578 -0.2321 -0.2931  0.9744
  276TIP3    H222464   1.516   7.103   1.456 -0.3297  0.4438  0.9996
  277TIP3   OH222465   2.390   5.767   6.321 -0.0322  0.1262 -0.1428
  277TIP3    H122466   2.311   5.807   6.285  0.7373  2.4050  0.5050
  277TIP3    H222467   2.458   5.834   6.309  1.9481 -1.8929 -1.0746
  278TIP3   OH222468   2.580   3.555   7.707 -0.4738  0.5840  0.2932
  278TIP3    H122469   2.497   3.599   7.692 -2.0424 -1.8456  1.2275
  278TIP3    H222470   2.572   3.516   7.794  0.7574 -1.4996 -0.4501
  279TIP3   OH222471   1.455   2.324   6.217  0.0336  0.3969 -0.6229
  279TIP3    H122472   1.523   2.388   6.195  1.0114 -0.1337  0.7267
  279TIP3    H222473   1.389   2.374   6.265  0.0267  0.6894 -0.9331
  280TIP3   OH222474   0.211   2.240   7.780  0.4430 -0.6154  0.1218
  280TIP3    H122475   0.141   2.198   7.830  0.1558  0.0812  0.3214
  280TIP3    H222476   0.271   2.273   7.847  0.1316  0.1950  0.0212
  281TIP3   OH222477   2.968   5.519   0.072 -0.2752 -0.6010 -0.1346
  281TIP3    H122478   2.889   5.549   0.027  0.7707  1.3074 -0.8438
  281TIP3    H222479   3.012   5.600   0.098  2.0194 -1.5493 -0.7953
  282TIP3   OH222480   2.118   3.137   5.827  0.2390 -0.7702 -0.4701
  282TIP3    H122481   2.090   3.083   5.901  1.1883 -0.5374  0.0839
  282TIP3    H222482   2.159   3.076   5.766 -1.6399 -1.1558 -1.4165
  283TIP3   OH222483   7.134   0.287   7.950 -0.6696  0.1047 -0.1407
  283TIP3    H122484   7.161   0.379   7.944 -0.6455  0.1658  0.8360
  283TIP3    H222485   7.040   0.289   7.935 -0.4268  0.0658 -1.9499
  284TIP3   OH222486   1.229   1.711   6.428 -0.0522  0.1627 -0.1215
  284TIP3    H122487   1.311   1.661   6.427  0.4087  0.8732 -2.0958
  284TIP3    H222488   1.180   1.679   6.352 -0.1583  2.0163 -0.8798
  285TIP3   OH222489   3.105   6.420   7.046  0.0539 -0.2144  0.7303
  285TIP3    H122490   3.147   6.360   7.108  0.6036  2.1326  2.8190
  285TIP3    H222491   3.073   6.491   7.101  1.2981  2.4518 -1.7420
  286TIP3   OH222492   5.183   3.010   0.021 -0.1951  0.1510 -0.6854
  286TIP3    H122493   5.130   3.079  -0.019 -2.1557 -1.6051 -1.2881
  286TIP3    H222494   5.141   2.993   0.105  0.1072 -0.4506 -0.6473
  287TIP3   OH222495   3.536   3.166   1.209  0.3848 -0.2714  0.1231
  287TIP3    H122496   3.553   3.076   1.182  0.3566 -0.1144 -0.4318
  287TIP3    H222497   3.444   3.181   1.185 -0.0374 -0.5333  1.4653
  288TIP3   OH222498   6.195   1.552   5.616  0.2120  0.1805  0.0829
  288TIP3    H122499   6.187   1.544   5.711 -1.7755 -2.9946 -0.1781
  288TIP3    H222500   6.275   1.602   5.602  0.4041  1.0148  3.4093
  289TIP3   OH222501   2.047   7.055   7.289  0.4144  0.0122  0.3775
  289TIP3    H122502   2.082   7.130   7.337 -1.4406  0.5461  0.9753
  289TIP3    H222503   1.955   7.076   7.275 -0.0625 -1.9685  0.2031
  290TIP3   OH222504   3.044   1.039   7.791  0.0608  0.0295 -0.1448
  290TIP3    H122505   3.002   1.068   7.872  0.0270  1.4365 -0.6320
  290TIP3    H222506   2.971   1.020   7.732  0.0479  1.3337 -0.6011
  291TIP3   OH222507   6.171   0.800   0.060 -0.2497 -0.0868  0.1107
  291TIP3    H122508   6.181   0.773   0.151 -0.9753  1.2104  0.6036
  291TIP3    H222509   6.143   0.891   0.065 -0.7753 -0.1349 -1.4086
  292TIP3   OH222510   5.358   5.180   6.920  0.3319 -0.0533  0.7554
  292TIP3    H122511   5.433   5.239   6.908 -1.2214  1.9253  0.1958
  292TIP3    H222512   5.301   5.199   6.846 -1.6040 -0.0977  2.1716
  293TIP3   OH222513   2.824   3.727   1.057  0.3659 -0.2814  0.1656
  293TIP3    H122514   2.768   3.655   1.030 -1.1039  0.9819 -0.3143
  293TIP3    H222515   2.773   3.776   1.122  2.1597 -0.8160  2.1211
  294TIP3   OH222516   0.338   2.757   6.198 -0.2966 -0.4315 -0.7502
  294TIP3    H122517   0.332   2.661   6.197 -0.6707 -0.4089 -1.5083
  294TIP3    H222518   0.325   2.782   6.107  2.4784  0.2059 -1.0319
  295TIP3   OH222519   3.656   2.674   7.048 -0.1160 -0.5130 -0.1291
  295TIP3    H122520   3.714   2.746   7.074 -2.2663  1.2483  0.1572
  295TIP3    H222521   3.642   2.624   7.128  0.1948 -0.3495  0.0308
  296TIP3   OH222522   6.774   3.080   1.179  0.0858 -0.5271 -0.2528
  296TIP3    H122523   6.705   3.071   1.245 -0.3449  1.0023 -0.4528
  296TIP3    H222524   6.855   3.061   1.226 -0.1799  0.8764  0.8320
  297TIP3   OH222525   1.946   6.403   6.952  0.0729  0.2304 -0.3870
  297TIP3    H122526   1.974   6.494   6.959  2.5778 -0.3150 -2.0949
  297TIP3    H222527   1.862   6.407   6.906  0.0779  1.6707 -0.3155
  298TIP3   OH222528   2.026   7.119   0.620 -0.4123 -0.3395 -0.0829
  298TIP3    H122529   1.995   7.189   0.563 -1.3896 -1.8843 -1.5511
  298TIP3    H222530   1.947   7.087   0.663  0.0632 -0.3838  0.7678
  299TIP3   OH222531   6.538   3.466   1.085  0.6172  0.3657 -0.2031
  299TIP3    H122532   6.625   3.505   1.100  0.6787  0.8009 -1.5156
  299TIP3    H222533   6.477   3.529   1.122  0.7940  0.9481 -0.8713
  300TIP3   OH222534   5.590   5.333   0.924  0.1339  0.3746 -0.1580
  300TIP3    H122535   5.595   5.276   1.000 -1.1790 -0.5858 -0.7512
  300TIP3    H222536   5.587   5.273   0.849  0.1271  1.2589 -0.8848
  301TIP3   OH222537   5.236   0.210   1.485 -0.1234 -0.0965  0.5786
  301TIP3    H122538   5.172   0.256   1.431 -2.0483 -0.4352  2.4336
  301TIP3    H222539   5.284   0.280   1.530  1.8846  0.2112 -1.8284
  302TIP3   OH222540   5.229   6.684   7.239  0.0326 -0.6840  0.2115
  302TIP3    H122541   5.160   6.747   7.218  0.2173 -0.3388  0.6229
  302TIP3    H222542   5.307   6.718   7.196  0.7847  0.8616  2.6028
  303TIP3   OH222543   4.336   3.882   0.918  0.2762 -0.5531 -0.6146
  303TIP3    H122544   4.250   3.845   0.895 -1.6329  1.6951  2.1982
  303TIP3    H222545   4.352   3.852   1.007  0.0634  2.6627  0.6479
  304TIP3   OH222546   3.649   3.623   5.997  0.0084  0.2542  0.3751
  304TIP3    H122547   3.562   3.597   5.967  0.4567 -0.2359 -0.5318
  304TIP3    H222548   3.678   3.552   6.053 -0.4759  0.7737  1.3128
  305TIP3   OH222549   2.421   4.086   6.257  0.0858  0.1142 -0.2854
  305TIP3    H122550   2.437   3.994   6.234  1.4489 -0.1364  1.4688
  305TIP3    H222551   2.498   4.112   6.307  0.2676  2.6032 -1.7162
  306TIP3   OH222552   3.981   2.250   7.471  0.2507 -0.0601  0.1249
  306TIP3    H122553   3.934   2.167   7.474 -0.3938  0.3025  0.2294
  306TIP3    H222554   4.007   2.260   7.379  1.4558 -0.9778  0.3300
  307TIP3   OH222555   1.395   4.060   7.346 -0.0731  0.1834  0.0617
  307TIP3    H122556   1.400   4.049   7.441 -1.8305  0.3348  0.2147
  307TIP3    H222557   1.302   4.051   7.326  0.2264  0.4494 -1.6184
  308TIP3   OH222558   1.070   0.451   6.598  0.7004  0.3007  0.0361
  308TIP3    H122559   0.990   0.493   6.565  0.2071 -0.0717  0.7260
  308TIP3    H222560   1.055   0.358   6.585  1.3937  0.2681 -0.6140
  309TIP3   OH222561   1.178   3.366   6.412 -0.3857  0.4363  0.1611
  309TIP3    H122562   1.227   3.388   6.491  1.4404 -0.4439 -0.6653
  309TIP3    H222563   1.241   3.378   6.341 -1.4307 -0.5599 -0.9745
  310TIP3   OH222564   1.449   4.268   1.391 -0.2612  0.0750  0.3592
  310TIP3    H122565   1.418   4.185   1.428 -0.0907 -0.1554 -0.0135
  310TIP3    H222566   1.407   4.335   1.445 -0.7826 -0.2441  0.3544
  311TIP3   OH222567   3.712   3.134   7.691  0.3488 -0.1873 -0.3711
  311TIP3    H122568   3.731   3.169   7.604 -0.0883 -1.7787 -1.1421
  311TIP3    H222569   3.671   3.049   7.675 -0.8852  0.0119  1.3640
  312TIP3   OH222570   3.226   4.054   1.359  0.5138 -0.6988  0.5105
  312TIP3    H122571   3.321   4.065   1.354  0.4875 -0.8843 -2.2494
  312TIP3    H222572   3.213   3.963   1.384  1.0852 -0.8718  0.1908
  313TIP3   OH222573   6.720   2.558   1.452 -0.0437  0.6687  0.2080
  313TIP3    H122574   6.801   2.586   1.495  1.0462  1.3240 -2.0882
  313TIP3    H222575   6.696   2.632   1.395 -2.4399  0.5865  0.9919
  314TIP3   OH222576   5.001   1.531   1.977 -0.2648 -0.1148 -0.5476
  314TIP3    H122577   4.941   1.489   2.038 -1.6622  1.1626 -0.9942
  314TIP3    H222578   5.010   1.469   1.905 -0.2863 -0.7107 -0.0473
  315TIP3   OH222579   1.529   6.560   1.716  0.5502  0.6188  0.5848
  315TIP3    H122580   1.537   6.654   1.733 -0.2981  0.8227 -0.1049
  315TIP3    H222581   1.548   6.550   1.623  1.8949 -0.0791  0.8967
  316TIP3   OH222582   5.301   4.535   6.322  0.0609  0.0586 -0.0303
  316TIP3    H122583   5.317   4.593   6.247  2.0503 -0.0654  0.2396
  316TIP3    H222584   5.343   4.580   6.396  0.4338 -1.0682  0.4582
  317TIP3   OH222585   5.808   1.346   7.902 -0.4532 -0.2044  0.9408
  317TIP3    H122586   5.781   1.411   7.838  0.2038 -0.9927 -0.1759
  317TIP3    H222587   5.787   1.262   7.861  1.6215 -0.7832  0.9537
  318TIP3   OH222588   4.859   2.050   0.249  0.5820  0.1430  0.2375
  318TIP3    H122589   4.815   2.023   0.330 -0.0983 -0.3764 -0.2931
  318TIP3    H222590   4.951   2.027   0.263 -0.0906 -3.9640 -0.6879
  319TIP3   OH222591   2.147   0.154   6.599  0.4185 -0.7163  0.2014
  319TIP3    H122592   2.149   0.152   6.695  0.0099 -1.1529  0.2079
  319TIP3    H222593   2.204   0.227   6.575  0.4909 -0.5765  0.7793
  320TIP3   OH222594   5.161   3.319   1.037 -0.3149  0.2044 -0.6977
  320TIP3    H122595   5.095   3.250   1.049  0.5235 -0.5464 -0.2868
  320TIP3    H222596   5.235   3.290   1.090 -0.2049  1.7881  0.0616
  321TIP3   OH222597   6.232   4.139   1.754 -0.4248  1.0454  0.3246
  321TIP3    H122598   6.260   4.136   1.846  1.6880  0.9465 -0.2804
  321TIP3    H222599   6.180   4.060   1.742 -0.0066  0.6161  1.2258
  322TIP3   OH222600   6.536   7.082   7.334  0.8181  0.0344 -0.3862
  322TIP3    H122601   6.480   7.150   7.372  0.6780  1.2155 -2.5446
  322TIP3    H222602   6.556   7.024   7.407 -2.1945  0.2439  0.7337
  323TIP3   OH222603   1.783   0.547   6.497 -0.2655 -0.1840 -0.5626
  323TIP3    H122604   1.790   0.541   6.401 -0.4247 -0.4607 -0.5594
  323TIP3    H222605   1.842   0.479   6.529  0.2054  0.2676 -0.4474
  324TIP3   OH222606   2.653   0.691   7.874  0.2541  0.4347  0.0996
  324TIP3    H122607   2.698   0.681   7.790 -2.3402  1.9552 -1.6234
  324TIP3    H222608   2.673   0.780   7.902  0.2070  0.3115  0.5428
  325TIP3   OH222609   1.045   6.958   1.933 -0.2187  0.1256  0.1987
  325TIP3    H122610   1.114   6.891   1.936 -0.8442 -0.5150  0.4565
  325TIP3    H222611   0.963   6.909   1.931 -0.6607  0.8629 -1.1746
  326TIP3   OH222612   6.868   2.395   2.073  0.4920  0.1312  0.0520
  326TIP3    H122613   6.861   2.384   2.168 -0.0116  0.3969  0.0488
  326TIP3    H222614   6.785   2.436   2.047  1.4895  2.1019 -0.2083
  327TIP3   OH222615   4.456   1.995   0.910  0.6286  0.1593 -0.0468
  327TIP3    H122616   4.380   1.947   0.943  1.1766 -0.8741 -0.2382
  327TIP3    H222617   4.423   2.043   0.834 -0.1468  0.8510  0.7037
  328TIP3   OH222618   4.100   5.618   6.893 -0.1407  0.5078 -0.2105
  328TIP3    H122619   4.020   5.650   6.851 -0.0368 -1.3145 -1.9651
  328TIP3    H222620   4.140   5.697   6.931 -2.3619  1.5698  0.0908
  329TIP3   OH222621   5.784   0.162   1.737  0.2556  0.3260 -0.4367
  329TIP3    H122622   5.726   0.237   1.725 -0.1592 -0.0547 -0.8644
  329TIP3    H222623   5.726   0.086   1.737  0.6022  0.0392  0.6595
  330TIP3   OH222624   3.900   2.758   6.843 -0.1975  0.0341 -0.4481
  330TIP3    H122625   3.862   2.810   6.914  1.1730 -0.6678  0.8532
  330TIP3    H222626   3.895   2.815   6.766  0.9832  2.0273  0.8468
  331TIP3   OH222627   3.869   4.100   6.666 -0.2343 -0.1322 -0.0057
  331TIP3    H122628   3.853   4.174   6.608 -1.3284  0.1025  0.5625
  331TIP3    H222629   3.914   4.138   6.742  1.7516 -0.5375 -0.9150
  332TIP3   OH222630   5.802   4.288   0.296  0.0669  0.4243  0.7133
  332TIP3    H122631   5.777   4.360   0.238  0.3401 -0.3460 -0.3796
  332TIP3    H222632   5.738   4.219   0.278  1.3774 -0.6017 -0.2162
  333TIP3   OH222633   2.646   0.537   1.906  0.2203  0.5992  0.0732
  333TIP3    H122634   2.651   0.545   2.001 -0.9071  0.1255  0.1791
  333TIP3    H222635   2.557   0.507   1.888  0.8606 -0.7580 -1.0380
  334TIP3   OH222636   1.797   5.189   0.568  0.7289 -0.4593  0.3051
  334TIP3    H122637   1.830   5.160   0.652  0.9427 -1.1549 -0.0167
  334TIP3    H222638   1.870   5.236   0.528  0.8002 -0.5965  0.2761
  335TIP3   OH222639   0.910   2.015   1.218 -0.0418 -0.3808 -0.2479
  335TIP3    H122640   1.006   2.022   1.221 -0.1329  1.7596 -0.4973
  335TIP3    H222641   0.881   2.105   1.201 -2.2294 -0.5115  2.3308
  336TIP3   OH222642   0.140   3.974   6.991 -0.0759  0.3582  0.1977
  336TIP3    H122643   0.172   4.055   6.950 -1.7967  1.0258  0.0758
  336TIP3    H222644   0.051   3.996   7.021 -0.1736 -1.1728  1.1468
  337TIP3   OH222645   6.382   2.083   6.945  0.2005  0.1191  0.1226
  337TIP3    H122646   6.318   2.155   6.943  2.0721  1.8578 -0.2538
  337TIP3    H222647   6.460   2.119   6.902  0.7507 -2.6516 -1.4253
  338TIP3   OH222648   3.566   4.572   6.922 -0.7193  0.1159 -0.4834
  338TIP3    H122649   3.549   4.513   6.996 -0.0592 -0.9799 -1.1649
  338TIP3    H222650   3.495   4.636   6.925 -1.4516 -0.7004  0.3144
  339TIP3   OH222651   0.468   2.301   5.917 -0.6106 -0.3151  0.4504
  339TIP3    H122652   0.539   2.344   5.964 -1.0079  0.5789  0.2571
  339TIP3    H222653   0.398   2.367   5.914 -1.7476 -1.4272  1.3137
  340TIP3   OH222654   2.503   5.041   7.301  0.2967  0.0192  0.6351
  340TIP3    H122655   2.535   4.972   7.243  0.7528  1.1238 -0.4974
  340TIP3    H222656   2.437   5.087   7.249 -1.1068 -0.4867  1.9244
  341TIP3   OH222657   3.779   5.604   6.182 -0.2730  0.0527  0.3871
  341TIP3    H122658   3.874   5.595   6.178 -0.3010 -0.6958  1.0667
  341TIP3    H222659   3.759   5.676   6.123  0.8205  1.0080  1.1415
  342TIP3   OH222660   5.895   3.346   7.707  0.9408  0.4594 -0.0527
  342TIP3    H122661   5.974   3.301   7.736 -0.9300 -0.7889  3.8408
  342TIP3    H222662   5.854   3.286   7.646  0.8359 -1.0287  1.4179
  343TIP3   OH222663   1.466   3.821   7.127 -0.2293 -0.2188  0.0494
  343TIP3    H122664   1.387   3.769   7.114 -0.3038 -0.0299 -0.2746
  343TIP3    H222665   1.534   3.757   7.149 -0.4227 -0.4028  0.1104
  344TIP3   OH222666   1.478   4.165   6.889  0.1071 -0.1381  0.1208
  344TIP3    H122667   1.451   4.171   6.797 -0.1921 -2.9244 -0.0607
  344TIP3    H222668   1.573   4.177   6.887  0.0915 -0.0512 -0.5254
  345TIP3   OH222669   1.198   3.805   0.197  0.4476 -0.2409  0.9353
  345TIP3    H122670   1.200   3.713   0.170 -0.0475 -0.0817  0.3157
  345TIP3    H222671   1.232   3.806   0.286 -0.1217 -1.1067  1.1663
  346TIP3   OH222672   1.860   4.746   6.677 -0.1724 -0.0772 -0.0778
  346TIP3    H122673   1.785   4.755   6.735  1.4187 -0.3165  2.1778
  346TIP3    H222674   1.867   4.652   6.661 -0.8622  0.0251 -1.0691
  347TIP3   OH222675   0.941   0.905   5.771  1.0660  0.2433 -0.6682
  347TIP3    H122676   0.982   0.990   5.753 -1.6933  2.2504  1.5476
  347TIP3    H222677   0.980   0.876   5.853 -1.5278  2.0940  1.3754
  348TIP3   OH222678   4.554   1.138   1.554  0.0782 -0.0060 -0.2659
  348TIP3    H122679   4.635   1.171   1.593 -0.1735 -0.0156  0.2800
  348TIP3    H222680   4.522   1.211   1.501  1.4056 -0.6255 -2.0268
  349TIP3   OH222681   6.037   7.109   6.753  0.0149  0.2709 -1.1015
  349TIP3    H122682   6.119   7.140   6.790 -0.5212 -0.6047  1.0049
  349TIP3    H222683   6.048   7.015   6.744 -1.3084 -0.1656  1.0044
  350TIP3   OH222684   3.408   0.518   1.151  0.6402  0.4435  0.4350
  350TIP3    H122685   3.476   0.473   1.101 -1.3868  0.7166 -2.8828
  350TIP3    H222686   3.430   0.611   1.142  0.9054  0.4476  1.0906
  351TIP3   OH222687   6.761   3.290   7.340 -0.2351  0.3443 -0.3658
  351TIP3    H122688   6.735   3.266   7.429 -1.6763  2.0009 -0.3128
  351TIP3    H222689   6.828   3.357   7.352  0.7283 -0.5485 -0.5565
  352TIP3   OH222690   4.781   1.740   6.395 -0.0391  0.3083  0.6266
  352TIP3    H122691   4.835   1.799   6.343 -0.3794 -0.2974 -0.4466
  352TIP3    H222692   4.694   1.781   6.394 -0.1884 -0.0083  0.1902
  353TIP3   OH222693   6.316   5.769   7.078 -0.5779 -0.0582  0.1442
  353TIP3    H122694   6.252   5.701   7.061 -1.2007  0.4840  0.2533
  353TIP3    H222695   6.378   5.764   7.005 -2.3269  1.2322 -1.5046
  354TIP3   OH222696   2.290   3.729   7.203 -0.4195  0.2530 -0.0095
  354TIP3    H122697   2.360   3.669   7.177  0.6514  1.4762 -0.0146
  354TIP3    H222698   2.288   3.724   7.298  0.0557  0.6386  0.0206
  355TIP3   OH222699   5.121   5.042   7.162 -0.4611 -0.5687 -0.1375
  355TIP3    H122700   5.099   4.953   7.186  0.7473 -0.7565  0.3673
  355TIP3    H222701   5.217   5.042   7.153 -0.2306  1.0246  1.5074
  356TIP3   OH222702   5.403   2.843   0.701 -0.2230  0.4476 -0.3314
  356TIP3    H122703   5.349   2.910   0.658 -0.4622  0.8073  0.4825
  356TIP3    H222704   5.447   2.891   0.772 -2.6527 -0.7441  2.1868
  357TIP3   OH222705   1.301   5.936   1.635  0.1250  0.3619 -0.8354
  357TIP3    H122706   1.275   5.951   1.726 -1.7245 -1.1570 -1.0568
  357TIP3    H222707   1.318   5.842   1.631  0.9153  0.5371 -1.9122
  358TIP3   OH222708   4.946   6.546   0.180 -0.0246 -0.1369  0.1122
  358TIP3    H122709   5.029   6.588   0.160  0.2029 -0.5846  0.1152
  358TIP3    H222710   4.942   6.470   0.122  0.0631 -0.7278  0.8620
  359TIP3   OH222711   3.636   6.988   0.705 -0.4804  0.4758  0.6177
  359TIP3    H122712   3.579   6.918   0.737 -1.1517  1.3799  1.4739
  359TIP3    H222713   3.575   7.055   0.673  0.1557 -0.0256 -1.8525
  360TIP3   OH222714   6.457   3.499   0.336  0.2011  0.3102 -0.3566
  360TIP3    H122715   6.525   3.461   0.279 -1.1327 -0.2561 -1.6455
  360TIP3    H222716   6.417   3.424   0.379 -0.7098  0.4484 -0.9186
  361TIP3   OH222717   1.843   1.933   7.910  0.1564 -0.6382 -0.0526
  361TIP3    H122718   1.803   1.847   7.923 -2.6147  0.1989 -2.1949
  361TIP3    H222719   1.922   1.915   7.858  0.6303 -1.9890  1.0559
  362TIP3   OH222720   6.888   6.234   0.838  0.5117 -0.5558  0.3417
  362TIP3    H122721   6.802   6.244   0.797  0.9202 -0.5984 -0.5558
  362TIP3    H222722   6.906   6.319   0.877 -0.1692 -0.7070  1.0234
  363TIP3   OH222723   2.207   2.279   1.379  0.2513  0.8564  0.2694
  363TIP3    H122724   2.112   2.269   1.384  0.1233  0.3349 -2.2355
  363TIP3    H222725   2.242   2.191   1.397  0.1541  0.6666 -0.4288
  364TIP3   OH222726   5.184   3.747   0.492  0.0417  0.1748 -0.1880
  364TIP3    H122727   5.126   3.784   0.558  0.0456  1.1337 -0.7051
  364TIP3    H222728   5.251   3.814   0.477  1.0478 -0.7259  0.0735
  365TIP3   OH222729   6.433   3.974   6.200  0.2875 -0.1358  0.3333
  365TIP3    H122730   6.457   4.059   6.237 -0.2684 -0.0354  0.4717
  365TIP3    H222731   6.344   3.986   6.168 -0.2269 -0.9705  1.3668
  366TIP3   OH222732   3.634   0.467   0.060  0.8262 -0.1474 -0.1837
  366TIP3    H122733   3.593   0.513  -0.013  1.0329 -0.5592 -0.5672
  366TIP3    H222734   3.646   0.377   0.028 -0.6367 -0.7805  0.9571
  367TIP3   OH222735   5.569   4.273   0.810  0.0747  0.0046 -0.5723
  367TIP3    H122736   5.483   4.251   0.775 -0.2077 -0.1532  0.2083
  367TIP3    H222737   5.551   4.317   0.894  0.7716 -0.7041 -0.0348
  368TIP3   OH222738   4.011   4.815   1.713 -0.2498  0.1385  0.4257
  368TIP3    H122739   4.017   4.731   1.667 -0.0138  0.2512  0.2472
  368TIP3    H222740   4.020   4.792   1.805 -0.4593 -0.0621  0.3975
  369TIP3   OH222741   4.847   3.274   0.323  0.1184 -0.5554  0.1245
  369TIP3    H122742   4.795   3.244   0.398  0.0004 -0.2990  0.1493
  369TIP3    H222743   4.864   3.195   0.272  0.1137 -0.7160  0.3703
  370TIP3   OH222744   2.273   4.745   1.811 -0.1532  0.0680 -0.2011
  370TIP3    H122745   2.368   4.743   1.826 -0.1248 -0.0950 -0.4003
  370TIP3    H222746   2.264   4.765   1.718 -0.3094 -0.2786 -0.2599
  371TIP3   OH222747   3.872   2.830   7.784 -0.1595  0.1038 -0.3243
  371TIP3    H122748   3.845   2.856   7.872 -0.2076  1.7941 -0.8031
  371TIP3    H222749   3.789   2.821   7.736 -0.1657 -1.4217 -0.0605
  372TIP3   OH222750   2.474   4.969   0.293  0.0616 -0.1309 -0.3469
  372TIP3    H122751   2.512   4.896   0.246 -0.4978 -1.3641  1.0429
  372TIP3    H222752   2.489   4.949   0.386  0.2621  1.7194  0.0711
  373TIP3   OH222753   6.414   3.113   5.880 -0.4621  0.2057  0.2537
  373TIP3    H122754   6.328   3.073   5.892 -0.4859 -0.2366 -1.2301
  373TIP3    H222755   6.402   3.205   5.904 -1.3138  0.1205  0.1691
  374TIP3   OH222756   1.872   2.982   1.544 -0.0862  0.1667  0.2485
  374TIP3    H122757   1.899   3.006   1.455  0.2446  0.4931  0.4372
  374TIP3    H222758   1.892   3.058   1.597 -1.0288  0.2763  0.4675
  375TIP3   OH222759   2.513   4.846   1.975 -0.7282 -0.5361  0.2667
  375TIP3    H122760   2.547   4.815   1.891  0.2441 -1.3376  0.9486
  375TIP3    H222761   2.508   4.768   2.030  1.0943  0.3437  1.7803
  376TIP3   OH222762   5.172   4.081   1.468 -0.6355  0.5891  0.1824
  376TIP3    H122763   5.217   4.110   1.548  0.9974 -1.4329  0.0800
  376TIP3    H222764   5.219   4.125   1.397 -0.6891  0.7260  0.2323
  377TIP3   OH222765   5.276   1.393   5.907  0.0473  0.4378 -0.3700
  377TIP3    H122766   5.226   1.311   5.904  0.7360  0.0138 -0.8058
  377TIP3    H222767   5.213   1.459   5.934 -0.7895 -0.0395 -1.1141
  378TIP3   OH222768   1.362   5.104   6.389 -0.0993 -0.2521 -0.1498
  378TIP3    H122769   1.406   5.026   6.421 -2.0113 -1.1921  0.2858
  378TIP3    H222770   1.386   5.109   6.297  1.1325 -0.5397  0.1315
  379TIP3   OH222771   6.490   6.069   6.686 -0.2877 -0.7951  0.3274
  379TIP3    H122772   6.397   6.053   6.674 -0.3478  0.7444 -1.7125
  379TIP3    H222773   6.514   6.129   6.616  1.3099  2.3543  3.2497
  380TIP3   OH222774   7.124   5.930   6.726 -0.3216 -0.5987  0.0573
  380TIP3    H122775   7.066   5.854   6.722 -1.3695  0.2259 -1.5017
  380TIP3    H222776   7.075   6.000   6.684  1.2589  0.5299 -0.0049
  381TIP3   OH222777   4.299   3.875   0.431  1.1090  0.8223 -0.2191
  381TIP3    H122778   4.319   3.956   0.385  2.4775 -0.2846 -1.6883
  381TIP3    H222779   4.204   3.874   0.438  1.0885  2.8325  0.4287
  382TIP3   OH222780   2.091   5.592   7.987  0.2725 -0.0677  0.1483
  382TIP3    H122781   2.112   5.569   7.896 -0.4598  0.8855 -0.2708
  382TIP3    H222782   2.044   5.675   7.981 -2.0419 -1.1888  1.1661
  383TIP3   OH222783   6.680   4.387   7.758  0.2665  0.3864 -0.0977
  383TIP3    H122784   6.660   4.395   7.851  0.0110  2.0850 -0.2621
  383TIP3    H222785   6.665   4.475   7.723  0.2193 -0.2586 -1.7747
  384TIP3   OH222786   6.377   0.099   6.367  0.2452  0.0026 -0.4078
  384TIP3    H122787   6.431   0.085   6.289  1.7029 -0.6928  0.6896
  384TIP3    H222788   6.432   0.070   6.440 -1.4056 -0.1727  0.8129
  385TIP3   OH222789   2.072   5.583   1.383 -0.2055 -0.3210  0.0198
  385TIP3    H122790   2.128   5.659   1.393  0.5291 -1.0248  1.7530
  385TIP3    H222791   2.089   5.530   1.462 -1.5362 -1.7085 -0.5645
  386TIP3   OH222792   5.528   1.653   7.613  0.4473  0.3357 -0.3368
  386TIP3    H122793   5.511   1.711   7.538 -0.2810 -0.5783 -0.8918
  386TIP3    H222794   5.607   1.690   7.653  0.6766  1.0243 -1.3655
  387TIP3   OH222795   5.629   2.052   7.040  0.8240  0.6751 -0.0213
  387TIP3    H122796   5.565   2.119   7.018  0.9494  0.7363 -0.2073
  387TIP3    H222797   5.696   2.060   6.972  0.7915  0.2984 -0.0999
  388TIP3   OH222798   2.949   2.533   0.440 -0.3923  0.3723 -0.0115
  388TIP3    H122799   2.877   2.577   0.484 -1.4418 -0.5989 -0.7114
  388TIP3    H222800   2.937   2.440   0.461  0.5116  0.1661 -0.3382
  389TIP3   OH222801   5.502   3.188   0.747  0.5996  0.0894  0.2668
  389TIP3    H122802   5.510   3.097   0.720  0.3595  0.1433  0.0112
  389TIP3    H222803   5.553   3.237   0.683  2.8628 -0.0854  1.8255
  390TIP3   OH222804   4.780   2.895   6.863  0.1849 -0.0276 -0.1845
  390TIP3    H122805   4.876   2.895   6.858  0.3213  1.6366  1.4683
  390TIP3    H222806   4.757   2.984   6.887 -1.7375 -0.6252  0.3583
  391TIP3   OH222807   7.132   5.110   0.563  0.5766 -0.3709  0.0626
  391TIP3    H122808   7.117   5.165   0.640 -0.9828  0.8900 -1.0939
  391TIP3    H222809   7.067   5.040   0.571 -0.8287  0.7733 -0.9954
  392TIP3   OH222810   6.260   1.484   0.333 -0.2502 -0.1966 -0.2039
  392TIP3    H122811   6.293   1.501   0.421 -0.5252 -1.3423  0.1441
  392TIP3    H222812   6.181   1.538   0.325  0.6105  1.0816 -0.3318
  393TIP3   OH222813   0.898   6.182   1.363  0.2006 -0.2124 -0.1055
  393TIP3    H122814   0.804   6.169   1.350  0.0288  0.5647  0.2797
  393TIP3    H222815   0.916   6.146   1.450  0.0133  0.7386  0.3364
  394TIP3   OH222816   7.038   1.910   0.058  0.6804 -0.3134  0.4976
  394TIP3    H122817   7.071   1.824   0.085  0.9505  0.0560  1.3779
  394TIP3    H222818   6.955   1.919   0.104  1.2120  0.3815  1.3516
  395TIP3   OH222819   6.905   2.363   1.802  0.2896  0.4756 -0.2970
  395TIP3    H122820   6.979   2.302   1.796 -0.3074 -0.4638  1.2379
  395TIP3    H222821   6.885   2.366   1.896 -1.0840  1.3644 -0.6028
  396TIP3   OH222822   4.940   2.992   0.622 -0.3500 -0.4551  0.1088
  396TIP3    H122823   4.897   3.041   0.552  0.3770  0.9498  0.6054
  396TIP3    H222824   4.868   2.962   0.677 -0.8412 -0.3370 -0.4519
  397TIP3   OH222825   2.007   3.372   7.468 -0.4435  0.7538 -0.2822
  397TIP3    H122826   1.998   3.452   7.416 -0.8482  2.2583  1.9664
  397TIP3    H222827   1.960   3.305   7.419 -1.0809  2.1773 -1.6701
  398TIP3   OH222828   5.005   2.130   6.020  0.2188  0.5265  0.7531
  398TIP3    H122829   5.062   2.150   6.094  0.8166  1.2962  0.0976
  398TIP3    H222830   5.045   2.055   5.978 -2.3212 -2.7216  3.5351
  399TIP3   OH222831   5.863   7.127   7.785 -0.7609  0.2561 -0.0206
  399TIP3    H122832   5.777   7.091   7.809 -0.2561  0.1432  1.7473
  399TIP3    H222833   5.926   7.073   7.833  0.3653  0.0118 -1.6911
  400TIP3   OH222834   4.054   4.880   7.118  0.2385 -0.1547 -0.0967
  400TIP3    H122835   4.093   4.951   7.169  2.2736 -0.4294 -1.1644
  400TIP3    H222836   3.985   4.922   7.066 -0.2177  0.5601  1.0589
  401TIP3   OH222837   1.446   4.762   1.319  0.0398  0.3377  0.1551
  401TIP3    H122838   1.501   4.835   1.290 -0.9215  0.7791 -0.6278
  401TIP3    H222839   1.502   4.711   1.378  0.3953  2.2800  1.5684
  402TIP3   OH222840   5.182   0.253   7.139  0.3197  0.2421 -0.1885
  402TIP3    H122841   5.188   0.158   7.141 -0.0995  0.1967  2.1642
  402TIP3    H222842   5.144   0.276   7.224  2.1509  2.6203  0.0843
  403TIP3   OH222843   3.919   0.203   6.837 -0.3307 -0.1902 -0.3186
  403TIP3    H122844   3.881   0.169   6.918 -0.6851 -0.0030 -0.4028
  403TIP3    H222845   3.918   0.298   6.849 -0.5108 -0.1573 -0.5997
  404TIP3   OH222846   5.196   0.945   6.586 -0.4100  0.0504 -0.5254
  404TIP3    H122847   5.235   1.005   6.650 -1.7269  1.2770 -0.8271
  404TIP3    H222848   5.234   0.972   6.502 -0.9728  0.4616 -0.6552
  405TIP3   OH222849   3.258   0.997   6.628  0.7464  0.1443  0.0531
  405TIP3    H122850   3.184   0.938   6.645  0.2308  0.5517 -0.6949
  405TIP3    H222851   3.325   0.971   6.691  0.0649 -0.4175  0.5626
  406TIP3   OH222852   5.050   2.687   7.957  0.2268 -0.2628 -0.1943
  406TIP3    H122853   5.011   2.628   7.893 -0.9658  1.3765 -1.0546
  406TIP3    H222854   5.125   2.725   7.912 -1.0413  1.4484 -0.9679
  407TIP3   OH222855   3.529   4.946   1.441 -0.3787  0.0682  1.2017
  407TIP3    H122856   3.607   4.999   1.421 -0.8444  0.0021 -1.0430
  407TIP3    H222857   3.564   4.858   1.455 -0.0993 -0.6189 -2.5520
  408TIP3   OH222858   6.636   1.178   0.727  0.3815 -0.3177 -0.4720
  408TIP3    H122859   6.726   1.146   0.726 -0.0011 -1.4282 -0.9035
  408TIP3    H222860   6.614   1.183   0.820  0.8782 -0.0671 -0.3649
  409TIP3   OH222861   4.105   1.748   7.970 -0.0982 -0.4160 -0.6294
  409TIP3    H122862   4.117   1.840   7.945 -2.7121  0.2173  0.1112
  409TIP3    H222863   4.033   1.717   7.915  0.4463 -1.9044 -0.5533
  410TIP3   OH222864   2.509   3.611   7.130  0.1072  0.1368  0.1340
  410TIP3    H122865   2.538   3.702   7.133  1.7756 -0.3532  0.3648
  410TIP3    H222866   2.538   3.575   7.214  0.3699 -0.8462 -0.3643
  411TIP3   OH222867   4.800   1.637   0.315  0.0386  0.7301  0.7073
  411TIP3    H122868   4.748   1.562   0.288  1.1031  0.5943 -1.0904
  411TIP3    H222869   4.748   1.713   0.289 -0.0422  0.6106  0.5197
  412TIP3   OH222870   1.717   6.613   1.007 -0.0365  0.1178 -0.0704
  412TIP3    H122871   1.750   6.523   1.010 -0.9067 -0.2342 -0.7979
  412TIP3    H222872   1.735   6.647   1.095 -2.5124 -1.7975  1.3232
  413TIP3   OH222873   6.790   1.502   0.861 -0.1981 -0.1173 -0.0254
  413TIP3    H122874   6.795   1.499   0.765  2.0815 -0.1882  0.0220
  413TIP3    H222875   6.825   1.417   0.889 -2.5416 -0.8456  0.9087
  414TIP3   OH222876   4.839   4.302   0.703  0.7727 -0.7616 -0.3486
  414TIP3    H122877   4.830   4.257   0.787  0.4430 -1.3541 -0.7043
  414TIP3    H222878   4.916   4.359   0.716  0.0223  0.0516  0.7483
  415TIP3   OH222879   5.369   1.753   7.887 -0.1815  0.2575 -0.1593
  415TIP3    H122880   5.349   1.754   7.793  0.4353  1.0443 -0.2931
  415TIP3    H222881   5.358   1.844   7.915  0.4551  0.1860  0.3478
  416TIP3   OH222882   0.638   0.145   0.293 -0.2944  0.1283 -0.5738
  416TIP3    H122883   0.683   0.212   0.343  1.0079 -0.6769 -0.6108
  416TIP3    H222884   0.578   0.104   0.355 -0.5617  0.8208 -0.3658
  417TIP3   OH222885   2.650   1.718   0.462 -0.1897  0.0489  0.5990
  417TIP3    H122886   2.561   1.682   0.454  0.5921 -2.2145  1.2639
  417TIP3    H222887   2.642   1.790   0.524 -1.5043 -0.3243  0.8898
  418TIP3   OH222888   1.202   6.230   6.920 -0.5721  0.0458  0.0106
  418TIP3    H122889   1.136   6.191   6.862  0.2373  0.4672 -1.2363
  418TIP3    H222890   1.285   6.192   6.890 -0.2006 -0.2119  1.3289
  419TIP3   OH222891   5.681   0.965   6.508  0.2445 -0.3627  0.5070
  419TIP3    H122892   5.731   0.884   6.503 -0.0175 -0.4763 -0.4540
  419TIP3    H222893   5.617   0.950   6.578  1.5460 -0.1984  1.7742
  420TIP3   OH222894   1.242   0.232   6.443  0.1390  0.2729  0.4779
  420TIP3    H122895   1.170   0.206   6.500 -1.2344  1.3779 -0.6841
  420TIP3    H222896   1.307   0.163   6.453 -1.7629 -1.6320  0.2961
  421TIP3   OH222897   2.842   3.520   6.724  0.2138  0.6572  0.0590
  421TIP3    H122898   2.804   3.520   6.812  1.3350  1.8963  0.5713
  421TIP3    H222899   2.813   3.602   6.685  1.3429  1.0446  0.0069
  422TIP3   OH222900   2.765   0.965   5.696 -1.0448  0.1055  0.3099
  422TIP3    H122901   2.820   0.917   5.634  1.7720 -2.1215  4.0763
  422TIP3    H222902   2.818   1.042   5.720 -1.2530 -0.0176  1.2170
  423TIP3   OH222903   1.627   6.989   7.855  0.5667  0.4381 -0.2779
  423TIP3    H122904   1.550   6.961   7.904  0.8365 -0.4625 -0.3592
  423TIP3    H222905   1.627   6.936   7.776  0.8788  0.9421 -0.6262
  424TIP3   OH222906   4.756   3.938   1.032 -0.1655 -0.2566 -0.5025
  424TIP3    H122907   4.671   3.905   1.061 -0.2391 -0.5815 -1.0676
  424TIP3    H222908   4.814   3.925   1.107 -0.6195 -0.0256 -0.1145
  425TIP3   OH222909   0.540   6.368   7.306  0.2731 -0.3260 -0.3976
  425TIP3    H122910   0.580   6.389   7.390  1.9195 -1.5682 -0.8062
  425TIP3    H222911   0.528   6.273   7.308 -0.2643 -0.2979 -1.3270
  426TIP3   OH222912   2.232   6.764   1.622 -0.2156  0.0431  0.0120
  426TIP3    H122913   2.323   6.749   1.596  0.7863  2.4420  1.8342
  426TIP3    H222914   2.192   6.805   1.545  0.6846  0.4973 -0.2284
  427TIP3   OH222915   4.481   7.206   7.324 -0.5518  0.4540  0.4335
  427TIP3    H122916   4.564   7.161   7.305 -0.7542  0.4242 -0.4108
  427TIP3    H222917   4.498   7.252   7.406  0.4676  0.8431  0.0280
  428TIP3   OH222918   6.008   6.910   6.261  0.0485 -0.1735 -0.1269
  428TIP3    H122919   6.091   6.920   6.309 -0.1666  0.1440  0.1780
  428TIP3    H222920   6.030   6.850   6.190  0.8714  0.9092 -0.8313
  429TIP3   OH222921   6.857   6.602   0.840  0.3251 -0.7544 -0.2655
  429TIP3    H122922   6.866   6.628   0.749  0.1940 -0.8380 -0.3025
  429TIP3    H222923   6.774   6.641   0.868  0.7731 -0.0196  0.0629
  430TIP3   OH222924   2.511   4.986   7.892 -0.1233  0.4051 -0.5714
  430TIP3    H122925   2.418   4.980   7.872 -0.2245  0.6594 -0.1940
  430TIP3    H222926   2.521   5.070   7.936  0.2782  0.3625 -0.5721
  431TIP3   OH222927   3.184   3.811   2.288 -0.6227  0.6821  0.2631
  431TIP3    H122928   3.156   3.901   2.303 -1.5042  0.9509 -2.4240
  431TIP3    H222929   3.117   3.775   2.230 -0.4191 -1.8220  1.4584
  432TIP3   OH222930   4.010   5.121   1.735  0.2183 -0.1131  0.2990
  432TIP3    H122931   4.041   5.032   1.752  1.9785  0.7649  2.0828
  432TIP3    H222932   3.948   5.138   1.805 -0.5790 -0.1234 -0.3922
  433TIP3   OH222933   3.365   5.169   0.932  0.1335 -0.0944  0.3124
  433TIP3    H122934   3.328   5.146   0.847  0.9016  0.6373 -0.2360
  433TIP3    H222935   3.459   5.172   0.917  0.2000  1.2541  0.8749
  434TIP3   OH222936   6.418   0.540   7.571 -0.2683 -0.4848  0.4944
  434TIP3    H122937   6.331   0.536   7.610 -0.5221  0.3986  0.0214
  434TIP3    H222938   6.419   0.469   7.507 -1.0904  0.3001 -0.4070
  435TIP3   OH222939   0.894   2.553   1.101  0.1320  0.2597 -0.4375
  435TIP3    H122940   0.866   2.628   1.154  0.9041 -0.0107  0.3848
  435TIP3    H222941   0.953   2.591   1.035 -0.2942  0.5096 -0.6789
  436TIP3   OH222942   4.162   1.149   1.531 -0.7138 -0.2452 -0.3006
  436TIP3    H122943   4.247   1.108   1.549  1.3051  2.9424 -1.5219
  436TIP3    H222944   4.126   1.169   1.617 -0.9068 -2.6868  0.2701
  437TIP3   OH222945   5.000   4.878   7.680 -0.2264  0.1845  0.3458
  437TIP3    H122946   5.016   4.839   7.767  1.0163  0.2242  0.1509
  437TIP3    H222947   4.984   4.803   7.623  2.4115 -0.1426 -0.0810
  438TIP3   OH222948   6.116   2.886   0.875  0.3016  0.3602  0.0930
  438TIP3    H122949   6.153   2.875   0.788 -1.5413  0.9529 -0.8204
  438TIP3    H222950   6.060   2.810   0.887  0.1919  0.5148  0.5802
  439TIP3   OH222951   3.208   4.072   5.962  0.4189 -0.1690  0.2436
  439TIP3    H122952   3.145   4.010   5.998  0.0830 -0.0482 -0.1345
  439TIP3    H222953   3.157   4.151   5.943  1.1058  0.7702  2.0982
  440TIP3   OH222954   5.175   6.644   1.245 -0.2744 -0.2351  0.0649
  440TIP3    H122955   5.147   6.686   1.326  0.9368 -0.1212  0.4404
  440TIP3    H222956   5.251   6.694   1.216 -1.2681  0.3476 -1.7034
  441TIP3   OH222957   5.204   6.868   1.656  0.1114  0.0001 -0.2200
  441TIP3    H122958   5.202   6.841   1.748  1.0144 -0.0479 -0.2127
  441TIP3    H222959   5.288   6.913   1.646 -0.1150  0.2697 -0.9503
  442TIP3   OH222960   4.788   4.216   6.831  0.3372  0.5788 -0.0175
  442TIP3    H122961   4.696   4.243   6.829 -0.6500 -2.4175 -2.1953
  442TIP3    H222962   4.802   4.187   6.921 -0.6339  1.6435  0.5049
  443TIP3   OH222963   1.171   3.472   1.743 -0.4901 -0.3271 -0.0381
  443TIP3    H122964   1.147   3.420   1.666  0.1064  0.1868 -0.5878
  443TIP3    H222965   1.266   3.482   1.736 -0.7131  1.9054 -0.6657
  444TIP3   OH222966   4.384   5.856   0.045 -0.2782  0.3371  0.1069
  444TIP3    H122967   4.459   5.872  -0.013  0.2027  0.9559  0.8724
  444TIP3    H222968   4.423   5.828   0.128 -0.8747  0.7792  0.5514
  445TIP3   OH222969   5.147   0.739   6.061  0.1371  0.3255  0.0543
  445TIP3    H122970   5.120   0.820   6.017 -1.0218 -0.0364  0.0777
  445TIP3    H222971   5.222   0.708   6.009  0.1874  1.0701 -0.3342
  446TIP3   OH222972   1.651   2.548   6.547  0.0907  0.0593  0.2041
  446TIP3    H122973   1.673   2.459   6.518  0.3089  0.4791 -0.9617
  446TIP3    H222974   1.572   2.570   6.499 -0.4438  0.1931  1.1272
  447TIP3   OH222975   1.747   1.288   0.356 -0.7230  0.6524 -0.7376
  447TIP3    H122976   1.795   1.334   0.287  0.3993  1.9516  0.8494
  447TIP3    H222977   1.695   1.356   0.398  0.0168  0.2836  0.8576
  448TIP3   OH222978   6.228   2.485   6.598 -0.0607  0.4002  0.4304
  448TIP3    H122979   6.150   2.505   6.546 -0.6293  2.5727  1.9774
  448TIP3    H222980   6.277   2.423   6.544 -1.9041  0.4513 -1.4514
  449TIP3   OH222981   2.654   0.575   0.842 -0.0437 -0.2264  0.2921
  449TIP3    H122982   2.596   0.651   0.843 -1.2691 -1.1421  0.6393
  449TIP3    H222983   2.742   0.613   0.830 -0.6483  1.2092  0.1301
  450TIP3   OH222984   4.387   6.036   7.368 -0.1388 -0.1804 -0.1873
  450TIP3    H122985   4.326   6.109   7.373 -0.9205 -0.7862 -0.7258
  450TIP3    H222986   4.392   6.014   7.275 -0.0610 -0.9259 -0.0166
  451TIP3   OH222987   4.279   5.273   1.868  1.0642 -0.2324 -0.6025
  451TIP3    H122988   4.278   5.205   1.937  1.2444  0.0152 -0.3529
  451TIP3    H222989   4.239   5.230   1.792 -0.7359  0.0247  0.1544
  452TIP3   OH222990   2.881   4.282   1.142  0.1949  0.5437 -0.4990
  452TIP3    H122991   2.918   4.369   1.151  0.5448  0.2015  2.5927
  452TIP3    H222992   2.910   4.252   1.056  2.8689  2.2259 -0.3046
  453TIP3   OH222993   1.823   1.598   1.002 -0.2919 -0.0688  0.0939
  453TIP3    H122994   1.868   1.665   1.053 -0.2265  0.1870 -0.2961
  453TIP3    H222995   1.806   1.640   0.917  0.5773 -0.8632 -0.4793
  454TIP3   OH222996   5.275   4.026   5.734 -0.0199 -0.0990 -0.0850
  454TIP3    H122997   5.351   3.978   5.702  0.2624 -0.6063  1.3104
  454TIP3    H222998   5.274   4.106   5.682  2.3698  0.6539  0.8963
  455TIP3   OH222999   0.430   4.413   0.447  0.2286  0.1580  0.3483
  455TIP3    H123000   0.349   4.455   0.419  1.3291  2.4059  0.3523
  455TIP3    H223001   0.404   4.353   0.517 -1.4422  0.6867  0.2046
  456TIP3   OH223002   2.669   5.207   7.795  0.0959  0.3276  0.0982
  456TIP3    H123003   2.658   5.166   7.881  2.4030 -1.0124 -0.1637
  456TIP3    H223004   2.672   5.134   7.734 -0.0676  1.1812 -0.9524
  457TIP3   OH223005   1.299   0.412   7.487 -0.0487  0.1279  0.0361
  457TIP3    H123006   1.240   0.434   7.416 -0.8699 -1.4084  0.1978
  457TIP3    H223007   1.263   0.331   7.524  2.5579 -1.3388 -0.3677
  458TIP3   OH223008   1.295   7.116   1.827  0.2505  0.0306  0.2846
  458TIP3    H123009   1.347   7.187   1.865 -0.9655  1.0662  0.0538
  458TIP3    H223010   1.330   7.037   1.869  2.8172  0.5195 -0.7429
  459TIP3   OH223011   5.998   6.007   1.769  0.6681  0.2175  0.1885
  459TIP3    H123012   5.968   5.925   1.809 -0.3088 -0.0712 -1.0564
  459TIP3    H223013   6.091   5.991   1.749  1.0410  0.1936  1.8151
  460TIP3   OH223014   1.197   2.831   2.006 -0.0680  0.2600  0.2329
  460TIP3    H123015   1.200   2.885   2.085 -0.2954 -3.0376  2.7097
  460TIP3    H223016   1.275   2.775   2.011 -0.8569 -1.0424 -1.0753
  461TIP3   OH223017   0.585   3.772   7.492  0.0188 -0.1026  0.2455
  461TIP3    H123018   0.523   3.809   7.430  0.5862 -0.2788 -0.4353
  461TIP3    H223019   0.543   3.783   7.578 -1.3427 -0.9846 -0.2705
  462TIP3   OH223020   6.614   7.077   2.111 -0.3142 -1.2550 -0.4766
  462TIP3    H123021   6.668   7.061   2.188  1.7323  1.1982 -1.2500
  462TIP3    H223022   6.537   7.023   2.124  0.6372 -2.0878  2.5321
  463TIP3   OH223023   3.514   2.714   5.746  0.2194 -0.0371  0.2249
  463TIP3    H123024   3.535   2.643   5.805  0.8377 -0.1889 -0.1651
  463TIP3    H223025   3.593   2.725   5.692  0.5197  1.5867  0.9264
  464TIP3   OH223026   5.171   3.664   6.749 -0.0856  0.3970  0.0801
  464TIP3    H123027   5.252   3.631   6.712  1.4611  1.2578  2.4278
  464TIP3    H223028   5.129   3.587   6.788 -0.5079 -0.0797 -1.2869
  465TIP3   OH223029   2.702   1.273   7.202  0.3006 -0.3619  0.5285
  465TIP3    H123030   2.725   1.346   7.144  1.0768 -0.1054  1.1328
  465TIP3    H223031   2.702   1.196   7.145  3.3048 -0.4865  0.5100
  466TIP3   OH223032   2.906   2.805   0.075 -0.2064  0.1127  0.1228
  466TIP3    H123033   2.822   2.850   0.066  0.7816  1.7670 -1.6916
  466TIP3    H223034   2.941   2.802  -0.014  1.7522 -0.3051  0.8598
  467TIP3   OH223035   2.458   1.956   6.868  0.0006 -0.6024  1.0058
  467TIP3    H123036   2.463   2.047   6.838  0.3962 -1.1201 -0.6185
  467TIP3    H223037   2.550   1.928   6.875 -0.1148 -0.8240  1.6508
  468TIP3   OH223038   1.303   5.345   5.989 -0.0853 -0.2470 -0.3183
  468TIP3    H123039   1.372   5.372   5.928 -1.3877 -0.1157 -1.7906
  468TIP3    H223040   1.222   5.356   5.939 -1.0984 -1.3651  1.0306
  469TIP3   OH223041   1.012   2.052   0.067  0.6109  0.1135 -0.2469
  469TIP3    H123042   0.983   2.124   0.010  0.7930 -0.4952 -1.1396
  469TIP3    H223043   1.070   2.000   0.011  2.5441  0.6598  1.1501
  470TIP3   OH223044   5.208   4.204   0.423  0.2860  0.5289 -0.0357
  470TIP3    H123045   5.118   4.177   0.439  0.2193 -0.0390 -1.2457
  470TIP3    H223046   5.234   4.251   0.502 -0.1216 -1.7548  1.5670
  471TIP3   OH223047   1.210   5.469   1.299 -0.5206  0.6389 -0.4860
  471TIP3    H123048   1.152   5.398   1.271 -2.3382  1.0327  1.9555
  471TIP3    H223049   1.159   5.516   1.365  1.9918  2.0603  0.5381
  472TIP3   OH223050   2.555   6.564   6.261 -0.7667 -0.9023 -0.0510
  472TIP3    H123051   2.525   6.638   6.209  1.1708 -0.6368 -0.8925
  472TIP3    H223052   2.527   6.487   6.213 -0.2321 -0.6670 -0.7519
  473TIP3   OH223053   3.354   6.899   5.967 -0.1793  0.1702 -0.6470
  473TIP3    H123054   3.307   6.860   5.894 -1.1041 -1.0571  0.5611
  473TIP3    H223055   3.362   6.829   6.031 -2.5832  2.0603  1.9727
  474TIP3   OH223056   3.667   1.594   7.426  0.0802  0.2277 -0.5255
  474TIP3    H123057   3.643   1.515   7.378  0.2136 -0.3670  0.3637
  474TIP3    H223058   3.759   1.582   7.448 -0.3044 -0.1590  1.0451
  475TIP3   OH223059   7.149   1.733   1.149 -0.5945 -0.0243 -0.0836
  475TIP3    H123060   7.071   1.707   1.100 -0.8198 -3.1788  1.6805
  475TIP3    H223061   7.218   1.737   1.082 -1.9354  1.5317 -1.4646
  476TIP3   OH223062   1.333   0.729   6.060  0.6390 -0.0036  0.0637
  476TIP3    H123063   1.421   0.698   6.042  0.2170 -1.1543 -0.1142
  476TIP3    H223064   1.335   0.756   6.152  0.7801 -1.4889  0.5115
  477TIP3   OH223065   4.676   0.317   0.545  0.4267  0.1230 -0.0342
  477TIP3    H123066   4.675   0.378   0.618  0.7772 -0.3443  0.3630
  477TIP3    H223067   4.592   0.330   0.501  1.6437  3.1043 -1.8076
  478TIP3   OH223068   5.991   6.771   6.537 -0.1125  0.2482 -0.0523
  478TIP3    H123069   6.058   6.816   6.588 -0.1734  0.6343 -0.3083
  478TIP3    H223070   6.041   6.720   6.473 -0.0544  0.3234 -0.0672
  479TIP3   OH223071   6.672   4.314   7.130 -0.4702 -0.1055  0.3181
  479TIP3    H123072   6.664   4.307   7.035 -0.0633 -0.0619  0.2772
  479TIP3    H223073   6.636   4.400   7.151 -1.7775 -0.6419  0.3607
  480TIP3   OH223074   1.005   5.771   7.779  0.9803 -0.5144 -0.4782
  480TIP3    H123075   1.062   5.814   7.843  1.1202 -1.2419 -0.0970
  480TIP3    H223076   0.936   5.835   7.762  2.4912  0.8517 -1.8281
  481TIP3   OH223077   2.515   1.063   1.507 -0.1684  0.5630 -0.2516
  481TIP3    H123078   2.602   1.023   1.499 -0.0156  1.0535 -1.1860
  481TIP3    H223079   2.460   0.993   1.542  0.9010  0.6788  1.7908
  482TIP3   OH223080   3.899   6.462   6.564  0.1284 -0.1398 -0.1914
  482TIP3    H123081   3.927   6.445   6.475  0.9745  2.3006 -0.4649
  482TIP3    H223082   3.975   6.438   6.618 -0.6436 -2.3505  0.0368
  483TIP3   OH223083   1.877   5.308   7.852  0.6028 -0.4930  0.1587
  483TIP3    H123084   1.814   5.262   7.796  0.6404 -1.4351  0.8588
  483TIP3    H223085   1.962   5.294   7.810  1.2447 -4.4463  2.2330
  484TIP3   OH223086   7.098   0.575   7.905  0.7337  0.9587 -0.4646
  484TIP3    H123087   7.029   0.576   7.839  0.7867 -2.3021 -0.7604
  484TIP3    H223088   7.063   0.626   7.978 -2.6473 -1.5596 -0.0750
  485TIP3   OH223089   4.402   2.840   5.797  0.4641  0.3526  0.1714
  485TIP3    H123090   4.340   2.891   5.848 -0.8472 -0.7876 -0.2261
  485TIP3    H223091   4.380   2.749   5.816  1.7997 -0.0818 -0.2562
  486TIP3   OH223092   0.780   2.434   7.957  0.0865 -0.4738  0.4755
  486TIP3    H123093   0.695   2.453   7.998 -0.1688 -0.4548 -0.0543
  486TIP3    H223094   0.844   2.475   8.014 -0.1330 -1.7781  1.7255
  487TIP3   OH223095   7.045   3.848   7.717  0.4579  0.1811 -0.6753
  487TIP3    H123096   7.081   3.805   7.639 -0.0811  0.1474 -0.9173
  487TIP3    H223097   7.092   3.931   7.723  0.8620 -0.0421 -0.7405
  488TIP3   OH223098   3.867   4.163   1.597 -0.0913  0.6422  0.1596
  488TIP3    H123099   3.904   4.228   1.657 -0.9411  0.8333  0.5037
  488TIP3    H223100   3.772   4.180   1.600 -0.1870  0.3545 -0.8904
  489TIP3   OH223101   3.930   0.793   6.868  0.2223  0.6864 -0.0074
  489TIP3    H123102   4.016   0.761   6.840  0.2509  1.0539 -0.3465
  489TIP3    H223103   3.868   0.733   6.826  0.2957  0.7238 -0.1718
  490TIP3   OH223104   6.668   3.231   6.810 -0.1494  0.3897  0.1350
  490TIP3    H123105   6.616   3.281   6.873  0.2524  0.7205  0.2040
  490TIP3    H223106   6.694   3.295   6.744 -1.6509 -0.1941 -1.0884
  491TIP3   OH223107   2.047   6.092   7.385 -0.4004  0.6206 -0.0893
  491TIP3    H123108   2.048   6.178   7.427  1.6811  0.3724  0.4816
  491TIP3    H223109   2.126   6.090   7.331 -0.9777 -0.5422 -0.9351
  492TIP3   OH223110   2.644   6.856   1.172  0.0607  0.3503 -0.1003
  492TIP3    H123111   2.729   6.887   1.204  0.0693 -0.6735  0.9579
  492TIP3    H223112   2.662   6.824   1.084  0.2544  2.3471 -0.8301
  493TIP3   OH223113   5.258   4.379   1.330 -0.1035  0.4370 -0.4038
  493TIP3    H123114   5.331   4.441   1.331  0.2096  0.0701  0.3631
  493TIP3    H223115   5.298   4.295   1.308 -0.2167  0.1638  0.3857
  494TIP3   OH223116   1.706   1.059   6.917  0.8118 -0.5439  0.8346
  494TIP3    H123117   1.755   1.051   6.999  1.3627 -2.0126  0.3996
  494TIP3    H223118   1.712   0.972   6.877 -0.9389 -0.3568  0.0731
  495TIP3   OH223119   4.607   3.712   1.191  0.0790 -0.2359  0.0449
  495TIP3    H123120   4.516   3.737   1.206 -0.3439 -1.5598 -0.1353
  495TIP3    H223121   4.602   3.619   1.166  1.3529  0.0525 -1.3931
  496TIP3   OH223122   5.451   1.297   0.394 -0.1149  0.1067  0.0583
  496TIP3    H123123   5.464   1.352   0.317 -0.1500 -0.0115 -0.0316
  496TIP3    H223124   5.356   1.297   0.408 -0.2624 -1.0741 -0.7827
  497TIP3   OH223125   4.272   5.991   1.003 -0.2672 -0.2161  0.6259
  497TIP3    H123126   4.204   5.957   0.945 -0.5073 -0.6248  1.1437
  497TIP3    H223127   4.259   6.086   1.004  0.6422 -0.0286 -1.1434
  498TIP3   OH223128   6.826   7.078   7.001 -0.1614  0.0621  0.0969
  498TIP3    H123129   6.737   7.102   7.025 -0.3552  0.0399 -0.5954
  498TIP3    H223130   6.881   7.144   7.043 -0.6462  1.3959 -1.2849
  499TIP3   OH223131   1.926   4.447   7.649 -0.1301 -0.2009 -0.1751
  499TIP3    H123132   2.019   4.441   7.627  0.3561 -1.5989  1.9522
  499TIP3    H223133   1.922   4.422   7.741 -2.8873 -2.5852 -0.7965
  500TIP3   OH223134   2.170   6.261   0.905  0.2196  1.0566 -0.2017
  500TIP3    H123135   2.241   6.314   0.870  0.3802 -0.1228 -1.7535
  500TIP3    H223136   2.210   6.210   0.975  0.0114  3.0437  1.4774
  501TIP3   OH223137   6.007   4.970   6.801  0.1826 -0.4915  0.4451
  501TIP3    H123138   5.956   4.949   6.723 -1.4583  1.5825  0.8799
  501TIP3    H223139   6.086   5.013   6.768  0.2837 -1.0991 -0.1164
  502TIP3   OH223140   5.100   7.169   0.589  0.2589  0.0494  0.1227
  502TIP3    H123141   5.112   7.258   0.620  1.2500 -0.3681  0.9961
  502TIP3    H223142   5.017   7.141   0.629 -1.6313  1.4881 -2.4602
  503TIP3   OH223143   5.057   1.509   7.333 -0.0866 -0.6074 -0.0024
  503TIP3    H123144   5.145   1.473   7.340 -0.9965 -3.1565 -0.8864
  503TIP3    H223145   5.006   1.462   7.399 -1.4409 -1.4515 -1.5758
  504TIP3   OH223146   3.958   4.168   7.304  0.0548 -0.2500 -0.1269
  504TIP3    H123147   3.912   4.112   7.242  0.3307 -1.0162  0.3526
  504TIP3    H223148   4.032   4.115   7.335 -0.8053 -0.3834  1.8194
  505TIP3   OH223149   4.482   3.021   7.794  0.6637 -0.3786 -0.1569
  505TIP3    H123150   4.465   3.012   7.887  0.9368 -0.3389 -0.1004
  505TIP3    H223151   4.533   2.943   7.771  0.6051 -0.3844 -0.2688
  506TIP3   OH223152   1.913   4.272   6.338 -0.6025 -0.0126 -0.1134
  506TIP3    H123153   1.983   4.338   6.336 -0.5577 -0.0188  0.9407
  506TIP3    H223154   1.837   4.319   6.374 -0.5563 -0.5455  0.6918
  507TIP3   OH223155   3.844   5.430   6.613  0.3545 -0.2006 -0.3855
  507TIP3    H123156   3.857   5.365   6.683 -2.2392 -1.6995 -1.1700
  507TIP3    H223157   3.879   5.388   6.535  0.4702  0.2057 -0.5556
  508TIP3   OH223158   4.595   3.617   0.528 -0.1957 -0.1486 -0.1371
  508TIP3    H123159   4.690   3.613   0.532 -0.2319 -0.1691  1.2108
  508TIP3    H223160   4.575   3.710   0.521 -0.0809 -0.1205 -0.0929
  509TIP3   OH223161   6.789   5.313   6.655  0.3736  0.0397 -0.1292
  509TIP3    H123162   6.872   5.276   6.685  0.8181  2.1691  1.4632
  509TIP3    H223163   6.757   5.250   6.590  1.3976 -2.7261  1.8566
  510TIP3   OH223164   1.425   1.519   6.500  0.3844 -0.1907  0.0923
  510TIP3    H123165   1.487   1.584   6.531  0.3942 -0.4160  0.5497
  510TIP3    H223166   1.361   1.510   6.571  0.0175 -0.2057 -0.2355
  511TIP3   OH223167   2.452   0.439   7.104  0.5817 -0.0830 -0.1462
  511TIP3    H123168   2.486   0.350   7.091  2.4805  0.3971  1.2631
  511TIP3    H223169   2.526   0.496   7.085 -0.7542  1.2834 -1.5302
  512TIP3   OH223170   2.572   5.980   1.153  0.1711  0.3300  0.0432
  512TIP3    H123171   2.571   6.076   1.149  1.0217  0.3461 -0.0281
  512TIP3    H223172   2.488   5.956   1.192 -0.8779  1.0111 -1.6975
  513TIP3   OH223173   4.822   0.041   6.972  0.0716 -0.1501 -0.2683
  513TIP3    H123174   4.860  -0.013   7.042  0.5273  0.2278 -0.2151
  513TIP3    H223175   4.836  -0.010   6.893 -0.0478 -0.3824 -0.1413
  514TIP3   OH223176   2.530   2.512   7.256 -0.2326  0.2500 -0.5850
  514TIP3    H123177   2.513   2.606   7.249  0.2099  0.2692 -1.4808
  514TIP3    H223178   2.539   2.496   7.350 -4.7243  0.2846  0.0396
  515TIP3   OH223179   4.997   7.159   0.992  0.3953 -0.2699 -0.3040
  515TIP3    H123180   5.051   7.229   1.029 -0.3152 -0.7449  1.7440
  515TIP3    H223181   4.907   7.194   0.995 -0.0976 -1.5912  1.6871
  516TIP3   OH223182   4.286   5.574   1.110  0.0548 -0.1718 -0.3557
  516TIP3    H123183   4.352   5.643   1.103 -0.4316  0.1998 -1.6760
  516TIP3    H223184   4.217   5.613   1.164  0.5865 -0.3095  0.4398
  517TIP3   OH223185   4.010   1.136   6.609 -0.3663  0.0423 -0.0663
  517TIP3    H123186   3.933   1.151   6.553 -1.2736  1.9869  1.5636
  517TIP3    H223187   4.081   1.117   6.547 -1.4000  1.6660 -1.8672
  518TIP3   OH223188   6.921   4.986   7.279 -0.4377  0.0091  0.3231
  518TIP3    H123189   6.900   5.017   7.191 -1.7044 -0.1948  0.5386
  518TIP3    H223190   7.009   4.949   7.271 -0.6597 -0.2944 -0.9286
  519TIP3   OH223191   4.686   2.229   7.455 -0.0749  0.0850 -0.3796
  519TIP3    H123192   4.758   2.213   7.516  0.8318 -0.1894 -1.5020
  519TIP3    H223193   4.666   2.143   7.418 -0.8906  0.1836 -0.1859
  520TIP3   OH223194   6.204   3.993   0.242  0.1450 -0.2403  0.2412
  520TIP3    H123195   6.210   3.898   0.238 -0.7018 -0.4381  2.3462
  520TIP3    H223196   6.292   4.022   0.264  0.4026 -0.5109 -0.3980
  521TIP3   OH223197   0.546   6.711   7.905 -0.0425  0.6503 -0.2445
  521TIP3    H123198   0.577   6.757   7.983 -0.8779  0.3138  0.3055
  521TIP3    H223199   0.517   6.780   7.846  0.5592  0.9065 -0.2452
  522TIP3   OH223200   4.927   5.286   0.816  0.1744  0.1399  0.6831
  522TIP3    H123201   4.939   5.246   0.902  0.0440 -0.8060  0.2740
  522TIP3    H223202   4.835   5.309   0.812  0.1374 -0.0026  0.7230
  523TIP3   OH223203   4.496   3.349   0.559 -0.1735  0.0378 -0.4023
  523TIP3    H123204   4.560   3.339   0.630 -1.7915  1.7660  1.4549
  523TIP3    H223205   4.514   3.436   0.524  0.7062 -0.8655 -2.2837
  524TIP3   OH223206   0.355   1.844   6.049 -0.1514  0.5177 -0.3583
  524TIP3    H123207   0.409   1.779   6.004 -0.7033 -1.3373  1.5378
  524TIP3    H223208   0.396   1.854   6.135 -1.7527  0.4811  0.4397
  525TIP3   OH223209   0.762   0.214   6.698 -0.4740 -0.3474  0.8482
  525TIP3    H123210   0.766   0.125   6.733  3.6254 -0.7018  0.0180
  525TIP3    H223211   0.756   0.270   6.775  1.4447 -1.3056  1.7728
  526TIP3   OH223212   0.685   3.507   7.431  0.2161  0.2576  0.2803
  526TIP3    H123213   0.671   3.601   7.437 -1.4274  0.0948 -0.5124
  526TIP3    H223214   0.604   3.468   7.463  0.6432 -0.8827  0.0364
  527TIP3   OH223215   4.472   0.253   6.277  0.0392  0.0130 -0.0877
  527TIP3    H123216   4.429   0.168   6.269  0.0197  0.0679 -0.6370
  527TIP3    H223217   4.533   0.256   6.203 -1.7081  1.4663 -1.5850
  528TIP3   OH223218   4.600   1.382   6.122 -0.5014 -0.0516  0.3528
  528TIP3    H123219   4.614   1.330   6.202 -1.0421  1.3268  1.3885
  528TIP3    H223220   4.584   1.317   6.054  0.9333 -1.3188  1.1419
  529TIP3   OH223221   5.357   3.934   7.733  0.1701  0.3295 -0.6635
  529TIP3    H123222   5.327   3.858   7.683 -0.5226  0.9985 -1.2847
  529TIP3    H223223   5.382   3.899   7.818 -0.5108 -0.5389 -0.8117
  530TIP3   OH223224   0.725   2.065   1.452 -0.2096  0.2280 -0.1099
  530TIP3    H123225   0.794   2.032   1.396 -0.3056  0.8010 -0.5707
  530TIP3    H223226   0.758   2.053   1.541  0.9620  1.5110 -0.3415
  531TIP3   OH223227   0.097   1.878   0.805 -0.3997 -0.4923  0.0328
  531TIP3    H123228   0.076   1.838   0.721 -0.5592  1.6016 -1.0060
  531TIP3    H223229   0.016   1.923   0.830 -0.5077 -1.4830  1.5884
  532TIP3   OH223230   1.486   0.671   7.134  0.5366  0.2362  0.1811
  532TIP3    H123231   1.464   0.728   7.060  1.1449 -0.8970 -0.8970
  532TIP3    H223232   1.573   0.637   7.114  1.2703  0.8698  2.0372
  533TIP3   OH223233   6.033   5.820   6.829 -0.1463 -0.3190 -0.4164
  533TIP3    H123234   6.080   5.902   6.810 -2.5638  1.1163 -0.6412
  533TIP3    H223235   6.060   5.797   6.918  0.2779  0.9895 -0.1774
  534TIP3   OH223236   1.296   2.663   6.668  0.1907  0.0613 -0.1024
  534TIP3    H123237   1.250   2.747   6.674 -0.3131 -0.1988 -0.3401
  534TIP3    H223238   1.387   2.685   6.688  0.5784  1.1509 -2.7172
  535TIP3   OH223239   0.509   1.660   7.974  0.0005  0.1987  0.7551
  535TIP3    H123240   0.568   1.632   7.904 -0.4861 -1.3500  0.9194
  535TIP3    H223241   0.422   1.642   7.940 -0.3489  1.4966  0.9231
  536TIP3   OH223242   2.237   0.373   0.511 -0.2981 -0.1077  0.0582
  536TIP3    H123243   2.167   0.381   0.576 -0.4234 -0.0016 -0.0879
  536TIP3    H223244   2.315   0.409   0.555 -0.3342 -0.2256  0.2203
  537TIP3   OH223245   3.081   0.130   0.651 -0.0438 -0.1273  0.3633
  537TIP3    H123246   3.076   0.099   0.561  0.8205  1.2104 -0.1786
  537TIP3    H223247   2.990   0.140   0.679 -0.3142 -0.3488 -0.4243
  538TIP3   OH223248   0.812   0.159   0.908 -0.0513 -0.3883  0.0501
  538TIP3    H123249   0.891   0.195   0.949  0.3691  1.0943 -1.9212
  538TIP3    H223250   0.797   0.215   0.832 -2.3375 -1.3812 -0.3021
  539TIP3   OH223251   3.939   2.178   1.725 -0.2055 -0.0159 -0.5187
  539TIP3    H123252   4.021   2.183   1.774 -1.1347  0.0265  1.1035
  539TIP3    H223253   3.926   2.266   1.690  0.8387 -0.2300 -1.5263
  540TIP3   OH223254   6.299   5.778   0.189 -0.4203 -0.3060 -0.2839
  540TIP3    H123255   6.273   5.710   0.251 -1.9828  1.3199  0.9633
  540TIP3    H223256   6.367   5.738   0.135 -0.5220 -2.4655  1.1076
  541TIP3   OH223257   5.789   4.063   6.923  0.5789  0.4076 -0.3245
  541TIP3    H123258   5.753   3.980   6.955  0.8725  0.5697  0.4461
  541TIP3    H223259   5.715   4.123   6.923  1.1310  1.3805  3.3930
  542TIP3   OH223260   0.643   2.071   5.947  0.2481  0.1596  0.1223
  542TIP3    H123261   0.733   2.099   5.929 -0.1627  0.4888 -1.6642
  542TIP3    H223262   0.591   2.152   5.942 -0.3047 -0.2022 -0.1470
  543TIP3   OH223263   5.168   2.845   7.101 -0.2624 -0.2201 -0.1154
  543TIP3    H123264   5.114   2.794   7.162 -1.5955 -0.5449 -1.5092
  543TIP3    H223265   5.137   2.935   7.111 -0.9837 -0.3809 -0.7927
  544TIP3   OH223266   3.525   5.470   6.883 -0.0320  0.1494  0.1450
  544TIP3    H123267   3.491   5.409   6.949 -2.6189 -0.3163 -1.4528
  544TIP3    H223268   3.571   5.537   6.933 -0.3867 -1.0964  2.2653
  545TIP3   OH223269   5.054   0.726   0.683  0.0625  0.4838  0.0760
  545TIP3    H123270   5.142   0.694   0.664  0.1359  1.5595 -1.6566
  545TIP3    H223271   5.047   0.808   0.633 -0.7453  2.2289  2.8375
  546TIP3   OH223272   2.364   3.232   5.694 -0.0229 -0.0181 -0.1757
  546TIP3    H123273   2.371   3.138   5.707 -1.0689 -0.1350 -0.3223
  546TIP3    H223274   2.355   3.268   5.782  1.9103  0.1238  0.0044
  547TIP3   OH223275   4.281   2.922   6.579  0.3933 -0.3165  0.2527
  547TIP3    H123276   4.303   2.845   6.631  1.2321 -0.5054 -0.3505
  547TIP3    H223277   4.360   2.939   6.527 -0.2177  0.1908 -0.5401
  548TIP3   OH223278   2.527   4.239   0.629  0.2406 -0.5925 -0.0236
  548TIP3    H123279   2.454   4.182   0.605 -0.3723 -0.3837  1.2787
  548TIP3    H223280   2.594   4.180   0.661 -0.0108 -0.6622  0.3807
  549TIP3   OH223281   6.233   4.937   7.693  0.4282 -0.0996  0.1933
  549TIP3    H123282   6.259   4.846   7.679 -2.1025 -0.8557 -0.1863
  549TIP3    H223283   6.165   4.933   7.761 -0.4945  1.3348 -0.5790
  550TIP3   OH223284   1.831   1.940   6.330  0.3902  0.8604 -0.2697
  550TIP3    H123285   1.819   2.011   6.267 -2.3372  1.3600  0.6787
  550TIP3    H223286   1.800   1.862   6.285 -0.2933  0.9766 -0.0023
  551TIP3   OH223287   6.528   3.796   7.934  0.0133 -0.7153 -0.0187
  551TIP3    H123288   6.606   3.801   7.878 -0.8446  1.3634 -1.1571
  551TIP3    H223289   6.514   3.886   7.964 -0.1493 -1.5894  2.8234
  552TIP3   OH223290   0.464   2.662   1.266  0.1334 -0.3735 -0.0658
  552TIP3    H123291   0.422   2.744   1.241  1.0430  0.3086  0.5490
  552TIP3    H223292   0.548   2.690   1.304 -0.2616 -1.4750  1.7013
  553TIP3   OH223293   1.225   4.594   6.127  0.2763 -0.0540 -0.1698
  553TIP3    H123294   1.269   4.509   6.122  0.1426 -0.0951 -0.6506
  553TIP3    H223295   1.171   4.587   6.206 -0.6735 -0.8784 -0.8514
  554TIP3   OH223296   0.643   1.795   7.299  0.0037 -0.1022 -0.2261
  554TIP3    H123297   0.553   1.823   7.318 -0.0133  0.5250 -1.1332
  554TIP3    H223298   0.640   1.700   7.306 -0.6748 -0.0751 -0.0036
  555TIP3   OH223299   2.895   5.826   0.108  0.3195 -0.1229  0.1560
  555TIP3    H123300   2.813   5.827   0.156  1.0767 -0.9440  1.5206
  555TIP3    H223301   2.870   5.845   0.017 -1.5732 -1.8244  0.2593
  556TIP3   OH223302   4.455   4.743   6.523  0.5806 -0.1521 -0.2588
  556TIP3    H123303   4.420   4.654   6.514 -0.0273  0.1178 -0.6495
  556TIP3    H223304   4.377   4.798   6.536  0.8816  0.4361 -0.9243
  557TIP3   OH223305   6.018   1.101   0.810  0.2541  0.1207 -0.3070
  557TIP3    H123306   6.040   1.131   0.722  0.5990 -0.1079 -0.3013
  557TIP3    H223307   6.074   1.152   0.868  0.2309  0.0704 -0.2401
  558TIP3   OH223308   4.999   4.723   7.891 -0.1035 -0.0899  0.1065
  558TIP3    H123309   4.904   4.710   7.896 -0.4254  1.7158 -0.6736
  558TIP3    H223310   5.027   4.724   7.982 -1.1625  1.3733  0.4525
  559TIP3   OH223311   4.489   0.059   7.599 -0.5224 -0.0432  0.0276
  559TIP3    H123312   4.535   0.024   7.675 -0.5344 -1.1265 -0.4345
  559TIP3    H223313   4.397   0.053   7.622 -0.5633 -1.0595 -0.3232
  560TIP3   OH223314   0.697   4.024   7.769 -0.8120 -0.6729  0.2470
  560TIP3    H123315   0.660   4.104   7.806 -0.6726 -0.8521  0.7765
  560TIP3    H223316   0.652   3.953   7.815  1.1843 -0.9157  1.9833
  561TIP3   OH223317   6.946   5.657   6.263  0.5060  0.0725  0.2416
  561TIP3    H123318   6.902   5.660   6.178 -0.9643  0.9295  0.9939
  561TIP3    H223319   6.964   5.564   6.277 -1.2260 -0.3527 -0.0577
  562TIP3   OH223320   6.429   5.835   7.796 -0.0176  0.2143  0.1414
  562TIP3    H123321   6.421   5.918   7.844  2.0912  0.1411  0.6822
  562TIP3    H223322   6.519   5.833   7.765  0.7215 -2.8539  2.0228
  563TIP3   OH223323   0.231   6.363   7.606 -0.3662  0.7284 -0.1415
  563TIP3    H123324   0.302   6.302   7.628 -0.1307  1.5354  1.5088
  563TIP3    H223325   0.275   6.445   7.587 -0.8594  1.9366  3.3082
  564TIP3   OH223326   4.006   1.720   1.424 -0.1786 -0.4681  0.5799
  564TIP3    H123327   3.988   1.779   1.497  0.8363 -2.2385  2.3641
  564TIP3    H223328   4.051   1.645   1.464  0.4424 -1.5098 -1.8813
  565TIP3   OH223329   0.940   1.437   6.546  0.0163 -0.3175  0.3585
  565TIP3    H123330   1.012   1.491   6.578 -0.4469  0.0673  0.7812
  565TIP3    H223331   0.886   1.421   6.624  0.0528 -1.2504  0.2017
  566TIP3   OH223332   3.214   5.729   7.932  0.1630  0.0045  0.7970
  566TIP3    H123333   3.215   5.648   7.881  0.5153  0.6880 -0.3069
  566TIP3    H223334   3.241   5.702   8.020  0.7430 -1.0039  0.3224
  567TIP3   OH223335   2.658   2.287   0.573  0.9759 -0.1820  0.3299
  567TIP3    H123336   2.708   2.208   0.552  2.0735  0.2771  1.1262
  567TIP3    H223337   2.633   2.277   0.664  2.2333  0.9234  0.8410
  568TIP3   OH223338   6.852   3.004   0.443 -0.1185  0.1535 -0.1326
  568TIP3    H123339   6.809   2.939   0.388 -2.0365  2.0345 -1.0318
  568TIP3    H223340   6.782   3.064   0.468  0.8430 -0.0427  3.6707
  569TIP3   OH223341   7.080   1.800   7.400  0.6686 -0.2735 -0.1751
  569TIP3    H123342   7.034   1.736   7.346  0.5425 -1.8280  1.6691
  569TIP3    H223343   7.011   1.842   7.453  0.9548  0.0865 -0.0812
  570TIP3   OH223344   0.689   4.633   6.326  0.3066  0.1285 -1.1456
  570TIP3    H123345   0.621   4.679   6.277 -0.8326 -0.7826 -0.4706
  570TIP3    H223346   0.653   4.546   6.340  1.1018  0.0140  0.3006
  571TIP3   OH223347   2.325   6.962   7.719 -0.1808  0.0905  0.0516
  571TIP3    H123348   2.393   7.021   7.686 -1.0253  0.4387 -1.1423
  571TIP3    H223349   2.374   6.891   7.761  0.8943  0.7213 -0.0805
  572TIP3   OH223350   5.197   3.861   0.055  0.3565 -0.4106 -0.2329
  572TIP3    H123351   5.292   3.871   0.045  0.2839  0.4962 -0.1082
  572TIP3    H223352   5.181   3.768   0.038  0.8856 -0.0483 -3.0960
  573TIP3   OH223353   6.992   5.985   7.724 -0.1604  0.4492 -0.2389
  573TIP3    H123354   6.998   5.976   7.629  1.8078  0.0308 -0.1281
  573TIP3    H223355   7.080   6.013   7.751 -0.0867 -1.3106  1.6435
  574TIP3   OH223356   3.663   5.097   7.184 -0.1834  0.7325  0.0656
  574TIP3    H123357   3.634   5.166   7.243  1.5169  1.9481 -0.4412
  574TIP3    H223358   3.698   5.029   7.243 -1.1847  0.6125  0.5387
  575TIP3   OH223359   2.569   0.351   7.552 -0.7571  0.4818 -0.6618
  575TIP3    H123360   2.587   0.385   7.640  0.3409  1.1115 -1.1084
  575TIP3    H223361   2.626   0.403   7.494  0.4959 -1.6502 -1.4539
  576TIP3   OH223362   2.323   6.431   7.215 -0.4956 -0.5673  0.4110
  576TIP3    H123363   2.390   6.480   7.262 -0.4582 -1.5182  1.3815
  576TIP3    H223364   2.240   6.459   7.254 -0.4567 -1.4440  1.1365
  577TIP3   OH223365   6.539   3.905   1.437  0.0885 -0.0486  0.5548
  577TIP3    H123366   6.633   3.898   1.456  0.5447  1.3791 -0.9322
  577TIP3    H223367   6.509   3.974   1.496  0.0908 -0.1529  0.6774
  578TIP3   OH223368   5.282   1.548   0.755 -0.2029  0.5834  0.2982
  578TIP3    H123369   5.298   1.603   0.678  0.3997 -1.3063 -0.9771
  578TIP3    H223370   5.320   1.463   0.733  0.1549  0.0095  2.7632
  579TIP3   OH223371   0.427   0.946   7.628 -0.1903 -0.1307 -0.1642
  579TIP3    H123372   0.451   0.995   7.707 -2.3120 -2.0783  1.8442
  579TIP3    H223373   0.332   0.957   7.621 -0.0859 -0.2707 -2.3072
  580TIP3   OH223374   1.261   4.052   7.033  0.0041 -0.1339  0.1252
  580TIP3    H123375   1.292   4.100   6.956 -0.7664 -0.5184 -0.4409
  580TIP3    H223376   1.196   3.991   6.998 -0.4865 -0.1893  1.1134
  581TIP3   OH223377   1.013   1.281   7.474 -0.4595 -0.3161 -0.5300
  581TIP3    H123378   1.079   1.237   7.420 -0.2470 -0.0664 -0.4776
  581TIP3    H223379   0.933   1.232   7.458 -0.4224 -0.1861 -1.1591
  582TIP3   OH223380   3.800   2.257   6.510  0.4866  0.6449  0.4385
  582TIP3    H123381   3.788   2.203   6.432 -1.4969  0.2964  0.9342
  582TIP3    H223382   3.833   2.341   6.476 -0.7218  0.6351 -0.8368
  583TIP3   OH223383   4.699   0.699   6.978  0.4731 -0.1434  0.2413
  583TIP3    H123384   4.683   0.756   6.903  0.2662  0.8332  1.0089
  583TIP3    H223385   4.794   0.704   6.993  0.5980 -0.7769 -0.2798
  584TIP3   OH223386   0.303   4.928   7.629 -0.0495  0.4676 -0.3500
  584TIP3    H123387   0.339   5.013   7.655  0.2476  0.8108 -1.7932
  584TIP3    H223388   0.303   4.930   7.534 -1.9122 -0.3655 -0.4188
  585TIP3   OH223389   2.532   6.847   0.851  0.2298 -0.2762 -1.0577
  585TIP3    H123390   2.471   6.798   0.907  2.1415 -0.5922  0.9214
  585TIP3    H223391   2.615   6.801   0.862  0.9395  0.3813 -3.3227
  586TIP3   OH223392   6.896   3.554   7.663  0.0664 -0.0653 -0.0150
  586TIP3    H123393   6.955   3.518   7.597  1.6758 -0.8438  1.7795
  586TIP3    H223394   6.833   3.606   7.612  1.3257 -0.4825 -2.1259
  587TIP3   OH223395   3.894   0.085   6.274 -0.5046  0.1815 -0.8477
  587TIP3    H123396   3.801   0.089   6.299 -0.2503 -0.7514  0.3735
  587TIP3    H223397   3.893   0.087   6.178 -1.6694  1.8489 -0.8469
  588TIP3   OH223398   4.211   3.026   1.224 -0.5556 -0.1547 -0.2008
  588TIP3    H123399   4.266   3.069   1.158  0.5057 -0.7582  0.2610
  588TIP3    H223400   4.268   2.960   1.263 -1.7614 -1.1047  0.0086
  589TIP3   OH223401   5.008   2.541   1.274 -0.5917 -0.2538 -0.8226
  589TIP3    H123402   4.939   2.597   1.310 -1.2152 -0.8895 -1.0026
  589TIP3    H223403   5.053   2.506   1.351 -1.2846 -0.8274 -0.6685
  590TIP3   OH223404   0.506   6.757   7.218 -0.1009  0.0058  0.0482
  590TIP3    H123405   0.538   6.724   7.301 -0.4219  0.8844  0.5353
  590TIP3    H223406   0.448   6.689   7.185  0.7834 -0.7773  0.0574
  591TIP3   OH223407   5.368   1.940   0.924 -0.5709 -0.3766  0.1756
  591TIP3    H123408   5.387   2.033   0.940 -2.5076  0.1427 -0.2889
  591TIP3    H223409   5.389   1.927   0.832  0.5760 -0.6681  0.4588
  592TIP3   OH223410   5.134   3.802   1.463  0.1164 -0.2452 -0.4557
  592TIP3    H123411   5.138   3.892   1.430 -2.3495  0.0913  0.0170
  592TIP3    H223412   5.206   3.797   1.526  0.2619  1.3976 -0.4360
  593TIP3   OH223413   6.756   4.227   1.456 -0.1846 -0.2447  0.1829
  593TIP3    H123414   6.759   4.140   1.498 -0.2692  0.4554  1.7091
  593TIP3    H223415   6.835   4.271   1.487 -0.4382  0.4269 -0.1151
  594TIP3   OH223416   1.943   5.798   1.244  0.4853 -0.2254  0.5227
  594TIP3    H123417   1.881   5.725   1.243  1.3168 -0.9597  0.7134
  594TIP3    H223418   1.949   5.823   1.337  0.1258  0.1562  0.4449
  595TIP3   OH223419   3.701   2.499   0.578  0.4645  0.8266 -0.2435
  595TIP3    H123420   3.644   2.439   0.530  1.9060 -1.5740  0.8444
  595TIP3    H223421   3.646   2.534   0.648  0.5511 -2.8256  1.9195
  596TIP3   OH223422   3.811   6.723   6.573 -0.2581  0.0416  0.5477
  596TIP3    H123423   3.832   6.630   6.580 -1.6325 -0.3040  0.3321
  596TIP3    H223424   3.724   6.731   6.612 -0.7334  0.9974 -0.6451
  597TIP3   OH223425   7.012   4.815   0.424  0.0852  0.0642 -0.1695
  597TIP3    H123426   6.953   4.881   0.462 -1.2559 -1.8403  1.2311
  597TIP3    H223427   6.986   4.811   0.332  1.2065  2.4804 -0.6690
  598TIP3   OH223428   1.478   1.761   1.971  0.1711 -0.4124  0.4616
  598TIP3    H123429   1.408   1.772   2.034  0.6228 -0.1779  0.9289
  598TIP3    H223430   1.518   1.677   1.994  1.2839  0.3660  1.4438
  599TIP3   OH223431   1.033   5.710   5.793 -0.1193  0.0232  0.3140
  599TIP3    H123432   0.983   5.769   5.849 -0.7654 -0.4310  0.2298
  599TIP3    H223433   1.055   5.762   5.716  0.2008  0.4509  0.6919
  600TIP3   OH223434   1.565   0.302   6.984 -0.3021  0.1470 -0.3791
  600TIP3    H123435   1.595   0.220   6.945  1.6198 -0.6900  2.5372
  600TIP3    H223436   1.497   0.276   7.046 -0.6183  0.9451 -0.3789
  601TIP3   OH223437   1.118   7.151   7.680  0.0911 -0.2647  0.2165
  601TIP3    H123438   1.158   7.067   7.655  0.9690  0.4531 -0.9363
  601TIP3    H223439   1.035   7.127   7.722  0.1503 -1.6939 -0.4185
  602TIP3   OH223440   3.172   3.206   0.384 -0.3095  0.1532 -0.4480
  602TIP3    H123441   3.101   3.218   0.320 -0.6341  0.7859  0.0161
  602TIP3    H223442   3.133   3.232   0.467 -0.5500 -2.6826  0.4077
  603TIP3   OH223443   3.721   0.146   5.913 -0.4312 -0.0590  0.2567
  603TIP3    H123444   3.747   0.222   5.964  1.1067 -0.9261  0.8243
  603TIP3    H223445   3.661   0.180   5.847  2.2531  2.1244 -1.2365
  604TIP3   OH223446   3.273   2.593   6.035 -0.1175 -0.0363  0.3166
  604TIP3    H123447   3.339   2.599   6.103 -1.8259  1.0696  1.9559
  604TIP3    H223448   3.288   2.669   5.979 -0.9171  1.1094  1.6000
  605TIP3   OH223449   3.870   5.674   6.721  0.0741 -0.8458 -0.5236
  605TIP3    H123450   3.822   5.729   6.660  0.6409 -0.7297 -0.8736
  605TIP3    H223451   3.852   5.585   6.692  1.8289 -0.7625 -2.0569
  606TIP3   OH223452   1.080   5.755   7.277  0.0323  0.3492  0.3964
  606TIP3    H123453   1.102   5.776   7.368  0.5891  0.0348  0.3396
  606TIP3    H223454   1.164   5.734   7.236 -0.3064 -0.3616  0.0384
  607TIP3   OH223455   4.642   2.528   7.907  0.4387  0.3013 -0.0079
  607TIP3    H123456   4.560   2.484   7.886  1.0329 -0.8532 -0.0075
  607TIP3    H223457   4.645   2.529   8.003  0.8745 -0.5773  0.0018
  608TIP3   OH223458   0.083   5.190   0.370  0.1095 -0.0718 -0.2663
  608TIP3    H123459   0.094   5.281   0.398  1.2733 -0.2107 -0.2472
  608TIP3    H223460   0.028   5.151   0.438  1.4297  0.0634  0.9208
  609TIP3   OH223461   4.245   0.786   1.034 -0.2627 -0.2254  0.3407
  609TIP3    H123462   4.189   0.798   1.110 -0.4576  1.4767 -0.0333
  609TIP3    H223463   4.190   0.737   0.972 -1.3884  1.4024 -0.0182
  610TIP3   OH223464   3.663   5.767   6.977 -0.1659 -0.2455  0.2231
  610TIP3    H123465   3.717   5.785   7.054  0.8124  1.4048 -0.8101
  610TIP3    H223466   3.704   5.816   6.906 -2.1527 -0.1465 -0.9356
  611TIP3   OH223467   1.298   6.821   1.927 -0.6946  0.0849  0.7182
  611TIP3    H123468   1.346   6.761   1.984 -1.9064 -0.5448  1.1097
  611TIP3    H223469   1.356   6.834   1.852 -0.0567 -0.9195  1.0141
  612TIP3   OH223470   5.772   6.662   7.269  0.0728  0.4770 -0.3309
  612TIP3    H123471   5.866   6.667   7.251  0.1182  0.7308 -0.0292
  612TIP3    H223472   5.746   6.752   7.289 -0.5678  0.6977 -2.0056
  613TIP3   OH223473   4.731   5.458   0.739  0.1218 -0.4345 -0.1227
  613TIP3    H123474   4.703   5.538   0.784  0.1979 -0.1726 -0.5407
  613TIP3    H223475   4.812   5.483   0.694 -0.0217 -0.6656 -0.5082
  614TIP3   OH223476   4.444   1.802   7.317  0.3123 -0.0178  0.4615
  614TIP3    H123477   4.355   1.787   7.288  0.3694 -0.0256  0.2900
  614TIP3    H223478   4.446   1.769   7.406  0.3639 -0.7802  0.1813
  615TIP3   OH223479   3.812   7.137   5.718  0.0546  0.8480 -0.7960
  615TIP3    H123480   3.803   7.181   5.803  0.3685 -0.8761  0.1716
  615TIP3    H223481   3.731   7.089   5.707  1.5343 -2.2387  0.5650
  616TIP3   OH223482   1.632   5.768   7.339 -0.0429  0.3828  0.0603
  616TIP3    H123483   1.723   5.776   7.311 -0.2773 -0.8571 -1.1344
  616TIP3    H223484   1.596   5.698   7.285 -2.3521  2.3336 -1.1675
  617TIP3   OH223485   2.351   4.503   5.873 -0.0572 -0.2572  0.6843
  617TIP3    H123486   2.428   4.489   5.818 -0.1350 -0.4352  0.6172
  617TIP3    H223487   2.279   4.516   5.811  0.1913  1.5892  0.7357
  618TIP3   OH223488   5.806   3.586   5.653 -0.0757 -0.1327 -0.0716
  618TIP3    H123489   5.799   3.495   5.624 -0.0576 -0.2522  0.2947
  618TIP3    H223490   5.891   3.615   5.621  0.0267 -0.3221  0.0251
  619TIP3   OH223491   1.771   2.278   6.468  0.2071 -0.1819  1.1184
  619TIP3    H123492   1.865   2.265   6.454 -0.2383 -1.3514 -1.3347
  619TIP3    H223493   1.748   2.213   6.535  0.3273 -3.7924 -2.0175
  620TIP3   OH223494   4.587   1.459   5.797 -0.2183 -0.0906 -0.4790
  620TIP3    H123495   4.673   1.450   5.839 -0.0902 -0.3589 -0.7903
  620TIP3    H223496   4.541   1.378   5.820  0.3999 -0.9409 -2.0823
  621TIP3   OH223497   6.786   6.288   6.145  0.1860  0.1512  0.3314
  621TIP3    H123498   6.879   6.290   6.168  0.0580 -0.3349  0.9091
  621TIP3    H223499   6.785   6.254   6.056  0.4528 -1.8687  1.0444
  622TIP3   OH223500   1.321   2.270   1.452  0.4085 -0.8690 -0.2979
  622TIP3    H123501   1.382   2.202   1.426 -0.2097 -1.7764  0.5288
  622TIP3    H223502   1.302   2.251   1.544 -0.3147  0.0088 -0.2506
  623TIP3   OH223503   3.962   0.357   1.008  0.3331  0.0561 -0.3556
  623TIP3    H123504   4.049   0.318   1.004 -0.3141 -1.3474 -1.6578
  623TIP3    H223505   3.908   0.292   1.052 -0.3707  0.2706 -0.8805
  624TIP3   OH223506   5.418   2.848   0.036  0.1356 -0.2837 -0.0565
  624TIP3    H123507   5.485   2.903   0.077  0.3829 -0.7948  0.2452
  624TIP3    H223508   5.355   2.909  -0.001  0.8766  0.2189 -0.5240
  625TIP3   OH223509   7.025   7.173   0.981 -0.6452 -0.1444  0.2074
  625TIP3    H123510   7.107   7.222   0.993  0.7359 -1.4070 -2.9712
  625TIP3    H223511   6.970   7.231   0.929 -0.3091 -0.6319 -0.7180
  626TIP3   OH223512   3.128   0.214   1.501 -0.3685 -0.5392  0.2768
  626TIP3    H123513   3.216   0.197   1.466 -0.6952 -0.3018 -0.6859
  626TIP3    H223514   3.144   0.245   1.590  0.6399  1.2616 -0.4862
  627TIP3   OH223515   3.571   3.437   6.831  0.1073 -0.5891 -0.3668
  627TIP3    H123516   3.618   3.370   6.781 -0.5738 -0.9670 -0.5118
  627TIP3    H223517   3.555   3.508   6.768  0.3716 -0.5095 -0.3467
  628TIP3   OH223518   5.417   2.133   1.245  0.5539  0.2086  0.4432
  628TIP3    H123519   5.468   2.128   1.165 -0.7162  0.1555 -0.3856
  628TIP3    H223520   5.336   2.085   1.226  0.2997  0.0327  1.8125
  629TIP3   OH223521   4.538   4.635   7.580  0.5448 -0.2351  0.5434
  629TIP3    H123522   4.490   4.620   7.661  1.8318 -0.4135  1.3015
  629TIP3    H223523   4.568   4.726   7.586 -0.2285  0.0818 -0.2211
  630TIP3   OH223524   2.860   6.803   7.252 -0.7556 -1.1179 -0.2358
  630TIP3    H123525   2.786   6.860   7.230 -0.2115  0.4479  1.6662
  630TIP3    H223526   2.937   6.848   7.216 -0.5806 -2.0664 -1.0747
  631TIP3   OH223527   3.995   4.192   0.015 -0.1125 -0.1514 -0.5754
  631TIP3    H123528   4.075   4.210   0.065 -0.4660 -2.2558  0.8938
  631TIP3    H223529   3.939   4.268   0.031  0.3776 -0.0797  1.0236
  632TIP3   OH223530   1.763   6.315   6.026  0.2037  0.0708 -0.2778
  632TIP3    H123531   1.725   6.389   5.979 -0.9658  0.9337  1.8804
  632TIP3    H223532   1.795   6.353   6.109 -1.4878 -1.9676  1.4209
  633TIP3   OH223533   4.204   1.224   6.806  0.2728  0.3463  0.2311
  633TIP3    H123534   4.142   1.182   6.747  0.9121 -0.5737  0.1944
  633TIP3    H223535   4.287   1.224   6.758  0.7383 -0.1677  1.0117
  634TIP3   OH223536   5.691   1.561   6.839 -0.2016  0.0088  0.0444
  634TIP3    H123537   5.667   1.469   6.846  0.8153 -0.1862  1.1901
  634TIP3    H223538   5.670   1.598   6.924 -0.8898  0.9272 -0.5044
  635TIP3   OH223539   2.332   6.216   6.303 -0.5599  0.1814 -0.1290
  635TIP3    H123540   2.236   6.208   6.302 -0.5842  0.1591  0.8907
  635TIP3    H223541   2.355   6.212   6.396  0.5332 -0.9374 -0.4127
  636TIP3   OH223542   5.776   4.838   7.954  0.1927  0.3814 -0.5682
  636TIP3    H123543   5.868   4.831   7.929  0.4727 -0.3168  0.5957
  636TIP3    H223544   5.777   4.853   8.048 -0.9102 -1.5721 -0.1799
  637TIP3   OH223545   6.641   2.644   0.717  0.7529 -0.0733 -0.0976
  637TIP3    H123546   6.553   2.666   0.750 -0.0574 -2.2742 -0.5828
  637TIP3    H223547   6.695   2.719   0.741 -1.4590  1.8097 -0.6395
  638TIP3   OH223548   0.791   5.909   6.955  0.1267  0.2804  0.1473
  638TIP3    H123549   0.770   5.964   6.879  0.2665 -0.0461 -0.1316
  638TIP3    H223550   0.843   5.837   6.918  0.2274  0.1430  0.5605
  639TIP3   OH223551   1.112   1.932   6.563  0.1440 -0.2982 -0.7519
  639TIP3    H123552   1.158   1.855   6.530 -1.9793 -0.5507 -3.4430
  639TIP3    H223553   1.027   1.899   6.591  0.0038  0.7664  0.1462
  640TIP3   OH223554   3.758   1.960   6.803  0.4011  0.5910 -0.1669
  640TIP3    H123555   3.665   1.985   6.798  0.6285  1.2351 -1.8857
  640TIP3    H223556   3.804   2.042   6.817  0.7451  0.3062  0.4071
  641TIP3   OH223557   0.056   0.060   7.937 -0.9565 -0.0200  0.2906
  641TIP3    H123558   0.122   0.088   8.001  0.9979 -0.6592 -1.3185
  641TIP3    H223559  -0.019   0.117   7.952  0.3221  1.3978  1.5930
  642TIP3   OH223560   2.548   5.601   1.814  0.0665 -0.3271 -0.0030
  642TIP3    H123561   2.563   5.522   1.867  0.8601  0.9223  1.7425
  642TIP3    H223562   2.527   5.669   1.878  0.0091  1.0252 -1.4039
  643TIP3   OH223563   4.874   4.615   6.289 -0.0497 -0.7335  0.1185
  643TIP3    H123564   4.911   4.702   6.295  0.8173 -1.1572  1.3662
  643TIP3    H223565   4.947   4.559   6.263 -0.7618 -1.0083 -1.4236
  644TIP3   OH223566   5.576   5.276   7.206  0.5776  0.4310  0.0432
  644TIP3    H123567   5.501   5.217   7.211  0.6895  0.2997  0.1817
  644TIP3    H223568   5.652   5.220   7.223  0.9308  0.0936 -2.3932
  645TIP3   OH223569   6.967   3.112   0.761 -0.1010  0.1606  0.4007
  645TIP3    H123570   7.000   3.199   0.785 -1.5655  0.7699  0.3150
  645TIP3    H223571   6.948   3.070   0.844  2.1953 -0.7790  0.5227
  646TIP3   OH223572   2.042   5.290   0.766  0.0577  0.5302 -0.2163
  646TIP3    H123573   2.108   5.228   0.736  0.1298 -0.4790  1.8637
  646TIP3    H223574   1.996   5.317   0.686  1.2772 -0.7194 -1.3890
  647TIP3   OH223575   6.204   1.065   0.117 -0.2168  0.2044 -0.3917
  647TIP3    H123576   6.276   1.104   0.068 -0.9098  0.2237 -1.4356
  647TIP3    H223577   6.213   1.100   0.205  2.0716 -1.1667 -0.0091
  648TIP3   OH223578   4.559   6.154   7.546 -0.0790  0.2826  0.3129
  648TIP3    H123579   4.486   6.117   7.496 -0.5353  0.0023  1.1810
  648TIP3    H223580   4.528   6.238   7.578 -0.0928  0.0783  0.8455
  649TIP3   OH223581   6.641   2.347   6.336 -0.2776 -0.3748 -0.2409
  649TIP3    H123582   6.623   2.369   6.428 -0.2274 -0.1996 -0.2733
  649TIP3    H223583   6.664   2.430   6.295 -1.1675 -0.3030 -0.6245
  650TIP3   OH223584   3.924   2.492   6.431  0.3325  0.1591 -0.6074
  650TIP3    H123585   3.887   2.487   6.343  0.3155  1.1333 -0.6582
  650TIP3    H223586   4.004   2.544   6.421  0.7139 -0.3296 -0.1679
  651TIP3   OH223587   3.280   5.000   7.832  0.0626 -0.4966  0.3638
  651TIP3    H123588   3.355   4.952   7.796 -0.8528 -1.8173  0.1287
  651TIP3    H223589   3.239   4.938   7.892 -1.2974 -0.0906 -0.1147
  652TIP3   OH223590   2.937   2.732   5.812  0.0255  0.5656  0.0356
  652TIP3    H123591   2.940   2.820   5.774  1.2531  0.3631 -0.3685
  652TIP3    H223592   2.854   2.696   5.781  0.1016  1.1125 -0.8520
  653TIP3   OH223593   2.095   2.387   6.647 -0.0687  0.6151  0.1044
  653TIP3    H123594   2.164   2.427   6.593  0.3051  2.0387  1.5650
  653TIP3    H223595   2.058   2.318   6.591  1.5262  0.8039 -1.2726
  654TIP3   OH223596   4.917   3.599   7.972  0.7759  0.1258  1.0371
  654TIP3    H123597   5.007   3.627   7.954  0.3383  0.4908 -0.7529
  654TIP3    H223598   4.921   3.561   8.060  2.9327 -0.9900  0.5243
  655TIP3   OH223599   5.186   0.643   0.322 -0.2820  0.8127  0.3532
  655TIP3    H123600   5.227   0.681   0.244 -0.3289  0.7381  0.2921
  655TIP3    H223601   5.204   0.705   0.392 -3.0344  2.5864 -0.3487
  656TIP3   OH223602   3.760   6.241   1.300 -0.6022 -0.6092  0.3150
  656TIP3    H123603   3.693   6.305   1.327  0.0090 -0.3277  1.1922
  656TIP3    H223604   3.713   6.157   1.299 -0.8266 -0.5216  1.5833
  657TIP3   OH223605   3.644   1.867   7.286 -0.2833 -0.8798 -0.4339
  657TIP3    H123606   3.647   1.789   7.343  0.1173 -0.1051  0.6428
  657TIP3    H223607   3.674   1.835   7.201  0.2043 -1.8427  0.0729
  658TIP3   OH223608   3.821   6.600   7.859  0.0817 -0.2512  0.1333
  658TIP3    H123609   3.799   6.541   7.787  0.3827 -0.4438  0.1987
  658TIP3    H223610   3.737   6.640   7.884 -0.1579 -0.8001  0.2185
  659TIP3   OH223611   3.907   5.475   5.845  0.0264  0.3386  0.3327
  659TIP3    H123612   3.966   5.437   5.780 -1.9189 -1.9782 -0.2136
  659TIP3    H223613   3.916   5.419   5.921 -2.1040 -0.7000 -0.1024
  660TIP3   OH223614   0.652   0.826   7.644  0.4488  0.1132  0.1055
  660TIP3    H123615   0.557   0.837   7.645  0.3846 -0.3593 -0.4236
  660TIP3    H223616   0.676   0.815   7.736 -0.2289 -1.5275  0.1118
  661TIP3   OH223617   6.201   5.670   0.570 -0.2537  0.6218  0.3281
  661TIP3    H123618   6.113   5.654   0.606 -0.1692  0.3160  0.4050
  661TIP3    H223619   6.199   5.627   0.485 -0.2608  0.8371  0.2188
  662TIP3   OH223620   6.956   0.026   7.183 -0.6259  0.4792  0.0242
  662TIP3    H123621   6.903   0.040   7.261 -2.0533  1.5039 -1.0758
  662TIP3    H223622   7.022   0.095   7.186  0.8857 -0.9379  1.5177
  663TIP3   OH223623   2.439   2.001   0.016 -0.4069  0.4802  0.6072
  663TIP3    H123624   2.468   1.920  -0.025  1.2980  0.0254  2.5326
  663TIP3    H223625   2.430   2.063  -0.056 -0.3812 -1.0320 -0.7442
  664TIP3   OH223626   3.503   6.808   1.366  0.4789  0.1964  0.4332
  664TIP3    H123627   3.527   6.810   1.273 -1.6166  1.1106 -0.1483
  664TIP3    H223628   3.409   6.827   1.367  0.6688  1.3910  2.8168
  665TIP3   OH223629   5.765   0.139   7.684  0.3264 -0.3248 -0.0211
  665TIP3    H123630   5.779   0.119   7.592 -1.1811 -0.9897 -0.1415
  665TIP3    H223631   5.793   0.061   7.731  0.1311 -0.3884 -0.0073
  666TIP3   OH223632   1.092   7.044   7.006 -0.1990  0.4003 -0.1575
  666TIP3    H123633   1.109   7.003   6.921 -0.9815  1.1186 -0.6810
  666TIP3    H223634   1.081   6.970   7.067  1.4337 -0.1100 -0.4362
  667TIP3   OH223635   7.075   3.394   7.103  0.2521 -0.6819 -0.6261
  667TIP3    H123636   7.149   3.439   7.144  0.6423 -0.5446 -1.4705
  667TIP3    H223637   7.087   3.302   7.127 -0.6872 -0.3490  1.3231
  668TIP3   OH223638   1.553   5.284   1.189 -1.3658 -0.1475 -0.1621
  668TIP3    H123639   1.559   5.197   1.230 -0.2837  0.2977  0.6720
  668TIP3    H223640   1.497   5.335   1.248 -2.6232 -0.4720 -1.0413
  669TIP3   OH223641   0.633   3.424   0.574 -0.1698 -0.1586  0.2646
  669TIP3    H123642   0.563   3.396   0.517 -0.9473  0.7008  0.7713
  669TIP3    H223643   0.609   3.390   0.660 -0.4884  0.9545  0.6356
  670TIP3   OH223644   1.211   6.322   6.532 -0.0496  0.1970 -0.2785
  670TIP3    H123645   1.117   6.333   6.519 -0.1338  0.5369  0.5016
  670TIP3    H223646   1.249   6.405   6.502 -0.2961  1.2044  1.9320
  671TIP3   OH223647   4.231   5.135   0.181  0.2841  0.1264 -0.4673
  671TIP3    H123648   4.260   5.226   0.190  0.9035  0.0614 -1.6987
  671TIP3    H223649   4.308   5.088   0.151 -0.3337 -0.6041 -0.9325
  672TIP3   OH223650   4.979   0.272   7.867  0.2326 -0.2479  0.1476
  672TIP3    H123651   4.918   0.253   7.938  0.9598  0.0121  0.8612
  672TIP3    H223652   5.052   0.212   7.882 -0.4961 -1.6493 -1.5945
  673TIP3   OH223653   1.698   3.467   7.933 -0.1382  0.4287 -0.2120
  673TIP3    H123654   1.754   3.461   7.856 -0.7390  1.0049 -0.7157
  673TIP3    H223655   1.687   3.377   7.963  1.4973  0.3525  0.2395
  674TIP3   OH223656   1.087   4.815   0.235  0.0607 -0.4205 -0.1506
  674TIP3    H123657   1.004   4.786   0.198 -0.7034 -0.1591  1.2938
  674TIP3    H223658   1.149   4.810   0.162 -1.1833 -0.7450 -1.2159
  675TIP3   OH223659   3.322   0.694   0.260  0.3467  0.0547  1.0035
  675TIP3    H123660   3.285   0.640   0.330  3.7734 -1.5887  1.7650
  675TIP3    H223661   3.316   0.639   0.182  1.5758 -0.4758  1.2564
  676TIP3   OH223662   2.543   1.613   0.812 -0.0410  0.4647 -0.6207
  676TIP3    H123663   2.514   1.689   0.862 -1.1569 -0.5218  0.2890
  676TIP3    H223664   2.637   1.628   0.799  0.1625  1.0756  1.2199
  677TIP3   OH223665   2.783   3.268   1.969  0.5398 -0.3550  0.4588
  677TIP3    H123666   2.700   3.262   1.922 -0.0641 -0.1327  1.4530
  677TIP3    H223667   2.804   3.361   1.970  1.2195 -0.4892 -0.4708
  678TIP3   OH223668   3.503   2.986   7.204 -0.2277  0.0875  0.7249
  678TIP3    H123669   3.574   2.965   7.143 -0.3432  0.8450  0.3082
  678TIP3    H223670   3.430   2.930   7.178  0.4250 -1.2093  1.6033
  679TIP3   OH223671   5.071   5.025   0.759  0.3485  0.1924  0.0627
  679TIP3    H123672   4.983   5.002   0.728 -0.7327  2.6002  1.0649
  679TIP3    H223673   5.056   5.099   0.818  3.3539  3.6979 -3.0610
  680TIP3   OH223674   1.082   6.693   7.776 -0.0004  0.5279  0.2484
  680TIP3    H123675   1.076   6.645   7.693 -0.4857 -2.2076  1.7422
  680TIP3    H223676   1.148   6.760   7.760 -0.1989  0.1995 -2.3840
  681TIP3   OH223677   1.946   1.191   6.027 -0.3782  0.3076 -0.5913
  681TIP3    H123678   2.037   1.208   6.050 -0.6504 -0.3093  1.0968
  681TIP3    H223679   1.910   1.277   6.007  0.0588  0.8479  0.8004
  682TIP3   OH223680   3.584   5.079   7.485 -0.7675  0.1656 -0.6208
  682TIP3    H123681   3.504   5.055   7.531  0.7158 -0.7142  1.6791
  682TIP3    H223682   3.629   4.996   7.470 -0.1076  0.6748 -1.5538
  683TIP3   OH223683   3.806   3.392   6.992 -0.2276  0.5374  0.1438
  683TIP3    H123684   3.715   3.421   6.990 -0.3434  0.2116  0.5149
  683TIP3    H223685   3.842   3.419   6.908 -0.8213  0.1649 -0.2355
  684TIP3   OH223686   0.559   5.954   0.376 -0.2520  0.7654 -0.0365
  684TIP3    H123687   0.647   5.985   0.396  0.6430 -0.5348 -1.7563
  684TIP3    H223688   0.507   5.982   0.452  1.7098  1.1559  1.2517
  685TIP3   OH223689   2.814   2.751   7.215 -0.0416  0.0519  0.0165
  685TIP3    H123690   2.894   2.729   7.167 -0.2041  1.2439 -0.8583
  685TIP3    H223691   2.834   2.835   7.257 -0.1744 -0.5932  1.4471
  686TIP3   OH223692   2.976   4.649   7.456  0.4905 -0.1838 -0.1956
  686TIP3    H123693   3.053   4.598   7.431  1.2104  0.4584  0.7056
  686TIP3    H223694   2.914   4.583   7.489  0.5042 -0.7354 -1.2139
  687TIP3   OH223695   0.994   1.187   0.361 -0.6041 -0.1259 -0.5811
  687TIP3    H123696   1.088   1.175   0.351 -0.6827 -2.2069  0.5757
  687TIP3    H223697   0.983   1.219   0.451 -1.0850 -2.0491  0.0907
  688TIP3   OH223698   3.297   3.123   6.653 -0.3643  0.4291 -0.2022
  688TIP3    H123699   3.360   3.093   6.588  0.3645 -0.3311  0.8313
  688TIP3    H223700   3.240   3.048   6.669  1.3856 -0.5099  2.2939
  689TIP3   OH223701   5.189   3.622   5.756 -0.1852 -0.0285  0.3352
  689TIP3    H123702   5.173   3.596   5.665  1.3703  1.2330 -0.3459
  689TIP3    H223703   5.284   3.615   5.767 -0.4091 -0.9020  2.1337
  690TIP3   OH223704   6.375   4.442   0.803  0.2059  0.3958  0.4879
  690TIP3    H123705   6.360   4.521   0.855 -1.0599  0.8932 -0.5861
  690TIP3    H223706   6.294   4.429   0.755  1.3658  0.0479 -1.5023
  691TIP3   OH223707   5.534   5.963   0.743  0.2355  0.2163  0.3097
  691TIP3    H123708   5.454   5.948   0.794  0.5386  1.4304  1.1894
  691TIP3    H223709   5.605   5.959   0.807  0.8094  0.0021 -0.3237
  692TIP3   OH223710   0.831   2.278   1.117 -0.3443 -0.6661 -0.5545
  692TIP3    H123711   0.829   2.249   1.026 -0.4510 -1.0785 -0.4189
  692TIP3    H223712   0.868   2.366   1.113  2.3942 -1.7259 -0.7331
  693TIP3   OH223713   1.387   1.281   1.231 -0.4127  0.1388 -0.0421
  693TIP3    H123714   1.309   1.283   1.175  0.0710  1.7670 -0.7019
  693TIP3    H223715   1.365   1.337   1.305 -0.0911  0.1037  0.0834
  694TIP3   OH223716   6.777   3.716   5.640  0.0699  0.2839 -0.2347
  694TIP3    H123717   6.692   3.718   5.595  0.0274 -1.6806 -0.3276
  694TIP3    H223718   6.838   3.685   5.573  0.3712 -0.8039  0.5335
  695TIP3   OH223719   3.125   1.651   6.719 -0.0221 -0.1453 -0.1009
  695TIP3    H123720   3.173   1.572   6.746 -0.6942 -0.5850 -0.1660
  695TIP3    H223721   3.063   1.620   6.653 -0.0152  0.5137 -0.4229
  696TIP3   OH223722   5.107   4.778   1.433 -0.0077  0.2346  0.0901
  696TIP3    H123723   5.114   4.706   1.495  0.0518  0.2091  0.0536
  696TIP3    H223724   5.150   4.851   1.476 -0.2326  0.2986  0.2047
  697TIP3   OH223725   0.791   1.465   6.301  0.2239  0.0588 -0.8573
  697TIP3    H123726   0.870   1.432   6.343 -0.7377 -0.0551  0.9679
  697TIP3    H223727   0.806   1.559   6.291  0.7122 -0.0174 -0.8639
  698TIP3   OH223728   1.931   0.307   6.996 -0.0981 -0.0999  0.3130
  698TIP3    H123729   1.910   0.236   7.058  0.0175  0.8025  1.4111
  698TIP3    H223730   1.893   0.385   7.036  2.0324  0.9176  0.4428
  699TIP3   OH223731   5.157   0.004   7.794 -0.2262 -0.0895 -0.2287
  699TIP3    H123732   5.201  -0.081   7.790  0.0061 -0.0766  1.3210
  699TIP3    H223733   5.229   0.067   7.797 -0.3259 -0.0053  1.1608
  700TIP3   OH223734   2.654   4.503   0.287 -0.5424  0.1565 -0.0883
  700TIP3    H123735   2.695   4.588   0.306  0.5618 -0.5378  0.7433
  700TIP3    H223736   2.563   4.525   0.265 -0.2617  1.5591  0.0612
  701TIP3   OH223737   2.324   7.151   1.333 -0.4197  0.3504  0.8129
  701TIP3    H123738   2.367   7.066   1.343 -1.3971 -0.3983 -1.0575
  701TIP3    H223739   2.388   7.205   1.286 -0.9632 -0.3480 -0.7765
  702TIP3   OH223740   4.747   3.458   7.740 -0.1808 -0.6292  0.0611
  702TIP3    H123741   4.769   3.529   7.801  1.7013 -0.7243 -0.4612
  702TIP3    H223742   4.708   3.390   7.796 -0.0945 -0.0200  0.8860
  703TIP3   OH223743   3.438   2.342   7.032 -0.5671  1.0592  0.0826
  703TIP3    H123744   3.486   2.382   6.960  1.2459  1.1511  1.2832
  703TIP3    H223745   3.457   2.397   7.108  0.0029 -0.6554  1.2607
  704TIP3   OH223746   3.781   6.691   7.490  0.1481 -0.2529 -0.2081
  704TIP3    H123747   3.847   6.758   7.511 -1.9433  1.2794  2.0967
  704TIP3    H223748   3.746   6.718   7.405  0.3462  0.7761  0.0204
  705TIP3   OH223749   3.951   5.279   6.365  0.7590  0.0320  0.7832
  705TIP3    H123750   4.021   5.217   6.346  2.1509  1.9726 -0.8068
  705TIP3    H223751   3.913   5.300   6.280 -0.6960  0.2734  1.4521
  706TIP3   OH223752   4.836   5.909   6.728 -0.1689 -0.0418  0.0725
  706TIP3    H123753   4.744   5.927   6.745  0.0165  0.0010  1.0549
  706TIP3    H223754   4.876   5.903   6.814  0.9924  1.2166 -0.3448
  707TIP3   OH223755   0.921   2.214   7.859 -0.6336 -0.2099 -0.1813
  707TIP3    H123756   0.844   2.191   7.807 -1.1367 -0.6359  0.7407
  707TIP3    H223757   0.893   2.289   7.911 -0.3752 -0.2735  0.0518
  708TIP3   OH223758   4.189   4.540   0.485  0.2212  0.1488 -0.2125
  708TIP3    H123759   4.259   4.517   0.546  0.7393 -0.6670 -1.0730
  708TIP3    H223760   4.132   4.463   0.483  0.5044 -0.0520 -1.1384
  709TIP3   OH223761   3.432   2.380   0.863  0.0464 -0.5174  0.2951
  709TIP3    H123762   3.500   2.448   0.860  1.4856 -1.8101  1.6172
  709TIP3    H223763   3.478   2.299   0.843 -1.1699 -1.3897  0.9071
  710TIP3   OH223764   3.379   0.485   7.349 -0.1112 -0.2006 -0.6814
  710TIP3    H123765   3.308   0.422   7.362 -0.7390  0.3932 -1.1195
  710TIP3    H223766   3.443   0.439   7.295  0.1344 -0.9514  0.2280
  711TIP3   OH223767   0.735   4.122   7.318  0.1862  0.7031 -0.2504
  711TIP3    H123768   0.659   4.125   7.260  0.2997  0.3479 -0.4239
  711TIP3    H223769   0.755   4.028   7.326  2.5746  0.8295 -2.8464
  712TIP3   OH223770   1.970   2.461   0.396 -0.2046  0.2758 -0.1266
  712TIP3    H123771   2.002   2.537   0.445  0.3351  0.6291 -0.9979
  712TIP3    H223772   1.988   2.386   0.453 -0.5915  0.7831  0.6712
  713TIP3   OH223773   4.866   5.322   6.695 -0.1097  0.5768 -0.1235
  713TIP3    H123774   4.869   5.326   6.599 -0.9614  0.9564 -0.1466
  713TIP3    H223775   4.872   5.414   6.723  0.1728  0.4646  0.1919
  714TIP3   OH223776   3.051   6.613   7.244  0.6095 -0.2782  0.0136
  714TIP3    H123777   2.975   6.669   7.258  0.3358 -0.5342 -0.4501
  714TIP3    H223778   3.126   6.671   7.256  0.3293  0.1886 -0.4845
  715TIP3   OH223779   4.920   2.031   1.694  0.0211  0.1695  0.0033
  715TIP3    H123780   4.889   1.960   1.751 -1.7165  0.6214 -0.3180
  715TIP3    H223781   4.847   2.093   1.691  0.7714  1.0434 -1.2561
  716TIP3   OH223782   2.569   1.881   6.194 -0.1109  0.0471  0.1406
  716TIP3    H123783   2.478   1.907   6.182 -0.5221 -1.8712 -1.4635
  716TIP3    H223784   2.618   1.931   6.129  0.0913  1.4260  1.3146
  717TIP3   OH223785   5.339   2.070   6.989  0.5617  0.0429 -0.3126
  717TIP3    H123786   5.286   2.006   7.037 -0.7066  1.9626  0.9864
  717TIP3    H223787   5.313   2.057   6.897  0.8732 -1.7502 -0.1849
  718TIP3   OH223788   3.152   3.470   6.274  0.8638 -0.1066 -0.9046
  718TIP3    H123789   3.113   3.482   6.360 -0.0741 -1.8176 -1.0568
  718TIP3    H223790   3.215   3.542   6.266  0.9059  0.1432  1.1553
  719TIP3   OH223791   2.930   4.915   5.864  0.1644  0.0925  0.0455
  719TIP3    H123792   2.948   4.984   5.800 -0.4748 -1.0544 -1.4204
  719TIP3    H223793   2.838   4.894   5.853  0.3099 -0.9095  0.5619
  720TIP3   OH223794   5.968   0.893   6.837  0.1879 -0.3983 -0.5885
  720TIP3    H123795   5.984   0.799   6.825 -0.0079 -0.7681  1.6791
  720TIP3    H223796   5.873   0.901   6.845  0.3018 -0.2686  0.8856
  721TIP3   OH223797   5.013   1.748   1.386 -0.0599 -0.1074 -0.2877
  721TIP3    H123798   4.957   1.677   1.417  1.1629 -0.3247  1.5373
  721TIP3    H223799   4.954   1.824   1.382 -0.8598 -0.6977 -0.0106
  722TIP3   OH223800   1.031   4.771   7.058  0.2678  0.0545 -0.0990
  722TIP3    H123801   0.938   4.753   7.046 -0.3452  2.8659 -0.1483
  722TIP3    H223802   1.063   4.794   6.970  0.5791  0.8263  0.2069
  723TIP3   OH223803   2.911   1.895   6.557  0.3752  0.1311  0.0634
  723TIP3    H123804   2.889   1.814   6.603  0.5973  0.3750  0.6103
  723TIP3    H223805   2.946   1.866   6.473  0.7023 -0.3533  0.3599
  724TIP3   OH223806   1.760   3.542   0.518 -0.0269 -0.5076 -0.1966
  724TIP3    H123807   1.733   3.541   0.610 -1.6650  1.1729 -0.6124
  724TIP3    H223808   1.754   3.633   0.491  1.3869 -0.8080 -1.7446
  725TIP3   OH223809   2.077   5.340   7.365  0.4179  0.3157  0.0670
  725TIP3    H123810   2.095   5.413   7.306  0.7040  0.4415  0.3062
  725TIP3    H223811   2.042   5.271   7.308  0.9571  0.3341 -0.2937
  726TIP3   OH223812   1.347   6.743   0.078  0.5021 -0.0112 -0.3637
  726TIP3    H123813   1.291   6.673   0.113  0.6418  0.1529  0.1958
  726TIP3    H223814   1.377   6.709  -0.006  1.6680 -1.2342  0.4958
  727TIP3   OH223815   0.145   2.407   6.883 -0.0986  0.1030  0.1836
  727TIP3    H123816   0.060   2.363   6.892 -0.1700  0.1426 -0.2612
  727TIP3    H223817   0.177   2.415   6.972 -1.2541  1.4146  0.5222
  728TIP3   OH223818   2.589   6.644   0.595  0.4618  0.9124 -0.5436
  728TIP3    H123819   2.550   6.697   0.526 -1.2965  0.0480 -0.2767
  728TIP3    H223820   2.572   6.553   0.567  2.1008  0.4950 -0.2809
  729TIP3   OH223821   1.725   6.862   7.258 -0.7447 -0.5932 -0.2942
  729TIP3    H123822   1.650   6.856   7.317  0.0873 -0.0936  0.8444
  729TIP3    H223823   1.758   6.951   7.269  1.0271 -1.3024  0.5086
  730TIP3   OH223824   7.048   2.028   6.990 -0.5226  0.2232 -1.0009
  730TIP3    H123825   7.097   2.084   7.051  1.3139 -1.7559 -0.5294
  730TIP3    H223826   7.116   1.985   6.938 -1.3831 -4.3518  1.1420
  731TIP3   OH223827   0.644   0.371   6.509 -0.8327  0.2315  0.1595
  731TIP3    H123828   0.626   0.338   6.422  2.5957 -0.2172 -0.5200
  731TIP3    H223829   0.670   0.294   6.560 -2.2782  0.5595  1.4895
  732TIP3   OH223830   7.177   6.422   0.716  0.0221 -0.3584 -0.2878
  732TIP3    H123831   7.255   6.366   0.724  0.3333 -0.1709 -1.6868
  732TIP3    H223832   7.143   6.403   0.628 -0.6485  0.6556 -0.2611
  733TIP3   OH223833   2.280   0.276   0.259 -0.3464  0.0347 -0.1009
  733TIP3    H123834   2.274   0.324   0.342 -2.4057 -0.5342  0.1366
  733TIP3    H223835   2.267   0.184   0.284 -3.0020  0.0253 -1.1928
  734TIP3   OH223836   1.781   7.075   6.335  0.3750  0.2903 -0.6710
  734TIP3    H123837   1.720   7.054   6.406  0.2167  0.5139 -0.7416
  734TIP3    H223838   1.808   6.989   6.301 -0.1121  0.1915 -0.8199
  735TIP3   OH223839   5.035   1.578   1.626 -0.4341  0.4931  0.0483
  735TIP3    H123840   5.039   1.487   1.655  0.5037 -0.5741 -3.0514
  735TIP3    H223841   5.047   1.629   1.706 -0.1796 -2.0861  1.7823
  736TIP3   OH223842   0.534   3.543   1.039 -0.1124 -0.0175  0.1529
  736TIP3    H123843   0.474   3.574   0.970 -1.0222 -0.2910  0.8032
  736TIP3    H223844   0.614   3.594   1.025 -0.9441  1.3168  0.0627
  737TIP3   OH223845   4.323   5.244   6.880  0.1212  0.6729  0.5188
  737TIP3    H123846   4.292   5.307   6.945 -1.1014  1.1900 -0.5109
  737TIP3    H223847   4.351   5.297   6.806 -1.7925  0.0648 -0.7367
  738TIP3   OH223848   3.286   6.973   7.917  0.4712  0.3119  0.8066
  738TIP3    H123849   3.210   7.012   7.960 -0.2966  0.6515 -0.7871
  738TIP3    H223850   3.357   7.035   7.933 -0.1915  1.2324  0.2316
  739TIP3   OH223851   6.480   2.794   7.176 -0.1612 -0.4108 -0.1992
  739TIP3    H123852   6.407   2.746   7.217  0.8866 -1.2840  0.7355
  739TIP3    H223853   6.553   2.732   7.180  0.8628  0.7695 -0.2931
  740TIP3   OH223854   6.593   0.424   7.909  0.0805  0.4459  0.0721
  740TIP3    H123855   6.513   0.373   7.922 -0.0105  1.2137  3.6425
  740TIP3    H223856   6.570   0.513   7.934  1.8419  0.8489  0.4474
  741TIP3   OH223857   0.097   5.548   6.301 -0.2913 -0.8070 -0.0630
  741TIP3    H123858   0.049   5.630   6.286 -0.8562 -1.1956 -0.4326
  741TIP3    H223859   0.032   5.490   6.342 -0.2817 -1.4984 -1.0034
  742TIP3   OH223860   2.638   0.160   7.125  0.2800 -0.5549  0.4774
  742TIP3    H123861   2.592   0.103   7.186  0.3083 -1.0064  0.0897
  742TIP3    H223862   2.620   0.121   7.039 -2.3126  1.7627 -0.1531
  743TIP3   OH223863   0.224   2.031   2.119  0.1938 -0.6346  0.2140
  743TIP3    H123864   0.215   1.944   2.080  2.7367 -0.5477 -0.8177
  743TIP3    H223865   0.149   2.080   2.086 -0.0517 -1.8003 -1.0631
  744TIP3   OH223866   5.526   0.639   6.878 -0.0024  0.1609  0.1716
  744TIP3    H123867   5.544   0.657   6.970 -1.3217  0.1684  0.4426
  744TIP3    H223868   5.461   0.568   6.879  0.0593  0.0766 -0.7543
  745TIP3   OH223869   5.588   2.186   0.937  0.9772  0.3241  0.3624
  745TIP3    H123870   5.610   2.202   0.845  0.9568 -2.1989 -0.1510
  745TIP3    H223871   5.668   2.205   0.985  1.4327  0.2837 -0.3713
  746TIP3   OH223872   4.382   0.705   1.619  0.7224 -0.6069  0.6671
  746TIP3    H123873   4.322   0.695   1.693  0.5196 -2.2581  0.3311
  746TIP3    H223874   4.462   0.660   1.647  1.4587  0.7040  0.7239
  747TIP3   OH223875   3.312   1.059   6.092 -0.0752 -0.1141  0.2934
  747TIP3    H123876   3.305   1.082   6.185 -0.5163  0.5584  0.1084
  747TIP3    H223877   3.230   1.093   6.053  0.7634  0.9719 -0.6022
  748TIP3   OH223878   0.736   6.751   6.924  0.0463 -0.0853 -0.0702
  748TIP3    H123879   0.703   6.687   6.988 -4.4192  1.5831 -0.3867
  748TIP3    H223880   0.715   6.712   6.839 -2.9713  1.6658 -0.2660
  749TIP3   OH223881   0.322   4.567   0.145  0.5854 -0.3897  0.4884
  749TIP3    H123882   0.410   4.566   0.184  0.4547  0.3144  0.8184
  749TIP3    H223883   0.330   4.624   0.069 -0.0887  1.5546  1.8012
  750TIP3   OH223884   5.410   7.114   5.767 -0.0201  0.2247  0.1618
  750TIP3    H123885   5.327   7.111   5.720 -0.5524  3.1787  0.7143
  750TIP3    H223886   5.399   7.053   5.840 -0.8491 -1.0600 -1.0023
  751TIP3   OH223887   4.647   1.937   0.513  0.4402  0.3220 -0.1286
  751TIP3    H123888   4.566   1.976   0.546 -0.7870 -2.8579  0.9567
  751TIP3    H223889   4.666   1.866   0.574  1.8288 -1.5406 -2.5710
  752TIP3   OH223890   2.012   0.204   1.618 -0.2039  0.0819  0.2416
  752TIP3    H123891   2.105   0.223   1.603 -0.6930  1.8268 -0.9227
  752TIP3    H223892   1.998   0.118   1.578  0.9205 -0.2511  0.5380
  753TIP3   OH223893   4.970   6.596   0.589  0.7267  0.2764 -0.1226
  753TIP3    H123894   4.877   6.573   0.593  0.8026 -1.0873 -3.4240
  753TIP3    H223895   4.982   6.657   0.662 -2.8028  0.7768  0.2321
  754TIP3   OH223896   4.589   3.254   0.165  0.0126 -0.2625 -0.2420
  754TIP3    H123897   4.500   3.289   0.169 -0.0237 -0.4591  0.8857
  754TIP3    H223898   4.639   3.305   0.229  0.6015 -0.4660 -0.5275
  755TIP3   OH223899   3.265   4.110   7.364  0.1524  0.1167  0.1297
  755TIP3    H123900   3.219   4.175   7.310  0.6805 -0.6003 -1.2218
  755TIP3    H223901   3.351   4.148   7.380  1.1395 -0.9781 -2.2206
  756TIP3   OH223902   1.610   4.330   6.603 -0.2519  0.6875  0.0340
  756TIP3    H123903   1.619   4.418   6.565 -0.4343  0.8092  0.2738
  756TIP3    H223904   1.523   4.302   6.577  0.4721 -0.1756 -1.6141
  757TIP3   OH223905   4.405   6.830   7.860 -0.1475 -0.2623 -0.3996
  757TIP3    H123906   4.499   6.824   7.878 -0.2181 -1.4571 -0.3074
  757TIP3    H223907   4.383   6.922   7.875  0.8634 -0.1164  0.3011
  758TIP3   OH223908   2.438   1.282   7.293  0.7049 -0.2052 -0.0489
  758TIP3    H123909   2.429   1.306   7.385 -0.5220  0.4657 -0.3295
  758TIP3    H223910   2.529   1.252   7.285  1.3099  1.2042  1.0425
  759TIP3   OH223911   5.613   3.443   1.104  0.2136 -0.0725 -0.5750
  759TIP3    H123912   5.613   3.425   1.010 -2.4274 -1.9482 -0.3096
  759TIP3    H223913   5.575   3.531   1.111  1.5613  0.6109 -1.2481
  760TIP3   OH223914   4.059   0.113   0.890  0.1982 -0.0916  0.1133
  760TIP3    H123915   4.012   0.038   0.854  0.0476 -0.3654  0.8577
  760TIP3    H223916   4.023   0.189   0.844  1.0281 -0.5444 -1.3445
  761TIP3   OH223917   0.305   0.972   6.966 -0.5348  0.1742  0.5453
  761TIP3    H123918   0.274   0.887   6.996 -0.1084 -0.6800 -1.2758
  761TIP3    H223919   0.225   1.020   6.942 -0.6780 -0.7437 -0.9324
  762TIP3   OH223920   2.897   6.647   1.205  0.3785  0.5147 -0.6304
  762TIP3    H123921   2.972   6.601   1.242  0.8956  0.1319 -2.1217
  762TIP3    H223922   2.933   6.730   1.173 -0.0066  0.7047 -0.5810
  763TIP3   OH223923   3.148   2.436   7.560  0.0777 -0.1932  0.2636
  763TIP3    H123924   3.146   2.468   7.650  0.0644  1.2812 -0.2271
  763TIP3    H223925   3.238   2.406   7.548  0.0829 -0.3942  0.7623
  764TIP3   OH223926   3.114   0.734   7.115  0.2870 -0.1878 -0.0312
  764TIP3    H123927   3.065   0.813   7.136 -0.9658 -0.9577  0.0997
  764TIP3    H223928   3.175   0.723   7.188 -1.9954 -1.2356  1.8636
  765TIP3   OH223929   0.205   4.485   6.190 -0.0080 -0.5319 -0.2140
  765TIP3    H123930   0.219   4.572   6.228 -2.2489 -0.0929 -0.2698
  765TIP3    H223931   0.198   4.500   6.096  1.1142 -1.0145 -0.3940
  766TIP3   OH223932   3.706   4.778   1.862 -0.0622 -0.2831 -0.3347
  766TIP3    H123933   3.703   4.813   1.951  3.5595 -2.1425  0.6751
  766TIP3    H223934   3.728   4.854   1.808  1.8867  0.1577  0.9859
  767TIP3   OH223935   5.546   0.578   1.330  0.5268  0.4070  0.0790
  767TIP3    H123936   5.576   0.488   1.322  0.4964  0.4474 -0.5347
  767TIP3    H223937   5.473   0.585   1.268  0.4505  0.8166  0.2094
  768TIP3   OH223938   6.780   4.293   7.400 -0.5906 -0.0382 -0.1678
  768TIP3    H123939   6.700   4.337   7.427  0.2084  1.2136  0.2310
  768TIP3    H223940   6.775   4.290   7.304  0.1007  2.5339 -0.3635
  769TIP3   OH223941   1.431   2.537   7.764  0.1298 -0.0484 -0.1805
  769TIP3    H123942   1.389   2.466   7.714  0.3940  1.4429 -2.7015
  769TIP3    H223943   1.511   2.498   7.798  1.4519 -0.4736 -3.4677
  770TIP3   OH223944   5.990   6.759   5.812  0.7118 -0.2817 -0.2001
  770TIP3    H123945   6.026   6.679   5.852 -0.3462 -0.7424 -0.1539
  770TIP3    H223946   5.896   6.745   5.810  0.5744  0.6616 -0.8850
  771TIP3   OH223947   5.996   5.546   7.254 -0.1328 -0.1369 -0.1660
  771TIP3    H123948   6.048   5.466   7.245 -3.4520 -2.3255 -1.7866
  771TIP3    H223949   5.955   5.539   7.340  1.0877  0.8894  0.5276
  772TIP3   OH223950   3.332   4.209   1.803 -0.0397 -0.1944 -0.2022
  772TIP3    H123951   3.384   4.133   1.830  0.7511  0.5363  0.3334
  772TIP3    H223952   3.380   4.285   1.835 -0.8081  0.5489 -0.7658
  773TIP3   OH223953   3.845   3.167   7.920  0.2527  0.1998  0.2179
  773TIP3    H123954   3.776   3.112   7.882 -0.1286 -0.7257  2.1607
  773TIP3    H223955   3.895   3.197   7.844  0.1585 -2.4048 -1.0054
  774TIP3   OH223956   0.985   2.402   6.400 -0.7910 -0.1130  0.1866
  774TIP3    H123957   1.027   2.445   6.474 -0.0248 -2.2042  1.0374
  774TIP3    H223958   0.892   2.423   6.410 -0.3892  2.1021 -0.0304
  775TIP3   OH223959   6.396   6.448   0.242  0.4516  0.0501 -0.1496
  775TIP3    H123960   6.402   6.392   0.319  0.0316  0.2769  0.0548
  775TIP3    H223961   6.359   6.392   0.174  1.1680 -0.2540 -0.2956
  776TIP3   OH223962   4.939   4.534   0.223 -0.0851 -0.3226 -0.5732
  776TIP3    H123963   4.897   4.490   0.149 -2.5022  0.4232  0.2556
  776TIP3    H223964   4.866   4.572   0.272  1.6459  1.5997  0.6496
  777TIP3   OH223965   0.041   5.069   1.023  0.1762  0.0404 -0.1438
  777TIP3    H123966   0.125   5.104   0.992  0.6318 -0.4401  0.5090
  777TIP3    H223967   0.030   5.106   1.111  0.6950 -1.4327  0.5850
  778TIP3   OH223968   6.009   3.773   6.741  0.0510 -0.3731 -0.2093
  778TIP3    H123969   6.070   3.702   6.718 -2.6573 -2.8441 -0.4047
  778TIP3    H223970   5.983   3.811   6.658  1.0322  0.5081 -0.1404
  779TIP3   OH223971   5.143   2.899   6.621  0.1811  0.0086  0.1012
  779TIP3    H123972   5.154   2.987   6.655 -0.7570 -0.1849  0.9713
  779TIP3    H223973   5.099   2.851   6.692  1.2566 -1.3299 -0.0937
  780TIP3   OH223974   3.819   4.046   0.998  0.4981  0.6176  0.2120
  780TIP3    H123975   3.902   4.042   0.950  1.2400 -1.5096  1.5691
  780TIP3    H223976   3.754   4.012   0.936  0.7925  1.3002 -0.4933
  781TIP3   OH223977   4.376   6.479   1.498 -0.3603  0.4781  0.1660
  781TIP3    H123978   4.423   6.535   1.559 -1.0266  0.2511  0.9006
  781TIP3    H223979   4.334   6.413   1.553  0.1517 -0.5551 -0.6611
  782TIP3   OH223980   5.660   5.429   7.769 -0.2316 -0.0893 -0.3443
  782TIP3    H123981   5.699   5.347   7.739 -1.1349 -1.9103  2.9825
  782TIP3    H223982   5.722   5.464   7.832 -0.2483  1.4099 -1.1098
  783TIP3   OH223983   3.496   6.514   7.896  0.3791 -0.1188  0.1399
  783TIP3    H123984   3.456   6.553   7.819  0.5332  0.1923  0.2168
  783TIP3    H223985   3.544   6.438   7.863 -0.4657 -0.6330  0.0809
  784TIP3   OH223986   6.405   6.103   7.151  0.0111  0.2919  0.2219
  784TIP3    H123987   6.469   6.064   7.091 -1.1804 -1.2440 -0.1149
  784TIP3    H223988   6.457   6.137   7.223  1.2815  0.0063 -0.5313
  785TIP3   OH223989   0.139   4.047   6.081  0.1416 -0.2033 -0.5579
  785TIP3    H123990   0.056   4.052   6.032 -0.0206 -0.0961 -0.2778
  785TIP3    H223991   0.203   4.087   6.023 -0.1866  0.5694 -0.4111
  786TIP3   OH223992   1.487   4.734   0.349  0.5470  0.9281  0.0866
  786TIP3    H123993   1.539   4.724   0.428  1.8363 -0.2834 -0.8540
  786TIP3    H223994   1.538   4.795   0.295  0.9051 -0.0741 -0.7418
  787TIP3   OH223995   3.825   4.004   0.241 -0.7307 -0.1217  0.2875
  787TIP3    H123996   3.877   3.947   0.184 -2.5265 -1.2084 -0.3511
  787TIP3    H223997   3.773   3.944   0.294 -2.2312  0.8995  0.0307
  788TIP3   OH223998   1.474   4.339   0.839 -0.3557  0.3991 -0.1479
  788TIP3    H123999   1.432   4.424   0.824 -0.1256  0.4058 -0.7865
  788TIP3    H224000   1.491   4.337   0.933 -1.7810  0.3952  0.1325
  789TIP3   OH224001   6.522   4.362   1.669  0.3552  0.3448 -0.1463
  789TIP3    H124002   6.488   4.356   1.758 -0.7630 -1.4667 -0.6432
  789TIP3    H224003   6.568   4.279   1.655 -1.5608 -0.4698 -2.0358
  790TIP3   OH224004   1.343   1.401   7.041  0.2114  0.1249 -0.2912
  790TIP3    H124005   1.388   1.318   7.059  0.0470 -0.0711 -0.7936
  790TIP3    H224006   1.347   1.448   7.125 -1.1340 -1.0560  0.4904
  791TIP3   OH224007   4.556   0.092   7.045  0.1293 -0.6766  0.0507
  791TIP3    H124008   4.629   0.137   7.003  0.1031 -0.1435  0.5807
  791TIP3    H224009   4.597   0.020   7.094  0.5223  0.8141  2.0024
  792TIP3   OH224010   2.784   1.806   5.762 -0.2266 -0.6378  0.4926
  792TIP3    H124011   2.722   1.868   5.799  1.8101  2.2244 -0.4610
  792TIP3    H224012   2.867   1.828   5.805  1.6522  0.9850 -3.4515
  793TIP3   OH224013   2.975   6.506   0.438  0.0189 -0.4571  0.6717
  793TIP3    H124014   3.070   6.514   0.443 -0.1324  1.8234  0.6576
  793TIP3    H224015   2.943   6.555   0.514 -1.1848  0.0517 -0.1393
  794TIP3   OH224016   6.108   5.351   6.883  0.1141 -0.1994  0.1796
  794TIP3    H124017   6.184   5.377   6.935 -0.8691  0.2145  1.4701
  794TIP3    H224018   6.118   5.257   6.871  1.0581 -0.0805 -0.0792
  795TIP3   OH224019   6.822   0.465   6.016  0.2202  0.0941  0.3921
  795TIP3    H124020   6.916   0.471   6.031  0.0680 -0.4679  1.7866
  795TIP3    H224021   6.783   0.489   6.100 -0.8638 -0.2342  0.0090
  796TIP3   OH224022   0.617   5.854   7.548  0.0102  0.0519 -0.2049
  796TIP3    H124023   0.562   5.857   7.469 -0.5100 -1.7264  0.0510
  796TIP3    H224024   0.692   5.800   7.523  0.2869  0.2141  0.2628
  797TIP3   OH224025   6.053   4.853   7.879  0.3305  0.7447 -0.2988
  797TIP3    H124026   6.044   4.760   7.902 -0.7101  0.8452 -0.2597
  797TIP3    H224027   6.057   4.898   7.964  0.2128  0.7970 -0.3220
  798TIP3   OH224028   0.851   3.975   1.034 -0.5078 -0.2865  0.2886
  798TIP3    H124029   0.808   4.045   0.985  0.3571 -0.2387 -0.4291
  798TIP3    H224030   0.897   4.019   1.105 -1.2222 -0.2917  0.7688
  799TIP3   OH224031   3.285   4.578   0.972 -0.0673 -0.2503  0.3668
  799TIP3    H124032   3.260   4.663   1.009  0.4961 -0.0994  0.4119
  799TIP3    H224033   3.350   4.544   1.033  0.0757 -0.4863  0.0831
  800TIP3   OH224034   2.811   0.214   0.734 -0.2793  0.1177 -0.3916
  800TIP3    H124035   2.828   0.308   0.735  1.7616 -0.1931 -0.7072
  800TIP3    H224036   2.726   0.205   0.692 -0.7933  1.8465  0.2223
  801TIP3   OH224037   6.489   4.968   1.295 -0.2337  0.6224 -0.1270
  801TIP3    H124038   6.504   4.879   1.262  1.8615  0.1476  1.8640
  801TIP3    H224039   6.576   5.007   1.299 -0.8765  2.0039  1.0486
  802TIP3   OH224040   3.126   3.954   7.666  0.5250  0.7243 -0.0932
  802TIP3    H124041   3.206   3.915   7.633 -0.5005 -0.9406 -0.7550
  802TIP3    H224042   3.125   3.933   7.759 -0.5516 -2.0041 -0.6285
  803TIP3   OH224043   3.819   3.762   6.904  0.3645 -0.2254 -0.3376
  803TIP3    H124044   3.832   3.682   6.853  0.2504  0.4905 -1.5541
  803TIP3    H224045   3.896   3.816   6.884  0.4889 -0.0720  0.5421
  804TIP3   OH224046   6.574   1.554   6.454  0.4017 -0.8602 -0.2027
  804TIP3    H124047   6.542   1.615   6.387 -0.0549 -1.4646 -0.5414
  804TIP3    H224048   6.528   1.580   6.534 -0.5705 -1.3887 -0.5697
  805TIP3   OH224049   5.867   1.902   5.775 -0.0461 -0.1853  0.4074
  805TIP3    H124050   5.937   1.881   5.713 -1.5774  2.1285 -2.3393
  805TIP3    H224051   5.882   1.993   5.799  0.1635 -0.8489  3.1430
  806TIP3   OH224052   5.341   2.420   1.883  0.1296 -0.0317  0.0480
  806TIP3    H124053   5.326   2.326   1.875  0.0040 -0.0405  0.3610
  806TIP3    H224054   5.257   2.456   1.910 -0.6139  0.5643 -2.7644
  807TIP3   OH224055   3.066   6.038   5.742 -0.3267  0.5274  0.2389
  807TIP3    H124056   3.152   6.037   5.701 -0.8684 -1.4477 -1.0057
  807TIP3    H224057   3.069   6.111   5.804  1.3800  2.1071 -1.5529
  808TIP3   OH224058   6.097   2.463   5.756 -0.0833  0.1607 -0.4954
  808TIP3    H124059   6.024   2.517   5.727 -0.5556 -0.0105  0.3386
  808TIP3    H224060   6.091   2.465   5.852 -0.4810 -1.8761 -0.4403
  809TIP3   OH224061   1.852   5.955   5.888 -0.8596  0.1358 -0.0775
  809TIP3    H124062   1.918   6.003   5.838 -1.7733  0.8093 -0.6836
  809TIP3    H224063   1.815   5.893   5.825  0.0533 -1.1384  0.6000
  810TIP3   OH224064   3.756   3.147   1.939 -0.5899  0.1480  0.0926
  810TIP3    H124065   3.696   3.108   1.875 -0.1110  0.8767 -0.8167
  810TIP3    H224066   3.782   3.074   1.995 -0.3946 -0.6671 -1.0348
  811TIP3   OH224067   4.266   4.052   6.191 -0.5033  0.4881 -0.0353
  811TIP3    H124068   4.215   4.121   6.232 -2.1322  0.4905 -1.9089
  811TIP3    H224069   4.203   3.982   6.174  0.2991  0.0879 -1.5447
  812TIP3   OH224070   5.273   3.564   6.251 -0.3078  0.0677 -0.4438
  812TIP3    H124071   5.225   3.576   6.170 -0.7964  2.2562  0.0980
  812TIP3    H224072   5.207   3.539   6.315  0.4747 -4.9274 -1.2022
  813TIP3   OH224073   6.449   5.407   0.052  0.1898  0.2433  0.2284
  813TIP3    H124074   6.360   5.395   0.085  0.7903  3.9818  4.0022
  813TIP3    H224075   6.438   5.454  -0.031 -1.2999 -0.7208 -0.1518
  814TIP3   OH224076   1.075   4.104   6.376  0.4201 -0.4171  0.7079
  814TIP3    H124077   1.018   4.083   6.450  1.0471 -1.4194  0.9207
  814TIP3    H224078   1.030   4.066   6.300 -0.1067  0.4087  0.5961
  815TIP3   OH224079   0.487   6.458   7.801  0.7178 -0.2820  0.4622
  815TIP3    H124080   0.505   6.538   7.851  0.4183  1.3084 -1.8492
  815TIP3    H224081   0.416   6.481   7.742  0.7840 -2.1881 -0.4464
  816TIP3   OH224082   6.065   0.694   7.437  0.3773 -0.1001 -0.0030
  816TIP3    H124083   6.016   0.773   7.456  1.5243  0.3516  1.2659
  816TIP3    H224084   6.032   0.629   7.499  0.7175 -0.0643  0.2201
  817TIP3   OH224085   2.011   4.594   7.274  0.4138  0.5103 -0.2806
  817TIP3    H124086   2.050   4.625   7.356  0.6586  1.1678 -0.6358
  817TIP3    H224087   2.049   4.507   7.260 -1.3985 -0.6490  1.4897
  818TIP3   OH224088   1.534   5.969   0.427  0.3703  0.3354 -0.0345
  818TIP3    H124089   1.612   5.914   0.425 -0.4020 -0.7698 -1.3909
  818TIP3    H224090   1.520   5.995   0.336 -0.4182  1.1609  0.3014
  819TIP3   OH224091   3.197   0.045   7.842 -0.6231 -0.2757 -0.3828
  819TIP3    H124092   3.282   0.024   7.803 -1.3488 -1.4639 -1.4424
  819TIP3    H224093   3.216   0.109   7.910  1.4846 -2.3759  1.1893
  820TIP3   OH224094   1.016   2.373   0.170  0.0302 -0.0052  0.3257
  820TIP3    H124095   1.059   2.366   0.256  1.0783 -1.8365 -0.2884
  820TIP3    H224096   1.082   2.343   0.108 -1.2416 -0.2395 -0.9677
  821TIP3   OH224097   4.473   3.274   7.104 -0.3719  0.6235  0.2587
  821TIP3    H124098   4.539   3.269   7.173  1.7754  0.1938 -1.6894
  821TIP3    H224099   4.442   3.365   7.107  2.1118  1.5958 -0.2064
  822TIP3   OH224100   0.606   5.529   6.968  0.3326 -0.1649  0.9385
  822TIP3    H124101   0.685   5.476   6.974 -0.1658 -0.9496  0.6809
  822TIP3    H224102   0.547   5.479   6.912  0.1435  1.0385  0.0135
  823TIP3   OH224103   0.941   1.543   5.648 -0.4668 -0.3165 -0.3774
  823TIP3    H124104   0.890   1.463   5.659 -1.3790 -0.0098 -1.8989
  823TIP3    H224105   0.877   1.607   5.618  0.3063  0.9088  0.5086
  824TIP3   OH224106   5.040   0.537   6.925 -0.3779 -0.0811  0.3924
  824TIP3    H124107   4.957   0.560   6.884 -0.4295  0.0394  0.5654
  824TIP3    H224108   5.081   0.477   6.863 -0.7072 -0.3396  0.4248
  825TIP3   OH224109   3.951   2.948   1.257 -1.0456 -0.4837  0.2525
  825TIP3    H124110   4.043   2.975   1.260 -0.7003 -1.6674  0.6339
  825TIP3    H224111   3.937   2.903   1.340 -2.4538  1.1744  0.9695
  826TIP3   OH224112   2.195   0.349   7.351  0.0956  0.1959 -0.4471
  826TIP3    H124113   2.118   0.362   7.405  0.0245 -0.7653 -0.2924
  826TIP3    H224114   2.204   0.430   7.301 -0.9638  0.3408 -0.4152
  827TIP3   OH224115   0.930   4.461   6.712 -0.0569  0.2687 -1.1458
  827TIP3    H124116   0.836   4.444   6.706 -0.5728  2.3062  0.2752
  827TIP3    H224117   0.968   4.376   6.736 -1.6396 -0.3753 -0.7936
  828TIP3   OH224118   6.668   0.341   5.779  0.2786  0.0166  0.1738
  828TIP3    H124119   6.728   0.363   5.850 -1.9954  0.4975  2.0368
  828TIP3    H224120   6.594   0.400   5.790 -0.6600 -0.6701 -1.9491
  829TIP3   OH224121   5.100   3.551   7.037 -0.1621  0.0165  0.1977
  829TIP3    H124122   5.101   3.633   6.987 -0.2185  0.3423  0.7254
  829TIP3    H224123   5.150   3.571   7.116 -1.7417  0.1008  1.2097
  830TIP3   OH224124   6.549   2.645   6.787  0.0599 -0.8561  0.0454
  830TIP3    H124125   6.494   2.716   6.820  1.4546 -0.3944  1.5218
  830TIP3    H224126   6.515   2.566   6.827 -0.7705 -0.8788 -0.6767
  831TIP3   OH224127   1.448   1.321   7.291  0.2561  0.3845 -0.1687
  831TIP3    H124128   1.499   1.277   7.360  0.9016  1.5157  0.0972
  831TIP3    H224129   1.491   1.405   7.280 -0.4611  0.6187 -1.2619
  832TIP3   OH224130   4.607   0.417   5.863  0.0644  0.6496 -0.2576
  832TIP3    H124131   4.607   0.510   5.885 -0.6606  0.2796  1.4251
  832TIP3    H224132   4.514   0.394   5.860  0.2237  0.0682 -1.1636
  833TIP3   OH224133   5.921   1.876   0.136  0.0898  0.6632  1.0473
  833TIP3    H124134   5.875   1.870   0.219  1.7285 -0.8253  1.9140
  833TIP3    H224135   5.918   1.787   0.100 -1.8491  1.5611 -1.2681
  834TIP3   OH224136   6.564   3.004   0.990  0.5900 -0.2095 -0.1532
  834TIP3    H124137   6.473   3.013   1.019  0.7389  2.0559 -0.2207
  834TIP3    H224138   6.616   3.022   1.068  0.9726  0.0897 -0.4727
  835TIP3   OH224139   0.986   5.181   1.460 -0.1796  0.0066  0.4838
  835TIP3    H124140   0.903   5.211   1.497 -0.1994 -1.0587  1.3767
  835TIP3    H224141   0.984   5.211   1.369 -0.7521  1.5191  0.9572
  836TIP3   OH224142   0.749   4.220   0.829  0.8559  0.2604  0.0229
  836TIP3    H124143   0.694   4.296   0.812  0.5714 -0.2700 -1.6178
  836TIP3    H224144   0.837   4.248   0.805  0.7046 -0.0042 -0.8639
  837TIP3   OH224145   1.567   4.961   6.544 -0.2903  0.0309 -0.2488
  837TIP3    H124146   1.598   4.871   6.558 -1.2822 -0.4993 -1.3065
  837TIP3    H224147   1.612   5.012   6.611  2.4078 -0.7932 -1.2829
  838TIP3   OH224148   1.716   1.881   1.137 -0.3345  0.4887  0.1631
  838TIP3    H124149   1.798   1.927   1.154  0.0473 -0.6367  1.5985
  838TIP3    H224150   1.658   1.948   1.100  0.8304  1.6134  0.2974
  839TIP3   OH224151   5.404   0.206   6.038  0.1533  0.2349  0.5846
  839TIP3    H124152   5.476   0.163   5.992  0.0748  3.6472 -3.3639
  839TIP3    H224153   5.334   0.141   6.039  0.9448 -0.8131 -2.2647
  840TIP3   OH224154   5.300   0.574   5.847  0.5535  0.2288 -0.3094
  840TIP3    H124155   5.219   0.522   5.846  1.7042 -1.6913  0.3797
  840TIP3    H224156   5.358   0.529   5.786  0.9253  1.9782 -1.3081
  841TIP3   OH224157   5.907   2.312   7.730 -0.0667 -0.6914 -0.2323
  841TIP3    H124158   5.990   2.335   7.689  1.5442 -1.6165  2.3155
  841TIP3    H224159   5.842   2.367   7.685  2.1964  1.7259 -0.7670
  842TIP3   OH224160   4.564   6.117   1.101 -0.0019  0.1829 -0.2200
  842TIP3    H124161   4.627   6.179   1.066 -0.4218  0.1199 -1.1144
  842TIP3    H224162   4.508   6.169   1.158 -1.2801  0.9803 -2.0979
  843TIP3   OH224163   4.531   5.289   2.171  0.5414  0.2378 -0.5279
  843TIP3    H124164   4.567   5.266   2.086  0.2782  0.0578 -0.5918
  843TIP3    H224165   4.471   5.218   2.192  3.4231 -1.8061  1.5719
  844TIP3   OH224166   4.644   1.548   6.624  0.1367 -0.2376  0.3202
  844TIP3    H124167   4.723   1.603   6.613 -0.1080  0.3856  1.5478
  844TIP3    H224168   4.622   1.556   6.716 -1.0409 -0.8876  0.1087
  845TIP3   OH224169   5.387   6.782   0.109  0.1898  0.3179  0.3510
  845TIP3    H124170   5.458   6.718   0.116 -1.6873 -1.8429  0.5730
  845TIP3    H224171   5.355   6.792   0.198  0.8496  2.1468  0.4364
  846TIP3   OH224172   1.682   5.926   0.016  0.2042  0.2893 -0.4374
  846TIP3    H124173   1.717   5.862   0.078  1.7115  1.6053  0.1378
  846TIP3    H224174   1.588   5.908   0.013  0.3309 -0.7924  1.0567
  847TIP3   OH224175   1.072   3.737   1.674  0.1973 -0.1408 -0.9297
  847TIP3    H124176   1.112   3.657   1.707 -0.3047 -0.1692 -0.3791
  847TIP3    H224177   1.138   3.774   1.615  0.9755 -0.2488 -0.1383
  848TIP3   OH224178   5.651   6.300   7.364  0.8158  0.2243  0.0878
  848TIP3    H124179   5.613   6.343   7.441  0.6318 -1.8258  1.2096
  848TIP3    H224180   5.700   6.225   7.400 -0.2424 -1.4798 -1.8456
  849TIP3   OH224181   6.308   7.187   6.771 -0.2065 -0.1779 -0.2396
  849TIP3    H124182   6.364   7.135   6.712  0.4764  1.2776 -0.9230
  849TIP3    H224183   6.284   7.263   6.719 -1.7305 -0.1125  0.5249
  850TIP3   OH224184   2.236   0.719   0.235  0.0030 -0.6032 -0.3450
  850TIP3    H124185   2.144   0.742   0.231  0.5057  1.5130 -0.5104
  850TIP3    H224186   2.267   0.754   0.319  1.1347  0.7004 -1.2699
  851TIP3   OH224187   0.994   1.628   7.436  0.0163  0.0944 -0.4821
  851TIP3    H124188   1.030   1.565   7.498 -0.5356  0.9501  0.7504
  851TIP3    H224189   1.070   1.681   7.410  0.2431 -0.2456 -0.5303
  852TIP3   OH224190   4.236   0.736   5.712 -0.3813  0.2352  0.2985
  852TIP3    H124191   4.284   0.673   5.658 -0.4153  2.2018 -2.2490
  852TIP3    H224192   4.160   0.687   5.744 -0.4823 -1.0127 -1.6786
  853TIP3   OH224193   0.130   6.894   0.940 -0.6026  0.2534  0.2460
  853TIP3    H124194   0.184   6.818   0.964 -0.0135  0.3472 -0.7444
  853TIP3    H224195   0.069   6.904   1.013  0.4095 -0.1519  1.1817
  854TIP3   OH224196   3.121   7.073   6.523 -0.1039 -0.8203 -0.3859
  854TIP3    H124197   3.059   7.123   6.576  1.2502  0.5074  0.0278
  854TIP3    H224198   3.105   7.102   6.433 -0.6435 -1.1156 -0.3855
  855TIP3   OH224199   5.346   2.272   5.950 -0.1163  0.5457 -0.6063
  855TIP3    H124200   5.316   2.183   5.969  0.2005  0.5694  0.0486
  855TIP3    H224201   5.441   2.268   5.962 -0.1238  1.0189 -0.3708
  856TIP3   OH224202   2.842   2.784   1.661 -0.6705  0.3365  0.1907
  856TIP3    H124203   2.823   2.837   1.739 -0.7717 -1.7631  1.6607
  856TIP3    H224204   2.916   2.729   1.686 -1.8515 -1.6708 -0.5284
  857TIP3   OH224205   5.424   7.009   7.233  0.1225 -0.5868 -0.1719
  857TIP3    H124206   5.460   6.929   7.194  0.9531 -0.4702  0.3190
  857TIP3    H224207   5.500   7.053   7.271  0.1118  1.6925 -2.5195
  858TIP3   OH224208   4.883   3.882   6.166 -0.3195  0.0517  0.3859
  858TIP3    H124209   4.889   3.787   6.171 -1.2417 -0.0216  0.3697
  858TIP3    H224210   4.973   3.913   6.171 -0.0636 -0.7849  1.2497
  859TIP3   OH224211   6.957   4.621   1.364 -0.6580 -0.6359 -0.3230
  859TIP3    H124212   6.988   4.656   1.448 -3.3295  0.3110  0.3685
  859TIP3    H224213   6.966   4.694   1.303  1.5968 -1.4212 -1.0552
  860TIP3   OH224214   3.511   0.257   7.675 -0.1476  0.1079 -0.6301
  860TIP3    H124215   3.515   0.189   7.608 -0.4264 -0.1959 -0.3426
  860TIP3    H224216   3.478   0.334   7.629  0.5919  0.1770 -1.0535
  861TIP3   OH224217   5.507   3.366   7.498 -0.0717 -0.1844 -0.5588
  861TIP3    H124218   5.454   3.316   7.436  0.5851 -1.4618 -0.1117
  861TIP3    H224219   5.472   3.455   7.492 -2.1811 -0.9409 -0.3908
  862TIP3   OH224220   5.122   5.193   0.977  0.4616  0.0945  0.3732
  862TIP3    H124221   5.173   5.131   1.029  0.7913 -0.4056 -0.5283
  862TIP3    H224222   5.183   5.265   0.959  1.5955 -1.4384 -2.4568
  863TIP3   OH224223   3.934   6.458   6.968  0.2028 -0.5799 -0.4659
  863TIP3    H124224   3.899   6.397   6.903  0.2039  0.9720 -2.0004
  863TIP3    H224225   3.992   6.515   6.917 -0.6833  1.4130  0.6773
  864TIP3   OH224226   3.504   6.473   7.434 -0.3775  0.4560  0.0900
  864TIP3    H124227   3.460   6.459   7.518  0.1333  3.0940  0.9023
  864TIP3    H224228   3.439   6.519   7.381 -0.7193 -1.2436 -1.0565
  865TIP3   OH224229   1.260   1.775   2.153 -0.1642  0.0307  0.3549
  865TIP3    H124230   1.169   1.756   2.173 -0.6577  0.9344 -0.8511
  865TIP3    H224231   1.272   1.867   2.179  0.6193 -0.2860  1.1707
  866TIP3   OH224232   1.717   4.388   0.061  0.1721  0.5755 -0.3938
  866TIP3    H124233   1.795   4.374   0.008 -0.7453 -0.4955 -1.5137
  866TIP3    H224234   1.671   4.460   0.019 -0.5620 -0.2820 -1.1124
  867TIP3   OH224235   2.141   5.387   6.711 -0.1359  0.4196 -0.0827
  867TIP3    H124236   2.170   5.438   6.786  0.9196  0.4039 -0.4557
  867TIP3    H224237   2.046   5.379   6.721 -0.0832  0.9694  0.8912
  868TIP3   OH224238   5.929   1.181   0.097  0.0822 -0.0317  0.1159
  868TIP3    H124239   5.901   1.237   0.024 -0.9941 -0.4272  0.2033
  868TIP3    H224240   6.019   1.156   0.075 -0.7911 -1.6126 -2.0441
  869TIP3   OH224241   3.774   0.871   0.824  0.3777  0.4904  0.1754
  869TIP3    H124242   3.831   0.886   0.749  1.0615 -0.1004  0.5559
  869TIP3    H224243   3.791   0.780   0.849  0.4820  0.7969  1.2976
  870TIP3   OH224244   4.525   2.004   7.713 -0.2993  0.2460  0.7887
  870TIP3    H124245   4.456   2.054   7.669  1.2619  1.6220 -0.2268
  870TIP3    H224246   4.587   2.070   7.743  2.2283 -1.0302 -1.2124
  871TIP3   OH224247   4.739   3.255   1.982 -0.4375 -0.2487  0.2841
  871TIP3    H124248   4.737   3.305   1.900 -1.8363 -0.2745  0.2734
  871TIP3    H224249   4.804   3.186   1.966  0.1288  0.4302 -0.3900
  872TIP3   OH224250   1.055   5.365   7.358 -0.0403  0.2738 -0.0906
  872TIP3    H124251   0.990   5.296   7.344 -1.0612  1.1030  0.3205
  872TIP3    H224252   1.004   5.446   7.353  1.1845  1.0172 -0.9138
  873TIP3   OH224253   3.060   2.496   5.803 -0.5426  0.5158  0.1233
  873TIP3    H124254   3.013   2.579   5.806 -0.0084  0.8049  1.3097
  873TIP3    H224255   3.151   2.521   5.787  0.0090  0.3864  2.6217
  874TIP3   OH224256   6.416   1.498   0.562  0.5326  0.0275  0.2641
  874TIP3    H124257   6.460   1.553   0.627  2.2580 -0.5117 -0.4098
  874TIP3    H224258   6.359   1.441   0.614  0.6225  0.7169  1.1552
  875TIP3   OH224259   2.340   5.531   0.643  0.2706  0.1576  0.1297
  875TIP3    H124260   2.249   5.551   0.624  0.4071  1.1305  0.4549
  875TIP3    H224261   2.338   5.489   0.729  0.0825 -0.2902 -0.0921
  876TIP3   OH224262   2.463   7.051   0.660  0.6794 -0.2221 -0.2570
  876TIP3    H124263   2.383   7.096   0.686 -0.1817 -0.9221 -1.5920
  876TIP3    H224264   2.471   6.979   0.723 -0.0009 -0.4077 -0.3707
  877TIP3   OH224265   6.640   3.446   7.743  0.4872 -0.7193 -0.2295
  877TIP3    H124266   6.732   3.471   7.731  0.1857  0.9395  0.6603
  877TIP3    H224267   6.592   3.494   7.676  0.1296 -0.4953  0.1777
  878TIP3   OH224268   4.043   2.954   2.015  0.4653  0.1940 -0.2748
  878TIP3    H124269   4.078   2.937   2.102  0.4214 -0.4967 -0.3821
  878TIP3    H224270   3.990   3.033   2.024  1.3758  0.7794  0.0755
  879TIP3   OH224271   2.757   0.163   6.348 -0.2361  0.1477 -0.4371
  879TIP3    H124272   2.726   0.148   6.259 -1.3831 -0.3115  0.0227
  879TIP3    H224273   2.684   0.138   6.404  1.1588 -1.5299  0.7363
  880TIP3   OH224274   6.314   1.977   7.314  0.0602  0.1813  0.0467
  880TIP3    H124275   6.383   2.042   7.296 -0.4029  0.4457 -0.8272
  880TIP3    H224276   6.233   2.028   7.316 -0.2048 -0.2408  0.3148
  881TIP3   OH224277   2.199   4.590   6.582  0.3950  0.0079 -0.1047
  881TIP3    H124278   2.142   4.613   6.509  2.3913 -2.6269 -2.7605
  881TIP3    H224279   2.241   4.672   6.608  0.0926  0.9404 -2.3791
  882TIP3   OH224280   5.142   1.305   5.567  0.0103 -0.1674  0.2026
  882TIP3    H124281   5.144   1.388   5.615 -1.3730 -0.7661  1.4059
  882TIP3    H224282   5.050   1.295   5.541  0.7937  0.3957 -3.1858
  883TIP3   OH224283   3.462   0.990   7.252  0.6289 -0.5855 -0.4986
  883TIP3    H124284   3.549   1.028   7.266  0.9146 -1.9900  2.0701
  883TIP3    H224285   3.476   0.896   7.258 -0.5220 -1.1136 -3.9715
  884TIP3   OH224286   6.014   2.792   6.939 -0.7864  0.3840  0.1604
  884TIP3    H124287   5.970   2.840   6.869  0.5613  0.6837 -0.5271
  884TIP3    H224288   6.051   2.860   6.995  0.0292  0.1584 -0.0908
  885TIP3   OH224289   2.364   5.994   7.299 -0.0592  0.4732 -0.9223
  885TIP3    H124290   2.442   5.996   7.356 -0.7960  0.1357  0.1244
  885TIP3    H224291   2.374   6.071   7.243  0.8918  0.5892 -0.6161
  886TIP3   OH224292   4.178   0.055   5.589  0.3208 -0.1996  0.7752
  886TIP3    H124293   4.229   0.025   5.664 -0.0878 -1.4496  0.5752
  886TIP3    H224294   4.118  -0.017   5.570  1.5143 -0.6520 -1.7903
  887TIP3   OH224295   5.095   0.933   7.697  0.0019 -0.7078 -0.3108
  887TIP3    H124296   5.014   0.887   7.720  0.6257 -0.8757  1.7474
  887TIP3    H224297   5.162   0.893   7.752  1.8356 -1.4890 -2.8933
  888TIP3   OH224298   0.434   1.374   6.595 -0.5802 -0.2170 -0.3250
  888TIP3    H124299   0.432   1.295   6.649 -1.8719 -1.9953 -2.8021
  888TIP3    H224300   0.499   1.354   6.527  1.2278  2.0763  0.5945
  889TIP3   OH224301   5.429   0.750   7.446  0.1485  0.5524  0.5729
  889TIP3    H124302   5.374   0.674   7.428  0.4812  0.8113 -1.7791
  889TIP3    H224303   5.375   0.825   7.421  1.2360  0.8483 -1.0269
  890TIP3   OH224304   5.677   3.201   0.359 -0.3768 -0.3702  0.0104
  890TIP3    H124305   5.688   3.244   0.274 -0.1755 -0.4550 -0.0074
  890TIP3    H224306   5.638   3.116   0.338 -0.5394 -0.2978  0.0226
  891TIP3   OH224307   6.105   0.471   1.057 -0.3232  0.4902 -0.4111
  891TIP3    H124308   6.196   0.465   1.027 -0.7337 -1.1069 -1.5137
  891TIP3    H224309   6.110   0.474   1.152  0.8719 -2.9035 -0.2332
  892TIP3   OH224310   7.220   0.379   0.498 -0.3572  0.1204  0.3170
  892TIP3    H124311   7.316   0.377   0.502 -0.3972 -1.0771  1.0229
  892TIP3    H224312   7.201   0.409   0.409  0.6783 -0.9785 -0.3057
  893TIP3   OH224313   0.742   2.526   6.420  0.5204  0.8274 -0.3851
  893TIP3    H124314   0.755   2.577   6.340  0.2089  0.3002 -0.7775
  893TIP3    H224315   0.647   2.513   6.424  0.4100  1.8140  0.6807
  894TIP3   OH224316   3.142   3.013   1.430 -0.4108  0.4486 -0.5200
  894TIP3    H124317   3.077   2.991   1.363  0.0864 -1.7228 -0.3403
  894TIP3    H224318   3.089   3.042   1.505 -1.1285 -0.1859 -0.7637
  895TIP3   OH224319   1.643   2.772   7.856 -0.4288 -0.1852  0.9737
  895TIP3    H124320   1.631   2.786   7.762 -2.5531  0.0109  1.2173
  895TIP3    H224321   1.660   2.679   7.865  2.1190  0.1414  0.2560
  896TIP3   OH224322   2.456   4.116   7.601  0.0884  0.4131  0.4986
  896TIP3    H124323   2.364   4.137   7.618  0.0592  0.7124 -0.0032
  896TIP3    H224324   2.468   4.028   7.637 -0.6586 -0.0314 -0.3179
  897TIP3   OH224325   5.044   6.883   0.256  0.5911 -0.4326 -0.3752
  897TIP3    H124326   5.108   6.954   0.270 -1.1545  0.8440  1.8493
  897TIP3    H224327   5.082   6.808   0.303  2.3548 -1.0190 -2.5702
  898TIP3   OH224328   6.005   0.476   1.865 -0.4738  0.5543 -0.3447
  898TIP3    H124329   5.918   0.458   1.827 -0.8536  1.0033  0.3027
  898TIP3    H224330   6.040   0.389   1.884 -0.7609  0.3660 -0.6492
  899TIP3   OH224331   5.546   3.590   7.135 -0.3383 -0.3128 -0.1020
  899TIP3    H124332   5.492   3.668   7.138 -0.4011 -0.3461 -0.3467
  899TIP3    H224333   5.535   3.556   7.046 -1.2455 -1.2622  0.3569
  900TIP3   OH224334   6.770   1.180   6.518  0.0204 -0.1323 -0.4330
  900TIP3    H124335   6.706   1.242   6.482 -1.4395 -1.9469 -1.1643
  900TIP3    H224336   6.839   1.176   6.452 -0.3263  0.0422 -0.8161
  901TIP3   OH224337   2.323   5.798   0.117  0.4325  0.0972 -0.4065
  901TIP3    H124338   2.314   5.853   0.195 -1.5498  0.7644 -1.0479
  901TIP3    H224339   2.275   5.718   0.137 -0.8066  0.6079 -1.1937
  902TIP3   OH224340   2.813   5.889   1.243 -0.1214  0.1356  0.0821
  902TIP3    H124341   2.888   5.919   1.192 -0.9196  0.2394 -1.0655
  902TIP3    H224342   2.738   5.931   1.202 -1.0481 -1.7899 -0.2839
  903TIP3   OH224343   1.877   4.515   6.929  0.0666  0.8202 -0.3136
  903TIP3    H124344   1.816   4.577   6.887  0.6544  2.7465  1.5046
  903TIP3    H224345   1.923   4.474   6.856 -1.3030  1.5149 -1.6409
  904TIP3   OH224346   0.958   2.893   6.269 -0.8774  0.3212  0.3029
  904TIP3    H124347   0.971   2.980   6.305  0.2160  0.5002 -0.4952
  904TIP3    H224348   1.009   2.835   6.325 -0.9375  0.3027  0.3389
  905TIP3   OH224349   5.059   0.683   6.608 -0.2541 -0.3695  0.6400
  905TIP3    H124350   5.118   0.757   6.620 -0.5660  0.1604 -0.8953
  905TIP3    H224351   5.004   0.707   6.533 -1.0531 -1.7128  0.7549
  906TIP3   OH224352   1.851   6.792   7.587 -0.4646 -0.0168 -0.8822
  906TIP3    H124353   1.941   6.761   7.599 -1.1714 -1.7214  0.5479
  906TIP3    H224354   1.813   6.732   7.523 -0.2160  1.6395 -2.6898
  907TIP3   OH224355   3.472   0.236   5.791 -0.5614 -0.6448  0.1093
  907TIP3    H124356   3.416   0.260   5.718 -2.9811 -1.8671  1.4514
  907TIP3    H224357   3.476   0.140   5.789  1.3830 -0.6106  0.1700
  908TIP3   OH224358   0.705   1.444   6.017 -0.6771 -0.0238  0.3303
  908TIP3    H124359   0.778   1.444   6.079 -1.2632 -0.3686  1.0414
  908TIP3    H224360   0.739   1.399   5.940  0.2286  0.8755  0.1926
  909TIP3   OH224361   1.661   2.176   7.254  0.3917  0.1732  0.2325
  909TIP3    H124362   1.626   2.262   7.231  0.2495  0.5261  1.6760
  909TIP3    H224363   1.628   2.159   7.342 -0.2903 -1.7660 -0.3498
  910TIP3   OH224364   1.694   2.984   7.520 -1.5331  0.2128  0.3195
  910TIP3    H124365   1.752   3.014   7.450 -1.5649  0.2087  0.2913
  910TIP3    H224366   1.718   3.037   7.595  0.9125 -2.0961  1.3196
  911TIP3   OH224367   4.738   1.805   1.636  0.0209  0.4548  0.1662
  911TIP3    H124368   4.789   1.804   1.717 -0.0238  0.9826  0.2029
  911TIP3    H224369   4.675   1.875   1.648 -1.7923 -1.1878  0.7661
  912TIP3   OH224370   7.048   6.463   0.973  0.1709 -0.0967 -0.1011
  912TIP3    H124371   7.078   6.443   0.885 -0.5577 -1.4398 -0.0725
  912TIP3    H224372   6.976   6.525   0.961  1.6469  1.6648 -0.2724
  913TIP3   OH224373   1.534   2.590   0.306 -0.1475 -0.4561  0.2984
  913TIP3    H124374   1.557   2.604   0.215 -1.7047 -1.4048 -0.2792
  913TIP3    H224375   1.468   2.656   0.325  0.2266 -0.2117  0.7790
  914TIP3   OH224376   3.798   7.148   6.049  0.3834 -0.1645 -0.1434
  914TIP3    H124377   3.891   7.164   6.036  0.3814 -0.3144 -0.3486
  914TIP3    H224378   3.755   7.221   6.004  0.3524 -1.1600 -1.7914
  915TIP3   OH224379   4.884   3.965   1.292 -0.2416 -0.1191 -0.1891
  915TIP3    H124380   4.971   3.931   1.270 -0.3449  0.3498 -1.4260
  915TIP3    H224381   4.885   3.976   1.387  1.5631  1.2632 -0.3149
  916TIP3   OH224382   5.817   7.077   7.522 -0.3530  0.4141 -0.0029
  916TIP3    H124383   5.855   6.989   7.531 -0.2603  0.4094 -0.3986
  916TIP3    H224384   5.827   7.117   7.608 -0.5940 -0.0426  0.2446
  917TIP3   OH224385   4.062   0.024   6.020 -0.4055 -0.7912  0.0520
  917TIP3    H124386   4.118   0.018   5.942 -0.7784 -1.3267 -0.1792
  917TIP3    H224387   4.096   0.100   6.067  0.0837 -0.6997 -0.4286
  918TIP3   OH224388   5.076   7.036   6.284  0.0853 -0.2802  0.2729
  918TIP3    H124389   5.042   7.020   6.195  0.5935 -0.6599  0.1458
  918TIP3    H224390   5.056   6.955   6.331  2.7644 -1.4549 -0.3998
  919TIP3   OH224391   1.045   6.090   1.603  0.3877 -0.7367  0.1568
  919TIP3    H124392   1.075   6.102   1.693  0.6734  2.3100 -0.2332
  919TIP3    H224393   1.124   6.066   1.554  1.0888  1.4003  0.1388
  920TIP3   OH224394   5.527   5.837   0.410  0.6500  0.2240  0.1716
  920TIP3    H124395   5.527   5.741   0.411  1.1439  0.2106 -0.5505
  920TIP3    H224396   5.555   5.860   0.322 -2.3657  1.0538 -0.6772
  921TIP3   OH224397   4.250   0.304   1.036 -0.3845 -0.1112  0.4090
  921TIP3    H124398   4.324   0.364   1.038  0.0793 -0.5691 -1.2103
  921TIP3    H224399   4.260   0.252   1.116  2.9819 -2.3414 -1.2203
  922TIP3   OH224400   1.471   7.150   0.379 -0.6680  0.0187 -0.3819
  922TIP3    H124401   1.416   7.196   0.442 -1.1709  0.4556 -1.1281
  922TIP3    H224402   1.546   7.120   0.430 -1.0328  0.4218  0.4072
  923TIP3   OH224403   5.147   1.964   6.747  0.2184  0.0892  0.0793
  923TIP3    H124404   5.088   1.944   6.675  0.6837  0.5939 -0.4523
  923TIP3    H224405   5.113   1.914   6.821 -0.0350 -0.7562 -0.5913
  924TIP3   OH224406   3.666   1.399   6.878  0.0309  0.2180  0.0602
  924TIP3    H124407   3.736   1.339   6.851  0.0271  0.2122  0.0630
  924TIP3    H224408   3.700   1.444   6.955  0.6100  1.2603 -0.7808
  925TIP3   OH224409   5.371   1.247   6.928 -0.0453  0.5437  0.2635
  925TIP3    H124410   5.322   1.299   6.864 -2.0682  0.5487  1.7108
  925TIP3    H224411   5.346   1.284   7.013  2.3327  0.3585  1.1210
  926TIP3   OH224412   2.616   4.282   7.762 -0.0495 -0.1008  0.2698
  926TIP3    H124413   2.687   4.219   7.767  0.9942  0.9944 -0.2893
  926TIP3    H224414   2.541   4.231   7.730  0.4611 -1.2652  0.8678
  927TIP3   OH224415   4.953   0.771   6.374  0.1632 -0.7991  0.8609
  927TIP3    H124416   4.909   0.828   6.311  2.1675  0.3092  0.4113
  927TIP3    H224417   4.973   0.692   6.325  0.1033 -0.6620  0.6138
  928TIP3   OH224418   2.000   4.037   6.513  0.5245  0.1382 -0.2086
  928TIP3    H124419   1.941   3.969   6.482  1.3304  0.0597 -1.6848
  928TIP3    H224420   1.972   4.116   6.467  0.0203  0.6731  0.9809
  929TIP3   OH224421   1.832   0.365   5.866  0.0069  0.1464 -0.6874
  929TIP3    H124422   1.845   0.446   5.916 -0.8603 -0.0177 -0.1696
  929TIP3    H224423   1.811   0.394   5.777 -0.6688  0.5140 -0.4180
  930TIP3   OH224424   2.874   0.115   5.697 -0.6314 -0.6219 -0.3016
  930TIP3    H124425   2.938   0.144   5.762  1.5328 -1.8875 -1.7308
  930TIP3    H224426   2.838   0.196   5.660 -0.1334  0.1180  0.7927
  931TIP3   OH224427   1.029   2.453   0.785 -0.2880  0.3333 -0.1364
  931TIP3    H124428   1.053   2.506   0.860  0.1604  1.4710 -1.0489
  931TIP3    H224429   1.077   2.371   0.797  0.2606  0.7374  0.5126
  932TIP3   OH224430   6.084   0.071   0.257 -0.0720 -0.1854 -0.5158
  932TIP3    H124431   6.141   0.074   0.334  0.4290 -0.6711 -0.8602
  932TIP3    H224432   6.139   0.105   0.186 -1.1333  2.1732 -0.3242
  933TIP3   OH224433   6.500   2.094   6.339  0.5672 -0.2817  0.2082
  933TIP3    H124434   6.501   2.036   6.263  0.2685  1.0079 -0.8166
  933TIP3    H224435   6.540   2.175   6.307 -0.7350  0.7147  1.0613
  934TIP3   OH224436   4.196   0.557   0.875 -0.5188  0.0981 -0.3147
  934TIP3    H124437   4.107   0.591   0.884 -0.0513  1.1093  0.7116
  934TIP3    H224438   4.210   0.507   0.955 -0.4390 -0.7579 -0.8526
  935TIP3   OH224439   2.841   0.463   6.344 -0.4983  0.3033  0.2577
  935TIP3    H124440   2.886   0.509   6.273  2.2234 -1.4772  0.6847
  935TIP3    H224441   2.788   0.397   6.300 -0.7915  0.8306 -0.1921
  936TIP3   OH224442   1.752   0.276   6.113 -0.3415  0.1487 -0.2730
  936TIP3    H124443   1.829   0.274   6.169 -0.0388  0.1598 -0.6896
  936TIP3    H224444   1.782   0.314   6.031 -0.8768  0.5113 -0.3095
  937TIP3   OH224445   2.348   6.190   1.095 -0.3844 -0.0288 -0.1196
  937TIP3    H124446   2.330   6.137   1.172  0.8257  0.6270  0.6542
  937TIP3    H224447   2.416   6.252   1.124  1.2973 -0.8048 -2.1254
  938TIP3   OH224448   4.559   6.070   7.928 -0.4219 -0.0258  0.1282
  938TIP3    H124449   4.480   6.118   7.954 -0.3303  0.8774 -1.1225
  938TIP3    H224450   4.631   6.116   7.973 -0.2837  1.4000 -1.4291
  939TIP3   OH224451   1.753   4.259   6.875  0.4050  0.3409  0.1205
  939TIP3    H124452   1.787   4.345   6.898  1.2220  0.5404 -1.6190
  939TIP3    H224453   1.831   4.204   6.868 -0.0169 -0.2796  0.2309
  940TIP3   OH224454   4.058   4.994   1.083  1.1370  1.1100 -0.0302
  940TIP3    H124455   4.033   4.959   1.168 -2.3867  1.3127 -0.8194
  940TIP3    H224456   4.065   5.089   1.097 -0.8525  1.3161 -0.1702
  941TIP3   OH224457   6.822   2.227   1.549  0.0767  0.2380 -0.6940
  941TIP3    H124458   6.874   2.249   1.626  1.6240 -0.0227 -1.6220
  941TIP3    H224459   6.839   2.134   1.534 -0.0305  0.3369 -1.4719
  942TIP3   OH224460   2.357   3.804   1.574 -0.1596  0.3078 -0.4560
  942TIP3    H124461   2.360   3.877   1.636  0.4189 -0.3842  0.3557
  942TIP3    H224462   2.447   3.795   1.543 -0.2012 -0.1383 -0.4541
  943TIP3   OH224463   0.304   2.690   7.184 -0.6031  0.3114 -0.4964
  943TIP3    H124464   0.370   2.758   7.167 -0.5351  0.3877  0.0581
  943TIP3    H224465   0.230   2.737   7.222  0.4883 -0.2221  2.5692
  944TIP3   OH224466   3.395   0.720   0.656 -0.0999  0.0315 -0.1258
  944TIP3    H124467   3.476   0.717   0.605 -0.0264  0.7317 -0.0584
  944TIP3    H224468   3.410   0.789   0.721  0.0208 -1.1733  1.1963
  945TIP3   OH224469   6.949   6.337   2.074 -0.2607  0.0801 -0.2997
  945TIP3    H124470   7.003   6.329   1.996  0.5891 -0.3866  0.3306
  945TIP3    H224471   6.862   6.307   2.047  0.2528 -0.9543 -0.8189
  946TIP3   OH224472   4.935   3.687   1.178 -0.5993  0.4417 -0.7142
  946TIP3    H124473   4.900   3.601   1.152 -0.3204  0.1239 -0.0655
  946TIP3    H224474   4.867   3.724   1.234 -0.1952  0.1083  0.0078
  947TIP3   OH224475   4.519   2.465   6.312 -0.3469  0.3453 -0.2443
  947TIP3    H124476   4.579   2.460   6.386 -1.8003 -1.3550  0.9289
  947TIP3    H224477   4.507   2.559   6.297  0.5188  0.7266  1.2404
  948TIP3   OH224478   4.818   2.918   1.310  0.2062 -0.1205 -0.2380
  948TIP3    H124479   4.791   2.998   1.354  0.0455 -1.0595  1.4359
  948TIP3    H224480   4.909   2.933   1.286  0.5259  0.1573  1.0849
  949TIP3   OH224481   4.812   1.318   6.595 -0.2273  0.5347 -0.8097
  949TIP3    H124482   4.800   1.259   6.669 -1.1746  1.1305 -0.4857
  949TIP3    H224483   4.771   1.400   6.621  2.0933  1.7749 -0.7860
  950TIP3   OH224484   0.324   6.540   6.211  0.1146  0.4103 -0.5292
  950TIP3    H124485   0.305   6.543   6.118 -2.9430 -1.0085 -0.0626
  950TIP3    H224486   0.338   6.448   6.230  0.7229  0.6849  0.4347
  951TIP3   OH224487   1.217   6.557   0.476  0.3336  0.3283 -0.4595
  951TIP3    H124488   1.143   6.507   0.440  1.5421 -2.1677  0.3168
  951TIP3    H224489   1.286   6.548   0.411  0.7307  0.5636 -0.0757
  952TIP3   OH224490   6.458   6.345   7.052 -0.9168  0.4396 -0.2120
  952TIP3    H124491   6.389   6.282   7.075 -2.9344  2.1667 -1.1481
  952TIP3    H224492   6.530   6.291   7.020 -2.2561 -1.4144 -0.2814
  953TIP3   OH224493   5.151   4.796   6.702 -0.5542  0.3043 -0.4229
  953TIP3    H124494   5.082   4.807   6.637 -0.0132  1.4133 -0.8230
  953TIP3    H224495   5.164   4.883   6.739  1.3816  0.3679 -1.1331
  954TIP3   OH224496   7.074   4.643   6.364  0.2625  0.3313  0.0740
  954TIP3    H124497   7.058   4.679   6.277  0.7364  0.8881  0.2094
  954TIP3    H224498   7.163   4.607   6.359  0.4826  0.7989  0.4569
  955TIP3   OH224499   4.984   2.748   6.430  0.2540 -0.2538  0.0855
  955TIP3    H124500   5.066   2.751   6.479  0.3119 -1.5872  0.0966
  955TIP3    H224501   5.010   2.770   6.340  0.3350  1.0203  0.4047
  956TIP3   OH224502   2.014   4.296   1.186 -0.0352 -0.1000  0.0026
  956TIP3    H124503   2.108   4.305   1.201  0.4500 -2.2073 -1.3364
  956TIP3    H224504   1.983   4.242   1.258 -0.4679  1.4405  1.0171
  957TIP3   OH224505   5.391   2.952   1.348  0.5787 -0.5954 -0.5222
  957TIP3    H124506   5.430   2.977   1.432 -0.3982 -0.5310 -0.0662
  957TIP3    H224507   5.310   2.906   1.373  0.3846 -0.7570 -1.4265
  958TIP3   OH224508   3.131   0.557   0.774 -0.1738  0.2676 -0.8867
  958TIP3    H124509   3.175   0.615   0.836  0.2719  0.9512 -1.8103
  958TIP3    H224510   3.160   0.469   0.797 -0.9948  0.3677  0.6566
  959TIP3   OH224511   0.302   0.300   0.680 -0.2119 -0.4744 -0.0886
  959TIP3    H124512   0.286   0.394   0.690  1.8927  0.0256 -0.8389
  959TIP3    H224513   0.215   0.260   0.683 -1.0750  1.3827  1.2150
  960TIP3   OH224514   4.849   3.705   6.910 -0.5774 -0.3853 -0.4132
  960TIP3    H124515   4.833   3.659   6.828  0.1563 -0.8595 -0.3082
  960TIP3    H224516   4.930   3.754   6.894  1.1150 -2.6053  0.8395
  961TIP3   OH224517   4.986   6.211   7.854  0.5445 -0.0218 -0.2820
  961TIP3    H124518   4.898   6.219   7.890  0.2709 -1.6929 -0.4708
  961TIP3    H224519   5.042   6.258   7.915 -0.4495  0.9649 -0.1007
  962TIP3   OH224520   4.954   2.869   1.671  0.0343  0.4634 -0.5996
  962TIP3    H124521   4.988   2.914   1.748  1.0220  1.1857 -1.4377
  962TIP3    H224522   4.859   2.884   1.675  0.0131  0.0963  0.7049
  963TIP3   OH224523   1.823   4.646   7.479  0.0561 -0.1072 -0.3634
  963TIP3    H124524   1.853   4.571   7.529 -0.4723 -0.6435 -0.8432
  963TIP3    H224525   1.847   4.627   7.388 -0.0003  0.3429 -0.4789
  964TIP3   OH224526   0.058   0.159   0.726 -0.9209  0.1410 -0.0052
  964TIP3    H124527   0.038   0.094   0.659  0.3362  0.9640 -1.2171
  964TIP3    H224528  -0.017   0.217   0.727 -0.6180  0.5826 -1.2878
  965TIP3   OH224529   2.750   0.290   1.584 -0.3220 -0.1483 -0.2928
  965TIP3    H124530   2.790   0.363   1.631  0.7212  0.3141 -1.8141
  965TIP3    H224531   2.795   0.212   1.616 -0.9388 -0.0706  0.8120
  966TIP3   OH224532   3.382   6.126   1.528  0.0522 -0.6642  0.0294
  966TIP3    H124533   3.322   6.170   1.588  0.4019 -0.7020  0.4111
  966TIP3    H224534   3.430   6.064   1.584  0.5188 -0.5606 -0.2549
  967TIP3   OH224535   7.136   1.633   0.091 -0.0695 -0.2289  0.1037
  967TIP3    H124536   7.115   1.557   0.146  2.0201 -0.4723  0.6510
  967TIP3    H224537   7.101   1.611   0.005 -0.0367 -1.5546  0.4105
  968TIP3   OH224538   6.306   5.080   7.480  0.0001 -0.5207  0.4192
  968TIP3    H124539   6.282   5.050   7.567  1.5351 -1.6252  0.5006
  968TIP3    H224540   6.353   5.162   7.495  0.6913 -0.9573  0.6982
  969TIP3   OH224541   6.307   1.131   6.985 -0.0911 -0.0294  0.5652
  969TIP3    H124542   6.219   1.156   6.954  0.2674 -0.6679 -1.0736
  969TIP3    H224543   6.335   1.062   6.925  1.3783 -0.1353  1.3223
  970TIP3   OH224544   3.506   6.610   6.399 -0.1602  0.0479 -0.0701
  970TIP3    H124545   3.594   6.593   6.365  0.2920  1.2856  0.4190
  970TIP3    H224546   3.448   6.580   6.330  0.6485 -0.4924 -0.5373
  971TIP3   OH224547   2.584   6.764   6.681 -0.1010 -0.5319 -0.2786
  971TIP3    H124548   2.602   6.731   6.769 -1.8097 -0.9272 -0.0461
  971TIP3    H224549   2.556   6.855   6.694 -1.3825 -0.9028 -0.2667
  972TIP3   OH224550   7.184   7.212   6.804 -0.2229 -0.5589  0.4635
  972TIP3    H124551   7.254   7.200   6.869  0.7691 -2.8448 -0.8936
  972TIP3    H224552   7.205   7.149   6.735 -0.7088  2.3659 -2.5879
  973TIP3   OH224553   1.314   2.022   7.426 -0.2656  0.1715 -0.3365
  973TIP3    H124554   1.251   2.027   7.497 -1.0834  0.8820 -1.0881
  973TIP3    H224555   1.302   1.935   7.389  1.6560 -1.0550  1.6873
  974TIP3   OH224556   6.222   5.906   7.631 -0.5403  0.1478 -0.0061
  974TIP3    H124557   6.265   5.909   7.545 -0.6185  0.5964 -0.0329
  974TIP3    H224558   6.289   5.871   7.690  0.7847  3.1946  0.4577
  975TIP3   OH224559   5.879   6.451   0.363 -0.1767  0.4000  0.0196
  975TIP3    H124560   5.891   6.475   0.271  1.0685  2.1423  0.5676
  975TIP3    H224561   5.918   6.364   0.371  0.8400  0.7512 -0.8719
  976TIP3   OH224562   2.408   3.036   2.112  0.2924  0.0285  0.2116
  976TIP3    H124563   2.474   2.971   2.133 -0.0009 -0.6673 -0.9356
  976TIP3    H224564   2.325   2.989   2.118  0.0819  0.2720 -0.6673
  977TIP3   OH224565   3.698   3.228   6.705  0.0757 -0.2579 -0.4134
  977TIP3    H124566   3.660   3.209   6.619  0.0111 -3.2868  0.1892
  977TIP3    H224567   3.787   3.193   6.700  0.4843  0.6195  0.4019
  978TIP3   OH224568   4.259   3.214   0.586 -0.7019 -0.0638  0.1750
  978TIP3    H124569   4.327   3.163   0.541  0.8153  0.5384  1.6418
  978TIP3    H224570   4.301   3.298   0.604 -2.5078  1.0308 -0.4944
  979TIP3   OH224571   3.752   0.756   7.355 -0.4952  0.1066 -0.2759
  979TIP3    H124572   3.814   0.783   7.423 -1.2240 -0.1336  0.5084
  979TIP3    H224573   3.806   0.746   7.276  0.4735 -0.1830  0.3994
  980TIP3   OH224574   6.749   1.470   5.913 -0.0853  0.0170 -0.3445
  980TIP3    H124575   6.699   1.511   5.843  1.0664  0.9749 -0.6315
  980TIP3    H224576   6.794   1.397   5.871 -2.3177 -1.7973  0.2135
  981TIP3   OH224577   4.254   2.566   6.939  0.1361 -0.0301 -0.3623
  981TIP3    H124578   4.306   2.599   7.012  1.1243 -0.1769 -0.9716
  981TIP3    H224579   4.166   2.555   6.975  0.3561  0.9005  0.5082
  982TIP3   OH224580   5.711   5.375   0.227  0.1569 -0.3377 -0.4046
  982TIP3    H124581   5.661   5.433   0.285  0.0986 -1.7928  1.0556
  982TIP3    H224582   5.651   5.356   0.155 -0.4773 -0.0478  0.0388
  983TIP3   OH224583   6.325   1.299   0.740 -0.3349  0.0470 -0.2982
  983TIP3    H124584   6.273   1.335   0.811 -1.5141 -0.2608 -0.9871
  983TIP3    H224585   6.286   1.213   0.723  0.3842 -0.1819 -0.8397
  984TIP3   OH224586   2.276   1.429   6.434  0.6035  0.7119 -0.3576
  984TIP3    H124587   2.287   1.334   6.438 -0.6496  0.6008  1.5607
  984TIP3    H224588   2.268   1.447   6.340 -2.5193 -1.5784 -0.7286
  985TIP3   OH224589   0.967   3.184   1.426  0.4591  0.1977  0.0263
  985TIP3    H124590   0.944   3.214   1.339  0.0660 -1.6012 -0.5308
  985TIP3    H224591   0.897   3.122   1.450  0.1387  1.2077  1.9449
  986TIP3   OH224592   4.019   2.037   1.330 -0.7344  0.0197  0.0324
  986TIP3    H124593   4.025   1.962   1.390 -2.4681  0.2255  0.5257
  986TIP3    H224594   4.053   2.005   1.247  2.6411 -0.0074  1.2994
  987TIP3   OH224595   0.180   6.243   0.799  0.0177 -0.3838 -0.0171
  987TIP3    H124596   0.249   6.298   0.761  0.4893 -0.2212  1.0487
  987TIP3    H224597   0.219   6.206   0.878 -0.5323 -1.7249 -0.3462
  988TIP3   OH224598   1.750   0.778   6.882 -0.1010 -0.1053  0.2006
  988TIP3    H124599   1.818   0.722   6.921 -0.0955 -0.5700 -0.4522
  988TIP3    H224600   1.675   0.719   6.871 -0.6178  0.4025  0.9087
  989TIP3   OH224601   5.770   4.801   0.569 -0.0413  0.6856 -0.2588
  989TIP3    H124602   5.803   4.887   0.542  0.2981 -0.0925 -2.6026
  989TIP3    H224603   5.684   4.795   0.527 -0.5571  0.3207  0.8340
  990TIP3   OH224604   4.586   4.794   5.742 -0.2043 -0.0479 -0.2257
  990TIP3    H124605   4.507   4.845   5.728  0.4737  1.3567  0.7376
  990TIP3    H224606   4.560   4.724   5.802 -0.3860  1.4824  1.5765
  991TIP3   OH224607   0.085   0.711   6.418  0.3562  0.5284 -0.2225
  991TIP3    H124608   0.057   0.643   6.479  1.1782  0.1514 -0.2654
  991TIP3    H224609   0.004   0.736   6.374  0.1764 -1.1670 -0.9572
  992TIP3   OH224610   1.573   1.081   5.616  0.0569  0.1455 -0.1298
  992TIP3    H124611   1.611   0.994   5.618  0.1684  0.1891 -0.2929
  992TIP3    H224612   1.635   1.136   5.665 -1.0404 -0.2561  1.7806
  993TIP3   OH224613   6.406   5.430   7.005 -0.3417  0.0355  0.3958
  993TIP3    H124614   6.418   5.520   6.976  0.2679  0.3158  1.4563
  993TIP3    H224615   6.488   5.386   6.979  0.5242  0.4611  2.2203
  994TIP3   OH224616   0.613   0.296   6.257 -0.2798 -0.1940 -0.0741
  994TIP3    H124617   0.563   0.217   6.235  0.4063 -0.4199 -0.8537
  994TIP3    H224618   0.697   0.285   6.212 -0.1107  0.8995 -0.0542
  995TIP3   OH224619   4.512   4.359   0.343  0.2752  0.0806  0.4561
  995TIP3    H124620   4.500   4.435   0.287 -0.2784  1.4361  2.3043
  995TIP3    H224621   4.582   4.309   0.301 -0.7515  0.5079 -1.9073
  996TIP3   OH224622   0.642   5.976   6.010 -0.0188  0.7219  0.0264
  996TIP3    H124623   0.692   5.982   5.928  1.3913  0.8461  0.8704
  996TIP3    H224624   0.648   5.884   6.035  0.2393  0.8350  0.3936
  997TIP3   OH224625   4.939   3.189   1.157 -0.4176  0.3028 -0.1692
  997TIP3    H124626   4.967   3.187   1.248  0.8048  1.3646 -0.4826
  997TIP3    H224627   4.949   3.099   1.126 -2.7663 -0.5320  1.2379
  998TIP3   OH224628   0.348   3.325   6.653 -0.2799 -0.5387  0.4989
  998TIP3    H124629   0.442   3.327   6.671 -0.2666  0.9687  0.4025
  998TIP3    H224630   0.310   3.290   6.734  0.3426 -0.9698  0.6160
  999TIP3   OH224631   5.879   6.111   5.535 -0.6568 -0.2150 -0.2251
  999TIP3    H124632   5.933   6.068   5.601  1.7213  1.4406 -0.9578
  999TIP3    H224633   5.797   6.062   5.536  0.4977 -2.3167  1.5781
 1000TIP3   OH224634   4.147   3.384   0.967 -0.2815  0.1257 -0.6060
 1000TIP3    H124635   4.195   3.303   0.984 -1.6446 -0.8900 -1.3224
 1000TIP3    H224636   4.055   3.358   0.972 -0.7622  1.1925 -2.6745
 1001TIP3   OH224637   1.503   3.239   6.518  0.4384 -0.1200  0.1811
 1001TIP3    H124638   1.589   3.221   6.555  0.5741 -2.2596 -0.9832
 1001TIP3    H224639   1.442   3.195   6.577  0.4516 -1.3879 -0.7134
 1002TIP3   OH224640   1.673   2.834   6.517  0.0310 -0.3103  0.4339
 1002TIP3    H124641   1.693   2.895   6.445 -0.0337  0.3796  0.9814
 1002TIP3    H224642   1.699   2.748   6.484  0.5151  0.0711 -0.2082
 1003TIP3   OH224643   2.373   4.719   7.677 -0.2814  0.1390 -0.6343
 1003TIP3    H124644   2.369   4.812   7.699  0.2261  0.1568 -0.6197
 1003TIP3    H224645   2.311   4.677   7.738  1.8469  0.0491  1.5883
 1004TIP3   OH224646   6.752   6.968   0.678  0.3071 -0.1244  0.1175
 1004TIP3    H124647   6.822   6.966   0.613 -0.7153 -0.3361 -1.0079
 1004TIP3    H224648   6.773   7.043   0.734  1.7865 -0.5933  0.2325
 1005TIP3   OH224649   6.026   2.289   0.820  0.0457  0.2712  0.3909
 1005TIP3    H124650   6.084   2.305   0.745 -0.0768  1.7324  0.5675
 1005TIP3    H224651   6.069   2.334   0.893 -1.4321  1.6951  0.4516
 1006TIP3   OH224652   3.402   1.633   7.046  0.1888  0.3991  0.0806
 1006TIP3    H124653   3.369   1.692   6.978  0.3218  0.8572  0.4057
 1006TIP3    H224654   3.494   1.660   7.057  0.1919  0.2661  0.3761
 1007TIP3   OH224655   5.265   5.290   6.679 -0.1550  0.0945 -0.6388
 1007TIP3    H124656   5.242   5.376   6.644 -0.9798  0.1146 -0.0879
 1007TIP3    H224657   5.360   5.283   6.667  0.1375  1.6444  0.5152
 1008TIP3   OH224658   2.521   0.922   5.806  0.0565  0.2475  0.5688
 1008TIP3    H124659   2.460   0.986   5.770 -0.2191 -0.0464  0.5061
 1008TIP3    H224660   2.607   0.950   5.774 -0.0012  0.8591  0.9430
 1009TIP3   OH224661   0.335   6.634   0.453 -1.1438  0.3722 -0.3218
 1009TIP3    H124662   0.360   6.643   0.361 -0.1885 -2.7171 -0.4666
 1009TIP3    H224663   0.240   6.637   0.452 -1.1741 -0.3134 -1.5202
 1010TIP3   OH224664   0.465   5.995   6.233 -0.3520 -0.4163 -0.1765
 1010TIP3    H124665   0.384   5.996   6.182 -0.3260  2.0766 -0.3006
 1010TIP3    H224666   0.535   6.003   6.167  0.0670 -2.6320 -0.0794
 1011TIP3   OH224667   0.324   2.459   7.643 -0.3441 -0.0282  0.6035
 1011TIP3    H124668   0.280   2.544   7.649  1.2357  0.8816  0.1137
 1011TIP3    H224669   0.258   2.395   7.669 -2.1483  1.1755 -0.7698
 1012TIP3   OH224670   0.624   6.509   6.102 -0.3482  0.3995  0.2719
 1012TIP3    H124671   0.557   6.481   6.163 -0.0534 -1.1053 -0.0440
 1012TIP3    H224672   0.592   6.482   6.016 -0.9089  2.7677 -0.3353
 1013TIP3   OH224673   2.937   5.817   5.796  0.5066  0.7261  0.4571
 1013TIP3    H124674   2.952   5.908   5.771  0.3324  0.6136 -0.0703
 1013TIP3    H224675   3.025   5.778   5.798  0.5181  0.7136 -0.0873
 1014TIP3   OH224676   5.805   5.367   6.276 -0.1899 -0.2068 -0.1838
 1014TIP3    H124677   5.881   5.315   6.251 -0.9901 -1.3870 -0.2255
 1014TIP3    H224678   5.740   5.349   6.209 -0.5652  0.6969 -0.0815
 1015TIP3   OH224679   0.235   0.595   7.329  0.9784 -0.5638  0.4379
 1015TIP3    H124680   0.305   0.560   7.384 -0.4771 -0.6227  2.3802
 1015TIP3    H224681   0.186   0.518   7.300  1.2636 -0.4796 -0.2755
 1016TIP3   OH224682   4.826   0.213   7.555  0.2439  0.4438  0.4240
 1016TIP3    H124683   4.822   0.306   7.533  0.4310  0.1706 -0.8128
 1016TIP3    H224684   4.746   0.198   7.605 -0.0877  1.1433  0.1267
 1017TIP3   OH224685   0.923   5.600   6.173 -0.3690  0.1685  0.1926
 1017TIP3    H124686   0.948   5.556   6.254  2.8411  0.0970 -0.6947
 1017TIP3    H224687   0.869   5.673   6.201  2.9086  1.8541  2.7964
 1018TIP3   OH224688   6.353   2.833   1.203  0.4454 -0.4128  0.5241
 1018TIP3    H124689   6.300   2.762   1.166  1.0389  0.8631 -3.2401
 1018TIP3    H224690   6.441   2.817   1.170  0.4496  2.3516 -1.1391
 1019TIP3   OH224691   5.247   2.617   6.458  0.3219 -0.8017  0.2632
 1019TIP3    H124692   5.232   2.596   6.366  1.5050 -0.4050 -0.0450
 1019TIP3    H224693   5.317   2.558   6.485  0.9740  0.0397  0.4865
 1020TIP3   OH224694   1.535   3.206   0.022 -0.1662  0.4826 -0.2230
 1020TIP3    H124695   1.511   3.260   0.097 -1.1634  0.6178 -0.6251
 1020TIP3    H224696   1.497   3.251  -0.054 -0.6081 -0.5053 -0.6196
 1021TIP3   OH224697   6.340   0.091   1.174 -0.1896  0.1223 -0.5050
 1021TIP3    H124698   6.346   0.020   1.110 -1.6130 -0.0763 -0.4452
 1021TIP3    H224699   6.249   0.119   1.170 -0.3021  0.1470  1.4219
 1022TIP3   OH224700   2.420   0.932   1.223 -0.3396  0.9049  0.2529
 1022TIP3    H124701   2.383   0.959   1.307 -1.0011  0.2316  0.1904
 1022TIP3    H224702   2.515   0.928   1.239 -0.5288 -0.0559  1.2315
 1023TIP3   OH224703   5.541   6.053   1.128  0.5073 -0.1995 -0.1770
 1023TIP3    H124704   5.592   6.123   1.168  0.6708 -0.4356  0.0321
 1023TIP3    H224705   5.461   6.048   1.180  1.1157 -1.1163  0.7050
 1024TIP3   OH224706   6.700   0.486   7.474  0.4685 -0.4486  0.2083
 1024TIP3    H124707   6.663   0.501   7.562  1.1707  1.8019  0.1935
 1024TIP3    H224708   6.655   0.550   7.419 -1.0157 -2.7854 -1.4597
 1025TIP3   OH224709   3.484   5.641   7.615 -0.0523  0.5539  0.7173
 1025TIP3    H124710   3.535   5.709   7.657 -0.0864  2.1422 -1.6261
 1025TIP3    H224711   3.516   5.559   7.653  3.6867  1.5000 -0.0418
 1026TIP3   OH224712   0.578   3.879   0.136  0.0749 -0.5825  0.5523
 1026TIP3    H124713   0.673   3.885   0.126  0.1668 -0.5488  1.3937
 1026TIP3    H224714   0.547   3.846   0.051  0.7955 -0.2203  0.1414
 1027TIP3   OH224715   6.534   3.219   7.852 -0.0178 -0.2467 -0.4024
 1027TIP3    H124716   6.603   3.267   7.807 -0.3854 -0.1150 -0.8329
 1027TIP3    H224717   6.570   3.200   7.938  0.6850 -0.4688 -0.7370
 1028TIP3   OH224718   5.513   4.145   6.557  0.2324  0.0323 -0.1999
 1028TIP3    H124719   5.418   4.146   6.549  0.1346  0.4881  0.8209
 1028TIP3    H224720   5.541   4.231   6.524  0.3095 -0.1725 -0.6713
 1029TIP3   OH224721   3.697   4.669   0.073 -0.0637  0.4585  0.0752
 1029TIP3    H124722   3.618   4.630   0.034  0.9307 -0.8933 -0.7024
 1029TIP3    H224723   3.724   4.736   0.010 -0.5249  0.8402  0.2834
 1030TIP3   OH224724   7.117   1.904   6.008 -0.2201  0.4073 -0.0587
 1030TIP3    H124725   7.048   1.908   5.941 -0.1745  1.9060 -0.0413
 1030TIP3    H224726   7.184   1.848   5.969 -0.8340  0.0493 -0.6433
 1031TIP3   OH224727   6.513   5.793   1.707 -0.5339  0.3702 -0.5004
 1031TIP3    H124728   6.507   5.787   1.611  1.4006  0.6756 -0.6817
 1031TIP3    H224729   6.554   5.710   1.733  1.0816  1.2189 -0.2098
 1032TIP3   OH224730   6.309   2.237   6.489 -0.1802 -0.4080 -0.5432
 1032TIP3    H124731   6.254   2.163   6.513  1.2052 -1.4510 -0.4291
 1032TIP3    H224732   6.374   2.200   6.429  0.1948  0.8458 -0.9474
 1033TIP3   OH224733   3.347   5.953   1.024 -0.1136  0.6130  0.0662
 1033TIP3    H124734   3.320   5.944   0.933 -0.2842  1.0325  0.0723
 1033TIP3    H224735   3.386   6.041   1.029  0.3716  0.3913  0.2774
 1034TIP3   OH224736   2.398   1.463   1.265 -0.2833 -0.3500 -0.0720
 1034TIP3    H124737   2.348   1.458   1.347 -0.6641 -0.3824 -0.3073
 1034TIP3    H224738   2.488   1.480   1.294 -0.3189 -0.8750  0.3863
 1035TIP3   OH224739   1.317   1.318   6.727  0.1009 -0.3692  0.1180
 1035TIP3    H124740   1.265   1.301   6.649 -0.8044 -0.9619  0.8354
 1035TIP3    H224741   1.267   1.383   6.776  0.4569 -0.3019  0.3961
 1036TIP3   OH224742   6.373   3.153   0.673 -0.2811  0.4237  0.7430
 1036TIP3    H124743   6.361   3.059   0.681  2.8560 -0.3681 -1.9913
 1036TIP3    H224744   6.284   3.187   0.661 -1.4239 -2.2979  0.7418
 1037TIP3   OH224745   6.754   7.219   0.446  0.3405  0.4052 -0.5163
 1037TIP3    H124746   6.704   7.169   0.511  0.9246  0.0456 -0.3328
 1037TIP3    H224747   6.716   7.192   0.362 -0.2551  0.6888 -0.3446
 1038TIP3   OH224748   4.323   3.987   1.370 -0.1663  0.2404  0.0176
 1038TIP3    H124749   4.327   4.050   1.299  0.2382 -1.6089 -1.6896
 1038TIP3    H224750   4.337   3.902   1.328 -0.4340 -0.9865  2.2365
 1039TIP3   OH224751   2.991   2.202   1.063  0.2751 -0.5604  0.8844
 1039TIP3    H124752   3.045   2.217   1.141 -0.5756  0.6197  1.2714
 1039TIP3    H224753   2.978   2.289   1.026 -0.6705 -0.9187  0.3379
 1040TIP3   OH224754   1.801   7.124   7.273  0.3227 -0.0785  0.0603
 1040TIP3    H124755   1.730   7.180   7.243  0.8850  0.2089 -0.7665
 1040TIP3    H224756   1.792   7.124   7.368 -1.8246 -1.4437 -0.0738
 1041TIP3   OH224757   0.664   6.606   0.489  0.1831  0.0968 -0.2062
 1041TIP3    H124758   0.650   6.606   0.394 -0.6142 -1.7028 -0.1170
 1041TIP3    H224759   0.643   6.696   0.516  0.4710  0.6547 -1.7236
 1042TIP3   OH224760   1.408   2.347   0.223 -0.4921  0.3872  0.1694
 1042TIP3    H124761   1.478   2.302   0.177 -0.6336 -0.1822  0.5051
 1042TIP3    H224762   1.454   2.401   0.288 -0.3934 -1.7819  2.0319
 1043TIP3   OH224763   1.786   3.184   7.279  0.1207  0.5425 -0.4066
 1043TIP3    H124764   1.708   3.188   7.224 -0.1460  1.2748  0.0185
 1043TIP3    H224765   1.854   3.150   7.221 -0.4765  0.0115 -0.8151
 1044TIP3   OH224766   1.006   3.139   6.349 -0.0679  0.2313 -0.0741
 1044TIP3    H124767   0.950   3.185   6.286 -0.2303  0.3297  0.1421
 1044TIP3    H224768   1.065   3.207   6.382 -0.3740  0.3048  0.3196
 1045TIP3   OH224769   0.874   0.462   0.152  0.1853  0.3031  0.2085
 1045TIP3    H124770   0.840   0.550   0.135 -0.4057  0.1278  0.4732
 1045TIP3    H224771   0.944   0.476   0.216 -1.1894  0.3933  1.7447
 1046TIP3   OH224772   1.552   5.768   6.610  0.2329  0.4747  0.1659
 1046TIP3    H124773   1.461   5.774   6.582  0.0841  0.5727  0.6544
 1046TIP3    H224774   1.603   5.799   6.535 -0.1952  1.6117  0.3237
 1047TIP3   OH224775   0.182   2.781   1.364 -0.2882 -0.1195 -0.2176
 1047TIP3    H124776   0.246   2.723   1.405 -0.2163 -0.9436 -1.4479
 1047TIP3    H224777   0.099   2.734   1.371 -0.8385  1.0175  1.5239
 1048TIP3   OH224778   0.329   0.772   6.652  1.0355  0.3282 -0.1742
 1048TIP3    H124779   0.378   0.789   6.733 -0.2144  0.8619  0.5017
 1048TIP3    H224780   0.361   0.687   6.622  1.9395  0.3930  0.5608
 1049TIP3   OH224781   7.118   3.164   6.684 -0.4424  0.1549 -0.2765
 1049TIP3    H124782   7.189   3.101   6.677  0.6015  1.4085 -2.4802
 1049TIP3    H224783   7.039   3.112   6.696  0.2934 -1.6668 -2.6131
 1050TIP3   OH224784   4.393   1.888   1.311  0.0571 -0.1090 -0.2378
 1050TIP3    H124785   4.332   1.919   1.378  0.6701 -0.6009  0.5652
 1050TIP3    H224786   4.339   1.878   1.233 -0.2252  2.6902 -0.4820
 1051TIP3   OH224787   4.786   6.879   6.118  0.4449  0.0947 -0.5068
 1051TIP3    H124788   4.714   6.927   6.159  1.1424  0.7680 -0.0419
 1051TIP3    H224789   4.828   6.943   6.060 -0.3142 -0.7442 -2.0572
 1052TIP3   OH224790   2.039   2.678   0.543  0.0370 -0.2419  0.1059
 1052TIP3    H124791   2.123   2.720   0.529  0.2728 -0.6407  0.3190
 1052TIP3    H224792   2.039   2.652   0.635 -0.1214 -0.6750 -0.0124
 1053TIP3   OH224793   0.004   1.714   1.407 -0.7510  0.3024  0.1884
 1053TIP3    H124794  -0.023   1.688   1.319 -0.3941 -2.6693  0.8668
 1053TIP3    H224795   0.089   1.756   1.395 -0.2947 -0.8787 -0.8077
 1054TIP3   OH224796   1.562   6.120   6.044  0.1644 -0.0836 -0.2315
 1054TIP3    H124797   1.640   6.173   6.052  0.1462  0.0040 -0.6172
 1054TIP3    H224798   1.589   6.032   6.071  0.2967  0.0320  0.0056
 1055TIP3   OH224799   1.840   2.059   6.849  0.2707  0.2209  0.4718
 1055TIP3    H124800   1.849   1.965   6.832  1.6441  0.7395 -2.1903
 1055TIP3    H224801   1.764   2.085   6.796 -1.8521  0.2405  3.3147
 1056TIP3   OH224802   0.870   3.490   7.217 -0.3145  0.0940  0.1717
 1056TIP3    H124803   0.849   3.406   7.177 -0.7563  0.2967 -0.0264
 1056TIP3    H224804   0.789   3.517   7.261  0.3187 -0.4115  1.7262
 1057TIP3   OH224805   6.264   3.534   1.354 -0.1119  0.1323  0.3122
 1057TIP3    H124806   6.282   3.513   1.446  0.8098  0.5861  0.2477
 1057TIP3    H224807   6.215   3.459   1.322  0.7418 -0.6663  0.8191
 1058TIP3   OH224808   4.407   4.224   7.986  0.3546 -0.1945  0.1664
 1058TIP3    H124809   4.363   4.203   7.904  2.4972 -1.3439 -0.7490
 1058TIP3    H224810   4.442   4.140   8.017  0.8011  0.4587  1.5332
 1059TIP3   OH224811   3.141   5.853   0.753  0.3646  1.0924 -0.2430
 1059TIP3    H124812   3.144   5.940   0.714  2.4761  1.0540 -0.2794
 1059TIP3    H224813   3.048   5.837   0.768 -0.1667  2.8554 -1.3118
 1060TIP3   OH224814   0.051   5.155   7.185  0.0227 -0.2931 -0.0190
 1060TIP3    H124815  -0.012   5.228   7.192 -0.6548 -0.9574  1.2768
 1060TIP3    H224816   0.080   5.157   7.094 -0.9546  0.8035 -0.3359
 1061TIP3   OH224817   5.206   5.305   6.261 -0.2572 -0.1758  0.4592
 1061TIP3    H124818   5.143   5.235   6.241  1.4719 -1.8794  0.7196
 1061TIP3    H224819   5.177   5.378   6.206 -0.8144 -1.8297 -1.6148
 1062TIP3   OH224820   1.533   0.541   6.293  0.0146 -0.2066 -0.4733
 1062TIP3    H124821   1.515   0.599   6.367  0.1352 -0.0763 -0.5467
 1062TIP3    H224822   1.559   0.599   6.222  0.6865 -0.3794 -0.3803
 1063TIP3   OH224823   1.060   6.862   7.969 -0.1657 -0.2777 -0.3354
 1063TIP3    H124824   1.060   6.776   7.927  1.0723 -0.2738 -0.3782
 1063TIP3    H224825   1.022   6.921   7.904  1.7143 -0.2731 -1.5097
 1064TIP3   OH224826   3.097   6.380   1.593 -0.8933 -0.1542  0.7049
 1064TIP3    H124827   3.190   6.361   1.606 -1.4451 -1.7081  2.9866
 1064TIP3    H224828   3.082   6.459   1.645 -0.7309  0.4763 -0.1969
 1065TIP3   OH224829   3.026   6.068   1.138 -0.0928 -0.3941 -0.3734
 1065TIP3    H124830   3.035   6.143   1.197 -2.8567 -0.1774 -0.0961
 1065TIP3    H224831   3.114   6.055   1.102  0.5612  2.7967 -0.2285
 1066TIP3   OH224832   0.213   7.004   0.375 -0.3943  0.2786 -0.3415
 1066TIP3    H124833   0.209   6.966   0.462  0.4878 -0.9739 -0.8051
 1066TIP3    H224834   0.131   7.053   0.366 -1.0887 -0.6265  0.7105
 1067TIP3   OH224835   4.671   3.291   0.755  0.4368  0.0510  0.0334
 1067TIP3    H124836   4.642   3.361   0.813  0.9013  0.1433  0.1620
 1067TIP3    H224837   4.759   3.270   0.786  0.7021  0.1213 -0.6516
 1068TIP3   OH224838   1.116   4.964   1.340  0.2014  0.2576  0.2313
 1068TIP3    H124839   1.085   5.043   1.384  2.2094  1.1578  0.1426
 1068TIP3    H224840   1.048   4.942   1.278 -1.0978  1.0096  1.3428
 1069TIP3   OH224841   5.102   4.592   6.915 -0.8279  0.1069  0.0862
 1069TIP3    H124842   5.096   4.644   6.836  0.9918 -1.3968 -1.1096
 1069TIP3    H224843   5.090   4.502   6.886 -0.9451 -0.4274  1.6590
 1070TIP3   OH224844   0.142   4.492   1.651  0.0371  0.1898 -0.1436
 1070TIP3    H124845   0.049   4.516   1.658  0.1321  0.7205 -0.6753
 1070TIP3    H224846   0.175   4.545   1.578  0.4079 -1.0825 -0.9220
 1071TIP3   OH224847   7.185   6.009   6.996 -0.1305  0.1565  0.3579
 1071TIP3    H124848   7.172   6.104   7.000 -2.0074 -0.0692  0.9129
 1071TIP3    H224849   7.169   5.987   6.904 -2.3677  0.1249  0.6885
 1072TIP3   OH224850   4.722   3.950   0.389 -0.1642 -0.3848 -0.6813
 1072TIP3    H124851   4.774   3.908   0.321  1.8320 -0.1747  0.6187
 1072TIP3    H224852   4.773   4.028   0.413 -1.4558  0.2338  0.1579
 1073TIP3   OH224853   2.624   0.701   1.424 -0.1343  0.2739  0.0077
 1073TIP3    H124854   2.559   0.690   1.493 -1.3807 -2.6671 -1.4606
 1073TIP3    H224855   2.692   0.755   1.463 -0.5484 -1.5764  3.7268
 1074TIP3   OH224856   5.792   4.620   5.874  0.4550 -0.5123  0.1424
 1074TIP3    H124857   5.696   4.625   5.882  0.6204  0.2659  2.7838
 1074TIP3    H224858   5.807   4.568   5.795 -2.1402 -0.6254 -0.3715
 1075TIP3   OH224859   6.718   2.598   6.209  0.3332  0.2097 -0.0354
 1075TIP3    H124860   6.683   2.634   6.128 -2.4831 -0.8972  0.5479
 1075TIP3    H224861   6.807   2.570   6.187 -0.2662  0.0945 -2.6999
 1076TIP3   OH224862   2.103   5.568   1.111  0.4343  0.4509 -0.0480
 1076TIP3    H124863   2.026   5.621   1.091 -1.0991 -0.9479  1.7088
 1076TIP3    H224864   2.104   5.562   1.207  2.9625  0.6966  0.0049
 1077TIP3   OH224865   0.770   0.882   7.181 -0.0735  0.3935  0.1172
 1077TIP3    H124866   0.818   0.963   7.168 -3.2532  2.5454  0.6605
 1077TIP3    H224867   0.795   0.853   7.269  1.4052  0.5387 -0.2451
 1078TIP3   OH224868   0.832   1.296   5.757  0.2432  0.2049  0.3140
 1078TIP3    H124869   0.748   1.250   5.748  0.2620  0.2274  0.0260
 1078TIP3    H224870   0.898   1.232   5.732  0.4871 -0.5229  2.6283
 1079TIP3   OH224871   7.174   3.703   7.520  0.3383 -0.4381  0.1330
 1079TIP3    H124872   7.266   3.679   7.511  0.2593 -1.4509  1.6078
 1079TIP3    H224873   7.127   3.622   7.501 -0.1003 -0.6444  1.8940
 1080TIP3   OH224874   0.749   2.719   5.778  0.0012  0.1048 -0.1342
 1080TIP3    H124875   0.667   2.765   5.798  1.1215  1.5005  1.4481
 1080TIP3    H224876   0.818   2.781   5.800  1.6482 -2.4852  2.8684
 1081TIP3   OH224877   2.211   3.014   1.576  0.2837 -0.2837  0.7879
 1081TIP3    H124878   2.139   3.072   1.602  0.7830  0.7867 -0.1513
 1081TIP3    H224879   2.211   3.018   1.481  0.2308 -1.9873  0.6860
 1082TIP3   OH224880   5.288   3.696   7.643 -0.5618 -0.1329  0.2369
 1082TIP3    H124881   5.365   3.666   7.594 -1.1142 -1.1341 -0.0389
 1082TIP3    H224882   5.221   3.711   7.576 -1.1075 -0.8459  0.6057
 1083TIP3   OH224883   0.295   2.588   6.611 -0.4525 -0.6923 -0.2535
 1083TIP3    H124884   0.232   2.604   6.540  0.5074 -0.7503 -1.1470
 1083TIP3    H224885   0.301   2.671   6.657 -2.4786 -1.1435  0.9619
 1084TIP3   OH224886   2.724   7.099   0.680 -0.1115 -0.0650  0.6091
 1084TIP3    H124887   2.706   7.161   0.610 -0.4253 -0.2193  0.5505
 1084TIP3    H224888   2.642   7.052   0.692 -0.5062  0.9241  2.0376
 1085TIP3   OH224889   0.459   6.168   5.976  0.2561 -0.7087  0.3353
 1085TIP3    H124890   0.541   6.119   5.988  0.6346 -0.2683 -0.3872
 1085TIP3    H224891   0.402   6.107   5.930  0.3218 -0.8728  0.4673
 1086TIP3   OH224892   0.291   3.550   1.259 -0.2603  0.7419  0.3771
 1086TIP3    H124893   0.235   3.554   1.181  0.0554  0.7782  0.1502
 1086TIP3    H224894   0.340   3.631   1.257  0.0240  0.5725  0.4055
 1087TIP3   OH224895   2.916   4.382   7.167 -0.4199  0.1991  0.5254
 1087TIP3    H124896   2.857   4.422   7.231  0.2126  0.5887  0.8674
 1087TIP3    H224897   2.871   4.300   7.142 -0.1195 -0.5800  2.3695
 1088TIP3   OH224898   4.098   4.518   6.208  0.1186  0.0758  0.4149
 1088TIP3    H124899   4.166   4.496   6.144 -0.8679  0.6592 -0.8815
 1088TIP3    H224900   4.052   4.436   6.224  0.4734 -0.1061  0.5166
 1089TIP3   OH224901   4.843   6.250   6.762  0.9484 -0.0983 -0.1799
 1089TIP3    H124902   4.810   6.183   6.703  0.2313  0.5201 -0.4924
 1089TIP3    H224903   4.860   6.326   6.706  0.8087  0.3066  0.3203
 1090TIP3   OH224904   5.261   5.443   7.058 -0.3447  0.0668 -0.4710
 1090TIP3    H124905   5.168   5.425   7.051 -0.7549  1.1040  1.4516
 1090TIP3    H224906   5.297   5.367   7.103 -0.6869  0.6048  0.7496
 1091TIP3   OH224907   5.431   2.807   6.985  0.0821 -0.1443 -0.3227
 1091TIP3    H124908   5.343   2.819   7.022  0.8951 -0.7277  1.9700
 1091TIP3    H224909   5.436   2.871   6.913 -0.8998  2.6816  1.9387
 1092TIP3   OH224910   6.404   2.819   7.684 -0.6425 -0.0527  0.2018
 1092TIP3    H124911   6.401   2.895   7.625 -0.2319 -0.5522 -0.4897
 1092TIP3    H224912   6.330   2.765   7.657 -0.1069 -0.5686 -0.2736
 1093TIP3   OH224913   0.834   1.455   0.134  0.3049  0.2994 -0.0662
 1093TIP3    H124914   0.867   1.534   0.090  1.1570  1.5143  2.5476
 1093TIP3    H224915   0.739   1.469   0.139  0.2387  0.3168 -1.1037
 1094TIP3   OH224916   6.608   5.131   7.156 -0.0743  0.3444 -0.6441
 1094TIP3    H124917   6.592   5.131   7.061 -1.3877  0.1405 -0.4432
 1094TIP3    H224918   6.592   5.040   7.183  3.2248 -0.3643 -0.6311
 1095TIP3   OH224919   2.324   3.190   0.600  0.6535  0.3520  0.1972
 1095TIP3    H124920   2.252   3.216   0.544 -1.2435 -2.6515  1.0157
 1095TIP3    H224921   2.399   3.241   0.568 -0.8490  0.6159 -3.3657
 1096TIP3   OH224922   0.764   1.251   0.997  0.0704  0.4879  0.1300
 1096TIP3    H124923   0.720   1.332   0.973  0.4927  1.0349  1.1204
 1096TIP3    H224924   0.788   1.264   1.089  0.4481 -0.6240  0.1979
 1097TIP3   OH224925   0.556   3.232   6.865  0.0354 -0.6432  0.3193
 1097TIP3    H124926   0.566   3.138   6.850  0.9215 -0.6284  0.7632
 1097TIP3    H224927   0.645   3.266   6.869 -0.2095 -0.0647  1.8863
 1098TIP3   OH224928   1.144   6.626   1.722  0.4443 -0.6911 -0.4305
 1098TIP3    H124929   1.154   6.645   1.815 -0.5303 -1.0282 -0.2465
 1098TIP3    H224930   1.203   6.553   1.706 -0.1544 -1.3168  0.1603
 1099TIP3   OH224931   0.230   3.306   7.367 -0.0407  0.5754 -0.5754
 1099TIP3    H124932   0.243   3.373   7.300  1.3671 -0.4237 -1.3755
 1099TIP3    H224933   0.301   3.321   7.430  0.1079  0.0231 -0.6049
 1100TIP3   OH224934   4.240   2.574   1.637  0.4890  0.2700  0.3222
 1100TIP3    H124935   4.298   2.504   1.667 -2.2189 -0.9522  3.4167
 1100TIP3    H224936   4.221   2.625   1.716 -0.4196  2.3232 -1.1347
 1101TIP3   OH224937   2.893   5.981   6.903 -0.2211 -0.3443 -0.0425
 1101TIP3    H124938   2.978   5.956   6.868  0.4727 -0.6912  1.7880
 1101TIP3    H224939   2.848   6.024   6.830  0.9753 -1.3814 -1.4330
 1102TIP3   OH224940   1.343   2.092   6.619 -0.1507 -0.3734 -0.5174
 1102TIP3    H124941   1.271   2.029   6.615 -1.9086  1.5612 -1.2199
 1102TIP3    H224942   1.308   2.165   6.670  1.5432  0.3754 -0.3709
 1103TIP3   OH224943   0.814   1.976   0.614  0.3780 -0.2852 -0.0869
 1103TIP3    H124944   0.848   1.925   0.541 -0.4648 -0.3406 -0.4553
 1103TIP3    H224945   0.720   1.979   0.599  0.3973  1.3984 -0.0952
 1104TIP3   OH224946   5.486   0.347   7.383  0.1125  0.4718  0.6661
 1104TIP3    H124947   5.407   0.398   7.399 -0.6597 -0.3341 -0.3463
 1104TIP3    H224948   5.473   0.266   7.434  0.3543  0.4067  0.6265
 1105TIP3   OH224949   2.597   3.840   0.105  0.3275  0.0406  0.0261
 1105TIP3    H124950   2.597   3.747   0.082  1.2793 -0.4233  1.7547
 1105TIP3    H224951   2.685   3.870   0.084 -0.2430  0.8303 -1.4067
 1106TIP3   OH224952   2.124   5.982   5.777  0.2815 -0.0141  0.4671
 1106TIP3    H124953   2.084   5.940   5.700  2.0675  0.8474 -1.0144
 1106TIP3    H224954   2.218   5.972   5.764  0.6429  0.6303  2.3075
 1107TIP3   OH224955   6.389   5.572   7.513  0.8980 -0.5322 -0.1533
 1107TIP3    H124956   6.374   5.540   7.424  0.6341  0.2417 -0.3987
 1107TIP3    H224957   6.451   5.644   7.502  1.2992 -0.7969  0.3562
 1108TIP3   OH224958   2.854   5.506   0.722 -0.0351 -0.1203 -0.0260
 1108TIP3    H124959   2.767   5.544   0.709  0.1431 -0.3323 -2.4626
 1108TIP3    H224960   2.839   5.426   0.772 -1.1122  0.3398  0.4037
 1109TIP3   OH224961   6.106   1.282   7.755 -0.4276  0.1249 -0.5899
 1109TIP3    H124962   6.140   1.339   7.686  1.4140  0.0091  0.1805
 1109TIP3    H224963   6.173   1.283   7.823 -0.5303 -2.5635 -0.3412
 1110TIP3   OH224964   3.688   6.949   7.963 -0.0505  0.2459  0.0148
 1110TIP3    H124965   3.603   6.922   7.998  0.0007  0.2858  0.1714
 1110TIP3    H224966   3.751   6.900   8.015  0.0158  0.1122 -0.1952
 1111TIP3   OH224967   6.905   1.464   6.800 -0.5163 -0.1593 -0.2275
 1111TIP3    H124968   6.971   1.514   6.849  0.5272 -0.5402 -1.2098
 1111TIP3    H224969   6.891   1.516   6.721 -1.1660 -0.2502 -0.1708
 1112TIP3   OH224970   0.341   4.615   6.614  0.6675  0.7807 -0.4850
 1112TIP3    H124971   0.345   4.570   6.698 -2.3422  2.4231  0.6676
 1112TIP3    H224972   0.289   4.557   6.558  2.2469 -0.0761 -1.1291
 1113TIP3   OH224973   4.610   3.512   0.865  0.0299 -0.2340 -0.1912
 1113TIP3    H124974   4.562   3.504   0.947  0.4320 -0.2812  0.0433
 1113TIP3    H224975   4.599   3.604   0.839 -0.2690 -0.2696 -0.1948
 1114TIP3   OH224976   1.262   5.785   6.534 -0.1649  0.6229  0.2521
 1114TIP3    H124977   1.188   5.843   6.550 -1.6303 -1.4052  1.2690
 1114TIP3    H224978   1.266   5.776   6.439 -2.1851 -0.3578  0.2169
 1115TIP3   OH224979   2.386   0.698   0.787 -0.1770  0.4665 -0.0776
 1115TIP3    H124980   2.380   0.694   0.883 -0.3798  2.2819  0.0055
 1115TIP3    H224981   2.319   0.760   0.761 -0.7502 -0.6907 -1.5050
 1116TIP3   OH224982   4.865   0.454   7.680 -0.0596 -0.0656  0.2700
 1116TIP3    H124983   4.921   0.391   7.726 -0.5878 -1.8063 -1.3315
 1116TIP3    H224984   4.779   0.444   7.722 -0.1335 -0.3943  0.0428
 1117TIP3   OH224985   2.437   0.883   6.622  0.1304 -0.1615  0.1712
 1117TIP3    H124986   2.429   0.858   6.714 -0.8220  1.2691  0.5140
 1117TIP3    H224987   2.519   0.932   6.617 -1.4618  2.8851  1.1139
 1118TIP3   OH224988   1.967   3.943   0.730  0.1540  0.2290 -0.2479
 1118TIP3    H124989   1.929   3.856   0.742  0.0663  0.4214  0.9798
 1118TIP3    H224990   2.061   3.931   0.747  0.1192  0.4008  0.0677
 1119TIP3   OH224991   0.739   1.965   6.852  0.5898  0.0336 -0.8834
 1119TIP3    H124992   0.650   1.999   6.856 -0.9030 -3.5191  0.3164
 1119TIP3    H224993   0.763   1.949   6.943  0.9920 -2.2466 -1.3215
 1120TIP3   OH224994   5.896   1.630   2.013 -0.2393  0.1917  0.0162
 1120TIP3    H124995   5.920   1.537   2.008 -2.7299 -0.5522  0.5301
 1120TIP3    H224996   5.809   1.630   2.054 -0.3004  2.7687  0.0290
 1121TIP3   OH224997   4.846   6.235   0.937 -0.6213 -0.2335  0.1501
 1121TIP3    H124998   4.842   6.139   0.937  2.3250 -0.4903 -2.7561
 1121TIP3    H224999   4.932   6.256   0.974  0.0134  1.0776 -1.9006
 1122TIP3   OH225000   4.165   3.208   6.898  0.1842  0.2280  0.1443
 1122TIP3    H125001   4.100   3.193   6.967  0.3731 -0.9963  0.0647
 1122TIP3    H225002   4.237   3.149   6.919  0.3620  0.0320 -0.9638
 1123TIP3   OH225003   6.092   5.289   7.291  0.2049  0.3860  0.2649
 1123TIP3    H125004   6.180   5.325   7.297  1.8050 -3.3726  3.1317
 1123TIP3    H225005   6.101   5.212   7.236 -1.4866  0.2542  0.1043
 1124TIP3   OH225006   2.931   5.818   7.806  0.7002 -0.1864  0.2182
 1124TIP3    H125007   3.003   5.769   7.847  0.8044 -0.5351 -0.3731
 1124TIP3    H225008   2.871   5.751   7.774  0.3156  0.0979  0.3358
 1125TIP3   OH225009   0.607   6.596   1.040  0.4143 -0.0350  0.1482
 1125TIP3    H125010   0.696   6.630   1.030  1.2604 -2.5571 -2.1827
 1125TIP3    H225011   0.550   6.665   1.006  1.6344  0.8286 -0.1979
 1126TIP3   OH225012   3.170   0.334   1.066  0.1872 -0.0198  0.1476
 1126TIP3    H125013   3.246   0.388   1.086  0.4453 -0.5412  0.6141
 1126TIP3    H225014   3.169   0.327   0.970  0.4998  0.3035  0.1219
 1127TIP3   OH225015   4.438   6.392   7.641 -0.7156 -0.0657  0.0240
 1127TIP3    H125016   4.354   6.354   7.667 -1.1191 -0.2561 -1.4505
 1127TIP3    H225017   4.417   6.482   7.615 -0.6381 -0.3405 -1.0768
 1128TIP3   OH225018   1.507   2.153   6.950  0.0748 -0.3687 -0.3968
 1128TIP3    H125019   1.517   2.061   6.973 -0.6508 -0.4563 -0.4038
 1128TIP3    H225020   1.469   2.193   7.028 -1.8574 -0.5521 -1.1949
 1129TIP3   OH225021   0.352   4.377   1.404  0.0919 -0.2266  0.5559
 1129TIP3    H125022   0.272   4.427   1.388  0.5601  0.0493 -1.0176
 1129TIP3    H225023   0.389   4.416   1.484 -1.2945 -0.3345  1.2788
 1130TIP3   OH225024   6.973   0.600   1.519  0.8747  0.0256  0.4115
 1130TIP3    H125025   6.951   0.685   1.483  0.5701  0.1186  0.8010
 1130TIP3    H225026   6.888   0.563   1.545  1.0185 -0.3314  0.3777
 1131TIP3   OH225027   2.066   2.129   5.997 -0.1852 -0.3799 -0.0889
 1131TIP3    H125028   2.054   2.044   6.039 -0.4857 -0.8604 -1.1197
 1131TIP3    H225029   1.987   2.179   6.021  0.2650 -0.1645  1.0035
 1132TIP3   OH225030   1.598   5.031   7.006 -0.4685 -0.3853 -0.0921
 1132TIP3    H125031   1.671   4.985   6.965 -0.3966 -0.9204  0.6144
 1132TIP3    H225032   1.611   5.019   7.100 -0.8931  0.4063  0.0840
 1133TIP3   OH225033   0.529   4.511   5.532 -0.2717  0.0809 -0.2786
 1133TIP3    H125034   0.457   4.534   5.590  0.1716  2.9693 -0.6975
 1133TIP3    H225035   0.534   4.585   5.471  2.1697 -0.6878 -1.1092
 1134TIP3   OH225036   1.444   4.234   0.097  0.0504  0.4592  0.0674
 1134TIP3    H125037   1.448   4.221   0.192 -0.5591 -1.5386 -0.1434
 1134TIP3    H225038   1.473   4.325   0.085  1.4617  0.3557  2.0410
 1135TIP3   OH225039   0.410   0.088   0.874 -0.0298 -0.2043  0.3288
 1135TIP3    H125040   0.399   0.175   0.835  0.2590 -0.4197 -0.2445
 1135TIP3    H225041   0.342   0.034   0.834 -0.2850 -0.2194  0.7726
 1136TIP3   OH225042   4.195   5.073   7.267 -0.5048 -0.6898 -0.0824
 1136TIP3    H125043   4.264   5.017   7.304  0.3100 -0.0458 -0.5819
 1136TIP3    H225044   4.220   5.162   7.293  0.7468 -0.0699 -3.0642
 1137TIP3   OH225045   1.257   1.350   7.766  0.4557  0.4287  0.0437
 1137TIP3    H125046   1.226   1.277   7.712  0.8323 -0.6084  1.1842
 1137TIP3    H225047   1.352   1.344   7.762  0.4913  1.0087 -0.0398
 1138TIP3   OH225048   0.457   3.671   5.515  0.1558 -0.1371  0.3627
 1138TIP3    H125049   0.380   3.636   5.470  0.1554 -0.1359  0.3621
 1138TIP3    H225050   0.422   3.737   5.575  0.2972  0.9969 -0.7542
 1139TIP3   OH225051   0.477   0.329   1.366  0.3808 -0.4045  0.2930
 1139TIP3    H125052   0.492   0.239   1.395  2.0417  0.0994  1.1480
 1139TIP3    H225053   0.562   0.372   1.377 -0.6947  1.6268  1.2141
 1140TIP3   OH225054   6.631   4.401   6.584  0.3476  0.2209 -0.1235
 1140TIP3    H125055   6.634   4.368   6.674 -0.2238  0.3225 -0.0652
 1140TIP3    H225056   6.594   4.329   6.533  0.6849  0.1585 -0.2813
 1141TIP3   OH225057   4.136   3.968   7.296  0.1500  0.5007 -0.1798
 1141TIP3    H125058   4.122   3.883   7.255 -1.6562  1.1938 -1.1000
 1141TIP3    H225059   4.169   3.947   7.383 -1.7111 -1.1942  0.1849
 1142TIP3   OH225060   0.683   2.545   6.828  0.2979  0.0502 -0.4303
 1142TIP3    H125061   0.588   2.540   6.828  0.3489 -3.4421 -0.1231
 1142TIP3    H225062   0.705   2.596   6.750 -1.7490  2.4382  0.3979
 1143TIP3   OH225063   4.807   4.411   7.148 -0.6762 -0.2964  0.6039
 1143TIP3    H125064   4.797   4.472   7.075  0.7374 -0.1472  0.5191
 1143TIP3    H225065   4.749   4.446   7.216  0.3457  1.3373  0.6708
 1144TIP3   OH225066   5.850   1.842   1.466 -0.4603  0.6376  0.2633
 1144TIP3    H125067   5.943   1.852   1.446 -0.7917  4.2480  0.0056
 1144TIP3    H225068   5.810   1.816   1.383  0.3681 -2.4020  0.6888
 1145TIP3   OH225069   0.314   7.071   6.302  0.2566  0.1608  0.3943
 1145TIP3    H125070   0.350   6.989   6.270  0.8825  1.7537 -3.5822
 1145TIP3    H225071   0.220   7.056   6.307  0.5419 -1.3736  1.9242
 1146TIP3   OH225072   4.845   3.646   7.288  0.4595  0.3007  0.2097
 1146TIP3    H125073   4.880   3.607   7.208  0.8817  0.0720  0.5007
 1146TIP3    H225074   4.795   3.722   7.258  1.9126  1.1549 -0.1865
 1147TIP3   OH225075   4.574   0.471   1.014  0.3199 -0.3006 -0.2942
 1147TIP3    H125076   4.632   0.434   1.080 -0.3378 -0.2659  0.3065
 1147TIP3    H225077   4.540   0.552   1.053 -2.1852 -1.6175  0.4760
 1148TIP3   OH225078   5.702   1.187   7.381 -0.5101 -0.5908  0.4169
 1148TIP3    H125079   5.639   1.225   7.442 -0.9469 -0.7933  0.1015
 1148TIP3    H225080   5.775   1.250   7.379 -2.2085  1.5521 -1.8974
 1149TIP3   OH225081   4.053   4.629   6.460 -0.3173 -0.3473 -0.3873
 1149TIP3    H125082   4.133   4.671   6.489 -0.2798  1.9978 -3.4020
 1149TIP3    H225083   4.074   4.595   6.373 -2.4280 -0.0418 -1.0757
 1150TIP3   OH225084   3.026   2.480   7.182  0.4995  0.0756  0.4798
 1150TIP3    H125085   2.948   2.437   7.218  0.8531 -0.3086  0.8086
 1150TIP3    H225086   3.042   2.553   7.242 -1.8746  2.6304 -1.7460
 1151TIP3   OH225087   0.300   6.642   0.724 -0.2802 -0.4725  0.5342
 1151TIP3    H125088   0.207   6.645   0.699 -0.1877 -1.3672  0.0504
 1151TIP3    H225089   0.346   6.623   0.643  0.2400 -1.0532  0.9593
 1152TIP3   OH225090   1.837   0.377   1.215 -0.4035 -0.1763 -0.2614
 1152TIP3    H125091   1.780   0.303   1.194  1.3837 -1.2760 -1.4028
 1152TIP3    H225092   1.787   0.454   1.186 -0.9407 -1.1770 -2.1433
 1153TIP3   OH225093   6.827   0.113   0.862  0.2002 -0.2472 -0.4391
 1153TIP3    H125094   6.780   0.125   0.945  2.2944  1.1156  0.6469
 1153TIP3    H225095   6.762   0.130   0.795 -1.1036  0.5131  0.9545
 1154TIP3   OH225096   1.226   3.693   7.804  0.2793  0.4141 -0.9014
 1154TIP3    H125097   1.281   3.724   7.732  1.1789 -0.8531 -0.8004
 1154TIP3    H225098   1.201   3.604   7.779  1.3881 -0.4161  0.7241
 1155TIP3   OH225099   0.299   2.489   0.410 -0.1497 -0.1133  0.6260
 1155TIP3    H125100   0.327   2.571   0.371 -1.1776  0.0707  0.2473
 1155TIP3    H225101   0.360   2.475   0.483 -0.6405  1.5585  1.4027
 1156TIP3   OH225102   4.339   6.034   7.071  0.4196 -0.2852  0.0343
 1156TIP3    H125103   4.413   6.051   7.013 -0.1848 -1.2552 -1.0859
 1156TIP3    H225104   4.289   6.116   7.071  0.9929  0.0673  0.0364
 1157TIP3   OH225105   6.109   0.019   6.301 -0.4741 -0.4086 -0.4991
 1157TIP3    H125106   6.178   0.065   6.349 -1.0899 -0.9983  1.0062
 1157TIP3    H225107   6.049   0.088   6.272 -0.2416 -0.0691 -0.1659
 1158TIP3   OH225108   5.056   5.675   7.708 -0.2830  0.3968 -0.2526
 1158TIP3    H125109   5.059   5.766   7.740 -1.4883 -0.4199  2.5160
 1158TIP3    H225110   4.965   5.660   7.685 -0.1517 -0.1924 -0.4049
 1159TIP3   OH225111   2.162   4.366   0.243  0.2451  0.1614 -0.3135
 1159TIP3    H125112   2.125   4.380   0.156 -1.4558  0.5614  0.4160
 1159TIP3    H225113   2.109   4.296   0.281  1.3881 -0.4653  0.1753
 1160TIP3   OH225114   0.039   6.048   7.746 -0.2593 -0.4243 -0.0694
 1160TIP3    H125115   0.094   6.024   7.821  1.4970  1.4671 -0.6671
 1160TIP3    H225116   0.074   5.995   7.674  0.1223  0.0309 -0.2228
 1161TIP3   OH225117   6.450   3.184   6.189 -0.3573  0.8874 -0.2718
 1161TIP3    H125118   6.405   3.100   6.177 -0.9671  1.3072 -1.0250
 1161TIP3    H225119   6.524   3.180   6.129  1.0822 -0.0780  1.4484
 1162TIP3   OH225120   4.837   4.743   6.693 -0.4156  0.2315  0.1455
 1162TIP3    H125121   4.829   4.680   6.622 -0.7380 -0.5874  0.8795
 1162TIP3    H225122   4.870   4.822   6.652 -0.5174 -0.2498 -0.8940
 1163TIP3   OH225123   1.491   5.200   7.228 -0.2380 -0.0618 -0.5882
 1163TIP3    H125124   1.551   5.212   7.155 -0.6242  0.2588 -0.8626
 1163TIP3    H225125   1.543   5.159   7.297  0.2399  0.0386 -0.8882
 1164TIP3   OH225126   5.619   3.921   6.412 -0.5020 -0.7108  0.4306
 1164TIP3    H125127   5.586   3.977   6.482 -0.7409 -2.0638  1.4560
 1164TIP3    H225128   5.542   3.897   6.361 -0.1300  1.5209 -1.3067
 1165TIP3   OH225129   1.664   5.752   2.223 -0.1463 -0.2206 -0.3941
 1165TIP3    H125130   1.659   5.712   2.135 -0.5342  0.6340 -0.7687
 1165TIP3    H225131   1.627   5.686   2.281 -1.2094 -0.2375 -1.0718
 1166TIP3   OH225132   6.733   1.251   6.195 -0.6431  0.1802  0.3266
 1166TIP3    H125133   6.658   1.250   6.136 -0.8641  0.4296  0.5983
 1166TIP3    H225134   6.736   1.341   6.228 -0.9877 -0.1410  1.2772
 1167TIP3   OH225135   0.820   4.004   5.258  0.5215 -0.6940  0.0729
 1167TIP3    H125136   0.741   4.058   5.264 -0.4314 -2.1110  0.5967
 1167TIP3    H225137   0.891   4.068   5.244 -0.8406  0.5230 -1.7392
 1168TIP3   OH225138   3.324   3.911   6.311 -0.1207  0.3181 -0.7750
 1168TIP3    H125139   3.229   3.923   6.305 -0.1284  0.0506 -1.2524
 1168TIP3    H225140   3.336   3.842   6.376 -0.2551  0.3246 -0.7425
 1169TIP3   OH225141   4.981   6.924   6.854  0.0089  0.5867  0.0299
 1169TIP3    H125142   4.896   6.924   6.898 -0.2341  0.7543 -0.4290
 1169TIP3    H225143   5.021   7.007   6.879  0.0075  0.5409  0.1859
 1170TIP3   OH225144   3.133   6.762   0.826 -0.5232 -0.5936 -0.1602
 1170TIP3    H125145   3.161   6.672   0.811  0.8258 -0.3172  0.5435
 1170TIP3    H225146   3.088   6.787   0.745  1.2022 -1.1295 -1.3437
 1171TIP3   OH225147   4.758   0.538   6.394 -0.0396  0.2315  0.0186
 1171TIP3    H125148   4.729   0.463   6.446  0.1612 -0.3412 -0.6761
 1171TIP3    H225149   4.853   0.530   6.391  0.1162  1.3900  1.2211
 1172TIP3   OH225150   0.420   2.520   6.859 -0.0397 -0.2324  0.2505
 1172TIP3    H125151   0.376   2.562   6.932 -0.2176 -0.3694  0.2216
 1172TIP3    H225152   0.361   2.531   6.785  0.7697  1.1695 -0.2258
 1173TIP3   OH225153   6.728   6.516   1.199  0.4243 -0.7084 -0.3126
 1173TIP3    H125154   6.806   6.570   1.194  0.6699 -1.0262  0.0048
 1173TIP3    H225155   6.758   6.434   1.239 -0.3557 -0.2887  1.2226
 1174TIP3   OH225156   5.329   4.872   0.121 -0.5029 -0.2005  0.1161
 1174TIP3    H125157   5.237   4.849   0.108 -0.3531 -0.5844 -0.2839
 1174TIP3    H225158   5.331   4.913   0.208 -0.8658 -1.1752  0.5982
 1175TIP3   OH225159   4.063   1.403   6.422 -0.0719 -0.2192  0.2988
 1175TIP3    H125160   3.998   1.454   6.471  1.2480  1.2587  0.5977
 1175TIP3    H225161   4.011   1.352   6.360 -1.5680  0.3137  1.0513
 1176TIP3   OH225162   7.124   5.197   0.822 -0.1807 -0.1818 -0.0180
 1176TIP3    H125163   7.155   5.146   0.897 -0.0287  1.5317  1.1486
 1176TIP3    H225164   7.028   5.192   0.827 -0.1794 -1.5233 -0.7961
 1177TIP3   OH225165   6.653   4.263   0.365  0.3007 -0.0580  0.1821
 1177TIP3    H125166   6.601   4.315   0.425  0.6241  0.0872  0.3377
 1177TIP3    H225167   6.708   4.326   0.319  0.4357 -0.2232  0.1131
 1178TIP3   OH225168   0.346   5.489   0.137  0.0509  0.1536 -0.0466
 1178TIP3    H125169   0.427   5.458   0.177 -0.1361 -0.5683 -0.2150
 1178TIP3    H225170   0.300   5.409   0.110 -0.8280  0.5458  0.2639
 1179TIP3   OH225171   6.360   0.369   7.318  0.0850 -0.5439 -0.0422
 1179TIP3    H125172   6.302   0.342   7.389  1.2386 -3.3383 -0.0277
 1179TIP3    H225173   6.327   0.322   7.242  0.9469 -0.3446 -0.5468
 1180TIP3   OH225174   1.661   2.107   6.643  0.3158 -0.1118 -0.2806
 1180TIP3    H125175   1.581   2.124   6.694 -0.8646 -0.1173 -2.0452
 1180TIP3    H225176   1.631   2.053   6.570  1.6098  1.2720 -1.9126
 1181TIP3   OH225177   1.738   4.280   0.739  0.0050  0.3464  0.6032
 1181TIP3    H125178   1.643   4.295   0.747  0.2842  3.7230 -0.9640
 1181TIP3    H225179   1.765   4.252   0.827 -2.4254 -0.9063  1.0456
 1182TIP3   OH225180   5.747   1.506   0.423 -0.2725 -0.0633 -0.0784
 1182TIP3    H125181   5.790   1.569   0.480  0.3813 -0.3154 -0.2785
 1182TIP3    H225182   5.778   1.421   0.455 -0.4108 -0.2355 -0.4020
 1183TIP3   OH225183   3.700   4.286   0.662  0.4187 -0.4393  0.4251
 1183TIP3    H125184   3.720   4.193   0.674  1.1819 -0.4383 -0.7110
 1183TIP3    H225185   3.649   4.290   0.582  0.8046  0.1597  0.1988
 1184TIP3   OH225186   1.087   1.649   0.267  0.4275  0.5131  0.8201
 1184TIP3    H125187   1.134   1.577   0.225 -0.6474 -0.3128  0.9829
 1184TIP3    H225188   1.036   1.688   0.196 -0.5917 -0.2267  1.1243
 1185TIP3   OH225189   3.771   5.869   7.203 -0.0690  0.2767 -0.3920
 1185TIP3    H125190   3.767   5.965   7.196 -1.6856  0.1757 -1.2652
 1185TIP3    H225191   3.698   5.847   7.261  0.5432 -0.4154  0.1250
 1186TIP3   OH225192   6.019   4.534   6.720  0.4297  0.3613 -0.0557
 1186TIP3    H125193   5.969   4.602   6.675  1.1889 -0.1406 -1.7596
 1186TIP3    H225194   5.958   4.461   6.729  0.5490  0.0958 -1.2471
 1187TIP3   OH225195   1.727   6.004   7.731  0.3236 -0.5363  0.0530
 1187TIP3    H125196   1.675   5.990   7.810  0.4190 -1.2436 -0.0084
 1187TIP3    H225197   1.807   6.046   7.762 -0.2836  0.5965  0.1472
 1188TIP3   OH225198   5.426   5.442   6.104 -0.3663 -0.4614 -0.0599
 1188TIP3    H125199   5.358   5.376   6.086 -0.7112 -0.2950  0.5830
 1188TIP3    H225200   5.508   5.396   6.091 -0.5637 -0.3363 -2.1058
 1189TIP3   OH225201   5.304   2.696   7.826 -0.3360  0.1037 -0.2029
 1189TIP3    H125202   5.371   2.630   7.805 -1.0584 -0.5119 -0.6101
 1189TIP3    H225203   5.342   2.746   7.898 -0.3177 -1.5960  1.0115
 1190TIP3   OH225204   6.602   0.788   7.373  0.0883  0.3079 -0.2005
 1190TIP3    H125205   6.634   0.746   7.293 -0.2821 -0.9372  0.2710
 1190TIP3    H225206   6.507   0.794   7.362 -0.1557 -1.2341  0.7111
 1191TIP3   OH225207   0.814   3.856   5.484 -0.1030  0.0359  0.1416
 1191TIP3    H125208   0.754   3.901   5.544 -0.6610  1.3673 -1.3355
 1191TIP3    H225209   0.791   3.891   5.398  3.0683  0.9604 -0.4532
 1192TIP3   OH225210   1.409   6.963   0.699  0.6289  0.2813  0.4412
 1192TIP3    H125211   1.468   7.037   0.711  0.1000  1.0872 -1.4871
 1192TIP3    H225212   1.465   6.886   0.702  1.5973  0.9512 -0.1707
 1193TIP3   OH225213   0.620   5.682   1.217 -0.6148  0.0385  0.2393
 1193TIP3    H125214   0.586   5.670   1.305 -0.7307 -0.0168  0.1872
 1193TIP3    H225215   0.671   5.763   1.222  0.0530 -0.4019  0.5505
 1194TIP3   OH225216   0.628   3.532   6.380  0.4930 -0.1836  0.1333
 1194TIP3    H125217   0.652   3.454   6.430  1.3542  0.5693  0.9288
 1194TIP3    H225218   0.632   3.504   6.288  0.0350 -1.2685  0.4318
 1195TIP3   OH225219   1.184   4.760   6.817 -0.1597  0.4463  0.0321
 1195TIP3    H125220   1.240   4.836   6.798  0.1730  0.0208 -0.7044
 1195TIP3    H225221   1.179   4.713   6.734 -0.9996  0.0724  0.2895
 1196TIP3   OH225222   4.282   3.529   0.687 -0.2361  0.3068  0.1116
 1196TIP3    H125223   4.239   3.504   0.769 -0.1002 -2.5531 -0.5895
 1196TIP3    H225224   4.376   3.523   0.707 -0.1630  1.4537  0.2087
 1197TIP3   OH225225   6.650   6.494   6.245  0.7947 -0.3531  0.1567
 1197TIP3    H125226   6.569   6.497   6.194 -0.3230 -0.7642  1.8130
 1197TIP3    H225227   6.702   6.425   6.205  0.0098 -0.5829 -0.4882
 1198TIP3   OH225228   3.335   6.313   0.581 -0.0850 -0.2480 -0.2744
 1198TIP3    H125229   3.318   6.326   0.487  1.2816  2.5825 -0.2607
 1198TIP3    H225230   3.419   6.267   0.583  0.3396  0.4920 -0.4876
 1199TIP3   OH225231   5.582   3.804   6.659  0.2394 -0.1128  0.0951
 1199TIP3    H125232   5.651   3.863   6.688 -1.9460  2.7573 -0.1368
 1199TIP3    H225233   5.555   3.838   6.574 -0.8911 -1.6798 -0.2244
 1200TIP3   OH225234   2.618   6.964   0.194  0.2149 -0.0308  0.3677
 1200TIP3    H125235   2.618   7.059   0.179 -0.4414 -0.2939 -1.6159
 1200TIP3    H225236   2.688   6.931   0.137  0.5090 -0.7480  1.1162
 1201TIP3   OH225237   0.528   5.142   5.639  0.1416 -0.6528 -0.1772
 1201TIP3    H125238   0.508   5.228   5.674  0.2708 -0.8243  0.3219
 1201TIP3    H225239   0.442   5.106   5.614  0.0515 -0.5230 -0.0551
 1202TIP3   OH225240   6.701   4.184   0.923 -0.1888  0.0660 -0.6577
 1202TIP3    H125241   6.714   4.194   1.018  0.4763 -0.1875 -0.7218
 1202TIP3    H225242   6.696   4.273   0.890  1.0976  0.1790 -0.5897
 1203TIP3   OH225243   2.328   4.662   6.868 -0.6495 -0.0109  0.6804
 1203TIP3    H125244   2.327   4.724   6.796  0.9059 -0.0598  0.5979
 1203TIP3    H225245   2.286   4.709   6.940 -0.1913  0.8530  0.3926
 1204TIP3   OH225246   3.868   4.084   7.794  0.0316 -0.0201  0.0965
 1204TIP3    H125247   3.924   4.108   7.868  1.7531  0.3385 -1.2641
 1204TIP3    H225248   3.854   3.990   7.804  1.9076 -0.3625 -0.1537
 1205TIP3   OH225249   1.544   3.482   1.409 -0.3339  0.3528 -0.5009
 1205TIP3    H125250   1.519   3.446   1.495  1.4601  0.5964  0.1551
 1205TIP3    H225251   1.630   3.520   1.423  0.9275 -1.3724 -2.8782
 1206TIP3   OH225252   4.682   2.272   6.564 -0.2943 -0.4665  0.0386
 1206TIP3    H125253   4.597   2.303   6.595  0.1638 -0.4238  1.2947
 1206TIP3    H225254   4.744   2.341   6.590  0.1085 -0.4015 -1.0369
 1207TIP3   OH225255   2.209   5.593   7.249 -0.3340  0.4449 -0.0946
 1207TIP3    H125256   2.282   5.642   7.211 -1.8700  1.6081 -1.7074
 1207TIP3    H225257   2.234   5.580   7.340  2.1933  0.1662 -0.7356
 1208TIP3   OH225258   4.158   3.669   5.756  0.3636 -0.1338 -0.6885
 1208TIP3    H125259   4.175   3.605   5.686  1.3425 -0.6557  0.0037
 1208TIP3    H225260   4.066   3.657   5.778  0.9248 -2.6129  0.6697
 1209TIP3   OH225261   0.660   1.645   7.741  0.1728  0.5338  0.1037
 1209TIP3    H125262   0.728   1.698   7.699 -0.0823  3.2219  2.7754
 1209TIP3    H225263   0.579   1.670   7.697  0.1358  2.0598  0.9714
 1210TIP3   OH225264   1.793   2.786   7.119  0.2803  0.2148  0.1876
 1210TIP3    H125265   1.813   2.708   7.171  0.0050 -0.1464 -0.2317
 1210TIP3    H225266   1.757   2.848   7.182  3.1867  1.1302  1.0922
 1211TIP3   OH225267   6.254   5.278   0.778 -0.1342 -0.3039 -0.1688
 1211TIP3    H125268   6.171   5.257   0.736 -0.1926  0.5833 -0.5299
 1211TIP3    H225269   6.319   5.270   0.708 -0.0713  0.0734 -0.1544
 1212TIP3   OH225270   3.205   4.406   6.464 -0.4563 -0.3573  0.4091
 1212TIP3    H125271   3.252   4.475   6.417  0.3412 -1.1057  0.0747
 1212TIP3    H225272   3.199   4.438   6.554 -1.3910  0.7856 -0.0410
 1213TIP3   OH225273   6.430   4.375   0.492  0.2881 -0.0207  0.1671
 1213TIP3    H125274   6.417   4.458   0.447  0.6947 -0.3899 -0.6525
 1213TIP3    H225275   6.342   4.338   0.500  0.0665  0.6043  0.8020
 1214TIP3   OH225276   2.333   4.810   5.922  0.0144  0.3562  0.4872
 1214TIP3    H125277   2.280   4.890   5.915 -1.2799 -0.4149  1.0296
 1214TIP3    H225278   2.313   4.762   5.841 -1.4966 -0.7107  1.4443
 1215TIP3   OH225279   4.063   4.930   6.805 -0.0860 -0.4291 -0.1053
 1215TIP3    H125280   4.028   5.009   6.847 -0.4222  0.2442 -1.5719
 1215TIP3    H225281   3.986   4.876   6.788  0.2123 -1.3947  1.4740
 1216TIP3   OH225282   3.488   5.034   5.815 -0.1516 -0.2920 -0.0528
 1216TIP3    H125283   3.509   4.948   5.781  0.5144 -0.1594  0.0154
 1216TIP3    H225284   3.393   5.043   5.800 -0.3287 -1.2462  0.4398
 1217TIP3   OH225285   3.642   5.492   1.349 -0.0590  0.0792  0.4147
 1217TIP3    H125286   3.587   5.543   1.289  0.2522  0.2603  0.2805
 1217TIP3    H225287   3.604   5.404   1.347  0.6757 -0.2334 -1.0044
 1218TIP3   OH225288   3.933   4.999   7.639 -0.9458 -0.9013  0.6553
 1218TIP3    H125289   3.921   5.027   7.548 -1.6546 -1.4308  0.5775
 1218TIP3    H225290   3.919   5.079   7.690  0.0896 -0.4591  0.2809
 1219TIP3   OH225291   1.363   6.729   1.539 -0.9536 -0.3596 -0.1481
 1219TIP3    H125292   1.311   6.659   1.580  1.4539 -1.7862  0.6414
 1219TIP3    H225293   1.374   6.794   1.609 -1.1370 -0.3300 -0.1435
 1220TIP3   OH225294   6.057   1.195   6.864  0.0076  0.2057 -0.3457
 1220TIP3    H125295   6.118   1.258   6.824  1.3277 -0.5272  0.4398
 1220TIP3    H225296   5.990   1.182   6.797  0.0004  1.9925 -0.7582
 1221TIP3   OH225297   4.317   4.176   5.953  0.0839  0.1987  0.3246
 1221TIP3    H125298   4.268   4.113   6.006  1.1579 -0.4295  0.5792
 1221TIP3    H225299   4.324   4.135   5.867 -0.6448  0.7122  0.0038
 1222TIP3   OH225300   4.963   1.765   7.198  0.3951  0.1381 -0.1418
 1222TIP3    H125301   4.869   1.782   7.204 -0.1257 -1.9590 -1.3166
 1222TIP3    H225302   4.978   1.693   7.259  0.7492 -1.0735 -1.5929
 1223TIP3   OH225303   0.146   2.706   6.819  0.1336  0.5124 -0.4213
 1223TIP3    H125304   0.118   2.615   6.809  1.9829 -0.1631  0.1377
 1223TIP3    H225305   0.113   2.732   6.905 -0.0118  0.2275 -0.3913
 1224TIP3   OH225306   0.564   0.965   0.971  0.0460  0.0342  0.2584
 1224TIP3    H125307   0.484   0.995   1.014 -0.0200 -0.4354  0.4744
 1224TIP3    H225308   0.635   1.006   1.020 -0.0691  2.0566 -1.1333
 1225TIP3   OH225309   1.562   3.563   7.142  0.0864 -0.3189  0.3352
 1225TIP3    H125310   1.577   3.469   7.139 -1.1728 -0.5627  1.3861
 1225TIP3    H225311   1.634   3.600   7.090  1.0033 -1.7976  0.5107
 1226TIP3   OH225312   0.627   6.448   7.564 -0.2266  0.1808  0.3653
 1226TIP3    H125313   0.713   6.454   7.605  0.3963  0.2695 -0.9339
 1226TIP3    H225314   0.566   6.437   7.638  0.9371 -0.4380  1.2567
 1227TIP3   OH225315   1.568   1.502   0.261 -1.0477  0.5447  0.3511
 1227TIP3    H125316   1.491   1.509   0.318 -1.5984 -0.0354 -0.3110
 1227TIP3    H225317   1.547   1.431   0.201 -0.0730  0.5193  0.0302
 1228TIP3   OH225318   2.847   0.188   7.647  0.5065  0.3139 -0.0335
 1228TIP3    H125319   2.865   0.094   7.645  0.6566  0.3477 -0.7872
 1228TIP3    H225320   2.752   0.194   7.655  0.5441  0.1077  0.6391
 1229TIP3   OH225321   2.502   6.087   0.842 -0.1304 -0.6622  0.0426
 1229TIP3    H125322   2.518   6.144   0.766  2.8238  0.0798  1.1090
 1229TIP3    H225323   2.447   6.140   0.900  0.9169  0.3726  0.1311
 1230TIP3   OH225324   2.586   5.702   6.616 -0.5975  0.0239 -0.1371
 1230TIP3    H125325   2.622   5.627   6.663 -0.4312 -0.5144 -1.0815
 1230TIP3    H225326   2.657   5.766   6.613  0.5769 -1.2401 -2.4590
 1231TIP3   OH225327   2.431   1.360   7.827  0.1436  0.6836  0.0452
 1231TIP3    H125328   2.486   1.435   7.846  0.7735  0.1509  0.3824
 1231TIP3    H225329   2.389   1.338   7.910  1.3827 -0.4425  0.4180
 1232TIP3   OH225330   0.403   1.886   6.315 -0.6153 -0.5404 -0.0907
 1232TIP3    H125331   0.434   1.954   6.375 -1.3220 -1.3093  1.1844
 1232TIP3    H225332   0.469   1.817   6.321  0.9752  0.6092 -2.6141
 1233TIP3   OH225333   2.229   2.953   7.101  0.4279 -0.0289  0.5834
 1233TIP3    H125334   2.248   3.022   7.037 -0.3897 -0.8967 -0.6505
 1233TIP3    H225335   2.215   2.999   7.183  0.2425  1.2512 -0.1410
 1234TIP3   OH225336   3.617   7.031   6.200 -0.0863  0.1630  0.1921
 1234TIP3    H125337   3.545   7.059   6.144  1.2128  1.5549 -0.8448
 1234TIP3    H225338   3.696   7.058   6.154  1.0893 -0.1622  1.9154
 1235TIP3   OH225339   3.826   3.559   7.235 -0.1529 -0.2686  0.0663
 1235TIP3    H125340   3.751   3.615   7.214 -1.5309 -1.1728  2.2523
 1235TIP3    H225341   3.828   3.494   7.165 -1.8504 -0.6393  0.3347
 1236TIP3   OH225342   5.422   3.870   1.047  0.3313 -0.8348 -0.0435
 1236TIP3    H125343   5.432   3.825   1.131 -1.1631 -0.9997  0.0602
 1236TIP3    H225344   5.437   3.962   1.068 -0.3733 -0.8345  0.4707
 1237TIP3   OH225345   2.785   7.098   6.270 -0.4347 -0.4156  0.3578
 1237TIP3    H125346   2.811   7.188   6.290  0.9557 -0.9153  0.9650
 1237TIP3    H225347   2.727   7.106   6.194  0.0669  0.9444  0.0821
 1238TIP3   OH225348   0.989   6.206   6.135 -0.4530 -0.0970 -0.2237
 1238TIP3    H125349   0.917   6.233   6.192 -0.3836 -0.4728  0.0475
 1238TIP3    H225350   1.065   6.202   6.193 -0.5233 -1.1497 -0.1879
 1239TIP3   OH225351   7.200   6.070   6.090 -0.1727  1.0292 -0.1237
 1239TIP3    H125352   7.265   6.002   6.074  0.4497  1.6887 -0.4204
 1239TIP3    H225353   7.145   6.069   6.012  2.5615  3.9053 -2.3353
 1240TIP3   OH225354   0.429   1.807   0.296 -0.1053 -0.3010 -0.0206
 1240TIP3    H125355   0.367   1.880   0.287 -0.9571 -0.8946  0.8186
 1240TIP3    H225356   0.515   1.848   0.286 -0.5448  0.8817  0.7595
 1241TIP3   OH225357   4.397   6.949   7.386  0.2502  0.4055 -0.4028
 1241TIP3    H125358   4.411   7.032   7.340 -2.3485  0.4916 -1.2110
 1241TIP3    H225359   4.479   6.901   7.374  0.8416  1.7546 -2.3297
 1242TIP3   OH225360   6.874   4.679   0.828 -0.1585 -0.0037 -0.0034
 1242TIP3    H125361   6.879   4.592   0.788 -2.6525 -1.1956  1.9197
 1242TIP3    H225362   6.780   4.695   0.839  0.2586  2.5656  0.5355
 1243TIP3   OH225363   5.533   4.153   7.158  0.4748  0.1081 -0.1872
 1243TIP3    H125364   5.585   4.111   7.227 -1.5038 -0.4294  1.0626
 1243TIP3    H225365   5.490   4.226   7.203 -1.5577 -0.7873 -0.5725
 1244TIP3   OH225366   5.611   6.819   6.905 -0.2363  0.1985  0.3068
 1244TIP3    H125367   5.580   6.806   6.815 -0.4012 -1.9230  0.6085
 1244TIP3    H225368   5.658   6.902   6.903 -2.6684  1.6493 -1.0694
 1245TIP3   OH225369   2.300   2.766   0.495  0.4848 -0.2874 -0.3279
 1245TIP3    H125370   2.336   2.854   0.491 -0.6183  0.3176  1.6587
 1245TIP3    H225371   2.372   2.711   0.525  0.7599  0.2502  0.0110
 1246TIP3   OH225372   4.590   5.471   6.936  0.0205  0.2967  0.0491
 1246TIP3    H125373   4.551   5.426   6.861 -0.2400 -0.5496  0.6746
 1246TIP3    H225374   4.674   5.503   6.904 -1.0454  1.9521 -1.2564
 1247TIP3   OH225375   6.407   0.582   0.075  0.3653  0.0861 -0.2547
 1247TIP3    H125376   6.434   0.657   0.127  1.8755  0.9078 -2.0885
 1247TIP3    H225377   6.406   0.508   0.136  1.3177  1.1310  1.0633
 1248TIP3   OH225378   4.777   5.592   6.776  0.2321 -0.0462  0.0051
 1248TIP3    H125379   4.840   5.615   6.707 -1.0300 -1.0391 -1.5505
 1248TIP3    H225380   4.717   5.666   6.779  1.3175  0.8203  1.3635
 1249TIP3   OH225381   2.122   0.287   1.276 -0.0301  0.4492  0.2027
 1249TIP3    H125382   2.138   0.200   1.239 -2.8750 -0.6028  1.1889
 1249TIP3    H225383   2.028   0.302   1.263  0.4776  3.7344 -0.5658
 1250TIP3   OH225384   3.561   4.317   6.290 -0.0977  0.3783  0.0139
 1250TIP3    H125385   3.501   4.253   6.253  1.0524 -0.7880  0.1007
 1250TIP3    H225386   3.638   4.313   6.233  0.0987  1.4884  0.1836
 1251TIP3   OH225387   5.280   1.520   1.033 -0.1894 -0.3079  0.6145
 1251TIP3    H125388   5.278   1.424   1.035 -2.9192 -0.4531 -2.0077
 1251TIP3    H225389   5.301   1.541   0.943 -0.9753  1.5270  0.8193
 1252TIP3   OH225390   0.146   0.328   7.329  0.1156 -0.3735  0.3535
 1252TIP3    H125391   0.174   0.286   7.248 -0.5047 -0.9948  0.4532
 1252TIP3    H225392   0.051   0.318   7.330  0.0283  0.4339  0.7210
 1253TIP3   OH225393   5.511   1.797   0.310 -0.4112  0.3024  0.0105
 1253TIP3    H125394   5.527   1.712   0.270  0.0689 -0.2086  1.2679
 1253TIP3    H225395   5.467   1.847   0.241 -0.1415 -0.7454 -0.9514
 1254TIP3   OH225396   1.423   6.416   0.033  0.3302  0.2604  0.0505
 1254TIP3    H125397   1.440   6.480  -0.037 -0.2257  0.0479 -0.2855
 1254TIP3    H225398   1.461   6.335   0.001  2.5800  0.7876  1.2252
 1255TIP3   OH225399   2.756   4.817   7.960 -0.2461 -0.2615 -0.4641
 1255TIP3    H125400   2.697   4.881   7.921  1.0167  0.1009 -1.8770
 1255TIP3    H225401   2.759   4.746   7.897  0.9912 -0.1709 -0.5254
 1256TIP3   OH225402   5.790   6.080   7.449  0.2542 -0.3265  0.4861
 1256TIP3    H125403   5.767   6.041   7.534  1.6996 -1.6698  0.3128
 1256TIP3    H225404   5.855   6.020   7.413  2.2984  2.0412 -0.0321
 1257TIP3   OH225405   2.642   2.747   7.691  0.0427  0.3264  0.3638
 1257TIP3    H125406   2.616   2.772   7.602  0.4930 -0.4388  0.0114
 1257TIP3    H225407   2.670   2.829   7.732  1.5801  0.4172 -0.8007
 1258TIP3   OH225408   4.405   1.001   0.655  0.0573 -0.5210  0.7670
 1258TIP3    H125409   4.471   1.019   0.722  0.7132 -1.5473  0.4129
 1258TIP3    H225410   4.426   1.062   0.584  0.2571 -0.4404  0.8940
 1259TIP3   OH225411   3.106   2.430   1.385  0.0671 -0.4124 -0.4636
 1259TIP3    H125412   3.042   2.496   1.359  1.0258  0.1971 -1.3786
 1259TIP3    H225413   3.054   2.353   1.409 -1.0367  0.4836  0.0654
 1260TIP3   OH225414   5.633   3.071   7.209 -0.2979  0.2836  0.5181
 1260TIP3    H125415   5.681   3.018   7.273  0.9535  1.2437  0.4214
 1260TIP3    H225416   5.671   3.047   7.124 -1.7452 -0.7639  0.1157
 1261TIP3   OH225417   5.525   4.650   7.997 -0.1308  0.1215  0.5157
 1261TIP3    H125418   5.486   4.652   7.909  0.2109 -0.8162  0.3263
 1261TIP3    H225419   5.554   4.740   8.012  4.0236 -0.4505 -2.2958
 1262TIP3   OH225420   1.480   0.345   0.438  0.4260 -0.1404  0.4181
 1262TIP3    H125421   1.434   0.428   0.430  0.9324  0.1717  0.6909
 1262TIP3    H225422   1.411   0.280   0.450  0.0297  0.2466  0.2490
 1263TIP3   OH225423   1.406   6.644   7.839  0.4733 -0.0496  0.5393
 1263TIP3    H125424   1.453   6.708   7.786 -0.4176 -0.2083 -0.4906
 1263TIP3    H225425   1.353   6.595   7.775 -1.1506  0.1980  1.6253
 1264TIP3   OH225426   6.564   4.690   0.335  0.3460 -0.4129 -0.0447
 1264TIP3    H125427   6.471   4.712   0.328  0.6599  1.2590  0.4993
 1264TIP3    H225428   6.568   4.626   0.407 -0.5225 -1.7755 -1.1500
 1265TIP3   OH225429   0.225   4.192   6.815  0.1940 -0.1183  0.0363
 1265TIP3    H125430   0.274   4.261   6.860  1.0294 -1.1590  0.7763
 1265TIP3    H225431   0.257   4.194   6.725  0.4102  0.2796  0.1228
 1266TIP3   OH225432   3.068   0.041   6.922  0.0415  0.1374  0.6282
 1266TIP3    H125433   3.009   0.110   6.952  1.1864  0.4578  2.3134
 1266TIP3    H225434   3.132   0.086   6.867 -0.1812  0.1238  0.3576
 1267TIP3   OH225435   6.564   1.034   1.506  0.2031  0.8810  0.3038
 1267TIP3    H125436   6.585   1.031   1.413  1.2798 -1.1265  0.5268
 1267TIP3    H225437   6.650   1.035   1.549 -0.2772  1.4760  1.2683
 1268TIP3   OH225438   6.739   4.989   6.766 -0.1351  0.4148 -0.0397
 1268TIP3    H125439   6.723   4.971   6.674 -0.7708 -1.0958  0.3364
 1268TIP3    H225440   6.816   4.936   6.788  0.8349  1.7847  0.0072
 1269TIP3   OH225441   3.480   4.075   1.298  0.0213  0.5572  0.3672
 1269TIP3    H125442   3.487   4.098   1.206  1.2438 -1.9889 -0.2597
 1269TIP3    H225443   3.565   4.098   1.336  1.5356 -3.0282 -0.4234
 1270TIP3   OH225444   6.157   6.064   6.788 -0.1528  0.1670 -0.0001
 1270TIP3    H125445   6.194   6.148   6.760 -0.6025  0.9662  1.7154
 1270TIP3    H225446   6.176   6.059   6.881 -2.7084 -0.2211  0.5807
 1271TIP3   OH225447   7.109   5.549   7.654 -0.2404 -0.4864  0.1384
 1271TIP3    H125448   7.169   5.515   7.720  0.8259 -0.5113 -0.8118
 1271TIP3    H225449   7.037   5.587   7.705  0.6837 -0.2380  1.3226
 1272TIP3   OH225450   2.730   0.011   7.379 -0.1497 -0.7018 -0.4532
 1272TIP3    H125451   2.790  -0.055   7.345  0.4735 -1.2904  1.6302
 1272TIP3    H225452   2.763   0.094   7.344 -0.0808 -1.3141 -1.9223
 1273TIP3   OH225453   6.858   1.812   6.360 -0.0848  0.2804 -0.0940
 1273TIP3    H125454   6.937   1.852   6.324 -0.4538  1.6040  0.4965
 1273TIP3    H225455   6.789   1.832   6.297  0.3106 -2.3858 -1.5154
 1274TIP3   OH225456   0.632   1.330   7.019  0.3583  1.0000 -0.6248
 1274TIP3    H125457   0.635   1.255   7.078  0.3408  0.3404 -1.4383
 1274TIP3    H225458   0.547   1.371   7.034  0.4672  1.0001 -0.0082
 1275TIP3   OH225459   2.724   3.366   7.522  0.7162  0.1406  0.3235
 1275TIP3    H125460   2.762   3.432   7.580  1.2752 -0.3204  0.4879
 1275TIP3    H225461   2.678   3.306   7.581 -1.1287  1.2027  0.0698
 1276TIP3   OH225462   7.165   4.234   6.825  0.1152 -0.3914 -0.3994
 1276TIP3    H125463   7.171   4.299   6.896 -0.3716 -0.7519 -0.0206
 1276TIP3    H225464   7.256   4.210   6.808  0.2703  0.0410 -0.2160
 1277TIP3   OH225465   1.664   1.637   5.805  0.2142  0.2966  0.1342
 1277TIP3    H125466   1.573   1.637   5.835  0.2490  1.2917  0.2715
 1277TIP3    H225467   1.704   1.562   5.849 -0.5219 -0.1199  0.1152
 1278TIP3   OH225468   0.809   6.581   0.736  0.0769  0.2023  0.3599
 1278TIP3    H125469   0.757   6.601   0.659  2.1276  0.6241 -0.9721
 1278TIP3    H225470   0.859   6.661   0.753  2.6715 -1.1633 -0.3939
 1279TIP3   OH225471   1.100   0.826   0.412  0.1482  0.0639 -0.4721
 1279TIP3    H125472   1.084   0.825   0.318 -0.9067 -0.8101 -0.3072
 1279TIP3    H225473   1.173   0.765   0.425 -0.5591 -0.8330 -0.6057
 1280TIP3   OH225474   1.606   1.320   6.662 -0.3569 -0.1000 -0.5141
 1280TIP3    H125475   1.608   1.225   6.671 -0.2665 -0.0876 -0.4020
 1280TIP3    H225476   1.512   1.342   6.664 -0.4266 -0.2722 -1.5097
 1281TIP3   OH225477   1.839   3.177   0.459  0.1267  0.0065 -0.1089
 1281TIP3    H125478   1.857   3.093   0.419  0.9947 -0.6249  1.5160
 1281TIP3    H225479   1.843   3.240   0.387  0.6132 -1.1881 -1.1442
 1282TIP3   OH225480   4.806   4.952   5.648 -0.1400  0.6071  0.0792
 1282TIP3    H125481   4.722   4.909   5.666  0.6243 -0.4184  1.4278
 1282TIP3    H225482   4.861   4.881   5.614  0.4450  1.0650  0.0710
 1283TIP3   OH225483   4.865   2.050   6.727  0.1264  0.6850  0.6696
 1283TIP3    H125484   4.911   1.988   6.671 -0.8680 -0.8705  1.4980
 1283TIP3    H225485   4.819   2.108   6.666 -0.0884 -0.3055 -0.1285
 1284TIP3   OH225486   2.441   1.679   1.599 -0.0765 -0.5868 -0.0629
 1284TIP3    H125487   2.440   1.736   1.522  0.8657  0.4862  0.6965
 1284TIP3    H225488   2.390   1.725   1.664 -0.8848 -1.5020 -0.0308
 1285TIP3   OH225489   4.118   2.430   1.960  0.1856  0.0823 -1.1877
 1285TIP3    H125490   4.147   2.343   1.933 -0.5761 -0.4033 -0.5034
 1285TIP3    H225491   4.182   2.457   2.026  0.4960  0.0966 -1.4930
 1286TIP3   OH225492   0.651   6.777   0.201 -0.2645  0.3148 -0.5105
 1286TIP3    H125493   0.617   6.854   0.247  0.9963  1.4649 -1.4562
 1286TIP3    H225494   0.745   6.777   0.220 -0.5776 -2.6922  1.8828
 1287TIP3   OH225495   4.734   6.688   0.261 -0.4203  0.3457  0.5431
 1287TIP3    H125496   4.778   6.700   0.345  1.1122  1.4766 -0.3603
 1287TIP3    H225497   4.785   6.620   0.217 -0.8973  0.1219  0.3367
 1288TIP3   OH225498   1.730   1.099   6.326  0.2281  0.1822  0.4967
 1288TIP3    H125499   1.818   1.106   6.289 -0.3734  0.5904 -0.9100
 1288TIP3    H225500   1.672   1.099   6.250 -0.9745 -0.5208  1.3803
 1289TIP3   OH225501   3.039   0.989   0.425 -0.1149 -0.4470  0.9835
 1289TIP3    H125502   3.099   1.050   0.383 -0.6191 -0.1595  0.6704
 1289TIP3    H225503   3.090   0.951   0.497 -0.1569  1.2122  1.9369
 1290TIP3   OH225504   4.884   0.728   7.669  0.4814  0.0430 -0.3982
 1290TIP3    H125505   4.816   0.743   7.735 -0.5435 -0.3078 -1.3531
 1290TIP3    H225506   4.905   0.635   7.678  0.2040 -0.0482 -0.6950
 1291TIP3   OH225507   1.561   2.751   6.764  0.2916  0.4694 -0.0523
 1291TIP3    H125508   1.616   2.676   6.741  1.6109  1.0110  1.1764
 1291TIP3    H225509   1.581   2.816   6.697 -0.3710 -0.0291 -0.7500
 1292TIP3   OH225510   4.978   1.250   5.928  0.1767  1.0521  0.2935
 1292TIP3    H125511   4.895   1.202   5.926  0.1610  0.9891  1.6550
 1292TIP3    H225512   4.956   1.337   5.896 -0.3215  0.8999  0.2108
 1293TIP3   OH225513   2.343   7.009   7.065  0.1321  0.0918  0.7208
 1293TIP3    H125514   2.318   7.089   7.110  1.1232 -0.2059  1.8357
 1293TIP3    H225515   2.421   7.032   7.015  0.2581 -0.1030  0.8244
 1294TIP3   OH225516   1.774   2.239   1.569 -0.1068 -0.8323  0.1353
 1294TIP3    H125517   1.757   2.250   1.662  0.6026 -0.2730  0.2059
 1294TIP3    H225518   1.869   2.245   1.561  0.0033 -2.6468 -0.4058
 1295TIP3   OH225519   2.740   2.930   6.581  0.3626  0.0801  0.2818
 1295TIP3    H125520   2.772   2.840   6.587  0.5779  0.2293  1.5370
 1295TIP3    H225521   2.683   2.930   6.504  1.8288 -0.6606 -0.8577
 1296TIP3   OH225522   2.158   3.386   2.173  0.2193  0.2371  0.5986
 1296TIP3    H125523   2.118   3.454   2.120 -0.5201 -1.1238 -0.6724
 1296TIP3    H225524   2.091   3.361   2.237 -0.0951 -0.3516  0.0520
 1297TIP3   OH225525   5.137   3.981   6.311  0.0541  0.3986  0.2461
 1297TIP3    H125526   5.163   3.929   6.386 -2.5901  0.3708  1.2532
 1297TIP3    H225527   5.100   4.061   6.348  0.2932  1.1729 -1.1075
 1298TIP3   OH225528   7.169   2.536   1.714 -0.3015  0.4925 -0.6611
 1298TIP3    H125529   7.211   2.605   1.766  0.0084  0.4438 -0.8459
 1298TIP3    H225530   7.147   2.468   1.778  1.1228 -0.0774 -0.7501
 1299TIP3   OH225531   2.866   1.683   7.736 -0.1966  0.4418  0.1515
 1299TIP3    H125532   2.914   1.601   7.727 -0.6661  0.0502  1.0866
 1299TIP3    H225533   2.918   1.735   7.797 -0.8354  0.0982  1.0062
 1300TIP3   OH225534   7.198   5.770   6.197 -0.0474 -0.0191 -0.0428
 1300TIP3    H125535   7.109   5.744   6.172 -0.7457 -1.3774  3.3741
 1300TIP3    H225536   7.186   5.845   6.255  1.4280  2.4123 -2.6167
 1301TIP3   OH225537   4.896   3.547   0.843  0.1985  0.0992 -0.0907
 1301TIP3    H125538   4.843   3.566   0.765 -0.0962 -1.1391 -0.2056
 1301TIP3    H225539   4.832   3.538   0.913  0.3039 -0.7267 -0.0958
 1302TIP3   OH225540   4.640   6.618   1.551  0.3323 -0.1610  0.1340
 1302TIP3    H125541   4.731   6.594   1.539  0.1208 -0.4896 -0.8849
 1302TIP3    H225542   4.609   6.640   1.463 -0.3956  0.5692  0.5587
 1303TIP3   OH225543   3.177   2.038   0.183  0.1698  0.3753 -0.2717
 1303TIP3    H125544   3.141   2.066   0.099  0.3623 -0.2977 -0.5779
 1303TIP3    H225545   3.102   2.002   0.231 -0.7764  3.9736  1.3108
 1304TIP3   OH225546   1.275   0.493   7.198 -0.4320  0.3035 -0.0386
 1304TIP3    H125547   1.216   0.549   7.249 -1.6756 -0.9661 -0.0492
 1304TIP3    H225548   1.348   0.551   7.175  1.0461  0.5713  4.5134
 1305TIP3   OH225549   5.746   2.369   0.173  0.0854  0.0952 -0.0855
 1305TIP3    H125550   5.809   2.301   0.149  0.6697  0.7936 -0.5822
 1305TIP3    H225551   5.799   2.449   0.182 -0.3099  0.1742  2.1491
 1306TIP3   OH225552   4.909   3.549   6.207  0.0545 -0.7959 -0.4609
 1306TIP3    H125553   4.968   3.552   6.132 -1.2377 -0.7548 -1.5197
 1306TIP3    H225554   4.853   3.473   6.191  0.1070 -1.1136  0.7554
 1307TIP3   OH225555   1.919   2.322   6.175 -0.5892  0.0453 -0.0963
 1307TIP3    H125556   1.846   2.260   6.173 -0.7090  0.1529  0.6537
 1307TIP3    H225557   1.878   2.408   6.182 -0.3995  0.1150  0.1985
 1308TIP3   OH225558   3.177   1.711   0.802 -0.0345 -0.0228 -0.1653
 1308TIP3    H125559   3.140   1.761   0.876  2.1917 -0.6013  1.4370
 1308TIP3    H225560   3.249   1.765   0.770 -0.8212  0.1044 -1.8324
 1309TIP3   OH225561   7.050   1.526   1.992  0.6059  0.4068 -0.0261
 1309TIP3    H125562   7.059   1.453   1.930  0.9549  0.2309  0.2343
 1309TIP3    H225563   7.138   1.540   2.026  0.3939  0.4396  0.5077
 1310TIP3   OH225564   2.827   5.532   6.156 -0.1759 -0.1246  0.0531
 1310TIP3    H125565   2.784   5.574   6.231 -2.0114  0.2635 -1.1389
 1310TIP3    H225566   2.770   5.459   6.133 -0.5097  0.6689 -1.8644
 1311TIP3   OH225567   6.525   6.449   0.732 -0.0388  0.1497 -0.6221
 1311TIP3    H125568   6.530   6.425   0.639 -0.6927  1.1464 -0.9359
 1311TIP3    H225569   6.524   6.544   0.732  1.9221  0.2247  0.5527
 1312TIP3   OH225570   0.388   5.789   7.336  0.2943 -0.2784  0.2990
 1312TIP3    H125571   0.298   5.761   7.319  0.4101 -1.4083  1.3858
 1312TIP3    H225572   0.433   5.776   7.252 -0.6742  0.8906 -0.4272
 1313TIP3   OH225573   4.613   4.293   6.465 -0.3532  0.5793 -0.1672
 1313TIP3    H125574   4.572   4.247   6.538 -1.0522  0.0027 -0.9129
 1313TIP3    H225575   4.646   4.224   6.408  0.6354  1.0289 -0.1612
 1314TIP3   OH225576   1.499   3.985   0.056 -0.0353 -0.3144 -0.4788
 1314TIP3    H125577   1.482   4.079   0.062  0.6653 -0.0017 -2.3954
 1314TIP3    H225578   1.444   3.955  -0.017  0.9502 -1.0472 -0.9536
 1315TIP3   OH225579   4.031   4.036   0.761  0.4875  0.3257 -0.3767
 1315TIP3    H125580   4.067   4.071   0.842 -0.4171 -1.9541  1.0959
 1315TIP3    H225581   4.074   3.951   0.751  0.8317  0.6883 -2.5082
 1316TIP3   OH225582   1.645   6.299   1.703  0.1430  0.0882 -0.3585
 1316TIP3    H125583   1.616   6.248   1.778  1.1920  0.6727  0.4767
 1316TIP3    H225584   1.655   6.388   1.737  1.4822  0.1849 -0.9501
 1317TIP3   OH225585   4.924   4.174   0.459 -0.5804 -0.1704  0.1438
 1317TIP3    H125586   4.879   4.220   0.529 -0.9084  0.6848 -0.5980
 1317TIP3    H225587   4.873   4.194   0.380  0.6377  0.1938 -0.5939
 1318TIP3   OH225588   0.022   5.735   6.603 -0.3897 -0.0255  0.6671
 1318TIP3    H125589  -0.002   5.819   6.640  0.7808  0.9729 -0.7361
 1318TIP3    H225590  -0.029   5.730   6.522 -1.1414 -1.1080  1.1779
 1319TIP3   OH225591   3.807   7.217   0.527 -0.1843 -0.7316 -0.2005
 1319TIP3    H125592   3.869   7.189   0.460  0.0638 -0.1418 -0.2179
 1319TIP3    H225593   3.742   7.269   0.479  0.2455  0.0759  0.0851
 1320TIP3   OH225594   2.427   2.955   7.942 -0.6232  0.2848 -0.1163
 1320TIP3    H125595   2.401   3.025   7.883  0.2357  1.6629  1.0577
 1320TIP3    H225596   2.351   2.941   7.998 -0.3238  1.3313  0.5813
 1321TIP3   OH225597   1.642   6.702   0.276 -0.6321 -0.2563 -0.4241
 1321TIP3    H125598   1.558   6.657   0.282 -1.1802  0.8624  1.0428
 1321TIP3    H225599   1.623   6.782   0.226 -0.5354  0.1752  0.2199
 1322TIP3   OH225600   5.301   6.311   7.908 -0.2943  0.0998 -0.3152
 1322TIP3    H125601   5.392   6.339   7.922  0.3593 -2.2006  0.4662
 1322TIP3    H225602   5.272   6.361   7.831  1.7811  0.5562 -0.8613
 1323TIP3   OH225603   2.722   2.301   0.905  0.4181 -0.0197  0.1967
 1323TIP3    H125604   2.795   2.262   0.857 -0.8471  0.2823 -2.0948
 1323TIP3    H225605   2.703   2.382   0.859 -2.8005 -1.1846 -0.7962
 1324TIP3   OH225606   4.925   6.327   1.833 -0.3415 -0.5483  0.0401
 1324TIP3    H125607   4.963   6.241   1.814  1.7113  0.3767 -0.3135
 1324TIP3    H225608   4.956   6.348   1.921 -1.4990 -0.4814  0.4488
 1325TIP3   OH225609   3.357   2.577   6.623  0.1472 -0.2907  0.0484
 1325TIP3    H125610   3.444   2.577   6.663  0.6858 -2.1269 -0.9938
 1325TIP3    H225611   3.326   2.487   6.634 -1.4073  0.2210 -0.0334
 1326TIP3   OH225612   6.987   5.817   6.465 -0.4146 -0.6751  0.5749
 1326TIP3    H125613   7.044   5.882   6.424 -0.8442  0.0038  1.0495
 1326TIP3    H225614   6.971   5.752   6.396  0.5474 -0.6298  0.3002
 1327TIP3   OH225615   6.512   5.678   6.900 -0.1060 -0.2257  0.3257
 1327TIP3    H125616   6.603   5.654   6.886  0.7983  1.3064  2.7773
 1327TIP3    H225617   6.495   5.747   6.836 -0.4888 -2.2835 -1.9366
 1328TIP3   OH225618   1.432   3.452   6.321 -0.1046  0.1359  0.1751
 1328TIP3    H125619   1.444   3.544   6.344  0.3951  0.4850 -1.3746
 1328TIP3    H225620   1.477   3.404   6.391  0.4229  1.1065  0.5185
 1329TIP3   OH225621   3.675   0.256   7.900 -0.6953  0.4611 -0.8436
 1329TIP3    H125622   3.629   0.246   7.816 -0.3535 -0.3706 -0.9418
 1329TIP3    H225623   3.735   0.181   7.903 -0.9254  0.3141  0.2860
 1330TIP3   OH225624   5.972   1.863   0.842  0.5631 -0.3828 -0.2059
 1330TIP3    H125625   6.042   1.922   0.814 -1.5965  2.1723 -0.6548
 1330TIP3    H225626   5.949   1.895   0.929 -0.7014 -0.5226 -0.4805
 1331TIP3   OH225627   4.639   2.333   0.760  0.1700  0.1516 -0.1926
 1331TIP3    H125628   4.682   2.252   0.791 -0.0166 -0.7185 -2.0905
 1331TIP3    H225629   4.699   2.368   0.694 -0.9804  0.1088 -1.2938
 1332TIP3   OH225630   5.082   3.216   0.461 -0.1093 -0.5571 -0.5446
 1332TIP3    H125631   5.134   3.290   0.492 -0.9697 -0.2011  0.0731
 1332TIP3    H225632   5.019   3.254   0.400  0.8913 -1.1116 -1.9727
 1333TIP3   OH225633   2.021   1.879   7.097 -0.4762  0.1635 -0.0084
 1333TIP3    H125634   2.046   1.879   7.190 -1.3562  0.8385  0.2392
 1333TIP3    H225635   1.928   1.901   7.097 -0.7826 -1.0059 -0.9918
 1334TIP3   OH225636   0.189   2.706   7.644 -0.2854 -0.9934 -0.9705
 1334TIP3    H125637   0.258   2.764   7.612  0.3377 -0.4949  1.1660
 1334TIP3    H225638   0.115   2.764   7.661  0.0238 -0.9280  0.2567
 1335TIP3   OH225639   2.280   2.290   0.237  0.1151 -0.1248 -0.0572
 1335TIP3    H125640   2.282   2.335   0.152 -0.4029 -0.3674 -0.2001
 1335TIP3    H225641   2.363   2.243   0.241  0.7336  0.9396  0.1533
 1336TIP3   OH225642   3.418   4.584   0.698 -0.0481  0.0749 -0.0235
 1336TIP3    H125643   3.429   4.516   0.631 -1.8006 -1.1591  0.8464
 1336TIP3    H225644   3.446   4.541   0.780 -1.8310  0.1217  0.6494
 1337TIP3   OH225645   0.097   5.706   0.931 -0.3104 -0.2883  0.3163
 1337TIP3    H125646   0.176   5.759   0.944 -1.0449  0.8167  0.4339
 1337TIP3    H225647   0.103   5.636   0.996 -0.5401  1.1245  1.9198
 1338TIP3   OH225648   4.603   1.050   6.530 -0.3417  0.0215 -0.0989
 1338TIP3    H125649   4.593   1.124   6.470  1.2974  1.5624  1.3940
 1338TIP3    H225650   4.696   1.052   6.555 -0.6004 -1.5905  1.1747
 1339TIP3   OH225651   0.305   1.124   1.049 -0.4527 -0.5734 -0.3070
 1339TIP3    H125652   0.299   1.146   1.141  0.8452 -0.9543 -0.1109
 1339TIP3    H225653   0.328   1.206   1.005  0.7398 -0.7632 -0.0505
 1340TIP3   OH225654   6.147   6.803   7.787 -0.1775 -0.6806  0.2110
 1340TIP3    H125655   6.227   6.770   7.827  1.5350  2.8543  0.0749
 1340TIP3    H225656   6.098   6.842   7.859  0.2622  0.8073 -0.2566
 1341TIP3   OH225657   4.471   2.408   7.068  0.6986 -0.1603  0.1725
 1341TIP3    H125658   4.420   2.342   7.021  0.8774 -0.7773  0.8264
 1341TIP3    H225659   4.410   2.444   7.132  1.1294 -1.1104  1.1606
 1342TIP3   OH225660   5.066   4.762   0.153  0.5761  0.5624  0.2479
 1342TIP3    H125661   5.060   4.825   0.225  0.4861 -0.4204  1.1139
 1342TIP3    H225662   5.022   4.684   0.185  0.4690  0.1237 -0.9106
 1343TIP3   OH225663   6.810   6.668   0.581  0.3666  0.1535  0.2562
 1343TIP3    H125664   6.747   6.731   0.617 -1.9789 -1.7080 -0.3140
 1343TIP3    H225665   6.836   6.705   0.497 -0.4983  0.6808  0.2042
 1344TIP3   OH225666   2.239   4.902   7.009 -0.4467 -0.2941 -0.1225
 1344TIP3    H125667   2.224   4.996   7.022  0.7142  0.0920 -1.3970
 1344TIP3    H225668   2.155   4.861   7.033 -1.8483  1.3045 -1.9524
 1345TIP3   OH225669   3.105   7.151   6.268 -0.1656 -0.1711  0.3811
 1345TIP3    H125670   3.049   7.143   6.191 -1.8409 -0.2806  1.5597
 1345TIP3    H225671   3.194   7.143   6.234 -0.8163  0.4608 -1.6200
 1346TIP3   OH225672   0.909   5.250   6.509 -0.3730  0.3148  0.0026
 1346TIP3    H125673   0.995   5.272   6.472 -0.7779  0.9352 -0.6013
 1346TIP3    H225674   0.928   5.191   6.581  0.6036  0.8412  0.1923
 1347TIP3   OH225675   5.192   4.060   7.080  0.3583 -0.4595 -0.0810
 1347TIP3    H125676   5.254   4.085   7.148  2.9254 -0.8614 -2.1005
 1347TIP3    H225677   5.208   4.122   7.008 -1.2882 -0.8711 -0.8689
 1348TIP3   OH225678   4.271   0.249   6.653  0.1845 -0.0395 -0.2182
 1348TIP3    H125679   4.311   0.168   6.621 -1.1313 -1.1777  0.8855
 1348TIP3    H225680   4.248   0.298   6.574 -1.4347 -1.9796 -1.0178
 1349TIP3   OH225681   6.898   1.575   7.290  0.2092  0.5670  0.1564
 1349TIP3    H125682   6.871   1.636   7.221 -1.2295  0.4296  0.5624
 1349TIP3    H225683   6.922   1.495   7.243  0.8050  0.9939 -0.2840
 1350TIP3   OH225684   2.038   6.875   6.394  0.0678 -0.2415 -0.1438
 1350TIP3    H125685   2.083   6.924   6.463 -1.6633  1.0877  0.0819
 1350TIP3    H225686   2.106   6.863   6.327  0.3971  3.4563 -0.7200
 1351TIP3   OH225687   3.782   6.993   1.096  0.5192 -0.1458 -0.2207
 1351TIP3    H125688   3.868   6.961   1.071  0.9188 -0.0210  0.9403
 1351TIP3    H225689   3.793   7.087   1.105  0.3036 -0.1480  0.0886
 1352TIP3   OH225690   4.000   2.591   7.887 -0.1642 -0.3577  0.6328
 1352TIP3    H125691   3.958   2.668   7.848 -1.8729 -1.5800 -0.0817
 1352TIP3    H225692   4.063   2.627   7.949 -1.0999  1.6174  0.5313
 1353TIP3   OH225693   4.487   1.357   1.386 -0.6198 -0.2458 -0.4580
 1353TIP3    H125694   4.414   1.313   1.342  0.1042 -1.6231 -0.3573
 1353TIP3    H225695   4.516   1.424   1.324 -0.9709 -0.7376 -1.1726
 1354TIP3   OH225696   6.309   0.815   7.022 -0.2341 -0.3527  0.5755
 1354TIP3    H125697   6.270   0.743   7.072  1.3976 -0.4060  1.8456
 1354TIP3    H225698   6.281   0.894   7.069 -0.7695 -0.2339  0.0704
 1355TIP3   OH225699   4.036   6.400   0.529  0.2690 -0.3579 -0.3764
 1355TIP3    H125700   4.034   6.345   0.450 -1.8508  0.5604 -1.0256
 1355TIP3    H225701   4.073   6.483   0.500 -0.6269  0.0228 -0.4440
 1356TIP3   OH225702   0.758   0.822   0.808 -0.4499  0.8314 -0.0108
 1356TIP3    H125703   0.683   0.843   0.862  0.4296 -1.1578  2.1767
 1356TIP3    H225704   0.776   0.901   0.758 -2.2660  2.2537  1.4858
 1357TIP3   OH225705   2.923   0.347   1.939 -0.2290  0.2853  0.0294
 1357TIP3    H125706   2.972   0.399   1.875 -1.0917 -0.6683 -1.4832
 1357TIP3    H225707   2.956   0.258   1.927  0.3643  0.2498  1.7203
 1358TIP3   OH225708   3.039   0.483   7.826 -0.0188  0.5999 -0.2954
 1358TIP3    H125709   3.096   0.451   7.756  1.1436  1.6241  0.1267
 1358TIP3    H225710   2.971   0.532   7.780 -0.4442 -0.4358 -0.8009
 1359TIP3   OH225711   5.550   4.903   7.469 -0.3635  0.5371 -0.0017
 1359TIP3    H125712   5.596   4.882   7.551  1.4899 -2.6572 -1.6656
 1359TIP3    H225713   5.469   4.851   7.474  0.4274 -0.8080 -0.7367
 1360TIP3   OH225714   5.388   2.005   0.653  0.4955  0.2602 -0.1472
 1360TIP3    H125715   5.388   2.099   0.673 -0.7691  0.2937 -0.1799
 1360TIP3    H225716   5.324   1.997   0.582 -1.3304 -0.9232  1.5180
 1361TIP3   OH225717   0.701   1.721   1.776 -0.2101  0.3162 -0.1094
 1361TIP3    H125718   0.651   1.695   1.853  0.8035  0.6100  0.6529
 1361TIP3    H225719   0.727   1.638   1.736 -3.8122 -0.0104 -2.2883
 1362TIP3   OH225720   6.727   3.743   7.264 -0.7589  0.2697  0.1410
 1362TIP3    H125721   6.692   3.660   7.233  0.2534 -0.3783  0.6869
 1362TIP3    H225722   6.777   3.777   7.189 -1.7589  0.7607 -0.3287
 1363TIP3   OH225723   7.170   5.987   6.358 -0.1206  0.3016  0.2788
 1363TIP3    H125724   7.186   6.059   6.419 -0.6713  0.6910 -0.0226
 1363TIP3    H225725   7.156   6.029   6.274 -0.9541 -0.1179  0.1939
 1364TIP3   OH225726   0.347   4.244   7.988  0.9500  0.2820 -0.5727
 1364TIP3    H125727   0.414   4.175   7.989  0.1840 -0.6198 -3.0335
 1364TIP3    H225728   0.396   4.326   7.980  1.8193 -0.2571 -0.9008
 1365TIP3   OH225729   2.645   7.152   7.844  0.0340 -0.4542  0.0053
 1365TIP3    H125730   2.717   7.205   7.878  0.2236  0.4561 -1.7261
 1365TIP3    H225731   2.583   7.148   7.917  0.7374  0.8000  0.7175
 1366TIP3   OH225732   4.661   5.176   1.962 -0.4302  0.1204 -0.4661
 1366TIP3    H125733   4.748   5.136   1.971 -0.4156 -0.0605 -1.2911
 1366TIP3    H225734   4.612   5.115   1.907 -1.5347 -0.4495  1.0794
 1367TIP3   OH225735   6.684   2.089   1.848  0.2416 -0.3047 -0.0273
 1367TIP3    H125736   6.659   2.168   1.799 -0.8149 -1.3675 -1.2740
 1367TIP3    H225737   6.625   2.088   1.923  1.0231  0.6686  0.6277
 1368TIP3   OH225738   1.196   2.048   6.951  0.2218 -0.1300  0.0245
 1368TIP3    H125739   1.257   2.091   7.012 -0.3565  0.3876  0.2487
 1368TIP3    H225740   1.125   2.111   6.940 -1.4098 -1.5979  1.5577
 1369TIP3   OH225741   1.380   3.834   0.803  0.5414 -0.3158  0.1521
 1369TIP3    H125742   1.417   3.911   0.760  0.1842  1.1391  2.2955
 1369TIP3    H225743   1.291   3.827   0.768  1.4395 -1.5305 -2.1421
 1370TIP3   OH225744   7.150   2.718   5.734 -0.0977  0.5308  0.0573
 1370TIP3    H125745   7.213   2.753   5.672 -0.3293  3.0411  1.1111
 1370TIP3    H225746   7.196   2.647   5.779  1.0427  0.5911 -0.9847
 1371TIP3   OH225747   0.807   1.093   6.521  0.2056  0.2938 -0.2406
 1371TIP3    H125748   0.785   1.132   6.606  2.1334 -1.0832  1.0054
 1371TIP3    H225749   0.802   0.998   6.537  0.0726  0.0135 -1.8353
 1372TIP3   OH225750   5.884   6.198   6.934 -0.5105 -0.1098  0.2672
 1372TIP3    H125751   5.971   6.201   6.974  0.4322  0.1029 -1.6859
 1372TIP3    H225752   5.824   6.207   7.008  1.0582 -1.7729  1.8623
 1373TIP3   OH225753   6.561   3.695   0.531 -0.2402 -0.2031 -0.2678
 1373TIP3    H125754   6.572   3.620   0.472 -0.8654  0.4683 -1.2750
 1373TIP3    H225755   6.650   3.726   0.546 -0.0564 -0.4676 -0.7660
 1374TIP3   OH225756   3.412   2.006   7.323  0.5136  0.2650  0.5183
 1374TIP3    H125757   3.407   2.054   7.241 -0.1397 -0.4152  0.1537
 1374TIP3    H225758   3.488   1.949   7.313  0.3240  0.0471  0.3087
 1375TIP3   OH225759   5.810   0.619   0.068  0.5728 -0.0424  0.3172
 1375TIP3    H125760   5.719   0.598   0.048  1.1281 -0.0355 -2.7028
 1375TIP3    H225761   5.807   0.711   0.096 -0.2860  0.1862 -0.4727
 1376TIP3   OH225762   1.080   2.659   0.958 -0.0025  0.0876  0.3690
 1376TIP3    H125763   1.154   2.673   1.018  0.7245 -0.8991 -0.2613
 1376TIP3    H225764   1.077   2.738   0.905 -2.0104  1.9859  2.9991
 1377TIP3   OH225765   1.170   1.294   6.520 -0.6057 -0.1038  0.1213
 1377TIP3    H125766   1.082   1.323   6.541 -1.2097 -1.2737 -0.7177
 1377TIP3    H225767   1.180   1.308   6.426 -0.1202 -0.5226  0.0979
 1378TIP3   OH225768   3.174   0.289   6.088  0.2099  0.3537  0.1856
 1378TIP3    H125769   3.167   0.214   6.029 -0.7874 -0.3391  1.1505
 1378TIP3    H225770   3.092   0.337   6.076  1.3533  2.0605 -1.3739
 1379TIP3   OH225771   3.888   2.486   6.724  0.0752  0.2744 -0.1861
 1379TIP3    H125772   3.901   2.507   6.631 -2.2208  1.5676 -0.2884
 1379TIP3    H225773   3.893   2.571   6.768  3.0011 -0.5018  1.2273
 1380TIP3   OH225774   1.553   4.456   6.133 -0.2927  0.6366  0.4289
 1380TIP3    H125775   1.495   4.426   6.062  0.3060  2.7100 -1.0323
 1380TIP3    H225776   1.563   4.550   6.118  3.3899  0.4122  0.6267
 1381TIP3   OH225777   2.387   4.143   1.496  0.0805  0.2972  0.0558
 1381TIP3    H125778   2.400   4.115   1.586 -2.4905 -2.2594 -0.2408
 1381TIP3    H225779   2.470   4.125   1.452  1.4124  1.7123  1.8446
 1382TIP3   OH225780   3.209   0.923   0.068 -0.0364  0.4586  0.1722
 1382TIP3    H125781   3.247   0.843   0.105 -2.5884 -1.4422 -1.0413
 1382TIP3    H225782   3.245   0.927  -0.020 -2.0311 -1.0594 -0.7949
 1383TIP3   OH225783   1.112   6.399   7.817  0.8282 -0.9024  0.4189
 1383TIP3    H125784   1.108   6.492   7.836  1.2479 -0.5623 -1.0027
 1383TIP3    H225785   1.203   6.384   7.792  0.4118 -1.3359 -0.9301
 1384TIP3   OH225786   6.988   3.321   0.481  0.0612 -0.2360 -0.5279
 1384TIP3    H125787   7.056   3.380   0.450  1.0615 -0.4304  1.1634
 1384TIP3    H225788   6.944   3.368   0.552 -0.2919 -0.8460 -0.3264
 1385TIP3   OH225789   6.959   1.259   0.539 -0.4999  0.2328  0.2176
 1385TIP3    H125790   7.017   1.290   0.469 -0.0161  1.5774  1.1608
 1385TIP3    H225791   6.902   1.334   0.557 -0.0132  0.2423  1.8747
 1386TIP3   OH225792   6.033   0.765   0.355  0.2055 -0.6322 -0.2514
 1386TIP3    H125793   5.986   0.840   0.320  2.5942  1.2322  0.2419
 1386TIP3    H225794   5.983   0.737   0.431 -0.7881  0.3828 -0.5174
 1387TIP3   OH225795   6.354   0.645   6.795  0.1963 -0.8932  0.0290
 1387TIP3    H125796   6.292   0.707   6.835 -0.7121 -0.8932 -1.3133
 1387TIP3    H225797   6.356   0.571   6.856  0.4869 -0.0075  1.1317
 1388TIP3   OH225798   3.236   1.312   1.618  1.1600 -0.4185 -0.6517
 1388TIP3    H125799   3.297   1.386   1.612  0.6800  0.0491 -0.0071
 1388TIP3    H225800   3.205   1.315   1.708  1.1497 -1.4379 -0.6116
 1389TIP3   OH225801   2.627   3.278   1.277  0.2723  0.1327  0.0465
 1389TIP3    H125802   2.682   3.253   1.351  1.1657 -0.2950 -0.7316
 1389TIP3    H225803   2.539   3.288   1.314 -0.0118 -3.2689  0.6332
 1390TIP3   OH225804   3.729   4.179   7.492  0.6652 -0.0404  0.1882
 1390TIP3    H125805   3.684   4.103   7.528 -0.6489  0.3548 -0.5174
 1390TIP3    H225806   3.804   4.143   7.445  0.6992 -0.7984  0.8126
 1391TIP3   OH225807   4.258   6.842   6.799 -0.1972  0.3463 -0.0718
 1391TIP3    H125808   4.299   6.882   6.722  2.5381  1.0078  1.6011
 1391TIP3    H225809   4.195   6.908   6.829  0.3909  1.0821 -0.4125
 1392TIP3   OH225810   4.159   1.949   0.180 -0.2833  0.2913  0.1952
 1392TIP3    H125811   4.237   1.988   0.220  0.6554 -1.5521  0.2475
 1392TIP3    H225812   4.146   1.999   0.099  0.6804  0.9009  0.4040
 1393TIP3   OH225813   1.899   0.505   7.923  0.2818 -0.2834 -0.4963
 1393TIP3    H125814   1.969   0.513   7.988 -2.0710 -0.4524  2.2614
 1393TIP3    H225815   1.867   0.594   7.909 -0.2831 -0.4239 -0.1373
 1394TIP3   OH225816   4.257   2.506   0.987 -0.1377 -0.4833  0.2118
 1394TIP3    H125817   4.262   2.596   1.020 -0.4942 -0.3954  0.0325
 1394TIP3    H225818   4.348   2.477   0.982 -0.0294 -0.1842  0.4104
 1395TIP3   OH225819   5.480   4.621   7.315  0.2259 -0.7367 -0.1886
 1395TIP3    H125820   5.458   4.629   7.222 -1.0419  2.1224  0.2435
 1395TIP3    H225821   5.425   4.687   7.358  0.2150 -2.4640  2.7138
 1396TIP3   OH225822   2.142   6.355   5.872  0.7300  0.2209  0.5119
 1396TIP3    H125823   2.226   6.345   5.828  0.2301 -1.6819 -0.1345
 1396TIP3    H225824   2.077   6.327   5.808 -0.3771  1.2711  1.1316
 1397TIP3   OH225825   1.055   6.003   6.532  0.3157  0.3321  0.1222
 1397TIP3    H125826   1.051   6.087   6.577  0.5520 -0.6363  2.0604
 1397TIP3    H225827   0.964   5.984   6.508  0.1382  0.7451  0.4651
 1398TIP3   OH225828   0.343   0.493   6.876 -0.0053 -0.1053  0.6188
 1398TIP3    H125829   0.258   0.537   6.883  1.7677  3.7563  0.2683
 1398TIP3    H225830   0.350   0.470   6.783  0.0798  1.4150  0.2177
 1399TIP3   OH225831   4.268   5.774   7.026 -0.3605  0.2752 -0.5451
 1399TIP3    H125832   4.357   5.784   7.059 -0.5582 -0.4698  0.2281
 1399TIP3    H225833   4.227   5.860   7.039  0.2981  0.6888 -1.1165
 1400TIP3   OH225834   5.310   4.075   0.774 -0.1747  0.2348  0.1646
 1400TIP3    H125835   5.323   4.117   0.859 -1.8674  1.1083  0.0438
 1400TIP3    H225836   5.218   4.091   0.754  0.1833  0.0082 -1.8350
 1401TIP3   OH225837   0.831   1.799   6.644  0.0310  0.0427 -0.7684
 1401TIP3    H125838   0.782   1.863   6.696  0.8859  1.6118 -1.8242
 1401TIP3    H225839   0.828   1.719   6.697 -3.9873 -0.1600 -0.9340
 1402TIP3   OH225840   3.211   3.179   6.231 -0.2556 -0.4456 -0.0794
 1402TIP3    H125841   3.206   3.273   6.246  1.8198 -0.0693 -1.4165
 1402TIP3    H225842   3.123   3.147   6.251 -1.4691  1.9902 -1.1344
 1403TIP3   OH225843   2.737   3.156   7.315 -0.1311  0.3253  0.1519
 1403TIP3    H125844   2.808   3.100   7.347  0.5677  1.2654  0.2737
 1403TIP3    H225845   2.747   3.237   7.364 -1.6954  0.2594  0.6409
 1404TIP3   OH225846   4.107   7.153   6.452 -0.0336 -0.0485 -0.0649
 1404TIP3    H125847   4.104   7.133   6.545  1.2941 -3.0041 -0.5346
 1404TIP3    H225848   4.026   7.117   6.416 -0.3364  0.6815 -0.1221
 1405TIP3   OH225849   0.836   3.980   7.537  0.4191 -0.1243 -0.0782
 1405TIP3    H125850   0.805   3.890   7.545  0.8042 -0.1843  0.9132
 1405TIP3    H225851   0.782   4.030   7.599  0.0539  0.3790 -0.7846
 1406TIP3   OH225852   5.866   3.497   6.837  0.2417 -0.2301 -0.3275
 1406TIP3    H125853   5.957   3.470   6.844  0.3906  0.6583  1.5696
 1406TIP3    H225854   5.861   3.580   6.884 -1.1800  0.6909 -1.9758
 1407TIP3   OH225855   0.889   6.200   5.820  0.1565  0.2235 -0.3000
 1407TIP3    H125856   0.951   6.265   5.852  0.1723 -0.8466  2.0085
 1407TIP3    H225857   0.918   6.182   5.730  3.5139 -0.5461  0.7907
 1408TIP3   OH225858   2.454   5.472   1.567 -0.0622  0.1936 -0.0209
 1408TIP3    H125859   2.400   5.398   1.596  1.2617 -0.7847  0.0049
 1408TIP3    H225860   2.451   5.533   1.640 -0.7819 -0.0386  0.1564
 1409TIP3   OH225861   5.672   2.666   6.821 -0.0440  0.2425 -0.3479
 1409TIP3    H125862   5.633   2.748   6.793 -1.0899 -0.1954 -0.2466
 1409TIP3    H225863   5.604   2.624   6.875 -0.0909 -1.3192 -1.5410
 1410TIP3   OH225864   2.634   4.474   0.567 -0.1551 -0.4703 -0.1781
 1410TIP3    H125865   2.653   4.462   0.474 -1.4074 -1.1579 -0.3709
 1410TIP3    H225866   2.581   4.398   0.590 -0.5333  0.1080  0.9029
 1411TIP3   OH225867   4.331   5.483   0.860  0.0354 -0.1688 -0.3958
 1411TIP3    H125868   4.338   5.507   0.953  0.4172 -0.7666 -0.2618
 1411TIP3    H225869   4.245   5.442   0.853  0.7859 -1.9155  0.1342
 1412TIP3   OH225870   3.638   2.039   1.240  0.1147 -0.4036 -0.1157
 1412TIP3    H125871   3.558   2.034   1.189 -0.4865 -1.3748  0.8838
 1412TIP3    H225872   3.708   2.021   1.177 -0.3977  0.8638 -1.0758
 1413TIP3   OH225873   4.795   1.885   6.000  0.5094 -0.2177 -0.3932
 1413TIP3    H125874   4.792   1.800   6.043  0.5789 -0.3210 -0.5904
 1413TIP3    H225875   4.820   1.947   6.069 -3.4935  0.3305  0.8394
 1414TIP3   OH225876   3.935   3.035   0.801  0.1777  0.5950  0.0389
 1414TIP3    H125877   3.917   2.944   0.825 -0.1402  0.1129 -1.8526
 1414TIP3    H225878   3.956   3.031   0.708 -2.1931  2.7160 -0.6985
 1415TIP3   OH225879   2.253   6.460   6.737 -0.2119 -0.2095 -0.1782
 1415TIP3    H125880   2.174   6.460   6.684  0.2818  0.6331 -0.9264
 1415TIP3    H225881   2.321   6.493   6.680  0.5206 -0.1334  0.7128
 1416TIP3   OH225882   0.058   1.003   6.297 -0.1088 -0.6008  0.0281
 1416TIP3    H125883   0.010   0.961   6.226  0.8089  0.3788 -1.2590
 1416TIP3    H225884   0.086   1.087   6.259  2.0606 -0.8626  0.8715
 1417TIP3   OH225885   0.321   6.511   7.239 -0.1223 -1.0931  1.0016
 1417TIP3    H125886   0.394   6.458   7.270  1.3317  0.8819  1.1449
 1417TIP3    H225887   0.321   6.501   7.144  0.8917 -0.4448  0.9256
 1418TIP3   OH225888   0.538   5.528   0.424 -1.0336  0.0405  0.3293
 1418TIP3    H125889   0.585   5.570   0.496 -2.3796  0.7410  0.8311
 1418TIP3    H225890   0.469   5.590   0.401 -0.8322 -0.3276 -1.3544
 1419TIP3   OH225891   3.340   6.035   6.233 -0.4848  0.3076 -0.3891
 1419TIP3    H125892   3.320   5.949   6.196 -2.0128  0.5330 -0.1552
 1419TIP3    H225893   3.263   6.088   6.214 -0.1681  1.2141  0.7338
 1420TIP3   OH225894   0.399   6.763   0.950  0.2627 -0.1320  0.1920
 1420TIP3    H125895   0.350   6.734   0.873 -0.5330  0.0013  0.6432
 1420TIP3    H225896   0.422   6.853   0.931 -0.8044  0.2258  0.5207
 1421TIP3   OH225897   6.537   2.180   0.545 -0.0629 -0.1913  0.0428
 1421TIP3    H125898   6.558   2.177   0.452 -1.6492 -1.8767 -0.3240
 1421TIP3    H225899   6.568   2.266   0.574 -1.1812  1.1537 -2.4424
 1422TIP3   OH225900   4.085   3.413   7.412  0.2978 -0.7429  0.1110
 1422TIP3    H125901   4.044   3.489   7.452  0.2636 -1.0968  0.7569
 1422TIP3    H225902   4.030   3.339   7.436 -0.4910 -0.8111 -1.7212
 1423TIP3   OH225903   1.788   7.201   0.119  0.5580 -0.1836  0.0263
 1423TIP3    H125904   1.795   7.292   0.089  0.7563 -0.5386 -1.0352
 1423TIP3    H225905   1.801   7.207   0.214 -2.4971  1.2457  0.4700
 1424TIP3   OH225906   4.011   6.900   1.010  0.1238  0.6774 -0.3994
 1424TIP3    H125907   4.100   6.865   1.001  0.6788  2.3539 -2.1988
 1424TIP3    H225908   3.962   6.858   0.939 -0.8600 -0.9843  1.1656
 1425TIP3   OH225909   3.162   1.960   7.904 -0.0616 -0.1366  0.1534
 1425TIP3    H125910   3.080   2.005   7.922 -0.0440  0.0939 -0.3266
 1425TIP3    H225911   3.147   1.870   7.932 -0.5302 -0.1327 -0.0834
 1426TIP3   OH225912   0.463   1.448   6.152 -0.2870  0.2111  0.0174
 1426TIP3    H125913   0.552   1.429   6.121 -0.3495 -0.7642  0.3890
 1426TIP3    H225914   0.435   1.523   6.100 -0.2884 -1.1913 -2.1054
 1427TIP3   OH225915   5.147   5.193   1.363  0.6407 -0.2567  0.1070
 1427TIP3    H125916   5.226   5.242   1.338  0.3169  0.1477 -0.1269
 1427TIP3    H225917   5.114   5.237   1.441 -0.2863  0.6099 -0.7500
 1428TIP3   OH225918   7.105   0.303   5.649  0.1522  0.2054  0.4526
 1428TIP3    H125919   7.174   0.242   5.622  0.6125 -0.4130  2.7634
 1428TIP3    H225920   7.108   0.301   5.745 -2.6013  0.7222  0.6362
 1429TIP3   OH225921   1.990   1.152   6.773  0.0226  0.6206 -0.4873
 1429TIP3    H125922   1.909   1.151   6.824 -0.5800  2.1142 -1.3749
 1429TIP3    H225923   1.964   1.124   6.685  0.7151 -0.0731 -0.4871
 1430TIP3   OH225924   0.612   6.692   7.465  0.2373  0.0544 -0.0788
 1430TIP3    H125925   0.635   6.607   7.502  1.5143  0.5662  0.3672
 1430TIP3    H225926   0.696   6.728   7.435 -0.5378  0.3114 -2.0824
 1431TIP3   OH225927   1.889   5.900   7.292  0.2113  0.1688  0.2927
 1431TIP3    H125928   1.933   5.964   7.348  0.6971  0.5095 -0.4527
 1431TIP3    H225929   1.922   5.919   7.204 -2.3789  1.3115 -0.5371
 1432TIP3   OH225930   6.177   6.845   6.821 -0.2174 -0.5386 -0.0732
 1432TIP3    H125931   6.252   6.850   6.880 -0.0257 -1.0947 -0.2633
 1432TIP3    H225932   6.214   6.845   6.733 -0.2662 -2.8174 -0.1604
 1433TIP3   OH225933   5.609   0.505   6.531  0.2423 -0.3351  0.0811
 1433TIP3    H125934   5.549   0.579   6.524 -0.4140 -0.7250  1.2395
 1433TIP3    H225935   5.557   0.435   6.570  0.9847 -1.2542 -0.5277
 1434TIP3   OH225936   6.241   3.649   0.985  0.5673 -0.1310  0.2098
 1434TIP3    H125937   6.200   3.688   0.908 -1.2393 -0.0689  1.1431
 1434TIP3    H225938   6.318   3.703   1.002 -0.5847  1.6202  0.0945
 1435TIP3   OH225939   2.266   2.187   1.715  0.2090 -0.1998 -0.0160
 1435TIP3    H125940   2.297   2.277   1.727  1.4117 -0.7060  0.9575
 1435TIP3    H225941   2.344   2.138   1.688  0.6687 -1.7088  3.4057
 1436TIP3   OH225942   0.914   2.490   1.697 -0.5110  0.5211  0.2812
 1436TIP3    H125943   0.827   2.528   1.713 -0.1439  1.0699  0.9963
 1436TIP3    H225944   0.973   2.565   1.692 -0.0503  0.1426 -0.0855
 1437TIP3   OH225945   2.819   0.526   0.528 -0.2635  0.0502  0.1858
 1437TIP3    H125946   2.852   0.571   0.450  0.6164 -0.8976 -0.0158
 1437TIP3    H225947   2.838   0.585   0.601  4.0786 -1.3131  0.4142
 1438TIP3   OH225948   1.756   4.083   0.143  0.1098 -0.2163 -0.6353
 1438TIP3    H125949   1.717   4.170   0.151  1.0353  0.2393 -0.8742
 1438TIP3    H225950   1.682   4.024   0.137 -0.6189  0.3073  1.7876
 1439TIP3   OH225951   5.478   3.026   6.800 -0.1059 -0.5262  0.0917
 1439TIP3    H125952   5.554   3.024   6.859 -0.1307 -0.6409  0.1201
 1439TIP3    H225953   5.432   3.107   6.824 -1.0230 -1.3829  1.3931
 1440TIP3   OH225954   1.726   6.488   7.852 -0.0362  0.6530  0.0707
 1440TIP3    H125955   1.816   6.517   7.841  0.3287 -0.3878  0.1774
 1440TIP3    H225956   1.694   6.476   7.762 -0.2718  1.5905  0.0206
 1441TIP3   OH225957   2.503   1.951   0.559  0.2604 -0.1830  0.0742
 1441TIP3    H125958   2.468   2.038   0.542 -1.0300 -0.6828  0.0787
 1441TIP3    H225959   2.479   1.933   0.650  1.1407 -0.2737  0.3022
 1442TIP3   OH225960   2.530   0.722   6.008 -0.4043  0.6694 -0.2747
 1442TIP3    H125961   2.523   0.782   5.934 -1.2928  0.1655 -0.6103
 1442TIP3    H225962   2.536   0.635   5.968 -1.5051  0.3412  0.2382
 1443TIP3   OH225963   5.043   0.402   6.665  0.0590 -0.1846 -0.0200
 1443TIP3    H125964   5.047   0.490   6.628 -1.2231 -0.1379 -0.0953
 1443TIP3    H225965   4.952   0.391   6.692  0.0702 -1.6639 -0.4748
 1444TIP3   OH225966   0.059   5.938   0.465  0.5899 -0.2078 -0.3797
 1444TIP3    H125967   0.139   5.976   0.428  0.8813  0.5703  0.9920
 1444TIP3    H225968   0.077   5.930   0.559 -0.8513 -0.2553 -0.0893
 1445TIP3   OH225969   5.578   2.850   0.446 -0.1501 -0.6903 -0.1721
 1445TIP3    H125970   5.540   2.815   0.527 -0.8359 -1.0451 -0.6430
 1445TIP3    H225971   5.534   2.934   0.433  1.2371  0.2247  0.7620
 1446TIP3   OH225972   6.218   0.939   7.587 -0.0379  0.2490 -0.4368
 1446TIP3    H125973   6.181   0.994   7.655  1.3290 -0.7738  1.2118
 1446TIP3    H225974   6.180   0.853   7.602  1.3417 -0.3217 -0.0107
 1447TIP3   OH225975   3.728   2.711   7.353  0.0983 -0.0863 -0.8242
 1447TIP3    H125976   3.747   2.801   7.378 -0.6676 -0.3396  0.8208
 1447TIP3    H225977   3.789   2.658   7.406 -0.1237 -0.5651 -1.0410
 1448TIP3   OH225978   5.177   5.907   6.718  0.6405  0.2920 -0.5514
 1448TIP3    H125979   5.088   5.911   6.681  0.5592 -2.0842 -0.8002
 1448TIP3    H225980   5.168   5.848   6.793  1.5238  2.1669  1.1118
 1449TIP3   OH225981   2.902   4.763   6.603  0.5994  0.5229 -0.1518
 1449TIP3    H125982   2.821   4.806   6.576  1.3302  0.9338 -1.8748
 1449TIP3    H225983   2.957   4.833   6.637  0.4006  0.3133  0.6205
 1450TIP3   OH225984   5.796   3.239   6.903 -0.0770 -0.1747 -0.1192
 1450TIP3    H125985   5.801   3.285   6.987 -2.5430 -1.6153  0.9007
 1450TIP3    H225986   5.808   3.309   6.838 -1.1002  1.5058  1.3885
 1451TIP3   OH225987   3.143   6.059   0.309 -0.7812  0.1101 -0.1060
 1451TIP3    H125988   3.150   5.966   0.333  0.6488 -0.1069 -1.2496
 1451TIP3    H225989   3.173   6.106   0.387 -1.0585 -0.3902  0.3141
 1452TIP3   OH225990   1.599   0.756   0.580  0.1366  0.0070  0.4356
 1452TIP3    H125991   1.583   0.708   0.661  1.6438  0.6358  1.1346
 1452TIP3    H225992   1.520   0.740   0.527 -0.6543 -0.8251  1.8022
 1453TIP3   OH225993   5.626   4.554   7.604  0.0428 -0.1134  0.4879
 1453TIP3    H125994   5.643   4.546   7.511  1.6841 -0.0004  0.7425
 1453TIP3    H225995   5.670   4.636   7.629 -0.1829 -0.2551  1.3920
 1454TIP3   OH225996   5.408   6.211   6.337 -0.2355  0.5106  0.7587
 1454TIP3    H125997   5.499   6.221   6.364  0.2462 -0.5106 -0.3794
 1454TIP3    H225998   5.368   6.160   6.408  0.2109  0.4949  1.0027
 1455TIP3   OH225999   0.380   5.704   6.284 -0.5929  0.4485 -0.4062
 1455TIP3    H126000   0.384   5.689   6.379 -0.0402  0.9607 -0.3382
 1455TIP3    H226001   0.404   5.796   6.274  0.6435  0.0763 -1.1338
 1456TIP3   OH226002   3.575   4.023   5.986 -0.2275 -0.0963 -1.0676
 1456TIP3    H126003   3.532   4.057   5.907 -0.7156  0.9357 -0.3948
 1456TIP3    H226004   3.516   4.050   6.058  0.5515 -0.4041 -0.2998
 1457TIP3   OH226005   4.201   2.099   7.186  0.4706  0.2110 -0.0844
 1457TIP3    H126006   4.202   2.167   7.118  1.3413  2.1124  1.6911
 1457TIP3    H226007   4.201   2.148   7.268  1.6556 -1.9623  1.3142
 1458TIP3   OH226008   2.610   3.228   1.015 -0.2287  0.7805  0.1581
 1458TIP3    H126009   2.657   3.148   0.991  1.2349  1.6585  0.0363
 1458TIP3    H226010   2.623   3.236   1.110  1.5750  2.0643 -0.1641
 1459TIP3   OH226011   3.300   1.966   0.761 -0.2525 -1.1576  0.5156
 1459TIP3    H126012   3.255   2.019   0.695  2.2557 -0.0400 -0.4279
 1459TIP3    H226013   3.250   1.981   0.842 -0.8388  1.0043 -0.1866
 1460TIP3   OH226014   0.314   5.084   6.619 -0.4308 -0.2407 -0.2447
 1460TIP3    H126015   0.379   5.129   6.566 -1.2557  0.6106 -0.5658
 1460TIP3    H226016   0.335   5.108   6.709 -1.5496  1.8076 -0.4667
 1461TIP3   OH226017   5.866   1.646   7.714  0.0959  0.0097 -0.9089
 1461TIP3    H126018   5.885   1.723   7.768 -1.6113  0.5899 -1.0716
 1461TIP3    H226019   5.934   1.648   7.646  1.9917 -0.4680  0.8738
 1462TIP3   OH226020   6.653   4.336   6.034  0.0535  0.9133  0.1003
 1462TIP3    H126021   6.685   4.422   6.060 -1.3583  2.1142 -1.8995
 1462TIP3    H226022   6.732   4.283   6.023  0.9080  1.6368  2.1747
 1463TIP3   OH226023   3.759   4.978   0.622 -0.3730 -0.1201 -0.3172
 1463TIP3    H126024   3.697   4.930   0.676  0.0905  1.2467  1.5302
 1463TIP3    H226025   3.834   4.919   0.612 -0.0461 -0.0494  1.4267
 1464TIP3   OH226026   5.535   5.667   0.908  0.2942  0.3122 -0.1368
 1464TIP3    H126027   5.501   5.680   0.820 -0.4818  0.6239  0.2069
 1464TIP3    H226028   5.539   5.572   0.919  0.5622  0.2729 -0.5679
 1465TIP3   OH226029   2.647   4.721   7.578 -0.1623  0.1883 -0.3306
 1465TIP3    H126030   2.687   4.634   7.587  0.4947  0.5765  0.6427
 1465TIP3    H226031   2.553   4.705   7.584 -0.0236 -0.3952  0.4771
 1466TIP3   OH226032   3.951   5.908   7.800  0.3838  0.0898  0.2246
 1466TIP3    H126033   3.973   5.826   7.756  0.1097 -0.9073  1.8760
 1466TIP3    H226034   3.967   5.891   7.893 -0.6926  1.5496  0.7201
 1467TIP3   OH226035   5.849   1.857   6.073 -0.9750  0.4249  0.1002
 1467TIP3    H126036   5.921   1.808   6.033 -0.4743  0.1085  1.3349
 1467TIP3    H226037   5.842   1.937   6.021 -1.5541 -0.7454 -1.7331
 1468TIP3   OH226038   2.196   7.098   6.219  0.0842  0.4639  0.2268
 1468TIP3    H126039   2.267   7.162   6.220  0.5386  0.0478 -1.3381
 1468TIP3    H226040   2.145   7.116   6.298  0.8701  1.9764  0.4208
 1469TIP3   OH226041   5.162   6.589   6.610  0.0378 -0.2502  0.1089
 1469TIP3    H126042   5.071   6.597   6.638  0.1301 -0.3290  0.4351
 1469TIP3    H226043   5.195   6.679   6.611 -0.1231 -0.1855 -0.3088
 1470TIP3   OH226044   5.019   3.637   0.311 -0.3705  0.1116 -0.3406
 1470TIP3    H126045   5.062   3.677   0.387 -1.1937  1.3761 -0.5070
 1470TIP3    H226046   4.982   3.711   0.263 -0.9006 -0.7726 -1.3356
 1471TIP3   OH226047   3.867   3.816   7.837 -0.6192  0.1083 -0.3983
 1471TIP3    H126048   3.900   3.744   7.783  0.3159  0.7160 -0.6540
 1471TIP3    H226049   3.777   3.790   7.859 -0.8195 -0.4163 -1.7599
 1472TIP3   OH226050   5.198   1.242   1.940  0.3246  0.6487 -0.1728
 1472TIP3    H126051   5.229   1.317   1.990 -1.6172  0.8543  0.8394
 1472TIP3    H226052   5.135   1.279   1.878  0.2278 -0.0019 -0.4723
 1473TIP3   OH226053   4.160   0.632   7.145  0.0442  0.1055  0.2950
 1473TIP3    H126054   4.237   0.677   7.179 -0.0640  0.3750  0.1861
 1473TIP3    H226055   4.152   0.662   7.055  0.1304 -0.3440  0.1368
 1474TIP3   OH226056   2.802   3.539   1.283 -0.2706 -0.4696 -0.6267
 1474TIP3    H126057   2.842   3.511   1.200  0.8851 -0.9305  0.0662
 1474TIP3    H226058   2.711   3.509   1.276 -0.2358 -0.3687 -1.7815
 1475TIP3   OH226059   1.348   0.893   0.669 -0.1369  0.1757 -0.2342
 1475TIP3    H126060   1.305   0.850   0.744 -0.6555  1.6650  0.3698
 1475TIP3    H226061   1.354   0.824   0.603 -2.6995 -0.3649 -0.0371
 1476TIP3   OH226062   0.025   5.457   0.498 -0.2668  0.3385 -0.2314
 1476TIP3    H126063   0.069   5.542   0.503 -1.1062  0.7793 -0.1157
 1476TIP3    H226064  -0.067   5.479   0.486 -0.8326 -0.4898  2.0672
 1477TIP3   OH226065   5.487   5.945   0.131 -0.3735  0.1598 -0.2242
 1477TIP3    H126066   5.566   5.995   0.150 -0.7611  1.0879 -0.9689
 1477TIP3    H226067   5.489   5.930   0.037  0.6605 -2.9004  0.1883
 1478TIP3   OH226068   0.974   2.981   7.342 -0.4572  0.2023 -0.3217
 1478TIP3    H126069   0.912   3.049   7.368  1.9133  2.0696  0.9866
 1478TIP3    H226070   0.961   2.911   7.406 -0.5061  1.0708  0.6608
 1479TIP3   OH226071   1.415   5.922   7.579  0.1595  0.3568 -0.7669
 1479TIP3    H126072   1.344   5.858   7.578 -1.0062  1.5779  0.5282
 1479TIP3    H226073   1.421   5.952   7.489 -1.7856  1.0671 -0.7076
 1480TIP3   OH226074   3.021   3.192   7.158 -0.1840 -0.3543  0.5133
 1480TIP3    H126075   3.102   3.223   7.199  0.4389  0.0605 -0.9319
 1480TIP3    H226076   2.962   3.267   7.163  0.4186  0.2283 -0.6523
 1481TIP3   OH226077   2.770   0.152   6.776 -0.4522 -0.3750 -0.2315
 1481TIP3    H126078   2.684   0.134   6.814 -0.1964 -0.3801  0.3605
 1481TIP3    H226079   2.817   0.199   6.845  0.1845 -0.7902 -0.3750
 1482TIP3   OH226080   5.364   7.193   6.269  0.1178 -0.1555  0.3462
 1482TIP3    H126081   5.395   7.162   6.184  1.2257 -0.2830  0.7790
 1482TIP3    H226082   5.269   7.185   6.265  0.1447  0.0984 -0.9761
 1483TIP3   OH226083   1.892   2.826   0.119 -0.3273  0.5550  0.4181
 1483TIP3    H126084   1.949   2.751   0.102  0.1284  0.7636  1.0157
 1483TIP3    H226085   1.836   2.831   0.041  0.0231 -0.0515  0.1189
 1484TIP3   OH226086   1.973   2.558   1.800  0.1236 -0.1033  0.3496
 1484TIP3    H126087   1.959   2.553   1.894  0.4037 -0.2334  0.3871
 1484TIP3    H226088   2.006   2.647   1.786  0.5353 -0.2394  0.4398
 1485TIP3   OH226089   1.729   4.291   1.563 -0.0533 -0.0652  0.0957
 1485TIP3    H126090   1.823   4.280   1.553 -0.1714  0.2942 -1.6753
 1485TIP3    H226091   1.698   4.319   1.477 -1.5189  1.7010  1.1158
 1486TIP3   OH226092   2.951   5.309   6.378 -0.0624 -1.0799 -0.4748
 1486TIP3    H126093   2.917   5.299   6.289 -0.7891  2.0303 -0.6535
 1486TIP3    H226094   3.030   5.362   6.368  0.0207 -0.9565  0.7102
 1487TIP3   OH226095   0.383   1.391   1.011  0.1434 -0.1327 -0.4312
 1487TIP3    H126096   0.476   1.396   0.991  0.3644  1.5301  0.7677
 1487TIP3    H226097   0.341   1.446   0.945  0.2376  0.5903  0.0927
 1488TIP3   OH226098   0.322   2.910   5.961 -0.2501 -0.7781 -0.3383
 1488TIP3    H126099   0.291   2.981   6.016  2.5568  0.3225  0.0074
 1488TIP3    H226100   0.245   2.855   5.946 -1.8935  0.8257  1.6676
 1489TIP3   OH226101   2.768   5.298   6.611 -0.3482  0.1020  0.1809
 1489TIP3    H126102   2.828   5.225   6.625 -2.4880 -2.1622 -1.4896
 1489TIP3    H226103   2.790   5.332   6.524 -0.9996 -0.3009 -0.1534
 1490TIP3   OH226104   6.922   6.588   6.138 -0.3815  0.8429  0.8527
 1490TIP3    H126105   6.897   6.623   6.052  0.7469  0.8727  0.5142
 1490TIP3    H226106   6.844   6.598   6.192 -0.6308  2.2620  0.2678
 1491TIP3   OH226107   5.838   0.419   0.394 -0.5091 -0.3345 -0.3185
 1491TIP3    H126108   5.892   0.407   0.316  0.2451  1.6948 -0.1861
 1491TIP3    H226109   5.836   0.333   0.437  2.7136 -0.5117 -0.2914
 1492TIP3   OH226110   4.050   2.671   2.246  0.9275  0.6884 -0.8780
 1492TIP3    H126111   4.108   2.743   2.223  1.6676  0.4527  0.1532
 1492TIP3    H226112   4.107   2.607   2.289  0.1287 -0.1212 -0.9906
 1493TIP3   OH226113   6.747   6.449   6.993 -0.4671 -1.0453  0.6354
 1493TIP3    H126114   6.805   6.457   7.069 -0.9934  0.1461  0.9434
 1493TIP3    H226115   6.672   6.505   7.014 -0.5690 -0.5941 -0.8100
 1494TIP3   OH226116   2.913   2.898   0.609  0.3177 -0.0446  0.1662
 1494TIP3    H126117   2.830   2.921   0.651  0.4450  1.8426 -0.5253
 1494TIP3    H226118   2.979   2.909   0.678  0.1603 -0.0610  0.3191
 1495TIP3   OH226119   6.286   7.002   6.356 -0.2055  0.0328  0.3108
 1495TIP3    H126120   6.338   6.983   6.278 -0.9347  0.3767 -0.2772
 1495TIP3    H226121   6.252   7.090   6.341  1.2353  0.9252  1.9231
 1496TIP3   OH226122   5.736   4.072   0.972 -0.3251 -0.4494  0.4156
 1496TIP3    H126123   5.735   4.127   0.894 -0.0153  0.5779  1.1163
 1496TIP3    H226124   5.654   4.093   1.017 -0.0866 -0.3752  0.8145
 1497TIP3   OH226125   6.625   1.589   1.954 -0.2616  0.0538 -0.9257
 1497TIP3    H126126   6.684   1.577   2.028 -1.3059 -0.2687 -0.1236
 1497TIP3    H226127   6.649   1.674   1.917 -1.6886  1.6698  1.6349
 1498TIP3   OH226128   2.047   4.512   6.324  0.2138 -0.5327 -0.3944
 1498TIP3    H126129   1.963   4.552   6.303 -0.2807 -2.3392 -2.1176
 1498TIP3    H226130   2.098   4.518   6.243  1.3846 -0.3849  0.3225
 1499TIP3   OH226131   5.696   5.545   5.627  0.7006 -0.1327  0.0696
 1499TIP3    H126132   5.664   5.634   5.615 -0.0151 -0.0976  2.0024
 1499TIP3    H226133   5.621   5.490   5.602  0.8104 -0.1866 -0.1490
 1500TIP3   OH226134   1.696   1.667   6.246  0.5365  0.1704  0.6528
 1500TIP3    H126135   1.699   1.587   6.298  1.1062 -1.1673 -1.3547
 1500TIP3    H226136   1.609   1.667   6.208  1.0717 -0.3668 -0.6167
 1501TIP3   OH226137   0.662   0.591   6.213  0.3132 -0.2570  0.2263
 1501TIP3    H126138   0.670   0.589   6.118  0.3289  3.3756  0.0068
 1501TIP3    H226139   0.733   0.535   6.244  2.1471  0.7208 -1.9202
 1502TIP3   OH226140   3.905   3.820   2.008 -0.0236 -0.3887 -0.2384
 1502TIP3    H126141   3.964   3.821   2.083  0.6490 -0.3265 -0.7624
 1502TIP3    H226142   3.907   3.910   1.975 -2.2660  0.2561  1.1535
 1503TIP3   OH226143   2.586   5.760   1.571  0.3898  0.0192 -0.5213
 1503TIP3    H126144   2.677   5.789   1.577  0.3642 -0.1221  0.9463
 1503TIP3    H226145   2.566   5.727   1.659 -0.4700 -1.7720 -1.3393
 1504TIP3   OH226146   6.116   4.396   0.731  0.1608  0.6212  0.3408
 1504TIP3    H126147   6.058   4.321   0.725 -0.7286  1.0779  2.3904
 1504TIP3    H226148   6.076   4.462   0.674  0.2963 -0.0266 -0.5257
 1505TIP3   OH226149   5.258   3.083   0.664 -0.2779 -0.0129 -0.0909
 1505TIP3    H126150   5.333   3.142   0.673 -0.5127  0.1921  0.5748
 1505TIP3    H226151   5.206   3.121   0.593 -0.6579  0.8489  0.6188
 1506TIP3   OH226152   5.237   2.497   6.211 -0.2409  0.0294  0.0300
 1506TIP3    H126153   5.244   2.411   6.170 -1.9080  0.5306 -1.4412
 1506TIP3    H226154   5.237   2.558   6.137  0.1993  1.2600  1.0072
 1507TIP3   OH226155   2.259   6.160   1.808  0.1986 -0.0266  0.2001
 1507TIP3    H126156   2.348   6.127   1.792 -0.0169 -0.4790 -0.1025
 1507TIP3    H226157   2.213   6.085   1.845 -0.3613 -0.1351 -0.6950
 1508TIP3   OH226158   6.741   5.843   7.087 -0.3212 -0.1871 -0.5708
 1508TIP3    H126159   6.760   5.918   7.030 -0.6483  1.1088  0.9678
 1508TIP3    H226160   6.823   5.795   7.091  1.4935  2.7219  2.1525
 1509TIP3   OH226161   0.259   1.552   6.822 -0.3856  0.1852  0.7713
 1509TIP3    H126162   0.172   1.514   6.830 -0.5736  0.1686 -0.8882
 1509TIP3    H226163   0.293   1.554   6.911 -1.7255 -0.6424  1.3352
 1510TIP3   OH226164   1.520   1.041   6.578  0.0547 -0.2610  0.0420
 1510TIP3    H126165   1.541   0.953   6.547  1.8767  0.6899 -1.6726
 1510TIP3    H226166   1.493   1.088   6.499 -0.3750  0.8656  0.8309
 1511TIP3   OH226167   6.286   3.052   1.016  0.0332  0.2956  0.2724
 1511TIP3    H126168   6.246   2.982   0.964 -0.8836 -0.4714  1.9428
 1511TIP3    H226169   6.248   3.132   0.980  0.1188 -0.1329 -0.8289
 1512TIP3   OH226170   2.340   3.328   1.080 -0.2406  0.2446 -0.4963
 1512TIP3    H126171   2.414   3.278   1.046 -2.0420 -1.6047 -1.9607
 1512TIP3    H226172   2.284   3.345   1.004 -0.5836  3.0691  0.2650
 1513TIP3   OH226173   2.885   3.815   0.568  0.5044 -0.3431  0.1849
 1513TIP3    H126174   2.834   3.891   0.540  1.7365  0.7971  0.9504
 1513TIP3    H226175   2.846   3.742   0.519 -0.9296  0.6942 -0.3157
 1514TIP3   OH226176   0.729   3.324   7.871  0.0726 -0.2188 -0.4197
 1514TIP3    H126177   0.715   3.288   7.959  1.5533 -2.1205 -0.8881
 1514TIP3    H226178   0.796   3.391   7.883  0.0147 -0.2204 -0.0608
 1515TIP3   OH226179   2.564   1.466   6.435 -0.8619 -0.2511  0.0736
 1515TIP3    H126180   2.577   1.560   6.422  0.7578 -0.2551  1.3322
 1515TIP3    H226181   2.481   1.459   6.483 -1.1850  0.4793 -0.3590
 1516TIP3   OH226182   4.053   3.708   0.326  0.4198 -0.4091  0.2379
 1516TIP3    H126183   4.093   3.765   0.260 -0.6926 -0.3827 -0.4432
 1516TIP3    H226184   4.010   3.768   0.386 -0.6740 -0.5034 -0.4276
 1517TIP3   OH226185   6.736   0.304   1.885 -0.3378  0.5017 -0.0209
 1517TIP3    H126186   6.708   0.233   1.942 -0.0006 -1.6934 -2.3982
 1517TIP3    H226187   6.655   0.336   1.845 -0.3522  0.5743  0.0649
 1518TIP3   OH226188   7.197   4.648   7.094 -0.0206  0.0196 -0.5637
 1518TIP3    H126189   7.176   4.727   7.143 -0.4108 -0.1993 -0.3648
 1518TIP3    H226190   7.137   4.582   7.130  0.1102 -0.2936 -0.9182
 1519TIP3   OH226191   6.926   2.386   7.942  0.3224  0.0997  0.0939
 1519TIP3    H126192   6.913   2.299   7.979  2.4295  0.1914  1.1881
 1519TIP3    H226193   6.903   2.376   7.849 -1.2643 -1.1026  0.5671
 1520TIP3   OH226194   4.918   6.565   1.508  0.3305 -0.3412 -0.8856
 1520TIP3    H126195   4.980   6.527   1.571  1.0395  1.2118 -0.6160
 1520TIP3    H226196   4.937   6.658   1.509 -2.3919  0.2865 -0.3930
 1521TIP3   OH226197   6.048   0.071   1.153 -0.6245 -0.4303  0.0613
 1521TIP3    H126198   6.074  -0.008   1.200 -1.9845 -0.9601 -0.0379
 1521TIP3    H226199   5.972   0.104   1.201  0.6191  1.5218  0.8161
 1522TIP3   OH226200   3.925   6.584   1.147 -0.4264 -0.6030 -0.3136
 1522TIP3    H126201   3.882   6.624   1.072 -2.2834 -0.2434  0.8834
 1522TIP3    H226202   4.018   6.598   1.132 -0.8785  2.0461 -1.1172
 1523TIP3   OH226203   5.174   1.002   2.064  0.3537  0.1599  0.3152
 1523TIP3    H126204   5.167   1.082   2.012  1.0298  0.1157  0.1473
 1523TIP3    H226205   5.228   1.026   2.139 -0.2376  0.1018  0.7731
 1524TIP3   OH226206   1.438   5.878   7.853 -0.0008 -0.2484 -0.1774
 1524TIP3    H126207   1.350   5.908   7.876 -0.0836 -0.9399  0.4503
 1524TIP3    H226208   1.441   5.885   7.757 -0.5123  0.3785 -0.1564
 1525TIP3   OH226209   4.776   4.552   6.890  0.4727  0.2282  0.7933
 1525TIP3    H126210   4.829   4.621   6.849  0.7089 -0.4658 -0.0910
 1525TIP3    H226211   4.780   4.479   6.829 -0.8969 -0.1004  1.0730
 1526TIP3   OH226212   6.708   0.534   1.612 -0.3272 -0.0800  0.1043
 1526TIP3    H126213   6.664   0.541   1.696 -0.4495  0.3958  0.0017
 1526TIP3    H226214   6.681   0.612   1.563  1.1793  0.6186  0.3075
 1527TIP3   OH226215   3.135   0.228   0.226 -0.8559  0.3636 -0.1067
 1527TIP3    H126216   3.085   0.297   0.184  1.1420  0.8116 -1.8914
 1527TIP3    H226217   3.217   0.223   0.177 -0.6091 -2.7885  0.3942
 1528TIP3   OH226218   3.712   0.570   6.260 -0.3030  0.4210  0.0721
 1528TIP3    H126219   3.632   0.616   6.284 -0.2158  0.2363  0.7432
 1528TIP3    H226220   3.710   0.566   6.165 -2.5904 -2.1769  0.1068
 1529TIP3   OH226221   2.219   3.400   7.831  0.2248  0.2271  0.2183
 1529TIP3    H126222   2.250   3.486   7.804  1.9763 -0.0676  1.1309
 1529TIP3    H226223   2.228   3.401   7.927 -0.6940 -0.6172  0.3201
 1530TIP3   OH226224   7.133   3.934   6.673  0.2855  0.4204 -0.3381
 1530TIP3    H126225   7.099   3.968   6.756 -2.3630  0.1613 -1.2195
 1530TIP3    H226226   7.171   3.849   6.697 -1.5473 -0.2333  0.5164
 1531TIP3   OH226227   3.472   7.196   7.979  0.3216  0.5107 -0.2118
 1531TIP3    H126228   3.552   7.240   7.949 -0.2123  1.3490 -0.4282
 1531TIP3    H226229   3.475   7.205   8.075 -1.2530  3.7419 -0.3483
 1532TIP3   OH226230   4.069   6.146   1.803  0.1471  0.4509 -0.1057
 1532TIP3    H126231   4.030   6.218   1.852  1.4666  0.5202  0.8765
 1532TIP3    H226232   4.028   6.067   1.840  0.8724  0.5243  0.8889
 1533TIP3   OH226233   4.704   6.461   6.402 -0.1112  0.0967  0.2941
 1533TIP3    H126234   4.613   6.473   6.375  0.0371  0.2676 -0.1419
 1533TIP3    H226235   4.755   6.506   6.335  0.2509  1.2469  1.3038
 1534TIP3   OH226236   6.495   1.960   2.029  0.1296 -0.2088  0.2037
 1534TIP3    H126237   6.446   1.889   2.071  2.0050 -0.3157  2.3801
 1534TIP3    H226238   6.581   1.922   2.011  0.7910  1.1799  0.3485
 1535TIP3   OH226239   1.952   6.991   6.722  0.1553 -0.2520 -0.2833
 1535TIP3    H126240   1.879   6.930   6.712 -0.3486  0.4894 -1.3370
 1535TIP3    H226241   1.948   7.019   6.814 -1.2413  0.1951 -0.4569
 1536TIP3   OH226242   1.867   4.503   1.365  0.1976 -0.1097  0.7813
 1536TIP3    H126243   1.873   4.500   1.270  2.2851  1.9663  0.7652
 1536TIP3    H226244   1.855   4.595   1.386  0.2161 -0.4659  2.5443
 1537TIP3   OH226245   6.496   7.069   0.390  0.2040 -0.1222  0.4553
 1537TIP3    H126246   6.570   7.027   0.347  0.2465  0.0492  0.3600
 1537TIP3    H226247   6.457   7.000   0.444  0.6903 -0.1008  0.8435
 1538TIP3   OH226248   3.162   2.439   0.232 -0.6670  0.2437  0.0387
 1538TIP3    H126249   3.088   2.440   0.292 -1.3123  0.8325 -0.7496
 1538TIP3    H226250   3.123   2.430   0.145  0.3242 -2.5432 -0.2203
 1539TIP3   OH226251   6.751   4.907   1.170 -0.0213  0.0119  0.2900
 1539TIP3    H126252   6.802   4.843   1.122 -1.7762 -1.5798  0.4381
 1539TIP3    H226253   6.775   4.894   1.262  0.1631  0.0649  0.2484
 1540TIP3   OH226254   0.447   1.747   0.765 -0.0392 -0.2696  0.3550
 1540TIP3    H126255   0.407   1.673   0.719  1.3196 -0.2855 -0.8690
 1540TIP3    H226256   0.396   1.755   0.846 -2.1497 -0.6064 -0.8607
 1541TIP3   OH226257   6.649   2.003   6.569 -0.4868  0.5963  0.0501
 1541TIP3    H126258   6.726   1.958   6.533  0.0321  1.3755  0.1619
 1541TIP3    H226259   6.602   2.035   6.492 -0.2206  0.8934  0.0102
 1542TIP3   OH226260   7.000   5.389   0.217  0.3267  0.0461 -0.2241
 1542TIP3    H126261   6.957   5.307   0.192 -0.8622  0.3041  0.8507
 1542TIP3    H226262   6.963   5.409   0.303 -0.7294  2.5982 -1.1880
 1543TIP3   OH226263   3.570   2.604   0.795 -0.5173  0.6865  0.4380
 1543TIP3    H126264   3.651   2.647   0.823 -0.7680  0.9446  0.7778
 1543TIP3    H226265   3.514   2.676   0.765  0.2599  0.3196 -2.1181
 1544TIP3   OH226266   6.649   3.040   1.450  0.2610  0.0367 -0.2485
 1544TIP3    H126267   6.678   2.972   1.509 -0.5045 -0.2712 -0.2141
 1544TIP3    H226268   6.594   3.097   1.504  0.6530  0.5169 -0.3467
 1545TIP3   OH226269   4.235   4.841   6.609  0.0848 -0.3751  0.4607
 1545TIP3    H126270   4.186   4.921   6.592  0.3034 -0.6291 -1.6898
 1545TIP3    H226271   4.226   4.826   6.703 -3.0678  0.1703  0.3620
 1546TIP3   OH226272   1.085   5.518   0.678 -0.6042  0.7345  0.2928
 1546TIP3    H126273   1.099   5.485   0.766 -0.7976 -0.2268 -0.0242
 1546TIP3    H226274   0.999   5.484   0.653  0.3379 -0.7982 -1.0423
 1547TIP3   OH226275   7.182   2.015   1.462  0.4066  0.2250 -0.1784
 1547TIP3    H126276   7.171   1.957   1.387 -0.5778  1.3510 -0.9584
 1547TIP3    H226277   7.100   2.008   1.511  1.1679 -0.7577  1.0231
 1548TIP3   OH226278   6.749   3.501   5.860  0.0360 -0.4326 -0.2383
 1548TIP3    H126279   6.783   3.574   5.808 -0.8848 -0.2441 -0.6036
 1548TIP3    H226280   6.669   3.535   5.900  0.6640 -0.6153  1.2464
 1549TIP3   OH226281   3.959   1.047   0.993 -0.5627 -0.3250  0.7982
 1549TIP3    H126282   3.910   0.978   0.948 -1.6393 -0.0325  1.4755
 1549TIP3    H226283   3.987   1.006   1.075 -1.0282 -0.0229  1.1096
 1550TIP3   OH226284   5.405   0.105   7.507  0.3715 -0.1341  0.2850
 1550TIP3    H126285   5.312   0.114   7.488  0.5235 -1.0356 -1.0488
 1550TIP3    H226286   5.409   0.047   7.583 -0.1505 -0.1547  0.3001
 1551TIP3   OH226287   0.818   6.108   0.349 -0.6801  0.0470 -0.3950
 1551TIP3    H126288   0.895   6.095   0.405  0.4943  0.4203 -1.8549
 1551TIP3    H226289   0.849   6.086   0.261 -1.8116  1.6432 -1.2404
 1552TIP3   OH226290   0.917   4.083   6.105  0.2290 -0.0618 -0.7329
 1552TIP3    H126291   0.879   4.001   6.075 -0.0739  0.4657 -1.8579
 1552TIP3    H226292   0.860   4.111   6.177 -0.0777 -0.4994 -0.8049
 1553TIP3   OH226293   5.633   1.560   0.848  0.0442  0.5914 -0.5708
 1553TIP3    H126294   5.556   1.507   0.827 -0.6512  1.7459 -1.0097
 1553TIP3    H226295   5.597   1.642   0.881  1.0943  0.2959  1.5140
 1554TIP3   OH226296   6.325   0.968   6.324 -0.1411  0.0686 -0.1159
 1554TIP3    H126297   6.255   0.904   6.327  0.4563 -0.6536 -1.1543
 1554TIP3    H226298   6.380   0.941   6.251 -0.2594  2.1580 -1.0517
 1555TIP3   OH226299   4.114   2.233   6.955  0.5357  0.0365  0.3493
 1555TIP3    H126300   4.080   2.300   7.015 -0.3613  2.1205 -2.2678
 1555TIP3    H226301   4.037   2.205   6.905  1.3674 -1.0360 -0.3675
 1556TIP3   OH226302   5.849   6.443   0.062  0.2039 -0.3584 -0.0067
 1556TIP3    H126303   5.788   6.409  -0.003  0.1419 -0.6681  0.2123
 1556TIP3    H226304   5.935   6.432   0.021  0.0531  1.3032 -0.8762
 1557TIP3   OH226305   5.721   3.885   1.311 -0.3266 -0.2214 -0.3807
 1557TIP3    H126306   5.751   3.868   1.221 -0.1373  0.7573 -0.5239
 1557TIP3    H226307   5.653   3.820   1.327  0.1377 -0.8707 -0.9749
 1558TIP3   OH226308   6.374   0.473   5.966 -0.1449 -0.0191  0.3742
 1558TIP3    H126309   6.376   0.566   5.992 -0.2275  0.1141 -0.0873
 1558TIP3    H226310   6.345   0.475   5.875  1.5193 -0.3897 -0.1914
 1559TIP3   OH226311   0.156   0.643   6.161  0.4674 -0.6878  0.1051
 1559TIP3    H126312   0.213   0.719   6.149 -1.3704  0.5837 -1.1689
 1559TIP3    H226313   0.130   0.647   6.253  0.2856  0.3477  0.0289
 1560TIP3   OH226314   4.772   5.768   0.460 -0.3536  0.3726  0.8183
 1560TIP3    H126315   4.690   5.752   0.413  0.3728  1.3019 -0.8536
 1560TIP3    H226316   4.804   5.681   0.482 -2.2623 -0.0000  2.4417
 1561TIP3   OH226317   1.783   5.836   0.439  0.0362 -0.7221 -0.1899
 1561TIP3    H126318   1.854   5.892   0.470 -0.3754 -1.0218  1.4235
 1561TIP3    H226319   1.790   5.757   0.493 -1.5716 -0.6931  0.1222
 1562TIP3   OH226320   3.219   2.540   6.392 -0.1789 -0.6319 -0.0279
 1562TIP3    H126321   3.135   2.587   6.386 -0.1758 -0.3134  1.8090
 1562TIP3    H226322   3.244   2.548   6.484  2.5599  0.4267 -0.8002
 1563TIP3   OH226323   2.116   2.408   7.904  0.1522  0.3411 -0.1217
 1563TIP3    H126324   2.074   2.322   7.907 -0.3299  0.6075  1.3054
 1563TIP3    H226325   2.175   2.409   7.979 -0.5785  1.6172  0.4691
 1564TIP3   OH226326   5.643   6.451   7.127  0.6724 -0.4402 -0.1822
 1564TIP3    H126327   5.651   6.378   7.188 -1.9494  1.1621  2.2893
 1564TIP3    H226328   5.691   6.522   7.169 -0.0302  0.3133 -0.6319
 1565TIP3   OH226329   5.161   4.353   0.093 -0.0798 -0.3739  0.3018
 1565TIP3    H126330   5.248   4.352   0.132  0.2317  0.5701 -0.3281
 1565TIP3    H226331   5.133   4.444   0.100 -0.4341 -0.3912 -0.7600
 1566TIP3   OH226332   0.126   5.234   7.760  0.4976  0.0415  0.5751
 1566TIP3    H126333   0.180   5.291   7.814 -1.2720  1.2516  1.1813
 1566TIP3    H226334   0.123   5.151   7.808 -0.0914  0.7266  1.7783
 1567TIP3   OH226335   2.505   2.207   5.793 -0.5104  0.4871 -0.0338
 1567TIP3    H126336   2.526   2.292   5.755 -0.8572  0.4269 -0.3628
 1567TIP3    H226337   2.410   2.205   5.798 -0.4630  0.8306  1.6065
 1568TIP3   OH226338   6.385   0.346   0.827  0.0422  0.3203 -0.1785
 1568TIP3    H126339   6.452   0.310   0.770 -0.4894 -0.7093 -0.1761
 1568TIP3    H226340   6.304   0.341   0.776  0.2381  3.5449 -1.0415
 1569TIP3   OH226341   5.669   0.290   0.699 -0.5586  0.1070  0.1792
 1569TIP3    H126342   5.618   0.285   0.618 -0.9317 -1.6437  0.4711
 1569TIP3    H226343   5.758   0.310   0.671 -0.8203  0.2090 -0.5958
 1570TIP3   OH226344   6.539   3.511   7.994 -0.1642 -0.5067 -0.4137
 1570TIP3    H126345   6.562   3.516   7.901  2.5102 -1.0276  0.1474
 1570TIP3    H226346   6.526   3.602   8.020  1.4591 -0.1232 -0.8046
 1571TIP3   OH226347   5.335   1.887   7.567 -0.3912  0.1562  0.2010
 1571TIP3    H126348   5.299   1.963   7.614 -1.0034  0.3809 -0.5996
 1571TIP3    H226349   5.262   1.825   7.563 -0.6219  0.4794 -1.1556
 1572TIP3   OH226350   4.297   4.234   7.291 -0.6140  0.2600 -0.1500
 1572TIP3    H126351   4.295   4.277   7.205 -2.0209  1.7599  0.5723
 1572TIP3    H226352   4.250   4.152   7.278 -0.0482  0.0660 -1.0089
 1573TIP3   OH226353   2.718   0.348   0.360  0.0119 -0.4212  0.2288
 1573TIP3    H126354   2.739   0.426   0.411  2.1094 -1.0063  0.3455
 1573TIP3    H226355   2.749   0.368   0.271  0.9861 -1.2511  0.3577
 1574TIP3   OH226356   6.975   7.081   6.570  0.2732  0.2172  0.3748
 1574TIP3    H126357   6.923   7.028   6.631  1.1391  0.3171  1.2125
 1574TIP3    H226358   7.061   7.039   6.569  0.3387  0.3555 -0.6053
 1575TIP3   OH226359   0.325   4.272   1.744  0.3802 -0.3381  0.0366
 1575TIP3    H126360   0.390   4.337   1.769  0.1117 -0.6585  1.7253
 1575TIP3    H226361   0.247   4.323   1.724  0.5861 -0.0573 -0.0543
 1576TIP3   OH226362   3.645   5.364   6.123 -0.1305 -0.2849 -0.1538
 1576TIP3    H126363   3.654   5.281   6.171 -0.9600 -0.2643  0.0633
 1576TIP3    H226364   3.705   5.424   6.168 -1.4268 -0.0556  1.3937
 1577TIP3   OH226365   2.166   3.378   0.868 -0.2795  0.1224  0.0656
 1577TIP3    H126366   2.230   3.389   0.797 -1.9310  3.7442 -1.1415
 1577TIP3    H226367   2.082   3.365   0.823 -1.0581  0.2790  1.4174
 1578TIP3   OH226368   5.274   3.133   5.918  0.0313 -0.1251 -0.5483
 1578TIP3    H126369   5.181   3.144   5.899 -0.4329 -1.3087  0.8501
 1578TIP3    H226370   5.284   3.039   5.934  1.0007  0.2699  1.4904
 1579TIP3   OH226371   2.195   0.215   5.736 -0.2113 -0.3549  0.3236
 1579TIP3    H126372   2.250   0.162   5.793  0.3144 -2.0368 -1.6302
 1579TIP3    H226373   2.127   0.156   5.705  0.3208  0.0793 -1.8290
 1580TIP3   OH226374   0.210   5.696   6.963  0.3096 -0.1921 -0.3033
 1580TIP3    H126375   0.135   5.667   7.014  0.5542 -0.0598  0.1287
 1580TIP3    H226376   0.206   5.644   6.883 -1.2211  0.9845 -1.0457
 1581TIP3   OH226377   6.142   1.174   0.581  0.6268 -0.0950  0.4964
 1581TIP3    H126378   6.199   1.172   0.505  0.4693  0.2184  0.3662
 1581TIP3    H226379   6.137   1.267   0.605  0.8043 -0.2072  0.9879
 1582TIP3   OH226380   6.465   6.556   5.814  0.0008 -0.1641 -0.0752
 1582TIP3    H126381   6.373   6.548   5.790 -0.0301  0.6033 -0.2367
 1582TIP3    H226382   6.510   6.574   5.731  0.5525 -2.2869 -0.2919
 1583TIP3   OH226383   1.973   1.630   6.132  0.5423 -0.1027 -0.1852
 1583TIP3    H126384   2.037   1.606   6.199  0.3054  0.2127  0.1575
 1583TIP3    H226385   1.889   1.628   6.178  0.4143  0.4432 -0.3946
 1584TIP3   OH226386   6.706   3.682   1.141  0.4084  0.7941 -0.2314
 1584TIP3    H126387   6.721   3.757   1.083 -0.4708  1.7689  0.7366
 1584TIP3    H226388   6.629   3.707   1.192  1.3757  0.1702  1.6389
 1585TIP3   OH226389   5.435   4.250   5.890  0.0863 -0.0893 -0.4514
 1585TIP3    H126390   5.402   4.204   5.968 -0.3053  0.5736 -0.2111
 1585TIP3    H226391   5.403   4.340   5.901  2.8001  0.8887  0.2927
 1586TIP3   OH226392   5.623   2.302   6.872 -0.5397 -0.5352  0.4047
 1586TIP3    H126393   5.544   2.271   6.827 -1.8841  1.1422  1.4987
 1586TIP3    H226394   5.598   2.387   6.909  0.7781 -1.3730  3.5259
 1587TIP3   OH226395   5.570   1.552   0.223 -0.1680  0.8421 -0.1774
 1587TIP3    H126396   5.642   1.549   0.161 -1.2303  2.0569 -1.5319
 1587TIP3    H226397   5.610   1.531   0.308  1.4987  0.1854 -1.0845
 1588TIP3   OH226398   2.360   1.756   0.154  0.0687 -0.3620  0.3479
 1588TIP3    H126399   2.364   1.850   0.136 -0.8351 -0.5412 -0.9983
 1588TIP3    H226400   2.353   1.749   0.249  0.7697  0.9014  0.5068
 1589TIP3   OH226401   2.504   1.338   1.045 -0.2893  0.3617  0.0654
 1589TIP3    H126402   2.460   1.255   1.026 -1.2556  0.9261 -0.1882
 1589TIP3    H226403   2.455   1.375   1.118  0.0367  0.7916  0.0688
 1590TIP3   OH226404   3.638   0.044   1.185 -0.8054 -0.8741  0.0183
 1590TIP3    H126405   3.675   0.099   1.254 -0.6888  3.2662 -2.9298
 1590TIP3    H226406   3.544   0.039   1.206 -0.6840 -0.1768  0.8003
 1591TIP3   OH226407   3.740   3.775   6.439  0.3814  0.2174 -0.4393
 1591TIP3    H126408   3.663   3.819   6.475 -0.4107 -1.7486  0.4236
 1591TIP3    H226409   3.734   3.789   6.344 -1.8768 -1.0798 -0.5523
 1592TIP3   OH226410   4.753   4.588   5.659  0.1080 -0.0010 -0.9113
 1592TIP3    H126411   4.677   4.529   5.657 -0.3539  0.5647 -0.4130
 1592TIP3    H226412   4.715   4.675   5.671  0.8041  0.3635 -1.3378
 1593TIP3   OH226413   1.677   3.653   1.568 -0.1311  0.0036 -0.0782
 1593TIP3    H126414   1.657   3.735   1.613 -0.6779  0.5337 -1.2448
 1593TIP3    H226415   1.699   3.592   1.638  1.1772  1.3781  0.7776
 1594TIP3   OH226416   6.445   3.079   6.729  0.6888 -0.3314  0.2579
 1594TIP3    H126417   6.510   3.016   6.758  1.6652  1.5786  2.6002
 1594TIP3    H226418   6.491   3.163   6.729 -1.3127  0.8388  0.2342
 1595TIP3   OH226419   1.000   2.245   1.552  0.2729 -0.1036  0.5812
 1595TIP3    H126420   0.964   2.328   1.584 -0.4929 -0.5341  0.8762
 1595TIP3    H226421   1.035   2.266   1.465  1.4741  0.8623  1.2548
 1596TIP3   OH226422   1.675   4.052   6.638 -0.2474 -0.6548  0.3134
 1596TIP3    H126423   1.687   4.144   6.663 -1.3336 -0.6886  1.0333
 1596TIP3    H226424   1.627   4.056   6.555  2.1388 -0.5629 -1.1413
 1597TIP3   OH226425   6.276   6.840   7.520  0.2370 -0.0633 -0.4740
 1597TIP3    H126426   6.218   6.915   7.530 -1.5720 -1.2747 -1.2292
 1597TIP3    H226427   6.276   6.798   7.606  1.2811  0.7973 -0.0416
 1598TIP3   OH226428   7.169   2.872   6.375 -0.5304  1.1006 -0.3278
 1598TIP3    H126429   7.164   2.895   6.282  0.4171  0.9464 -0.4243
 1598TIP3    H226430   7.090   2.909   6.413 -0.4098  2.0867 -1.0010
 1599TIP3   OH226431   2.322   2.165   0.480 -0.5517 -0.2522  0.0683
 1599TIP3    H126432   2.233   2.130   0.470 -1.6853  1.7163  2.1847
 1599TIP3    H226433   2.324   2.242   0.424  0.0101 -0.5480 -0.3298
 1600TIP3   OH226434   3.544   3.210   0.728 -0.0204 -0.4434 -0.1007
 1600TIP3    H126435   3.601   3.170   0.663 -2.6051 -1.5542 -1.8737
 1600TIP3    H226436   3.531   3.300   0.697  0.0096 -0.4804 -0.2195
 1601TIP3   OH226437   7.121   4.303   1.516 -0.9443 -0.3180  0.4552
 1601TIP3    H126438   7.184   4.238   1.547 -0.9131 -1.2900 -1.4406
 1601TIP3    H226439   7.174   4.377   1.487 -0.9764  0.5976  2.5798
 1602TIP3   OH226440   5.203   6.959   1.026  0.3983  0.3616  0.3233
 1602TIP3    H126441   5.291   6.975   0.993 -0.0825  0.3817 -1.0518
 1602TIP3    H226442   5.151   7.032   0.993 -0.6940 -1.0782 -1.3878
 1603TIP3   OH226443   5.225   4.441   7.720 -0.2816 -0.3961  0.0403
 1603TIP3    H126444   5.236   4.352   7.686 -0.2443 -0.1332 -0.6713
 1603TIP3    H226445   5.183   4.430   7.805 -1.1092 -1.0572 -0.4319
 1604TIP3   OH226446   4.750   6.544   7.286  0.1326  0.5293 -0.4705
 1604TIP3    H126447   4.822   6.547   7.223  0.8266 -0.1686  0.2454
 1604TIP3    H226448   4.703   6.626   7.274 -0.7188 -0.2395 -2.9661
 1605TIP3   OH226449   3.929   2.673   0.397 -0.3151 -0.3404  0.3573
 1605TIP3    H126450   3.881   2.630   0.468  0.8126 -0.4089  1.1036
 1605TIP3    H226451   4.014   2.629   0.395  0.8458  1.7145  1.0597
 1606TIP3   OH226452   2.129   4.401   7.122 -0.2043 -0.1861  0.1933
 1606TIP3    H126453   2.215   4.362   7.137 -0.0410 -0.1826 -0.7048
 1606TIP3    H226454   2.126   4.418   7.028 -1.0385  0.1685  0.2749
 1607TIP3   OH226455   4.342   1.638   1.535 -0.8540 -0.3673 -0.3223
 1607TIP3    H126456   4.286   1.561   1.534  1.6129 -2.3639  1.7021
 1607TIP3    H226457   4.287   1.707   1.574 -2.0683 -2.0848  1.1832
 1608TIP3   OH226458   5.431   0.857   6.738  0.3051 -0.0615  0.2232
 1608TIP3    H126459   5.460   0.766   6.752  1.5460  0.1020 -1.0423
 1608TIP3    H226460   5.380   0.853   6.657  2.3036  0.7014 -1.1386
 1609TIP3   OH226461   5.326   0.870   0.437  0.0933  0.6856  0.0060
 1609TIP3    H126462   5.309   0.897   0.528  1.7217 -0.2926  0.6386
 1609TIP3    H226463   5.420   0.880   0.426 -0.1449  1.2029 -1.7504
 1610TIP3   OH226464   2.836   2.438   1.595 -0.0457 -0.2176 -1.3277
 1610TIP3    H126465   2.753   2.483   1.613  0.3479  0.2327 -0.6049
 1610TIP3    H226466   2.903   2.503   1.615  0.5500 -1.2445  0.1660
 1611TIP3   OH226467   4.494   1.127   7.934 -0.2565  0.3868  0.0498
 1611TIP3    H126468   4.538   1.145   8.017 -2.9357 -0.3731  1.7806
 1611TIP3    H226469   4.403   1.156   7.948 -0.3473  2.3815 -3.4599
 1612TIP3   OH226470   4.566   0.528   6.186 -0.4257 -0.4312  0.0412
 1612TIP3    H126471   4.610   0.586   6.124 -1.5319  0.6343  0.1927
 1612TIP3    H226472   4.596   0.558   6.272 -1.1275  0.0647  0.1275
 1613TIP3   OH226473   2.372   6.183   7.118  0.0554  0.4857 -0.3038
 1613TIP3    H126474   2.338   6.181   7.029  0.9904  2.4349 -0.7656
 1613TIP3    H226475   2.340   6.266   7.154  1.1533  0.5703  0.5425
 1614TIP3   OH226476   4.218   6.025   7.879 -0.5994 -0.2340  0.0403
 1614TIP3    H126477   4.206   5.953   7.818 -1.4324  0.1525 -0.2660
 1614TIP3    H226478   4.271   5.988   7.950  0.0137 -0.8026 -0.6975
 1615TIP3   OH226479   3.651   2.865   1.508  0.3016  0.1441 -0.0677
 1615TIP3    H126480   3.624   2.830   1.423  1.6962 -1.2887  0.0289
 1615TIP3    H226481   3.572   2.858   1.562 -0.0695 -0.8520 -0.6907
 1616TIP3   OH226482   1.397   1.771   5.868 -0.3501  0.0172 -0.4871
 1616TIP3    H126483   1.334   1.835   5.835 -0.9296 -0.8163 -1.0378
 1616TIP3    H226484   1.382   1.694   5.814  0.8122 -0.3566 -0.2882
 1617TIP3   OH226485   1.835   1.439   6.775 -0.3078  0.3289 -0.0622
 1617TIP3    H126486   1.770   1.415   6.708 -0.4037  2.7690 -0.9492
 1617TIP3    H226487   1.784   1.444   6.856 -0.9283  0.6464 -0.4546
 1618TIP3   OH226488   6.212   6.526   5.698  0.6818  0.0834  0.1857
 1618TIP3    H126489   6.167   6.446   5.671 -0.2047  1.1379 -1.6626
 1618TIP3    H226490   6.184   6.592   5.634  0.3602  2.2219  2.4024
 1619TIP3   OH226491   0.571   5.996   7.095 -0.1528  0.4680 -0.2393
 1619TIP3    H126492   0.652   5.973   7.050 -0.5663  0.4823 -1.0260
 1619TIP3    H226493   0.523   5.913   7.101 -1.4384  0.9410 -2.6503
 1620TIP3   OH226494   2.623   6.993   7.193  0.2727  0.6227  0.4130
 1620TIP3    H126495   2.558   7.041   7.245 -1.2162  0.3222 -1.1050
 1620TIP3    H226496   2.686   7.060   7.164 -0.0354  1.1213  0.8800
 1621TIP3   OH226497   6.780   0.311   6.713  0.0992  0.4088 -0.1516
 1621TIP3    H126498   6.851   0.278   6.768 -0.9502  0.6022  1.3815
 1621TIP3    H226499   6.778   0.405   6.730  0.4869  0.6794 -1.4387
 1622TIP3   OH226500   6.290   3.292   0.400  0.4677  0.3452  0.3641
 1622TIP3    H126501   6.335   3.219   0.358 -0.7282  0.3618 -1.0215
 1622TIP3    H226502   6.208   3.301   0.351 -0.4361  1.1613  1.9520
 1623TIP3   OH226503   3.427   5.991   0.215 -0.1426  0.5275  0.2715
 1623TIP3    H126504   3.386   5.937   0.282 -0.8521  0.7732  0.0471
 1623TIP3    H226505   3.361   5.999   0.147  0.6739  0.0343 -0.6098
 1624TIP3   OH226506   1.246   6.371   0.996  0.0863  0.3118 -0.5259
 1624TIP3    H126507   1.246   6.432   1.069 -0.3332  0.6143 -0.7771
 1624TIP3    H226508   1.333   6.330   0.999 -0.1916 -0.2395  0.6052
 1625TIP3   OH226509   4.097   2.352   7.231  0.2489 -0.0377  0.0684
 1625TIP3    H126510   4.033   2.415   7.198  1.0061  0.3541 -0.6639
 1625TIP3    H226511   4.178   2.402   7.241  0.5847 -0.6469  0.5197
 1626TIP3   OH226512   6.682   2.025   5.719  0.1921  0.0506 -0.2031
 1626TIP3    H126513   6.671   1.930   5.711  1.7986 -0.3497  1.6092
 1626TIP3    H226514   6.763   2.044   5.673 -0.3723  0.6593 -0.9848
 1627TIP3   OH226515   4.234   1.749   1.132 -0.3633  0.6056 -0.1839
 1627TIP3    H126516   4.147   1.787   1.142  0.3836  3.0317 -1.9242
 1627TIP3    H226517   4.223   1.677   1.070 -1.1863  0.6094 -0.0454
 1628TIP3   OH226518   3.129   4.986   1.737  0.0369 -0.0062  0.3628
 1628TIP3    H126519   3.082   5.039   1.801 -0.2071 -0.7225  0.7841
 1628TIP3    H226520   3.191   5.047   1.697 -1.4277  1.0478 -0.4112
 1629TIP3   OH226521   5.662   2.947   7.465 -0.0620 -0.0600 -0.2363
 1629TIP3    H126522   5.589   2.951   7.527  0.6791 -1.9308  0.8738
 1629TIP3    H226523   5.647   2.866   7.416  0.7722  0.0032 -0.6170
 1630TIP3   OH226524   3.020   3.972   6.548 -0.4604 -0.1000  0.4275
 1630TIP3    H126525   3.052   3.939   6.464 -0.4520 -0.4934  0.5824
 1630TIP3    H226526   2.995   4.063   6.531  0.1826  0.0344  0.1632
 1631TIP3   OH226527   3.867   6.499   7.245  0.3423  0.0218  0.0302
 1631TIP3    H126528   3.814   6.425   7.276 -0.7931  1.3847  1.5260
 1631TIP3    H226529   3.911   6.466   7.167 -2.0046 -1.4860 -0.7629
 1632TIP3   OH226530   2.803   0.083   1.357 -0.6218 -0.5187 -0.3982
 1632TIP3    H126531   2.882   0.106   1.308  0.4095 -1.2074  0.8833
 1632TIP3    H226532   2.767   0.167   1.386 -0.3263 -0.2081 -0.9183
 1633TIP3   OH226533   0.150   2.201   6.452  0.4480 -0.2456  0.0531
 1633TIP3    H126534   0.203   2.215   6.373  1.1086 -0.0932  0.5188
 1633TIP3    H226535   0.114   2.113   6.440  1.4955 -0.7015  0.1159
 1634TIP3   OH226536   1.996   2.602   1.474  0.0540 -0.0898  0.6860
 1634TIP3    H126537   2.052   2.621   1.550  1.8661 -1.6402 -0.1709
 1634TIP3    H226538   1.929   2.542   1.508  0.1756  0.1139  1.2964
 1635TIP3   OH226539   5.788   1.858   0.412  0.5774 -0.3239  0.5130
 1635TIP3    H126540   5.786   1.792   0.481 -0.3487  1.0405  1.8543
 1635TIP3    H226541   5.711   1.840   0.358 -0.6090  0.6132  1.8439
 1636TIP3   OH226542   4.385   0.019   6.549 -0.1113 -0.0779  0.0332
 1636TIP3    H126543   4.334  -0.019   6.477 -1.2619  1.0695  0.2062
 1636TIP3    H226544   4.474   0.026   6.514 -0.1084 -1.7964 -0.4020
 1637TIP3   OH226545   6.800   5.243   1.491  0.1576  0.1270 -0.2540
 1637TIP3    H126546   6.749   5.168   1.524 -0.9781  0.6010 -0.8936
 1637TIP3    H226547   6.735   5.305   1.460  1.1308  0.2520 -2.2296
 1638TIP3   OH226548   4.749   2.329   2.302 -0.1796 -0.1331 -0.1978
 1638TIP3    H126549   4.744   2.235   2.284 -0.4050 -0.3098  0.7409
 1638TIP3    H226550   4.833   2.356   2.263  0.2487 -0.8784  0.1819
 1639TIP3   OH226551   0.225   6.872   0.606 -0.4614  0.1482 -0.3306
 1639TIP3    H126552   0.137   6.845   0.635 -0.4944  0.1159 -0.4620
 1639TIP3    H226553   0.284   6.816   0.656 -0.5588 -1.2037 -1.6501
 1640TIP3   OH226554   2.157   4.633   0.596 -0.1223 -0.9263  0.5534
 1640TIP3    H126555   2.159   4.671   0.508 -2.3081  0.4821  1.0101
 1640TIP3    H226556   2.247   4.606   0.613  0.3997 -1.0902 -2.0287
 1641TIP3   OH226557   4.658   6.473   7.855  0.1232  0.4866 -0.6140
 1641TIP3    H126558   4.582   6.446   7.803 -0.7260  2.0139 -0.2087
 1641TIP3    H226559   4.670   6.401   7.918 -2.1130  0.9967  0.4773
 1642TIP3   OH226560   6.725   7.051   0.198 -0.0908 -0.4816  0.1070
 1642TIP3    H126561   6.820   7.062   0.194 -0.2612  0.9448 -1.7512
 1642TIP3    H226562   6.709   6.964   0.163  0.4729  0.0023 -1.4508
 1643TIP3   OH226563   2.653   3.723   1.451  0.2115  0.2418 -0.0562
 1643TIP3    H126564   2.736   3.684   1.424  0.1409  0.2710 -0.3164
 1643TIP3    H226565   2.667   3.748   1.543 -0.0604 -1.2835  0.4259
 1644TIP3   OH226566   2.142   7.210   7.484  0.2023 -0.7730 -0.4595
 1644TIP3    H126567   2.217   7.266   7.507 -1.3709  1.2399  0.0946
 1644TIP3    H226568   2.132   7.153   7.560 -0.3124  0.6806  0.6318
 1645TIP3   OH226569   5.402   6.418   1.199  0.4599  0.0741  0.8296
 1645TIP3    H126570   5.475   6.481   1.202 -0.1570  0.9020 -0.6380
 1645TIP3    H226571   5.332   6.461   1.248 -0.4919  1.3311 -1.4581
 1646TIP3   OH226572   2.368   2.470   6.398  0.4058  0.1275 -0.2976
 1646TIP3    H126573   2.381   2.381   6.431  0.6579  0.3066  0.0951
 1646TIP3    H226574   2.358   2.459   6.304  0.4533 -0.3182 -0.2532
 1647TIP3   OH226575   2.398   1.391   6.773  0.2863 -0.8894  0.6411
 1647TIP3    H126576   2.393   1.337   6.852 -1.4847 -0.1325  1.0880
 1647TIP3    H226577   2.307   1.411   6.752  0.7869 -0.1143 -0.9494
 1648TIP3   OH226578   4.078   1.475   0.058 -0.2318  0.0528 -0.1448
 1648TIP3    H126579   3.994   1.435   0.082 -0.9475  2.6412  2.2238
 1648TIP3    H226580   4.058   1.568   0.048  2.2774  0.6833  0.1023
 1649TIP3   OH226581   4.972   3.251   7.359  0.1896  0.9413  0.4952
 1649TIP3    H126582   4.988   3.195   7.434 -2.3790 -2.4204 -1.2028
 1649TIP3    H226583   5.055   3.252   7.312  1.3428  1.7392  2.4172
 1650TIP3   OH226584   0.766   2.240   7.453  0.0950  0.9348  0.2539
 1650TIP3    H126585   0.805   2.325   7.474 -1.2729  1.1708  2.1854
 1650TIP3    H226586   0.671   2.256   7.457 -0.2476 -0.0708 -2.1910
 1651TIP3   OH226587   4.915   2.902   0.952 -0.4304  0.4883  0.4018
 1651TIP3    H126588   5.008   2.916   0.939 -0.0739 -2.0269 -0.3398
 1651TIP3    H226589   4.910   2.845   1.029 -1.4249  1.3113  0.9717
 1652TIP3   OH226590   3.620   0.444   7.128  0.0293  0.6510  0.0985
 1652TIP3    H126591   3.679   0.507   7.088 -0.0103 -0.8342 -2.5083
 1652TIP3    H226592   3.677   0.385   7.178  0.2441  1.6474  1.0701
 1653TIP3   OH226593   0.865   5.203   7.209  0.3125 -0.1569  0.1308
 1653TIP3    H126594   0.788   5.255   7.184 -0.4166 -2.1315 -2.0693
 1653TIP3    H226595   0.917   5.198   7.129  0.6131 -2.3077  0.4192
 1654TIP3   OH226596   0.611   5.011   0.782 -0.1141 -0.5465 -0.5366
 1654TIP3    H126597   0.679   5.061   0.826 -0.9229  0.5840 -0.5116
 1654TIP3    H226598   0.588   5.064   0.706 -0.0742 -1.5432 -1.2737
 1655TIP3   OH226599   4.975   1.928   6.246 -0.3935  0.0255  0.5760
 1655TIP3    H126600   5.039   1.871   6.203 -1.2866  0.4779 -1.4767
 1655TIP3    H226601   5.017   2.013   6.250 -1.3869  0.7995 -2.4694
 1656TIP3   OH226602   3.187   3.167   1.138  0.5725  0.1368 -0.4273
 1656TIP3    H126603   3.166   3.081   1.104  3.3386 -1.8978  2.4455
 1656TIP3    H226604   3.125   3.180   1.210  0.3014  0.5028 -0.7187
 1657TIP3   OH226605   3.979   2.815   1.776  0.4977  0.1657 -0.6776
 1657TIP3    H126606   3.991   2.877   1.848 -1.7498  0.0450 -0.1063
 1657TIP3    H226607   3.900   2.766   1.800 -1.0379  0.8904 -3.6943
 1658TIP3   OH226608   7.124   3.532   0.383  0.6481 -0.3634 -0.6250
 1658TIP3    H126609   7.118   3.607   0.444  0.6636 -0.7617 -0.1258
 1658TIP3    H226610   7.216   3.505   0.389  0.0407 -2.2743  1.4746
 1659TIP3   OH226611   1.149   1.374   0.664 -0.3635 -0.0134 -0.6638
 1659TIP3    H126612   1.196   1.301   0.623 -0.8650  0.4209 -2.0690
 1659TIP3    H226613   1.056   1.350   0.655 -0.4998  0.3250 -0.1977
 1660TIP3   OH226614   6.033   5.912   2.116  0.0049 -0.0547  0.1758
 1660TIP3    H126615   6.102   5.848   2.099  1.0987  1.1394  0.0004
 1660TIP3    H226616   5.957   5.859   2.140  1.1189 -1.3946  0.9124
 1661TIP3   OH226617   6.446   6.783   0.470  0.1028  0.1638 -0.2283
 1661TIP3    H126618   6.481   6.774   0.559  1.0020 -1.9893 -0.7258
 1661TIP3    H226619   6.352   6.770   0.479 -0.3060  3.0504  0.7420
 1662TIP3   OH226620   3.888   0.801   7.801  0.1525  0.5388 -0.1537
 1662TIP3    H126621   3.853   0.712   7.800  0.3703  0.4550 -0.2415
 1662TIP3    H226622   3.977   0.791   7.835  0.4922  0.6134 -1.0057
 1663TIP3   OH226623   1.529   4.276   7.156 -0.3438 -0.1168  0.2720
 1663TIP3    H126624   1.501   4.342   7.219 -1.7118 -2.6735  2.5655
 1663TIP3    H226625   1.617   4.305   7.129 -0.7630  2.4285  1.3216
 1664TIP3   OH226626   5.716   6.931   7.294 -0.8423  0.2404  0.1315
 1664TIP3    H126627   5.734   7.001   7.231 -1.3342  0.0254 -0.2614
 1664TIP3    H226628   5.716   6.975   7.380 -1.6500  0.8323 -0.1542
 1665TIP3   OH226629   3.008   0.896   6.642  0.3075 -0.0956  0.8013
 1665TIP3    H126630   2.968   0.862   6.562  3.7594 -1.7543 -0.4714
 1665TIP3    H226631   2.986   0.832   6.709 -1.5574  0.6278  0.9160
 1666TIP3   OH226632   0.278   6.580   5.916 -0.0517 -0.1085 -0.4607
 1666TIP3    H126633   0.223   6.655   5.891  1.4153  0.9984 -0.5325
 1666TIP3    H226634   0.338   6.569   5.843  0.0478 -1.0920 -0.2422
 1667TIP3   OH226635   4.182   4.922   6.256 -0.1558  0.1296 -0.4787
 1667TIP3    H126636   4.149   4.937   6.345 -2.1024 -0.3730 -1.0515
 1667TIP3    H226637   4.130   4.981   6.202  1.2957  0.7231 -1.2650
 1668TIP3   OH226638   1.233   2.632   7.010  0.6668 -0.1318  0.3585
 1668TIP3    H126639   1.175   2.643   7.085  1.1275 -3.3383  1.3605
 1668TIP3    H226640   1.175   2.633   6.934 -0.5291 -1.5335  1.1988
 1669TIP3   OH226641   5.588   2.800   1.217 -0.0737  0.5063 -0.0723
 1669TIP3    H126642   5.546   2.798   1.131 -0.0336 -1.1950 -0.0749
 1669TIP3    H226643   5.521   2.837   1.275 -0.7063  0.0928 -0.5219
 1670TIP3   OH226644   1.469   0.264   1.337 -0.3761  0.6045  0.2105
 1670TIP3    H126645   1.482   0.358   1.329 -0.3757  0.7944  2.0771
 1670TIP3    H226646   1.417   0.253   1.416 -0.8571 -0.9474 -0.2812
 1671TIP3   OH226647   2.658   6.128   6.331  0.1121 -0.3449 -0.0583
 1671TIP3    H126648   2.687   6.201   6.277  1.6304 -1.3781 -0.7219
 1671TIP3    H226649   2.700   6.144   6.416 -1.4532  0.7468  0.5412
 1672TIP3   OH226650   1.015   6.504   6.526  0.4603 -0.2420 -0.0562
 1672TIP3    H126651   0.950   6.474   6.463 -0.1901  1.2905 -0.1737
 1672TIP3    H226652   0.988   6.593   6.548  0.1903 -0.9522  3.0022
 1673TIP3   OH226653   4.687   2.774   0.275  0.5576  0.2525  0.2338
 1673TIP3    H126654   4.772   2.730   0.272  0.2526 -0.2789 -1.5427
 1673TIP3    H226655   4.637   2.735   0.203 -0.1480  2.6542 -0.6778
 1674TIP3   OH226656   0.049   0.053   7.370 -0.0148 -0.3404  0.1895
 1674TIP3    H126657  -0.004  -0.011   7.418 -1.4508  0.0760 -0.7851
 1674TIP3    H226658   0.127   0.064   7.424 -0.3103 -1.9556  1.0148
 1675TIP3   OH226659   0.523   2.497   0.594 -0.8297  0.1517  0.1536
 1675TIP3    H126660   0.603   2.515   0.644 -0.4274 -1.1916  0.0147
 1675TIP3    H226661   0.453   2.516   0.656 -0.3755  0.2153  0.6626
 1676TIP3   OH226662   1.120   6.643   6.231  0.1182 -0.1380 -0.3080
 1676TIP3    H126663   1.093   6.732   6.207 -0.1696 -0.0848  0.2102
 1676TIP3    H226664   1.073   6.587   6.170 -2.2631 -0.1456  1.3821
 1677TIP3   OH226665   5.964   0.852   7.134  0.5925  0.1148 -0.2373
 1677TIP3    H126666   5.974   0.909   7.058 -1.5836  0.2941 -0.4353
 1677TIP3    H226667   5.912   0.903   7.196  0.5768 -0.8018  0.5344
 1678TIP3   OH226668   1.387   2.711   0.986 -0.6770 -0.0322  0.9727
 1678TIP3    H126669   1.461   2.679   1.037  0.1175 -0.3894 -0.3377
 1678TIP3    H226670   1.427   2.762   0.915 -1.6214 -0.8932 -0.2250
 1679TIP3   OH226671   0.010   1.221   1.174 -0.4051  0.0880 -0.1448
 1679TIP3    H126672  -0.043   1.219   1.253 -0.4466  2.5663 -0.0289
 1679TIP3    H226673   0.078   1.286   1.193 -0.9192  1.3928 -2.3997
 1680TIP3   OH226674   4.430   2.855   7.411  0.4872  0.6358  0.4695
 1680TIP3    H126675   4.338   2.872   7.430  0.1988  0.5024 -0.6998
 1680TIP3    H226676   4.454   2.781   7.467 -0.8754 -1.0551 -1.0731
 1681TIP3   OH226677   6.499   1.813   7.153  0.1368  0.1654  0.7398
 1681TIP3    H126678   6.420   1.813   7.100 -0.2475  0.4415  1.3039
 1681TIP3    H226679   6.571   1.808   7.090 -0.0785  4.6395 -0.2099
 1682TIP3   OH226680   5.432   6.545   0.460  0.0331  0.5613  0.2197
 1682TIP3    H126681   5.495   6.474   0.475 -0.9479 -0.3125  0.3333
 1682TIP3    H226682   5.472   6.622   0.500  1.8773  0.4847 -1.3426
 1683TIP3   OH226683   6.660   0.104   2.027  0.3251  0.0048  0.2321
 1683TIP3    H126684   6.751   0.109   2.055 -0.3599  1.2608  2.5132
 1683TIP3    H226685   6.633   0.015   2.047  0.9709 -0.2841 -0.1767
 1684TIP3   OH226686   5.445   1.620   7.106 -0.1106  0.3143 -0.4178
 1684TIP3    H126687   5.392   1.671   7.167  0.9241  0.3799  0.4697
 1684TIP3    H226688   5.491   1.686   7.054  0.5398  0.2999  0.1195
 1685TIP3   OH226689   4.192   3.065   1.638 -0.0443 -0.8414  0.3620
 1685TIP3    H126690   4.171   2.972   1.644 -1.5869 -0.5324  0.2531
 1685TIP3    H226691   4.114   3.105   1.599  0.6513  0.4773  0.2438
 1686TIP3   OH226692   1.741   6.692   0.535  0.2591 -0.1861 -0.5729
 1686TIP3    H126693   1.794   6.770   0.519 -2.1576  1.5005 -0.7531
 1686TIP3    H226694   1.682   6.687   0.460 -2.7943  0.6093  1.6210
 1687TIP3   OH226695   5.738   5.702   7.141 -0.8566  0.2005 -0.2608
 1687TIP3    H126696   5.650   5.670   7.164 -0.1581 -1.0438  0.8246
 1687TIP3    H226697   5.794   5.669   7.211  0.2327  2.3913 -0.0014
 1688TIP3   OH226698   6.493   0.985   7.524  0.1439 -0.1526  0.1128
 1688TIP3    H126699   6.399   0.973   7.534  0.3004 -0.6998  1.0435
 1688TIP3    H226700   6.518   0.924   7.454  0.1466 -1.7163  1.4250
 1689TIP3   OH226701   5.541   3.421   5.540 -0.3885  0.0128 -0.4947
 1689TIP3    H126702   5.621   3.370   5.524 -0.9200 -1.2684  0.7119
 1689TIP3    H226703   5.479   3.388   5.475 -0.9595 -1.4876  0.7460
 1690TIP3   OH226704   6.189   5.743   1.741 -0.2816  0.1191  0.1688
 1690TIP3    H126705   6.275   5.702   1.730 -0.7988 -0.8920 -0.2678
 1690TIP3    H226706   6.206   5.837   1.737  0.8398 -0.0574  0.3951
 1691TIP3   OH226707   3.660   0.792   0.477 -0.1246  0.3834  0.4224
 1691TIP3    H126708   3.749   0.788   0.443  0.2952  0.0598  1.5153
 1691TIP3    H226709   3.611   0.839   0.410  0.2291 -1.7915 -1.5274
 1692TIP3   OH226710   6.450   5.343   1.119  0.4144 -0.3712  0.5817
 1692TIP3    H126711   6.506   5.399   1.064  0.1203 -0.5056  0.1359
 1692TIP3    H226712   6.366   5.388   1.120  0.3538 -0.4873  0.7411
 1693TIP3   OH226713   6.254   2.061   1.949  0.1695 -0.1861  0.6436
 1693TIP3    H126714   6.340   2.028   1.973  0.7573  1.6504  1.1325
 1693TIP3    H226715   6.200   2.045   2.026  0.9165  1.5785  1.5798
 1694TIP3   OH226716   5.265   2.429   7.525  0.1400 -0.6916  0.1121
 1694TIP3    H126717   5.298   2.499   7.468 -1.7138 -1.0205 -1.4581
 1694TIP3    H226718   5.339   2.370   7.535  1.4005  0.8776  0.5297
 1695TIP3   OH226719   1.655   5.401   7.051 -0.3249 -0.2941  0.4632
 1695TIP3    H126720   1.643   5.476   6.994 -2.5257 -0.8892  0.0383
 1695TIP3    H226721   1.739   5.363   7.024  1.8296  2.9615  1.9471
 1696TIP3   OH226722   1.490   1.124   1.497 -0.3617 -0.1208  0.0391
 1696TIP3    H126723   1.478   1.030   1.484  0.7215 -0.3879  0.7858
 1696TIP3    H226724   1.539   1.131   1.579 -0.3195  1.0966 -0.0623
 1697TIP3   OH226725   0.427   4.224   0.668  0.2298 -0.6934 -0.4637
 1697TIP3    H126726   0.474   4.156   0.619  1.9590 -0.1733  0.3863
 1697TIP3    H226727   0.417   4.186   0.756  0.4352 -0.1980 -0.2235
 1698TIP3   OH226728   0.128   4.294   0.976  0.1986 -0.2118 -0.0566
 1698TIP3    H126729   0.092   4.210   1.006  1.8551 -0.6465  0.8385
 1698TIP3    H226730   0.205   4.307   1.030  1.6139  0.4882 -2.1297
 1699TIP3   OH226731   1.619   1.895   6.065 -0.0663 -0.4502 -0.8849
 1699TIP3    H126732   1.527   1.901   6.040 -0.4512 -0.3131  0.4655
 1699TIP3    H226733   1.626   1.813   6.113  0.1328  0.2794  0.3980
 1700TIP3   OH226734   3.594   3.413   1.064  0.3428 -0.0101 -0.5194
 1700TIP3    H126735   3.514   3.456   1.034  0.0060 -0.8929 -0.8996
 1700TIP3    H226736   3.565   3.327   1.095  0.7747  0.5375  1.6264
 1701TIP3   OH226737   1.055   4.118   1.515 -0.8962  0.0909  0.3429
 1701TIP3    H126738   1.134   4.078   1.550 -1.3713 -0.5800  0.6791
 1701TIP3    H226739   1.070   4.212   1.521  1.3100  0.1047 -2.7649
 1702TIP3   OH226740   0.128   5.330   0.770 -0.4860  0.4115 -0.0312
 1702TIP3    H126741   0.119   5.377   0.688 -0.2030  0.7469  0.1295
 1702TIP3    H226742   0.044   5.285   0.781 -0.7603  0.8773 -0.1818
 1703TIP3   OH226743   4.891   0.856   5.890 -0.0159 -0.6199 -0.5947
 1703TIP3    H126744   4.985   0.869   5.877  0.5086 -0.3258  2.7173
 1703TIP3    H226745   4.852   0.942   5.875  0.1750 -0.7346 -1.9463
 1704TIP3   OH226746   1.495   2.642   7.077 -0.2645 -0.1108 -0.3892
 1704TIP3    H126747   1.401   2.630   7.069 -0.5542  1.3210  0.4821
 1704TIP3    H226748   1.526   2.652   6.987 -0.5101 -3.1363 -0.8958
 1705TIP3   OH226749   6.376   4.660   1.315 -0.1048  0.2104 -0.3009
 1705TIP3    H126750   6.334   4.746   1.312 -1.0876 -0.2652 -0.3140
 1705TIP3    H226751   6.327   4.611   1.381 -0.8110 -0.9811 -1.6364
 1706TIP3   OH226752   3.119   5.860   1.567  0.2521 -0.1809 -0.5639
 1706TIP3    H126753   3.134   5.779   1.615  0.0316 -0.7892 -1.4932
 1706TIP3    H226754   3.194   5.868   1.508  1.8611  1.8831  1.5597
 1707TIP3   OH226755   4.429   3.276   6.823 -0.1940  0.2201  0.0802
 1707TIP3    H126756   4.458   3.301   6.910 -0.6525 -1.3799  0.7332
 1707TIP3    H226757   4.333   3.276   6.828 -0.2202 -0.4470 -0.2336
 1708TIP3   OH226758   7.036   7.075   7.506  0.5995  0.2883 -0.0020
 1708TIP3    H126759   6.984   7.151   7.482 -1.5527 -0.2934  2.3845
 1708TIP3    H226760   7.093   7.105   7.577 -0.1585 -0.2592  0.8550
 1709TIP3   OH226761   3.817   0.181   1.988  0.0789 -0.2478  0.1858
 1709TIP3    H126762   3.844   0.156   2.076 -0.3087  0.3459  0.4874
 1709TIP3    H226763   3.778   0.102   1.951 -0.3481 -0.3297  0.7929
 1710TIP3   OH226764   3.035   5.613   6.386  0.1085 -0.0512 -0.1260
 1710TIP3    H126765   2.940   5.621   6.392  0.1651 -0.1893  1.2175
 1710TIP3    H226766   3.063   5.692   6.339 -0.5816  0.4819  0.3502
 1711TIP3   OH226767   1.948   4.948   0.599  0.5849 -0.0429 -0.0040
 1711TIP3    H126768   1.937   4.903   0.515  0.4570  1.4915 -0.8536
 1711TIP3    H226769   1.879   4.911   0.655 -1.6776  1.3250 -1.6882
 1712TIP3   OH226770   0.896   3.828   6.315  0.0779  0.2067  0.3468
 1712TIP3    H126771   0.862   3.814   6.227 -0.5558 -0.0464  0.6281
 1712TIP3    H226772   0.947   3.750   6.334 -0.7618 -0.2796  0.6530
 1713TIP3   OH226773   1.560   3.706   1.962  0.5024 -0.3912 -0.8547
 1713TIP3    H126774   1.533   3.640   1.899  1.1442 -0.8301 -0.6753
 1713TIP3    H226775   1.490   3.707   2.028  0.1848 -0.4380 -1.1914
 1714TIP3   OH226776   6.613   1.915   0.594 -0.0041 -0.0623  0.2157
 1714TIP3    H126777   6.583   2.002   0.566 -1.3733 -0.5804  0.0234
 1714TIP3    H226778   6.542   1.882   0.649  1.5904 -0.0515  2.3970
 1715TIP3   OH226779   5.237   3.285   7.222  0.4873  0.0047  0.4422
 1715TIP3    H126780   5.280   3.253   7.302 -0.0754  1.1453  1.2271
 1715TIP3    H226781   5.228   3.379   7.236  1.0746  0.3598 -1.3156
 1716TIP3   OH226782   0.346   3.810   7.679 -0.1147  0.5278  0.3524
 1716TIP3    H126783   0.281   3.740   7.677  0.1397  0.2869 -1.5750
 1716TIP3    H226784   0.306   3.881   7.630  0.6733  0.7343 -0.0081
 1717TIP3   OH226785   2.762   6.195   7.912  0.2958 -0.1165 -0.2148
 1717TIP3    H126786   2.722   6.243   7.839 -0.3667 -0.3790 -0.0241
 1717TIP3    H226787   2.710   6.116   7.921  1.2213 -0.7575 -0.3480
 1718TIP3   OH226788   2.642   5.103   6.032  0.0211 -0.1610 -0.1352
 1718TIP3    H126789   2.658   5.008   6.032 -1.0666 -0.3559 -0.7765
 1718TIP3    H226790   2.572   5.116   5.968 -1.9120  0.7104  1.9935
 1719TIP3   OH226791   2.411   2.979   1.036  0.1479 -0.0434  1.0221
 1719TIP3    H126792   2.502   2.956   1.016 -0.1504 -2.9518  2.4829
 1719TIP3    H226793   2.371   2.993   0.950  1.3179 -1.6418  0.1469
 1720TIP3   OH226794   6.584   2.939   6.358  0.5458  0.0384  0.2734
 1720TIP3    H126795   6.617   2.865   6.407 -0.2547  0.3375  1.3011
 1720TIP3    H226796   6.535   2.900   6.285 -0.7659 -0.4879  1.4031
 1721TIP3   OH226797   0.718   1.014   1.586  0.2526 -0.0593 -0.1020
 1721TIP3    H126798   0.771   0.935   1.575  0.3533  0.1869 -1.6531
 1721TIP3    H226799   0.781   1.085   1.598  0.1684 -0.1527  1.0280
 1722TIP3   OH226800   1.971   0.325   6.297 -0.2410 -0.2722 -0.3179
 1722TIP3    H126801   1.956   0.246   6.348  0.9646 -0.0594  0.3964
 1722TIP3    H226802   2.040   0.371   6.343 -0.7937  1.1224 -0.8232
 1723TIP3   OH226803   6.432   1.955   0.061  0.2178 -1.0285 -0.5409
 1723TIP3    H126804   6.340   1.934   0.049  0.3178 -1.7138 -0.1506
 1723TIP3    H226805   6.447   1.946   0.155  0.4888 -0.0827 -0.4775
 1724TIP3   OH226806   4.459   2.620   7.559  0.1614 -0.0702 -0.8542
 1724TIP3    H126807   4.397   2.647   7.627  0.1612 -1.3772 -0.3158
 1724TIP3    H226808   4.502   2.542   7.595  0.4985 -0.5051 -2.1512
 1725TIP3   OH226809   4.849   0.682   1.146  0.1861  0.1872  0.0597
 1725TIP3    H126810   4.925   0.740   1.149 -0.4169  0.9820  0.5629
 1725TIP3    H226811   4.821   0.683   1.055 -0.2331  1.2665  0.1833
 1726TIP3   OH226812   5.788   2.729   6.458  0.0780  0.2365 -0.3143
 1726TIP3    H126813   5.755   2.818   6.466 -0.7464 -0.0066 -0.9162
 1726TIP3    H226814   5.718   2.681   6.414  0.2067 -0.8867  0.6733
 1727TIP3   OH226815   6.077   7.162   0.906 -0.7101 -0.0657  0.3232
 1727TIP3    H126816   6.034   7.078   0.921  1.6276 -0.9660  3.0970
 1727TIP3    H226817   6.057   7.214   0.984  0.8005  0.5276  0.3586
 1728TIP3   OH226818   0.551   4.514   1.025 -0.2659 -0.1327  0.8927
 1728TIP3    H126819   0.567   4.501   0.931  0.2116 -0.5891  1.0380
 1728TIP3    H226820   0.561   4.608   1.038  0.7857 -0.2141  0.6981
 1729TIP3   OH226821   0.968   2.622   6.869  0.3887 -0.1135  1.1576
 1729TIP3    H126822   0.992   2.584   6.785 -1.4954  2.1796 -0.5561
 1729TIP3    H226823   0.879   2.590   6.886 -1.2786  3.2048 -0.3627
 1730TIP3   OH226824   6.920   3.729   6.566 -0.3609  0.4062  0.5648
 1730TIP3    H126825   6.924   3.728   6.662 -0.0997 -1.0526  0.5766
 1730TIP3    H226826   7.000   3.683   6.539 -0.6485  0.4213 -0.3394
 1731TIP3   OH226827   1.157   5.439   0.954 -0.1788 -0.1251  0.0727
 1731TIP3    H126828   1.150   5.524   0.997 -0.1261 -0.8337  1.5645
 1731TIP3    H226829   1.241   5.404   0.984 -0.3634 -0.8476 -0.2277
 1732TIP3   OH226830   4.163   6.446   0.215 -0.0007 -0.2377  0.2081
 1732TIP3    H126831   4.074   6.440   0.180  0.3004 -1.4804 -0.3887
 1732TIP3    H226832   4.219   6.421   0.142  0.8149  0.0857  0.7195
 1733TIP3   OH226833   4.635   2.471   1.263  0.4049 -0.7145  0.1404
 1733TIP3    H126834   4.683   2.484   1.345 -0.4992  0.4332  0.5124
 1733TIP3    H226835   4.629   2.558   1.224 -2.4197 -0.5331  0.7378
 1734TIP3   OH226836   0.509   1.869   1.645  0.0291  0.3099  0.1837
 1734TIP3    H126837   0.574   1.806   1.678 -0.0524 -0.3208 -0.8365
 1734TIP3    H226838   0.528   1.876   1.552  0.0093  1.7913  0.2633
 1735TIP3   OH226839   2.168   1.155   6.976 -0.1506  0.6977  0.3116
 1735TIP3    H126840   2.132   1.180   6.890  0.3409 -0.6085 -0.2893
 1735TIP3    H226841   2.257   1.189   6.975 -0.3100  1.1399  0.5329
 1736TIP3   OH226842   4.833   3.463   0.576 -0.1480 -0.4494  0.4182
 1736TIP3    H126843   4.780   3.400   0.625 -0.8223 -0.2298 -0.0167
 1736TIP3    H226844   4.920   3.422   0.571 -0.5639 -1.3350  0.1636
 1737TIP3   OH226845   6.654   2.475   1.112 -0.1324 -0.1908 -0.0547
 1737TIP3    H126846   6.724   2.538   1.125  0.2871 -0.4145 -1.1800
 1737TIP3    H226847   6.691   2.407   1.055 -0.4191 -1.7236  1.4752
 1738TIP3   OH226848   5.180   3.472   0.536 -0.6665 -0.0264  0.3362
 1738TIP3    H126849   5.176   3.565   0.514 -1.8361  0.0174  0.6562
 1738TIP3    H226850   5.213   3.469   0.626  0.7414 -0.0133 -0.1621
 1739TIP3   OH226851   3.291   2.588   6.927 -0.3317  0.2068  0.4514
 1739TIP3    H126852   3.362   2.643   6.893  0.2778 -0.7165  0.1878
 1739TIP3    H226853   3.305   2.503   6.885 -1.9325  0.1561 -0.0205
 1740TIP3   OH226854   0.001   3.923   1.473 -0.0214  0.2476  0.7118
 1740TIP3    H126855   0.035   4.008   1.446  0.2938  0.3819  1.4943
 1740TIP3    H226856   0.025   3.916   1.566  1.0475 -1.2173  0.3594
 1741TIP3   OH226857   4.101   5.931   2.084 -0.4720 -0.4745  0.1238
 1741TIP3    H126858   4.090   5.856   2.142 -0.2344 -1.6696 -1.3397
 1741TIP3    H226859   4.015   5.941   2.043 -0.3697 -0.2176 -0.0269
 1742TIP3   OH226860   3.255   6.803   7.232 -0.8622  0.3691 -0.3180
 1742TIP3    H126861   3.350   6.811   7.242 -0.4132 -3.1346 -0.6945
 1742TIP3    H226862   3.236   6.851   7.152  0.5282  1.2831 -0.1542
 1743TIP3   OH226863   0.258   6.089   0.351 -0.1256 -0.2897  0.7731
 1743TIP3    H126864   0.292   6.118   0.266 -1.3072 -1.0349  0.0093
 1743TIP3    H226865   0.336   6.073   0.404  0.8304 -2.8035 -1.1895
 1744TIP3   OH226866   5.192   0.171   6.596 -0.0716  0.2820  0.6393
 1744TIP3    H126867   5.153   0.145   6.513  0.7280  0.3962  0.2279
 1744TIP3    H226868   5.131   0.237   6.631  0.0764  0.9484 -0.3136
 1745TIP3   OH226869   1.435   2.743   6.347 -0.0016  0.3998  0.0800
 1745TIP3    H126870   1.480   2.704   6.273  2.4906  0.4580  1.4517
 1745TIP3    H226871   1.473   2.830   6.356 -0.8525  0.7057  0.9492
 1746TIP3   OH226872   5.143   5.789   0.578 -0.2110  0.2220  0.0182
 1746TIP3    H126873   5.180   5.787   0.489  0.4833 -0.5647  0.3211
 1746TIP3    H226874   5.092   5.871   0.580 -1.8929 -0.6964 -1.7641
 1747TIP3   OH226875   1.022   0.244   5.619  0.0231  0.1451 -0.6659
 1747TIP3    H126876   0.936   0.228   5.581 -0.1552 -0.0424 -0.1789
 1747TIP3    H226877   1.058   0.315   5.566 -0.0861 -0.3402 -1.4067
 1748TIP3   OH226878   0.593   2.915   6.461 -0.1741  0.1648 -0.3774
 1748TIP3    H126879   0.523   2.887   6.520 -1.6780  2.1280 -1.1326
 1748TIP3    H226880   0.648   2.972   6.514  0.6697 -1.0573  0.1048
 1749TIP3   OH226881   4.741   2.218   1.736 -0.2385 -0.0718  0.3306
 1749TIP3    H126882   4.652   2.226   1.772 -0.8527  0.4604 -1.1866
 1749TIP3    H226883   4.750   2.295   1.680 -0.0221 -1.6505 -1.9385
 1750TIP3   OH226884   1.993   5.780   6.301 -0.0947  0.3269 -0.5418
 1750TIP3    H126885   2.065   5.795   6.240 -0.9026  0.7777 -1.4103
 1750TIP3    H226886   1.921   5.835   6.268  0.2940  2.8812  2.3774
 1751TIP3   OH226887   6.815   0.359   7.785 -0.1397  0.7429  0.4137
 1751TIP3    H126888   6.727   0.374   7.820 -0.0498  2.8130 -0.0733
 1751TIP3    H226889   6.826   0.427   7.719  0.9574 -0.9622 -1.2564
 1752TIP3   OH226890   1.918   0.856   0.663 -0.1072 -0.2325  0.4215
 1752TIP3    H126891   1.882   0.832   0.749  0.5358  0.1172  0.8001
 1752TIP3    H226892   1.939   0.949   0.672  2.4139 -0.7849  0.7845
 1753TIP3   OH226893   3.030   1.863   1.256 -0.8757  0.1303 -0.2007
 1753TIP3    H126894   2.951   1.914   1.276  0.2722  1.6553  0.5714
 1753TIP3    H226895   3.101   1.910   1.299  0.5920 -0.7487 -1.5653
 1754TIP3   OH226896   1.478   3.593   0.770  0.0232  0.0255 -0.0277
 1754TIP3    H126897   1.400   3.552   0.808  1.1469 -0.6775  1.6146
 1754TIP3    H226898   1.469   3.685   0.791 -0.5817  0.0266 -0.2654
 1755TIP3   OH226899   1.838   3.748   0.287  0.2094 -0.0258  0.3408
 1755TIP3    H126900   1.791   3.804   0.348  0.1067  1.0616 -0.6983
 1755TIP3    H226901   1.769   3.704   0.236  0.2994 -0.1688  0.3408
 1756TIP3   OH226902   0.350   3.380   6.998 -0.2686  0.0128 -0.1946
 1756TIP3    H126903   0.420   3.336   6.949 -0.2349  0.4328 -0.5263
 1756TIP3    H226904   0.270   3.360   6.950 -0.1702  0.8590 -0.7302
 1757TIP3   OH226905   3.666   5.834   7.738  0.0098  0.4090  0.1049
 1757TIP3    H126906   3.729   5.829   7.666  0.0277 -0.6143  0.1858
 1757TIP3    H226907   3.720   5.830   7.817 -0.0875  0.4775  0.1749
 1758TIP3   OH226908   2.096   2.142   7.002 -0.0258 -0.1526 -0.0903
 1758TIP3    H126909   2.058   2.054   7.003 -2.3383  0.7413 -1.3345
 1758TIP3    H226910   2.021   2.200   7.002  1.4591  1.9038  1.8671
 1759TIP3   OH226911   5.824   4.654   2.253  0.4219  0.1138  0.4439
 1759TIP3    H126912   5.824   4.742   2.215  2.2856 -0.1136 -0.2130
 1759TIP3    H226913   5.733   4.637   2.276  0.2252  2.8670  2.1353
 1760TIP3   OH226914   4.103   0.469   0.425 -0.0262 -0.1386 -0.0506
 1760TIP3    H126915   4.161   0.467   0.501 -0.1397 -2.1627  0.0188
 1760TIP3    H226916   4.154   0.513   0.357 -0.2450  2.5374  1.3887
 1761TIP3   OH226917   3.917   2.846   1.500 -0.2461 -0.1163 -0.8852
 1761TIP3    H126918   3.950   2.838   1.589  1.0208 -1.2772 -1.4224
 1761TIP3    H226919   3.822   2.846   1.510 -0.1535  1.6935  0.5885
 1762TIP3   OH226920   5.155   2.270   7.029  0.2788  0.0933  0.5442
 1762TIP3    H126921   5.227   2.220   6.991  0.4665  0.6931  0.1014
 1762TIP3    H226922   5.159   2.250   7.123 -1.0349 -2.4833  0.1311
 1763TIP3   OH226923   1.325   4.980   6.727  0.2619  0.1272 -0.2724
 1763TIP3    H126924   1.329   5.074   6.744  1.0210  0.1745 -0.6834
 1763TIP3    H226925   1.403   4.961   6.676 -1.2021 -0.2569 -2.4876
 1764TIP3   OH226926   3.621   4.430   0.215 -0.0048 -1.0925  0.2935
 1764TIP3    H126927   3.590   4.396   0.131 -1.8655  0.8282  0.1268
 1764TIP3    H226928   3.679   4.502   0.193  0.8054 -1.6127  0.6719
 1765TIP3   OH226929   4.985   6.109   6.943  0.2743  0.3518  0.5723
 1765TIP3    H126930   5.054   6.160   6.985 -0.5915  0.9314  1.3173
 1765TIP3    H226931   4.948   6.168   6.877 -0.7573  0.7420  1.4658
 1766TIP3   OH226932   4.932   0.182   5.992 -0.0490 -0.4631 -0.1700
 1766TIP3    H126933   4.909   0.261   6.041 -0.7839 -1.5421  1.3348
 1766TIP3    H226934   4.908   0.201   5.902 -0.4552  0.9427  0.2130
 1767TIP3   OH226935   6.795   6.738   1.487 -0.2338 -0.0634  0.3675
 1767TIP3    H126936   6.751   6.696   1.413  0.5513 -2.2923  1.0649
 1767TIP3    H226937   6.790   6.832   1.468 -1.6883 -0.4597 -1.5499
 1768TIP3   OH226938   0.408   0.349   7.675  0.6322 -0.4391 -0.1133
 1768TIP3    H126939   0.487   0.394   7.644  1.8697 -2.0160  0.6142
 1768TIP3    H226940   0.409   0.362   7.770 -0.2033 -0.1786 -0.1318
 1769TIP3   OH226941   4.912   4.132   1.618 -0.2371  0.3950 -0.2861
 1769TIP3    H126942   4.934   4.045   1.586  2.3079  1.2716 -1.1587
 1769TIP3    H226943   4.943   4.133   1.709 -0.0257  0.4659 -0.3584
 1770TIP3   OH226944   1.912   7.094   0.341  0.2305  1.0072  0.3917
 1770TIP3    H126945   1.901   6.999   0.337 -1.1361  1.1867 -1.2479
 1770TIP3    H226946   1.986   7.113   0.283 -1.1552  1.1096 -1.4408
 1771TIP3   OH226947   1.141   1.854   0.444  0.4119 -0.0716 -0.5213
 1771TIP3    H126948   1.101   1.933   0.407  2.0961  0.0157 -2.2757
 1771TIP3    H226949   1.104   1.782   0.393 -0.6839 -0.4269  0.6976
 1772TIP3   OH226950   1.434   0.517   7.728  0.1955  0.0786  0.5693
 1772TIP3    H126951   1.395   0.484   7.647  0.6734 -0.9185  0.7388
 1772TIP3    H226952   1.360   0.521   7.790 -0.0417  0.2025  0.2771
 1773TIP3   OH226953   1.371   4.714   2.102  0.2072  0.1458  0.1566
 1773TIP3    H126954   1.443   4.755   2.053 -0.1996  0.0156 -0.5505
 1773TIP3    H226955   1.403   4.626   2.121  0.8606  0.5821  1.2035
 1774TIP3   OH226956   0.248   6.427   0.206  0.2416  0.2313 -0.3670
 1774TIP3    H126957   0.332   6.472   0.200  0.4598 -0.0097  0.6152
 1774TIP3    H226958   0.270   6.334   0.208 -0.0164  0.1748  0.1896
 1775TIP3   OH226959   7.095   2.839   1.618 -0.2677 -0.2675 -0.1066
 1775TIP3    H126960   7.009   2.829   1.660  0.2701 -0.4239  0.9630
 1775TIP3    H226961   7.117   2.931   1.629 -0.2022 -0.2710 -0.2043
 1776TIP3   OH226962   1.932   5.387   7.072  0.3222 -0.7245  0.0243
 1776TIP3    H126963   2.022   5.421   7.070  0.0750 -0.0919 -1.4518
 1776TIP3    H226964   1.884   5.452   7.124  0.2764  0.1403 -1.0655
 1777TIP3   OH226965   5.021   2.367   6.433  0.0307  0.2397  0.0173
 1777TIP3    H126966   4.933   2.403   6.444 -0.8222 -0.9191 -2.2859
 1777TIP3    H226967   5.061   2.421   6.365  0.6435 -0.0004  0.1775
 1778TIP3   OH226968   3.991   3.408   2.306 -0.0090  0.1403 -0.5065
 1778TIP3    H126969   4.026   3.319   2.305  1.2516  0.5631  1.4635
 1778TIP3    H226970   4.064   3.462   2.276  0.2318  0.7808  1.1747
 1779TIP3   OH226971   1.979   3.650   6.635  0.1262  0.3843 -0.5214
 1779TIP3    H126972   1.919   3.703   6.686  1.5006  0.0543  1.5688
 1779TIP3    H226973   2.014   3.711   6.569 -0.9823  1.0779 -0.5004
 1780TIP3   OH226974   3.960   2.061   6.287  0.3261  0.1417  0.0401
 1780TIP3    H126975   3.865   2.050   6.292  0.2296  0.1168 -1.4019
 1780TIP3    H226976   3.993   1.972   6.272  0.6035  0.1196  0.7519
 1781TIP3   OH226977   6.699   4.463   0.967  0.2274 -0.4058  0.5032
 1781TIP3    H126978   6.725   4.457   1.059 -0.7421 -1.5730  0.7299
 1781TIP3    H226979   6.624   4.522   0.967  1.1447  0.8091  0.2207
 1782TIP3   OH226980   5.419   6.318   0.203  0.6083 -0.0728  0.3572
 1782TIP3    H126981   5.450   6.276   0.122  1.1928  1.0374 -0.0176
 1782TIP3    H226982   5.473   6.280   0.272  1.3915  0.3213 -0.0263
 1783TIP3   OH226983   5.351   3.327   0.398 -0.3486  0.0262  0.0781
 1783TIP3    H126984   5.369   3.383   0.323  0.1258 -0.6623 -0.3405
 1783TIP3    H226985   5.296   3.380   0.456  0.6302  1.1637  0.0077
 1784TIP3   OH226986   4.694   2.801   7.166 -0.2047 -0.4989 -0.3416
 1784TIP3    H126987   4.613   2.810   7.116 -1.0220  0.2686  1.0648
 1784TIP3    H226988   4.698   2.880   7.220  2.1536  0.0904 -1.2825
 1785TIP3   OH226989   0.615   0.732   0.304 -0.5359 -0.0530  0.3226
 1785TIP3    H126990   0.526   0.767   0.311 -1.8037 -2.3665 -2.2596
 1785TIP3    H226991   0.662   0.798   0.252 -0.8076  0.9870  1.3410
 1786TIP3   OH226992   6.150   0.366   1.351  0.2719  0.5279 -0.8431
 1786TIP3    H126993   6.070   0.355   1.300  0.4003  0.0647 -0.9488
 1786TIP3    H226994   6.128   0.330   1.437 -0.4307  2.6336 -0.0596
 1787TIP3   OH226995   3.952   2.842   0.181  0.0595  0.0195 -0.1575
 1787TIP3    H126996   4.022   2.905   0.199 -1.0051  1.2646 -0.2361
 1787TIP3    H226997   3.943   2.791   0.262 -1.0342  1.9545  1.0036
 1788TIP3   OH226998   1.486   3.686   6.445 -0.0721  0.2557  0.7356
 1788TIP3    H126999   1.397   3.705   6.476  0.7622  2.6269  1.8810
 1788TIP3    H227000   1.500   3.748   6.374  0.4533 -0.5911  0.0849
 1789TIP3   OH227001   3.819   0.486   0.518  0.0937  0.3452 -0.8350
 1789TIP3    H127002   3.778   0.537   0.447 -0.2757  0.5210 -0.5042
 1789TIP3    H227003   3.911   0.480   0.493 -0.1274 -0.0562 -1.5990
 1790TIP3   OH227004   2.567   5.520   5.812 -0.5179  0.1506 -0.3869
 1790TIP3    H127005   2.620   5.597   5.833 -0.8677  0.5797 -1.0483
 1790TIP3    H227006   2.574   5.464   5.889  0.5762  0.3805 -0.3051
 1791TIP3   OH227007   3.233   1.365   6.409 -0.3682  0.1244  0.0998
 1791TIP3    H127008   3.306   1.312   6.376  0.1622 -0.1788  1.6777
 1791TIP3    H227009   3.176   1.376   6.333  0.9069 -0.3241 -0.9695
 1792TIP3   OH227010   3.409   3.560   7.767  0.2308 -0.0310 -0.6271
 1792TIP3    H127011   3.483   3.500   7.779  1.4105  1.6420  0.8391
 1792TIP3    H227012   3.332   3.506   7.788  1.2541 -1.0129  0.7685
 1793TIP3   OH227013   2.864   4.895   1.995 -0.4344 -0.3347  0.1176
 1793TIP3    H127014   2.825   4.824   2.045 -0.3220 -0.8676 -0.5310
 1793TIP3    H227015   2.957   4.871   1.989  0.4600  1.7509  3.1057
 1794TIP3   OH227016   4.683   3.637   6.322  0.3539  0.0252  0.2915
 1794TIP3    H127017   4.755   3.614   6.264 -0.0893 -0.3806 -0.1108
 1794TIP3    H227018   4.690   3.575   6.394  0.4062 -0.0148  0.2519
 1795TIP3   OH227019   4.103   7.193   6.707  0.3843  0.4906 -0.4235
 1795TIP3    H127020   4.074   7.281   6.733  1.2910  0.6961 -0.0965
 1795TIP3    H227021   4.185   7.179   6.755 -0.7234 -1.3327  1.1135
 1796TIP3   OH227022   1.441   4.216   0.365 -0.5331 -0.2846 -0.3032
 1796TIP3    H127023   1.396   4.227   0.449  0.6052 -0.6298  0.3587
 1796TIP3    H227024   1.522   4.265   0.374 -0.0275 -0.9878 -0.9150
 1797TIP3   OH227025   1.176   0.765   0.850  0.1553 -0.3953  0.2542
 1797TIP3    H127026   1.096   0.712   0.852 -1.3352  1.7369  0.4203
 1797TIP3    H227027   1.214   0.754   0.937 -0.6598 -0.4336  0.6164
 1798TIP3   OH227028   3.988   2.433   1.207 -0.2820  0.3628 -0.0048
 1798TIP3    H127029   4.009   2.513   1.256  0.8536 -0.9511  1.8127
 1798TIP3    H227030   4.031   2.445   1.122  2.0623  0.6782  1.1403
 1799TIP3   OH227031   2.572   3.524   0.308 -0.4607  0.2960  0.1791
 1799TIP3    H127032   2.626   3.470   0.251 -0.2432  2.7471 -2.1670
 1799TIP3    H227033   2.631   3.594   0.338 -1.5412  1.2858  0.1073
 1800TIP3   OH227034   0.162   2.011   7.611 -0.2820  1.1436 -0.2751
 1800TIP3    H127035   0.229   1.987   7.675  0.1127 -0.6272 -1.2839
 1800TIP3    H227036   0.164   2.107   7.608  1.3690  1.1587  0.5733
 1801TIP3   OH227037   6.349   1.474   7.055 -0.1778 -0.4529 -0.1433
 1801TIP3    H127038   6.306   1.409   7.000  0.2348 -1.3652  0.5814
 1801TIP3    H227039   6.278   1.529   7.088 -0.5810 -0.8276 -0.3845
 1802TIP3   OH227040   2.321   6.307   7.514 -0.4581 -0.0464 -0.8029
 1802TIP3    H127041   2.339   6.269   7.600  0.0366  2.1287  0.1146
 1802TIP3    H227042   2.396   6.281   7.460 -0.7735 -1.4218 -0.6183
 1803TIP3   OH227043   3.304   5.874   0.439  0.0334 -0.1782 -0.2216
 1803TIP3    H127044   3.300   5.778   0.444 -0.0521 -0.1851 -0.4076
 1803TIP3    H227045   3.261   5.904   0.519 -0.7847 -0.2899 -0.6105
 1804TIP3   OH227046   1.993   1.754   0.337 -0.0712 -0.6732 -0.1468
 1804TIP3    H127047   1.899   1.756   0.319  0.0806  1.5613 -0.9879
 1804TIP3    H227048   2.014   1.842   0.367  1.8156 -1.0322 -0.2706
 1805TIP3   OH227049   5.760   0.303   7.246  0.4386 -0.1674 -0.0139
 1805TIP3    H127050   5.669   0.305   7.276  0.6707  0.7071  0.6635
 1805TIP3    H227051   5.774   0.389   7.207  1.3190  0.1435  0.9474
 1806TIP3   OH227052   4.281   2.570   7.236  0.3886 -0.0139 -0.3061
 1806TIP3    H127053   4.355   2.565   7.296  0.4854  0.4292 -0.3878
 1806TIP3    H227054   4.248   2.659   7.245 -0.2989 -0.2919 -0.0819
 1807TIP3   OH227055   2.865   5.258   1.147 -0.7094 -0.6073 -1.0051
 1807TIP3    H127056   2.825   5.188   1.199 -1.8236  0.2926 -0.6187
 1807TIP3    H227057   2.956   5.231   1.138 -0.7845 -1.4138  0.3370
 1808TIP3   OH227058   4.557   6.073   6.847  0.2128  0.0181  0.3591
 1808TIP3    H127059   4.515   6.159   6.844  0.0738 -0.0628 -0.2670
 1808TIP3    H227060   4.630   6.084   6.907 -0.2455  0.3700  0.8645
 1809TIP3   OH227061   5.254   6.015   7.224  0.3146  0.1195 -0.1543
 1809TIP3    H127062   5.259   6.091   7.281 -1.2235  1.7488 -2.0644
 1809TIP3    H227063   5.209   6.046   7.146 -1.8712 -3.1551 -0.3723
 1810TIP3   OH227064   0.786   4.452   7.252  0.0819  0.8371 -0.7798
 1810TIP3    H127065   0.722   4.417   7.190  1.3152  1.1724 -2.2985
 1810TIP3    H227066   0.772   4.401   7.332 -1.8582  0.7090 -1.1574
 1811TIP3   OH227067   0.590   2.894   6.190 -0.2103 -0.0464 -0.2225
 1811TIP3    H127068   0.607   2.879   6.283  1.4916 -0.8617 -0.6348
 1811TIP3    H227069   0.513   2.840   6.171 -0.7068  0.2909  0.7428
 1812TIP3   OH227070   4.664   6.032   6.053 -0.1989  0.2978 -0.3043
 1812TIP3    H127071   4.587   6.078   6.020  0.5503  2.3995  0.7280
 1812TIP3    H227072   4.628   5.957   6.102 -1.6113  1.3048  0.2546
 1813TIP3   OH227073   1.424   3.767   5.670 -0.2659 -0.0297  0.7338
 1813TIP3    H127074   1.501   3.757   5.613  0.5676  1.1165  1.6146
 1813TIP3    H227075   1.351   3.736   5.617  0.2659  2.1728 -1.4949
 1814TIP3   OH227076   3.122   2.119   6.246 -0.6146  0.0242 -0.0371
 1814TIP3    H127077   3.155   2.060   6.179  0.0940  0.0544  0.2803
 1814TIP3    H227078   3.148   2.207   6.218 -1.2143  0.1448 -0.2420
 1815TIP3   OH227079   2.988   0.337   7.228  0.5951 -0.0640 -0.1082
 1815TIP3    H127080   3.078   0.307   7.240  0.4283  0.1443  2.2899
 1815TIP3    H227081   2.952   0.341   7.317 -1.5591  0.5778 -0.9272
 1816TIP3   OH227082   2.483   0.519   0.557  0.0518 -0.3045 -0.3470
 1816TIP3    H127083   2.481   0.558   0.644 -3.6113  3.1526 -1.6948
 1816TIP3    H227084   2.552   0.566   0.510 -0.5035  0.5684 -0.3143
 1817TIP3   OH227085   0.338   5.694   6.568  0.2126 -0.2355  0.0148
 1817TIP3    H127086   0.307   5.759   6.632 -2.4023 -0.4680 -0.9053
 1817TIP3    H227087   0.258   5.654   6.534  1.5400 -0.6728 -2.8536
 1818TIP3   OH227088   5.003   4.248   1.133  0.1454 -0.2974 -0.2117
 1818TIP3    H127089   5.033   4.332   1.098 -2.4287  0.7023 -0.2023
 1818TIP3    H227090   4.962   4.269   1.216 -0.9534 -1.5018 -0.4152
 1819TIP3   OH227091   0.042   5.937   0.758 -0.1322 -0.2275  0.0132
 1819TIP3    H127092   0.015   6.016   0.805 -0.8508 -0.1275 -0.5462
 1819TIP3    H227093   0.060   5.873   0.826  0.1169  0.3176  0.4615
 1820TIP3   OH227094   2.324   6.021   1.298 -0.5549 -0.6785 -0.0382
 1820TIP3    H127095   2.281   5.940   1.270 -0.7256 -0.6181  0.0521
 1820TIP3    H227096   2.350   6.003   1.389 -1.4158 -0.2954  0.2861
 1821TIP3   OH227097   2.148   1.792   6.867  0.0693  0.1794  0.5612
 1821TIP3    H127098   2.119   1.800   6.958  1.9695  0.5472  1.1742
 1821TIP3    H227099   2.209   1.718   6.867 -0.1231 -0.0023 -0.4862
 1822TIP3   OH227100   5.644   7.009   7.884  0.0314 -0.5492 -0.3069
 1822TIP3    H127101   5.640   6.966   7.970 -0.5992  0.5316  0.2230
 1822TIP3    H227102   5.584   6.958   7.830 -1.3630  0.1413  0.5464
 1823TIP3   OH227103   3.996   2.908   0.568  0.2590  0.3388  0.2025
 1823TIP3    H127104   3.996   2.867   0.481  0.7700  1.8642 -0.5633
 1823TIP3    H227105   4.003   2.835   0.629 -1.5665 -0.9020 -0.9553
 1824TIP3   OH227106   2.233   3.706   7.475 -0.3605 -0.2944  0.0214
 1824TIP3    H127107   2.321   3.726   7.506 -0.0909  5.0455 -2.9248
 1824TIP3    H227108   2.175   3.727   7.548  0.6898 -1.3664  1.1797
 1825TIP3   OH227109   4.377   2.215   5.899  0.3614 -0.4753 -0.0449
 1825TIP3    H127110   4.439   2.142   5.896  1.4420  0.3817 -3.1909
 1825TIP3    H227111   4.310   2.192   5.834  0.8826  1.3590 -1.3255
 1826TIP3   OH227112   0.189   6.266   6.115  0.4807  0.1255  0.0797
 1826TIP3    H127113   0.102   6.293   6.084  0.5963 -0.1249 -0.4877
 1826TIP3    H227114   0.188   6.170   6.107  0.5058  0.0578  0.8966
 1827TIP3   OH227115   0.322   7.046   7.778  0.0513  0.2921  0.5699
 1827TIP3    H127116   0.386   6.982   7.745  0.4012  0.1735  1.4496
 1827TIP3    H227117   0.324   7.116   7.713  0.1451 -0.2885 -0.0710
 1828TIP3   OH227118   1.413   5.363   0.963 -0.0820 -0.5874  0.8250
 1828TIP3    H127119   1.440   5.331   1.049  1.1122 -1.1149  0.2735
 1828TIP3    H227120   1.432   5.290   0.903 -2.6029 -0.9620  0.3333
 1829TIP3   OH227121   3.983   3.637   6.243 -0.1645 -0.2359 -0.3762
 1829TIP3    H127122   3.916   3.582   6.203 -0.4921 -0.0618 -0.0712
 1829TIP3    H227123   3.983   3.717   6.190 -1.1104  0.2932  0.4063
 1830TIP3   OH227124   0.286   4.293   5.677 -0.0914  0.0297 -0.6002
 1830TIP3    H127125   0.265   4.294   5.584 -1.6624 -0.1399 -0.2774
 1830TIP3    H227126   0.293   4.385   5.701 -0.7062  0.0935 -0.6705
 1831TIP3   OH227127   0.422   1.567   0.426 -0.1504  0.3870 -0.4039
 1831TIP3    H127128   0.434   1.661   0.410 -0.2583  0.9129  2.2515
 1831TIP3    H227129   0.327   1.556   0.435 -0.0405  0.3170  0.7686
 1832TIP3   OH227130   2.659   4.553   1.111  0.1732  0.7489  0.3953
 1832TIP3    H127131   2.620   4.612   1.175  3.6832  0.5141  3.0889
 1832TIP3    H227132   2.626   4.466   1.136  2.0703  0.5524  2.6113
 1833TIP3   OH227133   0.149   4.700   7.697 -0.0099  0.7479  0.4893
 1833TIP3    H127134   0.095   4.687   7.619  0.3544  0.2819  0.3078
 1833TIP3    H227135   0.209   4.771   7.673 -0.6522  1.3902  0.7556
 1834TIP3   OH227136   3.515   2.571   6.187 -0.0522 -0.1276 -0.1178
 1834TIP3    H127137   3.517   2.661   6.220  1.1273 -0.2046  0.0604
 1834TIP3    H227138   3.533   2.517   6.264  0.1712 -0.4602 -0.4018
 1835TIP3   OH227139   1.733   2.603   0.490 -0.3341 -0.3924 -0.0360
 1835TIP3    H127140   1.673   2.612   0.416  0.3838  2.0139 -0.3979
 1835TIP3    H227141   1.815   2.573   0.451  0.3763  1.9295 -0.4598
 1836TIP3   OH227142   0.826   6.415   6.329 -0.3529  0.0726  0.1036
 1836TIP3    H127143   0.829   6.460   6.245 -0.3441 -1.5172 -0.7919
 1836TIP3    H227144   0.738   6.431   6.362 -0.1078  1.3573  0.1854
 1837TIP3   OH227145   1.802   3.276   6.913 -0.0673 -0.0690  0.3355
 1837TIP3    H127146   1.866   3.258   6.982  0.1346 -3.4177 -0.5735
 1837TIP3    H227147   1.852   3.318   6.844  0.9860 -1.7236  0.0514
 1838TIP3   OH227148   6.308   2.494   6.286 -0.0616  0.2305  0.6374
 1838TIP3    H127149   6.307   2.572   6.231 -1.0908 -0.1998 -0.0010
 1838TIP3    H227150   6.230   2.503   6.341  0.1045 -0.0935  0.9282
 1839TIP3   OH227151   3.124   3.866   1.946 -0.4238 -0.6394  0.0362
 1839TIP3    H127152   3.070   3.815   2.005  0.5923  0.4702  2.0151
 1839TIP3    H227153   3.187   3.804   1.910 -0.2366 -1.1107  1.1437
 1840TIP3   OH227154   0.822   2.476   7.683 -0.0955  0.4677 -0.3315
 1840TIP3    H127155   0.809   2.472   7.778 -0.4451  3.2258 -0.1852
 1840TIP3    H227156   0.738   2.507   7.649 -0.1056 -0.8798 -1.6300
 1841TIP3   OH227157   4.441   3.519   6.980  0.3237 -0.3764 -0.1371
 1841TIP3    H127158   4.394   3.554   6.904  0.8734 -1.6014 -1.0871
 1841TIP3    H227159   4.461   3.595   7.033  0.7786  0.6605 -1.7188
 1842TIP3   OH227160   0.045   6.277   2.041 -0.8226 -0.8090 -0.0588
 1842TIP3    H127161   0.034   6.287   2.135 -0.5526 -1.5764  0.0533
 1842TIP3    H227162   0.036   6.183   2.024 -0.1829 -0.7645 -0.7067
 1843TIP3   OH227163   2.783   4.720   1.416  0.1385 -0.0563  0.2302
 1843TIP3    H127164   2.733   4.710   1.335 -1.6177  0.3358  1.2255
 1843TIP3    H227165   2.728   4.681   1.484  2.1323 -1.5385  1.1014
 1844TIP3   OH227166   1.833   2.825   2.044  0.1545  0.4470 -0.5609
 1844TIP3    H127167   1.808   2.836   1.952  2.2595  0.8268 -1.1504
 1844TIP3    H227168   1.817   2.733   2.063  1.0890 -0.0010 -1.8012
 1845TIP3   OH227169   0.545   5.958   6.527  0.1684 -0.5331 -0.3728
 1845TIP3    H127170   0.500   5.890   6.577 -2.1597  1.9083  1.0829
 1845TIP3    H227171   0.478   5.994   6.469  0.6582  1.9929  0.5290
 1846TIP3   OH227172   6.232   6.483   1.379 -0.6936  0.2602  0.2593
 1846TIP3    H127173   6.279   6.476   1.296 -0.5511  0.9473  0.2784
 1846TIP3    H227174   6.200   6.573   1.381 -1.5011 -0.0259  0.5239
 1847TIP3   OH227175   7.031   1.768   7.110  0.6668  0.5446 -0.2595
 1847TIP3    H127176   7.019   1.863   7.099 -1.3828  0.3882  0.1887
 1847TIP3    H227177   7.036   1.734   7.021 -0.6118  0.8871 -0.4818
 1848TIP3   OH227178   7.206   4.945   6.710  0.4865  0.0648 -0.1087
 1848TIP3    H127179   7.169   4.944   6.622 -0.2327 -2.2434  0.1464
 1848TIP3    H227180   7.272   4.876   6.709  1.7829  1.2461  0.6803
 1849TIP3   OH227181   0.994   3.476   1.974 -0.0751 -0.4514  0.1388
 1849TIP3    H127182   1.066   3.480   1.910  0.2267 -1.3886  0.3992
 1849TIP3    H227183   1.010   3.395   2.022 -1.3081 -0.6667  0.2116
 1850TIP3   OH227184   0.702   2.549   0.381 -0.0646  0.4646  0.2814
 1850TIP3    H127185   0.612   2.575   0.401 -1.1105 -1.1765 -1.9455
 1850TIP3    H227186   0.695   2.463   0.341  2.4411  0.5877 -0.6383
 1851TIP3   OH227187   1.917   5.166   5.617  0.1733 -0.2829 -0.0672
 1851TIP3    H127188   1.913   5.261   5.610  1.0296 -0.2359  0.0098
 1851TIP3    H227189   1.833   5.141   5.656  0.4244  0.5424  1.0422
 1852TIP3   OH227190   3.366   1.804   6.653 -0.3844 -0.3449  0.0688
 1852TIP3    H127191   3.302   1.734   6.644  0.0853 -1.0291  1.7095
 1852TIP3    H227192   3.450   1.760   6.663  0.1923  0.5138 -0.7711
 1853TIP3   OH227193   2.050   3.356   6.563 -0.2067 -0.7377  0.1572
 1853TIP3    H127194   2.145   3.345   6.564 -0.0668  0.3419 -0.4321
 1853TIP3    H227195   2.034   3.438   6.611 -0.8012 -0.6219 -0.2241
 1854TIP3   OH227196   3.087   4.685   7.972  0.0675 -0.1720 -0.5241
 1854TIP3    H127197   3.024   4.718   8.035 -0.4577 -1.7264 -0.1819
 1854TIP3    H227198   3.096   4.592   7.994  2.6747  0.0376 -0.3942
 1855TIP3   OH227199   4.247   4.451   5.999 -0.5985 -0.1302  0.5610
 1855TIP3    H127200   4.195   4.504   5.937  0.0581  0.0796  0.1794
 1855TIP3    H227201   4.243   4.363   5.963 -0.8748 -0.1592  0.6578
 1856TIP3   OH227202   5.041   6.033   0.506  0.4495 -0.0173  0.1629
 1856TIP3    H127203   5.092   6.063   0.431  0.2548 -1.4854 -0.5986
 1856TIP3    H227204   5.082   6.075   0.582  0.3545  1.8661 -0.7922
 1857TIP3   OH227205   3.508   6.699   7.636 -0.4635  0.5088  0.0263
 1857TIP3    H127206   3.547   6.659   7.558 -0.0717  1.3643 -0.2224
 1857TIP3    H227207   3.514   6.793   7.621 -4.3681  0.7672 -0.9208
 1858TIP3   OH227208   4.210   1.533   7.163  0.0691  0.3404  0.3351
 1858TIP3    H127209   4.165   1.530   7.078  2.3956  2.2184 -1.1386
 1858TIP3    H227210   4.187   1.619   7.199  1.2855  0.7592  0.1866
 1859TIP3   OH227211   5.675   7.204   1.147 -0.0564  0.7256 -0.1151
 1859TIP3    H127212   5.662   7.252   1.065 -0.5400  0.7504 -0.0270
 1859TIP3    H227213   5.588   7.173   1.171 -0.1434  1.8357  1.0891
 1860TIP3   OH227214   1.232   4.352   0.240  0.1721  0.3133 -0.0192
 1860TIP3    H127215   1.288   4.294   0.291  0.5232  0.5112 -0.1813
 1860TIP3    H227216   1.291   4.415   0.200 -0.2447  1.0763  0.5343
 1861TIP3   OH227217   2.408   5.061   0.851 -0.1502  0.2654  0.3210
 1861TIP3    H127218   2.410   4.967   0.864  0.4807  0.3067  0.5613
 1861TIP3    H227219   2.327   5.077   0.803 -0.7541 -0.2909  1.1234
 1862TIP3   OH227220   5.730   4.102   0.037  0.2252  0.0386  0.1385
 1862TIP3    H127221   5.765   4.046   0.106  1.4315 -0.3097 -0.7184
 1862TIP3    H227222   5.794   4.173   0.030  1.0508 -0.8196 -1.7482
 1863TIP3   OH227223   0.643   3.853   1.830  0.2088  0.0622 -0.5952
 1863TIP3    H127224   0.726   3.872   1.788  0.9528  0.6991  1.0973
 1863TIP3    H227225   0.601   3.938   1.841 -0.1798 -0.1430 -0.4631
 1864TIP3   OH227226   3.558   6.121   0.656  0.0940  0.2991  0.1792
 1864TIP3    H127227   3.482   6.064   0.643  0.9926 -1.4777  2.1271
 1864TIP3    H227228   3.610   6.112   0.576 -0.2449 -0.9104  0.0838
 1865TIP3   OH227229   2.924   1.980   0.038  0.5671  0.0896 -0.0646
 1865TIP3    H127230   2.880   2.018   0.114  1.4939  0.3829  0.3326
 1865TIP3    H227231   2.865   1.998  -0.035 -0.2228  0.0070  0.5415
 1866TIP3   OH227232   1.234   1.962   6.292  0.6712 -0.4529  0.1450
 1866TIP3    H127233   1.217   1.894   6.358  0.2256 -0.1282  0.3713
 1866TIP3    H227234   1.323   1.992   6.311 -0.3093  1.3746  2.1995
 1867TIP3   OH227235   6.083   1.824   6.813  0.0173  0.2292 -0.2806
 1867TIP3    H127236   6.054   1.734   6.797  0.3613 -0.1324  1.0242
 1867TIP3    H227237   6.031   1.853   6.888  1.4315  0.3543  0.6816
 1868TIP3   OH227238   7.020   0.995   7.992  0.0568  0.3285  0.1640
 1868TIP3    H127239   7.050   1.023   7.905 -0.6077  0.3786 -0.0497
 1868TIP3    H227240   7.004   1.076   8.039  0.2093  0.2996  0.2690
 1869TIP3   OH227241   5.567   3.058   1.553  0.0205 -0.4594  0.3254
 1869TIP3    H127242   5.634   3.003   1.594 -0.0799  0.2991  1.5708
 1869TIP3    H227243   5.558   3.133   1.613 -0.0323  0.7938 -1.1785
 1870TIP3   OH227244   2.167   3.713   7.970 -0.3398 -0.3848  0.3534
 1870TIP3    H127245   2.123   3.634   8.000  1.0022 -0.6326  1.8907
 1870TIP3    H227246   2.155   3.776   8.042  0.0834  0.2091 -0.0813
 1871TIP3   OH227247   6.961   2.622   5.533 -0.3395  0.0529 -0.0664
 1871TIP3    H127248   6.897   2.686   5.502 -1.0597 -0.4202  0.3920
 1871TIP3    H227249   7.025   2.674   5.582 -0.5152  0.5096 -0.3168
 1872TIP3   OH227250   1.824   6.657   2.374  0.1065  0.0734  0.5060
 1872TIP3    H127251   1.893   6.717   2.348 -0.5252  0.5717 -0.0368
 1872TIP3    H227252   1.849   6.629   2.463  0.7286  0.6382  0.5160
 1873TIP3   OH227253   6.663   3.637   7.532 -0.0872 -0.0074 -0.2952
 1873TIP3    H127254   6.700   3.666   7.449  0.0638 -1.3783 -0.7414
 1873TIP3    H227255   6.582   3.687   7.542  1.3826  2.4140  0.2653
 1874TIP3   OH227256   7.015   4.230   1.269  0.0040  0.5087  0.0323
 1874TIP3    H127257   7.041   4.308   1.220 -0.9794  1.6858  1.2991
 1874TIP3    H227258   7.063   4.236   1.352 -0.1723 -0.1864  0.1958
 1875TIP3   OH227259   1.100   3.746   7.539  0.0765  0.0117  0.7546
 1875TIP3    H127260   1.148   3.724   7.458 -0.4121  0.5485  0.3115
 1875TIP3    H227261   1.043   3.671   7.554 -0.5883  0.3471  0.0080
 1876TIP3   OH227262   5.257   1.543   0.090  0.0631 -0.2519  0.2727
 1876TIP3    H127263   5.280   1.620   0.038 -1.6180  0.0840 -0.0086
 1876TIP3    H227264   5.327   1.480   0.071  0.5611  0.5928 -0.8135
 1877TIP3   OH227265   1.821   5.293   6.832 -0.5246  0.6140 -0.9335
 1877TIP3    H127266   1.870   5.228   6.882 -0.7993 -1.7946 -3.5465
 1877TIP3    H227267   1.852   5.377   6.866 -0.1919 -0.7685  2.6664
 1878TIP3   OH227268   0.966   0.685   1.089 -0.3506  0.1158  0.1869
 1878TIP3    H127269   0.886   0.733   1.066  0.3583  0.9452 -0.6119
 1878TIP3    H227270   0.977   0.702   1.183 -1.2779 -0.2854  0.3845
 1879TIP3   OH227271   4.135   4.593   5.781  0.5418  0.1920 -0.1245
 1879TIP3    H127272   4.068   4.540   5.737 -1.0400  0.5288  1.7416
 1879TIP3    H227273   4.089   4.674   5.803  0.6365 -0.6158  3.6592
 1880TIP3   OH227274   1.996   5.041   6.118 -0.1839  0.1548 -0.0739
 1880TIP3    H127275   1.939   4.988   6.063  0.3361 -1.6875  1.0833
 1880TIP3    H227276   2.083   5.030   6.079 -0.0043 -0.2149  0.4210
 1881TIP3   OH227277   3.159   0.814   7.649 -0.4057  0.0047 -0.1404
 1881TIP3    H127278   3.138   0.907   7.649 -2.1296 -0.2700  2.7006
 1881TIP3    H227279   3.079   0.771   7.677 -0.4869 -2.6986 -3.7659
 1882TIP3   OH227280   3.491   1.976   6.797  0.1724  0.4685  0.2477
 1882TIP3    H127281   3.436   1.930   6.735  1.0723  0.6155 -0.7001
 1882TIP3    H227282   3.433   1.999   6.870 -0.8501  0.0907 -0.4352
 1883TIP3   OH227283   2.035   5.605   0.769 -0.4559  0.0200  0.2086
 1883TIP3    H127284   1.963   5.585   0.828 -2.6780  0.3955 -2.2149
 1883TIP3    H227285   2.056   5.521   0.727  0.1517  0.0210  0.5011
 1884TIP3   OH227286   3.731   0.569   0.285  0.3721 -0.0784 -0.3894
 1884TIP3    H127287   3.687   0.509   0.225  0.7770 -1.1571  0.3427
 1884TIP3    H227288   3.726   0.654   0.243  0.3176 -0.7332 -1.7691
 1885TIP3   OH227289   2.472   2.060   1.040 -0.0109 -0.0271  0.5996
 1885TIP3    H127290   2.565   2.083   1.048 -0.4704  1.8117  1.1346
 1885TIP3    H227291   2.468   1.967   1.062  1.8952 -0.5375 -0.9174
 1886TIP3   OH227292   1.220   0.835   6.516  0.0286 -0.8872  0.6232
 1886TIP3    H127293   1.281   0.870   6.451 -0.5131 -0.2403  0.4594
 1886TIP3    H227294   1.227   0.740   6.506 -0.5078 -0.8007 -0.8220
 1887TIP3   OH227295   5.314   1.386   7.167  0.2549 -0.1598  0.2638
 1887TIP3    H127296   5.342   1.407   7.256  1.9598  0.0111 -0.2770
 1887TIP3    H227297   5.337   1.463   7.115 -2.4343  0.5309 -0.0497
 1888TIP3   OH227298   6.891   4.945   6.239 -0.3296 -0.3128  0.5027
 1888TIP3    H127299   6.797   4.950   6.254 -0.6619  1.2434 -1.5611
 1888TIP3    H227300   6.899   4.904   6.153  0.9195 -0.9072  0.8771
 1889TIP3   OH227301   5.585   4.695   6.694 -0.0951  0.2410 -0.4045
 1889TIP3    H127302   5.679   4.715   6.692 -0.2411  1.1036  0.6730
 1889TIP3    H227303   5.561   4.699   6.786 -0.6819 -2.6203 -0.3218
 1890TIP3   OH227304   3.836   1.494   7.093  0.5193 -0.0098  0.5336
 1890TIP3    H127305   3.898   1.536   7.033  0.1821  2.0166  1.5418
 1890TIP3    H227306   3.887   1.427   7.137  1.3450 -0.0185 -0.3949
 1891TIP3   OH227307   4.125   1.999   0.560  0.1822  0.8862  0.2876
 1891TIP3    H127308   4.111   2.077   0.506  0.8586  0.4906 -0.4828
 1891TIP3    H227309   4.069   2.012   0.636 -0.1541  1.8526 -0.1112
 1892TIP3   OH227310   1.956   5.197   6.533 -0.4564  0.3216 -0.3320
 1892TIP3    H127311   1.899   5.148   6.473 -0.4749 -0.6266  0.4348
 1892TIP3    H227312   1.975   5.135   6.604 -0.8894  1.5703  0.9337
 1893TIP3   OH227313   5.847   2.478   1.660 -0.2499 -0.2695  0.3585
 1893TIP3    H127314   5.852   2.572   1.640 -0.1697 -0.7916 -2.4130
 1893TIP3    H227315   5.931   2.458   1.702  0.5104  0.5589 -0.7263
 1894TIP3   OH227316   2.815   0.062   1.719 -0.5763  0.4845  0.5571
 1894TIP3    H127317   2.814  -0.026   1.682 -0.4911  0.8245 -0.2824
 1894TIP3    H227318   2.758   0.057   1.796  0.2689 -0.5534  1.1338
 1895TIP3   OH227319   1.168   4.369   1.304 -0.3973 -0.1549  0.2045
 1895TIP3    H127320   1.143   4.461   1.295 -0.2051 -0.0936  0.2926
 1895TIP3    H227321   1.183   4.356   1.397 -0.2074 -0.2176  0.1673
 1896TIP3   OH227322   2.628   0.835   2.030  0.0523  0.3019  0.1382
 1896TIP3    H127323   2.621   0.912   1.974  0.9018 -0.3766 -0.9162
 1896TIP3    H227324   2.554   0.780   2.004  1.7422 -1.0870 -2.0534
 1897TIP3   OH227325   2.827   0.965   7.610  0.0597  0.2071  0.6013
 1897TIP3    H127326   2.766   1.038   7.611 -1.4617 -0.9197 -1.4475
 1897TIP3    H227327   2.860   0.963   7.519  0.7232 -1.1261  0.8503
 1898TIP3   OH227328   4.223   0.138   1.240  0.2415 -0.0428 -0.4443
 1898TIP3    H127329   4.141   0.166   1.280 -0.8474 -1.0560 -1.8563
 1898TIP3    H227330   4.271   0.094   1.311 -0.2668  0.8624  0.4768
 1899TIP3   OH227331   4.343   5.560   6.242  0.0259 -0.0153 -0.2323
 1899TIP3    H127332   4.422   5.523   6.284 -0.3384 -1.9758 -1.1511
 1899TIP3    H227333   4.273   5.541   6.304 -0.0813 -0.3944 -0.4684
 1900TIP3   OH227334   7.214   6.761   6.493 -0.3247  0.1596 -0.0862
 1900TIP3    H127335   7.119   6.751   6.502 -0.2272 -1.1933 -0.2350
 1900TIP3    H227336   7.228   6.769   6.398 -0.2285 -0.6342 -0.1463
 1901TIP3   OH227337   1.859   4.931   7.852 -0.1587 -0.1020  0.0285
 1901TIP3    H127338   1.780   4.978   7.878 -0.2575 -0.1687 -0.1483
 1901TIP3    H227339   1.863   4.856   7.912 -0.9202 -0.8040 -0.7502
 1902TIP3   OH227340   0.257   7.054   7.372  0.0198 -0.8378  0.7654
 1902TIP3    H127341   0.178   7.013   7.336 -0.1407  0.2377 -0.1951
 1902TIP3    H227342   0.325   7.035   7.308  0.4209 -1.3133  1.3300
 1903TIP3   OH227343   1.185   1.180   7.292 -0.2079 -0.2817  0.2602
 1903TIP3    H127344   1.249   1.251   7.289 -0.2429 -0.2381  0.5839
 1903TIP3    H227345   1.230   1.106   7.250 -0.8801  0.4913 -2.0122
 1904TIP3   OH227346   3.026   1.728   7.949  0.5601  1.0267  0.1220
 1904TIP3    H127347   2.984   1.776   8.021 -0.0754 -0.7330  0.9921
 1904TIP3    H227348   3.059   1.647   7.990 -0.3289 -0.3165 -1.6575
 1905TIP3   OH227349   2.532   3.484   7.385 -0.1982  0.0455  0.0793
 1905TIP3    H127350   2.592   3.449   7.451  0.4076  1.0027  0.0626
 1905TIP3    H227351   2.445   3.458   7.415  0.1021  0.1063  1.0317
 1906TIP3   OH227352   4.453   5.849   6.454  0.7968 -0.1971  0.2268
 1906TIP3    H127353   4.456   5.943   6.471  2.7369 -0.2120  0.1601
 1906TIP3    H227354   4.425   5.810   6.536  0.2646  0.4162  0.3414
 1907TIP3   OH227355   6.000   3.257   0.682 -0.6835 -0.3644  0.2867
 1907TIP3    H127356   5.965   3.171   0.658  1.4405 -1.7484  1.8688
 1907TIP3    H227357   5.949   3.282   0.759 -2.6312  0.8081 -1.2579
 1908TIP3   OH227358   6.740   1.351   2.204  0.0216 -0.0156  0.1382
 1908TIP3    H127359   6.786   1.431   2.177 -0.1495 -0.1749 -0.6365
 1908TIP3    H227360   6.809   1.295   2.239  0.1724  0.3902  0.5039
 1909TIP3   OH227361   0.768   4.905   6.880 -0.1984  0.4148  0.3830
 1909TIP3    H127362   0.755   4.861   6.965  1.6128  0.6553  0.8341
 1909TIP3    H227363   0.704   4.864   6.822 -0.5172 -0.7680  1.5117
 1910TIP3   OH227364   0.091   3.802   5.807 -0.1694  0.0635 -0.0385
 1910TIP3    H127365   0.071   3.893   5.829 -0.8958  0.4333 -2.0521
 1910TIP3    H227366   0.012   3.771   5.762  0.0123 -1.6286  0.7253
 1911TIP3   OH227367   1.846   5.548   0.477  0.3494  0.0944 -0.8626
 1911TIP3    H127368   1.777   5.559   0.542  0.5267  0.3378 -0.7128
 1911TIP3    H227369   1.801   5.521   0.398  0.3092 -2.3439 -0.0959
 1912TIP3   OH227370   4.754   1.294   0.373  0.6272  0.3461  0.0488
 1912TIP3    H127371   4.694   1.357   0.332 -0.7069 -1.0209 -0.2081
 1912TIP3    H227372   4.838   1.310   0.331 -0.8699 -1.8687 -4.4736
 1913TIP3   OH227373   5.621   5.331   6.929 -0.7686  0.0707  0.3153
 1913TIP3    H127374   5.703   5.380   6.916 -2.2608  2.3910 -0.9633
 1913TIP3    H227375   5.623   5.307   7.022  1.7274 -0.7404  0.1380
 1914TIP3   OH227376   6.811   6.775   0.098  0.1576 -0.3768  0.2583
 1914TIP3    H127377   6.752   6.704   0.072  2.2586 -1.4023 -2.1450
 1914TIP3    H227378   6.851   6.804   0.016  0.8132  2.3033  1.4384
 1915TIP3   OH227379   4.802   4.930   7.005 -0.1376 -0.2628  0.5525
 1915TIP3    H127380   4.885   4.884   6.994 -1.0201 -2.2767  1.8098
 1915TIP3    H227381   4.823   5.022   6.986  1.7029 -1.1125 -2.0293
 1916TIP3   OH227382   2.836   4.833   7.292 -0.1226 -0.0825 -0.0405
 1916TIP3    H127383   2.768   4.883   7.336  1.1534  1.5743  0.1615
 1916TIP3    H227384   2.887   4.794   7.363 -1.3655 -2.1615 -0.1940
 1917TIP3   OH227385   1.752   2.542   2.032  0.1756 -0.7787  0.3850
 1917TIP3    H127386   1.789   2.472   2.086  0.0507 -1.8608 -0.8818
 1917TIP3    H227387   1.689   2.498   1.975  0.7774  0.2141 -1.1016
 1918TIP3   OH227388   4.184   1.690   6.123  0.1120  0.0325  0.1734
 1918TIP3    H127389   4.245   1.619   6.144 -0.0487  0.1911  1.2211
 1918TIP3    H227390   4.239   1.757   6.083  0.4323 -0.2782  0.0796
 1919TIP3   OH227391   6.946   2.993   6.445  0.5047 -0.2241 -0.4602
 1919TIP3    H127392   6.891   3.009   6.368 -0.2882 -1.3826 -0.1591
 1919TIP3    H227393   6.904   3.044   6.515  1.5205  1.2520 -0.8679
 1920TIP3   OH227394   6.628   0.198   1.121 -0.0624  0.6635 -0.0658
 1920TIP3    H127395   6.667   0.174   1.205  0.9496 -0.2722 -0.7963
 1920TIP3    H227396   6.541   0.158   1.124  0.3458 -0.2426  0.1282
 1921TIP3   OH227397   1.669   1.756   0.240  0.0512  0.2126  0.4029
 1921TIP3    H127398   1.588   1.792   0.204 -0.5975  0.2211  1.7942
 1921TIP3    H227399   1.645   1.669   0.271  0.7828 -0.1046  0.0968
 1922TIP3   OH227400   4.930   0.890   2.002 -0.5063  0.1078 -0.2096
 1922TIP3    H127401   4.994   0.923   2.064  0.2093  0.0202 -0.8947
 1922TIP3    H227402   4.871   0.836   2.055 -0.5841  0.9527  0.5866
 1923TIP3   OH227403   1.337   4.776   0.897  0.2002 -0.1534 -0.2609
 1923TIP3    H127404   1.268   4.776   0.962  0.0420  0.5935 -0.4157
 1923TIP3    H227405   1.362   4.868   0.888  0.1169 -0.2263 -1.3560
 1924TIP3   OH227406   4.226   5.962   6.247  0.6831 -0.6002 -0.6685
 1924TIP3    H127407   4.273   5.987   6.327  0.4868  0.4643 -0.8750
 1924TIP3    H227408   4.286   5.903   6.201  1.6137  0.3359 -0.6825
 1925TIP3   OH227409   3.648   2.623   6.501  0.5862  0.0663  0.0129
 1925TIP3    H127410   3.718   2.688   6.502  0.8589 -0.1840 -1.2340
 1925TIP3    H227411   3.693   2.539   6.511  0.3642 -0.0220  0.2719
 1926TIP3   OH227412   5.356   1.696   0.537  0.1905 -0.1325  0.1713
 1926TIP3    H127413   5.293   1.700   0.465  0.5565 -1.8384 -0.2977
 1926TIP3    H227414   5.439   1.719   0.496  0.0991  0.8380  0.5067
 1927TIP3   OH227415   6.847   2.709   1.107  0.1113  0.2287  0.1746
 1927TIP3    H127416   6.840   2.656   1.028  0.5196 -0.3019  0.4842
 1927TIP3    H227417   6.924   2.674   1.153 -1.5949 -1.2399  2.1143
 1928TIP3   OH227418   4.572   5.956   0.653 -0.4593  0.2509  0.4789
 1928TIP3    H127419   4.593   5.996   0.738 -1.3845 -0.3125  0.9862
 1928TIP3    H227420   4.501   5.894   0.672 -0.8614  0.3062 -0.7555
 1929TIP3   OH227421   6.414   0.844   1.897 -0.2619  0.4038  0.1915
 1929TIP3    H127422   6.504   0.855   1.927 -0.1988  0.6254 -0.0802
 1929TIP3    H227423   6.422   0.804   1.810 -0.4644 -1.2130  0.8714
 1930TIP3   OH227424   0.807   3.605   0.994 -0.1729 -0.4459  1.0806
 1930TIP3    H127425   0.833   3.520   0.959 -0.2583 -0.2010  0.4249
 1930TIP3    H227426   0.866   3.668   0.953  0.5090 -0.2710  2.2567
 1931TIP3   OH227427   5.397   3.797   7.206  0.1651 -0.2193 -0.1387
 1931TIP3    H127428   5.335   3.865   7.179 -0.7668 -0.3728  1.4832
 1931TIP3    H227429   5.468   3.845   7.247  0.7085 -0.0989 -1.1902
 1932TIP3   OH227430   2.412   6.116   7.953 -0.5862 -0.2248  0.7942
 1932TIP3    H127431   2.328   6.099   7.995 -1.0736  0.5302  0.1598
 1932TIP3    H227432   2.454   6.030   7.947 -1.5892 -0.7170  0.5463
 1933TIP3   OH227433   6.723   3.126   5.726  0.0069  0.5045  0.0700
 1933TIP3    H127434   6.772   3.073   5.788 -0.1391 -2.0353 -1.8587
 1933TIP3    H227435   6.634   3.130   5.762 -0.6687 -2.8503 -0.9127
 1934TIP3   OH227436   1.665   3.814   5.527  0.2702  0.1430  0.4369
 1934TIP3    H127437   1.710   3.832   5.445  1.2753  0.1465  0.9754
 1934TIP3    H227438   1.669   3.896   5.576 -1.0282  0.3785  0.1814
 1935TIP3   OH227439   3.633   6.977   1.545  0.3160 -0.1594  0.1226
 1935TIP3    H127440   3.669   6.952   1.630  2.1422  0.2267 -0.4809
 1935TIP3    H227441   3.614   6.894   1.501  0.2043 -0.3728  0.5684
 1936TIP3   OH227442   6.168   0.974   1.482 -0.0455 -0.6723  0.0201
 1936TIP3    H127443   6.081   0.955   1.449  0.2816 -1.0858 -0.6254
 1936TIP3    H227444   6.173   1.070   1.484 -1.8215 -0.4781  3.6020
 1937TIP3   OH227445   0.497   2.013   7.083 -0.5663 -0.1516 -0.5526
 1937TIP3    H127446   0.507   2.104   7.058  1.3902 -0.3080 -0.5271
 1937TIP3    H227447   0.426   2.013   7.147 -1.9484  1.0249 -2.0061
 1938TIP3   OH227448   6.376   1.739   1.794 -0.2665  0.4482  0.1260
 1938TIP3    H127449   6.316   1.685   1.846  0.7567 -1.4379 -0.5430
 1938TIP3    H227450   6.323   1.770   1.721 -0.7275 -0.2001  0.1740
 1939TIP3   OH227451   4.469   6.538   6.278  0.1441  0.2632  0.1020
 1939TIP3    H127452   4.441   6.447   6.271  0.9965 -0.2238  2.2134
 1939TIP3    H227453   4.541   6.546   6.216  0.5469 -0.7233  0.4254
 1940TIP3   OH227454   5.867   5.546   7.943 -0.7373 -0.0712 -0.3088
 1940TIP3    H127455   5.944   5.510   7.898 -0.4162 -1.1248  0.9948
 1940TIP3    H227456   5.893   5.548   8.035 -2.3559 -0.6804  0.1953
 1941TIP3   OH227457   5.743   3.789   7.030 -0.2422  0.1935  0.4474
 1941TIP3    H127458   5.692   3.730   7.086  0.3869  0.4401  1.3129
 1941TIP3    H227459   5.826   3.743   7.017  0.7745  1.4034  2.2245
 1942TIP3   OH227460   5.115   5.648   6.277  0.2697  0.0737  0.5358
 1942TIP3    H127461   5.106   5.574   6.216 -0.4603  0.2483  0.4219
 1942TIP3    H227462   5.182   5.619   6.340  0.0261 -0.6658  0.4663
 1943TIP3   OH227463   3.132   3.680   7.101 -0.2946  0.1110  0.7886
 1943TIP3    H127464   3.159   3.756   7.152 -0.2385 -0.2359  1.2766
 1943TIP3    H227465   3.190   3.680   7.025  2.4534 -1.6597  2.6761
 1944TIP3   OH227466   1.096   6.615   0.998 -0.3295 -0.4479 -0.4761
 1944TIP3    H127467   1.134   6.589   0.913  0.2055 -0.9537 -0.0938
 1944TIP3    H227468   1.015   6.564   1.005  0.2590 -1.3650 -0.1360
 1945TIP3   OH227469   0.731   6.957   6.627  0.2552  0.1667  0.2569
 1945TIP3    H127470   0.643   6.989   6.604 -0.4046 -2.5074 -1.4289
 1945TIP3    H227471   0.753   6.895   6.557  2.4045 -1.1729  1.9779
 1946TIP3   OH227472   1.335   5.753   7.138 -0.1678 -0.1907  0.9416
 1946TIP3    H127473   1.390   5.679   7.167 -1.5375 -1.9879 -0.7552
 1946TIP3    H227474   1.377   5.784   7.058 -0.9191 -0.7747  0.3074
 1947TIP3   OH227475   2.152   6.112   0.021 -0.6705  0.4880  0.0584
 1947TIP3    H127476   2.075   6.167   0.037 -0.4392  0.2994  2.1607
 1947TIP3    H227477   2.134   6.032   0.070  0.2226 -0.1790 -0.6849
 1948TIP3   OH227478   6.703   4.132   1.928  0.1181  0.2111 -0.3932
 1948TIP3    H127479   6.651   4.052   1.921  1.2648 -0.6427  0.3986
 1948TIP3    H227480   6.681   4.182   1.849 -0.9236 -0.6891 -0.7040
 1949TIP3   OH227481   5.349   5.126   6.445  0.0016  0.2045 -0.2642
 1949TIP3    H127482   5.283   5.188   6.415  0.3303  0.8652  0.3306
 1949TIP3    H227483   5.412   5.180   6.494  0.5599 -0.5257 -0.1540
 1950TIP3   OH227484   2.935   3.906   7.024  0.1696 -0.1724 -0.2252
 1950TIP3    H127485   2.985   3.882   6.946 -2.1692 -2.7022 -1.0930
 1950TIP3    H227486   2.947   3.832   7.084 -1.9717 -0.5700 -0.2271
 1951TIP3   OH227487   6.287   3.914   7.177  0.2639 -0.2836 -0.0747
 1951TIP3    H127488   6.383   3.920   7.170  0.1646 -0.2333 -1.7781
 1951TIP3    H227489   6.268   3.824   7.152 -0.2806  0.3780 -2.2619
 1952TIP3   OH227490   4.414   4.898   7.386  0.4911 -0.4590  0.2058
 1952TIP3    H127491   4.446   4.838   7.320 -1.2698 -1.4192  0.1899
 1952TIP3    H227492   4.458   4.981   7.366  1.2118 -1.1374 -1.1518
 1953TIP3   OH227493   1.386   6.233   1.640  0.5092 -0.1455 -0.2768
 1953TIP3    H127494   1.384   6.174   1.564  1.2348 -1.1520  0.4467
 1953TIP3    H227495   1.477   6.227   1.671 -0.3214 -1.7164  2.1283
 1954TIP3   OH227496   2.430   4.539   5.451 -0.1947 -0.2925 -0.0433
 1954TIP3    H127497   2.353   4.496   5.488 -1.1167  1.0496 -0.3415
 1954TIP3    H227498   2.480   4.467   5.411 -0.6969 -1.3344  1.1355
 1955TIP3   OH227499   4.592   0.161   0.959  0.0166 -0.4352 -0.2909
 1955TIP3    H127500   4.657   0.169   0.890  0.2096 -0.8551 -0.1589
 1955TIP3    H227501   4.612   0.232   1.019 -1.5688  1.3942 -1.8159
 1956TIP3   OH227502   3.911   3.362   1.677 -0.1647  0.4213  0.2425
 1956TIP3    H127503   3.919   3.273   1.643  1.0808  0.8133 -0.5450
 1956TIP3    H227504   3.964   3.415   1.618 -2.2645  1.9870 -0.3611
 1957TIP3   OH227505   5.533   1.384   7.541 -0.2200 -0.3656 -0.2151
 1957TIP3    H127506   5.517   1.447   7.611  0.0899  0.7848 -1.1517
 1957TIP3    H227507   5.585   1.432   7.477  0.0047 -1.5749 -0.9682
 1958TIP3   OH227508   3.383   5.728   7.064 -1.0444 -0.0776  0.8348
 1958TIP3    H127509   3.474   5.756   7.051 -1.2848 -0.3067 -2.1111
 1958TIP3    H227510   3.339   5.804   7.101  0.2987  0.0768  2.2005
 1959TIP3   OH227511   2.533   3.379   7.920 -0.2451  0.2035  0.2330
 1959TIP3    H127512   2.455   3.362   7.974  0.2748 -0.4563  0.8009
 1959TIP3    H227513   2.606   3.368   7.981  0.5256 -3.0353 -1.0989
 1960TIP3   OH227514   4.916   2.915   7.854 -0.4430  0.1761  0.5964
 1960TIP3    H127515   4.975   2.852   7.895  0.8066  0.8566 -0.0932
 1960TIP3    H227516   4.841   2.863   7.826  0.6298 -1.0466 -0.1235
 1961TIP3   OH227517   6.652   3.288   6.022 -0.5060  0.8469 -0.0381
 1961TIP3    H127518   6.698   3.338   5.955 -1.2819 -0.9691 -2.0483
 1961TIP3    H227519   6.561   3.319   6.017 -0.9720 -0.5722 -1.2359
 1962TIP3   OH227520   4.406   6.688   7.561 -0.4540  0.7460  0.5330
 1962TIP3    H127521   4.402   6.711   7.469 -0.9353 -0.3060  0.2742
 1962TIP3    H227522   4.499   6.692   7.583 -0.1709 -0.3565 -0.3769
 1963TIP3   OH227523   3.104   2.402   7.820 -0.5226  0.0506  0.2545
 1963TIP3    H127524   3.194   2.395   7.853 -0.1590 -2.7139 -1.0221
 1963TIP3    H227525   3.050   2.381   7.896 -0.2508  2.8556  1.3390
 1964TIP3   OH227526   3.671   2.104   1.619  0.3182  0.1746  0.1320
 1964TIP3    H127527   3.747   2.138   1.571  0.8438 -0.3847  0.5397
 1964TIP3    H227528   3.684   2.133   1.709  0.5616 -0.7287  0.4013
 1965TIP3   OH227529   0.264   5.455   7.859 -0.4447 -0.8245  0.2805
 1965TIP3    H127530   0.260   5.550   7.864  0.3323 -0.7668  0.0181
 1965TIP3    H227531   0.335   5.431   7.919  1.5137 -0.9555 -1.9218
 1966TIP3   OH227532   0.187   3.438   0.388  0.3853 -0.0237 -0.1192
 1966TIP3    H127533   0.280   3.421   0.401  0.4467 -0.6699 -1.2734
 1966TIP3    H227534   0.172   3.419   0.296 -0.9129 -0.0165  0.0722
 1967TIP3   OH227535   2.377   4.991   6.395 -0.3894  0.1659 -0.1878
 1967TIP3    H127536   2.307   5.045   6.359 -0.8751 -1.0307 -1.0949
 1967TIP3    H227537   2.457   5.041   6.378 -0.9467  1.3199  0.4239
 1968TIP3   OH227538   1.544   1.716   1.007 -0.1286 -0.3795 -0.8349
 1968TIP3    H127539   1.511   1.643   1.059  0.8072 -1.8327 -2.1728
 1968TIP3    H227540   1.611   1.757   1.061  0.0172 -1.1299 -0.4421
 1969TIP3   OH227541   5.181   0.964   0.199  0.2521 -0.0056  0.1389
 1969TIP3    H127542   5.093   0.990   0.227 -0.2022 -0.5516 -0.7466
 1969TIP3    H227543   5.227   0.945   0.281  0.3128  2.5301  0.7775
 1970TIP3   OH227544   4.928   6.625   7.068 -0.0746  0.0341 -0.0808
 1970TIP3    H127545   4.961   6.682   7.137 -0.0198  1.4965 -1.2812
 1970TIP3    H227546   5.006   6.592   7.024 -0.1451  0.5047 -0.5571
 1971TIP3   OH227547   3.379   0.338   6.994 -0.0312  0.6702  0.2974
 1971TIP3    H127548   3.385   0.257   7.045  1.6232  0.3700 -0.2994
 1971TIP3    H227549   3.449   0.393   7.028  0.7224  0.6978 -1.2088
 1972TIP3   OH227550   4.003   3.227   2.059 -0.2008 -0.6218  0.3718
 1972TIP3    H127551   4.094   3.223   2.028 -0.4166 -2.5557 -0.1821
 1972TIP3    H227552   4.007   3.192   2.148 -0.4172 -0.8385  0.2964
 1973TIP3   OH227553   2.800   3.230   0.678 -0.1451  0.1376 -0.0847
 1973TIP3    H127554   2.791   3.230   0.582  1.4167 -0.6337 -0.2702
 1973TIP3    H227555   2.761   3.147   0.705  0.1528 -0.0222 -0.1431
 1974TIP3   OH227556   3.428   2.843   0.764 -0.2864  0.2770  0.1064
 1974TIP3    H127557   3.408   2.895   0.842  2.0074  0.5911  0.5376
 1974TIP3    H227558   3.493   2.894   0.716 -1.8784  0.2638 -2.2828
 1975TIP3   OH227559   1.836   6.793   0.841  0.3223  0.0010  0.2449
 1975TIP3    H127560   1.927   6.773   0.820  0.1381 -0.5601 -0.0292
 1975TIP3    H227561   1.802   6.713   0.880 -0.2202  0.0214 -0.1795
 1976TIP3   OH227562   5.172   6.349   1.406 -0.2402 -0.1856 -1.1866
 1976TIP3    H127563   5.225   6.364   1.484  0.5060 -0.4175 -1.6446
 1976TIP3    H227564   5.143   6.436   1.380 -1.2173 -0.1741 -0.1695
 1977TIP3   OH227565   0.196   2.074   0.109  0.4142  0.0788  0.7668
 1977TIP3    H127566   0.263   2.133   0.143  0.3430  0.7348 -0.1920
 1977TIP3    H227567   0.113   2.112   0.139  0.4573 -0.7688  2.0082
 1978TIP3   OH227568   6.260   5.206   6.048  0.4562 -0.0947  0.9183
 1978TIP3    H127569   6.251   5.114   6.025 -0.4069 -0.0282  0.9686
 1978TIP3    H227570   6.316   5.243   5.980 -0.9200 -0.2017 -0.3074
 1979TIP3   OH227571   5.273   1.399   7.458  0.2706  0.6520 -0.0936
 1979TIP3    H127572   5.227   1.436   7.534 -1.5588 -0.3425 -0.6300
 1979TIP3    H227573   5.364   1.391   7.486  0.2235  2.9617  0.9545
 1980TIP3   OH227574   2.549   5.864   7.991 -0.0501  0.5542  0.0353
 1980TIP3    H127575   2.583   5.848   8.079  0.8589 -0.5902 -0.4990
 1980TIP3    H227576   2.458   5.832   7.994  0.0660  0.2617  0.4792
 1981TIP3   OH227577   6.604   6.473   7.408  0.3090  0.1204  0.5236
 1981TIP3    H127578   6.538   6.540   7.390 -0.3031 -0.8551 -1.0464
 1981TIP3    H227579   6.626   6.485   7.500 -0.3987  1.9300  0.4922
 1982TIP3   OH227580   3.003   2.593   0.773 -0.8717  1.1335  0.0269
 1982TIP3    H127581   3.039   2.534   0.839 -1.3110  0.2181 -0.5299
 1982TIP3    H227582   3.076   2.613   0.715 -0.7847  0.9222  0.0648
 1983TIP3   OH227583   3.355   0.065   1.204  0.2401 -0.1868  0.1764
 1983TIP3    H127584   3.335   0.074   1.110  0.8412 -1.9882 -0.1651
 1983TIP3    H227585   3.330  -0.025   1.225  1.3591 -0.2380  1.4257
 1984TIP3   OH227586   5.280   6.791   1.948  0.1599  0.0231  0.0401
 1984TIP3    H127587   5.346   6.847   1.990 -1.1303  0.5689  1.4123
 1984TIP3    H227588   5.199   6.810   1.994 -1.0436 -0.4679 -1.7496
 1985TIP3   OH227589   0.295   5.423   7.297  0.1923  0.1269 -0.4598
 1985TIP3    H127590   0.239   5.468   7.234 -1.8755 -3.3093 -1.3745
 1985TIP3    H227591   0.244   5.420   7.378  0.0653 -0.8885 -0.5569
 1986TIP3   OH227592   6.262   0.467   7.023  0.2202 -0.4604  0.4687
 1986TIP3    H127593   6.343   0.420   7.041  0.0595 -0.6164  0.7933
 1986TIP3    H227594   6.207   0.404   6.976  0.0393 -0.5664  0.8238
 1987TIP3   OH227595   2.740   1.528   7.083  0.0510 -0.6227 -0.2338
 1987TIP3    H127596   2.690   1.526   7.002  0.4159  0.9119 -0.5263
 1987TIP3    H227597   2.832   1.525   7.055  0.1996  0.6596  0.0453
 1988TIP3   OH227598   2.470   4.554   7.892 -0.4846  0.3449  0.1322
 1988TIP3    H127599   2.553   4.510   7.907 -0.9210 -0.0773  1.3685
 1988TIP3    H227600   2.484   4.604   7.811  0.6104 -0.5691 -0.2651
 1989TIP3   OH227601   0.862   0.819   7.439 -0.1945 -0.0357  0.2814
 1989TIP3    H127602   0.790   0.780   7.488  1.0770 -4.2790 -0.8352
 1989TIP3    H227603   0.939   0.807   7.495  0.0375  3.2352  0.8951
 1990TIP3   OH227604   6.674   4.887   6.511 -0.1258 -0.0355 -0.2110
 1990TIP3    H127605   6.605   4.834   6.550 -0.1951  0.3234  0.1563
 1990TIP3    H227606   6.628   4.950   6.455 -0.1577  0.7743  0.7140
 1991TIP3   OH227607   4.017   6.660   6.787 -0.6330  0.4605 -0.0263
 1991TIP3    H127608   3.941   6.700   6.745  0.3725  3.3438  0.6232
 1991TIP3    H227609   4.089   6.673   6.725  0.0764  1.3283  0.9293
 1992TIP3   OH227610   7.118   6.653   2.154  0.5099 -0.4367  0.7099
 1992TIP3    H127611   7.125   6.748   2.146 -0.2345 -0.4617 -0.4154
 1992TIP3    H227612   7.183   6.619   2.092  0.6161 -0.6693  0.9459
 1993TIP3   OH227613   6.682   3.401   0.537 -0.5788 -0.6870  0.3220
 1993TIP3    H127614   6.659   3.315   0.573 -1.3195 -0.1587  1.1420
 1993TIP3    H227615   6.736   3.441   0.605  2.0091 -1.4762 -1.1074
 1994TIP3   OH227616   3.860   0.334   7.228 -0.3485 -0.6313  0.2472
 1994TIP3    H127617   3.925   0.359   7.294  0.4232 -2.2035  0.1270
 1994TIP3    H227618   3.905   0.345   7.144 -0.4932 -0.9798  0.1215
 1995TIP3   OH227619   5.316   6.542   1.846  0.5198 -0.3427 -0.7493
 1995TIP3    H127620   5.403   6.517   1.814 -0.1775 -0.4191 -2.7452
 1995TIP3    H227621   5.330   6.625   1.892  1.6573 -0.4061 -0.9505
 1996TIP3   OH227622   5.360   3.587   0.284  0.4183 -0.0453  0.4451
 1996TIP3    H127623   5.297   3.657   0.301  1.4490  0.8600  0.6694
 1996TIP3    H227624   5.324   3.539   0.210 -0.4424  0.5551  0.4624
 1997TIP3   OH227625   6.933   5.931   0.749 -0.1731  0.2023 -0.3592
 1997TIP3    H127626   6.913   5.840   0.726  0.8099  0.4794 -2.5603
 1997TIP3    H227627   7.020   5.928   0.787 -0.5092  0.1292  0.4179
 1998TIP3   OH227628   3.395   1.806   0.466 -0.5615 -0.7064 -0.0705
 1998TIP3    H127629   3.454   1.750   0.517 -0.1516  1.1725  1.6496
 1998TIP3    H227630   3.308   1.773   0.486 -0.2772 -1.5744 -0.1935
 1999TIP3   OH227631   3.898   6.127   7.255  0.1693 -0.5989  0.5155
 1999TIP3    H127632   3.934   6.083   7.331 -1.7975 -1.1364  1.2068
 1999TIP3    H227633   3.829   6.184   7.290 -1.1646 -1.2808 -0.8699
 2000TIP3   OH227634   3.540   6.839   6.658 -0.3487 -0.4571 -0.2212
 2000TIP3    H127635   3.473   6.862   6.722  1.1780 -0.1800  1.3688
 2000TIP3    H227636   3.516   6.887   6.579 -1.3504  0.5741  0.6793
 2001TIP3   OH227637   3.457   4.720   7.196 -0.2294  0.2757 -0.6347
 2001TIP3    H127638   3.417   4.645   7.239  0.3456  0.4660  0.2641
 2001TIP3    H227639   3.386   4.785   7.189 -0.1647  0.5253  0.7311
 2002TIP3   OH227640   2.773   0.988   1.667  0.3485 -0.5338 -0.7433
 2002TIP3    H127641   2.782   0.908   1.719  0.8786  0.2146  0.3729
 2002TIP3    H227642   2.836   0.978   1.596  2.3570 -0.0281  0.8719
 2003TIP3   OH227643   2.640   5.835   0.247  0.2732 -0.4756  0.6162
 2003TIP3    H127644   2.618   5.749   0.282 -1.5602  0.6660  2.4228
 2003TIP3    H227645   2.619   5.896   0.317  0.7418  1.5453 -0.9201
 2004TIP3   OH227646   2.316   4.869   6.690 -0.6265 -0.0471 -0.1676
 2004TIP3    H127647   2.350   4.892   6.603  1.1304  0.9928  0.7497
 2004TIP3    H227648   2.311   4.952   6.737 -1.5873 -0.5941  0.7481
 2005TIP3   OH227649   3.260   5.790   1.226 -0.0945 -0.1111 -0.7389
 2005TIP3    H127650   3.183   5.764   1.176  0.1665  1.0264 -1.7684
 2005TIP3    H227651   3.308   5.848   1.168 -0.0000  1.6301  0.9845
 2006TIP3   OH227652   1.212   1.218   0.095 -0.6112  0.3785 -0.1548
 2006TIP3    H127653   1.118   1.228   0.079 -0.9178 -1.7558 -0.0174
 2006TIP3    H227654   1.227   1.266   0.176 -1.8229 -0.1185  0.3989
 2007TIP3   OH227655   3.934   1.622   1.177 -0.2428 -0.6788 -0.6181
 2007TIP3    H127656   3.928   1.527   1.176  0.9366 -0.7867  0.6365
 2007TIP3    H227657   3.962   1.644   1.266  2.1641  0.6432 -1.5993
 2008TIP3   OH227658   0.989   6.416   0.448 -0.4463 -0.7056  0.0177
 2008TIP3    H127659   0.917   6.457   0.495 -0.3192 -1.0777  0.5529
 2008TIP3    H227660   0.956   6.329   0.424 -0.2255 -0.8304  0.1568
 2009TIP3   OH227661   0.787   3.827   6.785 -0.4333 -0.4831 -0.2833
 2009TIP3    H127662   0.713   3.769   6.800 -0.2149 -0.9839 -1.0664
 2009TIP3    H227663   0.855   3.797   6.846 -0.5623 -0.5914 -0.1931
 2010TIP3   OH227664   4.490   2.212   6.185  0.1919 -0.1197  0.3285
 2010TIP3    H127665   4.509   2.288   6.240 -1.6582  0.1748  0.6276
 2010TIP3    H227666   4.485   2.248   6.096 -0.4492  0.0747  0.4402
 2011TIP3   OH227667   6.932   1.082   6.332  0.5828  0.1510  0.2266
 2011TIP3    H127668   6.861   1.018   6.337  0.6289  0.1301  0.6811
 2011TIP3    H227669   6.910   1.138   6.258 -0.3356  0.6608  0.8703
 2012TIP3   OH227670   2.029   6.220   5.670  0.1211  0.2733 -0.3379
 2012TIP3    H127671   2.066   6.136   5.699 -2.2197 -0.3326  1.2210
 2012TIP3    H227672   1.984   6.199   5.588  0.6946  0.3323 -0.6707
 2013TIP3   OH227673   6.464   1.334   6.677 -0.0249 -0.8022  0.2677
 2013TIP3    H127674   6.451   1.291   6.592  1.1080 -0.6494 -0.0043
 2013TIP3    H227675   6.525   1.276   6.723  2.9379  1.2148 -0.7540
 2014TIP3   OH227676   5.393   3.528   6.620  0.4594  0.1278 -0.0837
 2014TIP3    H127677   5.480   3.556   6.592 -0.8905  1.1191 -3.9325
 2014TIP3    H227678   5.396   3.432   6.617  1.4819  0.1463  0.1238
 2015TIP3   OH227679   1.864   4.490   6.622  0.0235 -0.2431 -0.2307
 2015TIP3    H127680   1.866   4.506   6.527  3.0436 -1.7766 -0.5313
 2015TIP3    H227681   1.796   4.424   6.634 -0.5579  0.1424 -1.2798
 2016TIP3   OH227682   5.030   3.915   7.245 -0.5212 -0.5129 -0.2581
 2016TIP3    H127683   5.069   3.970   7.178 -0.6331  0.5256  0.4990
 2016TIP3    H227684   4.991   3.842   7.197  0.0776 -0.2036 -1.2384
 2017TIP3   OH227685   5.170   7.066   6.539 -0.0097  0.1300 -0.2382
 2017TIP3    H127686   5.140   7.069   6.448 -0.9275  0.2069  0.0580
 2017TIP3    H227687   5.197   7.155   6.559 -0.1659  0.1968 -0.3246
 2018TIP3   OH227688   5.047   4.508   0.718  0.4601 -0.3558  0.4429
 2018TIP3    H127689   5.063   4.602   0.728  2.1911 -0.5236 -0.4286
 2018TIP3    H227690   5.057   4.492   0.625 -0.3454 -1.3359  0.5127
 2019TIP3   OH227691   6.897   1.643   6.606 -0.5109 -0.2124 -0.4732
 2019TIP3    H127692   6.833   1.693   6.656  0.3539  0.3443  0.1198
 2019TIP3    H227693   6.898   1.685   6.520 -1.2395 -0.4972 -0.6267
 2020TIP3   OH227694   4.256   5.472   6.717  0.2711  0.1680 -0.6010
 2020TIP3    H127695   4.187   5.471   6.784  1.7218 -0.3274  0.9667
 2020TIP3    H227696   4.290   5.561   6.719 -0.4485  0.4810 -1.5494
 2021TIP3   OH227697   6.891   1.817   0.613  0.1766  0.0955 -0.5960
 2021TIP3    H127698   6.861   1.851   0.697  0.5678  2.5799 -1.3768
 2021TIP3    H227699   6.849   1.873   0.548  0.7482 -1.0684 -2.0216
 2022TIP3   OH227700   6.898   4.818   6.008 -0.1855  0.2627 -0.7457
 2022TIP3    H127701   6.905   4.818   5.913  0.4705  0.2377 -0.7003
 2022TIP3    H227702   6.973   4.767   6.038 -1.3873 -1.3043 -0.2793
 2023TIP3   OH227703   3.196   4.496   2.057  0.0744  0.3528 -0.0980
 2023TIP3    H127704   3.151   4.412   2.059 -0.5943  0.6695 -1.0906
 2023TIP3    H227705   3.286   4.475   2.035  0.0306 -0.1452  0.1870
 2024TIP3   OH227706   1.084   6.600   5.890 -0.0976 -0.5463  0.0016
 2024TIP3    H127707   1.111   6.513   5.920  0.8458 -0.0442  0.6552
 2024TIP3    H227708   1.012   6.583   5.830  0.4425 -1.8170 -0.3144
 2025TIP3   OH227709   5.787   2.064   1.818 -0.1829 -0.3601 -1.2456
 2025TIP3    H127710   5.706   2.113   1.836  0.7874  0.8041  0.1560
 2025TIP3    H227711   5.841   2.077   1.896  2.8394  1.9626 -3.4923
 2026TIP3   OH227712   1.701   6.125   7.447 -0.0867 -0.0252  0.1755
 2026TIP3    H127713   1.706   6.128   7.351  0.7446  0.7438  0.2319
 2026TIP3    H227714   1.722   6.034   7.469  2.0094  0.2919 -0.2826
 2027TIP3   OH227715   5.018   3.551   1.468 -0.1071 -0.7664  0.4848
 2027TIP3    H127716   5.029   3.645   1.454  0.4243 -0.8472  0.3165
 2027TIP3    H227717   5.106   3.520   1.491 -0.1583 -1.3149 -0.0217
 2028TIP3   OH227718   2.559   6.417   0.418 -0.2738 -0.0616  0.0240
 2028TIP3    H127719   2.617   6.406   0.343 -1.2295  0.5610 -0.8258
 2028TIP3    H227720   2.475   6.443   0.381 -0.5589  1.0701  1.3480
 2029TIP3   OH227721   2.355   2.912   6.643  0.0646 -0.2580  0.3411
 2029TIP3    H127722   2.298   2.905   6.719 -0.3633  2.0800  0.3264
 2029TIP3    H227723   2.401   2.829   6.639 -1.8753 -1.4576  1.5393
 2030TIP3   OH227724   5.220   6.041   0.003 -0.0393  0.1370  0.7457
 2030TIP3    H127725   5.231   6.111  -0.061 -0.8740 -1.1583 -0.8936
 2030TIP3    H227726   5.265   5.966  -0.036 -1.0217 -0.8314  1.4189
 2031TIP3   OH227727   6.901   2.511   6.611  0.1596 -0.1391  0.1697
 2031TIP3    H127728   6.808   2.494   6.597  0.3286 -0.3243 -0.8516
 2031TIP3    H227729   6.909   2.529   6.704 -1.1134  1.2435  0.0466
 2032TIP3   OH227730   4.936   1.771   1.823  0.1511  0.1870 -0.0414
 2032TIP3    H127731   5.023   1.811   1.823  0.2241  0.1509 -2.2910
 2032TIP3    H227732   4.943   1.698   1.886  1.8647 -0.0557 -0.4695
 2033TIP3   OH227733   6.699   5.865   7.494  0.2660  0.3178  0.1736
 2033TIP3    H127734   6.700   5.957   7.470  1.6831  0.5351  0.9662
 2033TIP3    H227735   6.661   5.821   7.418  1.8417  1.2918 -1.2435
 2034TIP3   OH227736   3.623   2.536   5.899  0.4857  0.5578  0.0380
 2034TIP3    H127737   3.717   2.519   5.903  0.0905 -1.7247  1.7343
 2034TIP3    H227738   3.601   2.566   5.987 -0.6281 -0.8002  0.2552
 2035TIP3   OH227739   4.004   1.008   7.275 -0.5927  0.4972 -0.7811
 2035TIP3    H127740   3.976   0.989   7.365 -0.1489 -0.1682 -0.7729
 2035TIP3    H227741   4.097   1.027   7.283 -0.8090  1.6914 -0.9401
 2036TIP3   OH227742   4.370   1.044   1.033  0.1134  0.0469 -0.2512
 2036TIP3    H127743   4.343   1.123   0.986 -1.1017  0.1086  0.5092
 2036TIP3    H227744   4.301   0.980   1.016  1.3606 -1.0813 -1.3315
 2037TIP3   OH227745   5.197   2.159   7.298  0.6142  0.2786 -0.2710
 2037TIP3    H127746   5.141   2.154   7.376 -0.3779  1.1822 -0.9180
 2037TIP3    H227747   5.203   2.068   7.268 -1.7020  0.3243 -1.0197
 2038TIP3   OH227748   5.665   5.696   2.046 -0.2076 -0.3958 -0.3348
 2038TIP3    H127749   5.588   5.656   2.087 -0.3278  2.1656  2.3370
 2038TIP3    H227750   5.738   5.671   2.102 -0.1484  2.0494  0.8349
 2039TIP3   OH227751   0.404   3.460   2.281 -0.2240  0.0850 -0.1863
 2039TIP3    H127752   0.437   3.508   2.205  0.2434  0.6013  0.3377
 2039TIP3    H227753   0.465   3.388   2.292 -1.2314 -0.9791 -1.3058
 2040TIP3   OH227754   3.663   4.588   7.409  0.1375 -0.0110  0.1279
 2040TIP3    H127755   3.728   4.518   7.408 -0.9671 -1.0881 -0.7919
 2040TIP3    H227756   3.580   4.543   7.393 -0.7865  1.3624  0.8627
 2041TIP3   OH227757   5.292   0.598   0.704  0.4531 -0.2337  0.1173
 2041TIP3    H127758   5.370   0.653   0.701  0.3713 -0.1113  0.1914
 2041TIP3    H227759   5.300   0.539   0.629  0.8128 -0.4927  0.3566
 2042TIP3   OH227760   2.576   4.530   5.727  0.2017  0.1790  0.0087
 2042TIP3    H127761   2.549   4.599   5.666 -0.9804  0.7045  1.0678
 2042TIP3    H227762   2.670   4.520   5.712 -0.1265 -0.0204 -2.1754
 2043TIP3   OH227763   6.383   3.898   0.573 -0.0823 -0.1754 -0.4929
 2043TIP3    H127764   6.424   3.975   0.613 -0.5842 -0.5696  0.8600
 2043TIP3    H227765   6.455   3.836   0.561  0.4140  0.6495 -2.0540
 2044TIP3   OH227766   2.934   6.136   7.419 -0.3788  0.3469  0.1542
 2044TIP3    H127767   2.944   6.161   7.511 -0.1976 -1.7203  0.7359
 2044TIP3    H227768   2.961   6.045   7.416 -1.4645  0.0423 -1.7492
 2045TIP3   OH227769   3.082   2.893   6.108  0.7566 -0.1244 -0.3257
 2045TIP3    H127770   2.998   2.915   6.069  0.7254  3.6653  1.4046
 2045TIP3    H227771   3.147   2.923   6.044  0.6862  4.8658  1.5029
 2046TIP3   OH227772   6.068   4.316   7.697  0.0072  0.1921 -0.0118
 2046TIP3    H127773   6.023   4.282   7.774  1.1207 -2.0594 -0.2776
 2046TIP3    H227774   6.060   4.247   7.632  2.8741  0.1130 -0.4104
 2047TIP3   OH227775   6.844   5.030   7.735  0.3355  0.1020  0.0552
 2047TIP3    H127776   6.939   5.025   7.729  0.2218 -0.5651 -1.8671
 2047TIP3    H227777   6.826   5.120   7.763  1.4943  0.3772 -0.0308
 2048TIP3   OH227778   0.934   1.625   7.953 -0.2660 -0.5474 -0.3525
 2048TIP3    H127779   0.962   1.580   7.873  0.8326  0.0840 -0.3415
 2048TIP3    H227780   0.918   1.715   7.926 -0.5160 -0.4789  0.0187
 2049TIP3   OH227781   0.905   3.146   6.893  0.2843  0.0033  0.2756
 2049TIP3    H127782   0.955   3.142   6.811 -0.6601 -0.4954 -0.3013
 2049TIP3    H227783   0.906   3.056   6.926 -1.1992 -0.2774 -0.3637
 2050TIP3   OH227784   1.215   0.632   1.325 -0.4303 -0.3836  0.4917
 2050TIP3    H127785   1.148   0.698   1.341 -1.4820 -0.7159 -2.0205
 2050TIP3    H227786   1.168   0.549   1.320  0.7423 -1.2427  2.5858
 2051TIP3   OH227787   3.610   0.068   6.842 -0.1296 -0.2674 -0.2976
 2051TIP3    H127788   3.587   0.141   6.784 -0.2309 -1.1152 -1.3717
 2051TIP3    H227789   3.655   0.006   6.785  0.3672 -0.8489  0.6985
 2052TIP3   OH227790   2.648   4.079   1.432  0.4215 -0.2758  0.9227
 2052TIP3    H127791   2.673   4.170   1.416  3.8121 -0.9750  1.3052
 2052TIP3    H227792   2.698   4.028   1.367 -3.0959 -1.8443 -0.7882
 2053TIP3   OH227793   2.012   3.507   0.082  0.5534 -0.2733 -0.4471
 2053TIP3    H127794   1.938   3.566   0.096 -1.3617 -2.3267 -1.3297
 2053TIP3    H227795   2.006   3.443   0.153  0.9351 -0.9721 -1.0258
 2054TIP3   OH227796   6.277   3.021   6.498 -0.4749 -0.1656  0.9113
 2054TIP3    H127797   6.250   3.103   6.538  1.5426  1.1097 -0.2041
 2054TIP3    H227798   6.372   3.021   6.503 -0.3747 -2.0723  0.1463
 2055TIP3   OH227799   4.052   5.210   6.818  0.0278 -0.2514  0.4824
 2055TIP3    H127800   4.145   5.234   6.810 -0.3255  1.1596  0.3010
 2055TIP3    H227801   4.025   5.246   6.903 -0.9466  1.6337 -0.5464
 2056TIP3   OH227802   0.991   3.112   0.431  0.6169  0.1966 -0.1045
 2056TIP3    H127803   0.937   3.189   0.448  2.6400  1.4811  0.8543
 2056TIP3    H227804   1.026   3.087   0.516  2.6081  0.2831 -0.8367
 2057TIP3   OH227805   1.964   0.777   0.218  0.2265  0.5575  0.3577
 2057TIP3    H127806   1.931   0.690   0.241  1.7681 -0.0059  0.5829
 2057TIP3    H227807   1.891   0.836   0.235 -0.5974 -0.5940  0.9672
 2058TIP3   OH227808   2.689   1.791   6.856  0.1265 -0.4188  0.0202
 2058TIP3    H127809   2.747   1.811   6.930  1.2171  0.3861 -1.0150
 2058TIP3    H227810   2.734   1.828   6.780 -0.9203 -1.3167 -1.0706
 2059TIP3   OH227811   4.729   3.342   6.141 -0.2252  0.1088  0.0880
 2059TIP3    H127812   4.731   3.321   6.047 -3.2573 -1.5751  0.2817
 2059TIP3    H227813   4.783   3.274   6.182 -1.7416 -1.3415 -0.2053
 2060TIP3   OH227814   5.604   3.345   0.569 -0.3221  0.4416  0.1957
 2060TIP3    H127815   5.532   3.405   0.550 -1.1471 -0.3895  0.5995
 2060TIP3    H227816   5.620   3.300   0.486 -1.5541 -0.6953  0.5401
 2061TIP3   OH227817   3.075   2.143   6.516 -0.4099  0.0280 -0.3040
 2061TIP3    H127818   3.082   2.131   6.422 -1.0118  0.7001 -0.4403
 2061TIP3    H227819   3.056   2.056   6.550 -0.6476 -0.1376 -0.8498
 2062TIP3   OH227820   2.576   6.479   1.034  0.0166 -0.6645 -0.0111
 2062TIP3    H127821   2.623   6.540   0.978  0.1670 -0.4162  0.3802
 2062TIP3    H227822   2.496   6.458   0.986  0.0729 -0.3407 -0.2478
 2063TIP3   OH227823   6.620   2.176   6.803  0.2736  0.0601  0.1824
 2063TIP3    H127824   6.677   2.116   6.850  1.4243  0.1330 -1.0543
 2063TIP3    H227825   6.609   2.136   6.716 -1.1136  0.3255  0.2088
 2064TIP3   OH227826   3.430   7.153   0.693 -0.0667 -0.1126  0.0216
 2064TIP3    H127827   3.359   7.135   0.631 -0.2230  1.5153 -0.3099
 2064TIP3    H227828   3.388   7.201   0.764  0.6865  0.8139 -0.1493
 2065TIP3   OH227829   7.060   0.797   6.360 -0.3785  0.4496 -0.0858
 2065TIP3    H127830   7.079   0.891   6.362 -0.0868  0.3846  0.1695
 2065TIP3    H227831   6.975   0.791   6.316 -1.4285  0.9930  1.7739
 2066TIP3   OH227832   3.931   5.357   7.302 -0.2806 -0.0195  0.0253
 2066TIP3    H127833   3.900   5.385   7.388  1.4177 -0.1716  0.7288
 2066TIP3    H227834   4.021   5.327   7.317  0.0536 -0.0735 -1.8029
 2067TIP3   OH227835   3.985   6.846   7.543  0.0544 -0.0601  0.0655
 2067TIP3    H127836   4.040   6.882   7.613 -0.4527 -0.1565  0.5233
 2067TIP3    H227837   4.042   6.842   7.467  1.1350 -1.5472  0.9090
 2068TIP3   OH227838   3.318   6.224   7.879  0.4103  0.2227 -0.1581
 2068TIP3    H127839   3.277   6.259   7.957 -0.5675  1.3736 -1.1482
 2068TIP3    H227840   3.308   6.129   7.886 -2.4476  0.4300 -0.3203
 2069TIP3   OH227841   6.506   2.201   7.597 -0.3673 -0.5940  0.2708
 2069TIP3    H127842   6.428   2.236   7.638  0.9683  2.0195  0.8156
 2069TIP3    H227843   6.487   2.204   7.503 -0.7167  0.5983  0.3696
 2070TIP3   OH227844   5.951   0.833   0.873 -0.3489 -0.7093 -0.4285
 2070TIP3    H127845   5.857   0.826   0.890 -0.3569 -0.3378 -0.3137
 2070TIP3    H227846   5.965   0.927   0.858  0.1960 -0.6102  0.6589
 2071TIP3   OH227847   0.308   5.626   7.607 -0.0086  0.2467 -0.3401
 2071TIP3    H127848   0.226   5.642   7.560  0.1501 -1.3722 -1.2537
 2071TIP3    H227849   0.284   5.569   7.680  0.3011 -0.3302 -0.6780
 2072TIP3   OH227850   0.644   5.054   1.100  0.3609 -0.2271  0.2593
 2072TIP3    H127851   0.665   5.133   1.049  0.7090 -2.0398 -2.5953
 2072TIP3    H227852   0.628   5.087   1.188 -0.1200  3.1171 -0.9259
 2073TIP3   OH227853   4.263   5.457   0.418  0.3123  0.8047 -0.0019
 2073TIP3    H127854   4.300   5.374   0.389 -2.6380 -0.4545 -0.5680
 2073TIP3    H227855   4.306   5.475   0.501  0.1293 -2.0583  0.8322
 2074TIP3   OH227856   4.097   2.224   7.712 -0.3012 -0.0801 -0.2049
 2074TIP3    H127857   4.059   2.292   7.768  0.6201  0.6907 -0.4769
 2074TIP3    H227858   4.047   2.231   7.630  0.2991  0.8365 -0.5150
 2075TIP3   OH227859   2.679   1.297   1.641  0.3062  0.4244  0.2231
 2075TIP3    H127860   2.636   1.222   1.600  0.9504  0.7719 -1.1209
 2075TIP3    H227861   2.769   1.268   1.656 -0.1299 -0.0427  2.3613
 2076TIP3   OH227862   1.534   5.556   2.384 -0.2103 -1.0975  0.6558
 2076TIP3    H127863   1.440   5.562   2.372 -0.0320 -1.1028 -0.9829
 2076TIP3    H227864   1.548   5.469   2.421 -0.7915 -1.4577  0.0502
 2077TIP3   OH227865   5.208   5.261   7.758 -0.3697  0.0959  0.0639
 2077TIP3    H127866   5.299   5.250   7.731 -0.4170 -1.3688  0.3829
 2077TIP3    H227867   5.203   5.350   7.791  1.0993  0.0144  0.5863
 2078TIP3   OH227868   3.817   6.884   5.479 -0.3889  0.8764  0.7615
 2078TIP3    H127869   3.764   6.926   5.411  3.1135 -1.4507 -4.0524
 2078TIP3    H227870   3.802   6.790   5.467  0.7693  0.3427  2.9103
 2079TIP3   OH227871   5.166   2.849   1.490  0.4756  0.4896 -0.5569
 2079TIP3    H127872   5.216   2.798   1.553 -0.6849 -1.3583 -1.0664
 2079TIP3    H227873   5.085   2.870   1.535 -0.2625 -0.6460 -1.3166
 2080TIP3   OH227874   3.787   1.753   0.588 -0.4665 -1.0859  0.1034
 2080TIP3    H127875   3.813   1.821   0.526  1.7993 -0.2774  1.8096
 2080TIP3    H227876   3.731   1.694   0.537 -1.1127  1.0920 -1.8918
 2081TIP3   OH227877   0.692   5.278   0.899  0.3255  0.3047  0.0492
 2081TIP3    H127878   0.783   5.283   0.871  0.3486  0.7393  0.1996
 2081TIP3    H227879   0.641   5.299   0.821  0.2487 -2.6613 -0.8078
 2082TIP3   OH227880   1.265   1.612   0.780 -0.0678 -0.0615  0.5341
 2082TIP3    H127881   1.354   1.579   0.792  0.0528 -1.0541 -2.2445
 2082TIP3    H227882   1.217   1.538   0.743 -2.2152  0.3150  2.3434
 2083TIP3   OH227883   3.402   5.258   0.447 -0.4000  0.3149 -0.6966
 2083TIP3    H127884   3.312   5.288   0.430 -0.2122  1.7936  0.6717
 2083TIP3    H227885   3.437   5.239   0.360 -1.6487  0.9021 -1.3565
 2084TIP3   OH227886   2.457   1.658   6.771 -0.0607  0.4947 -0.1903
 2084TIP3    H127887   2.539   1.682   6.816  0.7341  0.2380 -1.4630
 2084TIP3    H227888   2.451   1.563   6.782 -0.6930  0.6198  0.6907
 2085TIP3   OH227889   0.175   5.553   6.744 -0.5797 -0.3856  0.5292
 2085TIP3    H127890   0.107   5.614   6.717 -1.9078 -0.1985  3.8465
 2085TIP3    H227891   0.140   5.467   6.721 -0.5273 -0.1497 -0.4878
 2086TIP3   OH227892   4.485   5.134   6.457  0.0722 -0.5406 -0.0993
 2086TIP3    H127893   4.493   5.095   6.545  1.6133 -0.4637 -0.1704
 2086TIP3    H227894   4.550   5.087   6.405  1.0368  1.2044 -0.5276
 2087TIP3   OH227895   3.739   5.802   1.261  0.0933 -0.2864  0.2760
 2087TIP3    H127896   3.752   5.711   1.233 -1.7732 -0.8129  0.9568
 2087TIP3    H227897   3.676   5.837   1.198  1.4358  0.8536 -0.4935
 2088TIP3   OH227898   3.232   6.726   1.565 -0.0888  0.2708  0.4100
 2088TIP3    H127899   3.247   6.791   1.634  1.5029  0.9235 -0.5047
 2088TIP3    H227900   3.152   6.681   1.592 -1.0534  2.3674  1.2426
 2089TIP3   OH227901   0.584   4.254   0.277 -0.0614 -0.0962 -0.2393
 2089TIP3    H127902   0.661   4.230   0.330 -0.9107 -1.0336  0.6263
 2089TIP3    H227903   0.532   4.310   0.335  0.2057  0.9841 -1.0143
 2090TIP3   OH227904   1.162   1.593   6.184  0.1639  0.6425  0.4871
 2090TIP3    H127905   1.141   1.567   6.094 -1.3652  1.3908  0.5956
 2090TIP3    H227906   1.153   1.513   6.235 -0.3190  0.4965  0.1802
 2091TIP3   OH227907   4.125   2.690   6.398  0.5833  0.0497 -0.2410
 2091TIP3    H127908   4.174   2.717   6.475 -0.8728  1.9482  0.1061
 2091TIP3    H227909   4.171   2.731   6.325  1.5066 -1.0903 -0.3115
 2092TIP3   OH227910   1.946   4.110   7.943  0.0789 -0.0196 -0.1598
 2092TIP3    H127911   1.976   4.201   7.938  0.0480  0.1566  1.8471
 2092TIP3    H227912   1.896   4.107   8.025  0.5292 -1.9801  0.0732
 2093TIP3   OH227913   4.265   4.125   6.857 -0.5216  0.4113  0.1036
 2093TIP3    H127914   4.183   4.084   6.885  0.6724 -1.2483  1.4223
 2093TIP3    H227915   4.288   4.184   6.928  0.5852 -0.9363  0.9197
 2094TIP3   OH227916   2.388   4.428   6.142 -0.4899  0.6281  0.2649
 2094TIP3    H127917   2.355   4.474   6.065 -0.3776 -0.9618 -0.7732
 2094TIP3    H227918   2.413   4.498   6.202 -0.1459  1.9271 -1.3140
 2095TIP3   OH227919   0.194   0.753   0.317 -0.2378  0.5834  0.9308
 2095TIP3    H127920   0.247   0.677   0.343  2.5453  1.8102 -0.6518
 2095TIP3    H227921   0.187   0.745   0.221  0.6379  2.5725  0.6495
 2096TIP3   OH227922   0.077   2.720   0.481  1.0360  0.0695 -0.2704
 2096TIP3    H127923   0.082   2.625   0.478  0.0416  0.0229 -1.6703
 2096TIP3    H227924   0.052   2.745   0.392 -0.4022  1.5189  0.4998
 2097TIP3   OH227925   1.013   5.143   6.991  0.1619  0.1369 -0.5237
 2097TIP3    H127926   0.995   5.093   6.911 -3.3872 -1.0995  0.8446
 2097TIP3    H227927   1.054   5.079   7.050 -1.4493 -0.3353  0.1359
 2098TIP3   OH227928   2.146   4.442   6.841 -0.0239 -0.5291  0.3080
 2098TIP3    H127929   2.115   4.425   6.752  0.3792 -3.4926  0.6098
 2098TIP3    H227930   2.219   4.503   6.829 -0.3145 -0.4453 -1.3458
 2099TIP3   OH227931   0.092   4.070   5.761  0.3429 -0.2251 -0.2243
 2099TIP3    H127932   0.055   4.135   5.821 -1.1526 -1.3804  0.1715
 2099TIP3    H227933   0.177   4.106   5.736 -0.0233  1.4061  0.7344
 2100TIP3   OH227934   5.054   3.856   5.867  0.5267  0.1203 -0.6235
 2100TIP3    H127935   5.061   3.793   5.796 -2.2323  0.7553 -1.5664
 2100TIP3    H227936   5.114   3.927   5.842 -0.8311  0.6169 -2.7038
 2101TIP3   OH227937   4.121   3.064   0.299 -0.4349  0.5050 -0.2694
 2101TIP3    H127938   4.124   3.151   0.261  0.1832  0.6537  0.1050
 2101TIP3    H227939   4.211   3.047   0.327 -0.9552  0.5750  1.5224
 2102TIP3   OH227940   0.287   0.605   1.425  0.3194 -0.1682  0.5132
 2102TIP3    H127941   0.198   0.639   1.424  1.1907  2.4154  1.5808
 2102TIP3    H227942   0.338   0.671   1.377  1.8240 -1.0941  0.7693
 2103TIP3   OH227943   0.617   5.137   7.013  0.5592  0.2563 -0.5895
 2103TIP3    H127944   0.562   5.153   7.089 -2.2944  0.4025 -2.5288
 2103TIP3    H227945   0.647   5.047   7.024 -2.2382 -0.7761 -0.5936
 2104TIP3   OH227946   5.215   2.318   0.327 -0.4520  0.1025 -0.0331
 2104TIP3    H127947   5.216   2.398   0.380 -0.5958  0.6335 -0.7999
 2104TIP3    H227948   5.295   2.324   0.274 -0.9629  0.2426 -0.8062
 2105TIP3   OH227949   1.215   4.272   7.538  0.4613  0.0747 -0.2487
 2105TIP3    H127950   1.163   4.193   7.519  0.7772 -0.1106 -0.3414
 2105TIP3    H227951   1.217   4.320   7.456  0.6689 -0.0535 -0.3186
 2106TIP3   OH227952   6.607   0.709   7.646 -0.7329  0.0621 -0.1593
 2106TIP3    H127953   6.536   0.653   7.615 -1.2736  1.4154 -1.4919
 2106TIP3    H227954   6.612   0.780   7.582  0.9518  0.7220  0.6236
 2107TIP3   OH227955   2.466   0.502   0.208  0.4096 -0.7092  0.0564
 2107TIP3    H127956   2.427   0.416   0.227  1.4892 -0.7843  2.1760
 2107TIP3    H227957   2.415   0.563   0.261  2.1245 -0.6151  1.6907
 2108TIP3   OH227958   7.002   5.304   1.857  0.2196  0.4791 -0.2829
 2108TIP3    H127959   6.997   5.213   1.886  0.9588  0.6818  0.5312
 2108TIP3    H227960   6.912   5.336   1.866 -0.4507 -0.6608 -2.3456
 2109TIP3   OH227961   6.546   1.073   0.313  0.5262  0.5539 -0.1378
 2109TIP3    H127962   6.575   1.156   0.349  1.5099  0.0168  0.3648
 2109TIP3    H227963   6.585   1.007   0.371  4.3864 -0.5129 -3.4524
 2110TIP3   OH227964   4.180   0.220   7.954  0.2358 -0.3515 -0.2500
 2110TIP3    H127965   4.189   0.166   8.033  0.3175  0.5688  0.3813
 2110TIP3    H227966   4.119   0.289   7.979  1.1875  0.6450 -0.6195
 2111TIP3   OH227967   2.709   2.158   7.447 -0.1380  0.1729 -0.2946
 2111TIP3    H127968   2.655   2.237   7.454 -0.9946 -0.3646 -0.8452
 2111TIP3    H227969   2.784   2.186   7.394 -0.1171  0.7811  0.0428
 2112TIP3   OH227970   2.136   4.014   7.766  0.1591  0.2688  0.1570
 2112TIP3    H127971   2.061   4.047   7.815  2.0078  0.3604  3.1427
 2112TIP3    H227972   2.114   3.923   7.745 -1.5948  0.8925 -0.9566
 2113TIP3   OH227973   3.167   6.501   0.699 -1.0470 -0.4249 -0.1219
 2113TIP3    H127974   3.229   6.430   0.680  0.5679  0.2315  2.1957
 2113TIP3    H227975   3.141   6.534   0.613  1.4831 -1.0580 -1.2356
 2114TIP3   OH227976   1.470   0.545   1.364 -0.4906  0.0278 -0.2468
 2114TIP3    H127977   1.396   0.606   1.352  0.9792  1.6322 -1.7263
 2114TIP3    H227978   1.507   0.570   1.448 -1.4153 -0.5763  0.3590
 2115TIP3   OH227979   6.137   7.089   7.505  0.0379  0.1090 -0.5297
 2115TIP3    H127980   6.094   7.058   7.425  0.0313 -0.0284 -0.4731
 2115TIP3    H227981   6.072   7.077   7.574  0.7214 -1.6977 -0.1383
 2116TIP3   OH227982   3.283   3.529   1.349 -0.2642 -0.3852  0.5584
 2116TIP3    H127983   3.344   3.598   1.376 -0.9932 -0.2099  1.8407
 2116TIP3    H227984   3.221   3.573   1.291 -0.1236 -0.1982  0.5471
 2117TIP3   OH227985   5.292   5.423   0.915 -0.0943  0.1108  0.2689
 2117TIP3    H127986   5.382   5.392   0.925 -0.4046 -1.4783 -1.3131
 2117TIP3    H227987   5.279   5.428   0.820 -1.8694 -0.4050  0.4539
 2118TIP3   OH227988   4.737   6.565   6.148 -0.2276  0.0600  0.7405
 2118TIP3    H127989   4.718   6.652   6.113 -1.4965 -0.5477 -0.1838
 2118TIP3    H227990   4.828   6.548   6.122  0.2789  1.3915  1.5824
 2119TIP3   OH227991   3.738   7.033   7.596  0.5502 -0.3338 -0.3152
 2119TIP3    H127992   3.759   6.985   7.677  0.8636 -0.9444 -0.7416
 2119TIP3    H227993   3.822   7.069   7.568  0.5651 -0.6644 -0.7040
 2120TIP3   OH227994   4.777   3.434   1.487  0.2730  0.2988  0.4498
 2120TIP3    H127995   4.730   3.479   1.416  1.4129  1.4465  0.3677
 2120TIP3    H227996   4.860   3.482   1.494  1.8187 -2.1250  0.0249
 2121TIP3   OH227997   6.887   0.728   0.645 -0.0408  0.0661 -0.4933
 2121TIP3    H127998   6.868   0.638   0.670  0.1577 -0.4449 -2.0461
 2121TIP3    H227999   6.904   0.723   0.551  1.5282  1.4799 -0.3244
 2122TIP3   OH228000   4.027   3.736   2.253 -0.0302  0.0604  0.2127
 2122TIP3    H128001   4.081   3.659   2.242  0.2024 -0.0498  1.8774
 2122TIP3    H228002   3.984   3.724   2.338 -1.2483  0.9976 -0.2368
 2123TIP3   OH228003   1.572   1.663   6.660 -0.0323 -1.1059 -0.0183
 2123TIP3    H128004   1.566   1.647   6.754 -0.8628 -0.1648  0.1008
 2123TIP3    H228005   1.655   1.710   6.649 -0.0895 -0.9337  0.2844
 2124TIP3   OH228006   1.471   1.157   7.585  0.1571  0.2455 -0.1358
 2124TIP3    H128007   1.495   1.067   7.562  0.2492 -0.1115  1.2176
 2124TIP3    H228008   1.376   1.155   7.592  0.2024  0.0362  0.6105
 2125TIP3   OH228009   5.470   5.595   6.734 -0.6395  0.3895  0.0068
 2125TIP3    H128010   5.480   5.502   6.756 -2.5850  0.3689  1.1303
 2125TIP3    H228011   5.538   5.639   6.784  1.9647 -0.5584 -2.4757
 2126TIP3   OH228012   3.574   7.015   5.673 -0.5508 -0.9337 -0.1394
 2126TIP3    H128013   3.602   6.959   5.745  0.5757  0.1136  0.2645
 2126TIP3    H228014   3.606   6.971   5.594  1.4461 -0.2722  0.2463
 2127TIP3   OH228015   1.418   5.001   0.614 -0.5134  0.2066  0.2550
 2127TIP3    H128016   1.330   4.993   0.579 -0.5670  0.5519  0.3060
 2127TIP3    H228017   1.476   4.992   0.538 -0.5333 -1.3666  0.4049
 2128TIP3   OH228018   2.933   1.316   0.742 -0.1535 -0.3633 -0.2884
 2128TIP3    H128019   2.878   1.242   0.715  0.7017 -0.3768 -2.1276
 2128TIP3    H228020   2.975   1.287   0.823 -1.2406 -1.1498  0.0176
 2129TIP3   OH228021   6.482   6.702   7.324  0.5607 -0.2963 -0.1772
 2129TIP3    H128022   6.549   6.750   7.275 -0.1496  0.4673 -0.4013
 2129TIP3    H228023   6.417   6.767   7.348  0.2355 -0.9020  0.6639
 2130TIP3   OH228024   3.617   2.699   0.208  0.7487  0.2866 -0.2618
 2130TIP3    H128025   3.568   2.617   0.199  2.6386 -0.8757 -0.3937
 2130TIP3    H228026   3.581   2.739   0.288 -0.2352 -0.6341 -0.2123
 2131TIP3   OH228027   2.397   2.301   7.948  0.4108 -0.0055 -0.3170
 2131TIP3    H128028   2.485   2.334   7.933  0.4108 -0.3162 -1.0154
 2131TIP3    H228029   2.346   2.378   7.973  0.9374  0.1313  0.3847
 2132TIP3   OH228030   3.446   4.284   7.588 -0.7792  0.2225  0.0716
 2132TIP3    H128031   3.510   4.291   7.517 -0.3313  0.8222  0.5256
 2132TIP3    H228032   3.459   4.196   7.624  0.0138  0.4463  0.3621
 2133TIP3   OH228033   6.651   4.625   1.614  0.5888  0.5924  0.9821
 2133TIP3    H128034   6.626   4.532   1.621  3.6132 -0.2767  1.5847
 2133TIP3    H228035   6.568   4.672   1.619 -1.0463 -2.0592  0.8535
 2134TIP3   OH228036   3.151   5.588   0.717 -0.2202 -0.3097  0.1402
 2134TIP3    H128037   3.144   5.683   0.706  0.3829 -0.4661 -2.2304
 2134TIP3    H228038   3.061   5.558   0.728 -0.5171  0.4493 -0.1505
 2135TIP3   OH228039   0.199   1.263   0.496 -0.3267 -1.2134  0.1639
 2135TIP3    H128040   0.175   1.192   0.556  2.5832 -1.5658  1.0630
 2135TIP3    H228041   0.294   1.256   0.487 -0.1455  1.5123 -1.1167
 2136TIP3   OH228042   5.769   7.018   6.818 -0.2653 -0.0827 -0.5559
 2136TIP3    H128043   5.844   7.071   6.790 -0.2208  0.5798  0.7261
 2136TIP3    H228044   5.706   7.026   6.747 -0.5818  2.3935 -0.0831
 2137TIP3   OH228045   6.226   0.859   2.116 -0.2977  0.2763 -0.2063
 2137TIP3    H128046   6.284   0.866   2.041 -2.1759  1.5538 -1.6150
 2137TIP3    H228047   6.268   0.911   2.184  0.2255  1.1654 -1.1886
 2138TIP3   OH228048   2.942   4.320   0.468 -0.7187  0.1970 -0.6676
 2138TIP3    H128049   2.981   4.318   0.380 -0.2952 -0.8123 -0.4693
 2138TIP3    H228050   3.006   4.276   0.523 -1.4851 -0.1664 -0.0523
 2139TIP3   OH228051   0.597   6.323   5.808 -0.5162 -0.2849 -0.1104
 2139TIP3    H128052   0.635   6.239   5.782  0.5181 -0.2410  1.1786
 2139TIP3    H228053   0.534   6.301   5.877 -0.7986 -0.0670 -0.2933
 2140TIP3   OH228054   5.009   3.266   1.421  0.0760 -0.1535 -0.0228
 2140TIP3    H128055   4.951   3.338   1.449  0.2989 -0.0817  0.2571
 2140TIP3    H228056   5.037   3.225   1.503 -0.7454 -1.1200 -0.2028
 2141TIP3   OH228057   4.502   6.959   0.776  0.0997  0.1148  0.0452
 2141TIP3    H128058   4.475   7.034   0.723  1.0286  0.7997  0.5145
 2141TIP3    H228059   4.568   6.915   0.722  0.5562  0.4285  0.3422
 2142TIP3   OH228060   1.550   0.274   6.337  0.1353  0.7221  0.2868
 2142TIP3    H128061   1.524   0.364   6.317 -2.0705  0.0893 -0.0366
 2142TIP3    H228062   1.625   0.257   6.280  0.7360  2.4028  0.5232
 2143TIP3   OH228063   5.413   4.380   2.009  0.0143  0.5243  0.1267
 2143TIP3    H128064   5.449   4.301   1.969  0.3873 -0.3103  1.9729
 2143TIP3    H228065   5.461   4.389   2.092 -1.0003  1.8859  0.6141
 2144TIP3   OH228066   2.676   5.723   7.736  0.1862  0.1978 -0.1203
 2144TIP3    H128067   2.656   5.785   7.666 -1.1372 -1.2562 -1.0859
 2144TIP3    H228068   2.632   5.758   7.813  0.0895  0.8463 -0.4663
 2145TIP3   OH228069   0.125   6.608   1.984 -0.0742  0.1812  0.0399
 2145TIP3    H128070   0.107   6.698   1.955 -3.2760  0.3553  2.1034
 2145TIP3    H228071   0.085   6.553   1.917 -0.7204  0.3787  0.2618
 2146TIP3   OH228072   3.711   1.925   7.811 -0.3110  0.5801  0.3315
 2146TIP3    H128073   3.715   1.867   7.888 -1.1624 -1.7391 -1.2600
 2146TIP3    H228074   3.769   1.884   7.748  1.1949  3.0247  0.0108
 2147TIP3   OH228075   5.138   3.898   6.591  0.0332 -0.2237  0.0507
 2147TIP3    H128076   5.183   3.830   6.642  0.5373  1.0723  1.3916
 2147TIP3    H228077   5.047   3.869   6.588  0.2524 -0.9954  0.5397
 2148TIP3   OH228078   0.509   7.051   1.143  0.0913  0.0609  0.0453
 2148TIP3    H128079   0.433   7.109   1.132  0.4733  0.1545 -2.9906
 2148TIP3    H228080   0.584   7.103   1.114  1.1360 -0.5805  1.4434
 2149TIP3   OH228081   0.283   1.584   7.645  0.3653 -0.1770  0.0188
 2149TIP3    H128082   0.226   1.582   7.722 -0.3303 -0.2768 -0.4885
 2149TIP3    H228083   0.282   1.494   7.612  0.6525 -0.1331 -0.1137
 2150TIP3   OH228084   5.713   5.137   7.550  0.2987  0.4260  0.1363
 2150TIP3    H128085   5.793   5.095   7.583  1.0058  1.9161  0.4418
 2150TIP3    H228086   5.678   5.075   7.487  1.8302 -0.1903 -0.1658
 2151TIP3   OH228087   6.921   0.975   7.645 -0.4248  0.0129 -0.2291
 2151TIP3    H128088   6.946   1.036   7.575 -1.3267 -0.0095 -0.5789
 2151TIP3    H228089   6.901   0.893   7.600 -0.5927 -0.1290  0.1024
 2152TIP3   OH228090   3.223   7.076   7.098 -0.2157 -0.2082  0.2945
 2152TIP3    H128091   3.316   7.099   7.092 -0.3403  0.1051 -0.4869
 2152TIP3    H228092   3.181   7.126   7.028 -1.1009  0.2886  1.1485
 2153TIP3   OH228093   0.111   3.940   0.419  0.0293  0.4914 -0.5868
 2153TIP3    H128094   0.115   3.849   0.448 -0.0048  0.9316  0.8871
 2153TIP3    H228095   0.191   3.953   0.368  0.1315 -0.3049 -0.6366
 2154TIP3   OH228096   7.162   2.924   0.599  0.2129  0.1132  0.0784
 2154TIP3    H128097   7.217   2.857   0.558 -0.6538  0.0968 -1.1068
 2154TIP3    H228098   7.199   2.936   0.687 -0.6545 -3.2341  1.0446
 2155TIP3   OH228099   3.627   6.795   5.831  0.2988 -0.5513 -0.3433
 2155TIP3    H128100   3.671   6.710   5.825 -0.7407 -1.2061  0.8149
 2155TIP3    H228101   3.597   6.800   5.922 -2.1802 -0.2560 -1.0910
 2156TIP3   OH228102   1.392   7.015   6.735  0.0348 -0.4027  0.2726
 2156TIP3    H128103   1.345   7.098   6.736 -2.6380 -1.7803 -0.1048
 2156TIP3    H228104   1.385   6.983   6.825  1.9602  0.1838  0.6734
 2157TIP3   OH228105   3.969   1.153   7.867  0.0365 -0.2508  0.4985
 2157TIP3    H128106   3.987   1.242   7.839  2.2984 -0.4163  1.1951
 2157TIP3    H228107   3.875   1.141   7.852 -0.2204  2.0473 -0.0843
 2158TIP3   OH228108   0.585   5.309   0.671 -0.1186 -0.1751  0.5343
 2158TIP3    H128109   0.547   5.373   0.611 -0.1337  1.8276  2.5722
 2158TIP3    H228110   0.675   5.297   0.639 -0.9175 -1.3501 -1.4947
 2159TIP3   OH228111   4.238   0.430   1.415  0.1918  0.3872 -0.0089
 2159TIP3    H128112   4.220   0.341   1.385 -0.6326  0.5784 -0.0988
 2159TIP3    H228113   4.308   0.420   1.479 -0.7317 -0.4760  0.9032
 2160TIP3   OH228114   1.204   4.067   6.132  0.1977 -0.8184  0.3365
 2160TIP3    H128115   1.238   4.149   6.166 -0.0604 -0.5043 -0.1635
 2160TIP3    H228116   1.114   4.086   6.107  0.5461 -0.8834 -1.0540
 2161TIP3   OH228117   4.020   5.054   0.034 -0.3405 -0.4669  0.2276
 2161TIP3    H128118   4.074   5.121   0.076 -0.9652  0.1225  0.1138
 2161TIP3    H228119   4.007   5.087  -0.055 -0.7639 -0.6708  0.2114
 2162TIP3   OH228120   6.998   7.022   0.170 -0.3273 -0.5338  0.3288
 2162TIP3    H128121   7.000   7.078   0.093  0.8031 -1.0810 -0.0625
 2162TIP3    H228122   7.079   7.043   0.217 -1.3662  0.3477  1.7930
 2163TIP3   OH228123   2.971   4.825   0.196 -0.2756  0.5325 -0.2401
 2163TIP3    H128124   2.946   4.757   0.259  1.7337  0.0892  0.1281
 2163TIP3    H228125   2.907   4.816   0.125 -0.6032 -1.1440  0.2169
 2164TIP3   OH228126   3.370   3.080   0.918  0.0628 -0.2371 -0.4249
 2164TIP3    H128127   3.303   3.145   0.938  0.7415 -0.2085  2.0708
 2164TIP3    H228128   3.424   3.122   0.850 -1.4166  0.4269 -1.2290
 2165TIP3   OH228129   2.604   0.352   1.348 -0.5555 -0.3524 -0.0276
 2165TIP3    H128130   2.614   0.314   1.436  0.6309 -0.2274 -0.0837
 2165TIP3    H228131   2.603   0.446   1.362  0.3334 -0.3079 -0.1866
 2166TIP3   OH228132   3.709   3.100   6.454 -0.6093  0.1539  0.2405
 2166TIP3    H128133   3.614   3.093   6.447 -0.6781  0.6475  0.6780
 2166TIP3    H228134   3.741   3.088   6.364 -1.1816  1.5576 -0.1756
 2167TIP3   OH228135   1.945   2.196   7.916  1.2161  0.2924  0.1214
 2167TIP3    H128136   1.902   2.194   7.830  0.9868  0.3063  0.2341
 2167TIP3    H228137   1.959   2.104   7.937  0.5531  0.2519  0.4220
 2168TIP3   OH228138   6.787   3.134   6.226 -0.4623  0.0734  0.3772
 2168TIP3    H128139   6.702   3.098   6.249 -0.7268  1.0129  0.9101
 2168TIP3    H228140   6.770   3.188   6.149  0.1480 -1.8383 -1.1884
 2169TIP3   OH228141   1.111   3.858   0.702  0.3304 -0.5767  0.0040
 2169TIP3    H128142   1.107   3.950   0.727  3.0164 -0.0760 -1.1354
 2169TIP3    H228143   1.021   3.826   0.716 -1.1246  2.5793 -1.0601
 2170TIP3   OH228144   2.188   5.094   0.620 -0.2995  0.6944  0.6033
 2170TIP3    H128145   2.179   5.150   0.543  1.4856  0.7992  0.4253
 2170TIP3    H228146   2.119   5.028   0.610 -0.2467  0.8454 -0.9631
 2171TIP3   OH228147   2.852   3.592   0.401 -0.4321  0.1764  0.5617
 2171TIP3    H128148   2.936   3.595   0.353 -0.9188 -0.0523 -0.3413
 2171TIP3    H228149   2.833   3.498   0.407 -1.1633  0.2585 -0.2470
 2172TIP3   OH228150   2.457   3.785   0.489 -0.0625  0.5260  0.3846
 2172TIP3    H128151   2.421   3.833   0.414  0.8542 -1.1490 -1.2165
 2172TIP3    H228152   2.489   3.854   0.548  2.4833  1.9953 -2.4165
 2173TIP3   OH228153   2.106   1.108   7.423  0.2983  0.0040 -0.1042
 2173TIP3    H128154   2.106   1.012   7.427  2.7218 -0.1632 -1.8736
 2173TIP3    H228155   2.115   1.135   7.514  0.3276 -1.4563  0.3614
 2174TIP3   OH228156   0.235   4.324   7.705 -0.0268 -0.0090  0.0476
 2174TIP3    H128157   0.266   4.338   7.794 -1.7326 -0.2167  0.7229
 2174TIP3    H228158   0.303   4.361   7.649  0.4104  1.4296  1.4697
 2175TIP3   OH228159   6.463   4.510   7.140 -0.0453 -0.3922 -0.2067
 2175TIP3    H128160   6.492   4.565   7.067  0.1422  0.1429  0.2586
 2175TIP3    H228161   6.368   4.523   7.143  0.2622  2.4493  1.8273
 2176TIP3   OH228162   1.343   6.270   6.050 -0.0469 -0.2539 -0.7115
 2176TIP3    H128163   1.425   6.225   6.027  0.2732 -0.0845  0.0789
 2176TIP3    H228164   1.318   6.233   6.134 -2.2850 -2.3388 -2.1459
 2177TIP3   OH228165   2.333   4.461   0.912  0.4454  0.3673  0.5408
 2177TIP3    H128166   2.256   4.489   0.961 -0.9254  1.0838 -1.8391
 2177TIP3    H228167   2.342   4.527   0.843  2.2565 -0.5746 -0.1709
 2178TIP3   OH228168   5.672   6.754   0.019  0.2100  0.6665 -0.2517
 2178TIP3    H128169   5.761   6.777   0.046  0.2234 -1.1727  1.5079
 2178TIP3    H228170   5.640   6.696   0.088 -1.3959 -0.8707 -2.1597
 2179TIP3   OH228171   6.062   2.367   1.357  0.2653  0.0934 -0.4276
 2179TIP3    H128172   5.966   2.372   1.351  0.2468 -0.4145 -0.5851
 2179TIP3    H228173   6.078   2.301   1.423  0.5048  1.9919  1.5295
 2180TIP3   OH228174   6.530   6.955   6.684  0.2870  0.1386 -0.7097
 2180TIP3    H128175   6.481   6.893   6.738  0.9608 -1.5085 -1.9253
 2180TIP3    H228176   6.621   6.945   6.712  0.6388 -0.7073 -2.0694
 2181TIP3   OH228177   0.067   6.428   1.761 -0.0436 -0.5418 -0.5859
 2181TIP3    H128178  -0.028   6.422   1.747  0.0918 -1.2500 -1.3175
 2181TIP3    H228179   0.098   6.338   1.749  0.9194 -0.0596 -1.9525
 2182TIP3   OH228180   0.429   2.143   2.258  0.2633 -0.4269 -1.1037
 2182TIP3    H128181   0.358   2.112   2.202 -1.2975 -1.4182  1.2712
 2182TIP3    H228182   0.503   2.086   2.236 -0.2500 -0.6944 -2.2229
 2183TIP3   OH228183   4.223   5.326   7.280 -0.2331 -0.2874  0.2307
 2183TIP3    H128184   4.264   5.337   7.195  0.2233 -0.7823  0.3775
 2183TIP3    H228185   4.282   5.370   7.341 -1.1394  1.0516  0.1575
 2184TIP3   OH228186   2.328   6.718   6.870 -0.3463  0.5777  0.2567
 2184TIP3    H128187   2.287   6.632   6.875  0.3395  0.3126  2.2992
 2184TIP3    H228188   2.407   6.711   6.924  0.2227  2.2236 -0.2832
 2185TIP3   OH228189   4.288   5.465   7.052 -0.3653 -0.2417 -0.3646
 2185TIP3    H128190   4.372   5.509   7.043 -0.6451  0.3507 -0.1385
 2185TIP3    H228191   4.223   5.532   7.031 -0.7711 -0.8799 -1.2546
 2186TIP3   OH228192   1.822   6.669   6.383 -0.0833 -0.0151 -0.0743
 2186TIP3    H128193   1.880   6.742   6.401 -0.9538  1.0684 -1.4402
 2186TIP3    H228194   1.737   6.695   6.420 -1.1312  0.9854 -2.9178
 2187TIP3   OH228195   4.715   6.217   7.012  0.2274 -0.1132 -0.6697
 2187TIP3    H128196   4.769   6.241   6.936 -0.3105  0.2039 -0.9567
 2187TIP3    H228197   4.778   6.211   7.084  0.4484  2.1873 -0.5751
 2188TIP3   OH228198   0.885   6.759   6.476  0.2116 -0.2789  0.8163
 2188TIP3    H128199   0.845   6.774   6.390  1.7933 -1.5193 -0.2097
 2188TIP3    H228200   0.979   6.773   6.461  0.5438 -0.7389  2.3004
 2189TIP3   OH228201   2.433   4.655   0.662  0.5569  0.7640 -0.3428
 2189TIP3    H128202   2.472   4.676   0.747 -0.9073  1.5075  0.1869
 2189TIP3    H228203   2.485   4.582   0.629  1.0169  0.3021  1.3017
 2190TIP3   OH228204   0.993   4.257   7.105 -0.2470 -0.2796 -0.1704
 2190TIP3    H128205   1.006   4.333   7.049 -0.2618 -1.3461 -1.6756
 2190TIP3    H228206   0.899   4.250   7.117 -0.1732  0.9600  1.4945
 2191TIP3   OH228207   3.904   4.762   0.730 -0.9771  0.1645 -0.5115
 2191TIP3    H128208   3.932   4.675   0.705 -1.7170 -0.2018 -0.1066
 2191TIP3    H228209   3.981   4.802   0.772 -0.5093 -0.1288 -1.0857
 2192TIP3   OH228210   2.579   0.754   0.340  0.0658  0.6303  0.3347
 2192TIP3    H128211   2.564   0.817   0.410  0.6504 -0.0160  1.0582
 2192TIP3    H228212   2.661   0.712   0.363 -0.2372 -0.2881 -0.2227
 2193TIP3   OH228213   6.783   1.995   6.930 -0.4142 -0.3647 -0.0186
 2193TIP3    H128214   6.773   1.902   6.911  1.6459 -0.7140  0.3808
 2193TIP3    H228215   6.878   2.008   6.939 -0.4105  2.2170 -2.3103
 2194TIP3   OH228216   1.795   3.881   6.390 -0.4175  0.3240 -0.6459
 2194TIP3    H128217   1.762   3.793   6.409  1.3484 -0.1172  0.6548
 2194TIP3    H228218   1.721   3.926   6.350 -1.3780 -1.7334 -1.3404
 2195TIP3   OH228219   5.222   0.667   7.107  0.5339  0.1498  0.4615
 2195TIP3    H128220   5.172   0.601   7.059 -1.2719  1.1993  0.7908
 2195TIP3    H228221   5.254   0.727   7.040  0.3955  0.0802  0.3334
 2196TIP3   OH228222   4.579   5.359   6.663  0.2321  0.1433 -0.7819
 2196TIP3    H128223   4.673   5.349   6.644  1.3103 -0.5412  3.7233
 2196TIP3    H228224   4.551   5.271   6.689 -0.7350  0.9618  1.1065
 2197TIP3   OH228225   5.171   3.002   0.929 -0.2538  0.1669 -0.3895
 2197TIP3    H128226   5.200   3.041   0.846  0.8330  1.4904  0.5662
 2197TIP3    H228227   5.233   3.034   0.994 -1.6157 -0.0794  1.1158
 2198TIP3   OH228228   3.037   5.533   7.055 -0.2555  0.3068  0.0664
 2198TIP3    H128229   2.993   5.532   6.970  0.8480  0.6443 -0.5304
 2198TIP3    H228230   3.017   5.619   7.091 -1.6617 -0.2413  0.6865
 2199TIP3   OH228231   5.052   0.865   1.233  0.2816  0.0047  0.1137
 2199TIP3    H128232   5.062   0.894   1.324  0.3748 -1.1239  0.4925
 2199TIP3    H228233   5.035   0.944   1.184 -1.5074  0.4648  1.3763
 2200TIP3   OH228234   3.567   3.996   7.627 -0.4190 -0.4704  0.2605
 2200TIP3    H128235   3.581   3.972   7.718 -0.0485  0.5555  0.4886
 2200TIP3    H228236   3.591   3.917   7.577  2.8229 -0.0133  0.8526
 2201TIP3   OH228237   2.577   1.645   7.283  0.3163  0.3525  0.6399
 2201TIP3    H128238   2.643   1.597   7.234  0.3677 -1.0454  2.0141
 2201TIP3    H228239   2.590   1.619   7.374 -1.2825  1.0578  1.1167
 2202TIP3   OH228240   3.438   2.253   6.339 -0.3510  0.0347 -0.0578
 2202TIP3    H128241   3.524   2.284   6.310 -0.6990  0.5065 -0.6085
 2202TIP3    H228242   3.377   2.291   6.276 -0.8506 -1.3300 -0.4186
 2203TIP3   OH228243   3.396   3.075   6.047 -0.0058  0.0277 -0.1138
 2203TIP3    H128244   3.331   3.129   6.093  0.5836 -0.5762  1.4982
 2203TIP3    H228245   3.477   3.125   6.051 -0.2094  0.5181 -1.6150
 2204TIP3   OH228246   2.411   6.429   5.769  0.2525 -0.6253 -0.0637
 2204TIP3    H128247   2.424   6.512   5.814  1.1878 -0.8382  0.0765
 2204TIP3    H228248   2.388   6.453   5.680 -1.4308 -0.2014  0.4586
 2205TIP3   OH228249   0.204   2.950   7.862  0.2541 -0.0510  0.2103
 2205TIP3    H128250   0.174   3.015   7.925  0.1874  0.5861 -0.4749
 2205TIP3    H228251   0.138   2.952   7.792  1.4467  0.7932 -0.9266
 2206TIP3   OH228252   6.350   5.950   6.438 -0.4392 -0.5276  0.0219
 2206TIP3    H128253   6.318   6.032   6.401 -0.2420 -0.8317 -0.8521
 2206TIP3    H228254   6.285   5.885   6.409  0.6217 -1.0529 -1.2551
 2207TIP3   OH228255   4.786   2.906   6.259 -0.1521 -0.3561  0.5816
 2207TIP3    H128256   4.787   2.884   6.352  0.5051 -0.1526  0.6313
 2207TIP3    H228257   4.877   2.892   6.231 -0.2199  0.1426  0.1049
 2208TIP3   OH228258   3.864   4.337   7.677  0.0886 -0.1466 -0.4767
 2208TIP3    H128259   3.819   4.313   7.595 -1.1800  0.2195  0.0825
 2208TIP3    H228260   3.859   4.259   7.731 -1.2453  0.3301  0.1463
 2209TIP3   OH228261   4.725   4.825   6.065 -0.5193  0.5271 -0.7274
 2209TIP3    H128262   4.807   4.835   6.113 -0.5109  0.8324 -0.8088
 2209TIP3    H228263   4.658   4.821   6.134 -0.4272  0.1318 -0.6531
 2210TIP3   OH228264   0.268   5.708   7.953 -0.2438  0.3662 -0.1829
 2210TIP3    H128265   0.315   5.765   7.892  2.8959 -0.9251  0.8124
 2210TIP3    H228266   0.324   5.705   8.031 -0.2988 -3.8035 -0.0598
 2211TIP3   OH228267   3.047   4.636   0.835 -0.4700  0.4229 -0.1296
 2211TIP3    H128268   2.999   4.579   0.775 -0.1432 -1.5539  1.3775
 2211TIP3    H228269   3.134   4.595   0.843 -1.1397 -0.6621  3.2049
 2212TIP3   OH228270   0.595   1.394   2.043 -0.4162 -0.0564  0.0383
 2212TIP3    H128271   0.598   1.489   2.029  2.8256  0.2525  1.8433
 2212TIP3    H228272   0.564   1.385   2.133 -1.9364 -0.8394 -0.5344
 2213TIP3   OH228273   0.383   3.708   0.370 -0.2331 -0.3223  0.5440
 2213TIP3    H128274   0.428   3.788   0.395 -1.0258 -0.2568  1.8741
 2213TIP3    H228275   0.432   3.674   0.295  0.9644  0.6384  0.8747
 2214TIP3   OH228276   3.772   2.185   7.926 -0.7964  0.1306 -0.0142
 2214TIP3    H128277   3.736   2.127   7.859  0.8031  0.6130 -1.3426
 2214TIP3    H228278   3.759   2.273   7.890  1.2925  0.3302 -0.3536
 2215TIP3   OH228279   4.796   2.900   6.568  0.3177 -0.2081 -0.3242
 2215TIP3    H128280   4.863   2.836   6.545 -1.0707 -1.6371 -0.6456
 2215TIP3    H228281   4.784   2.890   6.663  0.5127 -0.0088 -0.2792
 2216TIP3   OH228282   4.654   5.366   1.468 -0.0682  0.1362  0.0598
 2216TIP3    H128283   4.671   5.448   1.421  0.6781 -0.5920 -0.9897
 2216TIP3    H228284   4.598   5.392   1.541  2.3083  2.0534  1.3719
 2217TIP3   OH228285   0.175   3.532   0.989 -0.2009  0.1276 -0.2851
 2217TIP3    H128286   0.221   3.477   0.926  0.8086 -1.1309  1.4420
 2217TIP3    H228287   0.100   3.479   1.017  0.1804  0.0305  0.6096
 2218TIP3   OH228288   1.553   6.113   0.674  0.2120 -0.0450 -0.4251
 2218TIP3    H128289   1.505   6.070   0.603 -0.4693 -1.2027  0.6867
 2218TIP3    H228290   1.624   6.053   0.696  0.9731  0.7310 -0.7173
 2219TIP3   OH228291   4.881   1.528   6.816 -0.3977 -0.0377  0.0211
 2219TIP3    H128292   4.975   1.513   6.817 -0.7616 -2.7598 -0.0259
 2219TIP3    H228293   4.860   1.561   6.903  0.6452  1.1912 -0.1697
 2220TIP3   OH228294   7.039   4.984   1.241 -0.2648  0.3978 -0.2684
 2220TIP3    H128295   7.087   5.067   1.245  1.9747 -0.8569  0.4793
 2220TIP3    H228296   7.092   4.929   1.184  0.3853 -1.7237  2.1956
 2221TIP3   OH228297   6.079   0.312   6.865  0.9035  0.1178  0.0947
 2221TIP3    H128298   6.118   0.316   6.778  1.4717 -0.8022  0.2972
 2221TIP3    H228299   6.010   0.379   6.863  1.8702  1.1318 -0.5680
 2222TIP3   OH228300   5.923   4.512   5.666 -0.1767 -0.3167  0.0382
 2222TIP3    H128301   5.836   4.471   5.659 -0.4947  0.3176  0.1817
 2222TIP3    H228302   5.980   4.456   5.614 -0.6651 -0.7606 -0.0335
 2223TIP3   OH228303   4.341   7.206   6.883  0.1415 -0.5527 -0.6428
 2223TIP3    H128304   4.418   7.187   6.937 -0.2463  0.4321  0.2761
 2223TIP3    H228305   4.348   7.299   6.862 -0.8070 -0.4497 -0.5449
 2224TIP3   OH228306   2.674   4.083   6.408  0.2794 -0.0776 -0.0206
 2224TIP3    H128307   2.630   4.055   6.488 -0.8818  0.3826 -0.4696
 2224TIP3    H228308   2.740   4.145   6.437 -1.4413  1.6438  0.4903
 2225TIP3   OH228309   2.473   1.871   6.524  0.3327 -0.2613  0.6748
 2225TIP3    H128310   2.545   1.930   6.502  0.5128 -0.3113  1.1304
 2225TIP3    H228311   2.469   1.811   6.449 -0.8471  1.2369 -0.5399
 2226TIP3   OH228312   5.303   1.475   7.763  0.0433 -0.1151 -0.1957
 2226TIP3    H128313   5.382   1.482   7.817  0.2686  0.0300 -0.5407
 2226TIP3    H228314   5.274   1.385   7.776  0.6580 -0.3788 -0.6007
 2227TIP3   OH228315   2.594   3.974   6.662 -0.0040  0.0658 -0.0224
 2227TIP3    H128316   2.501   3.971   6.643 -0.6251 -3.2864  2.7205
 2227TIP3    H228317   2.600   4.002   6.753  1.4834 -1.6857  0.4775
 2228TIP3   OH228318   1.939   5.120   1.021 -0.1610  0.1280  0.4331
 2228TIP3    H128319   1.883   5.191   1.054 -0.3184  1.4671 -2.4394
 2228TIP3    H228320   2.015   5.164   0.984  0.8066 -1.3849  0.5333
 2229TIP3   OH228321   3.483   7.124   7.003 -0.3923 -0.3980 -0.1802
 2229TIP3    H128322   3.539   7.047   6.988  1.1931  0.2581  1.9198
 2229TIP3    H228323   3.511   7.186   6.936 -0.2199 -0.8987 -0.5821
 2230TIP3   OH228324   1.924   5.823   2.073 -0.4280  0.0450 -0.3565
 2230TIP3    H128325   1.854   5.821   2.139 -0.5018  0.5618 -0.4142
 2230TIP3    H228326   1.940   5.731   2.053 -0.5915 -0.1099  0.1874
 2231TIP3   OH228327   3.585   3.686   7.227 -0.6243  0.3037 -0.1262
 2231TIP3    H128328   3.537   3.623   7.174 -1.6656  1.7654 -0.9877
 2231TIP3    H228329   3.518   3.728   7.282  0.1655  0.1028  1.0475
 2232TIP3   OH228330   4.652   4.483   7.375 -0.2467 -0.4680 -0.5476
 2232TIP3    H128331   4.616   4.524   7.453  0.0528 -1.6252  0.2229
 2232TIP3    H228332   4.631   4.390   7.385  1.9191 -1.0171 -0.6243
 2233TIP3   OH228333   1.227   4.394   7.272 -0.5261 -0.0333  0.0311
 2233TIP3    H128334   1.185   4.480   7.266 -0.5323 -0.0784 -0.7120
 2233TIP3    H228335   1.204   4.350   7.190  0.5072 -0.2639 -0.1564
 2234TIP3   OH228336   1.668   3.089   6.733  0.6731  0.9382 -0.3128
 2234TIP3    H128337   1.721   3.069   6.656  0.6855 -2.6334  0.4779
 2234TIP3    H228338   1.732   3.108   6.802  0.7476  1.2968 -0.4781
 2235TIP3   OH228339   5.999   4.791   7.279 -0.7444 -0.3777  0.2661
 2235TIP3    H128340   6.033   4.814   7.193 -1.6278 -1.0509 -0.2829
 2235TIP3    H228341   6.019   4.867   7.334 -1.0746  0.4968 -0.7856
 2236TIP3   OH228342   6.861   5.367   0.460  0.1108 -0.5893  0.0565
 2236TIP3    H128343   6.935   5.373   0.520 -0.0125 -1.2560  0.2754
 2236TIP3    H228344   6.830   5.277   0.468 -0.8653 -0.2615  0.1364
 2237TIP3   OH228345   2.132   7.089   6.546 -0.0631  0.3946 -0.2315
 2237TIP3    H128346   2.131   7.185   6.546 -0.8552  0.3997  0.2651
 2237TIP3    H228347   2.082   7.064   6.624  0.1140 -0.4205 -0.3673
 2238TIP3   OH228348   1.294   4.982   7.870 -0.1920  0.5197 -0.1265
 2238TIP3    H128349   1.270   5.071   7.897 -0.0069  1.0895 -1.6942
 2238TIP3    H228350   1.210   4.936   7.862 -0.1953 -0.1174  2.6422
 2239TIP3   OH228351   4.032   5.501   6.178 -0.2993 -0.5668 -0.4717
 2239TIP3    H128352   4.006   5.421   6.132 -2.3791 -0.0346 -0.3340
 2239TIP3    H228353   4.099   5.473   6.240  2.5400 -1.3513 -3.6271
 2240TIP3   OH228354   5.300   1.712   6.734  0.4408 -0.1247  0.0097
 2240TIP3    H128355   5.299   1.804   6.762 -0.9489 -0.6466  1.8258
 2240TIP3    H228356   5.226   1.672   6.780  2.0297 -2.5386  0.6538
 2241TIP3   OH228357   2.802   6.364   2.252  0.5040 -0.3630 -0.2941
 2241TIP3    H128358   2.791   6.448   2.208  1.0757  0.1571  0.5106
 2241TIP3    H228359   2.760   6.300   2.195 -2.7417  0.8418  0.5039
 2242TIP3   OH228360   2.398   0.005   0.458  0.1334  0.1026 -0.2678
 2242TIP3    H128361   2.468   0.067   0.481 -0.4630 -0.2140  2.7778
 2242TIP3    H228362   2.398  -0.058   0.530 -1.7537 -1.2730 -1.4086
 2243TIP3   OH228363   1.157   1.909   1.027 -0.1947  0.0017  0.8434
 2243TIP3    H128364   1.076   1.939   0.986 -0.9920  0.1626  2.4598
 2243TIP3    H228365   1.213   1.883   0.954 -0.8146  2.0325 -0.4273
 2244TIP3   OH228366   0.923   6.609   7.142 -0.2125 -0.0771 -0.0020
 2244TIP3    H128367   0.836   6.580   7.114 -0.5994  0.3747  0.6999
 2244TIP3    H228368   0.983   6.557   7.090 -0.8910 -1.3724  0.4549
 2245TIP3   OH228369   2.576   2.834   7.131  0.2788  0.6819  0.4667
 2245TIP3    H128370   2.663   2.794   7.128  0.3481  0.7915  0.9966
 2245TIP3    H228371   2.578   2.902   7.064  0.4195  0.3232  0.1035
 2246TIP3   OH228372   3.088   6.289   1.272 -0.2431  0.3709  0.0957
 2246TIP3    H128373   3.062   6.247   1.354  0.6118 -2.0937 -0.8226
 2246TIP3    H228374   3.162   6.345   1.297 -0.1756 -0.1246  1.0677
 2247TIP3   OH228375   2.790   1.121   0.533 -0.6766 -0.3706  0.0915
 2247TIP3    H128376   2.733   1.156   0.465  1.4358  2.6613 -0.2816
 2247TIP3    H228377   2.867   1.088   0.487  0.3818  0.8989  0.8668
 2248TIP3   OH228378   5.931   6.551   6.685 -0.2638  0.1976  0.0099
 2248TIP3    H128379   5.882   6.568   6.766 -0.2112 -0.1667  0.1220
 2248TIP3    H228380   5.921   6.631   6.634 -1.4363 -0.0692 -0.2058
 2249TIP3   OH228381   6.094   3.837   6.213  0.3165 -0.2740 -0.1588
 2249TIP3    H128382   6.169   3.799   6.258  0.8904  1.4006  0.3493
 2249TIP3    H228383   6.021   3.826   6.274  0.0705 -2.0034 -0.7007
 2250TIP3   OH228384   6.648   2.220   0.295 -0.5239  0.5534  0.1493
 2250TIP3    H128385   6.688   2.306   0.293  1.4681 -0.3222  0.3766
 2250TIP3    H228386   6.651   2.190   0.204  0.5081 -0.0023  0.3515
 2251TIP3   OH228387   0.759   5.277   0.463 -0.3367 -0.4939  0.0369
 2251TIP3    H128388   0.763   5.181   0.453 -1.0893 -1.0840  3.8873
 2251TIP3    H228389   0.718   5.307   0.382 -0.0581 -3.3997 -1.3383
 2252TIP3   OH228390   4.575   1.668   6.895  0.1248  0.0399 -0.2016
 2252TIP3    H128391   4.485   1.679   6.864  0.0995  0.5191  0.0255
 2252TIP3    H228392   4.604   1.757   6.914 -0.2071 -0.2735  2.0822
 2253TIP3   OH228393   2.223   4.264   6.284 -0.0220  0.3614  0.1396
 2253TIP3    H128394   2.276   4.327   6.237 -1.0778 -0.2331 -1.9464
 2253TIP3    H228395   2.272   4.182   6.279  0.3786  0.5242  1.0810
 2254TIP3   OH228396   6.141   1.683   7.150  0.4326  0.2916  0.3569
 2254TIP3    H128397   6.204   1.750   7.122 -0.7864  0.8693 -1.1113
 2254TIP3    H228398   6.073   1.732   7.196  0.8814 -0.2992  1.6977
 2255TIP3   OH228399   1.282   4.752   7.650 -0.5252 -0.2553  0.9384
 2255TIP3    H128400   1.239   4.833   7.622 -0.4506 -0.1202  1.2102
 2255TIP3    H228401   1.340   4.729   7.578  0.5626  0.7356  1.4553
 2256TIP3   OH228402   3.036   6.956   0.358  0.4673  0.2951  0.3000
 2256TIP3    H128403   3.051   7.048   0.337 -1.5582  0.7449  0.5956
 2256TIP3    H228404   2.995   6.920   0.279  0.1918 -0.0414  0.5919
 2257TIP3   OH228405   3.558   3.471   0.629  0.6839 -0.0346 -0.1626
 2257TIP3    H128406   3.477   3.503   0.590 -0.0632  0.1249  1.4278
 2257TIP3    H228407   3.627   3.515   0.580 -0.1872  0.0582 -1.3505
 2258TIP3   OH228408   0.162   6.557   7.913  0.7176 -0.4883  0.4301
 2258TIP3    H128409   0.126   6.636   7.873 -1.6392 -0.1673  2.8460
 2258TIP3    H228410   0.171   6.495   7.841 -0.7747  0.8595 -1.0004
 2259TIP3   OH228411   7.159   0.854   7.750 -0.3665 -0.0174 -0.0349
 2259TIP3    H128412   7.115   0.791   7.807  0.7243 -1.2833 -0.5203
 2259TIP3    H228413   7.091   0.883   7.690 -0.9016 -0.7627  0.1911
 2260TIP3   OH228414   4.334   1.494   0.946 -0.3551 -0.8753 -0.1465
 2260TIP3    H128415   4.407   1.553   0.924 -0.7318 -0.8992 -1.5928
 2260TIP3    H228416   4.298   1.469   0.861 -3.2293  0.5686  0.5413
 2261TIP3   OH228417   6.569   2.903   6.911 -0.6564  0.0847 -0.0524
 2261TIP3    H128418   6.531   2.879   6.995 -1.1136 -2.0202 -0.8020
 2261TIP3    H228419   6.661   2.920   6.929 -1.0187  0.9541  1.0639
 2262TIP3   OH228420   6.552   3.217   6.443  0.4634  0.0553  0.0099
 2262TIP3    H128421   6.534   3.209   6.349 -5.2286 -2.1864  0.9045
 2262TIP3    H228422   6.561   3.127   6.473  2.0458  0.7322  1.7233
 2263TIP3   OH228423   5.294   4.175   7.631 -0.2509  0.4194 -0.0931
 2263TIP3    H128424   5.378   4.184   7.586 -0.1017  1.7119  0.3780
 2263TIP3    H228425   5.294   4.086   7.665  0.0822 -0.2329 -1.7254
 2264TIP3   OH228426   6.490   0.851   6.529 -0.0209  0.0730 -0.3266
 2264TIP3    H128427   6.415   0.825   6.475 -0.0612 -0.2569 -0.1089
 2264TIP3    H228428   6.552   0.889   6.466  0.9586 -2.4583 -1.0093
 2265TIP3   OH228429   3.728   3.438   0.842 -0.3133  0.1003  0.1532
 2265TIP3    H128430   3.670   3.439   0.919 -0.1603  2.2297  0.3117
 2265TIP3    H228431   3.669   3.445   0.768 -0.3574  0.4738  0.2207
 2266TIP3   OH228432   5.564   2.016   7.645 -0.3500  0.3449 -0.4437
 2266TIP3    H128433   5.475   1.992   7.617 -0.8001 -0.9782  1.8538
 2266TIP3    H228434   5.575   2.106   7.613 -1.7137 -0.1360 -2.5043
 2267TIP3   OH228435   0.111   5.063   1.538  0.2759 -0.0987 -0.0125
 2267TIP3    H128436   0.043   5.123   1.568 -1.0105 -1.4648 -0.1236
 2267TIP3    H228437   0.127   5.004   1.612 -0.1430 -1.0657 -0.6778
 2268TIP3   OH228438   5.088   1.036   1.019 -0.6219 -0.1607  0.5261
 2268TIP3    H128439   5.142   0.961   0.996 -0.6415 -0.2456  0.7583
 2268TIP3    H228440   5.081   1.086   0.938  1.2804  0.8054  0.9035
 2269TIP3   OH228441   0.272   4.987   1.297  0.3704 -0.3429  0.3219
 2269TIP3    H128442   0.259   5.063   1.241  1.0531 -0.8451 -0.5326
 2269TIP3    H228443   0.365   4.990   1.321 -0.0186  0.1727  1.9000
 2270TIP3   OH228444   4.135   5.388   1.411 -0.4167 -0.4291 -0.5537
 2270TIP3    H128445   4.217   5.411   1.367 -1.2995  1.2684 -1.4159
 2270TIP3    H228446   4.141   5.293   1.424  2.7595 -0.0698  1.7315
 2271TIP3   OH228447   0.365   0.542   1.068  0.8100 -0.3777  0.3531
 2271TIP3    H128448   0.407   0.573   0.988  0.5496  0.9594  0.7208
 2271TIP3    H228449   0.373   0.615   1.129  0.3572 -1.1176  1.3130
 2272TIP3   OH228450   3.157   3.430   6.914  0.3801  0.9282  0.7514
 2272TIP3    H128451   3.182   3.520   6.891  1.2100  0.5732  0.1988
 2272TIP3    H228452   3.151   3.385   6.830  2.1581 -0.0785  1.1096
 2273TIP3   OH228453   0.765   2.589   1.445 -0.5211  0.4554 -0.1598
 2273TIP3    H128454   0.762   2.499   1.414  2.4589  0.7683 -1.7753
 2273TIP3    H228455   0.728   2.586   1.534 -0.0038 -2.4445  0.0421
 2274TIP3   OH228456   6.862   1.970   0.263  0.1275  0.0656 -0.1528
 2274TIP3    H128457   6.888   2.060   0.244  1.3178 -0.2953 -0.2764
 2274TIP3    H228458   6.775   1.962   0.224 -0.5828  1.5555  1.0317
 2275TIP3   OH228459   6.695   5.336   6.110 -0.3980 -0.5689 -0.0342
 2275TIP3    H128460   6.628   5.269   6.125 -0.3299 -0.2185  2.3489
 2275TIP3    H228461   6.648   5.419   6.117 -0.1057 -0.3376 -0.7526
 2276TIP3   OH228462   2.503   0.094   1.224 -0.4368  0.3738 -0.8494
 2276TIP3    H128463   2.541   0.181   1.220  0.5683 -0.0776 -1.6375
 2276TIP3    H228464   2.517   0.057   1.137  0.1977 -0.9925 -0.2074
 2277TIP3   OH228465   3.764   6.613   6.308 -0.0930 -0.0360 -0.1209
 2277TIP3    H128466   3.818   6.535   6.294  1.6130  1.2161 -0.7189
 2277TIP3    H228467   3.791   6.646   6.393  0.3671  0.8074 -0.5867
 2278TIP3   OH228468   7.099   1.902   6.280  0.2498  0.0624  0.6531
 2278TIP3    H128469   7.070   1.890   6.190  1.0794  1.9495  0.0925
 2278TIP3    H228470   7.189   1.868   6.281 -0.4067 -1.8042  1.3196
 2279TIP3   OH228471   1.931   3.380   5.778 -0.0406 -0.3587 -0.0409
 2279TIP3    H128472   1.988   3.315   5.735 -0.0829 -0.2819 -0.2137
 2279TIP3    H228473   1.992   3.442   5.818  0.0158  0.5051 -1.3966
 2280TIP3   OH228474   6.695   1.151   7.454  0.2337  0.1887  0.0142
 2280TIP3    H128475   6.729   1.191   7.535 -0.3050  0.6820  0.0040
 2280TIP3    H228476   6.623   1.096   7.484  0.2396  0.1198 -0.0997
 2281TIP3   OH228477   6.211   4.333   6.296 -0.4842  0.2039  0.1052
 2281TIP3    H128478   6.306   4.326   6.293 -0.3672  1.7398 -1.7833
 2281TIP3    H228479   6.179   4.252   6.258  0.1423  0.3769 -0.8291
 2282TIP3   OH228480   7.205   2.737   0.198 -0.4824  0.2444  0.1024
 2282TIP3    H128481   7.205   2.789   0.119 -0.3773 -1.8597 -1.3688
 2282TIP3    H228482   7.136   2.672   0.184 -0.6321 -0.0243  1.8450
 2283TIP3   OH228483   6.129   3.979   0.550 -0.3957  0.0344  0.4933
 2283TIP3    H128484   6.213   3.936   0.564 -1.1748 -0.8431  2.9183
 2283TIP3    H228485   6.152   4.069   0.525  1.2328 -0.3388  0.5291
 2284TIP3   OH228486   1.650   3.894   7.765 -0.3529  0.1300  0.3732
 2284TIP3    H128487   1.692   3.839   7.699 -1.6267  0.4716 -0.7668
 2284TIP3    H228488   1.716   3.903   7.833  0.5450 -1.3051 -0.2397
 2285TIP3   OH228489   5.654   6.157   7.100  0.3603 -0.6080 -0.5055
 2285TIP3    H128490   5.562   6.145   7.080  0.6377 -0.5570 -1.9203
 2285TIP3    H228491   5.656   6.175   7.194 -1.0548 -0.6661 -0.4441
 2286TIP3   OH228492   5.247   5.657   5.469 -0.1895  0.0724 -0.3771
 2286TIP3    H128493   5.253   5.667   5.374  0.6791 -1.4988 -0.5276
 2286TIP3    H228494   5.320   5.600   5.492 -0.1796  0.6911  1.2983
 2287TIP3   OH228495   2.751   3.148   6.764 -0.5909 -0.2332  0.7468
 2287TIP3    H128496   2.831   3.137   6.815  0.4515  1.4124 -0.4338
 2287TIP3    H228497   2.763   3.092   6.687 -1.3763 -1.3375  1.4027
 2288TIP3   OH228498   2.526   0.400   5.896  0.0611  0.4806  0.1086
 2288TIP3    H128499   2.597   0.387   5.833  0.0773  0.1589  0.1912
 2288TIP3    H228500   2.479   0.317   5.896  0.8295  0.0113  1.4871
 2289TIP3   OH228501   3.758   6.550   2.464  0.0940  0.7133  0.5625
 2289TIP3    H128502   3.804   6.633   2.455  0.3161  0.4956 -0.5111
 2289TIP3    H228503   3.810   6.488   2.413  0.5892 -0.3813  2.3141
 2290TIP3   OH228504   7.080   0.372   0.726  0.2997  0.1297 -0.6432
 2290TIP3    H128505   6.986   0.359   0.714 -0.3796  2.0728  1.7258
 2290TIP3    H228506   7.114   0.386   0.638 -1.4213 -1.5557 -1.6483
 2291TIP3   OH228507   4.491   6.750   1.346  0.0538  0.3107 -0.2295
 2291TIP3    H128508   4.401   6.774   1.370  0.2778  0.6057  0.3213
 2291TIP3    H228509   4.497   6.773   1.253 -0.3875  0.4544 -0.2264
 2292TIP3   OH228510   4.499   5.163   7.360  0.0841  0.2039 -0.5708
 2292TIP3    H128511   4.526   5.219   7.287  0.7889 -1.1066 -1.3586
 2292TIP3    H228512   4.495   5.222   7.435 -0.1641  1.4923 -1.5587
 2293TIP3   OH228513   6.662   0.516   6.281 -0.1590  0.2365 -0.0734
 2293TIP3    H128514   6.619   0.518   6.366  0.0923 -1.3521  0.1161
 2293TIP3    H228515   6.617   0.446   6.233  0.8529 -0.0554 -0.6170
 2294TIP3   OH228516   7.026   6.316   7.901  0.4116  0.5690 -0.4220
 2294TIP3    H128517   7.092   6.330   7.834  2.0648 -0.6767  0.8474
 2294TIP3    H228518   7.049   6.232   7.940 -1.4285  0.5087  0.6667
 2295TIP3   OH228519   5.233   2.150   0.009  0.4969  0.4232  0.2845
 2295TIP3    H128520   5.262   2.238  -0.016  0.1581  1.1147  2.1484
 2295TIP3    H228521   5.173   2.164   0.082 -0.6277 -1.2996 -0.2400
 2296TIP3   OH228522   2.170   3.723   6.239  0.3477 -0.5431  0.4670
 2296TIP3    H128523   2.145   3.773   6.161 -1.1233 -1.3552  0.3932
 2296TIP3    H228524   2.115   3.645   6.236  2.6375 -2.2527  0.5267
 2297TIP3   OH228525   3.033   3.833   5.957 -0.3172  0.6558  0.4453
 2297TIP3    H128526   2.952   3.830   6.008  0.1507 -0.9146  1.1487
 2297TIP3    H228527   3.043   3.745   5.921  1.2315  0.7279  0.6148
 2298TIP3   OH228528   3.643   1.738   1.219 -0.1762 -0.1213  0.8620
 2298TIP3    H128529   3.725   1.708   1.180 -1.0903  0.7938 -1.9582
 2298TIP3    H228530   3.578   1.675   1.189 -0.7079 -0.2926  2.2929
 2299TIP3   OH228531   5.027   4.330   6.807 -0.3861 -0.0933  1.1807
 2299TIP3    H128532   4.938   4.294   6.806 -0.6136  0.4557  0.2497
 2299TIP3    H228533   5.082   4.259   6.775 -0.9347  0.5721 -1.4208
 2300TIP3   OH228534   6.269   4.894   6.553  0.3734  0.0011 -0.5114
 2300TIP3    H128535   6.219   4.824   6.512  1.1344 -1.2215  0.5703
 2300TIP3    H228536   6.274   4.963   6.487 -0.4192 -0.9498 -1.5838
 2301TIP3   OH228537   4.511   5.614   5.832 -0.1194 -0.5041  0.2089
 2301TIP3    H128538   4.591   5.665   5.817  0.5106 -0.1763  3.6535
 2301TIP3    H228539   4.442   5.662   5.788  1.1910  0.7156 -0.5772
 2302TIP3   OH228540   5.861   0.315   7.879 -0.2528 -0.9464 -0.1539
 2302TIP3    H128541   5.807   0.254   7.830 -2.1428  0.6602 -0.2039
 2302TIP3    H228542   5.798   0.369   7.928  1.1692  1.8074 -1.1162
 2303TIP3   OH228543   4.097   5.666   0.391  0.1537  0.2435  0.1716
 2303TIP3    H128544   4.010   5.641   0.358  0.5137 -1.0979  0.2087
 2303TIP3    H228545   4.142   5.583   0.406  1.7065  0.9231 -0.5155
 2304TIP3   OH228546   3.925   3.363   6.406 -1.0126  0.1016 -0.4050
 2304TIP3    H128547   3.866   3.418   6.458 -0.1090  0.0571  0.7032
 2304TIP3    H228548   3.880   3.278   6.403 -1.5383  0.3791 -0.5400
 2305TIP3   OH228549   6.637   5.761   1.004  0.0247  0.4472  0.3692
 2305TIP3    H128550   6.712   5.789   1.056  0.1739 -0.2695  0.5443
 2305TIP3    H228551   6.671   5.751   0.915 -0.3945  2.4110 -0.0618
 2306TIP3   OH228552   0.019   7.165   7.665  0.8205 -0.0966  0.4724
 2306TIP3    H128553   0.051   7.174   7.755  0.4935  1.5025  0.4716
 2306TIP3    H228554   0.059   7.239   7.619 -1.8966  1.3619  0.2160
 2307TIP3   OH228555   3.589   1.189   0.528  0.0513  0.0132 -0.1357
 2307TIP3    H128556   3.578   1.279   0.561 -0.6860  0.0202 -0.3764
 2307TIP3    H228557   3.560   1.134   0.601  1.3320 -0.0699  0.3377
 2308TIP3   OH228558   6.967   6.436   7.480 -0.0374  0.1822 -0.3161
 2308TIP3    H128559   6.982   6.348   7.514 -1.9609 -0.0414  0.0859
 2308TIP3    H228560   7.053   6.478   7.483  1.1907 -2.0222 -1.6274
 2309TIP3   OH228561   4.929   3.222   0.782  0.8787  0.3639 -0.3298
 2309TIP3    H128562   4.981   3.142   0.771  2.6368  1.4147  0.0453
 2309TIP3    H228563   4.993   3.292   0.792 -0.6135  1.6426  0.9006
 2310TIP3   OH228564   4.478   1.766   7.583 -0.5256  0.4262  0.4350
 2310TIP3    H128565   4.517   1.683   7.612 -0.6898  0.2638  0.1918
 2310TIP3    H228566   4.499   1.827   7.653 -0.0313  0.2813  0.4199
 2311TIP3   OH228567   5.428   3.223   7.036  0.1175 -0.0476  0.1234
 2311TIP3    H128568   5.377   3.278   7.095  0.9211  2.2505 -1.1705
 2311TIP3    H228569   5.472   3.160   7.093  1.0590  2.2110  2.0712
 2312TIP3   OH228570   0.466   0.129   7.915  0.0652  0.1523 -0.2510
 2312TIP3    H128571   0.527   0.193   7.952 -1.1703  0.2069  1.8638
 2312TIP3    H228572   0.514   0.089   7.842  1.7120  1.8415 -0.1655
 2313TIP3   OH228573   7.044   3.256   1.385  0.8867 -0.4835 -0.4642
 2313TIP3    H128574   7.088   3.338   1.362  2.0933 -1.0408 -0.2615
 2313TIP3    H228575   7.012   3.270   1.474  3.4136 -1.0602  0.6494
 2314TIP3   OH228576   0.522   0.587   0.824  0.2989  0.3757  0.2730
 2314TIP3    H128577   0.564   0.519   0.878  1.9346  1.3687  0.3222
 2314TIP3    H228578   0.591   0.653   0.811 -1.2054  2.0111  0.1896
 2315TIP3   OH228579   3.175   6.736   6.804  0.7312  0.4883 -0.4929
 2315TIP3    H128580   3.218   6.821   6.795  0.1010  0.7693 -0.9036
 2315TIP3    H228581   3.085   6.751   6.774  1.0988 -0.7694 -2.4103
 2316TIP3   OH228582   2.322   3.954   5.925  0.6053  0.3732 -0.3467
 2316TIP3    H128583   2.241   3.904   5.938  1.4237 -0.7250  0.7373
 2316TIP3    H228584   2.362   3.915   5.847  0.1478  0.8630 -0.8353
 2317TIP3   OH228585   2.444   1.254   7.000  0.1221 -0.0447  0.1698
 2317TIP3    H128586   2.528   1.211   6.985 -0.6154 -1.1659 -0.9758
 2317TIP3    H228587   2.437   1.261   7.095  0.1990 -2.6772  0.4255
 2318TIP3   OH228588   2.439   3.674   6.870 -0.6585  0.4544 -0.1137
 2318TIP3    H128589   2.447   3.641   6.960 -1.3312  0.8070  0.0849
 2318TIP3    H228590   2.518   3.644   6.826 -0.5488 -0.1369  0.4706
 2319TIP3   OH228591   2.858   6.534   6.846 -0.6095  0.0123  0.4976
 2319TIP3    H128592   2.914   6.458   6.829 -1.0321 -0.2898  0.4345
 2319TIP3    H228593   2.900   6.606   6.798 -1.3398 -0.6416 -1.2014
 2320TIP3   OH228594   4.930   5.223   7.208 -0.4656 -0.4446  0.0302
 2320TIP3    H128595   4.909   5.250   7.118 -1.2880 -0.1269  0.3162
 2320TIP3    H228596   5.003   5.162   7.197 -0.7511 -0.6453 -0.8825
 2321TIP3   OH228597   0.701   5.106   6.426 -0.5096 -0.3417  0.2499
 2321TIP3    H128598   0.756   5.164   6.479  0.8116 -1.7367  0.4541
 2321TIP3    H228599   0.733   5.018   6.445 -0.6828 -0.9732 -2.0981
 2322TIP3   OH228600   0.152   1.522   0.488  0.7089  0.4605 -0.0618
 2322TIP3    H128601   0.145   1.428   0.470  0.4012  0.7742 -1.6490
 2322TIP3    H228602   0.112   1.532   0.575 -0.6837 -0.6527 -0.5424
 2323TIP3   OH228603   3.722   1.060   7.192 -0.4163  0.1708 -0.4445
 2323TIP3    H128604   3.818   1.050   7.193 -0.4164  0.2156  0.9181
 2323TIP3    H228605   3.695   1.014   7.112  0.7374  0.1799 -0.8693
 2324TIP3   OH228606   0.791   6.111   7.479 -0.2706  0.1565 -0.2789
 2324TIP3    H128607   0.720   6.062   7.437  0.4864 -2.6365  1.4189
 2324TIP3    H228608   0.859   6.116   7.412 -0.6156 -0.5614 -0.6983
 2325TIP3   OH228609   2.849   2.546   7.463 -0.1036  0.1178  0.5670
 2325TIP3    H128610   2.812   2.493   7.392  0.0933  0.4277  0.2291
 2325TIP3    H228611   2.837   2.637   7.434 -2.0740  0.3403  1.9528
 2326TIP3   OH228612   1.545   3.136   0.766 -0.5183 -0.2773  0.2031
 2326TIP3    H128613   1.594   3.217   0.780  0.8383 -1.0428  0.1147
 2326TIP3    H228614   1.474   3.160   0.707 -0.1592  0.8482  0.2118
 2327TIP3   OH228615   0.679   1.885   1.157  0.4649 -0.0905 -0.3523
 2327TIP3    H128616   0.749   1.938   1.194 -0.9442 -0.2435  2.8945
 2327TIP3    H228617   0.635   1.942   1.094 -0.1540  2.1736  2.0031
 2328TIP3   OH228618   5.295   1.480   6.225  0.3770 -0.5030 -0.2410
 2328TIP3    H128619   5.236   1.512   6.156  0.6672 -2.3210 -1.4147
 2328TIP3    H228620   5.286   1.544   6.295 -3.0589 -0.6846 -0.3030
 2329TIP3   OH228621   4.650   7.197   6.410 -0.0861 -0.4404 -0.5230
 2329TIP3    H128622   4.694   7.154   6.483  0.9298  0.7183 -0.4177
 2329TIP3    H228623   4.718   7.253   6.371 -1.0745  0.2471 -1.3002
 2330TIP3   OH228624   1.131   3.450   7.721 -0.0039 -0.0686  0.1999
 2330TIP3    H128625   1.188   3.378   7.692 -0.3622 -0.9959  1.7140
 2330TIP3    H228626   1.052   3.442   7.667 -0.4381 -1.4239  1.0084
 2331TIP3   OH228627   5.704   3.770   0.594 -0.8684  0.1423  0.0728
 2331TIP3    H128628   5.655   3.824   0.531 -2.3883 -1.6235 -0.3556
 2331TIP3    H228629   5.647   3.765   0.670  0.0099  0.4834  0.7660
 2332TIP3   OH228630   2.851   1.714   0.273  0.1828  0.0783 -0.0636
 2332TIP3    H128631   2.792   1.689   0.202  0.5797 -1.0508 -0.0041
 2332TIP3    H228632   2.795   1.720   0.350  0.0435 -0.3811 -0.1299
 2333TIP3   OH228633   1.038   3.639   6.718  0.0551  0.3164  0.5854
 2333TIP3    H128634   0.961   3.602   6.675  0.0720  0.4224  0.4640
 2333TIP3    H228635   1.010   3.656   6.808 -0.3586  1.2573  0.2895
 2334TIP3   OH228636   5.889   5.299   1.502  0.4229 -0.0124  0.5819
 2334TIP3    H128637   5.854   5.385   1.525  0.1943  0.2694 -0.7426
 2334TIP3    H228638   5.982   5.315   1.485  0.4799 -0.1182  0.7934
 2335TIP3   OH228639   6.457   0.874   7.806 -0.3081 -0.3402 -0.4579
 2335TIP3    H128640   6.492   0.959   7.780  2.7215 -0.7790  1.6867
 2335TIP3    H228641   6.498   0.811   7.746 -1.8507 -0.4602 -1.4605
 2336TIP3   OH228642   3.822   7.207   1.510 -0.0397 -0.1522 -0.4699
 2336TIP3    H128643   3.790   7.120   1.488  2.2037 -0.9408 -0.8721
 2336TIP3    H228644   3.869   7.195   1.593  0.8919  0.5167 -0.8829
 2337TIP3   OH228645   7.109   0.089   1.529  0.7139  0.5333  0.0846
 2337TIP3    H128646   7.054   0.051   1.597 -0.9965  2.1921 -0.2963
 2337TIP3    H228647   7.128   0.177   1.559  1.7862  0.5530 -0.5836
 2338TIP3   OH228648   2.640   5.875   7.370 -0.6937 -0.7882 -0.1399
 2338TIP3    H128649   2.654   5.782   7.352  4.6965 -0.6208  1.6109
 2338TIP3    H228650   2.677   5.920   7.294 -0.3234 -0.0919  0.4442
 2339TIP3   OH228651   2.645   4.234   0.327 -0.4120  0.0330 -0.7242
 2339TIP3    H128652   2.560   4.270   0.349 -0.2405  0.5698 -0.9166
 2339TIP3    H228653   2.701   4.311   0.314 -0.0897 -0.2944 -1.3421
 2340TIP3   OH228654   2.302   1.360   2.082  0.1867 -0.0637  0.1507
 2340TIP3    H128655   2.351   1.431   2.123  0.0764  1.1421 -1.6589
 2340TIP3    H228656   2.327   1.365   1.989 -2.2883 -0.3007 -0.5894
 2341TIP3   OH228657   1.691   1.415   6.373 -0.0021 -0.1099  0.3352
 2341TIP3    H128658   1.643   1.378   6.298 -1.9464  2.0598  0.3922
 2341TIP3    H228659   1.645   1.381   6.450  0.4594 -0.3869  0.4937
 2342TIP3   OH228660   0.426   4.275   6.238  0.0015  0.2865  0.1060
 2342TIP3    H128661   0.403   4.186   6.214  1.7459 -0.1453 -0.0814
 2342TIP3    H228662   0.358   4.329   6.197 -1.0264 -0.9223  0.1560
 2343TIP3   OH228663   0.070   1.610   5.683 -0.2046 -0.5011  0.1204
 2343TIP3    H128664   0.107   1.533   5.639  0.1510 -1.0560  1.3279
 2343TIP3    H228665  -0.021   1.613   5.654  0.4190  0.1710 -1.9617
 2344TIP3   OH228666   1.459   6.489   0.294 -0.0483 -0.6722  0.3718
 2344TIP3    H128667   1.495   6.423   0.354  1.1563  0.3829  0.8546
 2344TIP3    H228668   1.460   6.446   0.209 -1.4972 -2.0902  1.0064
 2345TIP3   OH228669   7.122   6.262   6.929 -0.0908  0.5300  0.2106
 2345TIP3    H128670   7.114   6.318   6.852 -0.9178  0.2967  0.1214
 2345TIP3    H228671   7.147   6.322   7.000  1.8235  0.5824 -0.4441
 2346TIP3   OH228672   3.458   3.332   0.108  0.2778 -0.0440  0.0588
 2346TIP3    H128673   3.484   3.284   0.029  0.8347 -1.3310  0.9775
 2346TIP3    H228674   3.364   3.345   0.099  0.3294 -0.2131 -0.7973
 2347TIP3   OH228675   1.483   4.459   6.850  0.2069  0.1543 -0.2216
 2347TIP3    H128676   1.524   4.375   6.833  1.2428  0.3470  1.1677
 2347TIP3    H228677   1.405   4.438   6.902  1.0003  0.0959  0.9786
 2348TIP3   OH228678   6.788   5.700   5.697  0.5748 -0.3891  0.1185
 2348TIP3    H128679   6.735   5.663   5.626  2.2323 -0.7022 -1.0144
 2348TIP3    H228680   6.751   5.787   5.713 -1.5549 -1.3399  0.8186
 2349TIP3   OH228681   5.789   5.765   0.852  0.2598  0.1847 -0.5136
 2349TIP3    H128682   5.696   5.764   0.871  0.4860 -0.0516  0.6461
 2349TIP3    H228683   5.832   5.760   0.937  1.3401 -1.9786 -1.1022
 2350TIP3   OH228684   5.857   6.684   6.931 -0.2591 -0.0435  0.6465
 2350TIP3    H128685   5.899   6.769   6.917 -0.0705 -0.4645 -1.8399
 2350TIP3    H228686   5.769   6.706   6.964  0.2968  1.0158  1.5054
 2351TIP3   OH228687   1.672   5.936   6.394 -0.3913  0.5638 -0.2270
 2351TIP3    H128688   1.707   6.020   6.424 -0.3979  0.6515 -0.4562
 2351TIP3    H228689   1.694   5.934   6.300  0.1702  0.0331 -0.0924
 2352TIP3   OH228690   7.053   3.945   7.035  0.5940  0.7547 -0.2360
 2352TIP3    H128691   6.960   3.961   7.016  0.4366  1.4358  0.9953
 2352TIP3    H228692   7.059   3.954   7.130  1.5789 -1.1218 -0.0866
 2353TIP3   OH228693   1.902   5.663   7.039 -0.4500 -0.5976  0.3090
 2353TIP3    H128694   1.961   5.720   7.087 -0.4193  1.5794 -2.0834
 2353TIP3    H228695   1.935   5.665   6.949 -1.7679 -2.6872 -0.3054
 2354TIP3   OH228696   3.739   5.331   7.520  0.0646 -0.2802 -0.1233
 2354TIP3    H128697   3.670   5.338   7.586  1.2218 -1.0287  1.2103
 2354TIP3    H228698   3.769   5.241   7.525  0.3883 -0.2708 -1.4810
 2355TIP3   OH228699   3.142   0.051   5.562  0.0399  0.0003 -0.0789
 2355TIP3    H128700   3.049   0.061   5.582  0.8169  2.2484  3.2697
 2355TIP3    H228701   3.164  -0.036   5.595 -0.8206 -0.4872 -0.7518
 2356TIP3   OH228702   6.132   4.107   6.129 -0.2630  0.2411  0.8239
 2356TIP3    H128703   6.121   4.015   6.156  0.5882 -0.6759 -1.6692
 2356TIP3    H228704   6.198   4.104   6.061  2.9614  3.2983  3.4613
 2357TIP3   OH228705   3.178   3.954   0.753  0.2394  0.2222 -0.2382
 2357TIP3    H128706   3.096   3.922   0.791 -0.6362  0.0730 -2.1227
 2357TIP3    H228707   3.222   3.876   0.720  0.9906  0.3431  0.4497
 2358TIP3   OH228708   4.032   7.196   0.007  0.0559 -0.0437  0.4612
 2358TIP3    H128709   4.035   7.286  -0.026 -0.5572  0.0011  0.5128
 2358TIP3    H228710   4.122   7.166   0.002 -0.2088 -0.6609 -2.9895
 2359TIP3   OH228711   2.459   2.237   6.793  0.6935 -0.1879 -0.3724
 2359TIP3    H128712   2.374   2.216   6.754  0.7987 -2.7858  0.6141
 2359TIP3    H228713   2.437   2.291   6.869 -0.0107 -0.2306 -0.5344
 2360TIP3   OH228714   4.121   6.154   0.343 -0.2462  0.2487 -0.4323
 2360TIP3    H128715   4.110   6.186   0.254  1.7456  0.5719 -0.6024
 2360TIP3    H228716   4.152   6.064   0.333  1.8617  0.8973 -0.1640
 2361TIP3   OH228717   5.159   2.031   1.169 -0.8384  0.3713 -0.5406
 2361TIP3    H128718   5.157   2.119   1.133 -0.6290  0.9036  0.7139
 2361TIP3    H228719   5.123   1.976   1.099 -0.1484  1.3115 -1.6713
 2362TIP3   OH228720   0.648   4.457   6.723 -0.3635 -0.1913 -0.2715
 2362TIP3    H128721   0.559   4.441   6.755 -0.2875  1.3935  0.8195
 2362TIP3    H228722   0.646   4.547   6.690  0.0552 -1.1372 -3.1327
 2363TIP3   OH228723   3.236   5.316   6.307 -0.1567  0.0277 -0.0790
 2363TIP3    H128724   3.186   5.235   6.294  1.5060 -1.1965  0.7199
 2363TIP3    H228725   3.306   5.291   6.368 -0.4015  2.4356  1.3213
 2364TIP3   OH228726   4.394   4.658   0.292 -0.1682 -0.7722 -0.5840
 2364TIP3    H128727   4.389   4.754   0.288 -0.9508 -0.8325 -1.3337
 2364TIP3    H228728   4.343   4.635   0.370 -0.9360 -0.6306 -1.0296
 2365TIP3   OH228729   4.089   6.574   7.712 -0.7288 -0.0781  0.2561
 2365TIP3    H128730   4.097   6.592   7.806 -0.9702  2.4641 -0.1325
 2365TIP3    H228731   3.996   6.559   7.698 -1.2115  2.5718  0.0599
 2366TIP3   OH228732   3.825   1.996   7.459 -0.2025 -0.1802  0.0439
 2366TIP3    H128733   3.834   1.926   7.523 -3.6330  1.8960  3.1551
 2366TIP3    H228734   3.791   1.952   7.381  1.7608 -2.4411  0.3328
 2367TIP3   OH228735   5.723   3.574   6.620 -0.0005  0.0599 -0.5557
 2367TIP3    H128736   5.672   3.629   6.679  0.0188 -1.5470  1.0811
 2367TIP3    H228737   5.798   3.547   6.673  0.8268 -0.2267 -1.8461
 2368TIP3   OH228738   3.675   3.206   7.411  0.6019 -0.7060 -0.2788
 2368TIP3    H128739   3.581   3.209   7.395  0.7397 -1.1356 -1.2211
 2368TIP3    H228740   3.699   3.296   7.432  0.3677 -0.1085 -2.3777
 2369TIP3   OH228741   0.234   3.585   5.389  0.2663  0.0411 -0.5728
 2369TIP3    H128742   0.240   3.493   5.362  0.6511 -1.0325  2.7141
 2369TIP3    H228743   0.140   3.598   5.404  0.3703 -0.3727  0.5292
 2370TIP3   OH228744   2.097   2.804   1.033  0.2780 -0.1214 -0.4419
 2370TIP3    H128745   2.118   2.760   1.115 -0.2277 -0.4637 -0.4951
 2370TIP3    H228746   2.175   2.792   0.978  0.4336 -0.2945 -0.1841
 2371TIP3   OH228747   2.511   3.340   2.217 -0.0424 -0.1379  0.0788
 2371TIP3    H128748   2.540   3.429   2.199  0.0977 -0.3916 -0.9878
 2371TIP3    H228749   2.588   3.297   2.255 -0.3808  0.4359  1.4711
 2372TIP3   OH228750   3.832   5.085   2.276  0.0275  0.2104  0.0297
 2372TIP3    H128751   3.809   5.161   2.223 -3.4062 -1.5183 -1.2477
 2372TIP3    H228752   3.830   5.117   2.367  0.9563  2.0844 -0.5619
 2373TIP3   OH228753   5.669   4.430   5.635  0.4907 -0.3047  0.8055
 2373TIP3    H128754   5.625   4.345   5.642 -1.1540  0.5345  0.9875
 2373TIP3    H228755   5.658   4.455   5.544 -2.6273  1.5142  1.5521
 2374TIP3   OH228756   2.013   3.763   1.343 -0.6262 -0.4246  0.4320
 2374TIP3    H128757   2.017   3.821   1.268  0.6671 -0.7641  0.2044
 2374TIP3    H228758   2.092   3.783   1.393 -0.1698 -1.9376  0.3630
 2375TIP3   OH228759   4.603   4.290   2.352 -0.1525 -0.0451  0.1403
 2375TIP3    H128760   4.644   4.297   2.266 -0.0090 -0.3599  0.1813
 2375TIP3    H228761   4.676   4.275   2.413 -0.3301 -0.6708  0.2048
 2376TIP3   OH228762   5.090   4.489   6.121 -0.0949  0.6403 -0.3417
 2376TIP3    H128763   5.161   4.477   6.058 -0.4856  1.2988 -0.9255
 2376TIP3    H228764   5.134   4.505   6.204  0.4296 -0.1417 -0.4584
 2377TIP3   OH228765   2.621   6.173   6.968  0.1677  0.0840 -0.1060
 2377TIP3    H128766   2.678   6.247   6.991 -0.3780  0.7811 -0.9216
 2377TIP3    H228767   2.555   6.171   7.037  1.7244 -1.3793  1.4208
 2378TIP3   OH228768   0.772   4.783   5.489  0.3630 -0.0721  0.2913
 2378TIP3    H128769   0.822   4.717   5.442 -1.0060 -1.0186  0.0946
 2378TIP3    H228770   0.681   4.768   5.461 -0.0165  1.7354  0.4302
 2379TIP3   OH228771   3.648   6.590   0.171  0.1530  0.2346 -0.2899
 2379TIP3    H128772   3.581   6.553   0.114  0.5856  0.3392 -0.8759
 2379TIP3    H228773   3.620   6.680   0.186  0.0365  0.2054 -0.3307
 2380TIP3   OH228774   2.237   6.072   0.320 -0.1377 -0.3488 -0.5479
 2380TIP3    H128775   2.280   6.126   0.254  0.5727  0.9363  0.9032
 2380TIP3    H228776   2.307   6.048   0.381 -0.8379 -1.2320 -0.0600
 2381TIP3   OH228777   3.585   0.539   7.590 -0.3430  0.0805 -0.1654
 2381TIP3    H128778   3.540   0.552   7.507  1.0789 -1.0354 -1.1827
 2381TIP3    H228779   3.675   0.515   7.565  0.0306 -0.6496  1.6723
 2382TIP3   OH228780   5.623   3.697   6.084 -0.3159  0.3918  0.3378
 2382TIP3    H128781   5.640   3.682   6.177  2.0261 -0.1419 -0.1280
 2382TIP3    H228782   5.529   3.718   6.080 -0.7994 -1.0031  2.6228
 2383TIP3   OH228783   6.877   3.022   6.746 -0.7735 -0.1007 -0.9533
 2383TIP3    H128784   6.865   2.928   6.759  0.0788 -0.2309 -1.0771
 2383TIP3    H228785   6.801   3.061   6.788 -0.5826 -0.7877  0.0723
 2384TIP3   OH228786   2.773   2.168   7.078  0.3205 -0.0518 -0.3939
 2384TIP3    H128787   2.745   2.127   6.996 -1.9254  1.0880 -0.2625
 2384TIP3    H228788   2.725   2.122   7.146  0.9094  0.1119  0.1446
 2385TIP3   OH228789   2.144   4.019   7.381  0.5935 -0.2859 -0.1659
 2385TIP3    H128790   2.068   3.983   7.336  0.1655  1.2230 -0.6782
 2385TIP3    H228791   2.132   3.993   7.473 -1.0337  0.7342 -0.0651
 2386TIP3   OH228792   3.509   1.366   1.043 -0.5106  0.5318 -0.5904
 2386TIP3    H128793   3.504   1.287   1.097  0.4077 -0.1306 -1.4547
 2386TIP3    H228794   3.420   1.376   1.007 -1.0678  0.8356  0.7926
 2387TIP3   OH228795   7.101   2.032   6.553 -0.9339  0.1620 -0.7116
 2387TIP3    H128796   7.046   2.109   6.539 -0.5122  0.8559  1.1349
 2387TIP3    H228797   7.099   1.985   6.469  0.6372  3.3193 -2.7002
 2388TIP3   OH228798   6.063   5.586   6.650 -0.0683  0.1482  0.2830
 2388TIP3    H128799   6.057   5.678   6.675 -0.6312 -0.1770  1.3989
 2388TIP3    H228800   6.136   5.552   6.701  0.1961 -0.0029 -0.1950
 2389TIP3   OH228801   1.422   6.003   0.168  0.2765  0.0103  0.1463
 2389TIP3    H128802   1.344   6.057   0.152 -0.1678 -1.0995 -1.7223
 2389TIP3    H228803   1.492   6.048   0.120  0.2829 -0.1763 -0.0205
 2390TIP3   OH228804   1.265   2.878   6.823 -0.5577  0.7508  0.1310
 2390TIP3    H128805   1.179   2.877   6.864 -0.5011 -1.1111  0.3154
 2390TIP3    H228806   1.316   2.813   6.872  0.9170  1.7309 -0.0488
 2391TIP3   OH228807   6.383   7.061   0.142  0.1517  0.0803 -0.5407
 2391TIP3    H128808   6.388   7.110   0.224  0.1520  0.5190 -0.8018
 2391TIP3    H228809   6.404   6.971   0.167 -1.5257 -0.1400  0.2612
 2392TIP3   OH228810   6.199   0.326   6.368 -0.0114 -0.2220  0.3732
 2392TIP3    H128811   6.177   0.372   6.288  1.9691  1.0406  0.4953
 2392TIP3    H228812   6.276   0.274   6.346 -1.5439 -2.7324  0.5422
 2393TIP3   OH228813   7.107   5.163   7.631 -0.4443  0.1612 -0.4303
 2393TIP3    H128814   7.178   5.193   7.687 -0.2119 -1.4228  0.1781
 2393TIP3    H228815   7.121   5.069   7.622 -1.3182  0.1447 -1.9707
 2394TIP3   OH228816   0.407   6.195   1.054 -0.9169  0.1671  0.0655
 2394TIP3    H128817   0.352   6.242   1.118  0.7090  1.2185  0.7634
 2394TIP3    H228818   0.470   6.147   1.107  0.4908  1.0874 -0.7141
 2395TIP3   OH228819   5.398   3.057   0.316  0.1719 -0.2178  0.0424
 2395TIP3    H128820   5.322   3.031   0.264  0.3113 -1.6305  0.4980
 2395TIP3    H228821   5.388   3.152   0.328 -1.2130 -0.2928 -0.3698
 2396TIP3   OH228822   0.829   4.296   7.487 -0.2049 -0.2871  0.9384
 2396TIP3    H128823   0.827   4.260   7.575 -2.2480 -1.6626  0.4071
 2396TIP3    H228824   0.808   4.222   7.430 -1.4110  1.0603 -0.4680
 2397TIP3   OH228825   0.527   1.984   0.644 -0.9452  0.3312  0.2764
 2397TIP3    H128826   0.448   2.029   0.674 -1.6205 -1.4227  1.2779
 2397TIP3    H228827   0.506   1.891   0.652  0.8429 -0.1762 -0.5026
 2398TIP3   OH228828   2.849   4.462   6.663  0.5311 -0.1542 -0.0932
 2398TIP3    H128829   2.763   4.469   6.703  0.5490 -1.9405  0.3074
 2398TIP3    H228830   2.871   4.552   6.639 -1.1992  0.4026  0.2776
 2399TIP3   OH228831   1.804   5.694   1.773  0.0100 -0.1411  0.1813
 2399TIP3    H128832   1.787   5.788   1.780  0.8296  0.0945 -0.7752
 2399TIP3    H228833   1.770   5.658   1.855  1.9232  1.3205  1.7189
 2400TIP3   OH228834   6.165   1.268   1.523 -0.0856  0.1805 -0.0615
 2400TIP3    H128835   6.141   1.248   1.613 -1.2850 -0.2578 -0.4672
 2400TIP3    H228836   6.255   1.300   1.529 -0.0609 -0.0904  1.2540
 2401TIP3   OH228837   6.952   6.782   6.552 -0.2762  0.2202 -0.0598
 2401TIP3    H128838   6.928   6.838   6.626 -0.0256 -0.0986  0.2704
 2401TIP3    H228839   6.930   6.693   6.581  2.0891 -0.2190  0.6641
 2402TIP3   OH228840   2.009   6.236   6.619  0.4528  0.9618  0.5748
 2402TIP3    H128841   1.984   6.251   6.710 -0.1730  2.9089  0.1292
 2402TIP3    H228842   2.025   6.323   6.584  2.6962  0.1274 -0.6531
 2403TIP3   OH228843   6.938   6.123   1.243  1.0952  0.0995  0.1752
 2403TIP3    H128844   7.014   6.085   1.200  0.4869 -1.1853  0.1883
 2403TIP3    H228845   6.865   6.107   1.183  0.6903  0.6030  0.5172
 2404TIP3   OH228846   6.453   4.917   7.307  0.1431 -0.5468  0.1961
 2404TIP3    H128847   6.387   4.966   7.357 -0.4674 -1.1559 -0.0004
 2404TIP3    H228848   6.515   4.886   7.373  0.4695  0.3734  0.3383
 2405TIP3   OH228849   6.057   2.885   6.338 -0.3571  0.7128 -0.0037
 2405TIP3    H128850   6.107   2.905   6.417 -0.5508 -0.3130  0.3976
 2405TIP3    H228851   5.965   2.897   6.364 -0.4179  0.4393 -0.0885
 2406TIP3   OH228852   1.554   0.019   7.204 -0.1680 -0.3977  0.2587
 2406TIP3    H128853   1.533   0.112   7.202 -1.0374 -0.5567  1.1646
 2406TIP3    H228854   1.470  -0.024   7.218  0.2917 -1.2941  0.3343
 2407TIP3   OH228855   4.962   1.836   6.608 -0.0664  0.6861  0.6418
 2407TIP3    H128856   4.988   1.749   6.635  0.9239  0.7745  0.0235
 2407TIP3    H228857   4.925   1.824   6.520  0.1134  0.8992  0.5366
 2408TIP3   OH228858   6.101   4.420   1.707 -0.1888  0.2509  0.2483
 2408TIP3    H128859   6.079   4.401   1.798  0.2005 -1.9446 -0.0456
 2408TIP3    H228860   6.060   4.348   1.657  3.2498 -1.1997 -0.8105
 2409TIP3   OH228861   3.006   7.125   7.251  0.2563 -0.3941  0.3839
 2409TIP3    H128862   3.082   7.126   7.193  1.0600 -3.5451  1.1995
 2409TIP3    H228863   3.037   7.080   7.330 -2.3562 -1.5260  0.8607
 2410TIP3   OH228864   1.033   5.962   0.955 -0.3561  0.1279  0.2576
 2410TIP3    H128865   0.942   5.936   0.936 -0.1906  0.9841 -2.0282
 2410TIP3    H228866   1.024   6.040   1.010 -1.0215  0.4914 -0.3489
 2411TIP3   OH228867   1.698   2.425   0.694  0.3420  0.3783 -0.3279
 2411TIP3    H128868   1.603   2.413   0.702  0.6772 -2.1545  1.0690
 2411TIP3    H228869   1.709   2.482   0.618 -2.2758  0.3745 -0.8026
 2412TIP3   OH228870   4.709   2.967   0.779 -0.1330  0.2707 -0.5048
 2412TIP3    H128871   4.770   2.980   0.852 -0.9159 -0.9590  0.4073
 2412TIP3    H228872   4.647   3.039   0.786  0.2816  0.6314 -0.4832
 2413TIP3   OH228873   2.370   0.849   1.593 -0.8736  0.3279  0.5686
 2413TIP3    H128874   2.279   0.823   1.609 -0.5104  0.3022  2.9279
 2413TIP3    H228875   2.422   0.777   1.630  0.1080  1.3238  1.1670
 2414TIP3   OH228876   0.960   4.577   6.292 -0.2717  0.6374 -0.6972
 2414TIP3    H128877   0.895   4.631   6.248 -1.0531  0.4344  0.1790
 2414TIP3    H228878   0.925   4.488   6.288  0.0322  0.4971 -0.3684
 2415TIP3   OH228879   0.610   5.084   7.342  0.0671 -0.4084 -0.4918
 2415TIP3    H128880   0.667   5.151   7.380 -0.2055  0.4397 -1.5110
 2415TIP3    H228881   0.550   5.133   7.285 -1.2606 -1.3456  0.0392
 2416TIP3   OH228882   6.160   5.187   1.021 -0.1331  0.0289  0.2926
 2416TIP3    H128883   6.204   5.201   0.937 -1.4969 -0.7998 -0.6025
 2416TIP3    H228884   6.166   5.272   1.065 -0.3182  0.8158 -1.1094
 2417TIP3   OH228885   5.672   4.750   0.818 -0.7863 -0.3243 -0.0957
 2417TIP3    H128886   5.723   4.787   0.746 -0.4394  0.2064  0.4039
 2417TIP3    H228887   5.693   4.657   0.817  2.3100  0.1853  1.6633
 2418TIP3   OH228888   3.987   4.710   7.601  0.2236 -0.1460  0.2546
 2418TIP3    H128889   4.003   4.681   7.511  0.9476  0.9165  0.0149
 2418TIP3    H228890   3.984   4.806   7.594  1.6544  0.0174  1.5524
 2419TIP3   OH228891   6.761   6.769   7.501  0.3787  0.6826 -0.3269
 2419TIP3    H128892   6.740   6.753   7.409 -1.0993 -1.0928  0.2459
 2419TIP3    H228893   6.682   6.809   7.537  1.1128  1.7913  0.1048
 2420TIP3   OH228894   3.260   6.851   7.671 -0.2037 -0.3873 -0.0580
 2420TIP3    H128895   3.323   6.779   7.665 -2.0879 -2.2313  1.0379
 2420TIP3    H228896   3.282   6.895   7.753  0.7397  0.1258 -0.5636
 2421TIP3   OH228897   5.063   4.451   0.461  0.3253  0.3465 -0.3368
 2421TIP3    H128898   5.153   4.427   0.440  0.1595 -1.2698  0.6246
 2421TIP3    H228899   5.019   4.456   0.376  0.8862 -0.7426 -0.7053
 2422TIP3   OH228900   5.928   3.014   0.501  0.0746  0.7764 -0.1939
 2422TIP3    H128901   5.914   2.921   0.516 -0.2537  0.8788  0.1656
 2422TIP3    H228902   5.992   3.018   0.431  0.2867  0.2773 -0.0337
 2423TIP3   OH228903   5.142   5.759   7.174 -0.1444  0.0759 -0.4489
 2423TIP3    H128904   5.197   5.742   7.098  1.9361 -1.3805  1.2730
 2423TIP3    H228905   5.181   5.836   7.215 -1.3128  0.9104 -0.8291
 2424TIP3   OH228906   5.707   4.844   7.679  0.2625 -0.2533 -0.0654
 2424TIP3    H128907   5.797   4.877   7.686  0.2021 -0.1084  0.0417
 2424TIP3    H228908   5.667   4.866   7.763  0.3845 -1.0998  0.2261
 2425TIP3   OH228909   1.608   4.674   5.955  0.1352 -0.3591 -0.1036
 2425TIP3    H128910   1.657   4.592   5.953 -0.6280 -0.8108 -0.9614
 2425TIP3    H228911   1.647   4.728   5.886 -0.4008 -0.6195 -0.6129
 2426TIP3   OH228912   4.364   6.612   0.745 -0.2333 -0.7364  0.1347
 2426TIP3    H128913   4.366   6.697   0.700 -1.3383 -1.3286 -1.0780
 2426TIP3    H228914   4.410   6.552   0.686 -0.6964 -1.2795  0.3196
 2427TIP3   OH228915   4.085   5.722   7.971 -0.2259 -0.5215  0.2607
 2427TIP3    H128916   4.176   5.752   7.964 -0.1042 -0.8044  0.5586
 2427TIP3    H228917   4.080   5.685   8.059 -0.7741 -0.0436  0.4337
 2428TIP3   OH228918   5.986   4.985   5.855 -0.1182  0.6440 -0.0686
 2428TIP3    H128919   6.068   4.997   5.904  1.0681  1.8579 -2.1939
 2428TIP3    H228920   6.014   4.947   5.771 -1.4742  2.5969 -1.4814
 2429TIP3   OH228921   1.620   4.550   1.059  0.2873  0.4135  0.4891
 2429TIP3    H128922   1.714   4.549   1.046  0.1488 -0.8700 -0.5441
 2429TIP3    H228923   1.595   4.641   1.042  1.1110  0.3793 -1.0638
 2430TIP3   OH228924   0.134   5.930   7.199  0.0140  0.1179 -0.3553
 2430TIP3    H128925   0.198   5.970   7.140 -0.4584  0.4002 -0.6752
 2430TIP3    H228926   0.052   5.976   7.181 -0.6226 -1.1980 -0.9622
 2431TIP3   OH228927   0.737   4.962   5.689  0.1464 -0.2839  0.0191
 2431TIP3    H128928   0.656   5.012   5.683 -0.6680 -1.1781  2.4413
 2431TIP3    H228929   0.748   4.923   5.603 -0.8292  1.5489 -0.9996
 2432TIP3   OH228930   6.886   3.386   6.394  0.4264 -0.0409  0.2380
 2432TIP3    H128931   6.891   3.291   6.388 -0.8957 -0.0323 -1.8202
 2432TIP3    H228932   6.921   3.417   6.311 -0.5966  1.2005  0.2389
 2433TIP3   OH228933   4.030   6.737   7.290  0.0826  0.0751  0.5786
 2433TIP3    H128934   4.083   6.739   7.210 -0.2444 -0.6865  0.3390
 2433TIP3    H228935   3.961   6.674   7.272 -0.1993  0.1517  1.3445
 2434TIP3   OH228936   3.548   2.836   6.239  0.0851 -0.1001  0.7641
 2434TIP3    H128937   3.638   2.863   6.220  0.0400 -0.9598 -0.8852
 2434TIP3    H228938   3.494   2.900   6.193 -0.2276  1.2307  2.8754
 2435TIP3   OH228939   6.978   3.908   1.324  0.6457  0.0623 -0.4777
 2435TIP3    H128940   6.977   3.920   1.229  0.5351 -2.0674 -0.7867
 2435TIP3    H228941   7.071   3.908   1.347  0.6828  0.3121 -0.6221
 2436TIP3   OH228942   6.735   3.974   5.895 -0.1818 -0.4343 -0.1649
 2436TIP3    H128943   6.662   3.973   5.832  0.2865 -1.6649 -0.7255
 2436TIP3    H228944   6.799   4.033   5.857 -0.2905 -0.4596 -0.3875
 2437TIP3   OH228945   1.259   4.997   7.191  0.7411  0.2636  0.5849
 2437TIP3    H128946   1.202   4.981   7.266  0.5913 -1.9305  0.0437
 2437TIP3    H228947   1.347   5.005   7.229  0.4480  0.9710  1.1453
 2438TIP3   OH228948   5.197   3.612   1.140  0.1367 -0.1542  0.3814
 2438TIP3    H128949   5.104   3.617   1.163  0.0915  0.9543  0.0285
 2438TIP3    H228950   5.232   3.544   1.197 -0.8278 -0.3663  0.7421
 2439TIP3   OH228951   6.048   2.584   6.329 -0.0319 -0.4580 -0.0682
 2439TIP3    H128952   5.969   2.578   6.275  0.0311 -1.3292 -0.0688
 2439TIP3    H228953   6.052   2.676   6.355  0.1575  0.1049 -1.8933
 2440TIP3   OH228954   2.903   6.650   0.131 -0.2653 -0.4724 -0.4185
 2440TIP3    H128955   2.884   6.573   0.185  1.9177  0.8403  2.4715
 2440TIP3    H228956   2.986   6.630   0.088 -0.1069 -0.0411 -0.3133
 2441TIP3   OH228957   5.945   5.788   1.068  0.1641  0.2960  0.3515
 2441TIP3    H128958   5.976   5.876   1.087  0.4006 -0.0372  1.6043
 2441TIP3    H228959   5.933   5.748   1.154 -1.9240 -0.2249 -0.1188
 2442TIP3   OH228960   6.221   1.401   6.798 -0.1493 -0.4603  0.3517
 2442TIP3    H128961   6.208   1.496   6.788  0.3173 -0.3583  0.6805
 2442TIP3    H228962   6.313   1.387   6.775  0.4447 -0.4949  2.5697
 2443TIP3   OH228963   1.018   4.950   7.592  0.3920 -0.0648 -0.2611
 2443TIP3    H128964   1.026   5.046   7.590 -1.7518  0.1574 -1.6934
 2443TIP3    H228965   0.994   4.927   7.502 -0.2861 -1.8337  0.3459
 2444TIP3   OH228966   4.180   1.951   0.816  0.9398  0.3309 -0.2182
 2444TIP3    H128967   4.199   1.937   0.723  0.4163  0.2760 -0.3185
 2444TIP3    H228968   4.135   1.871   0.844  0.1306  0.7886 -0.1873
 2445TIP3   OH228969   7.118   6.165   7.456  0.0946 -0.2434 -0.3841
 2445TIP3    H128970   7.203   6.134   7.486  0.0577  1.1953  1.4208
 2445TIP3    H228971   7.079   6.091   7.410  1.1156 -1.9045  1.3039
 2446TIP3   OH228972   5.362   1.060   7.198 -0.6767 -0.4774  0.0199
 2446TIP3    H128973   5.355   1.147   7.159 -0.0511 -0.4452 -0.0428
 2446TIP3    H228974   5.316   1.068   7.282  1.4543  0.6552  1.1821
 2447TIP3   OH228975   6.276   6.440   1.748  0.0055  0.2819 -0.0826
 2447TIP3    H128976   6.308   6.528   1.770  0.1916  0.3302 -0.5314
 2447TIP3    H228977   6.228   6.412   1.826  1.0434  0.2591  0.5760
 2448TIP3   OH228978   3.534   3.670   6.657  0.1392 -0.1905  0.1617
 2448TIP3    H128979   3.516   3.737   6.591 -0.1983 -0.2944  0.1492
 2448TIP3    H228980   3.554   3.721   6.736  1.0356 -0.0586 -0.1397
 2449TIP3   OH228981   7.004   0.517   6.228 -0.1418  0.2442  1.0477
 2449TIP3    H128982   7.095   0.489   6.215 -0.9539 -1.7185 -1.1538
 2449TIP3    H228983   6.986   0.500   6.321  1.4169 -0.3472  1.2683
 2450TIP3   OH228984   3.879   4.455   0.089  0.1457  0.1868  0.8014
 2450TIP3    H128985   3.942   4.512   0.133 -0.8521  0.2690  2.2095
 2450TIP3    H228986   3.816   4.516   0.050  1.7338  0.1765 -2.0253
 2451TIP3   OH228987   6.125   2.542   7.054 -0.0120 -0.5362 -0.0183
 2451TIP3    H128988   6.091   2.619   7.009  1.0710 -0.6668 -1.0927
 2451TIP3    H228989   6.110   2.560   7.147 -0.3515  0.6757 -0.2946
 2452TIP3   OH228990   6.687   5.704   6.379  0.3135 -0.9291  0.5454
 2452TIP3    H128991   6.653   5.712   6.290 -0.4780 -1.6278  0.7754
 2452TIP3    H228992   6.781   5.690   6.368  0.5949  1.1817 -0.0963
 2453TIP3   OH228993   5.447   2.449   6.581 -0.3075 -0.0044  0.1121
 2453TIP3    H128994   5.468   2.357   6.596  1.8663  0.4168 -0.0858
 2453TIP3    H228995   5.382   2.470   6.649  0.4152 -1.2358  1.2302
 2454TIP3   OH228996   0.029   0.456   5.943  0.8495 -0.2720  0.4497
 2454TIP3    H128997   0.076   0.448   6.026 -0.2423 -0.3883  1.0646
 2454TIP3    H228998  -0.016   0.373   5.932  0.1992  0.1049  0.2280
 2455TIP3   OH228999   0.879   3.603   7.638 -0.0460  0.0354  0.3326
 2455TIP3    H129000   0.881   3.535   7.570 -0.4938  1.2169 -0.9001
 2455TIP3    H229001   0.789   3.635   7.638  0.2691  0.9489  0.5552
 2456TIP3   OH229002   0.970   3.730   2.138 -0.1245  0.2170  0.0464
 2456TIP3    H129003   0.990   3.644   2.100  1.4528  0.6415 -0.1288
 2456TIP3    H229004   0.939   3.783   2.064 -0.2628  0.0713 -0.0021
 2457TIP3   OH229005   5.675   1.601   1.563 -0.0622 -0.2922  0.6611
 2457TIP3    H129006   5.650   1.619   1.653  0.4081 -0.7863  0.8899
 2457TIP3    H229007   5.593   1.577   1.520 -0.5743  1.4993  0.5548
 2458TIP3   OH229008   0.304   3.873   0.697  0.3876 -0.4827  0.3458
 2458TIP3    H129009   0.241   3.802   0.682 -1.0047  0.6965  0.3897
 2458TIP3    H229010   0.311   3.918   0.613 -1.2922  1.2901  1.0844
 2459TIP3   OH229011   0.153   3.177   1.460 -0.0761 -0.2726 -0.0839
 2459TIP3    H129012   0.076   3.223   1.426 -0.9939 -2.1147 -0.6318
 2459TIP3    H229013   0.221   3.192   1.395 -0.7732 -0.7916 -0.9661
 2460TIP3   OH229014   6.795   2.768   6.818 -0.0970 -0.2184  0.0529
 2460TIP3    H129015   6.810   2.710   6.892 -1.0574 -0.9915 -0.3386
 2460TIP3    H229016   6.708   2.744   6.785 -0.9838  2.0779  0.4871
 2461TIP3   OH229017   4.356   2.674   6.696 -0.0812  0.0561  0.2062
 2461TIP3    H129018   4.365   2.598   6.639 -1.0882 -0.2882  0.4740
 2461TIP3    H229019   4.293   2.646   6.763 -1.0047  1.3444 -0.0852
 2462TIP3   OH229020   2.739   2.740   0.446  0.0852  0.7250  0.0054
 2462TIP3    H129021   2.672   2.808   0.458  0.2528  1.0352 -0.7593
 2462TIP3    H229022   2.821   2.782   0.475  0.1543  0.7781 -0.2656
 2463TIP3   OH229023   6.976   2.601   0.101  0.2421 -0.6638 -0.5198
 2463TIP3    H129024   7.010   2.546   0.171  0.4310  0.8111  0.6147
 2463TIP3    H229025   6.971   2.544   0.025  0.4551 -2.2060  0.5860
 2464TIP3   OH229026   2.846   6.401   7.344  0.3672  0.6285  0.2463
 2464TIP3    H129027   2.867   6.474   7.402  0.3883  2.4464 -1.8991
 2464TIP3    H229028   2.897   6.327   7.378 -0.1558  1.3649  2.8713
 2465TIP3   OH229029   2.494   6.299   1.310 -0.3777  0.7870  0.0831
 2465TIP3    H129030   2.413   6.282   1.359 -0.8599  0.8273 -0.6762
 2465TIP3    H229031   2.561   6.249   1.356 -0.7593  1.0779  0.9592
 2466TIP3   OH229032   6.981   4.808   5.718  0.0053 -0.1243  0.2063
 2466TIP3    H129033   6.913   4.821   5.651  0.0287 -0.0544  0.1954
 2466TIP3    H229034   7.063   4.811   5.669 -0.0423 -1.6582  0.0061
 2467TIP3   OH229035   0.446   2.939   7.220  0.0731 -0.3263  0.3066
 2467TIP3    H129036   0.490   3.005   7.275 -1.0513 -0.3475  1.2700
 2467TIP3    H229037   0.353   2.949   7.240 -0.1054 -2.5641  0.9261
 2468TIP3   OH229038   0.461   1.285   0.506 -0.0534  0.2482 -0.2933
 2468TIP3    H129039   0.501   1.240   0.580  0.9670  0.8632 -0.4524
 2468TIP3    H229040   0.534   1.305   0.448 -0.1752  3.5666  0.5236
 2469TIP3   OH229041   0.553   3.832   6.433 -0.0143 -0.1686 -0.9034
 2469TIP3    H129042   0.518   3.777   6.503 -0.2511  1.0860 -0.0044
 2469TIP3    H229043   0.599   3.771   6.376 -1.1658 -1.4535 -0.5287
 2470TIP3   OH229044   4.219   1.896   7.557  0.1980 -0.0489 -0.4043
 2470TIP3    H129045   4.286   1.837   7.592  0.2384  0.5502  0.5607
 2470TIP3    H229046   4.256   1.984   7.566 -0.8861  0.3376  0.5965
 2471TIP3   OH229047   6.181   6.550   6.811 -0.1018  0.0223  0.1685
 2471TIP3    H129048   6.249   6.616   6.796 -1.2254  0.9981 -0.7823
 2471TIP3    H229049   6.107   6.579   6.758 -0.3030 -2.5421 -1.0996
 2472TIP3   OH229050   2.239   0.108   7.760 -0.1108 -0.3069  0.7930
 2472TIP3    H129051   2.217   0.192   7.800 -3.1468 -0.7130  0.1980
 2472TIP3    H229052   2.271   0.131   7.673  1.4286  0.3017  1.4872
 2473TIP3   OH229053   6.404   6.726   7.885 -0.1633 -0.0697 -0.4915
 2473TIP3    H129054   6.477   6.734   7.824 -0.0654 -1.6140 -0.6113
 2473TIP3    H229055   6.420   6.795   7.950  3.0315 -2.0650  1.1165
 2474TIP3   OH229056   1.099   7.192   0.325  0.2065  0.3899  0.1367
 2474TIP3    H129057   1.034   7.242   0.276  0.4510 -0.0683 -0.6640
 2474TIP3    H229058   1.054   7.170   0.407 -0.3832  0.7228 -0.0845
 2475TIP3   OH229059   2.681   1.540   1.136 -0.2054  0.0133  0.1900
 2475TIP3    H129060   2.627   1.473   1.094  0.1119 -0.3036  0.2807
 2475TIP3    H229061   2.689   1.509   1.227 -0.7271  0.5903  0.4402
 2476TIP3   OH229062   0.937   0.619   0.826  0.7143  0.0385 -0.0146
 2476TIP3    H129063   0.873   0.689   0.815  1.2254  0.3591 -1.1277
 2476TIP3    H229064   0.903   0.567   0.899 -0.6775  0.3367 -0.4180
 2477TIP3   OH229065   1.888   5.440   5.572  0.0240  0.2815 -0.0876
 2477TIP3    H129066   1.937   5.522   5.570  0.1277  0.2127 -1.0679
 2477TIP3    H229067   1.811   5.460   5.625  0.9665  0.4583  1.2788
 2478TIP3   OH229068   0.947   5.054   6.721 -0.9887 -0.2692  0.6146
 2478TIP3    H129069   1.005   4.988   6.682 -0.0761  1.4144 -1.0711
 2478TIP3    H229070   0.869   5.005   6.746 -0.6654 -1.9072 -1.2759
 2479TIP3   OH229071   4.151   3.633   7.870  0.0722  0.1752 -0.2187
 2479TIP3    H129072   4.141   3.585   7.787  1.7156 -0.6408  0.0163
 2479TIP3    H229073   4.061   3.641   7.904 -0.5259 -0.3007 -1.6097
 2480TIP3   OH229074   2.103   5.462   0.516 -0.1357  0.1131  0.0223
 2480TIP3    H129075   2.143   5.502   0.440  0.0939 -0.5501 -0.2171
 2480TIP3    H229076   2.013   5.493   0.516 -0.0366  0.3956 -0.3150
 2481TIP3   OH229077   6.901   5.842   5.397  0.1464  0.4366  0.3192
 2481TIP3    H129078   6.829   5.825   5.458 -1.1606  1.6264 -0.8318
 2481TIP3    H229079   6.928   5.755   5.368 -1.4764 -0.0207  0.0731
 2482TIP3   OH229080   2.372   0.734   6.875  0.4657 -0.4011 -0.4480
 2482TIP3    H129081   2.404   0.789   6.946  0.0762 -1.0067  0.2075
 2482TIP3    H229082   2.292   0.779   6.844  0.5349 -0.2339 -0.3861
 2483TIP3   OH229083   5.169   5.577   1.132  0.2922  0.6641 -0.3671
 2483TIP3    H129084   5.167   5.504   1.070  1.0014 -0.0621  0.4352
 2483TIP3    H229085   5.164   5.655   1.077  1.5078  0.0604 -1.3839
 2484TIP3   OH229086   0.479   4.417   7.525 -0.2970  0.0846  0.7801
 2484TIP3    H129087   0.422   4.389   7.454  0.0388 -1.2951  1.0245
 2484TIP3    H229088   0.530   4.489   7.488  0.1656 -0.8716 -0.5430
 2485TIP3   OH229089   4.064   2.023   7.917  0.2795  0.4358  0.3495
 2485TIP3    H129090   4.080   2.102   7.866 -0.5514 -0.4537 -1.3389
 2485TIP3    H229091   3.971   2.024   7.936  0.6384  0.9843  2.3212
 2486TIP3   OH229092   2.033   2.437   7.394 -0.1189  0.0669 -0.0620
 2486TIP3    H129093   2.087   2.446   7.315 -1.9444 -0.0568 -1.3847
 2486TIP3    H229094   2.031   2.343   7.410 -0.0134  0.0629 -0.0695
 2487TIP3   OH229095   4.096   5.904   1.663  0.3181 -0.0088 -0.2569
 2487TIP3    H129096   4.097   5.979   1.603  0.1339  0.1948 -0.0095
 2487TIP3    H229097   4.173   5.916   1.719  1.0086 -0.6879 -1.0390
 2488TIP3   OH229098   5.975   4.226   7.950 -0.0042 -0.5535  0.0013
 2488TIP3    H129099   6.019   4.309   7.972 -0.1779 -0.4663  0.0245
 2488TIP3    H229100   6.043   4.159   7.961 -0.1878 -0.5713  1.2276
 2489TIP3   OH229101   4.015   4.071   1.375  1.0073  0.1463  0.1052
 2489TIP3    H129102   3.978   4.106   1.456  0.9074  0.5671 -0.1170
 2489TIP3    H229103   4.109   4.064   1.392  1.1000  0.9835  0.0009
 2490TIP3   OH229104   3.347   3.755   0.626  0.0188  0.1662  0.7164
 2490TIP3    H129105   3.400   3.783   0.551 -1.8734 -1.4535 -1.3964
 2490TIP3    H229106   3.326   3.663   0.606 -1.6884  0.0980  2.5798
 2491TIP3   OH229107   0.433   6.848   6.769 -0.3080 -0.0713  0.6946
 2491TIP3    H129108   0.478   6.816   6.691 -0.6600  0.8578  0.0936
 2491TIP3    H229109   0.495   6.907   6.810 -0.5937  0.4424  0.4029
 2492TIP3   OH229110   4.450   6.507   5.901 -0.2482 -0.2123  0.5862
 2492TIP3    H129111   4.540   6.474   5.904 -0.3929 -0.6314  0.3689
 2492TIP3    H229112   4.400   6.437   5.859 -0.7571 -0.1790  1.1152
 2493TIP3   OH229113   1.538   1.842   6.970  0.2369 -0.1625 -0.0465
 2493TIP3    H129114   1.445   1.836   6.951  0.6056 -1.1906 -1.7733
 2493TIP3    H229115   1.566   1.751   6.982  1.0347  0.1299  0.4005
 2494TIP3   OH229116   3.758   3.839   6.126  0.7893  0.1984 -0.2445
 2494TIP3    H129117   3.715   3.921   6.101  1.4862  0.5337 -0.3634
 2494TIP3    H229118   3.706   3.771   6.083 -0.1821  0.5212  0.3831
 2495TIP3   OH229119   7.125   5.407   6.442  0.7237 -0.0931  0.0609
 2495TIP3    H129120   7.148   5.365   6.525  1.0877 -0.4724 -0.2255
 2495TIP3    H229121   7.058   5.349   6.405 -1.4102  1.4460  1.2843
 2496TIP3   OH229122   3.543   2.222   6.656  0.2474 -0.3196  0.2592
 2496TIP3    H129123   3.547   2.126   6.660 -0.4608 -0.3143  1.3874
 2496TIP3    H229124   3.614   2.246   6.595 -0.6741 -1.6336 -1.4271
 2497TIP3   OH229125   2.758   4.187   7.413  0.5220  1.1013  0.5220
 2497TIP3    H129126   2.844   4.162   7.449 -0.1085 -2.0647  0.1293
 2497TIP3    H229127   2.766   4.171   7.319 -0.8428 -0.6375  0.6456
 2498TIP3   OH229128   6.017   5.025   7.424 -0.2774 -0.2187 -0.1571
 2498TIP3    H129129   6.004   5.065   7.339 -0.8618  0.3050  0.1719
 2498TIP3    H229130   6.111   5.034   7.441  0.3580 -2.5858 -1.8439
 2499TIP3   OH229131   5.287   3.739   0.803  0.0466  0.1221  0.0630
 2499TIP3    H129132   5.318   3.648   0.800 -1.0135 -0.2419 -1.2008
 2499TIP3    H229133   5.334   3.783   0.732 -0.8879  0.0179 -0.6572
 2500TIP3   OH229134   3.571   5.604   1.606 -0.0074 -0.4625 -0.0853
 2500TIP3    H129135   3.526   5.555   1.675 -1.0786 -0.5102 -0.7906
 2500TIP3    H229136   3.553   5.554   1.526 -0.1491  0.4540 -0.6356
 2501TIP3   OH229137   0.408   2.354   5.583  0.2403  0.3626 -0.4105
 2501TIP3    H129138   0.482   2.317   5.632  0.1573 -0.6449 -1.0220
 2501TIP3    H229139   0.382   2.431   5.634  1.5465  0.5981 -0.0512
 2502TIP3   OH229140   5.060   3.382   0.211 -0.2606  0.4051  0.2088
 2502TIP3    H129141   5.051   3.466   0.256  1.0049  0.5988  0.1202
 2502TIP3    H229142   4.979   3.335   0.232  0.1650  0.5902  2.4759
 2503TIP3   OH229143   0.580   2.582   0.023 -0.0181  0.4580 -0.8406
 2503TIP3    H129144   0.535   2.645  -0.034 -0.1504  0.6565 -0.5244
 2503TIP3    H229145   0.559   2.612   0.112  0.3971  0.3060 -0.6890
 2504TIP3   OH229146   5.108   6.165   1.076 -0.0266 -0.3508 -0.2856
 2504TIP3    H129147   5.121   6.259   1.071 -0.3286 -0.2805  0.2343
 2504TIP3    H229148   5.186   6.132   1.121 -0.4233 -0.2242  0.5011
 2505TIP3   OH229149   1.697   7.013   0.481 -0.3664  0.0347  0.2532
 2505TIP3    H129150   1.736   7.007   0.568  0.8876 -2.1044 -0.3761
 2505TIP3    H229151   1.759   7.065   0.430 -0.8361  0.8304  0.4732
 2506TIP3   OH229152   3.956   3.958   6.411 -0.2736 -0.2490 -0.4374
 2506TIP3    H129153   3.895   3.892   6.445  1.0654 -0.5937  1.4536
 2506TIP3    H229154   3.912   4.042   6.426 -0.4908 -0.5140  0.4498
 2507TIP3   OH229155   3.593   2.442   6.834  0.0343  0.0400  0.8151
 2507TIP3    H129156   3.572   2.355   6.801  0.8606 -0.1912  0.8925
 2507TIP3    H229157   3.665   2.472   6.778  1.9528 -0.6381  2.7774
 2508TIP3   OH229158   5.306   2.119   7.732 -0.4322  0.7693  0.0524
 2508TIP3    H129159   5.272   2.123   7.821  0.1510  0.4688  0.2912
 2508TIP3    H229160   5.328   2.209   7.711  2.7160  0.4568  1.5195
 2509TIP3   OH229161   6.210   0.332   6.648 -0.0963 -0.1312 -0.2164
 2509TIP3    H129162   6.302   0.327   6.675 -0.4755  0.0436  1.1932
 2509TIP3    H229163   6.214   0.341   6.552  1.2763 -2.4691 -0.4585
 2510TIP3   OH229164   0.149   0.117   1.926 -0.1972 -0.0080  0.1627
 2510TIP3    H129165   0.163   0.174   2.001  0.7472 -1.7273  1.3765
 2510TIP3    H229166   0.224   0.058   1.926 -0.1518 -0.0602 -2.1896
 2511TIP3   OH229167   6.549   6.902   7.616  0.7221 -0.4513  0.0779
 2511TIP3    H129168   6.523   6.940   7.700  2.0426 -0.1574  0.3812
 2511TIP3    H229169   6.468   6.895   7.566 -0.1749 -1.1108  1.5588
 2512TIP3   OH229170   2.192   5.304   1.027 -0.2363 -0.0919 -0.2294
 2512TIP3    H129171   2.122   5.276   0.967 -1.1210 -0.0616  0.7596
 2512TIP3    H229172   2.162   5.390   1.059  2.0540  1.7649 -2.6463
 2513TIP3   OH229173   6.653   0.251   1.552 -0.4407 -0.6609 -0.1171
 2513TIP3    H129174   6.678   0.335   1.591 -0.1055 -1.0392  0.5059
 2513TIP3    H229175   6.568   0.267   1.512 -0.4200 -0.0482  0.0765
 2514TIP3   OH229176   3.517   2.428   1.155 -0.6975 -0.5365 -0.0753
 2514TIP3    H129177   3.602   2.387   1.140  0.6685  1.3597  1.8393
 2514TIP3    H229178   3.469   2.414   1.074  0.4722 -3.7824 -0.3667
 2515TIP3   OH229179   7.098   5.843   5.741  0.1969  0.0233 -0.4282
 2515TIP3    H129180   7.058   5.924   5.774  0.0534 -0.0978 -0.3100
 2515TIP3    H229181   7.138   5.870   5.658  0.6841  0.3585 -0.0960
 2516TIP3   OH229182   2.178   2.863   6.840 -0.4765  0.5832 -0.1116
 2516TIP3    H129183   2.131   2.905   6.912 -2.5779  0.3604 -1.2617
 2516TIP3    H229184   2.176   2.770   6.861  0.4170  0.6511  0.3377
 2517TIP3   OH229185   3.262   1.657   6.340 -0.2762 -0.1414 -0.0673
 2517TIP3    H129186   3.305   1.580   6.377 -0.1316  0.6600  1.5275
 2517TIP3    H229187   3.334   1.709   6.304 -0.4754 -1.2292 -2.2054
 2518TIP3   OH229188   2.087   5.139   6.918 -0.1034  0.1938  0.0607
 2518TIP3    H129189   2.036   5.058   6.918 -0.0877  0.1459 -1.4935
 2518TIP3    H229190   2.107   5.154   6.826 -0.0240  1.9317  0.3350
 2519TIP3   OH229191   0.455   2.447   1.511 -0.1424  0.0980 -0.4109
 2519TIP3    H129192   0.367   2.412   1.498 -0.5028  0.6546  0.4433
 2519TIP3    H229193   0.511   2.394   1.454 -0.7608 -1.4231  0.3578
 2520TIP3   OH229194   3.364   5.286   1.971  0.3633  0.2886 -0.0085
 2520TIP3    H129195   3.400   5.255   2.054  1.5528 -1.1038 -1.0090
 2520TIP3    H229196   3.405   5.371   1.957 -0.0384  0.6537  0.9233
 2521TIP3   OH229197   3.096   4.223   7.968  0.2584 -0.3896 -0.0565
 2521TIP3    H129198   3.063   4.286   7.904  0.2338 -0.6913 -0.3490
 2521TIP3    H229199   3.184   4.253   7.989  1.0026 -1.2934 -1.6500
 2522TIP3   OH229200   1.074   0.735   7.608 -0.3016  0.0763  0.0499
 2522TIP3    H129201   1.125   0.742   7.527 -0.9502  0.7879 -0.3187
 2522TIP3    H229202   1.138   0.741   7.678  0.3716 -1.4630 -0.4056
 2523TIP3   OH229203   2.304   2.717   0.820  0.4508 -0.2157 -0.5625
 2523TIP3    H129204   2.349   2.667   0.753  1.4923  1.1016 -0.8824
 2523TIP3    H229205   2.328   2.808   0.803  0.1254  0.2234  1.1304
 2524TIP3   OH229206   0.873   7.074   7.807  0.6104 -0.1629 -0.5226
 2524TIP3    H129207   0.834   7.031   7.731 -0.5063  1.1287 -0.7154
 2524TIP3    H229208   0.798   7.092   7.864  1.3841 -0.7300  0.7006
 2525TIP3   OH229209   3.533   4.450   0.479 -0.4708 -1.1379  0.6311
 2525TIP3    H129210   3.611   4.491   0.517  0.1135 -2.2926  0.7258
 2525TIP3    H229211   3.561   4.422   0.391 -1.4312  0.3629 -0.1909
 2526TIP3   OH229212   0.729   2.991   0.633 -0.4953 -0.3446 -0.1677
 2526TIP3    H129213   0.789   2.924   0.666  1.0237  0.2256 -1.6402
 2526TIP3    H229214   0.676   3.015   0.709  2.7043  0.7734  1.9270
 2527TIP3   OH229215   3.684   6.926   7.352 -0.5294 -0.2734  0.0886
 2527TIP3    H129216   3.687   6.942   7.446  0.2458 -0.1381  0.0497
 2527TIP3    H229217   3.773   6.945   7.322 -0.4103 -1.6372 -0.4679
 2528TIP3   OH229218   2.832   1.866   7.267 -0.5078 -0.0524  0.3954
 2528TIP3    H129219   2.740   1.855   7.288 -0.5695  2.8633  2.2908
 2528TIP3    H229220   2.841   1.837   7.177 -3.8672  1.9498 -0.7441
 2529TIP3   OH229221   2.087   6.851   0.718  0.1870 -0.1663 -0.0881
 2529TIP3    H129222   2.130   6.827   0.636 -1.5575 -0.0192 -1.0915
 2529TIP3    H229223   2.067   6.945   0.708  0.7125  0.0643  0.8716
 2530TIP3   OH229224   4.066   3.295   7.738  0.3286  0.1014  0.1241
 2530TIP3    H129225   4.154   3.259   7.750 -0.2137 -0.7633  1.7653
 2530TIP3    H229226   4.080   3.389   7.729  1.6130 -0.2379 -2.3448
 2531TIP3   OH229227   3.410   0.890   6.875 -0.0354  0.2195 -0.1107
 2531TIP3    H129228   3.482   0.912   6.815  0.3910 -0.1252  0.2707
 2531TIP3    H229229   3.366   0.815   6.834  0.6518 -0.4281  0.3223
 2532TIP3   OH229230   0.764   2.811   7.760  0.4383  0.2284 -0.1293
 2532TIP3    H129231   0.749   2.904   7.743 -0.9214  0.6164  2.7210
 2532TIP3    H229232   0.828   2.810   7.830  0.4868 -1.0089 -0.1769
 2533TIP3   OH229233   3.996   1.092   1.312  0.1482 -0.2047  0.0983
 2533TIP3    H129234   3.951   1.172   1.284  0.8906  0.0562 -0.3702
 2533TIP3    H229235   4.060   1.122   1.377  2.0157 -0.0559 -1.7176
 2534TIP3   OH229236   5.685   6.257   6.361 -0.5794  0.2453  0.1421
 2534TIP3    H129237   5.732   6.283   6.440 -1.0049  0.1851  0.4196
 2534TIP3    H229238   5.750   6.264   6.290 -0.6330  1.8762  0.2255
 2535TIP3   OH229239   6.591   3.315   0.815 -0.2251 -0.7346 -0.5167
 2535TIP3    H129240   6.530   3.377   0.855 -0.0732  0.2221 -1.7004
 2535TIP3    H229241   6.536   3.259   0.760 -0.0775  0.0786 -1.5234
 2536TIP3   OH229242   6.095   1.593   1.598  0.0432 -0.1427 -0.4547
 2536TIP3    H129243   6.028   1.575   1.533 -0.5030 -1.0767  0.3325
 2536TIP3    H229244   6.177   1.595   1.549 -0.5891  1.5737 -1.5187
 2537TIP3   OH229245   6.329   1.246   7.945  0.4380  0.4428  0.1533
 2537TIP3    H129246   6.391   1.211   7.880  0.9413  1.5197  0.0401
 2537TIP3    H229247   6.360   1.335   7.962  0.1038  0.2945  1.6234
 2538TIP3   OH229248   0.569   2.046   0.963  0.4253  0.5882  0.2536
 2538TIP3    H129249   0.500   2.019   0.902  2.1434 -0.9217 -1.1438
 2538TIP3    H229250   0.598   2.131   0.930  0.5038  0.3479 -0.3189
 2539TIP3   OH229251   1.474   5.118   6.127  0.0347 -0.5492 -0.4653
 2539TIP3    H129252   1.485   5.196   6.073  0.1118 -1.8365 -2.3906
 2539TIP3    H229253   1.518   5.048   6.078  2.7124 -1.2777  2.6221
 2540TIP3   OH229254   2.430   3.970   0.286 -0.5088 -0.1427 -0.5899
 2540TIP3    H129255   2.485   3.957   0.209  1.2585  0.6344  0.4844
 2540TIP3    H229256   2.414   4.064   0.289  1.1003  0.1446  1.0067
 2541TIP3   OH229257   2.732   5.262   0.510  0.1923 -0.1368  0.1641
 2541TIP3    H129258   2.660   5.258   0.573 -1.1049 -0.5459 -1.2790
 2541TIP3    H229259   2.784   5.184   0.527  0.1877  0.0398  1.0662
 2542TIP3   OH229260   1.447   3.944   0.342  0.1074  0.7707  0.4317
 2542TIP3    H129261   1.469   4.033   0.368  3.1242  0.2002  0.1660
 2542TIP3    H229262   1.443   3.947   0.247  0.0931  0.6389  0.4275
 2543TIP3   OH229263   3.066   0.093   1.881  0.0383 -0.5769 -0.0562
 2543TIP3    H129264   3.126   0.021   1.899  1.5042  0.5843 -0.1451
 2543TIP3    H229265   3.001   0.056   1.822  2.2641 -1.1756 -2.3003
 2544TIP3   OH229266   0.295   6.857   5.511 -0.0012  0.3696  0.1470
 2544TIP3    H129267   0.298   6.762   5.496 -0.5997  0.3150  0.3412
 2544TIP3    H229268   0.202   6.878   5.509  0.1849  1.2605 -1.7406
 2545TIP3   OH229269   1.506   4.323   7.460 -0.1201 -0.6679 -0.0907
 2545TIP3    H129270   1.422   4.350   7.424  0.1444  0.2384 -0.0589
 2545TIP3    H229271   1.484   4.253   7.522 -1.0207  0.4592  0.9238
 2546TIP3   OH229272   2.244   4.016   7.091  0.1133 -0.0191 -0.0523
 2546TIP3    H129273   2.265   3.924   7.106  0.4938  0.1262  0.3168
 2546TIP3    H229274   2.149   4.020   7.099  0.2401 -0.0404  1.9196
 2547TIP3   OH229275   0.198   3.360   6.425  0.0801  0.1903  0.0200
 2547TIP3    H129276   0.217   3.272   6.391  1.7002  0.6337 -0.3034
 2547TIP3    H229277   0.242   3.362   6.510 -1.0530  0.2679  0.6263
 2548TIP3   OH229278   1.211   1.861   0.699 -0.5460 -0.0007  0.7655
 2548TIP3    H129279   1.190   1.873   0.606  1.2150  0.5480  0.4019
 2548TIP3    H229280   1.221   1.766   0.709 -0.6464 -0.0558  0.3688
 2549TIP3   OH229281   5.618   4.033   2.254  0.1652 -0.3136  0.0974
 2549TIP3    H129282   5.582   3.982   2.326 -0.1382 -1.8994 -1.1179
 2549TIP3    H229283   5.601   3.980   2.176 -2.0507  2.5586 -1.5921
 2550TIP3   OH229284   2.814   1.325   7.482  0.1981 -0.1498 -0.2579
 2550TIP3    H129285   2.767   1.305   7.401 -0.3699  0.1321  0.0025
 2550TIP3    H229286   2.905   1.301   7.463  0.5172  1.9320 -1.7404
 2551TIP3   OH229287   2.346   2.591   6.867 -0.9632 -0.3629 -0.3895
 2551TIP3    H129288   2.403   2.642   6.809 -0.7864 -0.4130 -0.2586
 2551TIP3    H229289   2.340   2.644   6.947  0.5847 -1.3306  0.4080
 2552TIP3   OH229290   2.429   0.075   6.233 -0.1057 -0.1662  0.5191
 2552TIP3    H129291   2.512   0.071   6.187  0.3626  0.6861  1.2593
 2552TIP3    H229292   2.450   0.113   6.318 -0.8735 -2.0419  1.6218
 2553TIP3   OH229293   0.309   3.757   7.007  0.1603 -0.2281  0.2036
 2553TIP3    H129294   0.334   3.754   7.099 -1.1848  2.3820  0.7681
 2553TIP3    H229295   0.291   3.850   6.990 -4.0208 -1.1105 -1.3924
 2554TIP3   OH229296   0.800   5.312   6.853  0.0772 -0.0184 -0.3454
 2554TIP3    H129297   0.762   5.230   6.883 -0.7119  0.8979  1.3166
 2554TIP3    H229298   0.891   5.308   6.884 -0.2704  0.1932  0.7489
 2555TIP3   OH229299   1.150   1.297   1.070 -0.2727  0.0668  0.5843
 2555TIP3    H129300   1.143   1.386   1.037 -1.0776 -0.3526 -0.4233
 2555TIP3    H229301   1.122   1.303   1.161  4.0782  1.6524  2.0631
 2556TIP3   OH229302   3.573   2.617   1.356 -0.4198  0.2232 -0.8361
 2556TIP3    H129303   3.480   2.634   1.368 -0.6221  0.2421 -2.3224
 2556TIP3    H229304   3.577   2.545   1.293  0.5556 -0.7830  0.3104
 2557TIP3   OH229305   2.773   5.726   6.400 -0.3627 -0.0907 -0.3383
 2557TIP3    H129306   2.787   5.793   6.468  0.0901  1.2317 -1.6784
 2557TIP3    H229307   2.690   5.685   6.424 -0.2445  0.3899  0.9771
 2558TIP3   OH229308   5.829   5.339   0.501  0.0931 -0.8325 -0.5372
 2558TIP3    H129309   5.832   5.425   0.543 -1.0570 -1.4115  0.8096
 2558TIP3    H229310   5.798   5.357   0.412  1.9421  0.3457 -1.0105
 2559TIP3   OH229311   6.836   3.212   7.803  0.0257  0.3845 -0.2122
 2559TIP3    H129312   6.815   3.165   7.884  1.0179  0.5699  0.1739
 2559TIP3    H229313   6.929   3.232   7.812  0.3129 -0.1840 -1.6966
 2560TIP3   OH229314   1.301   1.227   1.664  0.2808 -0.1872  0.0320
 2560TIP3    H129315   1.348   1.194   1.588  2.7742 -0.8276  1.7436
 2560TIP3    H229316   1.243   1.155   1.690 -0.8679  0.1728 -1.4029
 2561TIP3   OH229317   2.691   2.947   0.065  0.0271 -0.5517  0.5200
 2561TIP3    H129318   2.608   2.926   0.023  1.3386 -0.8221 -2.1457
 2561TIP3    H229319   2.678   3.035   0.100 -0.1677  1.4037 -3.8060
 2562TIP3   OH229320   1.646   5.447   0.298  0.2651 -0.0881  0.9119
 2562TIP3    H129321   1.624   5.423   0.389  0.5490  0.1259  1.0354
 2562TIP3    H229322   1.572   5.413   0.247 -0.5661  0.9724  1.3693
 2563TIP3   OH229323   3.099   3.615   1.717 -0.4162  0.3612 -0.4299
 2563TIP3    H129324   3.085   3.569   1.799 -0.4314  0.8957 -0.1281
 2563TIP3    H229325   3.155   3.689   1.739 -2.2066  1.8004 -0.4425
 2564TIP3   OH229326   5.987   2.017   0.486 -0.5594  0.0068 -0.3317
 2564TIP3    H129327   5.946   2.100   0.512  0.2744  0.6572 -1.0403
 2564TIP3    H229328   5.913   1.958   0.471 -1.2300  0.9765 -0.9704
 2565TIP3   OH229329   2.574   2.988   6.917 -0.0111  0.4141 -0.0823
 2565TIP3    H129330   2.633   3.056   6.886 -0.2902  1.6944  1.9921
 2565TIP3    H229331   2.487   3.017   6.887 -0.2729  1.6173  1.6763
 2566TIP3   OH229332   1.700   6.431   6.799 -0.2324  0.2576 -0.0690
 2566TIP3    H129333   1.682   6.353   6.851  2.1997 -0.3397 -0.0357
 2566TIP3    H229334   1.614   6.474   6.791 -1.2646 -1.3274  1.6183
 2567TIP3   OH229335   3.092   0.418   1.311  0.1129 -0.3481 -0.0434
 2567TIP3    H129336   3.109   0.393   1.220  0.3752  0.9009 -0.3587
 2567TIP3    H229337   3.073   0.335   1.356 -0.1022 -0.9676 -1.2467
 2568TIP3   OH229338   3.136   6.940   7.458 -0.2741  0.4648  0.0192
 2568TIP3    H129339   3.179   6.913   7.540  0.6172 -1.1723 -0.9365
 2568TIP3    H229340   3.171   6.880   7.392 -2.7037  0.2541 -1.1659
 2569TIP3   OH229341   6.227   4.015   0.942 -0.2419  0.2499  0.0323
 2569TIP3    H129342   6.308   4.056   0.910  0.2019 -0.6630 -0.0594
 2569TIP3    H229343   6.184   4.084   0.993  1.6719  0.1412  1.9721
 2570TIP3   OH229344   3.306   5.453   7.120  0.6033 -0.5452 -0.0591
 2570TIP3    H129345   3.360   5.531   7.103 -0.4760  0.1598 -0.3219
 2570TIP3    H229346   3.219   5.477   7.089  0.2415 -1.8582 -0.1060
 2571TIP3   OH229347   5.773   2.387   1.359  0.0281  0.1920 -0.3420
 2571TIP3    H129348   5.683   2.382   1.326  0.3648  0.7147 -1.3772
 2571TIP3    H229349   5.765   2.433   1.442 -0.6680  0.2672 -0.4427
 2572TIP3   OH229350   1.001   2.245   6.888 -0.2018  0.1028 -0.0312
 2572TIP3    H129351   0.924   2.227   6.941  0.2388 -1.0066  0.2472
 2572TIP3    H229352   0.977   2.216   6.800 -0.5204  0.8807 -0.2115
 2573TIP3   OH229353   7.148   6.429   0.148  0.2119 -0.0324 -0.4751
 2573TIP3    H129354   7.136   6.382   0.066 -1.3187  0.4591 -0.5649
 2573TIP3    H229355   7.174   6.361   0.211  2.4919 -0.2464 -1.5508
 2574TIP3   OH229356   6.145   4.495   0.398 -0.2230 -0.0188 -0.7382
 2574TIP3    H129357   6.119   4.409   0.366 -1.4117  0.7214 -1.8730
 2574TIP3    H229358   6.073   4.523   0.454  1.1912 -0.6845  1.5484
 2575TIP3   OH229359   2.009   2.836   1.741  1.0184 -0.6748 -0.1748
 2575TIP3    H129360   1.976   2.872   1.658 -1.0079 -1.5458  0.2035
 2575TIP3    H229361   2.016   2.911   1.799 -1.7612 -0.5733  0.1576
 2576TIP3   OH229362   4.636   4.753   6.335  0.0667 -0.1230  0.5514
 2576TIP3    H129363   4.701   4.683   6.345  0.4226  0.0987 -0.1198
 2576TIP3    H229364   4.576   4.741   6.408  1.0595 -0.1334  1.3911
 2577TIP3   OH229365   4.722   3.154   6.965 -0.6035 -0.2121 -0.0804
 2577TIP3    H129366   4.780   3.231   6.959 -0.1738 -0.4754  0.5089
 2577TIP3    H229367   4.664   3.174   7.038  1.5185 -1.6963  2.2038
 2578TIP3   OH229368   0.120   6.778   5.801 -0.1599 -0.0346  0.0165
 2578TIP3    H129369   0.114   6.836   5.725  1.1373 -3.0586 -2.5971
 2578TIP3    H229370   0.029   6.754   5.820 -0.4819  0.5522 -0.7165
 2579TIP3   OH229371   5.215   6.514   0.101 -0.2218  0.0819  0.1309
 2579TIP3    H129372   5.258   6.599   0.109 -0.4837  0.2153  0.1364
 2579TIP3    H229373   5.252   6.476   0.021 -0.4081  0.3818 -0.1019
 2580TIP3   OH229374   1.372   5.546   6.922 -0.0918  0.1779 -0.1604
 2580TIP3    H129375   1.333   5.476   6.975  0.5263  0.3812  0.5771
 2580TIP3    H229376   1.298   5.587   6.878 -0.4043 -1.5103 -1.3473
 2581TIP3   OH229377   4.327   6.305   6.627  0.3916 -0.8660  0.4007
 2581TIP3    H129378   4.269   6.371   6.664 -0.7171 -1.6986  0.1936
 2581TIP3    H229379   4.412   6.321   6.669  0.3878  1.2296 -0.3038
 2582TIP3   OH229380   0.151   4.158   1.386 -0.2335 -0.3374  0.0389
 2582TIP3    H129381   0.133   4.252   1.390 -2.5002 -0.6949 -0.1705
 2582TIP3    H229382   0.233   4.147   1.434 -0.2784  1.6558  0.6761
 2583TIP3   OH229383   5.534   1.248   5.810 -0.6483  0.1154  0.1056
 2583TIP3    H129384   5.465   1.305   5.845 -1.0276  1.2493 -2.2696
 2583TIP3    H229385   5.490   1.196   5.742  0.4629 -0.4284 -0.2251
 2584TIP3   OH229386   3.973   4.516   6.722  0.1889  0.1850  0.9646
 2584TIP3    H129387   3.993   4.557   6.638  1.3553  0.5392  1.3918
 2584TIP3    H229388   3.935   4.587   6.774 -1.2323 -0.2220  0.5024
 2585TIP3   OH229389   1.264   3.146   0.166  0.0142 -0.4965 -0.1358
 2585TIP3    H129390   1.332   3.083   0.190 -0.5674 -1.3982 -0.7935
 2585TIP3    H229391   1.182   3.097   0.174 -0.4341  0.1216 -0.8191
 2586TIP3   OH229392   5.794   4.038   6.620 -0.3013 -0.5394  0.2437
 2586TIP3    H129393   5.801   4.027   6.715  1.8921 -1.4903  0.0450
 2586TIP3    H229394   5.772   4.130   6.607 -0.2480 -0.3081  1.6726
 2587TIP3   OH229395   3.744   5.885   6.617  0.8259  0.0863 -0.1284
 2587TIP3    H129396   3.738   5.935   6.698 -0.9032  1.6404 -1.1366
 2587TIP3    H229397   3.795   5.940   6.558 -1.2966  0.9075 -1.3246
 2588TIP3   OH229398   1.211   6.792   7.061 -0.3218  0.1607 -0.4529
 2588TIP3    H129399   1.169   6.793   7.147 -0.7764  0.3008 -0.6757
 2588TIP3    H229400   1.149   6.746   7.004  0.2762 -0.5303 -0.5562
 2589TIP3   OH229401   1.185   6.277   0.756 -0.3615 -0.1220  0.1617
 2589TIP3    H129402   1.205   6.292   0.848 -1.9327  0.3732  0.4530
 2589TIP3    H229403   1.244   6.336   0.709  0.3472 -0.2733  0.8472
 2590TIP3   OH229404   5.309   5.943   0.872 -0.1240  0.1380  0.3756
 2590TIP3    H129405   5.222   5.977   0.854 -0.7936 -1.8130 -0.3029
 2590TIP3    H229406   5.294   5.855   0.908  1.5491 -0.1175  0.5460
 2591TIP3   OH229407   3.319   5.216   7.654 -0.2570 -0.3976 -0.4621
 2591TIP3    H129408   3.327   5.121   7.663 -0.7928 -0.4465 -0.4852
 2591TIP3    H229409   3.316   5.231   7.560  0.0781 -0.3330 -0.4647
 2592TIP3   OH229410   2.166   5.931   6.492 -0.3433 -0.5307 -0.0073
 2592TIP3    H129411   2.129   5.935   6.404  0.2532  0.1139 -0.2378
 2592TIP3    H229412   2.145   6.016   6.530  0.4245 -0.3574  0.0435
 2593TIP3   OH229413   6.625   6.683   6.007 -0.0504  0.1669  0.7983
 2593TIP3    H129414   6.573   6.637   5.942 -0.4608  0.9904  0.5307
 2593TIP3    H229415   6.712   6.689   5.969  0.0605 -0.5520  0.9234
 2594TIP3   OH229416   6.354   4.323   7.803 -0.0426  0.4121  0.0351
 2594TIP3    H129417   6.299   4.338   7.726  1.7983  1.2329 -1.1667
 2594TIP3    H229418   6.441   4.305   7.768  0.2514 -2.2410  1.8357
 2595TIP3   OH229419   5.010   6.255   7.567  0.1204 -0.6713 -0.0106
 2595TIP3    H129420   5.008   6.202   7.646 -0.0822 -0.1180  0.3592
 2595TIP3    H229421   4.919   6.279   7.551  0.3153  0.3606  0.3739
 2596TIP3   OH229422   0.482   4.595   1.608  0.2126  0.4181 -0.4965
 2596TIP3    H129423   0.484   4.546   1.690  0.1818 -1.3028 -1.4545
 2596TIP3    H229424   0.483   4.687   1.634  0.1078 -0.0771  1.4139
 2597TIP3   OH229425   2.134   1.641   0.103 -0.5698 -0.7245  0.4404
 2597TIP3    H129426   2.084   1.681   0.174 -3.0364  2.8308 -2.8606
 2597TIP3    H229427   2.224   1.667   0.118 -1.0314 -0.0406  2.1997
 2598TIP3   OH229428   1.266   4.628   0.490 -0.0388  0.0753  0.4657
 2598TIP3    H129429   1.320   4.632   0.569  0.2165 -1.6132  0.4059
 2598TIP3    H229430   1.319   4.672   0.423  0.9597 -0.8637  0.5985
 2599TIP3   OH229431   1.264   5.938   0.463  0.0323  0.0334  0.3716
 2599TIP3    H129432   1.351   5.977   0.452  0.0666 -0.1815 -0.1623
 2599TIP3    H229433   1.274   5.875   0.534  1.0199 -2.0102 -1.4898
 2600TIP3   OH229434   5.965   2.972   7.166 -0.2095  0.1831  0.0131
 2600TIP3    H129435   5.884   2.938   7.129 -0.6683  1.0575  0.1770
 2600TIP3    H229436   5.951   3.067   7.169  1.0284  0.4047 -0.4851
 2601TIP3   OH229437   6.645   0.023   6.799  0.1379  0.0176 -0.1305
 2601TIP3    H129438   6.614  -0.024   6.876  2.1578 -2.6680 -0.8348
 2601TIP3    H229439   6.722   0.071   6.829  0.5956 -0.5821 -0.3317
 2602TIP3   OH229440   1.493   0.413   6.562  0.2335 -0.2770 -0.0100
 2602TIP3    H129441   1.586   0.434   6.573  0.2864 -0.7343  0.4539
 2602TIP3    H229442   1.492   0.343   6.497  0.1507  0.2425 -0.5827
 2603TIP3   OH229443   4.115   4.149   7.647  0.1995  0.1949 -0.2202
 2603TIP3    H129444   4.035   4.120   7.691  0.0162  0.2995 -0.4837
 2603TIP3    H229445   4.146   4.071   7.600 -0.2086  0.3902 -0.8037
 2604TIP3   OH229446   2.251   6.451   1.392  0.1688  0.3821 -0.2304
 2604TIP3    H129447   2.248   6.420   1.482 -1.8167  2.0449  0.3534
 2604TIP3    H229448   2.333   6.499   1.385  0.5109 -0.0695  0.5679
 2605TIP3   OH229449   4.943   5.839   6.974 -0.3617  1.0518  0.4248
 2605TIP3    H129450   4.970   5.805   7.059 -1.1721 -1.2089 -0.1679
 2605TIP3    H229451   4.968   5.932   6.977  2.4767  0.3607  1.9117
 2606TIP3   OH229452   3.539   6.742   7.181  0.1801 -0.4317 -0.0743
 2606TIP3    H129453   3.603   6.726   7.111  0.2556 -1.3875  0.2024
 2606TIP3    H229454   3.587   6.791   7.247  0.4519 -0.5792 -0.1591
 2607TIP3   OH229455   1.755   0.115   0.746  0.7380 -0.3133  0.3631
 2607TIP3    H129456   1.779   0.170   0.672  1.6662 -0.1099  0.7997
 2607TIP3    H229457   1.833   0.114   0.802  0.5508 -1.6374  0.6276
 2608TIP3   OH229458   4.809   2.673   1.395  0.4666 -0.0807 -0.1064
 2608TIP3    H129459   4.740   2.675   1.460  0.1125 -2.2609 -0.3463
 2608TIP3    H229460   4.822   2.765   1.371 -0.9229  0.5537  1.3932
 2609TIP3   OH229461   4.037   5.032   6.501  0.8356  0.5081  0.1857
 2609TIP3    H129462   3.944   5.047   6.518  1.3702  1.0081  3.4082
 2609TIP3    H229463   4.078   5.117   6.516  1.7562  0.6362 -2.5552
 2610TIP3   OH229464   6.015   0.824   7.805 -0.2099 -0.3122 -1.0094
 2610TIP3    H129465   5.928   0.785   7.816  0.0650 -0.7377 -0.2472
 2610TIP3    H229466   6.070   0.780   7.870  0.7606 -0.5825 -1.9780
 2611TIP3   OH229467   0.158   1.013   7.612 -0.3480  0.3038 -0.1384
 2611TIP3    H129468   0.129   0.987   7.525  0.1768 -0.3200 -0.1334
 2611TIP3    H229469   0.091   0.979   7.671  0.2701 -0.9871 -0.1426
 2612TIP3   OH229470   3.499   4.631   1.794  0.6952 -0.4487  0.0244
 2612TIP3    H129471   3.577   4.686   1.794  0.0701  0.5454  2.1642
 2612TIP3    H229472   3.428   4.690   1.820 -0.4084 -1.7474  0.0526
 2613TIP3   OH229473   3.812   2.972   7.376 -0.1411 -0.0561  0.7367
 2613TIP3    H129474   3.888   2.983   7.434  1.1443  0.2806 -0.9197
 2613TIP3    H229475   3.767   3.056   7.379  0.5765  0.3454  0.3639
 2614TIP3   OH229476   2.194   0.533   6.924  0.2546  0.3257  0.2170
 2614TIP3    H129477   2.240   0.461   6.881  0.4505  0.8639 -0.5026
 2614TIP3    H229478   2.253   0.608   6.914  0.8790  0.2086  2.5556
 2615TIP3   OH229479   2.901   1.157   6.770 -0.8380  0.0356 -0.2998
 2615TIP3    H129480   2.951   1.101   6.712 -2.7981  0.2733 -2.3623
 2615TIP3    H229481   2.966   1.217   6.808  0.7245 -1.1564 -0.9977
 2616TIP3   OH229482   5.467   3.574   1.771  0.2022 -0.5842 -0.1461
 2616TIP3    H129483   5.562   3.586   1.776  0.3290 -1.4924 -0.2134
 2616TIP3    H229484   5.447   3.513   1.842 -0.3187 -0.4920 -0.2095
 2617TIP3   OH229485   7.126   5.461   0.001  0.2901 -0.4717 -0.1233
 2617TIP3    H129486   7.092   5.544   0.037  0.6862 -1.2324  2.1522
 2617TIP3    H229487   7.130   5.402   0.077 -0.7311 -2.8600 -1.8105
 2618TIP3   OH229488   3.906   2.409   1.571  0.3372 -0.3281 -0.3682
 2618TIP3    H129489   3.965   2.465   1.521 -0.8426  2.2938  0.9775
 2618TIP3    H229490   3.858   2.359   1.505  1.9903 -0.3999 -1.5824
 2619TIP3   OH229491   2.894   6.279   1.754  0.0541  0.0733  0.7131
 2619TIP3    H129492   2.966   6.324   1.709 -1.7560  2.8346  0.3542
 2619TIP3    H229493   2.912   6.186   1.740  2.5020  0.7062 -1.0080
 2620TIP3   OH229494   2.445   6.379   6.109  0.6531 -0.3132 -0.3270
 2620TIP3    H129495   2.466   6.309   6.048 -1.0687  0.6841 -2.1789
 2620TIP3    H229496   2.401   6.335   6.182  0.6025 -1.2789 -0.9312
 2621TIP3   OH229497   3.537   5.368   7.688  0.4163 -0.1225  0.4444
 2621TIP3    H129498   3.466   5.336   7.632  0.6399  0.5896 -0.2700
 2621TIP3    H229499   3.513   5.339   7.776 -0.5855 -0.1952  0.1622
 2622TIP3   OH229500   5.094   6.430   0.794 -0.1064 -0.2944  0.3708
 2622TIP3    H129501   5.054   6.483   0.726  0.4639  0.1149  0.3451
 2622TIP3    H229502   5.176   6.475   0.814 -0.9214  0.4099  2.3583
 2623TIP3   OH229503   1.304   6.996   0.195  0.0968 -0.0344 -0.4566
 2623TIP3    H129504   1.256   7.010   0.277  2.3354 -0.7077  1.0769
 2623TIP3    H229505   1.298   6.902   0.180  0.9525 -0.1437 -0.1874
 2624TIP3   OH229506   0.024   6.862   5.529  0.5343 -0.0660 -0.2344
 2624TIP3    H129507  -0.033   6.878   5.453  0.9094 -1.9160 -0.9470
 2624TIP3    H229508  -0.037   6.850   5.602  0.0579 -0.6326 -0.7096
 2625TIP3   OH229509   6.933   4.304   6.698 -0.1481 -0.4763 -0.6988
 2625TIP3    H129510   7.006   4.261   6.743 -0.0890 -0.5596 -0.8764
 2625TIP3    H229511   6.967   4.324   6.611 -0.1223  0.0686 -0.5673
 2626TIP3   OH229512   3.377   4.867   1.866  0.0852 -0.3538 -0.1004
 2626TIP3    H129513   3.331   4.929   1.809 -0.1804 -0.1444  0.3348
 2626TIP3    H229514   3.315   4.850   1.937  0.1764 -1.0735 -0.1782
 2627TIP3   OH229515   2.892   0.850   7.969  0.2263 -0.2999 -0.0545
 2627TIP3    H129516   2.842   0.923   8.007  0.2597  0.1822 -0.9256
 2627TIP3    H229517   2.983   0.878   7.976  0.1777  0.2944 -1.4790
 2628TIP3   OH229518   6.978   3.977   0.278  0.2843  0.0021  0.5949
 2628TIP3    H129519   7.014   4.045   0.222  2.2188 -2.4902 -1.4524
 2628TIP3    H229520   6.903   3.942   0.228  2.1099 -2.3363 -0.7247
 2629TIP3   OH229521   2.843   6.263   5.868  0.4929  0.0931 -0.0292
 2629TIP3    H129522   2.869   6.188   5.814  2.0893  0.7568 -0.2424
 2629TIP3    H229523   2.924   6.289   5.912 -0.5674  0.1272  2.0155
 2630TIP3   OH229524   1.220   2.054   1.258  0.1031  0.1389  0.6097
 2630TIP3    H129525   1.248   2.139   1.225 -2.9855  0.4017 -1.7790
 2630TIP3    H229526   1.213   1.999   1.180 -0.3826 -1.5649  1.7902
 2631TIP3   OH229527   2.600   0.254   5.646 -0.0569  0.0097 -0.4847
 2631TIP3    H129528   2.662   0.266   5.574  1.1104 -0.3462  0.4133
 2631TIP3    H229529   2.636   0.181   5.696  0.5605  1.7488  1.8014
 2632TIP3   OH229530   0.111   6.175   5.838  0.6368 -0.0981  0.2052
 2632TIP3    H129531   0.161   6.231   5.898 -1.1239  0.1431  1.4982
 2632TIP3    H229532   0.159   6.092   5.838  0.3292 -0.3540  2.5475
 2633TIP3   OH229533   0.299   0.723   0.808  0.6551  0.5965  0.2344
 2633TIP3    H129534   0.387   0.697   0.837  0.5129 -0.6954 -0.4102
 2633TIP3    H229535   0.313   0.762   0.722  0.5956  0.3294  0.1024
 2634TIP3   OH229536   0.645   3.360   6.592 -0.5311  0.0102 -0.4121
 2634TIP3    H129537   0.678   3.270   6.587  0.4552  0.3563 -0.3019
 2634TIP3    H229538   0.705   3.405   6.651 -0.2075  1.0931 -1.5133
 2635TIP3   OH229539   6.116   6.959   5.372  0.5476  0.0728 -0.5390
 2635TIP3    H129540   6.079   7.006   5.297  0.0293  0.5419  0.0003
 2635TIP3    H229541   6.147   7.028   5.431 -2.1744 -0.1153  1.2746
 2636TIP3   OH229542   2.627   2.425   6.623  0.5475  0.1689 -0.7649
 2636TIP3    H129543   2.680   2.358   6.579 -1.3427  0.1178 -3.1702
 2636TIP3    H229544   2.570   2.375   6.682  1.2160 -0.0292 -0.2756
 2637TIP3   OH229545   4.762   1.616   6.122  0.4777  0.1898 -0.5291
 2637TIP3    H129546   4.691   1.552   6.108 -0.2848  0.8775  0.1027
 2637TIP3    H229547   4.782   1.609   6.215  1.6838 -0.4279 -0.8187
 2638TIP3   OH229548   1.402   4.514   7.829 -0.7708 -0.1456 -0.2569
 2638TIP3    H129549   1.396   4.609   7.828 -3.2398 -0.2125  0.6196
 2638TIP3    H229550   1.454   4.492   7.751 -2.1746  1.8233 -1.8637
 2639TIP3   OH229551   4.847   1.803   0.923 -0.4654  0.8638  0.4401
 2639TIP3    H129552   4.784   1.790   0.994 -0.0068  0.2805  0.7516
 2639TIP3    H229553   4.932   1.788   0.964 -0.1034  1.7729  0.0589
 2640TIP3   OH229554   2.772   5.885   6.174 -0.1026 -0.1281 -0.4998
 2640TIP3    H129555   2.774   5.804   6.225 -1.7772 -1.7351 -2.8005
 2640TIP3    H229556   2.713   5.942   6.224  1.0316 -0.2721  1.1044
 2641TIP3   OH229557   0.840   3.978   1.683 -0.7704 -0.5329  0.2966
 2641TIP3    H129558   0.926   4.008   1.653 -0.4175 -0.5712  1.2202
 2641TIP3    H229559   0.779   4.010   1.617 -0.1696  0.4465  0.1931
 2642TIP3   OH229560   6.475   1.144   7.184  0.4716  0.2101  0.0698
 2642TIP3    H129561   6.419   1.176   7.113  0.9434  0.7451 -0.0676
 2642TIP3    H229562   6.429   1.067   7.218 -1.4284  1.8203  1.3408
 2643TIP3   OH229563   6.205   1.614   1.982 -0.4813 -0.1778  0.6289
 2643TIP3    H129564   6.275   1.662   2.027  2.0372 -3.0516  0.1297
 2643TIP3    H229565   6.160   1.567   2.051  0.7157 -1.3822  0.6295
 2644TIP3   OH229566   4.109   2.041   1.078 -0.1670 -0.4523  0.2250
 2644TIP3    H129567   4.120   1.986   1.001 -0.8221 -2.0909  1.2497
 2644TIP3    H229568   4.131   2.129   1.048  0.6600 -1.2110 -1.5393
 2645TIP3   OH229569   5.400   4.655   7.725 -0.6035 -0.2225  0.5541
 2645TIP3    H129570   5.469   4.644   7.660 -1.8293  1.0557 -1.0350
 2645TIP3    H229571   5.347   4.575   7.718 -0.7809 -0.0515 -0.0890
 2646TIP3   OH229572   0.132   6.447   6.379 -0.0969 -0.5076 -0.4860
 2646TIP3    H129573   0.182   6.465   6.300 -1.0701 -0.4648 -1.1115
 2646TIP3    H229574   0.041   6.464   6.354 -0.5294 -1.4963  0.3390
 2647TIP3   OH229575   5.567   3.156   5.743 -0.2310 -0.4872  0.6407
 2647TIP3    H129576   5.651   3.167   5.788  1.4022  0.2961 -2.3695
 2647TIP3    H229577   5.530   3.244   5.737  0.9512 -0.0835 -1.8828
 2648TIP3   OH229578   6.395   3.896   6.493  0.0733  0.1569  0.2975
 2648TIP3    H129579   6.300   3.908   6.491 -0.3829 -2.8361  0.4268
 2648TIP3    H229580   6.420   3.886   6.401 -0.5914 -3.9373  0.4034
 2649TIP3   OH229581   2.150   0.469   0.089 -0.4285  0.1171  0.1572
 2649TIP3    H129582   2.210   0.407   0.130 -1.8407  0.0535  2.2633
 2649TIP3    H229583   2.167   0.552   0.133  1.3607  1.3602 -2.5479
 2650TIP3   OH229584   1.772   4.336   7.425 -0.9514 -0.7208 -0.1473
 2650TIP3    H129585   1.805   4.352   7.514  0.7451 -1.2909 -0.6378
 2650TIP3    H229586   1.677   4.329   7.436 -0.6992 -1.8502  1.7900
 2651TIP3   OH229587   0.172   6.043   1.358  1.3726  0.0694  0.4521
 2651TIP3    H129588   0.127   6.027   1.441  1.7968  0.4995  0.7656
 2651TIP3    H229589   0.123   6.115   1.318  0.4480 -0.8991 -0.2234
 2652TIP3   OH229590   5.145   2.695   1.087 -0.0269  0.0429  0.2960
 2652TIP3    H129591   5.206   2.668   1.155 -0.9637 -1.4999  0.5761
 2652TIP3    H229592   5.065   2.647   1.106 -0.8637  0.8774 -0.9276
 2653TIP3   OH229593   4.080   2.304   0.986 -0.5252 -0.0759 -0.0761
 2653TIP3    H129594   4.141   2.362   0.940  1.3648 -2.5681 -0.9479
 2653TIP3    H229595   4.023   2.270   0.917  0.0182 -1.1031 -0.0464
 2654TIP3   OH229596   1.801   3.584   6.375  0.0657  0.2862  1.0097
 2654TIP3    H129597   1.888   3.546   6.363 -0.0055 -0.2000  1.9467
 2654TIP3    H229598   1.741   3.516   6.345  0.0189  0.9421 -0.4302
 2655TIP3   OH229599   4.383   2.427   7.970 -0.1245 -0.1021  0.5138
 2655TIP3    H129600   4.302   2.411   7.922  0.3226  0.4959 -0.4904
 2655TIP3    H229601   4.381   2.366   8.044 -1.5082 -0.0383  0.5412
 2656TIP3   OH229602   6.599   6.750   5.585  0.4455  0.4511 -0.1664
 2656TIP3    H129603   6.563   6.671   5.543  0.6321 -0.2148  0.8826
 2656TIP3    H229604   6.693   6.734   5.590  0.1686 -0.9434  3.2581
 2657TIP3   OH229605   1.814   1.868   5.843  0.6508 -0.3998 -0.1368
 2657TIP3    H129606   1.758   1.909   5.909  1.5617 -0.0665  0.4468
 2657TIP3    H229607   1.767   1.788   5.819 -0.1282 -0.0774  0.2514
 2658TIP3   OH229608   2.261   4.355   5.618  0.7684 -0.0756 -0.6404
 2658TIP3    H129609   2.170   4.373   5.596  0.7384 -0.3050 -0.7039
 2658TIP3    H229610   2.274   4.263   5.598  0.8917 -0.1559 -0.2203
 2659TIP3   OH229611   5.661   4.842   7.217  0.3083 -0.0800  0.0241
 2659TIP3    H129612   5.737   4.788   7.238  0.6556  1.2189  2.3661
 2659TIP3    H229613   5.618   4.858   7.301 -2.5725 -0.7366 -1.2263
 2660TIP3   OH229614   0.889   1.597   0.509 -0.1208  0.0748  0.4920
 2660TIP3    H129615   0.850   1.680   0.482  0.7622  0.4903  0.4527
 2660TIP3    H229616   0.970   1.591   0.458 -0.8513 -1.4805 -0.5450
 2661TIP3   OH229617   3.612   0.639   5.746  0.1634  0.5343 -0.5625
 2661TIP3    H129618   3.684   0.692   5.712 -0.0324  1.5195  0.4999
 2661TIP3    H229619   3.533   0.677   5.708  0.1458 -0.1911 -1.2787
 2662TIP3   OH229620   5.924   0.939   7.559 -0.4459 -0.0681 -0.2567
 2662TIP3    H129621   5.886   1.020   7.593  2.1408  0.7436  0.9249
 2662TIP3    H229622   5.953   0.891   7.637 -0.1977 -1.2287 -1.0344
 2663TIP3   OH229623   1.524   3.792   6.739 -0.0996 -0.3022 -0.5688
 2663TIP3    H129624   1.560   3.708   6.708  0.6861 -0.9419  1.8357
 2663TIP3    H229625   1.598   3.852   6.735  0.9261 -1.1426  2.5950
 2664TIP3   OH229626   0.143   2.405   0.154  0.6981  0.6247 -0.0533
 2664TIP3    H129627   0.176   2.461   0.084  0.7268  1.4556  0.6148
 2664TIP3    H229628   0.215   2.399   0.216  0.8492 -0.5093 -0.3027
 2665TIP3   OH229629   2.898   3.788   0.045  0.0793 -0.3890  0.1578
 2665TIP3    H129630   2.976   3.835   0.013 -0.8149  0.6399 -0.5945
 2665TIP3    H229631   2.933   3.720   0.103  1.4122  1.5130  1.7176
 2666TIP3   OH229632   0.288   4.223   6.550 -0.2887  0.1453 -0.2966
 2666TIP3    H129633   0.378   4.191   6.537 -0.3074 -1.2337  2.2626
 2666TIP3    H229634   0.255   4.239   6.462  1.3765 -2.4551 -1.5153
 2667TIP3   OH229635   6.301   4.956   0.104  0.2447  0.4734 -0.0636
 2667TIP3    H129636   6.235   4.984   0.167  1.0159  0.7808  0.6246
 2667TIP3    H229637   6.332   4.872   0.139  0.0959  0.2391 -0.4848
 2668TIP3   OH229638   3.087   6.201   5.943 -0.8586 -0.1417 -0.2640
 2668TIP3    H129639   3.158   6.263   5.927 -0.1126 -1.6225 -3.2351
 2668TIP3    H229640   3.090   6.185   6.038  1.2495  1.5278  0.0216
 2669TIP3   OH229641   1.391   3.505   0.521  0.2321  0.2267  0.1503
 2669TIP3    H129642   1.353   3.586   0.487 -0.2032 -0.6616 -1.5857
 2669TIP3    H229643   1.420   3.527   0.609 -0.8830  1.9637  0.1190
 2670TIP3   OH229644   3.194   6.991   0.993  0.3735  0.3241 -0.1729
 2670TIP3    H129645   3.171   7.073   0.950 -1.1483  0.2340  0.4019
 2670TIP3    H229646   3.201   6.927   0.922 -1.2439  0.3680 -0.4223
 2671TIP3   OH229647   2.943   4.167   6.164 -0.4624  0.1461  0.0395
 2671TIP3    H129648   2.976   4.234   6.104 -1.7557  0.9362  0.1644
 2671TIP3    H229649   2.926   4.215   6.245 -2.2856 -0.1155 -0.1498
 2672TIP3   OH229650   0.739   5.446   6.592  0.3899  0.6604 -0.6070
 2672TIP3    H129651   0.764   5.422   6.681 -4.4837  1.3452  1.2632
 2672TIP3    H229652   0.779   5.379   6.536  0.7606 -1.9449  2.5151
 2673TIP3   OH229653   5.994   3.548   1.592 -0.1040  0.6762 -0.2662
 2673TIP3    H129654   5.930   3.589   1.650 -0.6451  0.8411 -0.9686
 2673TIP3    H229655   5.949   3.471   1.557  0.4408  0.2205  0.0031
 2674TIP3   OH229656   3.589   4.425   7.912  0.5481  0.4530  0.2521
 2674TIP3    H129657   3.662   4.460   7.862  1.0170  0.8391  1.1848
 2674TIP3    H229658   3.540   4.502   7.940 -0.5864  0.1847 -0.8611
 2675TIP3   OH229659   0.297   3.075   0.376  0.0618  0.2700  0.4190
 2675TIP3    H129660   0.334   3.018   0.443 -0.5982  1.1791  1.5974
 2675TIP3    H229661   0.363   3.143   0.363  0.0907  0.2216  0.3115
 2676TIP3   OH229662   6.146   4.009   6.937  0.0223 -0.0287  0.3510
 2676TIP3    H129663   6.111   3.951   6.870  0.1800 -0.9827  1.0742
 2676TIP3    H229664   6.175   3.950   7.007  0.7025  0.8916  0.8629
 2677TIP3   OH229665   2.526   2.701   6.718 -0.5560 -0.2948 -0.1903
 2677TIP3    H129666   2.597   2.763   6.733  0.5729 -1.0723 -1.8947
 2677TIP3    H229667   2.571   2.619   6.695 -1.9930 -1.6545  1.5887
 2678TIP3   OH229668   2.163   1.008   6.495  0.2654 -0.3716 -0.1572
 2678TIP3    H129669   2.183   0.921   6.531  1.0993 -0.4099 -0.6606
 2678TIP3    H229670   2.226   1.066   6.538  1.1660 -0.3931 -1.3806
 2679TIP3   OH229671   6.226   3.352   0.934  0.2718 -0.5428  0.5155
 2679TIP3    H129672   6.259   3.352   0.843 -0.1162 -0.9587  0.3699
 2679TIP3    H229673   6.225   3.444   0.959  1.9844 -0.5331  0.6836
 2680TIP3   OH229674   6.104   2.919   0.212  0.6820  0.0320 -0.1105
 2680TIP3    H129675   6.099   2.905   0.117 -1.3077 -1.7127  0.1673
 2680TIP3    H229676   6.070   3.007   0.226  2.6497  1.0211 -1.0929
 2681TIP3   OH229677   0.589   5.408   7.734  0.0034 -0.0486  0.3406
 2681TIP3    H129678   0.675   5.369   7.752 -0.2671 -0.2453  1.2918
 2681TIP3    H229679   0.604   5.468   7.662  1.0980  0.4484  0.9555
 2682TIP3   OH229680   7.129   0.346   1.633  0.0708  0.4457  0.0471
 2682TIP3    H129681   7.071   0.410   1.593  1.3200  1.4130 -0.2913
 2682TIP3    H229682   7.217   0.382   1.620  0.6470 -0.1341  2.0162
 2683TIP3   OH229683   3.376   4.758   6.895  0.1578 -0.2092  0.0065
 2683TIP3    H129684   3.330   4.800   6.823  2.0768  1.5851 -0.2605
 2683TIP3    H229685   3.318   4.768   6.970  0.1136  2.2019 -0.2636
 2684TIP3   OH229686   5.233   7.187   7.124 -0.8796 -0.4674 -0.7892
 2684TIP3    H129687   5.311   7.138   7.148 -0.2706  1.1424  0.6845
 2684TIP3    H229688   5.173   7.176   7.198 -0.7531  0.9199 -0.4508
 2685TIP3   OH229689   7.031   1.774   1.781 -0.0361  0.4202  0.4896
 2685TIP3    H129690   6.943   1.775   1.820  0.3778  0.3411  1.4510
 2685TIP3    H229691   7.045   1.682   1.758  0.7877 -0.1069  2.7470
 2686TIP3   OH229692   6.028   6.008   0.414 -0.3067 -0.0760  0.7168
 2686TIP3    H129693   6.107   5.964   0.384 -0.3523  0.4443 -0.2234
 2686TIP3    H229694   6.018   5.981   0.505  0.7758 -0.3908  0.7547
 2687TIP3   OH229695   4.838   0.093   6.267  0.2299  0.2504  0.6956
 2687TIP3    H129696   4.878   0.031   6.206 -2.7895 -1.2201  0.0693
 2687TIP3    H229697   4.794   0.157   6.211  2.1640  2.3049  1.3597
 2688TIP3   OH229698   6.694   5.764   0.712 -0.4375 -0.0779  0.2702
 2688TIP3    H129699   6.625   5.726   0.657  1.3298  0.6978 -2.7433
 2688TIP3    H229700   6.680   5.859   0.704  1.3427  0.1261 -1.0680
 2689TIP3   OH229701   4.035   5.368   0.890  0.4762  0.1804  0.3583
 2689TIP3    H129702   4.017   5.281   0.852 -0.2332  1.0136 -1.3424
 2689TIP3    H229703   4.009   5.360   0.981 -1.0515 -0.9845 -0.1218
 2690TIP3   OH229704   6.726   4.522   0.154 -0.9354  0.3557 -0.3075
 2690TIP3    H129705   6.805   4.494   0.108 -0.6061  0.6932  0.0387
 2690TIP3    H229706   6.693   4.595   0.102 -0.3805  0.9505  0.1512
 2691TIP3   OH229707   5.194   0.417   0.932  0.2488 -0.5222 -0.3202
 2691TIP3    H129708   5.131   0.421   1.004  0.1641  1.5585 -0.4463
 2691TIP3    H229709   5.147   0.454   0.857  1.1816 -0.1666 -0.7471
 2692TIP3   OH229710   1.567   1.314   7.777 -0.4486  0.6396 -0.2788
 2692TIP3    H129711   1.546   1.242   7.718 -0.9403 -1.3745  2.1883
 2692TIP3    H229712   1.641   1.282   7.829 -0.2621  2.1887  0.4703
 2693TIP3   OH229713   3.466   6.250   6.133 -0.3589  0.0310 -0.1284
 2693TIP3    H129714   3.441   6.168   6.176  1.0785 -0.4871 -0.2333
 2693TIP3    H229715   3.526   6.292   6.195 -0.7522  0.8076 -0.2639
 2694TIP3   OH229716   1.583   5.599   0.941  0.4075  0.2822  0.3960
 2694TIP3    H129717   1.509   5.544   0.914 -0.5637  0.1797  3.0165
 2694TIP3    H229718   1.547   5.657   1.008  1.5414  3.7752 -1.7579
 2695TIP3   OH229719   5.036   4.069   0.153 -0.0299 -0.0531 -0.6765
 2695TIP3    H129720   5.097   3.999   0.131  0.1138  0.3279 -1.5616
 2695TIP3    H229721   5.091   4.146   0.165 -0.2229  0.0063 -0.1114
 2696TIP3   OH229722   3.171   2.311   7.015 -0.9698  0.5088 -0.0137
 2696TIP3    H129723   3.263   2.339   7.018 -0.9224  0.4004 -0.4333
 2696TIP3    H229724   3.127   2.369   7.077 -0.5471  0.2999  0.4960
 2697TIP3   OH229725   6.028   5.966   1.271 -0.2472 -0.0665 -0.5019
 2697TIP3    H129726   5.952   5.966   1.329 -0.3648 -0.2254 -0.6541
 2697TIP3    H229727   6.055   6.058   1.268 -2.5843  0.6985 -3.1992
 2698TIP3   OH229728   2.110   3.021   0.589  0.0273  0.1585 -0.2668
 2698TIP3    H129729   2.133   3.113   0.597  0.3816  0.1856 -1.3889
 2698TIP3    H229730   2.076   3.012   0.500  2.1421 -1.2120 -1.0168
 2699TIP3   OH229731   6.106   2.401   7.528 -0.3101 -0.2008  0.2332
 2699TIP3    H129732   6.187   2.416   7.578 -0.0351 -1.4329  0.2032
 2699TIP3    H229733   6.124   2.322   7.477 -1.4464 -0.3438  0.0297
 2700TIP3   OH229734   0.415   6.498   6.660 -0.3083 -0.7257  0.7498
 2700TIP3    H129735   0.378   6.572   6.611 -0.7252 -0.9251  0.7568
 2700TIP3    H229736   0.443   6.437   6.592 -0.5649 -0.8468  0.7492
 2701TIP3   OH229737   7.193   2.058   0.283  0.2854 -0.2932 -0.5645
 2701TIP3    H129738   7.178   1.970   0.316 -0.9737  0.6405  1.5779
 2701TIP3    H229739   7.110   2.085   0.245  0.4401  0.2191 -0.5562
 2702TIP3   OH229740   3.179   2.672   0.596 -0.4454 -0.3359  0.6546
 2702TIP3    H129741   3.211   2.755   0.561  0.9835 -1.2108 -0.2269
 2702TIP3    H229742   3.134   2.631   0.522 -1.1456 -0.3474  1.0856
 2703TIP3   OH229743   4.708   6.927   6.937 -0.3783  0.4045  0.3566
 2703TIP3    H129744   4.639   6.860   6.942  1.0969 -1.1082  1.6524
 2703TIP3    H229745   4.695   6.980   7.015 -1.3571  1.5093 -0.5142
 2704TIP3   OH229746   5.191   7.117   6.859 -0.4136 -0.1169  0.9605
 2704TIP3    H129747   5.224   7.151   6.942  2.0616 -0.1169  0.0568
 2704TIP3    H229748   5.263   7.130   6.797 -2.0463 -0.4357 -1.1258
 2705TIP3   OH229749   2.187   5.215   6.300  0.7254 -0.4363 -0.0349
 2705TIP3    H129750   2.175   5.253   6.214  2.9274 -2.9053 -1.5694
 2705TIP3    H229751   2.108   5.162   6.314  1.4033 -1.9420 -1.6755
 2706TIP3   OH229752   4.257   7.006   6.210 -0.0071 -0.2885 -0.1560
 2706TIP3    H129753   4.332   6.947   6.216 -0.9688 -1.8327 -2.3749
 2706TIP3    H229754   4.202   6.982   6.285  0.1747 -1.3818 -0.3590
 2707TIP3   OH229755   2.237   2.290   5.856  0.3091  0.0094 -0.0105
 2707TIP3    H129756   2.209   2.337   5.777  1.5469  0.3570 -0.2658
 2707TIP3    H229757   2.164   2.232   5.876  0.0588 -0.2832 -1.5801
 2708TIP3   OH229758   2.735   4.497   7.900 -0.6542  0.3070 -0.4958
 2708TIP3    H129759   2.795   4.487   7.973 -0.6636  3.6214  0.1203
 2708TIP3    H229760   2.696   4.410   7.888  1.0608 -0.8854  1.8774
 2709TIP3   OH229761   2.270   0.290   6.135  0.1413 -0.8546 -0.1591
 2709TIP3    H129762   2.310   0.207   6.160 -0.3812 -1.2883 -0.7408
 2709TIP3    H229763   2.215   0.269   6.060  1.0467  0.2682 -1.1876
 2710TIP3   OH229764   1.118   6.331   5.932 -0.0690 -0.1617 -0.2524
 2710TIP3    H129765   1.203   6.313   5.974  0.2099 -0.4944 -0.9495
 2710TIP3    H229766   1.056   6.275   5.980 -0.5550  2.4987  2.5203
 2711TIP3   OH229767   1.704   2.407   1.193  0.0888  0.2016 -0.4701
 2711TIP3    H129768   1.747   2.493   1.193 -0.3693  0.4403 -1.0884
 2711TIP3    H229769   1.611   2.427   1.192 -0.0344 -0.2762 -2.0496
 2712TIP3   OH229770   1.463   4.806   7.008 -0.6138  0.1839  0.2462
 2712TIP3    H129771   1.458   4.902   7.003 -0.3009  0.2255  0.6943
 2712TIP3    H229772   1.373   4.778   7.023 -0.8098  0.3644 -0.5101
 2713TIP3   OH229773   1.945   1.618   1.329 -0.0551 -0.4497  0.1892
 2713TIP3    H129774   1.970   1.704   1.363  0.1701 -0.4919  0.1306
 2713TIP3    H229775   1.976   1.556   1.395  0.4751 -0.5382 -0.1417
 2714TIP3   OH229776   5.653   0.888   0.628  0.3699 -1.2160 -0.2208
 2714TIP3    H129777   5.703   0.813   0.597  0.3198 -1.4494  0.2509
 2714TIP3    H229778   5.648   0.947   0.553 -0.6195 -2.2133 -0.9595
 2715TIP3   OH229779   3.085   5.199   1.904  0.7032  0.5505 -0.4859
 2715TIP3    H129780   3.084   5.281   1.855 -0.4999 -0.2242 -1.8088
 2715TIP3    H229781   3.169   5.200   1.950  0.2146  3.0834  0.5252
 2716TIP3   OH229782   5.524   2.480   7.844 -0.3261  0.2385  0.3037
 2716TIP3    H129783   5.524   2.387   7.868  1.4725 -0.6194 -2.4717
 2716TIP3    H229784   5.582   2.522   7.907 -1.3812 -0.4283  1.7614
 2717TIP3   OH229785   5.698   2.660   7.354 -0.1634 -0.2069  0.2827
 2717TIP3    H129786   5.737   2.699   7.275  2.0066 -0.9774  0.8893
 2717TIP3    H229787   5.639   2.592   7.322  0.2341 -0.1049 -0.6845
 2718TIP3   OH229788   4.183   1.376   0.705 -0.5246  0.0191  0.1503
 2718TIP3    H129789   4.108   1.421   0.667  0.6304  1.6069 -0.3600
 2718TIP3    H229790   4.243   1.364   0.632 -0.5154 -1.7922  0.4231
 2719TIP3   OH229791   1.440   5.858   6.898  0.4001  0.1551  0.2630
 2719TIP3    H129792   1.351   5.857   6.864 -0.3164 -2.1154  1.9630
 2719TIP3    H229793   1.483   5.784   6.855 -0.0649 -1.7929  2.8884
 2720TIP3   OH229794   3.672   0.896   6.981 -0.3766  0.0976  0.0783
 2720TIP3    H129795   3.594   0.881   6.929  0.0455 -0.3345 -0.4349
 2720TIP3    H229796   3.730   0.946   6.923 -0.2842  0.4550  0.4712
 2721TIP3   OH229797   0.540   4.136   7.124 -0.4555  0.2620 -0.2426
 2721TIP3    H129798   0.489   4.209   7.158 -0.4631  0.2165 -0.1567
 2721TIP3    H229799   0.597   4.175   7.057 -0.5360  0.3276 -0.2728
 2722TIP3   OH229800   1.353   5.089   1.428 -0.0450 -0.1493 -0.2599
 2722TIP3    H129801   1.290   5.028   1.390  0.5690 -0.6543 -0.4792
 2722TIP3    H229802   1.437   5.067   1.387  0.6690 -0.7901  1.4434
 2723TIP3   OH229803   3.113   6.178   6.211 -0.3105 -0.3303 -0.3765
 2723TIP3    H129804   3.139   6.263   6.247  0.0394 -0.4193 -0.4153
 2723TIP3    H229805   3.045   6.146   6.271 -0.3228 -0.1004 -0.2666
 2724TIP3   OH229806   5.277   6.644   0.716 -0.5470 -0.2179  0.0187
 2724TIP3    H129807   5.303   6.603   0.633 -0.1469 -1.1120  0.5647
 2724TIP3    H229808   5.326   6.726   0.718  0.6607 -0.9057  0.0644
 2725TIP3   OH229809   1.629   2.444   6.891 -0.2191 -0.2901 -0.1555
 2725TIP3    H129810   1.720   2.424   6.912 -0.3596 -0.1714  0.6223
 2725TIP3    H229811   1.583   2.361   6.901 -0.7729  0.2384  2.9075
 2726TIP3   OH229812   4.828   5.475   6.235  0.3552  0.4409  0.0974
 2726TIP3    H129813   4.917   5.455   6.206  0.3753 -0.0683  0.4976
 2726TIP3    H229814   4.791   5.527   6.163  0.2225 -1.2294 -1.1055
 2727TIP3   OH229815   4.416   4.052   6.461  0.1988 -0.9174 -0.0960
 2727TIP3    H129816   4.326   4.034   6.489  0.0975 -1.5451 -0.8057
 2727TIP3    H229817   4.470   4.010   6.527 -0.0393 -2.1642 -0.6625
 2728TIP3   OH229818   1.760   1.183   7.927 -0.3493  0.1517 -0.1164
 2728TIP3    H129819   1.758   1.090   7.948  1.2040 -0.1626 -1.1992
 2728TIP3    H229820   1.797   1.225   8.004  0.9164 -0.4088 -0.4028
 2729TIP3   OH229821   0.743   2.226   0.858  0.5082  0.2238  0.1859
 2729TIP3    H129822   0.781   2.178   0.784  0.0214 -0.8923  0.6412
 2729TIP3    H229823   0.726   2.313   0.823  2.8622  0.6056 -0.2358
 2730TIP3   OH229824   0.527   4.460   7.154  0.1069  0.6680 -0.3990
 2730TIP3    H129825   0.470   4.482   7.080 -1.8652 -0.4069  0.7089
 2730TIP3    H229826   0.500   4.520   7.223 -1.8318 -1.6393  1.0448
 2731TIP3   OH229827   6.546   7.106   0.950 -0.1195 -0.5577 -0.0966
 2731TIP3    H129828   6.523   7.013   0.948  0.4406 -0.7255  0.8321
 2731TIP3    H229829   6.566   7.124   1.041 -1.8572  0.9042  0.0501
 2732TIP3   OH229830   1.452   3.601   7.937  0.7582  0.6518  0.0871
 2732TIP3    H129831   1.423   3.641   7.855  1.8643  0.4569 -0.4269
 2732TIP3    H229832   1.536   3.561   7.914  0.0640 -1.2839  0.7774
 2733TIP3   OH229833   1.430   5.063   0.877  0.0181  0.3801 -0.2610
 2733TIP3    H129834   1.519   5.050   0.912  0.2771  0.1338 -0.9793
 2733TIP3    H229835   1.441   5.052   0.783 -0.6717  0.9786 -0.4113
 2734TIP3   OH229836   7.026   4.924   6.473  0.2932  0.3129 -0.4368
 2734TIP3    H129837   6.966   4.952   6.404 -0.0089  2.5973  0.6545
 2734TIP3    H229838   7.055   4.837   6.446 -1.4895  0.2296 -2.3093
 2735TIP3   OH229839   4.700   1.333   1.063 -0.2716 -0.3227  0.1228
 2735TIP3    H129840   4.661   1.288   0.988 -0.7780  1.6582 -0.8826
 2735TIP3    H229841   4.794   1.312   1.058 -0.0693  0.7908 -1.8941
 2736TIP3   OH229842   6.126   0.870   6.096  0.1404 -0.2465 -0.3789
 2736TIP3    H129843   6.033   0.869   6.119  0.4809  1.1778  1.2293
 2736TIP3    H229844   6.131   0.927   6.019 -0.0839  1.7306  0.9889
 2737TIP3   OH229845   2.594   1.347   0.771  0.0716  0.0153 -0.1681
 2737TIP3    H129846   2.540   1.426   0.774 -0.9115 -0.5830 -1.2389
 2737TIP3    H229847   2.632   1.340   0.859 -1.8780  0.2649  0.7423
 2738TIP3   OH229848   0.623   4.648   7.546  0.2166 -0.4026  0.3043
 2738TIP3    H129849   0.587   4.709   7.483  0.2166  0.8054  1.4392
 2738TIP3    H229850   0.718   4.651   7.531  0.3767  1.1759  1.4532
 2739TIP3   OH229851   3.629   6.492   6.927  0.5892  0.2297  0.3862
 2739TIP3    H129852   3.660   6.413   6.882 -0.3986 -0.2790  0.5704
 2739TIP3    H229853   3.539   6.471   6.953 -0.2542  1.9629 -0.9104
 2740TIP3   OH229854   5.747   3.208   7.520  0.5473 -0.4776  0.2979
 2740TIP3    H129855   5.678   3.275   7.519 -1.9139 -2.8299 -0.6552
 2740TIP3    H229856   5.703   3.129   7.489  3.4153 -2.4622  0.9590
 2741TIP3   OH229857   1.703   0.937   0.045 -0.2740 -0.1925 -0.5172
 2741TIP3    H129858   1.612   0.965   0.037 -0.1243  0.1016 -1.1978
 2741TIP3    H229859   1.698   0.854   0.092 -0.8578  0.0329 -0.1677
 2742TIP3   OH229860   0.718   6.927   7.130 -0.0610 -0.3197 -0.4735
 2742TIP3    H129861   0.740   6.886   7.046  0.0384 -1.5195  0.1067
 2742TIP3    H229862   0.647   6.873   7.165  0.5987 -0.4981  0.6811
 2743TIP3   OH229863   2.908   5.884   7.534  0.1045  0.7081  0.0030
 2743TIP3    H129864   2.950   5.891   7.620 -2.1352 -2.7507  1.6289
 2743TIP3    H229865   2.824   5.928   7.546 -0.7104 -0.8060  0.0437
 2744TIP3   OH229866   0.535   3.723   6.847 -0.2632  0.8706  0.5188
 2744TIP3    H129867   0.520   3.686   6.760 -0.9837 -0.6244  1.2393
 2744TIP3    H229868   0.448   3.724   6.888  0.1673  0.9180  1.4505
 2745TIP3   OH229869   6.115   3.962   6.492  0.4550  0.6389  0.7374
 2745TIP3    H129870   6.124   4.011   6.574  1.1265  0.0508  1.0372
 2745TIP3    H229871   6.034   3.993   6.454  0.2224  1.0601  1.5431
 2746TIP3   OH229872   1.496   4.001   6.034  0.3012  0.3260  0.6044
 2746TIP3    H129873   1.558   3.970   5.968 -0.5507 -0.0168 -0.0559
 2746TIP3    H229874   1.463   4.084   6.000 -0.9991 -0.4071  0.0060
 2747TIP3   OH229875   6.013   4.598   7.975 -0.2535  0.3264 -0.0914
 2747TIP3    H129876   6.068   4.520   7.984 -1.0891 -0.4883 -1.7868
 2747TIP3    H229877   5.939   4.583   8.034  0.8213  1.0467  1.5439
 2748TIP3   OH229878   1.993   4.153   7.076 -0.1105  0.5361 -0.0500
 2748TIP3    H129879   2.026   4.182   6.991  0.9857  2.5634  0.9944
 2748TIP3    H229880   2.021   4.222   7.138 -0.0613 -1.3026  2.1113
 2749TIP3   OH229881   0.390   6.797   6.259  0.0219  0.3278 -0.4299
 2749TIP3    H129882   0.351   6.709   6.253  0.9881 -0.4700  2.8823
 2749TIP3    H229883   0.458   6.798   6.192 -1.8578 -0.3119 -2.4786
 2750TIP3   OH229884   4.982   6.899   7.515 -0.2899 -0.5647 -0.0594
 2750TIP3    H129885   4.968   6.841   7.590 -1.4700 -2.6098 -1.7479
 2750TIP3    H229886   4.926   6.975   7.532 -0.6978 -1.0899  1.0276
 2751TIP3   OH229887   3.189   6.680   0.479  0.1814  0.0904 -0.1738
 2751TIP3    H129888   3.144   6.754   0.437 -1.2961  0.5017  1.9587
 2751TIP3    H229889   3.281   6.695   0.459  0.0012  2.8754  0.6100
 2752TIP3   OH229890   3.269   1.100   0.259  0.0261  0.4235 -0.2042
 2752TIP3    H129891   3.222   1.046   0.195 -1.7256  1.0135  0.5466
 2752TIP3    H229892   3.347   1.048   0.280  0.9686  0.4271 -3.1660
 2753TIP3   OH229893   3.623   4.998   6.804 -0.0414  0.0378 -0.1640
 2753TIP3    H129894   3.642   4.981   6.896  0.6046  0.2538 -0.2560
 2753TIP3    H229895   3.589   4.915   6.771  1.0607 -0.4610 -0.0796
 2754TIP3   OH229896   0.225   0.289   0.968 -0.0295 -0.2759 -0.3014
 2754TIP3    H129897   0.152   0.229   0.953 -1.0773  0.5381  1.2237
 2754TIP3    H229898   0.224   0.349   0.894  0.8353 -1.8762 -1.6834
 2755TIP3   OH229899   5.407   3.141   7.370  0.3388 -0.3829 -0.1589
 2755TIP3    H129900   5.373   3.058   7.405 -2.4757  0.8282  0.2393
 2755TIP3    H229901   5.492   3.118   7.331  0.2573 -3.1646  1.1009
 2756TIP3   OH229902   2.079   7.148   1.484 -0.5185  0.3745 -0.2709
 2756TIP3    H129903   2.051   7.059   1.461  1.9518 -0.5420  0.0028
 2756TIP3    H229904   2.159   7.162   1.432 -1.0147  2.5837 -0.5335
 2757TIP3   OH229905   1.272   0.305   6.711 -0.4142 -0.1587 -0.0022
 2757TIP3    H129906   1.200   0.362   6.687 -1.4020 -1.6022 -0.6319
 2757TIP3    H229907   1.349   0.345   6.671 -0.6498  1.9300  1.4823
 2758TIP3   OH229908   0.817   3.015   0.211  0.1464  0.9925  0.4010
 2758TIP3    H129909   0.793   2.923   0.224  0.9650  0.5592 -1.0316
 2758TIP3    H229910   0.904   3.022   0.249  0.8943  0.6760 -1.1757
 2759TIP3   OH229911   1.105   0.418   0.335  0.4578 -0.1725 -0.3899
 2759TIP3    H129912   1.155   0.450   0.411 -0.5364 -1.0733  0.6771
 2759TIP3    H229913   1.169   0.366   0.285  1.0363  0.1256  0.0267
 2760TIP3   OH229914   2.357   1.068   2.113 -0.1807  0.0718  0.3396
 2760TIP3    H129915   2.348   1.157   2.081  3.2846 -0.8090 -4.1768
 2760TIP3    H229916   2.441   1.067   2.160  0.6905 -0.9849 -1.1282
 2761TIP3   OH229917   7.217   4.134   1.715  0.0103  0.4831  0.1826
 2761TIP3    H129918   7.212   4.173   1.802 -0.6437 -1.6004  1.1567
 2761TIP3    H229919   7.253   4.047   1.730 -0.8224 -0.2046 -1.5172
 2762TIP3   OH229920   3.338   4.197   6.158 -0.0118 -0.5954 -0.0113
 2762TIP3    H129921   3.275   4.144   6.110 -0.4884  1.1127 -1.3519
 2762TIP3    H229922   3.314   4.287   6.138  1.8826  0.1210  0.7341
 2763TIP3   OH229923   2.706   2.100   6.810 -0.5630  0.1018  0.0323
 2763TIP3    H129924   2.633   2.158   6.786 -0.8174  0.5404  1.6838
 2763TIP3    H229925   2.784   2.156   6.803 -0.4696 -0.1253 -0.9021
 2764TIP3   OH229926   5.279   6.836   6.653  0.5442  0.4297 -0.5945
 2764TIP3    H129927   5.247   6.926   6.641  1.7916  0.8518 -0.8993
 2764TIP3    H229928   5.374   6.843   6.643  0.5488 -1.1527 -1.9954
 2765TIP3   OH229929   1.045   5.432   5.848 -0.4150  0.1647  0.8897
 2765TIP3    H129930   0.960   5.452   5.887 -0.6057 -0.3073  0.7283
 2765TIP3    H229931   1.060   5.502   5.785 -2.3514 -1.5603 -1.6692
 2766TIP3   OH229932   6.904   6.504   7.212 -0.6343  0.2445 -0.8489
 2766TIP3    H129933   6.897   6.494   7.307  1.7600  1.4717 -0.4563
 2766TIP3    H229934   6.982   6.454   7.188 -0.1256  1.4538 -1.8419
 2767TIP3   OH229935   4.614   1.257   0.799 -0.5811  0.2263  0.4377
 2767TIP3    H129936   4.671   1.324   0.763  0.3843 -1.1729 -0.7506
 2767TIP3    H229937   4.528   1.275   0.762 -0.3613  0.8504  0.2252
 2768TIP3   OH229938   4.759   3.532   6.726  0.2257  0.3606 -0.2468
 2768TIP3    H129939   4.666   3.530   6.750 -0.0264  1.1010 -1.1248
 2768TIP3    H229940   4.761   3.513   6.633  1.1495 -1.8067  0.1666
 2769TIP3   OH229941   4.195   0.727   7.801 -0.3423 -0.0098  0.1530
 2769TIP3    H129942   4.204   0.633   7.814 -1.6235 -0.2446 -0.4607
 2769TIP3    H229943   4.285   0.760   7.797  0.1212 -1.2218  0.2370
 2770TIP3   OH229944   5.501   0.819   7.126  0.3682 -0.0951  0.2653
 2770TIP3    H129945   5.563   0.849   7.193 -0.0453  0.5767  0.3580
 2770TIP3    H229946   5.436   0.889   7.122 -0.7573 -1.0950  0.6513
 2771TIP3   OH229947   4.617   7.095   1.011 -0.0775  0.2171 -0.0885
 2771TIP3    H129948   4.568   7.165   0.967 -0.4065 -0.9914 -1.7806
 2771TIP3    H229949   4.589   7.015   0.966 -0.7520 -1.2167  2.6865
 2772TIP3   OH229950   3.791   0.585   0.799 -0.0271  0.6070 -0.7478
 2772TIP3    H129951   3.802   0.555   0.709  1.8210  0.1216 -0.3909
 2772TIP3    H229952   3.711   0.542   0.829 -0.2049  0.1083 -1.8873
 2773TIP3   OH229953   3.346   5.614   0.519 -0.1152 -0.1680 -0.3404
 2773TIP3    H129954   3.284   5.586   0.586  0.3764  0.3689  0.3531
 2773TIP3    H229955   3.408   5.541   0.511  1.0264  0.5733  1.2913
 2774TIP3   OH229956   4.793   0.299   7.086  0.5107  0.0199 -0.1996
 2774TIP3    H129957   4.874   0.346   7.065 -0.4863  0.7006 -2.8597
 2774TIP3    H229958   4.806   0.211   7.050  0.8846 -0.6046  1.3770
 2775TIP3   OH229959   6.890   6.874   0.419 -0.3319 -0.0142 -0.6987
 2775TIP3    H129960   6.882   6.859   0.325 -0.6554 -0.1224 -0.6553
 2775TIP3    H229961   6.940   6.955   0.427  0.3430 -0.3995 -0.9552
 2776TIP3   OH229962   0.498   6.066   7.356  0.1946 -0.2392 -0.0082
 2776TIP3    H129963   0.547   6.058   7.274 -0.4734 -2.7662 -0.2416
 2776TIP3    H229964   0.453   5.982   7.365 -2.9661  1.4132  0.9314
 2777TIP3   OH229965   3.902   5.550   7.600  0.4505  0.0295 -0.0324
 2777TIP3    H129966   3.854   5.619   7.554 -1.5233 -0.9194  0.4837
 2777TIP3    H229967   3.860   5.469   7.571  1.8383 -0.8679  0.3898
 2778TIP3   OH229968   5.368   6.118   0.561 -0.6590 -0.2269  0.0218
 2778TIP3    H129969   5.428   6.048   0.587  1.0939  1.2432  0.1792
 2778TIP3    H229970   5.334   6.152   0.644  0.1857  0.4898  0.0897
 2779TIP3   OH229971   6.437   3.204   1.637  0.2453 -0.3337  0.4968
 2779TIP3    H129972   6.367   3.142   1.656 -1.8687  1.5642 -0.7513
 2779TIP3    H229973   6.428   3.271   1.704 -0.1433  0.6970 -0.5613
 2780TIP3   OH229974   3.050   2.771   6.367 -0.4296  0.4092  0.1131
 2780TIP3    H129975   3.113   2.775   6.295 -0.7986  1.4845 -0.1860
 2780TIP3    H229976   3.007   2.857   6.365 -1.6950 -0.1841  0.4876
 2781TIP3   OH229977   3.857   4.760   6.762 -0.2198 -0.1701 -0.2918
 2781TIP3    H129978   3.789   4.780   6.697  0.3240  1.6851 -0.3592
 2781TIP3    H229979   3.812   4.770   6.846 -0.6284 -1.4105 -0.3452
 2782TIP3   OH229980   1.587   7.080   6.546 -0.2007  0.0072  0.4152
 2782TIP3    H129981   1.517   7.051   6.604 -0.1382 -1.0353 -0.0088
 2782TIP3    H229982   1.668   7.051   6.589 -0.0420  0.8984  0.7322
 2783TIP3   OH229983   4.549   1.616   1.256 -0.7098 -0.0785 -0.2751
 2783TIP3    H129984   4.635   1.632   1.218  0.4797 -0.9640  1.8918
 2783TIP3    H229985   4.512   1.704   1.269 -0.3245  0.2970 -1.5608
 2784TIP3   OH229986   0.348   5.725   0.738 -0.0223 -0.4417  0.0108
 2784TIP3    H129987   0.409   5.652   0.728  1.7999  1.0865 -0.7068
 2784TIP3    H229988   0.363   5.757   0.827 -1.3859 -1.3886  0.6039
 2785TIP3   OH229989   1.211   4.133   1.076  0.7190 -0.0370 -0.4843
 2785TIP3    H129990   1.139   4.173   1.125  1.4069  1.1209 -0.3844
 2785TIP3    H229991   1.290   4.175   1.111  1.3208 -0.0694 -1.7423
 2786TIP3   OH229992   4.789   7.132   1.633  0.0346  0.2479  0.1622
 2786TIP3    H129993   4.781   7.179   1.716  1.4679  0.8766 -0.0250
 2786TIP3    H229994   4.790   7.040   1.658  0.6754  0.4351  0.8752
 2787TIP3   OH229995   3.400   2.822   6.496  0.3451  0.4804 -0.8740
 2787TIP3    H129996   3.462   2.770   6.445  1.6191 -0.5886  1.5963
 2787TIP3    H229997   3.355   2.759   6.552 -0.9873  1.5828 -0.6333
 2788TIP3   OH229998   4.258   4.663   6.856  0.8554 -0.2390  0.4320
 2788TIP3    H129999   4.269   4.579   6.812 -0.9664  0.1081 -0.7568
 2788TIP3    H230000   4.177   4.654   6.906 -0.8978  1.6392 -1.8863
 2789TIP3   OH230001   3.923   5.230   7.800 -0.2646  0.6865  0.3430
 2789TIP3    H130002   3.859   5.262   7.863 -1.0905  1.7333 -0.9787
 2789TIP3    H230003   4.002   5.280   7.818  0.0545 -0.2042  1.6017
 2790TIP3   OH230004   6.771   2.505   7.514 -0.4635 -0.5187  0.3983
 2790TIP3    H130005   6.774   2.442   7.586 -0.8619  0.0728  0.9314
 2790TIP3    H230006   6.703   2.567   7.538  2.0223  2.0170  1.4309
 2791TIP3   OH230007   2.668   5.599   7.401  0.2997 -0.0074 -0.1413
 2791TIP3    H130008   2.683   5.632   7.490 -1.1032  0.4963 -0.0635
 2791TIP3    H230009   2.588   5.547   7.408  0.7583 -0.8466 -0.9118
 2792TIP3   OH230010   5.431   2.275   0.722  0.1036  0.3798  0.0719
 2792TIP3    H130011   5.417   2.365   0.692  0.2041  0.1031 -0.8481
 2792TIP3    H230012   5.363   2.260   0.787 -1.4239  0.3501 -1.4721
 2793TIP3   OH230013   2.555   0.032   1.509  0.3219  0.4904 -0.1534
 2793TIP3    H130014   2.651   0.034   1.503  0.5520 -3.1722  0.0135
 2793TIP3    H230015   2.525   0.043   1.419  0.9390  0.9329 -0.3125
 2794TIP3   OH230016   4.792   5.577   7.201 -0.4974 -0.5331 -0.7519
 2794TIP3    H130017   4.836   5.536   7.276  0.6196  0.2117 -0.9720
 2794TIP3    H230018   4.831   5.535   7.124  0.7130  0.9245 -0.9826
 2795TIP3   OH230019   7.134   4.163   0.142  0.1804 -0.3526 -0.5189
 2795TIP3    H130020   7.171   4.149   0.230  1.8058  0.0234 -1.1140
 2795TIP3    H230021   7.208   4.194   0.090 -0.7369 -0.7024 -2.0669
 2796TIP3   OH230022   7.203   6.582   7.552  0.2588 -0.2322 -0.5013
 2796TIP3    H130023   7.151   6.662   7.555  0.7495  0.0837 -0.4954
 2796TIP3    H230024   7.171   6.531   7.626  0.1126  0.0589 -0.3621
 2797TIP3   OH230025   4.075   3.347   0.164  0.0149 -0.0829  0.5455
 2797TIP3    H130026   4.045   3.419   0.221  1.2882 -0.5001  1.7865
 2797TIP3    H230027   4.129   3.390   0.098  0.6564  0.1258  1.1974
 2798TIP3   OH230028   5.418   0.052   0.531  0.1683  0.0454 -0.8222
 2798TIP3    H130029   5.384   0.059   0.621  0.9051 -0.1997 -0.5181
 2798TIP3    H230030   5.456   0.138   0.513  1.9827 -0.5408 -0.0681
 2799TIP3   OH230031   2.844   1.861   0.734 -0.1543 -0.2835 -0.1981
 2799TIP3    H130032   2.872   1.888   0.822  1.1234  0.3970 -0.7772
 2799TIP3    H230033   2.859   1.767   0.732  0.3752 -0.2129  0.1386
 2800TIP3   OH230034   1.242   5.303   7.083 -0.6123 -0.2336 -0.5298
 2800TIP3    H130035   1.164   5.317   7.136  0.7611 -0.2894  1.5978
 2800TIP3    H230036   1.277   5.219   7.113  0.3421 -0.1623 -1.3763
 2801TIP3   OH230037   0.663   5.299   0.079 -0.3574 -0.6844 -0.5736
 2801TIP3    H130038   0.614   5.259   0.151  2.8593  0.0876  2.3188
 2801TIP3    H230039   0.719   5.229   0.046 -1.2677 -0.8258 -1.9117
 2802TIP3   OH230040   2.587   7.137   0.980  0.2731  0.5538  0.0398
 2802TIP3    H130041   2.613   7.053   0.943 -0.3544  0.6636 -0.6882
 2802TIP3    H230042   2.656   7.198   0.952 -0.0719  0.5868 -0.7854
 2803TIP3   OH230043   3.401   0.718   5.578 -0.2508  0.1473  0.2720
 2803TIP3    H130044   3.329   0.779   5.564 -0.5383 -0.6099 -1.8497
 2803TIP3    H230045   3.370   0.635   5.541  1.8917 -0.0634 -1.2280
 2804TIP3   OH230046   3.448   0.190   7.290 -0.3917 -0.0693 -0.5484
 2804TIP3    H130047   3.487   0.105   7.269 -1.3556 -0.5510 -0.4355
 2804TIP3    H230048   3.518   0.238   7.334 -0.2944 -1.3783  0.8053
 2805TIP3   OH230049   6.043   2.568   7.327  0.4969  0.1527 -0.0650
 2805TIP3    H130050   6.047   2.506   7.400 -2.5840  0.1605  0.2558
 2805TIP3    H230051   5.998   2.644   7.364 -0.1506  0.5956 -1.7008
 2806TIP3   OH230052   2.863   5.754   2.089  0.4065  0.3088 -0.3049
 2806TIP3    H130053   2.935   5.786   2.144  0.2615 -0.0987  0.1277
 2806TIP3    H230054   2.834   5.673   2.132 -1.7482  1.5595  0.7827
 2807TIP3   OH230055   6.317   0.629   6.306 -0.7171  0.1296  0.0254
 2807TIP3    H130056   6.296   0.593   6.220 -2.4200  0.0465  0.4483
 2807TIP3    H230057   6.235   0.665   6.338  0.1836  1.3228  1.0852
 2808TIP3   OH230058   6.088   4.351   1.013  0.5818 -0.4007  0.2435
 2808TIP3    H130059   6.173   4.368   1.053  0.3578  0.4100  0.3832
 2808TIP3    H230060   6.101   4.366   0.920  0.7085 -0.7369  0.2069
 2809TIP3   OH230061   3.699   3.475   7.469  0.3504 -0.3612 -0.0744
 2809TIP3    H130062   3.717   3.508   7.381  1.0266  0.6906  0.4518
 2809TIP3    H230063   3.757   3.525   7.526 -2.1288  1.0774  1.3352
 2810TIP3   OH230064   1.510   5.311   7.901 -0.2449  0.0308 -0.4693
 2810TIP3    H130065   1.481   5.313   7.810  0.7078 -2.5562 -0.8933
 2810TIP3    H230066   1.588   5.366   7.903 -1.4923  1.9258 -0.6560
 2811TIP3   OH230067   1.266   3.802   6.793 -0.3563  0.1742  0.3296
 2811TIP3    H130068   1.351   3.832   6.760  0.5754 -0.7597  1.7754
 2811TIP3    H230069   1.284   3.717   6.832 -2.1013 -0.3149  0.1327
 2812TIP3   OH230070   1.437   0.834   6.911  0.1156  0.5441  0.4877
 2812TIP3    H130071   1.344   0.853   6.898  0.1787  0.2175 -0.5645
 2812TIP3    H230072   1.478   0.858   6.828  0.7261 -0.7869  0.3753
 2813TIP3   OH230073   4.702   1.960   7.392  0.0354  0.5493  0.6009
 2813TIP3    H130074   4.616   1.929   7.420  0.2082  1.2208  1.9314
 2813TIP3    H230075   4.764   1.906   7.440  0.3722  0.2739 -0.1229
 2814TIP3   OH230076   1.092   4.626   7.280  0.2934  0.3413  0.0220
 2814TIP3    H130077   1.095   4.685   7.206 -0.4361 -2.6801 -2.6432
 2814TIP3    H230078   1.003   4.632   7.313  0.0943  0.4159 -0.5238
 2815TIP3   OH230079   2.556   3.361   6.669  0.3463  0.7130 -0.3542
 2815TIP3    H130080   2.633   3.323   6.710 -0.5114  0.5516  1.1960
 2815TIP3    H230081   2.589   3.436   6.619  1.2334  2.2446  2.3727
 2816TIP3   OH230082   5.427   2.923   5.623  0.3963 -0.4030  0.4388
 2816TIP3    H130083   5.357   2.886   5.678  0.7748 -1.4827  0.2272
 2816TIP3    H230084   5.459   2.997   5.673  0.6057 -1.2525  1.6189
 2817TIP3   OH230085   6.136   6.976   0.253  0.4437  0.1081 -0.0047
 2817TIP3    H130086   6.121   6.925   0.333  1.0452 -1.6402 -0.9634
 2817TIP3    H230087   6.102   7.064   0.274 -0.5970 -0.6540  1.7106
 2818TIP3   OH230088   3.188   0.103   5.887  0.3864 -0.0662  0.1299
 2818TIP3    H130089   3.173   0.027   5.830 -1.9184 -0.7384  1.5093
 2818TIP3    H230090   3.185   0.178   5.827  0.1974 -0.8887 -0.9245
 2819TIP3   OH230091   2.098   4.836   6.369 -0.1934 -0.6779 -0.2143
 2819TIP3    H130092   2.172   4.790   6.331 -0.7334 -2.1818  0.4994
 2819TIP3    H230093   2.069   4.895   6.299  2.5792  1.1386 -0.0016
 2820TIP3   OH230094   5.659   1.165   6.034  0.0223  0.3913 -0.5128
 2820TIP3    H130095   5.611   1.190   5.955 -1.3700 -1.7963 -0.4506
 2820TIP3    H230096   5.628   1.076   6.054  1.0665  0.4915  1.9327
 2821TIP3   OH230097   6.707   2.666   7.288  0.4181 -0.3655 -0.7640
 2821TIP3    H130098   6.675   2.740   7.340  0.5677 -0.5296 -0.4393
 2821TIP3    H230099   6.764   2.617   7.347  1.0209 -0.2536 -1.2426
 2822TIP3   OH230100   4.389   5.237   7.755 -0.1650  0.4190 -0.3277
 2822TIP3    H130101   4.456   5.202   7.813 -1.7730 -0.9339  0.8310
 2822TIP3    H230102   4.336   5.161   7.731 -1.4280  1.4599 -0.9958
 2823TIP3   OH230103   1.046   1.735   1.512  0.2490  0.4103  0.0561
 2823TIP3    H130104   1.048   1.746   1.417  1.0048 -0.6446 -0.0625
 2823TIP3    H230105   1.122   1.785   1.544 -0.5832  1.6053  0.2146
 2824TIP3   OH230106   2.938   2.650   7.773  0.5114 -0.1078 -1.0667
 2824TIP3    H130107   2.959   2.556   7.773  0.2973 -0.1560 -1.4403
 2824TIP3    H230108   2.844   2.653   7.752  0.3524  0.1509 -0.3504
 2825TIP3   OH230109   0.993   6.114   5.567 -0.4178  0.6093 -0.0738
 2825TIP3    H130110   0.944   6.060   5.505  0.5684 -0.7365  0.2630
 2825TIP3    H230111   1.083   6.111   5.534 -0.2212  1.4775  0.3618
 2826TIP3   OH230112   2.283   3.998   1.962  0.2504  0.3448  0.7255
 2826TIP3    H130113   2.289   3.907   1.991 -0.8575 -0.1185 -0.4111
 2826TIP3    H230114   2.346   4.006   1.891 -0.7517 -0.0114 -0.2440
 2827TIP3   OH230115   6.854   4.693   6.587  0.1569 -0.5090 -0.3189
 2827TIP3    H130116   6.795   4.757   6.549 -0.2165 -0.3034  0.5986
 2827TIP3    H230117   6.937   4.740   6.598 -0.0165 -0.2834  0.0308
 2828TIP3   OH230118   6.427   6.765   6.176 -0.2820 -0.6209 -0.3280
 2828TIP3    H130119   6.429   6.854   6.142  0.1899 -0.3623  0.3399
 2828TIP3    H230120   6.476   6.713   6.112  1.1482 -0.0283  0.2431
 2829TIP3   OH230121   3.193   3.745   6.638  0.0526 -0.1991 -0.1643
 2829TIP3    H130122   3.144   3.825   6.620 -1.9732 -0.9634  1.5716
 2829TIP3    H230123   3.130   3.675   6.623  0.8320 -1.2655  1.3594
 2830TIP3   OH230124   6.148   6.182   7.618 -0.4894  0.4446 -0.2345
 2830TIP3    H130125   6.185   6.094   7.624  0.4847  0.9462  2.0692
 2830TIP3    H230126   6.222   6.238   7.594 -1.0567  0.7252 -1.4573
 2831TIP3   OH230127   6.633   4.759   0.985  0.1913  0.1931 -0.7610
 2831TIP3    H130128   6.614   4.814   1.061 -0.8012 -3.7498  2.1729
 2831TIP3    H230129   6.595   4.805   0.911 -1.1801  3.0286  1.5376
 2832TIP3   OH230130   0.692   6.608   1.658  0.0561 -0.2180  0.3965
 2832TIP3    H130131   0.631   6.599   1.585 -0.9280 -1.3162  1.3164
 2832TIP3    H230132   0.746   6.529   1.654  1.4214  0.7170 -0.3757
 2833TIP3   OH230133   5.307   6.162   1.248  0.0507  0.6029  0.4262
 2833TIP3    H130134   5.240   6.189   1.311 -1.1552  0.4397 -0.7550
 2833TIP3    H230135   5.349   6.243   1.222  0.2775  0.7171  1.1111
 2834TIP3   OH230136   1.252   1.502   7.512  0.2479  0.2860  0.4347
 2834TIP3    H130137   1.285   1.431   7.457 -1.9134  0.8514 -1.7607
 2834TIP3    H230138   1.260   1.581   7.458 -2.3196  0.8095  0.6862
 2835TIP3   OH230139   4.790   5.287   6.440 -0.2696  1.0020 -0.1076
 2835TIP3    H130140   4.748   5.216   6.391 -0.9678  0.5363  1.1235
 2835TIP3    H230141   4.801   5.357   6.376  1.6874 -0.6534 -1.7380
 2836TIP3   OH230142   1.627   3.736   1.113  0.0603  0.6632 -0.7292
 2836TIP3    H130143   1.575   3.655   1.106 -0.0487  0.2095  2.9355
 2836TIP3    H230144   1.562   3.806   1.113 -0.3091  0.3505  0.4943
 2837TIP3   OH230145   2.796   4.693   7.045  0.2177 -0.2221 -0.2857
 2837TIP3    H130146   2.776   4.741   7.126 -3.1864 -1.2207 -0.3672
 2837TIP3    H230147   2.840   4.613   7.075  1.0219  0.4239  0.3228
 2838TIP3   OH230148   3.916   6.837   6.249  0.1065  0.3810  0.5154
 2838TIP3    H130149   4.000   6.793   6.260  0.4672  0.5477 -1.3178
 2838TIP3    H230150   3.852   6.766   6.249  0.7379 -0.3530 -3.0617
 2839TIP3   OH230151   3.904   5.081   7.362 -0.4113  0.4460  0.7990
 2839TIP3    H130152   3.897   5.164   7.316 -0.6251 -0.9817 -1.9385
 2839TIP3    H230153   3.992   5.050   7.343  0.2903  0.7397  3.2154
 2840TIP3   OH230154   4.616   1.959   6.426 -0.3325 -0.3617 -0.5307
 2840TIP3    H130155   4.629   2.053   6.415 -1.7213 -0.0978 -0.1287
 2840TIP3    H230156   4.533   1.951   6.474  0.6208 -1.7394  1.0058
 2841TIP3   OH230157   3.827   5.969   0.561  0.1048  0.7558 -0.0084
 2841TIP3    H130158   3.822   5.949   0.655  0.2960  1.2815  0.1170
 2841TIP3    H230159   3.788   5.893   0.519 -0.0744  0.5546  0.5034
 2842TIP3   OH230160   4.205   2.666   0.065  0.1457  0.0656 -0.4347
 2842TIP3    H130161   4.281   2.717   0.092  0.5139 -0.5413 -0.3026
 2842TIP3    H230162   4.194   2.601   0.134  0.1483 -0.5224 -0.9811
 2843TIP3   OH230163   5.492   0.104   7.059 -0.1509 -0.0835 -0.4683
 2843TIP3    H130164   5.401   0.127   7.080 -0.4871 -1.8607  0.2286
 2843TIP3    H230165   5.484   0.042   6.987  0.5049 -0.3524 -0.3102
 2844TIP3   OH230166   4.548   2.577   5.991 -0.7118 -0.2703  0.3107
 2844TIP3    H130167   4.561   2.671   6.000  0.0663 -0.3830  0.4488
 2844TIP3    H230168   4.610   2.538   6.054 -0.3874 -0.8922 -0.3758
 2845TIP3   OH230169   5.568   1.771   6.487  0.3124  0.0568  0.2407
 2845TIP3    H130170   5.621   1.789   6.409  1.6857  3.1929  1.7095
 2845TIP3    H230171   5.631   1.755   6.556 -0.7719  0.1570  1.2927
 2846TIP3   OH230172   1.995   0.717   7.539 -0.3376 -0.2296  0.2317
 2846TIP3    H130173   2.049   0.752   7.610 -1.0589  0.0546  0.6512
 2846TIP3    H230174   1.974   0.627   7.567  0.7985 -0.7308 -0.4424
 2847TIP3   OH230175   6.165   6.718   6.096  0.3175  0.3245  0.3618
 2847TIP3    H130176   6.166   6.640   6.040 -0.1649 -0.1766  1.0384
 2847TIP3    H230177   6.254   6.724   6.130  0.7851  0.9909 -0.9393
 2848TIP3   OH230178   0.367   4.102   1.542 -0.3233  0.6729 -0.0902
 2848TIP3    H130179   0.343   4.160   1.614 -1.1052  0.6412 -0.3086
 2848TIP3    H230180   0.366   4.014   1.580 -1.9890  0.5165 -0.3934
 2849TIP3   OH230181   2.160   3.111   0.182  0.1175 -0.7490  0.0931
 2849TIP3    H130182   2.168   3.017   0.167 -0.2026 -0.9392  1.0619
 2849TIP3    H230183   2.066   3.129   0.174  0.3848 -0.0411 -2.5921
 2850TIP3   OH230184   4.837   4.125   7.093  0.5808  0.5535  0.0169
 2850TIP3    H130185   4.916   4.108   7.144 -0.1202  1.4180  1.4655
 2850TIP3    H230186   4.803   4.208   7.128 -1.5477 -0.3401  0.2112
 2851TIP3   OH230187   3.365   1.592   6.021  0.1202 -0.8521 -0.0450
 2851TIP3    H130188   3.285   1.631   6.056  0.4944 -0.2606  0.1769
 2851TIP3    H230189   3.380   1.637   5.938  1.9927  1.4800  1.4333
 2852TIP3   OH230190   6.953   5.284   7.404 -0.3099  0.3698  0.7778
 2852TIP3    H130191   6.873   5.231   7.403 -0.6976  0.9532  0.1460
 2852TIP3    H230192   6.985   5.277   7.494 -0.8205 -0.2365  0.9242
 2853TIP3   OH230193   4.935   5.312   1.520 -0.6395  0.1557  0.2356
 2853TIP3    H130194   4.846   5.343   1.503 -0.1764  1.2106 -0.3601
 2853TIP3    H230195   4.971   5.377   1.580  0.7188  1.5129 -1.9019
 2854TIP3   OH230196   6.176   2.065   7.582 -0.4337  0.0480 -0.1436
 2854TIP3    H130197   6.236   2.031   7.516 -0.3044 -1.0529  0.5216
 2854TIP3    H230198   6.091   2.025   7.561 -0.5052  0.0862  0.0658
 2855TIP3   OH230199   6.574   1.300   0.478 -0.5235  0.5169 -0.2675
 2855TIP3    H130200   6.573   1.248   0.558  3.5233  0.8888  0.2563
 2855TIP3    H230201   6.516   1.374   0.497 -2.5354 -1.2238  0.8150
 2856TIP3   OH230202   4.059   7.032   0.390 -0.0435 -0.0831 -0.0722
 2856TIP3    H130203   3.989   6.991   0.441 -1.0260  2.6852  0.9969
 2856TIP3    H230204   4.017   7.106   0.348  2.2558  1.8239  0.7894
 2857TIP3   OH230205   4.258   6.841   1.244  0.2124  0.4088  0.1455
 2857TIP3    H130206   4.279   6.857   1.152  0.8142 -0.6280  0.0883
 2857TIP3    H230207   4.249   6.929   1.282  2.0650  0.8902 -0.4302
 2858TIP3   OH230208   6.152   0.990   6.656  0.2196  0.3106  0.1070
 2858TIP3    H130209   6.234   1.014   6.698  0.5746  0.5070 -0.6806
 2858TIP3    H230210   6.093   0.967   6.728  0.7336  0.8829  0.7121
 2859TIP3   OH230211   6.253   0.580   1.930  0.8794 -0.5186 -0.7913
 2859TIP3    H130212   6.253   0.675   1.941 -0.3997 -0.8164  3.7498
 2859TIP3    H230213   6.167   0.560   1.893  0.9054  0.0394 -1.1563
 2860TIP3   OH230214   0.611   6.306   0.456 -0.1180 -0.4781  0.0894
 2860TIP3    H130215   0.660   6.388   0.466  1.0470 -1.2778  1.1695
 2860TIP3    H230216   0.665   6.252   0.399 -1.2708 -0.2323 -1.2938
 2861TIP3   OH230217   6.700   6.060   0.671 -0.0434  0.4794  0.1515
 2861TIP3    H130218   6.778   6.009   0.693  0.7771  0.9222 -1.5662
 2861TIP3    H230219   6.722   6.104   0.589 -2.4118 -0.0302 -0.8327
 2862TIP3   OH230220   0.047   6.899   7.318  0.1701 -0.2499 -0.2160
 2862TIP3    H130221  -0.043   6.911   7.286 -0.0867 -0.3867  0.4374
 2862TIP3    H230222   0.066   6.806   7.301  0.3998 -0.0929 -0.8634
 2863TIP3   OH230223   3.173   3.928   7.946  0.1384  0.1798  0.3643
 2863TIP3    H130224   3.213   3.894   8.026 -2.5192 -1.6207  1.0666
 2863TIP3    H230225   3.135   4.012   7.971  2.0307  1.1708  0.0771
 2864TIP3   OH230226   2.558   2.921   5.863  0.3936 -0.3444 -0.2825
 2864TIP3    H130227   2.529   2.834   5.839  0.8332 -0.1335 -1.6698
 2864TIP3    H230228   2.613   2.949   5.790  0.6776  0.8890  0.3743
 2865TIP3   OH230229   2.283   5.569   7.773  0.6052 -0.3251 -0.3756
 2865TIP3    H130230   2.329   5.624   7.836 -1.0770 -0.1992  0.8045
 2865TIP3    H230231   2.317   5.481   7.789 -0.2774 -0.4132  1.2310
 2866TIP3   OH230232   4.277   2.423   0.602  0.2672 -0.8002 -0.0216
 2866TIP3    H130233   4.354   2.481   0.605 -0.4687  0.1987 -0.0253
 2866TIP3    H230234   4.250   2.423   0.511 -1.0656  0.6719  0.3336
 2867TIP3   OH230235   3.005   3.164   0.155 -0.1624  0.0529  0.1515
 2867TIP3    H130236   2.925   3.215   0.150 -0.8150 -1.0025 -0.5954
 2867TIP3    H230237   2.986   3.094   0.217  0.0033 -0.4820 -0.3839
 2868TIP3   OH230238   6.312   2.286   6.064 -0.4779 -0.3132  1.0622
 2868TIP3    H130239   6.294   2.349   6.133 -0.6812  0.6318  0.1752
 2868TIP3    H230240   6.300   2.200   6.105 -0.3093  0.2214  2.2596
 2869TIP3   OH230241   4.293   6.478   7.159 -0.0118 -0.5685 -0.1725
 2869TIP3    H130242   4.248   6.478   7.244 -0.5800  2.2149 -0.3840
 2869TIP3    H230243   4.380   6.442   7.179 -0.5339 -1.1113  1.3254
 2870TIP3   OH230244   0.558   1.743   7.007  0.0477  0.4221 -0.0377
 2870TIP3    H130245   0.548   1.811   7.073 -0.6173 -0.9145  1.2921
 2870TIP3    H230246   0.504   1.671   7.038  1.1403 -0.9233 -1.1128
 2871TIP3   OH230247   6.250   2.280   0.600  0.0281  0.2289  0.5120
 2871TIP3    H130248   6.342   2.277   0.624 -0.4295  0.4306  2.5463
 2871TIP3    H230249   6.247   2.250   0.509  2.1794  1.1588  0.0760
 2872TIP3   OH230250   0.928   1.224   0.042 -0.5288  0.3131  0.5446
 2872TIP3    H130251   0.902   1.300   0.095  0.5202 -0.3339  2.0367
 2872TIP3    H230252   0.901   1.148   0.093 -0.3886 -0.3355 -0.3187
 2873TIP3   OH230253   4.293   5.011   7.655 -0.5838 -0.2986 -0.6164
 2873TIP3    H130254   4.262   4.940   7.712  0.5024  0.6555  1.2676
 2873TIP3    H230255   4.325   4.966   7.577 -1.8686 -1.6945 -0.3900
 2874TIP3   OH230256   5.794   2.144   7.894  0.2225  0.2344 -0.0565
 2874TIP3    H130257   5.836   2.203   7.831 -1.6745  2.6480  0.7761
 2874TIP3    H230258   5.861   2.131   7.962  1.6539 -0.9602 -1.5941
 2875TIP3   OH230259   5.185   1.670   0.330  0.1970 -0.4920 -0.0245
 2875TIP3    H130260   5.138   1.740   0.285  1.3881 -0.3890 -1.1550
 2875TIP3    H230261   5.214   1.611   0.261 -1.2125 -2.4142  0.9393
 2876TIP3   OH230262   1.811   4.472   5.859  0.2400 -0.0691 -0.1443
 2876TIP3    H130263   1.891   4.513   5.826  1.3475 -0.9417  1.3453
 2876TIP3    H230264   1.801   4.393   5.806 -0.5508  0.8378 -1.3945
 2877TIP3   OH230265   7.106   4.447   1.139 -0.1482 -0.0024 -0.5315
 2877TIP3    H130266   7.045   4.520   1.126  2.4722  2.5360  0.2000
 2877TIP3    H230267   7.166   4.453   1.065  0.0768 -1.4822 -0.4853
 2878TIP3   OH230268   1.658   2.885   0.508 -0.4172  0.6456 -0.4318
 2878TIP3    H130269   1.691   2.927   0.588 -1.4901  1.2791 -0.3007
 2878TIP3    H230270   1.689   2.795   0.514 -0.6278  0.6373  0.8061
 2879TIP3   OH230271   5.683   6.515   1.278 -0.0131  0.1586 -0.1261
 2879TIP3    H130272   5.754   6.508   1.342 -0.5657 -1.5213  0.3711
 2879TIP3    H230273   5.675   6.608   1.261  0.3112  0.6643  2.1196
 2880TIP3   OH230274   4.281   4.743   7.168  0.3214  0.3279  0.3989
 2880TIP3    H130275   4.190   4.767   7.151  0.4860  2.2100  1.9038
 2880TIP3    H230276   4.284   4.725   7.262  1.3983 -0.3004  0.2600
 2881TIP3   OH230277   4.963   3.179   7.885  0.2638  0.0889 -0.3207
 2881TIP3    H130278   4.944   3.085   7.884 -0.6334  0.2561  0.1898
 2881TIP3    H230279   4.883   3.220   7.919  1.1306  0.9159  0.8075
 2882TIP3   OH230280   1.965   1.978   1.172 -0.1681  0.6051  0.0432
 2882TIP3    H130281   1.963   1.965   1.267  0.2464  1.6414  0.2015
 2882TIP3    H230282   1.975   2.073   1.161 -0.6015  0.5391 -1.0394
 2883TIP3   OH230283   2.169   3.688   0.954  0.3341  0.3041  0.3837
 2883TIP3    H130284   2.093   3.631   0.943 -0.8531  2.0835 -1.0718
 2883TIP3    H230285   2.148   3.767   0.905  3.1047  0.9043 -0.0238
 2884TIP3   OH230286   1.408   0.889   6.304  0.3979  0.1542  0.4478
 2884TIP3    H130287   1.411   0.984   6.305  3.3477  0.2706 -2.3081
 2884TIP3    H230288   1.475   0.862   6.366  0.3715 -0.0895  0.3721
 2885TIP3   OH230289   7.189   1.193   0.367 -0.1851 -0.1009  0.0418
 2885TIP3    H130290   7.282   1.199   0.390 -0.5704  2.0882  1.2407
 2885TIP3    H230291   7.155   1.124   0.424  0.2620  0.6637  1.2757
 2886TIP3   OH230292   3.053   1.168   7.529 -0.0564  0.5423 -0.2976
 2886TIP3    H130293   3.103   1.121   7.462  1.1358  0.7293  0.4312
 2886TIP3    H230294   3.118   1.194   7.593 -0.9693  1.6429  0.2101
 2887TIP3   OH230295   3.186   3.354   0.037  0.1045  0.7150 -0.0741
 2887TIP3    H130296   3.116   3.295   0.065  1.4297 -1.6840 -1.4767
 2887TIP3    H230297   3.162   3.379  -0.052  1.0694 -0.2821 -0.6372
 2888TIP3   OH230298   7.178   3.099   7.793  0.0178  0.2106 -0.1489
 2888TIP3    H130299   7.195   3.188   7.825  0.9320 -0.0713  0.1985
 2888TIP3    H230300   7.173   3.108   7.698 -2.7949  1.0764 -0.0118
 2889TIP3   OH230301   2.799   3.534   6.319 -0.8338 -0.1082 -0.4439
 2889TIP3    H130302   2.836   3.446   6.313 -0.4904  0.0042  0.0117
 2889TIP3    H230303   2.739   3.539   6.244 -2.1174 -1.3039  0.4606
 2890TIP3   OH230304   1.515   1.843   7.303 -0.5634  0.2525  0.0246
 2890TIP3    H130305   1.567   1.785   7.358 -0.7242 -0.3326 -0.4279
 2890TIP3    H230306   1.576   1.872   7.235 -1.3062 -2.1870 -1.8257
 2891TIP3   OH230307   3.154   0.013   0.885  0.4904  0.4070  0.0945
 2891TIP3    H130308   3.241   0.050   0.901  0.1003  1.2946  0.1935
 2891TIP3    H230309   3.127   0.050   0.802  0.0396  0.4335  0.2522
 2892TIP3   OH230310   5.071   5.311   0.549  0.0452  0.1222  0.4227
 2892TIP3    H130311   5.016   5.299   0.626  2.0500 -0.4539  1.8596
 2892TIP3    H230312   5.015   5.286   0.476 -2.2856  1.7549  1.5237
 2893TIP3   OH230313   5.894   0.717   6.424 -0.2160 -0.0740  0.5056
 2893TIP3    H130314   5.863   0.772   6.352 -1.3994 -0.0052  1.0408
 2893TIP3    H230315   5.982   0.751   6.444  0.1278 -0.1067 -0.8902
 2894TIP3   OH230316   4.717   0.378   1.222  0.2860 -0.3031  0.0905
 2894TIP3    H130317   4.691   0.350   1.310  0.4701  1.2061  0.6635
 2894TIP3    H230318   4.782   0.314   1.194  4.0299  1.7575  3.1264
 2895TIP3   OH230319   5.721   2.638   0.008  0.1364  0.2382  0.0197
 2895TIP3    H130320   5.709   2.714   0.066 -0.9518 -0.3476  0.5893
 2895TIP3    H230321   5.784   2.583   0.054 -0.7443 -0.2387  0.6971
 2896TIP3   OH230322   4.265   0.554   7.537 -0.0468 -0.1172 -0.8090
 2896TIP3    H130323   4.242   0.541   7.629 -0.9072  1.0498 -0.8448
 2896TIP3    H230324   4.319   0.478   7.516  0.2542 -0.3578  0.6829
 2897TIP3   OH230325   5.821   5.859   6.684  0.5581  0.1393  0.0854
 2897TIP3    H130326   5.757   5.800   6.724 -0.6821  1.7841  0.6086
 2897TIP3    H230327   5.904   5.835   6.725 -0.3101  0.2558  2.0070
 2898TIP3   OH230328   0.151   2.914   7.268  0.5370 -0.8710  0.3119
 2898TIP3    H130329   0.102   2.961   7.200 -1.3836  0.2557  2.3111
 2898TIP3    H230330   0.087   2.853   7.305  0.2609  1.0165  3.3689
 2899TIP3   OH230331   6.330   2.697   6.091 -0.4366  0.5548 -0.0391
 2899TIP3    H130332   6.313   2.787   6.119 -1.7117  0.4486 -0.4143
 2899TIP3    H230333   6.412   2.702   6.042 -0.9446  1.6905 -0.8077
 2900TIP3   OH230334   0.897   2.241   1.820 -0.0799  0.0671  0.7312
 2900TIP3    H130335   0.901   2.267   1.912  1.5547  1.4175  0.3282
 2900TIP3    H230336   0.893   2.323   1.772 -0.0157 -0.5933 -0.4445
 2901TIP3   OH230337   5.202   0.796   0.937 -0.4083  0.1214 -0.2937
 2901TIP3    H130338   5.161   0.793   0.851 -1.3617 -0.3990  0.1695
 2901TIP3    H230339   5.205   0.705   0.966 -2.5539  0.4967  1.3501
 2902TIP3   OH230340   6.357   0.736   6.031 -0.5561  0.3708  0.4689
 2902TIP3    H130341   6.412   0.804   6.069 -1.0178  0.7533  0.4610
 2902TIP3    H230342   6.270   0.753   6.065 -0.7747  0.0904  0.0634
 2903TIP3   OH230343   3.841   6.326   5.750  0.4122 -0.1942 -0.6866
 2903TIP3    H130344   3.795   6.296   5.828 -1.6574  3.0316 -0.4576
 2903TIP3    H230345   3.784   6.300   5.677  0.1191  0.4754 -0.7114
 2904TIP3   OH230346   3.799   1.503   0.328  0.6065 -0.2792 -0.0165
 2904TIP3    H130347   3.712   1.535   0.306  1.2181  1.1879 -0.4349
 2904TIP3    H230348   3.821   1.441   0.258  0.1565 -0.1768 -0.2496
 2905TIP3   OH230349   2.944   3.480   1.520  0.0585  0.3333 -0.0120
 2905TIP3    H130350   2.988   3.521   1.594  0.4025 -0.1608  0.0615
 2905TIP3    H230351   2.921   3.553   1.462 -3.1635  1.1679  2.0497
 2906TIP3   OH230352   3.522   1.632   0.047 -0.1193 -0.6585 -0.0454
 2906TIP3    H130353   3.497   1.586   0.127 -1.3879  0.0664  0.0073
 2906TIP3    H230354   3.473   1.714   0.051  0.4548 -0.2432 -1.1628
 2907TIP3   OH230355   2.190   3.135   6.261  0.5041 -0.3916 -0.4428
 2907TIP3    H130356   2.144   3.120   6.344  1.7597  0.7143  0.4940
 2907TIP3    H230357   2.128   3.107   6.194 -1.0690 -0.0642  0.8178
 2908TIP3   OH230358   3.851   6.605   2.002 -0.6324 -0.4536  0.0483
 2908TIP3    H130359   3.895   6.521   1.995  2.4253  1.0574 -0.8744
 2908TIP3    H230360   3.866   6.633   2.092  0.7047  0.1940 -0.3461
 2909TIP3   OH230361   6.878   4.018   6.588  0.1065 -0.3440 -0.1223
 2909TIP3    H130362   6.886   3.926   6.615 -0.2562 -0.3031  0.1305
 2909TIP3    H230363   6.966   4.053   6.600  0.3976 -0.8184 -0.8224
 2910TIP3   OH230364   1.566   3.300   7.106  0.2145 -0.7237  0.4330
 2910TIP3    H130365   1.610   3.265   7.029  3.3897  1.5807  0.9894
 2910TIP3    H230366   1.481   3.255   7.108  0.7933 -2.3228 -3.1949
 2911TIP3   OH230367   2.613   5.680   1.297  0.2345  0.0471  0.1938
 2911TIP3    H130368   2.680   5.737   1.260  1.1124 -0.3633  1.1102
 2911TIP3    H230369   2.605   5.708   1.388 -1.9116  1.0608 -0.2588
 2912TIP3   OH230370   4.046   5.889   7.152  0.3013  0.9335  0.1944
 2912TIP3    H130371   4.087   5.945   7.218 -0.2303  2.1648 -0.4751
 2912TIP3    H230372   3.954   5.884   7.177  0.0420  1.6233 -0.5691
 2913TIP3   OH230373   5.816   4.878   6.047  0.2030 -0.2510  0.0849
 2913TIP3    H130374   5.821   4.789   6.010  0.3518 -0.2462  0.0938
 2913TIP3    H230375   5.895   4.922   6.016  0.1993 -0.1652  0.1957
 2914TIP3   OH230376   6.634   4.667   7.886 -0.0068  0.4004 -0.5319
 2914TIP3    H130377   6.666   4.750   7.921 -1.5980  0.5358  0.7135
 2914TIP3    H230378   6.543   4.684   7.862 -0.1979 -0.8375 -0.7731
 2915TIP3   OH230379   3.447   1.391   7.215  0.0008 -0.8434  0.3162
 2915TIP3    H130380   3.427   1.467   7.160  1.0480 -1.2125 -0.6107
 2915TIP3    H230381   3.398   1.320   7.175 -0.1150 -0.8832  0.5299
 2916TIP3   OH230382   6.299   0.401   0.271 -0.7164  0.1019  0.5583
 2916TIP3    H130383   6.243   0.479   0.271 -0.5161  0.2463  0.9021
 2916TIP3    H230384   6.285   0.362   0.358 -0.1466  0.2394  0.7171
 2917TIP3   OH230385   4.483   6.774   6.959  0.2124  0.4200 -0.0168
 2917TIP3    H130386   4.422   6.754   7.029 -0.0248  0.4148 -0.2224
 2917TIP3    H230387   4.429   6.813   6.890  0.1722 -1.0028 -0.8317
 2918TIP3   OH230388   4.942   1.488   6.297  0.0450  0.1688  0.2164
 2918TIP3    H130389   4.954   1.571   6.344  1.6011  0.7638 -1.1469
 2918TIP3    H230390   4.978   1.422   6.356 -0.4643  0.5488  0.9707
 2919TIP3   OH230391   1.627   0.800   6.484 -0.1142  0.0578 -0.2274
 2919TIP3    H130392   1.703   0.842   6.443  0.9102 -0.1356  1.3708
 2919TIP3    H230393   1.660   0.715   6.512 -0.9767 -0.0865  0.3558
 2920TIP3   OH230394   6.490   5.019   6.920 -0.1308 -0.0829 -0.3756
 2920TIP3    H130395   6.555   4.981   6.861  0.2100  2.8610 -2.0975
 2920TIP3    H230396   6.424   4.950   6.931  1.8407 -2.1790 -0.8098
 2921TIP3   OH230397   6.734   1.702   7.874  0.4793  0.9654  0.0100
 2921TIP3    H130398   6.759   1.749   7.953 -0.3699  0.6803  0.4594
 2921TIP3    H230399   6.647   1.734   7.853 -0.0043 -0.1870  0.1682
 2922TIP3   OH230400   6.442   3.575   0.744  0.0337 -0.2957  0.1018
 2922TIP3    H130401   6.391   3.512   0.693  0.7857  0.3029 -1.4881
 2922TIP3    H230402   6.483   3.631   0.678  0.6036  0.9038  1.4162
 2923TIP3   OH230403   0.417   5.209   6.370 -0.0376 -0.3046 -0.3948
 2923TIP3    H130404   0.409   5.295   6.329 -0.2743 -0.4857 -0.7335
 2923TIP3    H230405   0.508   5.183   6.353 -0.1817 -0.4504 -0.9516
 2924TIP3   OH230406   3.985   2.758   1.065  0.1527 -0.1034 -0.1034
 2924TIP3    H130407   4.043   2.702   1.117 -0.7052 -0.8578  0.0713
 2924TIP3    H230408   3.989   2.844   1.109  1.5727  0.0227 -0.4484
 2925TIP3   OH230409   5.523   4.211   5.642  0.4384  0.3870  0.0186
 2925TIP3    H130410   5.450   4.188   5.584 -0.0248 -1.0847  1.1191
 2925TIP3    H230411   5.482   4.233   5.725  1.1789  0.8796  0.2617
 2926TIP3   OH230412   6.740   6.563   6.496  0.0240  0.0927 -0.0727
 2926TIP3    H130413   6.684   6.629   6.537  0.6584  0.6222 -0.0264
 2926TIP3    H230414   6.704   6.552   6.408 -1.7185 -1.5022  0.7736
 2927TIP3   OH230415   0.134   0.991   7.278  0.0845 -0.9245 -0.1409
 2927TIP3    H130416   0.119   0.953   7.191 -2.6037 -1.9242  0.6749
 2927TIP3    H230417   0.118   0.919   7.339  0.7635  0.0606  1.2549
 2928TIP3   OH230418   6.803   5.013   1.939  0.1809  0.4541  0.5676
 2928TIP3    H130419   6.792   4.936   1.995  0.0706 -1.2032 -1.6061
 2928TIP3    H230420   6.884   4.995   1.890 -0.9997  0.6168 -1.5647
 2929TIP3   OH230421   4.995   2.347   7.477 -0.1690 -0.1417  0.2152
 2929TIP3    H130422   4.924   2.411   7.479  1.1275  1.3964  1.7294
 2929TIP3    H230423   5.075   2.401   7.483  0.9549 -1.8954  2.8854
 2930TIP3   OH230424   5.138   5.839   1.097 -0.0693  0.0491  0.0924
 2930TIP3    H130425   5.179   5.887   1.169 -0.8982  1.9568 -0.6537
 2930TIP3    H230426   5.093   5.906   1.046  0.5059 -1.2325 -2.2396
 2931TIP3   OH230427   3.783   0.843   0.213  0.3863  0.4544 -0.0742
 2931TIP3    H130428   3.807   0.856   0.121 -0.6336 -3.1096 -0.9924
 2931TIP3    H230429   3.867   0.843   0.260  1.0506  0.7076 -1.2374
 2932TIP3   OH230430   4.784   4.202   0.957 -0.3959  0.0572  0.2822
 2932TIP3    H130431   4.752   4.118   0.988 -0.9530  0.1406 -0.0541
 2932TIP3    H230432   4.863   4.218   1.008 -0.3012 -0.6556  0.3684
 2933TIP3   OH230433   6.390   1.247   7.444 -0.1978  0.0525 -0.0794
 2933TIP3    H130434   6.453   1.221   7.377 -0.5505  0.7686 -0.7055
 2933TIP3    H230435   6.306   1.211   7.413  0.0312 -1.7190  1.2253
 2934TIP3   OH230436   2.066   6.173   6.987  0.4657 -0.4144  0.2004
 2934TIP3    H130437   2.007   6.128   7.048  0.7365  0.2287  0.9481
 2934TIP3    H230438   2.030   6.262   6.981  1.4611  0.0558  0.8353
 2935TIP3   OH230439   5.006   3.424   7.599  0.1555  0.7956 -0.7365
 2935TIP3    H130440   4.997   3.363   7.526  0.7972  1.2543 -1.2161
 2935TIP3    H230441   4.917   3.443   7.626 -0.0560 -0.1606 -0.7485
 2936TIP3   OH230442   0.310   2.480   6.187  0.1633  0.3801  0.1381
 2936TIP3    H130443   0.312   2.473   6.091 -3.1262 -0.9533  0.0343
 2936TIP3    H230444   0.295   2.391   6.217 -3.5158  1.2719  1.4909
 2937TIP3   OH230445   4.818   0.931   6.179 -0.3288  0.1809 -0.2113
 2937TIP3    H130446   4.833   0.919   6.085  0.4563 -1.8147  0.1115
 2937TIP3    H230447   4.869   1.008   6.203  2.8659 -1.6171 -0.7207
 2938TIP3   OH230448   4.256   6.932   7.646 -0.1748 -0.4556 -0.7540
 2938TIP3    H130449   4.291   6.846   7.671  2.5077  0.0325 -2.3753
 2938TIP3    H230450   4.308   6.958   7.570 -2.1119  1.8569 -1.4249
 2939TIP3   OH230451   1.491   5.555   7.238  0.0697  0.5116  0.4363
 2939TIP3    H130452   1.524   5.476   7.196 -0.2668  0.7749 -0.3331
 2939TIP3    H230453   1.420   5.525   7.295  0.3032  0.1967  0.5605
 2940TIP3   OH230454   2.786   6.393   0.284  0.2791 -0.8855 -0.3136
 2940TIP3    H130455   2.837   6.426   0.357 -0.4195 -1.7566  0.6025
 2940TIP3    H230456   2.845   6.336   0.236  0.0103 -2.4820  1.1624
 2941TIP3   OH230457   2.410   6.224   6.589 -0.0592  0.0378 -0.7860
 2941TIP3    H130458   2.361   6.229   6.671  1.8653 -0.6246  0.4717
 2941TIP3    H230459   2.435   6.315   6.571 -0.3994  0.1724 -0.5900
 2942TIP3   OH230460   2.312   6.671   0.725  0.7254  0.1031 -0.1232
 2942TIP3    H130461   2.229   6.711   0.752  1.3364  0.5199  1.2793
 2942TIP3    H230462   2.354   6.738   0.671  0.9911  0.7034  0.8016
 2943TIP3   OH230463   0.751   0.697   2.115 -0.5974  0.4079  0.0682
 2943TIP3    H130464   0.716   0.696   2.205 -0.1334 -2.9535  0.3495
 2943TIP3    H230465   0.832   0.746   2.121 -1.4176  1.7049  1.0826
 2944TIP3   OH230466   4.980   1.566   7.997 -0.1862  0.6135  0.1986
 2944TIP3    H130467   5.067   1.541   8.029 -0.0169 -1.7527 -1.8162
 2944TIP3    H230468   4.993   1.654   7.961  1.1144  0.7328  0.8871
 2945TIP3   OH230469   3.595   0.930   7.498  0.3117 -0.8180  0.4472
 2945TIP3    H130470   3.645   0.867   7.446  2.8449 -0.6469  2.4898
 2945TIP3    H230471   3.574   0.884   7.579  0.6401  0.3571  1.2333
 2946TIP3   OH230472   3.913   6.464   0.105 -0.3427 -0.2397  0.2194
 2946TIP3    H130473   3.922   6.504   0.019 -1.2741  0.4927  0.4513
 2946TIP3    H230474   3.821   6.475   0.128 -0.9264 -3.4966 -0.1413
 2947TIP3   OH230475   5.832   5.218   5.924  0.0616 -0.1142  0.3682
 2947TIP3    H130476   5.860   5.138   5.879 -0.7254 -0.7150  0.9204
 2947TIP3    H230477   5.858   5.289   5.865  1.3854 -0.7163  0.1833
 2948TIP3   OH230478   1.516   2.859   0.785 -0.4681  0.4247  0.1885
 2948TIP3    H130479   1.526   2.953   0.801  1.4679  0.1601  0.8430
 2948TIP3    H230480   1.598   2.821   0.816 -0.1442 -1.2003 -2.3422
 2949TIP3   OH230481   6.098   6.247   6.487  0.0901  0.3551  0.1014
 2949TIP3    H130482   6.192   6.262   6.487  0.2643 -0.4734 -1.8174
 2949TIP3    H230483   6.082   6.189   6.412 -1.6197 -1.7395  1.9192
 2950TIP3   OH230484   4.835   6.224   6.459 -0.2577 -0.4892 -1.0939
 2950TIP3    H130485   4.828   6.208   6.365  1.4660  0.0839 -1.3730
 2950TIP3    H230486   4.776   6.298   6.475 -1.0269 -0.9798 -1.5969
 2951TIP3   OH230487   3.816   6.135   0.280  0.1701 -0.2034  0.7027
 2951TIP3    H130488   3.864   6.171   0.206  0.3066  0.7105  1.2124
 2951TIP3    H230489   3.869   6.061   0.310 -0.4370 -1.2775 -0.7579
 2952TIP3   OH230490   2.345   1.088   0.999  0.2268  0.2620  0.3394
 2952TIP3    H130491   2.298   1.156   1.047 -2.3151 -0.5773 -0.8199
 2952TIP3    H230492   2.363   1.020   1.064 -3.2192 -0.8883  0.2837
 2953TIP3   OH230493   0.832   3.384   1.591  0.0113  0.1751  0.0448
 2953TIP3    H130494   0.877   3.338   1.520  0.5835 -1.1560  1.2176
 2953TIP3    H230495   0.819   3.317   1.658 -2.3422  0.8903  0.3954
 2954TIP3   OH230496   2.896   0.707   0.740  0.5152  0.1909 -0.1090
 2954TIP3    H130497   2.980   0.716   0.696  0.3184  2.2348 -0.1483
 2954TIP3    H230498   2.918   0.673   0.827  1.3323  0.2126 -0.3044
 2955TIP3   OH230499   4.055   0.305   6.154 -0.2755 -0.0804  0.2513
 2955TIP3    H130500   3.964   0.306   6.122  0.2075 -1.0004 -1.2570
 2955TIP3    H230501   4.095   0.382   6.115 -0.4035  0.3493  0.9523
 2956TIP3   OH230502   4.616   0.195   6.054 -0.2708  0.7521 -0.0836
 2956TIP3    H130503   4.569   0.117   6.025  1.8997 -0.4578 -0.5955
 2956TIP3    H230504   4.614   0.253   5.978  0.3902  0.0519 -0.6472
 2957TIP3   OH230505   7.106   1.174   7.475 -0.0356  0.5339 -0.1600
 2957TIP3    H130506   7.164   1.221   7.415  0.7449  1.2065  1.0671
 2957TIP3    H230507   7.102   1.230   7.553  0.4265 -1.1449  1.1202
 2958TIP3   OH230508   0.723   2.282   0.229  0.1253 -0.7907  0.1090
 2958TIP3    H130509   0.819   2.284   0.223  0.0695  1.2168 -0.8933
 2958TIP3    H230510   0.697   2.216   0.165  0.8314 -1.7927  0.8115
 2959TIP3   OH230511   4.402   0.373   0.424  0.0584 -0.1872  0.5983
 2959TIP3    H130512   4.436   0.333   0.344 -1.2103  0.6357 -0.3932
 2959TIP3    H230513   4.354   0.303   0.468  0.5811 -0.5868  0.5405
 2960TIP3   OH230514   6.522   4.209   5.821 -0.0871 -0.5684 -0.0805
 2960TIP3    H130515   6.564   4.253   5.896 -0.1656 -0.0301 -0.3435
 2960TIP3    H230516   6.585   4.219   5.750 -0.0299 -1.0481 -0.1000
 2961TIP3   OH230517   3.346   1.607   7.430 -0.1562  0.6462 -0.8397
 2961TIP3    H130518   3.375   1.528   7.385 -0.9013  0.8918 -1.7897
 2961TIP3    H230519   3.255   1.589   7.453  0.1255  0.6485  0.3142
 2962TIP3   OH230520   5.623   1.053   0.438  0.5881  0.0786  0.3866
 2962TIP3    H130521   5.562   1.125   0.455 -0.8595 -0.7419 -1.0141
 2962TIP3    H230522   5.694   1.093   0.387  0.1880  0.6581  0.2746
 2963TIP3   OH230523   4.207   7.158   1.052 -0.5368  0.0046 -0.8242
 2963TIP3    H130524   4.223   7.197   1.138 -0.1488  0.0999 -0.9360
 2963TIP3    H230525   4.172   7.230   1.000 -0.3173  0.0698 -0.8821
 2964TIP3   OH230526   4.790   6.965   1.261 -0.2573 -0.4262 -0.0143
 2964TIP3    H130527   4.737   6.976   1.182 -0.4839  0.0636  0.1989
 2964TIP3    H230528   4.866   7.020   1.246 -1.3141  1.4265  0.9881
 2965TIP3   OH230529   0.432   4.847   1.712  0.4007  0.2562 -0.3398
 2965TIP3    H130530   0.477   4.846   1.796  0.0772  1.0797 -0.1442
 2965TIP3    H230531   0.439   4.938   1.682 -0.8839  0.3478 -0.4223
 2966TIP3   OH230532   2.142   0.258   0.757  0.5835 -0.0869  0.3782
 2966TIP3    H130533   2.180   0.247   0.844 -0.1930  0.1214  0.7495
 2966TIP3    H230534   2.062   0.309   0.771 -0.3552 -1.3341 -0.2659
 2967TIP3   OH230535   3.953   5.480   0.608 -0.3646  0.0161 -0.1275
 2967TIP3    H130536   3.917   5.413   0.551 -1.4777  1.8635 -1.7297
 2967TIP3    H230537   3.891   5.485   0.681  1.0988 -2.4001  1.3825
 2968TIP3   OH230538   0.883   2.002   0.903 -0.1033  0.2193  0.7659
 2968TIP3    H130539   0.809   2.013   0.962 -0.3224 -1.0829  0.7672
 2968TIP3    H230540   0.853   1.937   0.838  1.6210 -1.7970  1.8707
 2969TIP3   OH230541   6.588   4.993   6.269  0.1936 -0.3486  0.1404
 2969TIP3    H130542   6.501   4.955   6.267 -0.1357  0.3554 -2.0929
 2969TIP3    H230543   6.621   4.981   6.180  2.0392  0.1656  0.7114
 2970TIP3   OH230544   3.984   4.307   6.905  0.4749  0.2187  0.2509
 2970TIP3    H130545   4.004   4.370   6.836  0.0572 -0.6959 -0.7436
 2970TIP3    H230546   3.941   4.358   6.973 -1.2046  0.8037 -1.1593
 2971TIP3   OH230547   1.786   1.017   0.977  0.6329 -0.0005 -0.1847
 2971TIP3    H130548   1.703   1.065   0.978  1.1827  0.9607  0.6716
 2971TIP3    H230549   1.761   0.927   1.001 -0.5837 -0.5346 -3.0497
 2972TIP3   OH230550   3.510   0.726   6.386  0.3809  0.1273  1.4456
 2972TIP3    H130551   3.429   0.701   6.430  0.7755  0.2949  2.3111
 2972TIP3    H230552   3.509   0.821   6.385 -0.2746  0.1194 -0.2021
 2973TIP3   OH230553   4.958   0.791   7.038 -0.0750 -0.2021 -0.5114
 2973TIP3    H130554   5.001   0.870   7.070  1.2433 -1.1021  0.0102
 2973TIP3    H230555   5.029   0.729   7.024 -0.9407 -0.8791 -2.1936
 2974TIP3   OH230556   0.922   1.836   6.046  1.1981 -0.2592 -0.1975
 2974TIP3    H130557   0.966   1.756   6.018  0.0571 -1.0455  0.1864
 2974TIP3    H230558   0.986   1.906   6.031  2.2308 -1.2491 -0.4736
 2975TIP3   OH230559   6.337   5.363   6.555  0.4430 -0.4070 -0.1308
 2975TIP3    H130560   6.372   5.348   6.643 -1.3103 -1.1413  0.4777
 2975TIP3    H230561   6.404   5.416   6.511  1.8618 -0.9754  1.2632
 2976TIP3   OH230562   3.871   6.880   0.141 -0.2922 -0.6438 -0.3043
 2976TIP3    H130563   3.910   6.838   0.217 -0.4964 -0.1532  0.0712
 2976TIP3    H230564   3.942   6.882   0.076 -0.5492 -2.4546 -0.7014
 2977TIP3   OH230565   4.485   3.734   7.146 -0.2260  0.1285  0.5453
 2977TIP3    H130566   4.548   3.781   7.091 -0.1077 -0.1807  0.4178
 2977TIP3    H230567   4.469   3.793   7.220 -0.3854  0.5479  0.1822
 2978TIP3   OH230568   3.391   3.476   5.993 -0.5522  0.2876  0.1588
 2978TIP3    H130569   3.344   3.549   6.033 -0.9836 -0.0554  0.2841
 2978TIP3    H230570   3.332   3.443   5.926 -0.1854  0.3114 -0.1837
 2979TIP3   OH230571   5.469   2.501   7.324 -0.2465 -0.9264 -0.3620
 2979TIP3    H130572   5.458   2.541   7.238  2.9703 -0.2632 -0.6155
 2979TIP3    H230573   5.484   2.408   7.306  1.2504 -0.6535 -0.6657
 2980TIP3   OH230574   0.744   0.227   7.567  0.8658 -0.4323  0.0978
 2980TIP3    H130575   0.739   0.317   7.598  0.5719 -0.0010 -1.1567
 2980TIP3    H230576   0.834   0.200   7.584  1.3472  0.5751 -0.7755
 2981TIP3   OH230577   2.303   5.148   6.682 -0.3798  0.0611  0.1094
 2981TIP3    H130578   2.278   5.237   6.705  2.2634  0.6553  0.9221
 2981TIP3    H230579   2.398   5.145   6.692 -0.3429 -2.7914 -0.1409
 2982TIP3   OH230580   6.426   7.007   1.354  0.0314 -0.5634  0.1447
 2982TIP3    H130581   6.510   6.992   1.310 -0.5123 -1.4796 -0.6170
 2982TIP3    H230582   6.423   6.940   1.422  0.4570  0.2682  1.0101
 2983TIP3   OH230583   0.247   5.719   5.601  0.4344 -0.0880  0.2502
 2983TIP3    H130584   0.342   5.728   5.591  0.3165  0.8170 -0.1185
 2983TIP3    H230585   0.237   5.650   5.667  1.3332 -0.7238 -0.2535
 2984TIP3   OH230586   5.894   5.402   5.750 -0.4539 -0.0667  0.4440
 2984TIP3    H130587   5.964   5.468   5.748  1.0511 -1.5543 -1.9055
 2984TIP3    H230588   5.817   5.448   5.717 -0.2002  1.1813  1.4945
 2985TIP3   OH230589   0.668   2.323   1.374 -0.0593 -0.0150  0.5206
 2985TIP3    H130590   0.687   2.243   1.422 -1.6896 -1.1538 -0.5998
 2985TIP3    H230591   0.702   2.307   1.286  0.0751  0.7483  0.4266
 2986TIP3   OH230592   6.375   4.714   7.805 -0.2302  0.0370 -0.2819
 2986TIP3    H130593   6.399   4.685   7.717 -0.8817 -1.6454  0.0670
 2986TIP3    H230594   6.280   4.700   7.810 -0.2942  0.6732  0.4927
 2987TIP3   OH230595   0.472   4.191   0.931 -0.5869  0.0878 -0.3076
 2987TIP3    H130596   0.455   4.223   1.020 -0.1357 -1.5481  0.3986
 2987TIP3    H230597   0.567   4.187   0.925 -0.6318 -0.9973 -0.4075
 2988TIP3   OH230598   7.097   1.411   7.636 -0.4086  0.0224 -0.6976
 2988TIP3    H130599   7.181   1.426   7.594  0.3221 -0.2656  0.6124
 2988TIP3    H230600   7.052   1.495   7.629  0.2916  0.4001 -0.7686
 2989TIP3   OH230601   0.598   5.356   7.253 -0.4681 -0.6637  0.5504
 2989TIP3    H130602   0.557   5.426   7.203  1.2115 -0.0473 -0.0494
 2989TIP3    H230603   0.625   5.397   7.335 -0.8206 -1.0031  0.8436
 2990TIP3   OH230604   2.093   2.631   2.129  0.7291  0.5472  0.5633
 2990TIP3    H130605   2.044   2.560   2.171 -0.2858  0.6370 -0.4069
 2990TIP3    H230606   2.175   2.591   2.102  0.4500 -0.0902  0.6388
 2991TIP3   OH230607   7.056   6.304   6.172  0.1791  0.5895  0.2626
 2991TIP3    H130608   7.110   6.225   6.177  0.1128  0.5618  0.5407
 2991TIP3    H230609   7.108   6.365   6.120 -0.0170  0.1627 -0.4495
 2992TIP3   OH230610   6.881   2.413   5.696  0.3120 -0.0543  0.1917
 2992TIP3    H130611   6.810   2.457   5.742 -0.2504 -0.9221  0.1721
 2992TIP3    H230612   6.922   2.481   5.644 -1.4257  0.1739 -0.9446
 2993TIP3   OH230613   3.774   4.259   6.473  0.0043 -0.5356  0.5572
 2993TIP3    H130614   3.808   4.335   6.425 -0.7657  0.3430  1.3725
 2993TIP3    H230615   3.690   4.240   6.432  1.4298 -2.8780 -1.6371
 2994TIP3   OH230616   1.801   4.102   0.979 -1.0068  0.2936  0.3783
 2994TIP3    H130617   1.830   4.155   1.053 -0.6061 -0.0280  0.4563
 2994TIP3    H230618   1.812   4.011   1.008  1.3659  0.1030 -0.8525
 2995TIP3   OH230619   1.621   0.360   7.871 -0.6670  0.0378 -0.2637
 2995TIP3    H130620   1.566   0.421   7.822  0.6590  1.1116 -0.4726
 2995TIP3    H230621   1.577   0.276   7.863 -1.6984  0.6553 -1.3301
 2996TIP3   OH230622   5.002   0.468   7.409 -0.2271  0.0735  0.3192
 2996TIP3    H130623   4.926   0.522   7.384  0.0162  0.9185  1.3176
 2996TIP3    H230624   4.991   0.454   7.503  0.6739 -0.0968  0.4013
 2997TIP3   OH230625   5.769   4.520   6.938  0.3100  0.1102  0.1171
 2997TIP3    H130626   5.746   4.482   7.022 -2.5207  1.6307  0.1398
 2997TIP3    H230627   5.776   4.614   6.954  0.7527  0.3266 -1.1586
 2998TIP3   OH230628   6.508   0.835   0.120 -0.1607  0.3015 -0.3124
 2998TIP3    H130629   6.486   0.836   0.027 -0.6102 -0.2520 -0.2146
 2998TIP3    H230630   6.480   0.920   0.153  1.5026  1.1718 -1.0154
 2999TIP3   OH230631   0.969   0.188   0.222 -0.0662 -0.4359 -0.0297
 2999TIP3    H130632   0.990   0.279   0.201 -1.4767  0.7277  3.0201
 2999TIP3    H230633   0.911   0.160   0.151  0.1320  1.1130 -0.8462
 3000TIP3   OH230634   5.185   0.205   5.689 -0.0525 -0.9233 -0.4667
 3000TIP3    H130635   5.162   0.113   5.700  0.0069 -0.7596  1.3120
 3000TIP3    H230636   5.272   0.204   5.649  0.9361 -1.7090  1.5814
 3001TIP3   OH230637   2.966   5.112   6.702  0.2549  0.0595  0.5536
 3001TIP3    H130638   2.892   5.087   6.758  0.0776 -0.2136  0.2008
 3001TIP3    H230639   3.034   5.140   6.763  0.6057 -1.6308  0.9927
 3002TIP3   OH230640   3.429   3.084   6.407 -0.9282 -0.0372 -0.7540
 3002TIP3    H130641   3.414   2.992   6.425 -0.0416 -0.2768 -1.1773
 3002TIP3    H230642   3.360   3.109   6.346  0.2141 -1.0616 -2.5480
 3003TIP3   OH230643   6.531   3.133   7.264 -0.6153 -0.2938  0.5144
 3003TIP3    H130644   6.550   3.190   7.338 -1.0314 -1.5868  1.6568
 3003TIP3    H230645   6.462   3.075   7.295 -1.7930  0.0138 -1.3644
 3004TIP3   OH230646   0.190   7.154   6.986  0.5061 -0.0249  0.4476
 3004TIP3    H130647   0.223   7.144   6.896 -0.1068 -0.2509  0.2430
 3004TIP3    H230648   0.252   7.105   7.039 -0.1377 -1.4756 -0.0747
 3005TIP3   OH230649   4.747   1.131   1.330 -0.5685  0.0133  0.2768
 3005TIP3    H130650   4.699   1.076   1.269 -0.3672  0.2232 -0.0789
 3005TIP3    H230651   4.688   1.204   1.349 -0.4776  0.1573  0.0120
 3006TIP3   OH230652   5.172   6.277   7.053  0.2169  0.7699 -0.4362
 3006TIP3    H130653   5.219   6.321   7.125  1.8718  0.9479 -1.5716
 3006TIP3    H230654   5.149   6.348   6.993 -2.0838  0.7617  0.3515
 3007TIP3   OH230655   0.505   3.858   5.999 -0.2631 -0.8960 -0.0595
 3007TIP3    H130656   0.505   3.925   5.930  1.9859 -0.5764  0.1506
 3007TIP3    H230657   0.485   3.906   6.079  1.0995 -0.4466  0.0523
 3008TIP3   OH230658   1.521   0.622   7.394 -1.0829  0.3626 -0.3477
 3008TIP3    H130659   1.516   0.636   7.299 -1.1410  0.6136 -0.3077
 3008TIP3    H230660   1.508   0.528   7.405 -2.4965  0.5203 -0.4960
 3009TIP3   OH230661   3.381   4.226   0.068 -0.9194 -0.1978  0.4140
 3009TIP3    H130662   3.458   4.205   0.121 -2.5932 -1.2895  2.5974
 3009TIP3    H230663   3.413   4.227  -0.022  1.4109 -1.7270  1.1367
 3010TIP3   OH230664   3.473   1.501   6.730 -0.0453 -0.4604  0.3120
 3010TIP3    H130665   3.515   1.575   6.689  0.5025  1.0372  3.2831
 3010TIP3    H230666   3.540   1.463   6.788 -1.0902 -1.6004  0.8468
 3011TIP3   OH230667   1.592   6.993   5.951  0.2736 -0.0414  0.6223
 3011TIP3    H130668   1.638   7.076   5.967  1.9819 -1.0764  1.3425
 3011TIP3    H230669   1.647   6.946   5.889 -3.0721  1.2271 -3.8218
 3012TIP3   OH230670   6.702   1.666   7.019  0.6324 -0.2619 -0.5242
 3012TIP3    H130671   6.679   1.694   6.930  1.6104 -0.6673 -0.9171
 3012TIP3    H230672   6.665   1.578   7.026  0.5740 -0.2384 -0.5318
 3013TIP3   OH230673   5.861   5.268   6.573  0.5261  0.0872 -0.1565
 3013TIP3    H130674   5.862   5.340   6.636 -1.8776 -0.5214  0.6510
 3013TIP3    H230675   5.905   5.304   6.496  0.5952  1.9513  0.6927
 3014TIP3   OH230676   6.359   4.438   6.830 -0.3124 -0.5221  0.0506
 3014TIP3    H130677   6.303   4.515   6.818 -2.2953 -1.9519 -0.3121
 3014TIP3    H230678   6.361   4.397   6.743  0.6963 -0.9085  0.2471
 3015TIP3   OH230679   1.844   2.976   0.709 -0.3807  0.5870 -0.1335
 3015TIP3    H130680   1.932   2.941   0.692  1.5884  3.4234  3.0684
 3015TIP3    H230681   1.839   3.055   0.655 -1.6509 -0.3069 -1.3984
 3016TIP3   OH230682   4.794   2.520   6.490  0.3039 -0.5292  0.4006
 3016TIP3    H130683   4.831   2.595   6.444 -0.9174 -0.2057 -0.0987
 3016TIP3    H230684   4.791   2.547   6.582 -3.1857  1.4497 -0.1209
 3017TIP3   OH230685   0.224   6.755   0.198  0.0300  0.3944 -0.1577
 3017TIP3    H130686   0.319   6.759   0.182  0.4193 -0.6950  1.5295
 3017TIP3    H230687   0.203   6.841   0.235  0.2740  0.7802 -0.8994
 3018TIP3   OH230688   7.118   1.806   7.707 -0.1012 -0.0539 -0.0644
 3018TIP3    H130689   7.074   1.830   7.626 -2.0397  0.4240  1.0536
 3018TIP3    H230690   7.169   1.883   7.731 -0.9497  0.4737  0.0717
 3019TIP3   OH230691   0.015   2.716   7.373 -0.3268 -0.0767 -0.5804
 3019TIP3    H130692  -0.077   2.741   7.387 -0.5181 -1.1627  0.2845
 3019TIP3    H230693   0.028   2.641   7.432  1.1695  0.1772 -0.5611
 3020TIP3   OH230694   6.458   7.024   7.866 -0.2881 -0.3310  0.6612
 3020TIP3    H130695   6.463   7.117   7.843 -1.0325 -0.3847  0.2519
 3020TIP3    H230696   6.433   7.024   7.958 -2.2719 -0.1055  0.1699
 3021TIP3   OH230697   4.549   5.144   7.016  0.1406 -0.4637  0.1734
 3021TIP3    H130698   4.568   5.224   7.065  1.8048 -2.1301  2.4621
 3021TIP3    H230699   4.454   5.140   7.012 -0.0859 -0.0321  3.0420
 3022TIP3   OH230700   1.186   5.324   6.428  0.1423  0.2313 -0.0192
 3022TIP3    H130701   1.242   5.248   6.411  0.5428  0.7977 -1.3633
 3022TIP3    H230702   1.223   5.393   6.374 -1.3218  0.8732 -0.2412
 3023TIP3   OH230703   1.549   1.567   6.927  0.3361  0.0656 -0.4167
 3023TIP3    H130704   1.464   1.542   6.891 -1.5234  3.5649  1.0749
 3023TIP3    H230705   1.582   1.488   6.970 -2.0340 -1.4292 -1.1842
 3024TIP3   OH230706   2.201   1.583   1.761  0.5145 -0.3702 -0.2343
 3024TIP3    H130707   2.226   1.501   1.803  2.0870  0.6446  0.9319
 3024TIP3    H230708   2.262   1.647   1.796 -1.9077  1.7218  0.3937
 3025TIP3   OH230709   1.868   3.103   6.548 -0.2217 -0.2045 -0.2531
 3025TIP3    H130710   1.858   3.176   6.487  0.5058  0.3721  0.3142
 3025TIP3    H230711   1.931   3.133   6.613 -0.1495 -1.2202  0.1709
 3026TIP3   OH230712   5.161   3.991   1.149  0.7082 -0.3596  0.0111
 3026TIP3    H130713   5.088   4.046   1.120  0.3975 -1.3253 -1.1316
 3026TIP3    H230714   5.220   4.051   1.195 -0.3591  0.6117  0.1582
 3027TIP3   OH230715   6.552   0.552   0.923 -0.5031  0.2529  0.0816
 3027TIP3    H130716   6.505   0.470   0.905 -0.6729  0.3883 -0.0994
 3027TIP3    H230717   6.545   0.602   0.841  3.1490 -1.2264 -1.3960
 3028TIP3   OH230718   1.695   3.324   5.987  0.0575 -0.3278 -0.2265
 3028TIP3    H130719   1.625   3.259   5.982  1.1176 -1.4579 -1.0755
 3028TIP3    H230720   1.731   3.327   5.898  1.6187 -0.3875  0.3791
 3029TIP3   OH230721   6.659   7.011   1.176 -0.1212 -0.0413 -0.5286
 3029TIP3    H130722   6.701   7.027   1.260  2.0381 -0.0577 -1.5378
 3029TIP3    H230723   6.731   6.990   1.116 -1.4499  0.9977 -2.6302
 3030TIP3   OH230724   1.089   6.482   6.964  0.0518 -0.1020 -0.2449
 3030TIP3    H130725   1.138   6.445   6.890 -1.1763 -0.6257 -0.8310
 3030TIP3    H230726   1.064   6.406   7.016 -0.1065  0.1630  0.0660
 3031TIP3   OH230727   6.188   5.719   2.103  0.0108 -0.4261  0.0637
 3031TIP3    H130728   6.185   5.668   2.021 -1.5116 -1.4800  0.7325
 3031TIP3    H230729   6.164   5.656   2.171  0.8699  0.5316  1.2887
 3032TIP3   OH230730   5.833   6.959   1.140 -0.7484  0.2510 -0.0437
 3032TIP3    H130731   5.782   7.039   1.153 -1.8416 -0.5502  0.7598
 3032TIP3    H230732   5.806   6.901   1.211 -1.7857 -1.7339 -1.9444
 3033TIP3   OH230733   3.737   6.301   6.746 -0.5812 -0.4492 -0.4236
 3033TIP3    H130734   3.797   6.234   6.713 -1.1949 -1.5889  0.6728
 3033TIP3    H230735   3.756   6.378   6.694  0.1565 -1.4787 -1.7380
 3034TIP3   OH230736   2.580   2.007   7.253 -0.1842  0.6777 -0.6168
 3034TIP3    H130737   2.612   2.061   7.326  0.2188 -0.2174 -0.1136
 3034TIP3    H230738   2.489   2.034   7.241 -0.1222  1.1489 -0.0739
 3035TIP3   OH230739   6.872   1.051   0.361 -0.4690 -0.3589 -0.2106
 3035TIP3    H130740   6.885   1.116   0.429 -1.8014 -0.2579 -0.0211
 3035TIP3    H230741   6.884   1.098   0.279 -1.1326  0.0579 -0.0703
 3036TIP3   OH230742   2.393   2.066   7.535 -0.0096 -0.2830 -0.7484
 3036TIP3    H130743   2.348   2.063   7.450  1.0405 -0.9019 -1.3160
 3036TIP3    H230744   2.465   2.003   7.525  0.3542 -0.0758  0.4754
 3037TIP3   OH230745   2.600   5.227   7.030 -0.9006  0.1904 -0.0248
 3037TIP3    H130746   2.677   5.175   7.006 -1.4224 -0.2255 -0.8672
 3037TIP3    H230747   2.635   5.306   7.071 -0.0967 -0.9391  1.5230
 3038TIP3   OH230748   7.192   4.484   0.887  1.1796  0.0477 -0.4090
 3038TIP3    H130749   7.253   4.420   0.923  0.3918 -0.3452  0.2678
 3038TIP3    H230750   7.123   4.432   0.846  0.2552  0.4421  0.6094
 3039TIP3   OH230751   2.861   6.920   7.728 -0.0185 -0.3444  0.5560
 3039TIP3    H130752   2.911   7.001   7.718  0.8748 -1.1007 -1.7988
 3039TIP3    H230753   2.780   6.936   7.680  0.7073 -1.1941 -1.0633
 3040TIP3   OH230754   6.879   5.119   7.011 -0.6755  0.2954  0.2621
 3040TIP3    H130755   6.851   5.207   7.040 -1.0396  0.0773  0.5851
 3040TIP3    H230756   6.823   5.100   6.936 -0.0800  0.6480 -0.2830
 3041TIP3   OH230757   3.488   5.381   0.688 -0.4205  0.0577  0.2738
 3041TIP3    H130758   3.517   5.306   0.741  0.1643 -0.0546 -0.2061
 3041TIP3    H230759   3.421   5.344   0.630  0.2965 -0.2267 -0.3812
 3042TIP3   OH230760   4.317   0.744   6.479 -0.3794 -0.5940 -0.2864
 3042TIP3    H130761   4.378   0.790   6.421 -0.4066 -1.3036 -0.8894
 3042TIP3    H230762   4.366   0.668   6.510 -0.8866 -1.0667 -0.6256
 3043TIP3   OH230763   7.040   6.796   7.546 -0.0795 -0.4562  0.1458
 3043TIP3    H130764   6.948   6.776   7.530 -0.3693  0.1448  0.9976
 3043TIP3    H230765   7.047   6.890   7.529  0.4876 -0.5759 -0.3556
 3044TIP3   OH230766   3.570   4.194   1.565 -0.0445 -0.3651  0.2863
 3044TIP3    H130767   3.487   4.163   1.601 -0.9765  0.9485 -0.6274
 3044TIP3    H230768   3.564   4.290   1.571 -0.3476 -0.0094 -3.3546
 3045TIP3   OH230769   7.030   1.325   7.888 -0.5366  0.6795 -0.4768
 3045TIP3    H130770   7.030   1.419   7.906 -0.6578  0.6209 -0.1600
 3045TIP3    H230771   7.059   1.318   7.797  0.0366  0.9904 -0.3259
 3046TIP3   OH230772   3.968   4.907   1.366 -0.1030 -0.1423 -0.4498
 3046TIP3    H130773   4.001   4.849   1.434 -0.3906  0.7043  0.4468
 3046TIP3    H230774   3.910   4.852   1.313 -0.7319 -0.5708  0.6549
 3047TIP3   OH230775   1.520   6.660   0.818  0.6080 -0.0345  0.1955
 3047TIP3    H130776   1.588   6.627   0.877  1.4815  1.9851  0.3975
 3047TIP3    H230777   1.555   6.646   0.731  0.8169  0.0485  0.2666
 3048TIP3   OH230778   6.735   2.893   0.774 -0.0570 -0.2218  0.0285
 3048TIP3    H130779   6.807   2.953   0.754  0.3449 -0.8274 -0.3590
 3048TIP3    H230780   6.684   2.938   0.842  0.7812  0.1368  0.4268
 3049TIP3   OH230781   2.049   1.222   6.342 -0.0640 -0.0568  0.0056
 3049TIP3    H130782   2.081   1.143   6.386  1.4756  0.6665  0.2813
 3049TIP3    H230783   2.091   1.220   6.256 -0.5715  0.1033 -0.2466
 3050TIP3   OH230784   0.100   6.996   6.643  0.0280  0.0554 -0.3189
 3050TIP3    H130785   0.111   7.042   6.560 -0.6495  0.8581  0.0166
 3050TIP3    H230786   0.056   6.914   6.619  0.4907 -0.0483 -0.8278
 3051TIP3   OH230787   5.138   3.433   0.810 -0.5616 -0.1672 -0.0541
 3051TIP3    H130788   5.069   3.496   0.831 -0.6474 -0.2974  0.0527
 3051TIP3    H230789   5.152   3.385   0.891 -0.9677 -0.7431 -0.3189
 3052TIP3   OH230790   6.857   0.189   5.617  0.1280 -0.5129 -0.1692
 3052TIP3    H130791   6.795   0.240   5.670 -0.2974 -0.5155 -0.6592
 3052TIP3    H230792   6.940   0.236   5.626 -0.0895 -0.1493 -0.0160
 3053TIP3   OH230793   6.853   0.802   7.448  0.4529 -0.2763 -0.2415
 3053TIP3    H130794   6.761   0.792   7.424  0.4050 -1.1396  0.2652
 3053TIP3    H230795   6.887   0.868   7.387 -0.0216 -1.3028 -1.6507
 3054TIP3   OH230796   1.885   6.211   0.399  0.1036  0.6296 -0.7360
 3054TIP3    H130797   1.793   6.236   0.404  0.4481  2.1433 -1.5489
 3054TIP3    H230798   1.930   6.268   0.462  0.5212  0.0315 -0.4782
 3055TIP3   OH230799   1.014   4.675   6.581 -0.3618 -0.2212  0.2417
 3055TIP3    H130800   1.008   4.635   6.494  0.3915 -2.2600  1.0707
 3055TIP3    H230801   0.985   4.607   6.641  1.3956  0.2935  1.7690
 3056TIP3   OH230802   5.485   6.738   7.164 -0.3596  0.1891 -0.5624
 3056TIP3    H130803   5.562   6.730   7.221 -0.0774  1.2223 -0.7717
 3056TIP3    H230804   5.517   6.717   7.077 -0.7518 -1.2171 -0.3828
 3057TIP3   OH230805   0.961   5.325   1.217 -0.2224 -0.8494 -0.0944
 3057TIP3    H130806   0.881   5.371   1.242  0.4046 -0.0551  0.5177
 3057TIP3    H230807   0.967   5.335   1.122  0.4863  1.3713  0.1263
 3058TIP3   OH230808   6.177   2.986   5.945 -0.3978  0.0848 -0.1365
 3058TIP3    H130809   6.126   3.065   5.929 -1.2853 -0.4726 -0.1794
 3058TIP3    H230810   6.127   2.917   5.901  1.8906 -0.0928 -2.7270
 3059TIP3   OH230811   5.822   5.623   0.418  0.1115 -0.0912  0.3997
 3059TIP3    H130812   5.854   5.653   0.503  0.1374  1.8512 -0.2469
 3059TIP3    H230813   5.728   5.638   0.421  0.1341  0.1366  0.0368
 3060TIP3   OH230814   4.462   4.829   0.682 -0.2327  0.5746  0.4864
 3060TIP3    H130815   4.549   4.857   0.713  1.1905 -1.4819 -1.3287
 3060TIP3    H230816   4.402   4.892   0.721  2.0671  2.1657  1.7554
 3061TIP3   OH230817   1.542   6.923   1.244  0.1853  0.0281  0.1131
 3061TIP3    H130818   1.594   6.906   1.166 -0.5619 -1.1497 -0.1585
 3061TIP3    H230819   1.591   6.883   1.316 -0.2342 -0.9363 -0.1179
 3062TIP3   OH230820   1.219   3.199   1.217  0.1820 -0.0372  0.3297
 3062TIP3    H130821   1.242   3.113   1.251 -1.8323 -0.4986  0.6714
 3062TIP3    H230822   1.123   3.202   1.222  0.1343  1.8061 -0.6942
 3063TIP3   OH230823   1.721   2.852   1.790 -0.4709 -0.0893 -0.3583
 3063TIP3    H130824   1.790   2.854   1.723 -0.3376  0.3942 -0.2090
 3063TIP3    H230825   1.644   2.821   1.743 -0.4842  0.6583 -0.8423
 3064TIP3   OH230826   4.194   1.227   0.933  0.4990  0.0073  0.2746
 3064TIP3    H130827   4.103   1.200   0.944  0.5865 -0.7260 -0.6613
 3064TIP3    H230828   4.190   1.298   0.869  0.5219  0.4844  0.7948
 3065TIP3   OH230829   0.314   7.157   6.704 -0.1972 -0.0860  0.0460
 3065TIP3    H130830   0.251   7.084   6.698 -2.4610  1.8025 -0.4970
 3065TIP3    H230831   0.387   7.129   6.650 -0.6029 -2.3198  0.5444
 3066TIP3   OH230832   2.010   4.758   7.052  0.1653 -0.0188 -0.7064
 3066TIP3    H130833   1.970   4.696   6.991 -0.1775 -0.4882 -0.0253
 3066TIP3    H230834   2.020   4.708   7.133 -0.7447  1.0019  0.0672
 3067TIP3   OH230835   7.126   1.429   5.857 -0.0311 -0.0440 -0.0058
 3067TIP3    H130836   7.144   1.434   5.951 -2.2163 -0.2851  0.4861
 3067TIP3    H230837   7.087   1.513   5.836  1.6337  0.5115 -1.0313
 3068TIP3   OH230838   3.346   4.857   0.280 -0.0078 -0.2800 -0.1567
 3068TIP3    H130839   3.270   4.901   0.242  0.0753  0.4334  0.4795
 3068TIP3    H230840   3.310   4.801   0.349  0.1070  0.7182  0.7346
 3069TIP3   OH230841   7.096   5.539   1.767  0.5642 -0.0146  0.0002
 3069TIP3    H130842   7.107   5.449   1.797  0.1581 -0.0630  0.0097
 3069TIP3    H230843   7.021   5.571   1.816  1.0322  0.5047  0.3929
 3070TIP3   OH230844   1.650   3.872   1.397 -0.1421 -0.6069 -0.1129
 3070TIP3    H130845   1.664   3.796   1.454 -2.4271 -0.7688  0.3256
 3070TIP3    H230846   1.647   3.835   1.309 -0.5353 -0.9409  0.0354
 3071TIP3   OH230847   4.186   1.934   1.560 -0.7060  0.4504  0.3927
 3071TIP3    H130848   4.243   1.993   1.610 -1.4650  2.6259 -1.1737
 3071TIP3    H230849   4.101   1.940   1.604 -1.1911  1.8266 -0.6461
 3072TIP3   OH230850   0.565   6.944   5.402 -0.2093 -0.5465 -0.5591
 3072TIP3    H130851   0.576   6.980   5.490  0.5337  0.6408 -1.1155
 3072TIP3    H230852   0.470   6.939   5.390 -0.3547 -2.1899  0.8672
 3073TIP3   OH230853   6.929   4.388   0.035 -0.0595  0.0912  0.2707
 3073TIP3    H130854   6.965   4.410  -0.050  0.9914  0.0572  0.6946
 3073TIP3    H230855   7.003   4.353   0.085 -1.0216 -1.6373  0.6040
 3074TIP3   OH230856   4.343   0.048   6.194 -0.7919 -0.2022  0.4490
 3074TIP3    H130857   4.281  -0.025   6.192 -1.8612  0.6900 -1.6790
 3074TIP3    H230858   4.407   0.026   6.125  0.5856 -0.4988  1.7699
 3075TIP3   OH230859   6.726   4.457   2.124  0.4025  0.8539  0.4640
 3075TIP3    H130860   6.799   4.478   2.181  0.1657  1.2099  0.6376
 3075TIP3    H230861   6.674   4.537   2.119  0.3235  0.7739 -0.1078
 3076TIP3   OH230862   4.590   5.796   6.866  0.1331 -0.4332 -0.0986
 3076TIP3    H130863   4.581   5.890   6.882 -2.8490 -0.4769 -1.0515
 3076TIP3    H230864   4.580   5.756   6.953 -0.6993  0.0393  0.0285
 3077TIP3   OH230865   4.849   0.172   0.400  0.2034  0.1902 -0.0652
 3077TIP3    H130866   4.791   0.110   0.354  1.0393  0.0633 -0.9804
 3077TIP3    H230867   4.794   0.210   0.468 -0.9566  0.0422 -0.8822
 3078TIP3   OH230868   6.174   0.568   0.488 -0.1519  0.1153  0.3667
 3078TIP3    H130869   6.164   0.623   0.410  1.0316 -0.0168  0.0963
 3078TIP3    H230870   6.152   0.626   0.561  0.0536  0.6479  0.0138
 3079TIP3   OH230871   2.734   2.113   1.102  0.1717 -0.4268 -0.3017
 3079TIP3    H130872   2.823   2.134   1.076  0.1369 -0.3081 -0.3262
 3079TIP3    H230873   2.691   2.198   1.114 -0.1123 -0.4762 -0.8980
 3080TIP3   OH230874   2.433   6.776   7.166  0.4928 -0.1974  0.0189
 3080TIP3    H130875   2.374   6.829   7.112  0.0108 -1.5117 -0.7630
 3080TIP3    H230876   2.515   6.825   7.166 -0.3907  1.3772  0.6667
 3081TIP3   OH230877   6.652   1.998   7.327 -0.5579  0.2671  0.0164
 3081TIP3    H130878   6.669   1.973   7.418 -0.6627  0.3469  0.0595
 3081TIP3    H230879   6.602   1.925   7.292  2.4047 -1.4065 -1.0117
 3082TIP3   OH230880   0.740   2.722   6.619 -0.4497  0.0896 -0.3670
 3082TIP3    H130881   0.755   2.641   6.570  0.1711 -0.5319  0.8116
 3082TIP3    H230882   0.699   2.781   6.556 -1.0032 -1.1702 -1.2215
 3083TIP3   OH230883   4.475   6.192   1.888  0.3768 -0.1263 -0.2757
 3083TIP3    H130884   4.419   6.241   1.947  0.2614 -2.2408  1.5016
 3083TIP3    H230885   4.534   6.257   1.850 -0.4028  1.4965  1.1907
 3084TIP3   OH230886   6.143   3.815   0.789 -0.3023 -0.3304 -0.3685
 3084TIP3    H130887   6.158   3.847   0.700 -0.2904 -0.1663 -0.3074
 3084TIP3    H230888   6.183   3.881   0.846 -1.4471  0.2488 -0.1991
 3085TIP3   OH230889   0.859   4.006   6.544  0.0189  0.3101 -0.4365
 3085TIP3    H130890   0.821   3.944   6.606  0.9391  0.2744  0.1117
 3085TIP3    H230891   0.823   3.981   6.459 -1.1015  0.2325  0.0449
 3086TIP3   OH230892   4.438   0.252   0.196 -0.0210 -0.1807  0.6615
 3086TIP3    H130893   4.476   0.192   0.132  0.4947 -0.5935  1.3460
 3086TIP3    H230894   4.359   0.209   0.227 -1.3786  0.8847 -1.1089
 3087TIP3   OH230895   3.133   3.462   7.775  0.1841 -0.5533 -0.3338
 3087TIP3    H130896   3.091   3.431   7.695 -2.5719  1.4321  0.2237
 3087TIP3    H230897   3.141   3.557   7.763  0.6428 -0.3459  1.3469
 3088TIP3   OH230898   0.897   0.953   0.547 -0.5789 -0.1018  0.3077
 3088TIP3    H130899   0.979   0.913   0.519 -0.6844  1.2702 -2.3054
 3088TIP3    H230900   0.908   1.046   0.527 -2.5447  0.2142  0.5104
 3089TIP3   OH230901   4.596   3.893   6.058  0.3973  0.1876 -0.7033
 3089TIP3    H130902   4.656   3.819   6.054  1.3567  0.9277 -0.4966
 3089TIP3    H230903   4.576   3.913   5.967  1.1516  0.4672 -0.8137
 3090TIP3   OH230904   6.274   2.991   7.251 -0.1168 -0.3372  0.3236
 3090TIP3    H130905   6.190   2.985   7.205 -0.6114 -1.9826  1.3408
 3090TIP3    H230906   6.332   2.931   7.202  0.1194 -0.1089  0.3220
 3091TIP3   OH230907   5.839   4.012   7.739 -0.5471  0.1690 -0.4963
 3091TIP3    H130908   5.797   4.013   7.825 -0.5796 -0.8248 -0.4964
 3091TIP3    H230909   5.929   4.039   7.756 -0.9565  1.5886 -0.3950
 3092TIP3   OH230910   0.357   5.014   0.943 -0.5227 -0.7947  0.3626
 3092TIP3    H130911   0.350   4.919   0.930 -0.3136 -0.6034 -1.3727
 3092TIP3    H230912   0.430   5.040   0.888 -1.6468  0.6180 -0.5139
 3093TIP3   OH230913   1.577   2.099   1.086  0.2616 -0.8435 -0.8104
 3093TIP3    H130914   1.623   2.156   1.024  0.5620  0.1784  0.3264
 3093TIP3    H230915   1.487   2.098   1.055 -0.2305  1.9631  0.2750
 3094TIP3   OH230916   6.477   3.850   6.766  0.0346 -0.2181  0.5129
 3094TIP3    H130917   6.547   3.914   6.775 -1.4596  1.4557  0.8356
 3094TIP3    H230918   6.441   3.866   6.678 -0.5777 -0.3762  0.7266
 3095TIP3   OH230919   5.897   2.311   6.839  0.8354  0.5484 -0.5845
 3095TIP3    H130920   5.803   2.292   6.842  1.1658 -1.5428 -1.7705
 3095TIP3    H230921   5.905   2.386   6.781 -0.1200  1.0963 -0.0370
 3096TIP3   OH230922   0.141   0.125   6.507  0.2007  0.0689  0.6328
 3096TIP3    H130923   0.212   0.076   6.550 -0.7320 -1.6657  0.2788
 3096TIP3    H230924   0.177   0.148   6.421  1.4409  2.0273  1.5893
 3097TIP3   OH230925   5.830   2.023   6.864 -0.1572  0.0043 -0.2220
 3097TIP3    H130926   5.864   2.076   6.792  2.0731 -1.5628 -0.4314
 3097TIP3    H230927   5.908   1.995   6.912 -1.1119 -3.2388 -0.3058
 3098TIP3   OH230928   0.299   2.674   1.606  0.5196  0.0127  0.6475
 3098TIP3    H130929   0.327   2.585   1.585 -3.6899 -1.4353  0.3037
 3098TIP3    H230930   0.285   2.673   1.701  0.4476  0.3264  0.6418
 3099TIP3   OH230931   4.403   5.625   1.836 -0.4299  0.5423  0.4284
 3099TIP3    H130932   4.365   5.711   1.818  0.1102  0.5170 -0.9421
 3099TIP3    H230933   4.489   5.628   1.795 -1.1387 -1.3044 -1.3829
 3100TIP3   OH230934   1.794   1.384   7.270 -0.3035  0.1043  0.2895
 3100TIP3    H130935   1.813   1.458   7.328 -0.4447  0.3968 -0.0366
 3100TIP3    H230936   1.880   1.351   7.244 -0.2253 -0.5482  1.3179
 3101TIP3   OH230937   6.105   5.533   5.508  0.2852  0.2469 -0.2148
 3101TIP3    H130938   6.041   5.545   5.579  1.3900  1.4862  0.6449
 3101TIP3    H230939   6.082   5.600   5.444  1.1166  1.1836  0.4341
 3102TIP3   OH230940   4.499   2.048   0.116 -0.3969  0.0042 -0.4087
 3102TIP3    H130941   4.453   2.129   0.135 -0.1402 -0.3243  1.8692
 3102TIP3    H230942   4.589   2.074   0.100  0.0646  0.1233  1.9595
 3103TIP3   OH230943   6.001   5.598   1.563 -0.2290  0.3757 -0.8025
 3103TIP3    H130944   6.059   5.540   1.514 -0.1477 -0.1150 -0.1390
 3103TIP3    H230945   6.059   5.649   1.620 -0.4036  0.2348 -0.4947
 3104TIP3   OH230946   0.036   6.501   7.007 -0.5480  0.1414  0.4605
 3104TIP3    H130947   0.019   6.555   7.085  0.9829 -1.1245  1.7493
 3104TIP3    H230948   0.072   6.562   6.943  0.0919  0.8720  1.4871
 3105TIP3   OH230949   0.073   1.468   7.427  0.0406  0.2037 -0.1091
 3105TIP3    H130950   0.139   1.538   7.424  0.0954  0.2048  0.8001
 3105TIP3    H230951   0.057   1.447   7.335  0.7136  0.7630 -0.3705
 3106TIP3   OH230952   6.793   3.484   0.307  0.2328  0.2025  0.4750
 3106TIP3    H130953   6.885   3.472   0.333  0.0699 -0.9324  0.5680
 3106TIP3    H230954   6.743   3.445   0.378 -0.2637 -1.1273 -0.5675
 3107TIP3   OH230955   2.336   6.513   7.692  0.3664  0.2914  0.2694
 3107TIP3    H130956   2.314   6.459   7.616 -0.9234  1.0659  0.0568
 3107TIP3    H230957   2.293   6.596   7.675 -0.4997  0.2755  2.1442
 3108TIP3   OH230958   4.347   3.769   1.196 -0.3329  0.6401 -0.0432
 3108TIP3    H130959   4.268   3.766   1.250 -0.0966 -0.6526  0.2642
 3108TIP3    H230960   4.347   3.686   1.148  1.8666 -0.3687  1.5244
 3109TIP3   OH230961   5.217   3.253   6.443  0.4911  0.0531  0.0064
 3109TIP3    H130962   5.177   3.211   6.519 -1.9348  2.2013  0.0541
 3109TIP3    H230963   5.169   3.218   6.368  0.2742  0.7355 -0.1808
 3110TIP3   OH230964   4.554   3.887   0.582 -0.0020 -0.5497  0.3704
 3110TIP3    H130965   4.616   3.929   0.522 -0.9455  0.1738 -0.1338
 3110TIP3    H230966   4.468   3.909   0.546 -0.5527 -1.8537  0.8359
 3111TIP3   OH230967   1.631   1.540   2.049  0.2369 -0.3839 -0.0538
 3111TIP3    H130968   1.719   1.571   2.070 -0.2914  0.6922  0.6696
 3111TIP3    H230969   1.645   1.470   1.985  1.5128  1.1068 -1.4992
 3112TIP3   OH230970   6.669   5.950   5.767 -0.0910  0.5466  0.4493
 3112TIP3    H130971   6.618   5.917   5.841 -2.5879  2.3980 -0.3039
 3112TIP3    H230972   6.721   6.022   5.803  0.1634  0.2121  0.7564
 3113TIP3   OH230973   6.668   0.956   6.326  0.0568  0.7277  0.1073
 3113TIP3    H130974   6.626   0.898   6.263  0.5759 -0.2734  0.6759
 3113TIP3    H230975   6.632   1.043   6.305 -0.9676  0.1727 -0.5382
 3114TIP3   OH230976   3.484   7.189   0.262 -0.0709  0.2745 -0.4201
 3114TIP3    H130977   3.536   7.255   0.307 -1.6012  0.6432  0.9301
 3114TIP3    H230978   3.468   7.122   0.329 -2.9890  1.1741 -0.0736
 3115TIP3   OH230979   0.315   1.486   0.731 -0.0509  0.4962  0.2426
 3115TIP3    H130980   0.275   1.436   0.660 -1.2482  0.3883  0.9639
 3115TIP3    H230981   0.408   1.464   0.726  0.0204  1.0136 -1.6993
 3116TIP3   OH230982   0.453   4.703   1.314 -0.1302  0.1562 -1.0324
 3116TIP3    H130983   0.470   4.671   1.402  2.3906  0.9047 -1.1705
 3116TIP3    H230984   0.358   4.716   1.311 -0.2750  0.1949  1.5902
 3117TIP3   OH230985   2.490   6.846   0.394 -0.2016  0.5828  0.2167
 3117TIP3    H130986   2.555   6.895   0.344 -0.1740 -0.0638 -0.4011
 3117TIP3    H230987   2.460   6.777   0.334 -1.5451  0.9340  0.4423
 3118TIP3   OH230988   0.803   2.252   0.510  0.3229 -0.1445  0.7817
 3118TIP3    H130989   0.819   2.163   0.542  3.6383  1.0061  2.8730
 3118TIP3    H230990   0.752   2.240   0.430 -0.2033 -3.8305  1.4914
 3119TIP3   OH230991   7.096   3.132   7.162  0.2130  0.4109 -0.1622
 3119TIP3    H130992   7.011   3.090   7.145  0.3983 -0.5473  1.0830
 3119TIP3    H230993   7.157   3.083   7.107  0.1589  0.1674 -0.0115
 3120TIP3   OH230994   7.217   5.743   7.977 -0.2440 -0.1849  0.2608
 3120TIP3    H130995   7.195   5.750   8.070  0.0220  3.2201  0.2260
 3120TIP3    H230996   7.313   5.737   7.976  0.0547  2.8961  0.3078
 3121TIP3   OH230997   6.244   3.729   0.221 -0.2738  0.1376 -0.7845
 3121TIP3    H130998   6.302   3.674   0.273  1.6949  1.8499 -1.0453
 3121TIP3    H230999   6.156   3.703   0.247  0.6258 -0.3770  1.9937
 3122TIP3   OH231000   2.653   2.227   1.482  0.1099 -0.1309  0.4778
 3122TIP3    H131001   2.599   2.296   1.446 -1.6326 -0.7492  1.7706
 3122TIP3    H231002   2.644   2.236   1.577  0.4652 -1.6397  0.6831
 3123TIP3   OH231003   1.214   6.598   0.755  0.4618 -0.4784  1.0809
 3123TIP3    H131004   1.306   6.619   0.769  0.3449  1.2237 -0.3700
 3123TIP3    H231005   1.206   6.585   0.661 -0.8334 -0.3128  1.1415
 3124TIP3   OH231006   1.682   4.988   0.406  0.0785  0.2038  0.3913
 3124TIP3    H131007   1.684   4.964   0.313  0.4755 -1.3333  0.7645
 3124TIP3    H231008   1.738   5.066   0.412 -0.9269  1.0578 -0.8269
 3125TIP3   OH231009   2.903   3.070   0.983 -0.1803 -0.4269  0.0578
 3125TIP3    H131010   2.842   3.003   0.954  0.6049 -0.8272 -0.7307
 3125TIP3    H231011   2.967   3.022   1.037  0.4719 -0.3588 -0.6362
 3126TIP3   OH231012   5.499   4.172   0.309  0.1512  0.1692 -0.5787
 3126TIP3    H131013   5.409   4.165   0.340  0.4184  1.9820  0.8125
 3126TIP3    H231014   5.495   4.231   0.234  0.2132  0.5722 -0.2688
 3127TIP3   OH231015   4.884   4.717   5.881 -0.2297 -0.1081  0.1565
 3127TIP3    H131016   4.809   4.765   5.915 -0.4857  0.8619 -1.6808
 3127TIP3    H231017   4.849   4.665   5.809  1.0360  1.4979 -1.7365
 3128TIP3   OH231018   0.400   7.015   7.126 -0.2063  0.4063  0.3091
 3128TIP3    H131019   0.469   7.038   7.064  1.4076  0.2501  1.9694
 3128TIP3    H231020   0.400   6.919   7.126 -0.7545  0.4026 -0.0131
 3129TIP3   OH231021   4.889   2.458   7.821  0.2028  0.1663  0.5949
 3129TIP3    H131022   4.847   2.382   7.781  0.6733  0.0171  0.3772
 3129TIP3    H231023   4.817   2.511   7.854 -0.1614 -0.0186  0.1016
 3130TIP3   OH231024   0.993   0.259   7.616 -0.2808 -0.0640  0.1977
 3130TIP3    H131025   1.054   0.215   7.556 -1.5316 -0.6256 -0.6929
 3130TIP3    H231026   1.033   0.247   7.702 -0.1121 -2.1958 -0.1108
 3131TIP3   OH231027   5.927   5.018   7.674 -0.1724 -0.3889 -0.2498
 3131TIP3    H131028   5.964   5.009   7.586 -0.0109 -0.6304 -0.1545
 3131TIP3    H231029   6.000   5.004   7.733 -0.5103 -1.3702 -0.0516
 3132TIP3   OH231030   0.915   3.284   6.133 -0.2848  0.3103  0.3922
 3132TIP3    H131031   0.862   3.272   6.054 -0.8866  2.0314  0.4904
 3132TIP3    H231032   0.960   3.367   6.120  0.1597  0.2754  1.5697
 3133TIP3   OH231033   0.043   4.637   1.948  0.8106 -0.1708 -0.2402
 3133TIP3    H131034  -0.018   4.611   2.016 -0.4347 -0.9429 -1.6086
 3133TIP3    H231035   0.129   4.607   1.980  0.4426  0.4835  1.4667
 3134TIP3   OH231036   6.603   3.498   7.204 -0.5268  1.1352 -0.1219
 3134TIP3    H131037   6.563   3.453   7.131  0.9501  0.5210 -0.5758
 3134TIP3    H231038   6.664   3.435   7.242  2.0597  2.8485 -1.1500
 3135TIP3   OH231039   4.541   2.345   7.704 -0.3269  0.1730  0.1132
 3135TIP3    H131040   4.597   2.278   7.742 -0.5634  0.0498  0.2485
 3135TIP3    H231041   4.574   2.356   7.615  2.2341  2.6832  1.2252
 3136TIP3   OH231042   6.559   4.629   6.881 -0.1449 -0.1334 -0.3010
 3136TIP3    H131043   6.491   4.684   6.841 -0.3621 -0.1442  0.0438
 3136TIP3    H231044   6.641   4.666   6.850 -0.3011  0.0827 -0.4642
 3137TIP3   OH231045   5.268   0.515   7.337 -0.0223  0.4339 -0.4487
 3137TIP3    H131046   5.254   0.578   7.266  1.0564  0.6271 -0.5015
 3137TIP3    H231047   5.181   0.477   7.353 -0.3397  0.6179 -1.6517
 3138TIP3   OH231048   3.297   4.966   7.199 -0.5526  0.2895  0.5375
 3138TIP3    H131049   3.329   4.997   7.284  0.5817  0.2667  0.1330
 3138TIP3    H231050   3.307   5.041   7.141  0.2724 -0.2045  0.0322
 3139TIP3   OH231051   4.195   4.849   7.838 -0.2820 -0.7429  0.1138
 3139TIP3    H131052   4.175   4.863   7.930  0.2963  0.6372  0.0562
 3139TIP3    H231053   4.110   4.845   7.795 -0.5635 -1.6239  0.7155
 3140TIP3   OH231054   5.365   5.631   1.325 -0.1181 -0.2520  0.1466
 3140TIP3    H131055   5.428   5.683   1.275 -1.0008  1.6765  0.8993
 3140TIP3    H231056   5.291   5.620   1.266 -0.8666  1.4046  0.7159
 3141TIP3   OH231057   1.330   2.209   5.983 -0.0492  0.7819  0.1986
 3141TIP3    H131058   1.357   2.266   6.055 -0.2091  1.1310 -0.0163
 3141TIP3    H231059   1.287   2.267   5.921  0.8968  0.6362 -0.6139
 3142TIP3   OH231060   1.536   2.904   7.190  0.3681  0.0468 -0.5983
 3142TIP3    H131061   1.446   2.925   7.165  0.9513  1.4022 -1.7347
 3142TIP3    H231062   1.551   2.816   7.154 -0.7875 -0.6062  0.4612
 3143TIP3   OH231063   1.027   1.104   6.820 -0.2139  0.4797 -0.3698
 3143TIP3    H131064   1.054   1.191   6.850 -0.0598  0.9036 -1.6689
 3143TIP3    H231065   1.110   1.060   6.799 -0.3180  0.1838 -0.1584
 3144TIP3   OH231066   3.582   4.009   6.329  0.1228  0.3470  0.0565
 3144TIP3    H131067   3.571   3.993   6.423  1.6681 -3.2111 -0.2117
 3144TIP3    H231068   3.499   3.982   6.290  0.1558 -0.0633  0.2605
 3145TIP3   OH231069   1.095   4.863   0.654  0.4344  0.4969 -0.0578
 3145TIP3    H131070   1.154   4.894   0.585  1.3165  0.6015  0.7355
 3145TIP3    H231071   1.078   4.771   0.631  0.0677  0.7501 -0.8488
 3146TIP3   OH231072   4.076   6.078   0.600 -0.4443  0.2029  0.1915
 3146TIP3    H131073   4.101   6.119   0.518 -1.4799  0.4341 -0.0192
 3146TIP3    H231074   3.981   6.066   0.593 -0.7849  1.5499  1.9391
 3147TIP3   OH231075   1.188   1.123   7.619  0.1035  0.4777 -0.5283
 3147TIP3    H131076   1.175   1.040   7.573 -2.2237 -0.2178  1.1956
 3147TIP3    H231077   1.110   1.175   7.600  0.6752  1.5376 -0.1048
 3148TIP3   OH231078   3.790   2.350   7.048 -0.3130  0.1305  0.2553
 3148TIP3    H131079   3.746   2.268   7.071 -1.7343  0.0584 -2.2941
 3148TIP3    H231080   3.718   2.409   7.024  0.8261  1.0502 -1.0537
 3149TIP3   OH231081   1.903   0.833   6.408  0.0934  0.5322  0.3643
 3149TIP3    H131082   1.912   0.894   6.336  0.1668  0.7761  0.5787
 3149TIP3    H231083   1.924   0.884   6.486 -1.2131  0.6146  0.6910
 3150TIP3   OH231084   3.454   5.924   1.715  0.1702  0.1692  0.3328
 3150TIP3    H131085   3.418   5.887   1.795 -1.1323  1.4294  0.3838
 3150TIP3    H231086   3.398   5.890   1.645 -0.1450  0.8768  0.2295
 3151TIP3   OH231087   0.350   5.046   7.976 -0.0300 -0.1110  0.1497
 3151TIP3    H131088   0.372   5.091   7.894 -1.8144 -0.9290 -0.8355
 3151TIP3    H231089   0.308   5.114   8.029  1.3431  0.4824  0.5065
 3152TIP3   OH231090   5.729   2.310   7.155  0.0974  0.2109 -0.2835
 3152TIP3    H131091   5.653   2.363   7.132  0.6399  0.7690 -0.8266
 3152TIP3    H231092   5.698   2.220   7.146 -0.5017  0.4320 -0.4990
 3153TIP3   OH231093   3.309   3.499   0.520 -0.2913  0.0165 -0.5324
 3153TIP3    H131094   3.224   3.457   0.509 -0.9035  1.4836 -1.9134
 3153TIP3    H231095   3.366   3.456   0.456  0.6844 -2.4210  1.8050
 3154TIP3   OH231096   3.566   5.658   6.351 -0.5970  0.1680 -0.6339
 3154TIP3    H131097   3.635   5.598   6.323  0.7839  0.6639  1.4955
 3154TIP3    H231098   3.578   5.736   6.297  2.3379  1.3179  1.4450
 3155TIP3   OH231099   6.243   0.012   7.988 -0.2973  0.2830 -0.0482
 3155TIP3    H131100   6.257  -0.064   8.045  1.0957  1.2882  1.0053
 3155TIP3    H231101   6.322   0.065   7.999 -1.1680  1.8133 -0.8959
 3156TIP3   OH231102   1.356   0.979   7.209 -0.0977  0.8673 -0.2575
 3156TIP3    H131103   1.445   0.944   7.215  0.0565  1.4896  2.5418
 3156TIP3    H231104   1.357   1.036   7.132  1.8144  0.5662 -0.4970
 3157TIP3   OH231105   3.451   6.049   6.785  0.5507 -0.8012  0.1594
 3157TIP3    H131106   3.411   5.965   6.808  0.1677 -0.6746 -0.0291
 3157TIP3    H231107   3.489   6.034   6.699  0.3761 -0.7454  0.0730
 3158TIP3   OH231108   3.782   3.578   1.894  0.3026  0.5692  1.1334
 3158TIP3    H131109   3.827   3.655   1.929  0.3184  1.2261 -0.2567
 3158TIP3    H231110   3.691   3.606   1.884 -0.1526 -0.2842  2.5510
 3159TIP3   OH231111   1.811   5.339   1.177 -0.1602  0.1000 -0.0229
 3159TIP3    H131112   1.718   5.315   1.168  0.5221 -2.0968 -2.2061
 3159TIP3    H231113   1.811   5.434   1.170 -2.2754  0.1815  0.2562
 3160TIP3   OH231114   4.606   7.215   0.367 -0.0096  0.1591  0.1540
 3160TIP3    H131115   4.511   7.203   0.370 -0.2961  2.1049 -0.0004
 3160TIP3    H231116   4.640   7.126   0.355 -1.7606 -0.6613  0.7691
 3161TIP3   OH231117   4.847   3.712   5.579 -0.2461 -0.2202  0.6966
 3161TIP3    H131118   4.763   3.712   5.624 -0.2684  0.2952  0.6560
 3161TIP3    H231119   4.900   3.648   5.628 -0.3932  0.0557  1.2248
 3162TIP3   OH231120   5.435   0.702   0.156 -0.0877  0.0380  0.2577
 3162TIP3    H131121   5.494   0.711   0.231  0.1791 -0.0901  0.0637
 3162TIP3    H231122   5.477   0.638   0.099 -0.0098  0.5467 -0.2708
 3163TIP3   OH231123   3.838   2.873   6.561 -0.1216  0.2561 -0.2942
 3163TIP3    H131124   3.918   2.924   6.564  0.4958 -0.5690 -1.5331
 3163TIP3    H231125   3.768   2.937   6.551  0.3878  0.9710  0.6052
 3164TIP3   OH231126   0.340   0.568   0.447 -0.0301  0.1341 -0.1507
 3164TIP3    H131127   0.349   0.555   0.541  0.9918  2.1517  0.0640
 3164TIP3    H231128   0.428   0.552   0.412 -0.7893 -2.5467 -1.0839
 3165TIP3   OH231129   2.289   1.754   6.276 -0.3820  0.1287 -0.2786
 3165TIP3    H131130   2.269   1.803   6.197  0.1230  0.2230 -0.3516
 3165TIP3    H231131   2.268   1.663   6.254  3.4357 -0.5455 -1.9416
 3166TIP3   OH231132   6.277   4.365   6.574  0.0555  0.0738 -0.2840
 3166TIP3    H131133   6.206   4.427   6.592 -0.5796 -0.3796 -1.1631
 3166TIP3    H231134   6.246   4.313   6.500  1.4156  0.0321 -0.8571
 3167TIP3   OH231135   1.757   2.998   6.284  0.0677 -0.1522 -0.5709
 3167TIP3    H131136   1.822   3.012   6.215  0.9827 -0.2771  0.2429
 3167TIP3    H231137   1.689   3.063   6.267  1.0435  0.8555 -0.6799
 3168TIP3   OH231138   3.147   1.693   0.528  0.5599  0.0460  0.1756
 3168TIP3    H131139   3.159   1.682   0.622 -0.5583  0.6918  0.4178
 3168TIP3    H231140   3.090   1.620   0.503 -0.2920  0.6611  0.2779
 3169TIP3   OH231141   1.295   6.754   6.684  0.8362  0.2742 -0.1194
 3169TIP3    H131142   1.236   6.735   6.756 -0.5903  0.3292 -1.2434
 3169TIP3    H231143   1.293   6.850   6.676 -1.9808  0.1381 -2.5547
 3170TIP3   OH231144   2.602   1.559   5.650  0.3684  0.2043 -0.1443
 3170TIP3    H131145   2.531   1.604   5.606  1.2274  0.7491 -1.0188
 3170TIP3    H231146   2.661   1.628   5.679 -0.0585 -0.1460  1.7465
 3171TIP3   OH231147   0.100   6.812   7.841  0.1910  0.3520  0.1795
 3171TIP3    H131148   0.105   6.901   7.875  0.9067  0.4567 -0.1800
 3171TIP3    H231149   0.141   6.817   7.754  1.2891 -0.5544  0.6176
 3172TIP3   OH231150   0.685   0.696   6.663 -0.0307 -0.3171 -0.2657
 3172TIP3    H131151   0.760   0.753   6.648  0.7606 -1.5053 -0.9401
 3172TIP3    H231152   0.653   0.721   6.749  1.9739 -0.6977  0.6390
 3173TIP3   OH231153   4.645   2.009   7.126  0.0146  0.2478 -0.0382
 3173TIP3    H131154   4.688   2.093   7.109 -1.5168  0.9732 -0.4984
 3173TIP3    H231155   4.670   1.987   7.215 -0.5924  1.8566  0.5634
 3174TIP3   OH231156   2.389   0.148   0.010  0.3579 -0.3397  0.5057
 3174TIP3    H131157   2.334   0.134   0.087  0.4576 -1.3599  0.4046
 3174TIP3    H231158   2.329   0.140  -0.064  0.6897 -1.9036  0.3735
 3175TIP3   OH231159   6.018   6.628   7.154  0.3974 -0.1659 -0.2291
 3175TIP3    H131160   5.975   6.638   7.069  2.4794  0.3432 -1.3005
 3175TIP3    H231161   6.089   6.566   7.138  1.9540  1.3153  0.6405
 3176TIP3   OH231162   6.487   0.511   6.487 -0.2362  0.2000  0.7862
 3176TIP3    H131163   6.491   0.589   6.542  2.9547  0.7935 -0.0956
 3176TIP3    H231164   6.426   0.533   6.418  1.9287  2.7711 -0.4876
 3177TIP3   OH231165   0.198   4.824   6.575 -0.3542 -0.5079  0.3666
 3177TIP3    H131166   0.262   4.753   6.571 -1.1390 -1.1725 -0.8037
 3177TIP3    H231167   0.250   4.904   6.570  0.6909 -0.8801  3.1477
 3178TIP3   OH231168   1.141   0.137   7.035  0.2761  0.1863  0.1039
 3178TIP3    H131169   1.075   0.201   7.006  1.2663  1.1848 -0.0182
 3178TIP3    H231170   1.089   0.063   7.068 -0.9631  1.5943  1.5483
 3179TIP3   OH231171   3.358   6.371   1.307  0.0674 -0.7756  0.2778
 3179TIP3    H131172   3.383   6.316   1.233 -2.0571 -2.1766  0.5129
 3179TIP3    H231173   3.414   6.342   1.379  1.7649  0.2251 -0.5841
 3180TIP3   OH231174   4.028   2.343   0.723  0.2844  0.2664  0.4925
 3180TIP3    H131175   4.118   2.327   0.693  0.1781  2.2382 -1.1337
 3180TIP3    H231176   3.973   2.316   0.649 -0.3073  0.9808  0.6579
 3181TIP3   OH231177   5.232   1.016   7.442  0.1513  0.1958  0.7709
 3181TIP3    H131178   5.171   0.943   7.451 -0.6261  0.8708  1.0546
 3181TIP3    H231179   5.220   1.068   7.521  1.5285  0.0342  1.1179
 3182TIP3   OH231180   4.350   5.805   5.690 -0.3251  0.6934 -0.1354
 3182TIP3    H131181   4.341   5.814   5.596 -0.2160  0.2137 -0.1961
 3182TIP3    H231182   4.339   5.894   5.725 -3.4347  0.5134 -0.3301
 3183TIP3   OH231183   5.635   2.869   6.632 -0.2005  0.3450 -0.1837
 3183TIP3    H131184   5.605   2.958   6.650  1.8493  1.6112 -2.3320
 3183TIP3    H231185   5.595   2.847   6.548 -0.2178 -0.5151  0.0433
 3184TIP3   OH231186   5.057   2.792   0.489  0.0873  0.6066 -0.4641
 3184TIP3    H131187   5.027   2.860   0.550 -1.5021  0.7469 -1.3562
 3184TIP3    H231188   4.978   2.740   0.470  0.7312  0.0587 -1.7550
 3185TIP3   OH231189   2.148   6.692   0.260  0.1367 -0.2388 -0.5544
 3185TIP3    H131190   2.205   6.736   0.197 -1.1402 -0.4296 -1.8954
 3185TIP3    H231191   2.189   6.606   0.273 -0.0975 -0.5825 -1.9204
 3186TIP3   OH231192   4.539   2.957   6.463 -0.6088 -0.6277 -0.0638
 3186TIP3    H131193   4.626   2.922   6.481 -0.3392  0.9341  2.0473
 3186TIP3    H231194   4.554   3.025   6.397 -0.4911 -1.4286 -0.8806
 3187TIP3   OH231195   4.192   3.477   5.575  0.1678 -0.1834  0.0760
 3187TIP3    H131196   4.155   3.427   5.648  0.4026  0.6798  0.7925
 3187TIP3    H231197   4.218   3.410   5.511  0.0892 -0.9571  0.8414
 3188TIP3   OH231198   3.365   1.149   1.916  0.3957  0.3977  0.1833
 3188TIP3    H131199   3.284   1.200   1.907  0.2531  0.0896 -0.3045
 3188TIP3    H231200   3.423   1.205   1.968  0.6310  1.5371 -1.2525
 3189TIP3   OH231201   0.539   6.941   5.912 -0.0206 -0.1336 -0.0183
 3189TIP3    H131202   0.572   7.026   5.941  0.2962 -0.3685  0.3397
 3189TIP3    H231203   0.561   6.882   5.984 -0.5138 -0.4584 -0.1280
 3190TIP3   OH231204   3.151   0.971   1.316  0.4715 -0.1784 -0.4243
 3190TIP3    H131205   3.194   0.920   1.384 -0.0435 -0.4402 -0.2876
 3190TIP3    H231206   3.129   1.054   1.359  2.0654  0.5253 -0.8787
 3191TIP3   OH231207   2.998   1.390   0.013 -0.5273  0.1572 -0.5195
 3191TIP3    H131208   3.025   1.435   0.093 -0.3236  1.9573 -1.5185
 3191TIP3    H231209   2.918   1.343   0.036 -0.7641  1.0784  0.6241
 3192TIP3   OH231210   1.566   0.177   0.253 -0.5296  0.2289  0.3883
 3192TIP3    H131211   1.542   0.245   0.316 -1.1336  0.4425 -0.0589
 3192TIP3    H231212   1.581   0.099   0.306 -0.4485  0.5552  0.8483
 3193TIP3   OH231213   0.280   3.985   0.960  0.0309  0.5400 -0.8107
 3193TIP3    H131214   0.350   4.050   0.965  0.5839 -0.1419  1.0643
 3193TIP3    H231215   0.296   3.938   0.878  1.6699  0.5176 -0.5055
 3194TIP3   OH231216   4.444   6.437   0.571  0.7448  0.4646  0.3895
 3194TIP3    H131217   4.446   6.358   0.624 -0.0950  0.9368  1.1538
 3194TIP3    H231218   4.489   6.413   0.490  0.5269 -0.7793  0.6187
 3195TIP3   OH231219   5.483   3.604   5.739 -0.4866 -0.5137  0.0660
 3195TIP3    H131220   5.473   3.537   5.807 -0.2579 -2.0486 -1.3520
 3195TIP3    H231221   5.522   3.558   5.665  1.4937  1.6010 -0.3425
 3196TIP3   OH231222   0.054   5.247   6.676  0.3555 -0.0945  0.1621
 3196TIP3    H131223   0.124   5.206   6.625 -1.2679 -2.5130 -0.2932
 3196TIP3    H231224   0.071   5.221   6.767  0.5595  0.0891  0.1755
 3197TIP3   OH231225   1.622   1.021   0.677  0.3286 -0.0194 -0.1070
 3197TIP3    H131226   1.640   0.944   0.624  2.0760 -0.0579  0.4750
 3197TIP3    H231227   1.554   0.993   0.738  0.9198 -1.1015  0.0738
 3198TIP3   OH231228   6.409   1.863   0.349  0.7900 -0.6164 -0.4116
 3198TIP3    H131229   6.346   1.805   0.391 -0.8159  1.8244  0.7390
 3198TIP3    H231230   6.472   1.885   0.417 -0.2340  1.1448  0.0363
 3199TIP3   OH231231   0.682   5.245   2.094  0.4616 -0.2423  0.0383
 3199TIP3    H131232   0.690   5.199   2.010 -0.5219 -2.1001  0.9130
 3199TIP3    H231233   0.772   5.266   2.118  1.1042 -2.9253  0.2076
 3200TIP3   OH231234   2.517   2.091   0.262 -0.3570  0.3068  0.0235
 3200TIP3    H131235   2.445   2.052   0.312  0.8967  0.7668  2.3285
 3200TIP3    H231236   2.506   2.056   0.174 -2.3592 -1.0242  0.7224
 3201TIP3   OH231237   0.818   1.861   7.116 -0.0141  0.3395  0.0772
 3201TIP3    H131238   0.820   1.777   7.069  0.7118  0.7335 -0.6232
 3201TIP3    H231239   0.760   1.846   7.190  1.7364 -1.4336  1.1913
 3202TIP3   OH231240   3.570   0.389   0.954 -0.3407 -0.1859  0.2922
 3202TIP3    H131241   3.617   0.306   0.944 -2.1895 -1.6815  2.7509
 3202TIP3    H231242   3.520   0.398   0.873 -0.2751 -1.6217  0.0632
 3203TIP3   OH231243   3.552   6.283   7.751 -0.6272 -0.4811  0.0658
 3203TIP3    H131244   3.469   6.241   7.773 -0.1898 -0.2095  2.5310
 3203TIP3    H231245   3.619   6.228   7.791 -0.0025  2.0204  2.8042
 3204TIP3   OH231246   5.001   6.825   1.437 -0.0982  0.2599  0.2576
 3204TIP3    H131247   4.992   6.899   1.376 -0.6142  0.5282  0.6600
 3204TIP3    H231248   5.064   6.856   1.503  0.5588 -0.0765 -0.1919
 3205TIP3   OH231249   0.025   3.714   7.134 -0.1740 -0.0546 -0.1643
 3205TIP3    H131250   0.070   3.786   7.091  0.5592 -1.2620 -1.4980
 3205TIP3    H231251  -0.055   3.754   7.170 -0.3964  1.1875 -1.8965
 3206TIP3   OH231252   2.473   5.432   7.461  0.0029  0.2148 -0.1588
 3206TIP3    H131253   2.498   5.354   7.510 -0.3006 -0.3883 -0.9305
 3206TIP3    H231254   2.387   5.456   7.496 -1.1313 -1.3734 -1.6478
 3207TIP3   OH231255   4.213   2.902   2.248  0.2194 -0.6588 -0.0223
 3207TIP3    H131256   4.248   2.938   2.330 -0.0459 -1.1147  0.2943
 3207TIP3    H231257   4.289   2.898   2.190  0.1158  1.2355 -0.3807
 3208TIP3   OH231258   0.894   5.750   0.183  0.2063 -0.3919  0.5336
 3208TIP3    H131259   0.803   5.725   0.167  0.2094 -0.8843  1.2204
 3208TIP3    H231260   0.899   5.760   0.278  0.9007 -0.5055  0.5120
 3209TIP3   OH231261   6.086   6.349   5.542  0.0740  0.0814 -0.2343
 3209TIP3    H131262   6.141   6.272   5.558 -0.5487 -0.4315 -0.5381
 3209TIP3    H231263   5.996   6.314   5.540 -0.0685  0.4061 -2.8456
 3210TIP3   OH231264   5.893   4.189   1.161 -0.4628 -0.4691  0.1126
 3210TIP3    H131265   5.842   4.152   1.088  0.8661 -2.1617 -0.0047
 3210TIP3    H231266   5.972   4.224   1.120 -0.3154 -0.2306  0.5952
 3211TIP3   OH231267   6.229   4.034   7.674  0.2884 -0.1495  0.5131
 3211TIP3    H131268   6.284   3.960   7.649 -0.0780 -0.0261 -0.7484
 3211TIP3    H231269   6.223   4.087   7.594 -1.0253  0.2234  0.8329
 3212TIP3   OH231270   2.823   4.133   7.855  0.0861  0.5668  0.3316
 3212TIP3    H131271   2.784   4.098   7.935  1.1679 -1.8152 -0.0973
 3212TIP3    H231272   2.914   4.151   7.879 -0.4149  3.2863  0.5323
 3213TIP3   OH231273   1.419   5.720   0.277  0.2337 -0.3847 -0.6859
 3213TIP3    H131274   1.427   5.808   0.241 -1.7438  0.9102  1.7263
 3213TIP3    H231275   1.444   5.729   0.369 -2.6809 -1.6303  0.3559
 3214TIP3   OH231276   2.194   0.804   7.357  0.7590 -0.1281 -0.1309
 3214TIP3    H131277   2.248   0.736   7.317 -0.8298 -0.8212 -1.1803
 3214TIP3    H231278   2.121   0.757   7.396 -0.0540  0.9264 -0.3288
 3215TIP3   OH231279   2.245   3.877   0.759 -0.5133 -0.3518  0.3861
 3215TIP3    H131280   2.341   3.871   0.763 -0.5132  0.1041  1.2196
 3215TIP3    H231281   2.220   3.811   0.694  0.4606  0.5913 -0.9962
 3216TIP3   OH231282   2.591   0.214   0.573 -0.1129 -0.2956 -0.3026
 3216TIP3    H131283   2.515   0.262   0.605  1.0216  1.2069  0.3105
 3216TIP3    H231284   2.615   0.258   0.491  0.9331  0.2341  0.2575
 3217TIP3   OH231285   5.066   4.014   7.510  0.1336 -0.1078  0.0155
 3217TIP3    H131286   5.045   3.958   7.435 -0.0476 -1.6188  1.1496
 3217TIP3    H231287   5.161   4.013   7.516  0.2453  1.1363 -0.9717
 3218TIP3   OH231288   4.228   4.378   7.067  0.0663  0.6309 -0.2793
 3218TIP3    H131289   4.227   4.472   7.085 -0.3478  0.6523 -0.3892
 3218TIP3    H231290   4.142   4.360   7.028 -0.4608 -0.0532  1.1194
 3219TIP3   OH231291   2.566   1.682   7.869 -0.4363  0.2709  0.4939
 3219TIP3    H131292   2.498   1.678   7.801 -0.9372 -2.9926  0.9974
 3219TIP3    H231293   2.645   1.708   7.822 -1.5418  1.9706 -0.5323
 3220TIP3   OH231294   3.990   6.966   1.319 -0.2147 -0.5302  0.9385
 3220TIP3    H131295   4.011   6.946   1.228  0.3962  0.6799  0.8016
 3220TIP3    H231296   3.918   6.906   1.341 -2.3999  1.0821 -1.2514
 3221TIP3   OH231297   4.366   6.122   0.167 -0.3573 -0.2357  0.2834
 3221TIP3    H131298   4.409   6.136   0.251  0.7735 -3.1494  0.3021
 3221TIP3    H231299   4.342   6.029   0.167  0.4953 -0.5831 -2.9164
 3222TIP3   OH231300   0.938   3.950   2.448 -0.3650  0.2481  0.2210
 3222TIP3    H131301   0.885   3.909   2.517 -0.0359  0.8042  0.8089
 3222TIP3    H231302   0.886   4.024   2.419 -0.6625 -0.1890 -0.3863
 3223TIP3   OH231303   0.321   4.537   7.322 -0.2735 -0.5719 -0.7336
 3223TIP3    H131304   0.307   4.611   7.262 -0.9045  1.0691  1.3051
 3223TIP3    H231305   0.235   4.495   7.329 -0.9647  0.9909  1.1052
 3224TIP3   OH231306   6.944   0.151   6.892  0.3351 -0.1080  0.2990
 3224TIP3    H131307   6.958   0.199   6.973 -1.4482 -0.9603  1.1651
 3224TIP3    H231308   7.010   0.081   6.894 -0.2080 -0.6091  1.4294
 3225TIP3   OH231309   5.656   4.665   1.298 -0.1122  0.5056 -0.3153
 3225TIP3    H131310   5.725   4.601   1.315  0.8026  1.4665 -0.3676
 3225TIP3    H231311   5.583   4.637   1.354  1.1430  0.8529  1.5635
 3226TIP3   OH231312   1.254   3.932   7.946 -0.4907 -0.1676 -0.3580
 3226TIP3    H131313   1.273   3.884   8.026 -0.1321  1.6550  0.7188
 3226TIP3    H231314   1.254   3.866   7.877  2.8947 -1.3100  0.5623
 3227TIP3   OH231315   2.749   6.164   1.425  0.5694  0.1157  0.0607
 3227TIP3    H131316   2.747   6.113   1.507  1.7985  1.9015  1.2813
 3227TIP3    H231317   2.776   6.100   1.359 -1.7932 -1.7081  0.7216
 3228TIP3   OH231318   3.753   1.171   7.623 -0.1840  0.2135  0.0056
 3228TIP3    H131319   3.751   1.077   7.606  1.0850  0.0748  0.4641
 3228TIP3    H231320   3.733   1.212   7.539  0.6418 -0.4652 -0.5374
 3229TIP3   OH231321   4.682   4.862   7.625 -0.0818  0.2254  0.3546
 3229TIP3    H131322   4.697   4.926   7.694  1.1703 -0.1815  0.4921
 3229TIP3    H231323   4.708   4.907   7.545  1.1617 -0.2111  0.4953
 3230TIP3   OH231324   2.595   5.733   0.981  0.5220  0.5078 -0.1094
 3230TIP3    H131325   2.689   5.751   0.989  0.4003  1.8388 -1.3229
 3230TIP3    H231326   2.553   5.793   1.043  0.4304  0.3216  0.0112
 3231TIP3   OH231327   1.510   4.118   7.648 -0.1619 -0.1849  0.1657
 3231TIP3    H131328   1.499   4.153   7.736  0.8750 -1.4592  0.8354
 3231TIP3    H231329   1.575   4.048   7.658  0.6206  0.1994 -1.7440
 3232TIP3   OH231330   4.176   6.219   7.409 -0.5570 -0.2142  0.3423
 3232TIP3    H131331   4.165   6.310   7.382 -1.9098 -0.1737  0.9229
 3232TIP3    H231332   4.201   6.225   7.501  0.8466 -0.4190 -0.0036
 3233TIP3   OH231333   3.642   5.607   0.778  0.1450  0.3203 -0.9897
 3233TIP3    H131334   3.602   5.535   0.728 -3.8448  1.2953  0.4143
 3233TIP3    H231335   3.655   5.570   0.865 -1.9564  1.1988 -0.2525
 3234TIP3   OH231336   4.135   3.062   7.967  1.0035  0.1622 -0.7947
 3234TIP3    H131337   4.195   3.137   7.959  0.5439  0.5536 -0.6035
 3234TIP3    H231338   4.062   3.095   8.019  2.4042 -1.3690  2.4488
 3235TIP3   OH231339   1.120   0.469   7.870 -0.6292  0.7271  0.7242
 3235TIP3    H131340   1.134   0.486   7.963 -1.3227 -0.1351  0.9915
 3235TIP3    H231341   1.127   0.374   7.861  0.3582  0.8680 -0.2711
 3236TIP3   OH231342   5.970   4.428   2.227  0.0778  0.1232 -0.3380
 3236TIP3    H131343   5.955   4.386   2.312  2.6663  1.7624  1.0623
 3236TIP3    H231344   5.924   4.512   2.234 -1.0436 -0.3742 -1.2600
 3237TIP3   OH231345   3.220   3.913   0.221  0.3736 -0.0163  0.1674
 3237TIP3    H131346   3.166   3.933   0.297  0.0952 -0.0867 -0.0086
 3237TIP3    H231347   3.287   3.981   0.219 -0.4828  0.8423 -0.3538
 3238TIP3   OH231348   2.953   1.320   1.251  0.1628  0.2075  0.3410
 3238TIP3    H131349   2.990   1.271   1.324  0.8743 -0.3306 -0.3594
 3238TIP3    H231350   2.983   1.410   1.264 -1.6556  0.6729  1.9768
 3239TIP3   OH231351   7.179   3.522   0.691 -0.0036 -0.0955  0.7032
 3239TIP3    H131352   7.170   3.615   0.671 -1.0834 -0.2292  0.5141
 3239TIP3    H231353   7.097   3.498   0.734 -1.2340 -1.6942 -2.2287
 3240TIP3   OH231354   3.053   1.796   1.566  0.0394  0.5938 -0.2008
 3240TIP3    H131355   3.024   1.880   1.600 -0.0229  0.0209  1.2444
 3240TIP3    H231356   3.113   1.762   1.633  1.9123  0.5045 -1.7999
 3241TIP3   OH231357   3.342   4.693   6.395  0.4428 -0.2058  0.7815
 3241TIP3    H131358   3.430   4.678   6.431  0.2706  0.6408  1.5874
 3241TIP3    H231359   3.356   4.700   6.300  1.3402  0.5245  0.9521
 3242TIP3   OH231360   5.135   3.502   6.506 -0.3044  0.0166 -0.0502
 3242TIP3    H131361   5.149   3.409   6.487 -1.2450  0.0550 -1.0259
 3242TIP3    H231362   5.223   3.538   6.515  0.2071 -0.3476 -2.8763
 3243TIP3   OH231363   4.514   6.233   6.204 -0.1323  0.2068  0.2006
 3243TIP3    H131364   4.579   6.259   6.138  0.2172  0.4117  0.6243
 3243TIP3    H231365   4.439   6.204   6.153 -0.1308  1.0467 -0.2850
 3244TIP3   OH231366   5.334   4.720   1.097 -0.0988 -0.0020  0.0219
 3244TIP3    H131367   5.302   4.810   1.085  0.0601 -0.0597 -0.8910
 3244TIP3    H231368   5.258   4.672   1.130 -0.9419 -0.0831 -1.8758
 3245TIP3   OH231369   5.418   4.163   6.906 -0.6117 -0.8699  0.4027
 3245TIP3    H131370   5.489   4.204   6.856  0.3233 -3.9297 -1.0407
 3245TIP3    H231371   5.451   4.161   6.996 -0.0221  0.0420  0.2216
 3246TIP3   OH231372   6.481   2.405   6.888 -0.6982 -0.5119  0.1368
 3246TIP3    H131373   6.392   2.371   6.876 -0.9787  0.2238  0.0477
 3246TIP3    H231374   6.537   2.328   6.886 -1.3925 -1.0583  0.8078
 3247TIP3   OH231375   5.591   4.027   7.572 -0.0932  0.0828 -0.0097
 3247TIP3    H131376   5.658   4.090   7.602  1.5791 -2.2744  1.5799
 3247TIP3    H231377   5.537   4.011   7.650 -0.1291 -0.8584 -0.2173
 3248TIP3   OH231378   4.337   0.153   0.815  0.2603  0.1181  0.1396
 3248TIP3    H131379   4.407   0.166   0.879  0.3529  1.6256 -0.2299
 3248TIP3    H231380   4.257   0.162   0.866  0.3219 -0.7796  0.4109
 3249TIP3   OH231381   5.316   1.199   1.073 -0.7035 -0.3880 -0.0771
 3249TIP3    H131382   5.359   1.120   1.106 -2.0888 -0.2940  2.1566
 3249TIP3    H231383   5.224   1.174   1.064 -1.3181  1.1389  1.4480
 3250TIP3   OH231384   5.034   5.596   1.599 -0.2373  0.2864 -0.3047
 3250TIP3    H131385   4.966   5.576   1.663 -1.1313 -0.7419 -1.5217
 3250TIP3    H231386   5.055   5.688   1.613 -0.1184 -0.0006  1.7029
 3251TIP3   OH231387   4.967   3.702   6.419 -0.1410  0.0186 -0.3021
 3251TIP3    H131388   4.917   3.662   6.348  0.2129 -1.7581  0.4141
 3251TIP3    H231389   5.032   3.637   6.443  0.6133  1.1196  0.7712
 3252TIP3   OH231390   4.521   1.659   0.483 -0.1580  0.9874 -0.1470
 3252TIP3    H131391   4.517   1.686   0.391 -2.1005  3.6990  0.5977
 3252TIP3    H231392   4.579   1.724   0.524 -1.3426  1.3681  0.9646
 3253TIP3   OH231393   5.475   5.360   0.562  0.2165 -0.1764  0.3329
 3253TIP3    H131394   5.423   5.307   0.501  1.8199  0.0445 -1.2978
 3253TIP3    H231395   5.526   5.296   0.611  0.2069 -0.2735  0.2178
 3254TIP3   OH231396   4.082   0.037   7.048  0.2917 -0.0332 -0.3018
 3254TIP3    H131397   4.143   0.002   6.983  1.0304  0.0639  0.3288
 3254TIP3    H231398   4.120   0.120   7.076  1.2254 -1.1097  1.9113
 3255TIP3   OH231399   4.624   0.994   1.115  0.0961 -1.0732  0.0631
 3255TIP3    H131400   4.539   1.029   1.088  0.6200 -1.1591 -1.8208
 3255TIP3    H231401   4.622   0.902   1.087  1.2108 -0.7871 -1.0230
 3256TIP3   OH231402   4.749   3.835   7.130  0.0516  0.0576  0.0763
 3256TIP3    H131403   4.773   3.788   7.050  0.6199  0.9002 -0.2592
 3256TIP3    H231404   4.762   3.927   7.109  1.9449  0.2337  1.6886
 3257TIP3   OH231405   4.583   5.147   7.908 -0.5237  0.5017  0.1821
 3257TIP3    H131406   4.662   5.096   7.894 -2.4017 -1.8506 -3.6540
 3257TIP3    H231407   4.531   5.095   7.969 -0.2927  0.5928  0.4581
 3258TIP3   OH231408   5.402   0.117   7.832 -0.3285  0.0040 -0.3800
 3258TIP3    H131409   5.466   0.187   7.845  0.7829 -1.2298  1.3440
 3258TIP3    H231410   5.444   0.039   7.869 -2.6939 -0.9413  0.5679
 3259TIP3   OH231411   5.737   0.772   1.359  0.4906  0.1596 -0.0336
 3259TIP3    H131412   5.654   0.726   1.341 -0.7611  2.1655  0.3223
 3259TIP3    H231413   5.794   0.746   1.286 -1.3581  0.8111 -1.8241
 3260TIP3   OH231414   4.664   6.820   7.314  0.0549 -0.3114 -0.3971
 3260TIP3    H131415   4.704   6.906   7.302 -1.9315  0.7797  0.1522
 3260TIP3    H231416   4.690   6.794   7.402 -2.2700  1.5723  1.0084
 3261TIP3   OH231417   5.351   3.119   1.130  0.1457  0.4705  0.6383
 3261TIP3    H131418   5.439   3.157   1.120 -0.2992  1.9276  1.8651
 3261TIP3    H231419   5.347   3.091   1.221 -0.6924  0.4927  0.6162
 3262TIP3   OH231420   2.151   7.009   5.973 -0.4004  0.1588  0.3936
 3262TIP3    H131421   2.215   6.942   5.948  0.0605 -0.3006  2.6197
 3262TIP3    H231422   2.177   7.035   6.061 -2.1464  1.3882  0.5817
 3263TIP3   OH231423   6.942   0.413   6.494 -0.7065  0.3284  0.2137
 3263TIP3    H131424   7.004   0.378   6.558  0.0817  1.1410 -0.0861
 3263TIP3    H231425   6.856   0.393   6.531 -0.2929 -1.2961  0.3747
 3264TIP3   OH231426   7.197   2.534   7.612 -0.2161 -0.0394 -0.0464
 3264TIP3    H131427   7.129   2.592   7.648 -1.3216 -2.0011  1.1906
 3264TIP3    H231428   7.275   2.555   7.663  0.5705  2.9999 -2.1894
 3265TIP3   OH231429   1.729   5.573   2.016  0.0960 -0.4586 -0.0426
 3265TIP3    H131430   1.814   5.545   2.050  0.0444 -0.3418  0.1874
 3265TIP3    H231431   1.672   5.496   2.029  0.3818 -0.8469 -1.0160
 3266TIP3   OH231432   2.042   7.001   2.027  0.4672 -0.0054  0.1933
 3266TIP3    H131433   2.051   6.983   1.933  0.7153 -1.2818  0.4459
 3266TIP3    H231434   2.116   6.957   2.068 -0.2394 -0.3903  1.0996
 3267TIP3   OH231435   2.118   1.320   0.297  0.2854 -0.6492  0.1569
 3267TIP3    H131436   2.173   1.294   0.223 -0.5232  0.5046 -0.8858
 3267TIP3    H231437   2.145   1.262   0.368 -0.0734 -2.9866 -1.4863
 3268TIP3   OH231438   4.936   0.115   0.137 -0.0935 -0.1197  0.2077
 3268TIP3    H131439   5.019   0.163   0.148 -1.1966  1.8605  0.3791
 3268TIP3    H231440   4.878   0.152   0.204 -1.8552  0.3245 -1.4728
 3269TIP3   OH231441   2.158   5.059   7.273  0.0878  0.4596  0.2012
 3269TIP3    H131442   2.207   5.085   7.352 -0.5784 -0.8905  1.1065
 3269TIP3    H231443   2.205   5.099   7.201  0.5375  2.0243  1.3088
 3270TIP3   OH231444   2.178   2.047   6.697  0.2521  0.3912  0.0958
 3270TIP3    H131445   2.142   2.081   6.779 -1.4035  4.0836 -1.8932
 3270TIP3    H231446   2.101   2.015   6.649  1.1108 -1.1326 -0.3476
 3271TIP3   OH231447   0.565   3.133   1.233 -0.1360  0.2427 -0.4139
 3271TIP3    H131448   0.622   3.179   1.172 -1.5525  2.0465 -0.4872
 3271TIP3    H231449   0.621   3.111   1.308  0.7749  1.4171 -0.7332
 3272TIP3   OH231450   6.420   5.108   0.554  0.6976  0.2420 -0.3845
 3272TIP3    H131451   6.433   5.038   0.619 -0.4879 -0.4530 -0.8521
 3272TIP3    H231452   6.350   5.075   0.498  0.8678  1.3600 -1.2826
 3273TIP3   OH231453   5.922   4.203   7.163  0.2344 -0.0892 -0.8626
 3273TIP3    H131454   5.872   4.281   7.187  0.1072 -0.4607  0.0966
 3273TIP3    H231455   5.900   4.188   7.071 -2.1479 -0.7636 -0.2507
 3274TIP3   OH231456   4.316   0.164   7.172 -0.4248  0.3715 -0.1718
 3274TIP3    H131457   4.393   0.108   7.165 -0.6648 -0.0939  0.7547
 3274TIP3    H231458   4.313   0.211   7.089 -0.2562 -1.0409 -1.0115
 3275TIP3   OH231459   3.082   1.524   7.512 -0.3981  0.0581 -0.2299
 3275TIP3    H131460   3.034   1.595   7.470 -0.9217  0.0227  0.2961
 3275TIP3    H231461   3.013   1.467   7.547  0.0276  0.0001  0.5202
 3276TIP3   OH231462   6.463   6.209   1.708  0.3980 -0.1431  0.0890
 3276TIP3    H131463   6.541   6.159   1.686  0.5690  0.5557 -0.9765
 3276TIP3    H231464   6.496   6.287   1.753  0.3422  0.2309 -0.5020
 3277TIP3   OH231465   2.863   0.580   6.114 -0.3268  0.0528  0.6012
 3277TIP3    H131466   2.896   0.519   6.047 -3.4306 -0.5484 -0.5868
 3277TIP3    H231467   2.846   0.661   6.066  0.0153  0.5329  1.2853
 3278TIP3   OH231468   6.797   3.270   0.988  0.1192  0.1000  0.5839
 3278TIP3    H131469   6.785   3.193   1.044 -1.2641 -0.0835  0.1007
 3278TIP3    H231470   6.713   3.278   0.941  0.1351  2.0413  0.7940
 3279TIP3   OH231471   4.705   5.705   0.895 -0.2839 -0.0082  0.3626
 3279TIP3    H131472   4.773   5.656   0.941  0.4729 -0.2939 -1.0163
 3279TIP3    H231473   4.753   5.775   0.849 -1.0889  0.6552  0.5088
 3280TIP3   OH231474   6.170   1.802   0.573  0.4181  0.0642 -0.2188
 3280TIP3    H131475   6.160   1.897   0.578  3.7052  0.4981 -0.1870
 3280TIP3    H231476   6.204   1.777   0.658  2.4621 -0.6489 -1.1817
 3281TIP3   OH231477   5.376   6.526   6.428  0.1710  0.5344 -0.5855
 3281TIP3    H131478   5.373   6.438   6.391 -0.4114 -0.6910  2.1117
 3281TIP3    H231479   5.295   6.534   6.478  0.7491  2.1453  0.1689
 3282TIP3   OH231480   3.858   5.092   6.998 -0.0952 -0.3589 -0.3787
 3282TIP3    H131481   3.785   5.087   7.060  0.6255 -0.6347  0.4651
 3282TIP3    H231482   3.870   5.186   6.983  0.2394 -0.2514  0.5265
 3283TIP3   OH231483   3.583   6.777   6.110  0.0831 -0.0914  0.9375
 3283TIP3    H131484   3.594   6.859   6.158 -0.1055  0.9267 -0.7068
 3283TIP3    H231485   3.660   6.725   6.134  1.4764  1.5137  0.1517
 3284TIP3   OH231486   2.771   3.599   7.287  0.8364  0.3963 -0.6281
 3284TIP3    H131487   2.821   3.549   7.223  1.9864  0.0439  0.5008
 3284TIP3    H231488   2.697   3.543   7.310  1.2665 -0.1319 -0.5172
 3285TIP3   OH231489   2.088   2.217   7.569 -0.2830  0.1870  0.0459
 3285TIP3    H131490   1.998   2.195   7.593 -0.1625 -2.1639 -1.3257
 3285TIP3    H231491   2.142   2.174   7.635 -0.1550  0.4802  0.1299
 3286TIP3   OH231492   3.761   4.581   7.762 -0.3177  0.3238  0.1859
 3286TIP3    H131493   3.816   4.504   7.753 -0.3445  0.4523 -1.3929
 3286TIP3    H231494   3.800   4.645   7.702 -2.3920  0.2625 -1.3304
 3287TIP3   OH231495   0.460   3.367   0.366 -0.0223  0.0412 -0.1099
 3287TIP3    H131496   0.511   3.426   0.310  1.5659 -0.0436  1.1761
 3287TIP3    H231497   0.512   3.287   0.371  0.2073  0.2656  1.9559
 3288TIP3   OH231498   6.430   1.861   0.838  0.3330  0.0058 -0.1290
 3288TIP3    H131499   6.469   1.774   0.830  0.1729 -0.0090 -0.8090
 3288TIP3    H231500   6.336   1.844   0.839  0.3048  0.1630 -0.1917
 3289TIP3   OH231501   3.450   6.208   1.083  0.1446  0.4817 -0.0101
 3289TIP3    H131502   3.525   6.202   1.142 -0.7689  2.4272  1.4833
 3289TIP3    H231503   3.479   6.264   1.012  0.3486  0.5564  0.1317
 3290TIP3   OH231504   3.379   5.961   7.885 -0.1357  0.3660  0.8942
 3290TIP3    H131505   3.430   5.888   7.919 -0.1746 -0.3151 -0.4558
 3290TIP3    H231506   3.288   5.932   7.892 -0.0826 -0.4849 -1.2435
 3291TIP3   OH231507   4.670   5.671   0.138  0.5431 -0.3053  0.0011
 3291TIP3    H131508   4.688   5.607   0.069 -0.5891  0.5147 -1.0965
 3291TIP3    H231509   4.742   5.734   0.131 -0.5320  0.8333 -1.7831
 3292TIP3   OH231510   3.439   3.969   7.118  0.0578  0.2406  0.2275
 3292TIP3    H131511   3.413   3.917   7.194 -0.1303 -0.6729 -0.4409
 3292TIP3    H231512   3.483   4.045   7.155 -0.9571  0.3461  1.2882
 3293TIP3   OH231513   5.506   5.566   7.163  0.5817 -0.1889 -0.5969
 3293TIP3    H131514   5.426   5.555   7.112  0.7005 -2.3039 -0.4364
 3293TIP3    H231515   5.519   5.480   7.205  1.2724  1.0018  1.8395
 3294TIP3   OH231516   1.994   1.178   7.181  0.5884  0.3923  0.0058
 3294TIP3    H131517   2.058   1.181   7.109  1.8260  2.1835  1.0756
 3294TIP3    H231518   2.046   1.153   7.257 -0.3982 -0.0178  0.5496
 3295TIP3   OH231519   5.380   4.986   7.118 -0.3100 -0.0108 -0.0591
 3295TIP3    H131520   5.349   5.022   7.035  0.0578 -2.0715 -1.1658
 3295TIP3    H231521   5.468   4.953   7.098  0.2731  0.5028  1.4893
 3296TIP3   OH231522   6.061   4.162   6.699 -0.0063 -0.7942  0.2405
 3296TIP3    H131523   5.978   4.141   6.656  0.8349  1.6418 -2.9939
 3296TIP3    H231524   6.036   4.216   6.773 -1.3608 -1.4831  0.3243
 3297TIP3   OH231525   5.822   0.058   1.363  0.3388 -0.1321 -0.0747
 3297TIP3    H131526   5.756   0.042   1.295 -0.1115  2.2413 -0.3009
 3297TIP3    H231527   5.793   0.007   1.438  1.2706 -3.4852 -1.8081
 3298TIP3   OH231528   4.266   3.532   6.748 -0.3773  0.5134  0.0036
 3298TIP3    H131529   4.332   3.469   6.718 -1.3104  0.1400 -1.3172
 3298TIP3    H231530   4.233   3.573   6.669 -1.6720  0.7607  0.6373
 3299TIP3   OH231531   0.121   1.899   6.388  0.3322  0.1534  0.6023
 3299TIP3    H131532   0.190   1.872   6.328 -0.4208 -3.0553  1.0210
 3299TIP3    H231533   0.154   1.876   6.475 -0.5055  0.3629  0.9863
 3300TIP3   OH231534   6.352   2.627   0.833 -0.3395 -0.2739  0.4897
 3300TIP3    H131535   6.344   2.613   0.928  1.4149 -2.1781  0.4230
 3300TIP3    H231536   6.264   2.609   0.799 -0.6323 -1.0927  1.6000
 3301TIP3   OH231537   7.175   4.707   6.103 -0.7162 -0.5087  0.0716
 3301TIP3    H131538   7.239   4.733   6.169 -0.5107 -0.0454 -0.3088
 3301TIP3    H231539   7.219   4.640   6.051 -0.2229  0.4192 -0.7280
 3302TIP3   OH231540   6.805   4.488   6.390 -0.3221  0.1640  0.2492
 3302TIP3    H131541   6.770   4.456   6.473 -0.0299  0.0305  0.3253
 3302TIP3    H231542   6.868   4.555   6.416 -0.5939  0.4709  0.1106
 3303TIP3   OH231543   1.993   4.172   0.593 -0.0377 -0.4376  0.4695
 3303TIP3    H131544   1.996   4.078   0.610  0.5354 -0.3546  0.8358
 3303TIP3    H231545   1.931   4.205   0.658  1.5606 -0.2336  1.9761
 3304TIP3   OH231546   4.523   4.723   1.079 -0.2031 -0.1818  0.1340
 3304TIP3    H131547   4.567   4.702   1.161 -1.4010 -0.8476  0.6216
 3304TIP3    H231548   4.448   4.664   1.075  0.0430 -0.4401 -1.6366
 3305TIP3   OH231549   6.337   7.036   2.161 -0.9707 -0.2093  0.0837
 3305TIP3    H131550   6.300   7.118   2.193  0.0247  0.1904  0.2423
 3305TIP3    H231551   6.293   6.968   2.211 -0.2437  0.3423  1.5243
 3306TIP3   OH231552   0.008   1.518   6.098  0.4484 -0.4068 -1.0129
 3306TIP3    H131553  -0.052   1.521   6.173  1.7587 -1.0850  0.1161
 3306TIP3    H231554   0.008   1.607   6.064  1.1013  0.3728  0.8809
 3307TIP3   OH231555   3.459   1.380   2.003  0.1683 -0.2262 -0.6818
 3307TIP3    H131556   3.464   1.457   1.946 -0.1100 -0.8089 -1.5182
 3307TIP3    H231557   3.522   1.398   2.073  1.3757  0.0136 -1.7912
 3308TIP3   OH231558   0.949   5.741   6.805  0.2575 -0.5124 -0.4694
 3308TIP3    H131559   0.898   5.701   6.734  1.4987 -0.1610 -1.6047
 3308TIP3    H231560   1.040   5.718   6.785  0.6673 -0.1061  0.8348
 3309TIP3   OH231561   6.747   6.014   1.448 -0.4937 -0.0570 -0.0401
 3309TIP3    H131562   6.746   5.918   1.437  1.1112 -0.6200  3.5406
 3309TIP3    H231563   6.830   6.041   1.409 -0.0755 -0.4114  0.5874
 3310TIP3   OH231564   6.510   0.312   6.680  0.2580  0.5234 -0.5062
 3310TIP3    H131565   6.598   0.281   6.703  0.1992  2.1103  2.2979
 3310TIP3    H231566   6.524   0.372   6.607  1.2400 -0.5731 -1.2644
 3311TIP3   OH231567   2.476   6.643   0.214  0.3390 -0.0521 -0.7578
 3311TIP3    H131568   2.551   6.641   0.155 -0.7266 -2.0616 -2.1629
 3311TIP3    H231569   2.411   6.587   0.172 -1.3529  0.3167  1.2116
 3312TIP3   OH231570   3.072   4.990   6.482 -0.0385  0.2628 -0.5116
 3312TIP3    H131571   3.075   5.034   6.397  0.0166  0.1192 -0.5842
 3312TIP3    H231572   3.027   5.052   6.540 -0.3826  0.2250 -0.7305
 3313TIP3   OH231573   3.481   4.861   0.778  0.1993 -0.3247  0.3176
 3313TIP3    H131574   3.493   4.768   0.759  1.1477 -0.2896  0.6874
 3313TIP3    H231575   3.417   4.890   0.714  1.6066 -0.7181 -1.3320
 3314TIP3   OH231576   2.915   2.509   6.884  0.5378 -0.0407 -0.4155
 3314TIP3    H131577   2.840   2.564   6.908 -1.3458 -3.0424  1.3324
 3314TIP3    H231578   2.965   2.500   6.965  0.9073 -0.6995 -0.7066
 3315TIP3   OH231579   7.103   0.303   7.613 -0.2662  0.1399 -0.1932
 3315TIP3    H131580   7.033   0.340   7.666  0.5722  2.8419 -0.7987
 3315TIP3    H231581   7.181   0.312   7.668  0.0592 -0.1801 -0.5998
 3316TIP3   OH231582   2.910   4.989   7.090  0.5138 -0.2941  0.8267
 3316TIP3    H131583   2.922   5.075   7.128 -0.7489 -0.3222  1.3440
 3316TIP3    H231584   2.873   4.936   7.161 -0.1163 -0.8471  0.1115
 3317TIP3   OH231585   4.160   0.261   7.376 -0.9242  0.3141 -0.6683
 3317TIP3    H131586   4.234   0.305   7.417 -0.9811  1.1856 -1.4800
 3317TIP3    H231587   4.195   0.230   7.292 -0.9791 -0.9050 -0.2611
 3318TIP3   OH231588   2.603   2.255   6.341 -0.2482 -0.3157  0.0538
 3318TIP3    H131589   2.577   2.173   6.383  1.1753 -0.3281  0.9836
 3318TIP3    H231590   2.567   2.249   6.252  1.7293 -3.0209 -0.7115
 3319TIP3   OH231591   2.509   0.512   6.751 -0.5713 -0.7830  0.3985
 3319TIP3    H131592   2.494   0.602   6.780  0.2221 -1.1220  2.0061
 3319TIP3    H231593   2.592   0.516   6.703 -0.6102 -0.6320  0.3426
 3320TIP3   OH231594   2.286   6.211   6.842 -0.0169 -0.1904  0.6267
 3320TIP3    H131595   2.209   6.184   6.891  0.5936 -0.3389  1.5358
 3320TIP3    H231596   2.293   6.305   6.857  0.6887 -0.3845  1.6077
 3321TIP3   OH231597   5.659   1.614   7.925  0.6572 -0.4050 -0.2507
 3321TIP3    H131598   5.615   1.698   7.909 -1.0182 -1.2701 -0.4672
 3321TIP3    H231599   5.731   1.612   7.861 -0.4454  0.0661 -1.5688
 3322TIP3   OH231600   1.129   5.450   7.768  0.0718 -0.3197  0.1669
 3322TIP3    H131601   1.066   5.518   7.791 -0.1995  0.1685 -1.8600
 3322TIP3    H231602   1.206   5.469   7.821 -0.6692  0.4135  1.0185
 3323TIP3   OH231603   6.692   5.710   7.747  0.2324 -0.6039 -0.0619
 3323TIP3    H131604   6.765   5.680   7.801  0.5581  0.5007  0.1400
 3323TIP3    H231605   6.713   5.681   7.658  0.3098 -1.3325  0.1843
 3324TIP3   OH231606   1.689   2.692   1.112  0.2821 -0.6026 -0.0867
 3324TIP3    H131607   1.723   2.719   1.198  0.4388  0.1429 -0.3775
 3324TIP3    H231608   1.701   2.769   1.056 -3.3912  0.3402  0.1933
 3325TIP3   OH231609   5.797   6.664   6.380  0.5684 -0.3119 -0.5170
 3325TIP3    H131610   5.837   6.598   6.322 -1.0020 -0.7147 -1.1796
 3325TIP3    H231611   5.776   6.615   6.460 -1.0854 -0.8014 -1.2055
 3326TIP3   OH231612   0.196   4.107   7.287 -0.0919  0.3811  0.2004
 3326TIP3    H131613   0.228   4.031   7.238  1.1434  0.3431  1.0218
 3326TIP3    H231614   0.213   4.182   7.230 -0.4378  0.1512 -0.2128
 3327TIP3   OH231615   1.942   0.179   7.719 -0.1196 -0.4404 -0.5497
 3327TIP3    H131616   1.983   0.238   7.782  0.9238 -2.6336  0.9635
 3327TIP3    H231617   2.003   0.177   7.645  0.3327 -0.3527 -0.1859
 3328TIP3   OH231618   0.388   1.759   1.073  0.2904  0.2071 -0.4070
 3328TIP3    H131619   0.293   1.772   1.073  0.2292 -0.2125  0.3580
 3328TIP3    H231620   0.402   1.681   1.126  1.0350  0.0201 -0.8698
 3329TIP3   OH231621   5.019   3.217   1.713  0.5317  0.8655 -0.0081
 3329TIP3    H131622   5.002   3.182   1.800 -2.4172  1.9425 -0.0555
 3329TIP3    H231623   5.107   3.186   1.692  0.2265 -1.8432  2.1399
 3330TIP3   OH231624   0.637   2.125   0.048 -0.5376 -0.0689  0.1044
 3330TIP3    H131625   0.615   2.152  -0.041 -1.5401 -0.4709  0.2211
 3330TIP3    H231626   0.666   2.035   0.039  1.4430  0.5376 -0.0887
 3331TIP3   OH231627   2.512   5.181   1.079 -0.0185 -0.4475  0.0620
 3331TIP3    H131628   2.500   5.275   1.090  1.0031 -0.1157 -1.3716
 3331TIP3    H231629   2.483   5.162   0.990  2.4900 -0.9022 -0.7614
 3332TIP3   OH231630   1.724   4.400   1.838 -0.2412 -0.1747  0.1123
 3332TIP3    H131631   1.669   4.356   1.773 -1.5663  0.4893  0.7451
 3332TIP3    H231632   1.802   4.426   1.790 -1.7267  1.4372 -1.5906
 3333TIP3   OH231633   6.525   0.655   1.450 -0.1160  0.2949  0.4847
 3333TIP3    H131634   6.456   0.697   1.501  1.3627  2.8127  0.5730
 3333TIP3    H231635   6.498   0.665   1.359  0.5990  2.4020  0.4363
 3334TIP3   OH231636   4.281   1.100   0.222 -0.2707 -0.3854 -0.3777
 3334TIP3    H131637   4.227   1.153   0.163 -0.6374 -0.7297 -0.3578
 3334TIP3    H231638   4.272   1.143   0.307 -0.2389 -0.2433 -0.4460
 3335TIP3   OH231639   4.077   6.200   2.152 -0.1853 -0.1734 -0.5858
 3335TIP3    H131640   4.161   6.235   2.183 -0.2028 -1.0218  0.4649
 3335TIP3    H231641   4.098   6.112   2.121 -0.7909 -0.6157  0.2389
 3336TIP3   OH231642   7.219   1.983   6.777 -0.3725  0.3672 -0.3610
 3336TIP3    H131643   7.175   1.982   6.692 -1.2707 -0.4591  0.1028
 3336TIP3    H231644   7.273   2.062   6.774 -0.1397  0.1907 -1.8175
 3337TIP3   OH231645   1.352   0.127   0.539  0.1598  0.0716  0.3924
 3337TIP3    H131646   1.257   0.128   0.556  0.0416 -0.0779 -0.2561
 3337TIP3    H231647   1.391   0.119   0.626 -0.4222  0.1995  0.6720
 3338TIP3   OH231648   5.533   5.659   7.795  0.3703 -0.5526 -0.5411
 3338TIP3    H131649   5.580   5.576   7.797  2.8401  0.7734  0.2753
 3338TIP3    H231650   5.556   5.698   7.711  2.0459  0.7459  0.4552
 3339TIP3   OH231651   6.193   2.032   0.764 -0.4983  0.1893  0.4936
 3339TIP3    H131652   6.150   2.103   0.716 -0.8107  0.2014  0.7925
 3339TIP3    H231653   6.197   2.063   0.854  1.8155  1.0017  0.1731
 3340TIP3   OH231654   1.197   2.011   1.507 -0.1991  0.0998 -0.0482
 3340TIP3    H131655   1.197   2.012   1.412  1.3786  1.3088 -0.0730
 3340TIP3    H231656   1.282   1.973   1.531  0.0411  1.1254  0.8350
 3341TIP3   OH231657   1.197   0.960   1.490 -0.0150  0.1434 -0.3525
 3341TIP3    H131658   1.150   0.974   1.573 -0.3981 -1.4415 -0.2692
 3341TIP3    H231659   1.223   0.868   1.493 -0.2564 -0.0103 -2.1221
 3342TIP3   OH231660   4.024   6.207   0.105  0.0191 -0.3691 -0.0961
 3342TIP3    H131661   4.071   6.166   0.033  1.5405  0.3211  0.4697
 3342TIP3    H231662   3.987   6.286   0.067 -0.7587 -0.9279 -0.5490
 3343TIP3   OH231663   2.773   6.382   7.075 -0.1673 -0.8671 -0.1565
 3343TIP3    H131664   2.815   6.458   7.035 -1.0018 -0.1263  0.3451
 3343TIP3    H231665   2.800   6.385   7.167 -1.6170 -0.1434  0.2677
 3344TIP3   OH231666   1.267   4.922   0.412  0.1087  1.0651  0.1766
 3344TIP3    H131667   1.350   4.889   0.376 -0.7758 -0.5504 -0.4653
 3344TIP3    H231668   1.201   4.896   0.348 -1.0527  1.2550  1.2622
 3345TIP3   OH231669   6.650   2.754   7.573 -0.5356  0.0761 -0.0892
 3345TIP3    H131670   6.708   2.809   7.626  0.1237 -0.9989  0.3216
 3345TIP3    H231671   6.567   2.755   7.620  0.2815 -1.5724  1.4875
 3346TIP3   OH231672   6.517   4.658   6.537 -0.9033  0.1357  0.1926
 3346TIP3    H131673   6.564   4.579   6.565 -0.6643  0.2694  0.1704
 3346TIP3    H231674   6.426   4.629   6.528 -0.6576 -0.3892 -0.7631
 3347TIP3   OH231675   5.991   4.558   7.445 -0.7168  0.7659 -0.5206
 3347TIP3    H131676   6.001   4.638   7.392 -2.2477  1.8801  0.7540
 3347TIP3    H231677   6.064   4.561   7.507 -0.4652  0.9023 -0.8192
 3348TIP3   OH231678   0.622   7.056   7.948  0.4327  0.4508 -0.5525
 3348TIP3    H131679   0.538   7.046   7.993  0.6105 -2.9940 -0.7053
 3348TIP3    H231680   0.598   7.061   7.855  0.3457  0.7846 -0.5131
 3349TIP3   OH231681   4.069   3.691   7.206  0.0064  0.4022  0.1568
 3349TIP3    H131682   3.999   3.636   7.241  0.3876 -0.1416  0.0698
 3349TIP3    H231683   4.145   3.634   7.202  0.2320  0.7441 -0.5983
 3350TIP3   OH231684   2.802   1.954   7.574 -0.3062  0.0748  0.1636
 3350TIP3    H131685   2.768   2.032   7.530 -0.1760  0.2984  0.4539
 3350TIP3    H231686   2.837   1.987   7.657  2.3861  0.1682 -0.9288
 3351TIP3   OH231687   3.099   6.073   0.604  0.0791  0.4287  0.4130
 3351TIP3    H131688   3.077   6.158   0.643  0.9364  0.4001  0.9685
 3351TIP3    H231689   3.014   6.036   0.579 -0.6012  0.1512  2.8515
 3352TIP3   OH231690   1.575   3.774   2.482 -0.3284  0.0243  0.5728
 3352TIP3    H131691   1.515   3.805   2.415  0.0994  0.6353  0.4641
 3352TIP3    H231692   1.522   3.717   2.538 -0.5985 -0.7628 -0.4713
 3353TIP3   OH231693   0.735   0.417   1.397 -0.0940  0.2483 -0.3570
 3353TIP3    H131694   0.737   0.430   1.492  0.7058 -1.9673 -0.0223
 3353TIP3    H231695   0.743   0.505   1.361 -1.0457  1.2024  1.6176
 3354TIP3   OH231696   0.406   0.919   0.296  0.6361  0.2194  0.4965
 3354TIP3    H131697   0.415   1.008   0.260 -0.6700  1.1055  2.1950
 3354TIP3    H231698   0.319   0.891   0.270  0.8514 -0.3538  0.3941
 3355TIP3   OH231699   3.766   5.887   0.810 -0.2657  0.1245  0.7667
 3355TIP3    H131700   3.718   5.944   0.870 -0.3626  0.4167  0.4156
 3355TIP3    H231701   3.734   5.799   0.830 -0.1434  0.1935  1.2853
 3356TIP3   OH231702   4.404   1.939   7.031 -0.2701  0.4941 -0.1127
 3356TIP3    H131703   4.341   1.968   7.097 -1.8500 -2.6500  0.0013
 3356TIP3    H231704   4.489   1.954   7.070 -1.0897  1.1116  1.5207
 3357TIP3   OH231705   1.147   2.415   5.896 -0.2733 -0.3180  0.7569
 3357TIP3    H131706   1.103   2.406   5.981  0.9049  2.3388  1.7601
 3357TIP3    H231707   1.084   2.464   5.842 -0.3286 -0.4705  0.6831
 3358TIP3   OH231708   6.860   5.492   1.583  0.0113  0.7761 -0.1728
 3358TIP3    H131709   6.859   5.398   1.563 -0.0413  0.3596  1.6226
 3358TIP3    H231710   6.920   5.500   1.657 -0.1614  2.1351 -0.1564
 3359TIP3   OH231711   3.566   4.999   6.321 -0.3585 -0.5009  0.8043
 3359TIP3    H131712   3.501   5.024   6.255 -0.1347  0.2257  0.8519
 3359TIP3    H231713   3.606   5.082   6.348 -0.0531 -0.8523  1.4430
 3360TIP3   OH231714   1.415   2.517   7.415  0.1294  0.4507 -0.0559
 3360TIP3    H131715   1.377   2.447   7.467 -0.4115  1.4513  0.9381
 3360TIP3    H231716   1.491   2.478   7.373  0.0976 -0.6058  0.8360
 3361TIP3   OH231717   0.401   3.455   1.571  0.4644 -0.9179  0.2054
 3361TIP3    H131718   0.379   3.382   1.514  0.8258 -1.8765  1.2623
 3361TIP3    H231719   0.342   3.446   1.646  0.8024 -0.3734  0.5454
 3362TIP3   OH231720   2.442   4.049   7.330  0.1098  0.5807  0.0443
 3362TIP3    H131721   2.352   4.016   7.323  0.3304 -1.0568  3.2370
 3362TIP3    H231722   2.459   4.055   7.424  3.2867  1.0456 -0.4323
 3363TIP3   OH231723   5.421   5.876   7.412  0.4612  0.7133 -0.0292
 3363TIP3    H131724   5.354   5.819   7.450  1.1830 -1.3848 -1.6398
 3363TIP3    H231725   5.377   5.918   7.338  0.4163  0.7437  0.0155
 3364TIP3   OH231726   6.759   1.819   1.831  0.0599  0.1207 -0.0297
 3364TIP3    H131727   6.710   1.895   1.800 -0.6736 -0.3544 -0.0536
 3364TIP3    H231728   6.789   1.843   1.918  1.6096  1.2321 -0.8066
 3365TIP3   OH231729   0.692   3.227   0.116  0.6011 -0.6015 -0.7616
 3365TIP3    H131730   0.617   3.183   0.076 -0.2496 -1.1829  1.3573
 3365TIP3    H231731   0.744   3.156   0.154 -1.6527  0.0030  4.2202
 3366TIP3   OH231732   2.601   3.225   7.091  0.9100 -0.2996 -0.3624
 3366TIP3    H131733   2.630   3.180   7.011 -0.1596 -1.6297 -0.0351
 3366TIP3    H231734   2.662   3.195   7.158  1.0697 -0.1406 -0.4369
 3367TIP3   OH231735   5.677   7.158   5.665  0.7242 -0.2599  0.3023
 3367TIP3    H131736   5.712   7.237   5.706  1.4247  0.0284 -0.8046
 3367TIP3    H231737   5.594   7.143   5.709  1.8369 -0.5091  2.4670
 3368TIP3   OH231738   5.792   3.372   6.318  0.1627  0.3309  0.1623
 3368TIP3    H131739   5.855   3.443   6.307 -0.3471  0.9593  1.1232
 3368TIP3    H231740   5.707   3.415   6.309 -0.1472 -0.4031 -0.5542
 3369TIP3   OH231741   1.487   5.876   2.024  0.1611 -0.0223 -0.1575
 3369TIP3    H131742   1.528   5.853   2.108 -1.6818  1.7552  1.3541
 3369TIP3    H231743   1.420   5.809   2.011 -0.1850  0.2115  0.3375
 3370TIP3   OH231744   2.597   6.352   7.416 -0.3380  0.1984 -0.1223
 3370TIP3    H131745   2.684   6.366   7.380  0.0667 -0.5721  0.5495
 3370TIP3    H231746   2.549   6.433   7.394  0.8042  1.0181  0.3178
 3371TIP3   OH231747   5.152   6.513   6.913  0.4696 -0.3032  0.4304
 3371TIP3    H131748   5.223   6.512   6.849 -0.5383 -1.4380 -0.7296
 3371TIP3    H231749   5.166   6.593   6.964  1.9114  0.0718 -0.5014
 3372TIP3   OH231750   3.498   1.355   7.577 -0.2974  0.1032  0.4069
 3372TIP3    H131751   3.544   1.329   7.497  1.3383  0.6289  1.1167
 3372TIP3    H231752   3.468   1.273   7.615  2.8485 -0.7092  1.4772
 3373TIP3   OH231753   0.846   1.092   0.804 -0.5852  0.4656 -0.3876
 3373TIP3    H131754   0.825   1.104   0.896 -0.3703 -1.2621 -0.0841
 3373TIP3    H231755   0.939   1.072   0.803 -0.6818  0.0205 -0.9299
 3374TIP3   OH231756   4.675   5.631   1.420 -0.1325  0.2286  0.7316
 3374TIP3    H131757   4.767   5.638   1.396  0.1642 -2.1663  0.9497
 3374TIP3    H231758   4.630   5.692   1.361  1.5314  1.2798  0.4741
 3375TIP3   OH231759   3.953   5.450   0.239  0.3566  0.4085 -0.6852
 3375TIP3    H131760   4.007   5.392   0.292  0.1299  0.0033 -0.8923
 3375TIP3    H231761   3.884   5.393   0.204 -1.7945  1.3868  1.6756
 3376TIP3   OH231762   4.782   1.600   1.090 -0.2509  0.0044 -0.1059
 3376TIP3    H131763   4.734   1.519   1.074 -0.8941  0.6488 -1.6806
 3376TIP3    H231764   4.873   1.573   1.101 -0.4260 -0.9138 -0.8457
 3377TIP3   OH231765   1.026   6.809   7.518  0.6897  1.0212 -0.1873
 3377TIP3    H131766   1.038   6.763   7.435 -1.2059  2.7102 -1.5126
 3377TIP3    H231767   1.105   6.861   7.529  1.9303 -0.8916  0.2627
 3378TIP3   OH231768   2.824   1.683   1.466  0.1004 -0.3354 -0.0846
 3378TIP3    H131769   2.901   1.678   1.409  0.1931  0.2199 -0.0171
 3378TIP3    H231770   2.855   1.729   1.544 -0.2123 -0.4215  0.0899
 3379TIP3   OH231771   4.960   1.145   6.221 -0.1688 -1.0504  0.2672
 3379TIP3    H131772   4.960   1.192   6.137 -1.1908  0.7306  1.2056
 3379TIP3    H231773   5.052   1.137   6.243  0.0628  0.2330 -0.1101
 3380TIP3   OH231774   7.022   5.630   0.536  0.3789  0.0823  0.1189
 3380TIP3    H131775   7.025   5.626   0.632  1.1353  1.9272  0.2264
 3380TIP3    H231776   6.942   5.679   0.517  0.5420  0.2503 -0.1420
 3381TIP3   OH231777   3.245   1.412   0.589 -0.2516 -0.1749  0.5146
 3381TIP3    H131778   3.238   1.429   0.683 -1.8205 -2.3360  0.8678
 3381TIP3    H231779   3.282   1.324   0.583  0.0457  0.0190 -0.9145
 3382TIP3   OH231780   7.135   4.605   7.846  0.1778 -0.5690 -0.3513
 3382TIP3    H131781   7.102   4.518   7.823 -0.9289  0.1515 -1.7070
 3382TIP3    H231782   7.210   4.618   7.788 -0.0516 -0.3902 -0.6146
 3383TIP3   OH231783   5.748   5.807   7.910 -0.2312  0.0922  0.5446
 3383TIP3    H131784   5.668   5.771   7.873 -0.7054  1.4439  0.1976
 3383TIP3    H231785   5.784   5.736   7.963 -0.9651 -0.9703 -0.3259
 3384TIP3   OH231786   2.587   4.854   0.519  0.5351  0.2916  0.1769
 3384TIP3    H131787   2.530   4.814   0.585  1.0355  0.5077  0.7546
 3384TIP3    H231788   2.654   4.900   0.570  0.8665  0.5615 -0.4854
 3385TIP3   OH231789   4.517   5.799   7.734  0.0764 -0.1787 -0.1448
 3385TIP3    H131790   4.569   5.738   7.681  0.6079  0.1728 -0.0242
 3385TIP3    H231791   4.579   5.866   7.762 -0.2848 -0.1590  0.6152
 3386TIP3   OH231792   1.546   0.741   0.901 -0.0524 -0.3505 -0.0949
 3386TIP3    H131793   1.521   0.833   0.913 -1.2103 -0.7344  0.6997
 3386TIP3    H231794   1.465   0.699   0.870  0.6907 -0.9573 -1.2882
 3387TIP3   OH231795   4.868   1.713   7.521 -0.0173 -0.0584 -0.0892
 3387TIP3    H131796   4.910   1.656   7.457 -1.5096  1.1896 -2.2925
 3387TIP3    H231797   4.793   1.663   7.553 -0.8231  0.2845 -1.3745
 3388TIP3   OH231798   3.165   4.779   7.059  0.5860  0.5382 -0.0228
 3388TIP3    H131799   3.202   4.852   7.108 -1.3557  1.2917  0.4114
 3388TIP3    H231800   3.071   4.784   7.074 -0.1125  0.5546 -3.4488
 3389TIP3   OH231801   4.127   0.563   6.312 -0.2720  0.6037  0.3885
 3389TIP3    H131802   4.146   0.618   6.235  0.1615 -0.8368 -0.5927
 3389TIP3    H231803   4.164   0.611   6.386 -0.6164  1.9944 -0.3168
 3390TIP3   OH231804   2.014   6.204   6.055  0.6322  0.1587 -0.2376
 3390TIP3    H131805   2.081   6.242   5.999 -0.9079 -0.4849 -2.6786
 3390TIP3    H231806   1.933   6.247   6.027 -0.1999 -0.0600  1.6748
 3391TIP3   OH231807   2.783   1.089   1.280 -0.8244  0.1476  0.8644
 3391TIP3    H131808   2.797   1.058   1.191 -1.4626 -1.5465  1.3041
 3391TIP3    H231809   2.816   1.179   1.280  1.5122 -0.6085 -0.4265
 3392TIP3   OH231810   7.020   7.130   7.884 -0.1557  0.5265 -0.2603
 3392TIP3    H131811   6.950   7.189   7.855 -2.1211 -2.0468 -1.1467
 3392TIP3    H231812   7.095   7.153   7.830 -0.6189  2.5686 -0.1304
 3393TIP3   OH231813   4.526   0.582   7.357  0.2015 -0.2366  0.5841
 3393TIP3    H131814   4.541   0.494   7.324  1.1572 -0.0179  0.3995
 3393TIP3    H231815   4.437   0.581   7.390 -0.4548 -0.7511 -1.1135
 3394TIP3   OH231816   5.609   4.323   6.799 -0.3774  0.2258 -0.0169
 3394TIP3    H131817   5.620   4.402   6.851  1.0064 -0.3481  0.6342
 3394TIP3    H231818   5.579   4.353   6.714  1.9705  1.6572 -0.4148
 3395TIP3   OH231819   5.751   5.465   1.238 -0.3394  0.0007 -0.1552
 3395TIP3    H131820   5.779   5.375   1.252  0.0853  0.0760 -0.4720
 3395TIP3    H231821   5.723   5.468   1.146 -0.1739  0.2338 -0.1995
 3396TIP3   OH231822   1.826   5.926   6.144  0.2010 -0.5070  0.6026
 3396TIP3    H131823   1.873   6.010   6.139  0.6043 -0.7190  0.7407
 3396TIP3    H231824   1.811   5.901   6.053  1.5462 -1.0831  0.5145
 3397TIP3   OH231825   2.540   0.058   6.880  0.1240  0.5322  0.4416
 3397TIP3    H131826   2.547  -0.036   6.862  0.5981  0.7322 -0.4263
 3397TIP3    H231827   2.445   0.075   6.877  0.0922  0.2433 -0.2075
 3398TIP3   OH231828   5.281   0.970   6.920 -0.0127 -0.2458  0.2120
 3398TIP3    H131829   5.335   0.934   6.851 -0.6076 -0.8477  0.0422
 3398TIP3    H231830   5.323   1.053   6.944  0.5612 -0.3517 -0.4080
 3399TIP3   OH231831   6.925   4.084   7.914  0.6715 -0.3122 -0.0175
 3399TIP3    H131832   6.934   4.167   7.961  1.5119 -0.6533  0.4570
 3399TIP3    H231833   7.004   4.078   7.859  0.2755 -0.4694 -0.5732
 3400TIP3   OH231834   5.308   1.738   6.370  0.1839 -0.0978  0.2982
 3400TIP3    H131835   5.296   1.809   6.308 -0.1334  1.8803  2.4750
 3400TIP3    H231836   5.394   1.754   6.410  0.2554 -1.1480  0.6185
 3401TIP3   OH231837   1.113   3.386   6.962  0.2927 -0.0907  0.1989
 3401TIP3    H131838   1.125   3.309   6.906  3.3670 -0.0156  0.6028
 3401TIP3    H231839   1.108   3.352   7.051  2.0266  0.1531  0.4122
 3402TIP3   OH231840   5.014   4.213   6.441 -0.1123 -0.1792 -0.2342
 3402TIP3    H131841   4.949   4.182   6.504  1.9901 -1.7232  1.3389
 3402TIP3    H231842   5.064   4.280   6.489  0.2589  0.0688 -0.9497
 3403TIP3   OH231843   3.290   6.975   6.779 -0.3918 -0.3295  0.2190
 3403TIP3    H131844   3.338   7.041   6.828 -0.1507 -1.2306  1.2166
 3403TIP3    H231845   3.248   7.024   6.708  0.0956  0.8237  0.7073
 3404TIP3   OH231846   2.169   0.005   0.307  0.2296  0.2057 -0.0171
 3404TIP3    H131847   2.251  -0.001   0.356  0.3611  0.9568 -0.1290
 3404TIP3    H231848   2.106   0.037   0.372  0.2442  0.5324 -0.1620
 3405TIP3   OH231849   6.056   0.631   6.934  0.3765 -0.5199  0.1343
 3405TIP3    H131850   6.029   0.701   6.993 -0.1030  0.6127 -1.3825
 3405TIP3    H231851   6.117   0.578   6.986  0.7582  1.0204  1.3159
 3406TIP3   OH231852   0.884   0.192   6.247  0.2583  0.1338  0.0580
 3406TIP3    H131853   0.958   0.252   6.262 -1.3168  2.1642  0.1794
 3406TIP3    H231854   0.899   0.156   6.160  0.7843  1.4778 -0.4399
 3407TIP3   OH231855   3.753   0.437   1.550 -0.0894  0.0111  0.5420
 3407TIP3    H131856   3.829   0.475   1.507  0.4161 -1.0457  0.4496
 3407TIP3    H231857   3.785   0.409   1.636 -0.2249 -0.8834  0.3180
 3408TIP3   OH231858   0.944   6.822   0.216 -0.6747 -0.0867 -0.5791
 3408TIP3    H131859   1.003   6.763   0.169  1.3740  1.5509 -0.1930
 3408TIP3    H231860   0.964   6.909   0.182 -2.9954  0.5582 -0.4997
 3409TIP3   OH231861   1.275   3.597   6.967  0.0804  0.1131  0.2197
 3409TIP3    H131862   1.207   3.532   6.950  0.8709 -1.0721  1.4406
 3409TIP3    H231863   1.353   3.546   6.987  1.5001  1.4480 -1.6302
 3410TIP3   OH231864   3.547   3.545   0.238  0.3544 -0.1928  0.3485
 3410TIP3    H131865   3.641   3.535   0.254  0.5784  2.4198  1.0554
 3410TIP3    H231866   3.526   3.474   0.178  2.9824 -0.3078 -0.5725
 3411TIP3   OH231867   0.776   5.985   7.725 -0.1245  0.6861 -0.0384
 3411TIP3    H131868   0.701   5.936   7.692  0.5271 -0.5736  0.2924
 3411TIP3    H231869   0.802   6.041   7.651 -0.3540 -0.1019 -0.7341
 3412TIP3   OH231870   5.324   4.661   7.106  0.5429  0.1541 -0.1833
 3412TIP3    H131871   5.282   4.732   7.154  1.5274  0.9903 -0.5295
 3412TIP3    H231872   5.253   4.619   7.057  0.2697  2.5375 -2.0257
 3413TIP3   OH231873   5.042   3.066   7.585  0.1134 -0.5430  0.2749
 3413TIP3    H131874   5.039   3.013   7.664  1.5934 -1.9631 -0.5518
 3413TIP3    H231875   5.057   3.156   7.616  0.9734 -1.1119  1.6016
 3414TIP3   OH231876   4.472   3.176   1.960 -0.0408 -0.5325  0.2577
 3414TIP3    H131877   4.567   3.184   1.964 -0.1261  1.7521 -0.5758
 3414TIP3    H231878   4.439   3.260   1.990 -1.6324  0.1089 -2.7803
 3415TIP3   OH231879   5.525   7.093   6.057 -0.4315 -0.0787  0.5163
 3415TIP3    H131880   5.565   7.152   5.993 -0.3620 -0.3843  0.2770
 3415TIP3    H231881   5.483   7.026   6.004  1.1996 -1.3872  0.8036
 3416TIP3   OH231882   0.849   1.703   6.383 -0.3186  0.1995 -0.1737
 3416TIP3    H131883   0.893   1.773   6.334 -2.6540  1.4993 -0.5689
 3416TIP3    H231884   0.833   1.740   6.469 -0.8442 -0.1532 -0.1143
 3417TIP3   OH231885   3.002   1.778   6.313 -0.6367 -0.0672  0.0668
 3417TIP3    H131886   3.000   1.812   6.223 -2.8030 -1.6891 -0.5696
 3417TIP3    H231887   3.090   1.740   6.322 -0.1978  0.6024 -1.1564
 3418TIP3   OH231888   2.295   2.420   7.592  0.0728 -0.4133  0.1281
 3418TIP3    H131889   2.297   2.351   7.659 -0.4245 -0.5338  0.0183
 3418TIP3    H231890   2.235   2.388   7.525 -1.4984  0.8414  0.8749
 3419TIP3   OH231891   5.130   2.980   0.301 -0.2947  0.3151 -0.0938
 3419TIP3    H131892   5.119   3.046   0.369 -0.0213  0.7653 -0.4785
 3419TIP3    H231893   5.143   2.898   0.348  0.3654  0.6992  0.4072
 3420TIP3   OH231894   4.302   1.748   6.867 -0.1113 -0.2529 -0.2581
 3420TIP3    H131895   4.343   1.825   6.906  0.0313 -1.5986  2.4756
 3420TIP3    H231896   4.284   1.773   6.777  1.6467  2.3011  0.0159
 3421TIP3   OH231897   2.246   6.837   0.507  0.2080 -0.2115 -0.4681
 3421TIP3    H131898   2.335   6.860   0.481 -0.6939  1.9996 -1.9071
 3421TIP3    H231899   2.201   6.816   0.425 -1.1458  0.9450 -0.0739
 3422TIP3   OH231900   4.269   2.759   0.704  0.1842 -0.5779 -0.4318
 3422TIP3    H131901   4.260   2.782   0.612 -0.2252  1.4708  0.0861
 3422TIP3    H231902   4.223   2.676   0.712 -0.5948 -0.3190 -1.8735
 3423TIP3   OH231903   4.118   5.695   2.280  0.1254  0.0588 -0.0050
 3423TIP3    H131904   4.081   5.629   2.339  1.0465 -0.8743 -0.4460
 3423TIP3    H231905   4.209   5.704   2.308  0.5546 -0.3353 -1.2171
 3424TIP3   OH231906   1.409   2.580   0.052 -0.3953  0.3072 -0.2351
 3424TIP3    H131907   1.397   2.497   0.099  1.2194 -0.5632 -1.2471
 3424TIP3    H231908   1.389   2.559  -0.039  1.6780  0.5512 -0.7862
 3425TIP3   OH231909   2.645   5.897   0.708 -0.1283 -0.4084 -0.1485
 3425TIP3    H131910   2.592   5.942   0.773  0.8510 -0.7957  0.9496
 3425TIP3    H231911   2.611   5.808   0.706  0.3684 -0.6208  0.4593
 3426TIP3   OH231912   6.455   3.690   1.231 -0.7305 -0.2428  0.3342
 3426TIP3    H131913   6.443   3.784   1.215  0.6846  0.1118  1.1155
 3426TIP3    H231914   6.379   3.664   1.283 -1.1321  0.4566  0.1092
 3427TIP3   OH231915   1.329   2.161   7.177  0.2036  0.4202 -0.0314
 3427TIP3    H131916   1.253   2.218   7.191  1.6844  2.2438  1.0488
 3427TIP3    H231917   1.342   2.117   7.261 -0.5456 -1.0637 -0.6730
 3428TIP3   OH231918   6.488   2.357   1.465 -0.3383  0.5159 -0.2448
 3428TIP3    H131919   6.582   2.374   1.467 -0.2972  0.6787 -1.8093
 3428TIP3    H231920   6.467   2.320   1.550  1.2052  0.1871  0.0033
 3429TIP3   OH231921   1.396   4.431   1.605 -0.3074 -0.4195  0.3684
 3429TIP3    H131922   1.410   4.497   1.673  0.8642 -0.3701  0.0982
 3429TIP3    H231923   1.301   4.428   1.594 -0.6883 -1.5040  3.0722
 3430TIP3   OH231924   1.010   0.161   6.576 -0.6636  0.5253 -0.6183
 3430TIP3    H131925   0.923   0.168   6.616 -0.2598  0.7538  0.2373
 3430TIP3    H231926   1.021   0.067   6.558 -0.6906  0.3678  0.1778
 3431TIP3   OH231927   5.406   5.540   6.360  0.2280  0.1079 -0.0314
 3431TIP3    H131928   5.496   5.536   6.393  0.1355 -0.7591  0.1478
 3431TIP3    H231929   5.410   5.498   6.274  0.0095  0.1520 -0.0646
 3432TIP3   OH231930   0.839   0.667   0.438  0.3117  0.5526  0.2193
 3432TIP3    H131931   0.873   0.721   0.508 -0.6302  0.3217  0.8835
 3432TIP3    H231932   0.753   0.704   0.419  0.5109  0.5435 -0.7399
 3433TIP3   OH231933   6.097   2.187   5.842 -0.1047  0.4211  0.1410
 3433TIP3    H131934   6.136   2.273   5.858  0.1103  0.2757  0.4118
 3433TIP3    H231935   6.015   2.206   5.796  0.1763  0.7429 -0.2323
 3434TIP3   OH231936   4.412   1.122   6.989 -0.5452  0.3173  0.6236
 3434TIP3    H131937   4.322   1.133   6.959 -0.2293  2.3120  0.2840
 3434TIP3    H231938   4.460   1.195   6.949  1.2254 -0.6829  0.8081
 3435TIP3   OH231939   4.475   6.787   6.363  0.1065 -0.1945  0.3559
 3435TIP3    H131940   4.458   6.695   6.346  1.6368 -0.7223  1.4325
 3435TIP3    H231941   4.500   6.824   6.278 -0.9921 -0.6308 -0.1733
 3436TIP3   OH231942   6.825   4.697   7.320  0.8140  0.0027 -0.9223
 3436TIP3    H131943   6.823   4.656   7.233 -1.1298 -1.5050 -0.2573
 3436TIP3    H231944   6.781   4.781   7.309 -0.4911 -0.6932 -1.2131
 3437TIP3   OH231945   5.600   1.990   1.531  0.0227  0.1307  0.2438
 3437TIP3    H131946   5.547   2.069   1.519  0.7283  0.4530 -0.9516
 3437TIP3    H231947   5.595   1.945   1.446  0.0667 -0.8447  0.7434
 3438TIP3   OH231948   6.053   6.893   7.245  0.8351 -0.7098 -0.2904
 3438TIP3    H131949   6.015   6.946   7.175  1.7935 -0.5043 -0.6695
 3438TIP3    H231950   6.062   6.806   7.207  0.2711 -0.8945 -0.0219
 3439TIP3   OH231951   2.810   0.706   1.765  0.1664  0.0439 -0.1521
 3439TIP3    H131952   2.831   0.638   1.701  0.4667 -0.8021  0.8055
 3439TIP3    H231953   2.734   0.672   1.812  0.4297  0.2809  0.4554
 3440TIP3   OH231954   1.160   6.095   1.359  0.0812  0.0660  0.0087
 3440TIP3    H131955   1.077   6.137   1.336  1.3665  2.4914 -0.6372
 3440TIP3    H231956   1.227   6.158   1.330  2.1564 -1.8500  0.3583
 3441TIP3   OH231957   6.770   0.436   0.759 -0.0322  0.0444  0.2599
 3441TIP3    H131958   6.801   0.431   0.849  0.8737  2.1392  0.1325
 3441TIP3    H231959   6.704   0.367   0.752  0.6896 -0.8995  2.1741
 3442TIP3   OH231960   4.570   7.011   6.198 -0.2564 -0.6121 -0.2784
 3442TIP3    H131961   4.540   7.058   6.121  0.0809 -1.5128 -0.9808
 3442TIP3    H231962   4.583   7.078   6.264 -1.6480  0.0422 -0.6481
 3443TIP3   OH231963   2.112   0.623   6.331 -0.2491  0.1146 -0.7365
 3443TIP3    H131964   2.179   0.672   6.284  0.9253 -1.0537 -0.3632
 3443TIP3    H231965   2.046   0.687   6.354  1.7450  1.7861  0.7521
 3444TIP3   OH231966   0.709   4.972   0.440  0.2295 -0.3078  0.1507
 3444TIP3    H131967   0.754   5.007   0.517  3.4816 -1.0796 -1.1991
 3444TIP3    H231968   0.743   4.883   0.431 -0.2153 -0.3137 -2.0285
 3445TIP3   OH231969   2.474   4.751   5.593 -0.2927 -0.2677  0.0916
 3445TIP3    H131970   2.385   4.753   5.629 -0.0968 -0.0758  0.5787
 3445TIP3    H231971   2.471   4.683   5.525 -0.4817 -1.1777  0.9857
 3446TIP3   OH231972   2.907   1.882   7.008 -0.1276  0.0333  0.6023
 3446TIP3    H131973   2.985   1.831   6.987 -1.0997 -1.1902 -0.1384
 3446TIP3    H231974   2.910   1.957   6.949  0.4252 -0.0667  0.5040
 3447TIP3   OH231975   2.574   2.388   7.545  0.0410 -0.0928  0.1855
 3447TIP3    H131976   2.650   2.407   7.601 -0.0188 -1.0587  0.6021
 3447TIP3    H231977   2.505   2.445   7.579  0.8794  1.7487 -0.9884
 3448TIP3   OH231978   5.773   4.578   0.116 -0.1998 -0.5603  0.0360
 3448TIP3    H131979   5.693   4.597   0.066 -0.2456 -1.7341 -0.3726
 3448TIP3    H231980   5.791   4.659   0.164 -1.5437 -0.2253  0.0140
 3449TIP3   OH231981   2.936   6.671   7.803  0.5849 -0.3524 -0.5836
 3449TIP3    H131982   2.846   6.639   7.803  0.4470  0.0336 -0.0297
 3449TIP3    H231983   2.928   6.766   7.794  0.8965 -0.2108  0.5394
 3450TIP3   OH231984   3.168   6.344   7.641 -0.5211  0.5097 -0.1974
 3450TIP3    H131985   3.218   6.349   7.722 -0.1135  0.5962 -0.4506
 3450TIP3    H231986   3.100   6.279   7.659  0.0134 -0.0127 -0.0272
 3451TIP3   OH231987   2.019   5.961   1.028  0.2825 -0.5660 -0.0547
 3451TIP3    H131988   2.014   5.881   1.080 -0.1679 -1.0589 -0.8395
 3451TIP3    H231989   2.113   5.970   1.009  0.3189 -0.9828 -0.0834
 3452TIP3   OH231990   0.999   2.575   7.181  0.2083 -0.0011 -0.9469
 3452TIP3    H131991   1.026   2.589   7.272  2.5440 -2.1946 -1.1835
 3452TIP3    H231992   0.905   2.560   7.185  0.2291  0.1852  1.0531
 3453TIP3   OH231993   4.040   1.914   6.739  0.5902  0.3453  0.2775
 3453TIP3    H131994   3.958   1.897   6.692  0.8087  0.7219 -0.2426
 3453TIP3    H231995   4.077   1.991   6.696  1.8428 -0.5602 -0.2954
 3454TIP3   OH231996   5.309   5.596   1.884  0.6135  1.1395 -0.4259
 3454TIP3    H131997   5.397   5.583   1.849  1.2739  2.4349  0.6442
 3454TIP3    H231998   5.305   5.690   1.905 -1.9044  1.6861 -2.7031
 3455TIP3   OH231999   6.570   4.395   5.552  0.7895 -0.5177  0.0075
 3455TIP3    H132000   6.634   4.351   5.607  1.4036  1.4173  0.9259
 3455TIP3    H232001   6.620   4.424   5.475  0.4979 -0.9854 -0.3644
 3456TIP3   OH232002   4.200   3.363   6.430  0.6738  0.7392  0.8859
 3456TIP3    H132003   4.200   3.278   6.385  3.9617 -0.1233  2.2083
 3456TIP3    H232004   4.107   3.381   6.446 -0.1862 -3.1284  1.4279
 3457TIP3   OH232005   5.736   6.785   0.338  0.1661 -0.0370 -1.1763
 3457TIP3    H132006   5.802   6.780   0.269  0.4282  1.5446 -1.0695
 3457TIP3    H232007   5.784   6.767   0.419  0.8465  2.5241 -0.9246
 3458TIP3   OH232008   4.199   6.255   0.991 -0.0160 -0.2332  0.4110
 3458TIP3    H132009   4.151   6.279   1.070 -1.0788 -0.7800 -0.0500
 3458TIP3    H232010   4.185   6.329   0.931  0.7180  0.1417  0.6897
 3459TIP3   OH232011   6.971   6.828   7.887  0.0152 -0.1264  0.2527
 3459TIP3    H132012   6.974   6.924   7.884 -0.7078 -0.1033  0.1958
 3459TIP3    H232013   7.062   6.802   7.906  1.0164  0.4566 -3.0318
 3460TIP3   OH232014   7.128   4.453   2.104  0.1126  0.1768  0.0004
 3460TIP3    H132015   7.080   4.381   2.064 -0.3634 -0.6275  1.9420
 3460TIP3    H232016   7.062   4.503   2.152  1.0011 -0.3405  1.8312
 3461TIP3   OH232017   1.682   3.913   0.740  0.0914  0.1338 -0.1741
 3461TIP3    H132018   1.751   3.975   0.763 -1.0459  0.6387  2.2785
 3461TIP3    H232019   1.681   3.851   0.813 -2.8427  0.9004  0.5379
 3462TIP3   OH232020   0.527   3.045   0.835  0.4776 -0.5279 -0.0386
 3462TIP3    H132021   0.453   2.989   0.860  1.2833 -1.2133  0.8624
 3462TIP3    H232022   0.601   3.010   0.884  1.0876  1.0965  0.2444
 3463TIP3   OH232023   0.490   3.523   2.010 -0.2050 -0.0364  0.1149
 3463TIP3    H132024   0.563   3.552   1.957  0.3641  2.3859  2.0636
 3463TIP3    H232025   0.421   3.587   1.994 -0.7118 -0.3851  0.8242
 3464TIP3   OH232026   0.672   6.041   7.988 -0.1852  0.1736  0.4006
 3464TIP3    H132027   0.704   6.023   7.899 -0.9813 -1.5540  0.4186
 3464TIP3    H232028   0.608   5.971   8.005 -2.4531  2.2843  1.1367
 3465TIP3   OH232029   1.439   2.300   0.744  0.1713 -0.3114 -0.1792
 3465TIP3    H132030   1.381   2.317   0.669  1.8641  0.4596 -1.3878
 3465TIP3    H232031   1.392   2.337   0.819 -1.4341 -0.8167 -0.8938
 3466TIP3   OH232032   2.608   5.577   0.325  0.1812  0.9219  0.0761
 3466TIP3    H132033   2.619   5.544   0.236  0.6443  0.7527  0.1946
 3466TIP3    H232034   2.656   5.515   0.380  3.2121  3.0386  0.0869
 3467TIP3   OH232035   3.947   6.170   6.960 -0.1477  0.0243 -0.0227
 3467TIP3    H132036   3.966   6.136   7.047  0.2969  0.1468 -0.0684
 3467TIP3    H232037   3.956   6.265   6.970  0.7614 -0.0177 -0.4037
 3468TIP3   OH232038   4.586   0.298   7.296 -0.3732  0.2446 -0.2749
 3468TIP3    H132039   4.545   0.216   7.269  0.4941 -0.2498 -0.1391
 3468TIP3    H232040   4.660   0.309   7.236 -0.4200  0.8755 -0.2276
 3469TIP3   OH232041   0.372   4.338   1.132  0.2871  0.4511 -0.3542
 3469TIP3    H132042   0.441   4.401   1.109  1.1729  0.0122  0.9870
 3469TIP3    H232043   0.370   4.338   1.227 -0.8053 -0.3902 -0.3607
 3470TIP3   OH232044   5.629   3.422   5.943  0.5954 -0.4165  0.1290
 3470TIP3    H132045   5.688   3.360   5.900  1.7070  0.5362  0.2493
 3470TIP3    H232046   5.657   3.508   5.912  0.5652  0.2014  1.7314
 3471TIP3   OH232047   0.381   4.866   0.611 -0.3947  0.6216 -0.2505
 3471TIP3    H132048   0.332   4.947   0.627  1.3327  1.8671 -0.9499
 3471TIP3    H232049   0.472   4.888   0.629 -0.0691 -1.7866  1.5794
 3472TIP3   OH232050   4.335   4.163   1.124 -0.0332 -0.2728 -0.0504
 3472TIP3    H132051   4.410   4.183   1.180 -0.0824  1.8036 -0.6229
 3472TIP3    H232052   4.369   4.169   1.035 -0.3124 -1.9909 -0.3177
 3473TIP3   OH232053   5.526   6.455   7.580  0.1089  0.0022  0.1304
 3473TIP3    H132054   5.451   6.515   7.574  0.5340  0.4810 -0.4914
 3473TIP3    H232055   5.551   6.458   7.672 -0.7772 -0.3475  0.3996
 3474TIP3   OH232056   3.093   5.464   7.417  0.4967 -0.6564  0.0392
 3474TIP3    H132057   3.168   5.417   7.381  1.6776  0.9731  0.2638
 3474TIP3    H232058   3.053   5.403   7.479  0.5032 -2.2186 -1.4317
 3475TIP3   OH232059   5.006   6.592   6.166 -0.5766  0.0297 -0.3546
 3475TIP3    H132060   5.068   6.524   6.190  0.0281  0.1321 -1.5555
 3475TIP3    H232061   5.059   6.661   6.126 -1.1526  1.2947  0.9660
 3476TIP3   OH232062   5.989   3.593   0.253  0.4226  0.1665 -0.0452
 3476TIP3    H132063   6.015   3.501   0.264  1.1627  0.3341 -0.3009
 3476TIP3    H232064   5.965   3.621   0.341 -0.6216 -0.5014 -0.1008
 3477TIP3   OH232065   6.704   6.894   1.908  0.2083  0.3700  0.0604
 3477TIP3    H132066   6.761   6.967   1.931  0.1089 -0.0983  1.9732
 3477TIP3    H232067   6.618   6.934   1.895  0.5839  0.8482 -1.1000
 3478TIP3   OH232068   4.334   7.059   1.378 -0.1369 -0.0622 -0.2228
 3478TIP3    H132069   4.254   7.110   1.389  0.8125  1.3423  0.5555
 3478TIP3    H232070   4.362   7.038   1.468  1.8138  1.8897 -0.2960
 3479TIP3   OH232071   7.032   6.146   1.870 -0.2887  0.1624 -0.0227
 3479TIP3    H132072   7.058   6.222   1.817 -1.8866  2.0943  1.7427
 3479TIP3    H232073   7.114   6.101   1.890  0.6977  1.3022 -1.3024
 3480TIP3   OH232074   2.242   4.802   1.508 -0.1676  0.7652  0.6768
 3480TIP3    H132075   2.255   4.811   1.414  0.5596 -2.6501  0.2999
 3480TIP3    H232076   2.302   4.865   1.547  0.9231  0.9356 -1.1627
 3481TIP3   OH232077   6.293   4.085   5.918  0.0795 -0.6981 -0.2624
 3481TIP3    H132078   6.381   4.116   5.898  0.4898 -0.4199  1.7341
 3481TIP3    H232079   6.253   4.067   5.832  1.7556  0.0085 -1.2349
 3482TIP3   OH232080   0.959   4.181   1.200  0.3905 -0.5065  0.4989
 3482TIP3    H132081   1.009   4.253   1.238  0.4843  0.0867 -0.6931
 3482TIP3    H232082   0.870   4.215   1.193  0.3193 -0.7061  0.4319
 3483TIP3   OH232083   3.383   1.289   7.908  0.3250  0.0714 -0.9558
 3483TIP3    H132084   3.348   1.203   7.886  0.2405  0.2349 -1.4667
 3483TIP3    H232085   3.372   1.296   8.003  1.1307 -0.8438 -0.7737
 3484TIP3   OH232086   2.316   2.523   0.070  0.1558  0.0715 -0.4502
 3484TIP3    H132087   2.347   2.570  -0.007 -0.0200  0.1529 -0.4708
 3484TIP3    H232088   2.364   2.562   0.143  1.3734 -0.9519 -0.6686
 3485TIP3   OH232089   5.810   5.030   0.393  0.4998 -0.2939  0.7358
 3485TIP3    H132090   5.903   5.028   0.372  0.0121  1.4084 -2.1462
 3485TIP3    H232091   5.800   5.109   0.447  0.4906  0.9230 -0.9451
 3486TIP3   OH232092   1.403   4.529   0.137 -0.0176 -0.7315  0.1516
 3486TIP3    H132093   1.444   4.600   0.186  0.8241 -1.4376  0.4957
 3486TIP3    H232094   1.336   4.572   0.084 -0.5605  0.1290  1.4744
 3487TIP3   OH232095   5.548   4.731   6.952 -0.0050  0.7421 -0.1487
 3487TIP3    H132096   5.588   4.776   7.027 -0.0807  1.0256 -0.2794
 3487TIP3    H232097   5.456   4.723   6.975 -0.1393  1.3434 -0.4615
 3488TIP3   OH232098   5.978   5.027   0.854 -0.0397  0.2495  0.0312
 3488TIP3    H132099   5.982   5.080   0.774  1.1895 -1.0156 -0.7823
 3488TIP3    H232100   6.043   5.067   0.912  2.2595 -1.3457 -1.2715
 3489TIP3   OH232101   6.539   1.498   6.118  0.2126 -0.0428 -0.4595
 3489TIP3    H132102   6.534   1.586   6.156  1.8281 -0.1878  0.1929
 3489TIP3    H232103   6.609   1.504   6.053 -1.6576 -0.1310 -2.5969
 3490TIP3   OH232104   6.948   6.757   7.057 -0.1923  0.1748  0.2219
 3490TIP3    H132105   6.956   6.685   7.119  0.9311 -0.7038 -0.8762
 3490TIP3    H232106   6.971   6.835   7.107 -0.1634 -0.3984  1.1163
 3491TIP3   OH232107   0.794   2.508   2.034  0.0031 -0.5167  0.5326
 3491TIP3    H132108   0.885   2.538   2.034  0.2986 -1.3068 -1.1739
 3491TIP3    H232109   0.793   2.434   2.094  0.6724 -0.9876 -0.0257
 3492TIP3   OH232110   6.163   2.689   7.625  0.1243  0.0763 -0.0958
 3492TIP3    H132111   6.099   2.731   7.567  0.3021  0.0819 -0.2890
 3492TIP3    H232112   6.113   2.620   7.669  0.5395 -1.6752 -2.1533
 3493TIP3   OH232113   4.876   4.666   7.360 -0.1020  0.3907  0.5835
 3493TIP3    H132114   4.941   4.645   7.427  0.1712  2.1763  0.9174
 3493TIP3    H232115   4.808   4.600   7.371  0.7681 -0.3836  1.4563
 3494TIP3   OH232116   0.472   2.252   6.960  0.3725  0.4325 -0.2664
 3494TIP3    H132117   0.453   2.322   6.897  1.0503 -0.3061 -1.3262
 3494TIP3    H232118   0.566   2.258   6.976  0.1460  0.8794  1.0413
 3495TIP3   OH232119   2.146   1.973   6.353  0.3651 -0.3039  0.3194
 3495TIP3    H132120   2.206   1.899   6.344  0.8323 -0.0002  0.8854
 3495TIP3    H232121   2.072   1.938   6.403  1.7435  0.2218  2.8672
 3496TIP3   OH232122   1.093   2.891   1.339 -0.1527 -0.4856 -0.2357
 3496TIP3    H132123   1.147   2.820   1.305 -0.5359 -0.9889  0.1823
 3496TIP3    H232124   1.123   2.903   1.429  0.8319  0.8161 -0.7074
 3497TIP3   OH232125   2.684   3.481   0.691  0.2733 -0.0282  0.0027
 3497TIP3    H132126   2.713   3.499   0.780 -1.5597 -1.3470  0.9244
 3497TIP3    H232127   2.743   3.412   0.660  1.2741  0.8258 -0.0564
 3498TIP3   OH232128   3.379   6.547   7.068  0.2693 -0.0856  0.5642
 3498TIP3    H132129   3.449   6.607   7.094  0.0418  0.2312  0.4645
 3498TIP3    H232130   3.345   6.512   7.150  0.9015 -0.6578  0.5849
 3499TIP3   OH232131   0.332   6.490   1.737 -0.5581  0.2117  0.3626
 3499TIP3    H132132   0.239   6.482   1.717 -0.8835  2.4596  0.6274
 3499TIP3    H232133   0.348   6.426   1.806 -1.7217 -0.7225 -0.2037
 3500TIP3   OH232134   3.781   3.571   0.502 -0.5914 -0.0450 -0.3117
 3500TIP3    H132135   3.813   3.518   0.428 -0.5741  0.0872 -0.3986
 3500TIP3    H232136   3.852   3.634   0.519 -0.7707  0.1934 -0.4506
 3501TIP3   OH232137   0.915   3.638   6.955 -0.8575  0.6231  0.2374
 3501TIP3    H132138   0.903   3.573   7.024  2.2443 -1.8035 -1.2523
 3501TIP3    H232139   0.948   3.715   7.000 -0.0337 -0.5053  1.6451
 3502TIP3   OH232140   6.088   2.007   1.737 -0.2617  0.0979 -0.2290
 3502TIP3    H132141   6.133   2.030   1.819 -1.4423  1.4236  0.0839
 3502TIP3    H232142   6.029   1.935   1.762  0.9516 -1.0156 -0.4412
 3503TIP3   OH232143   5.063   6.375   0.434  0.4916  0.2595 -0.2116
 3503TIP3    H132144   5.058   6.319   0.512  0.6613 -1.6539 -1.5032
 3503TIP3    H232145   5.042   6.462   0.466 -2.9395 -0.9797  1.4429
 3504TIP3   OH232146   5.952   6.405   1.438  0.0491 -0.9666 -0.0396
 3504TIP3    H132147   6.029   6.461   1.440 -0.3976 -0.3637  0.8862
 3504TIP3    H232148   5.907   6.422   1.521 -0.4964 -2.1326 -0.0697
 3505TIP3   OH232149   2.956   6.339   0.063 -0.1600 -0.2969 -0.1693
 3505TIP3    H132150   2.897   6.294   0.002  0.1203 -0.5090 -0.2862
 3505TIP3    H232151   3.009   6.395   0.008  0.6043 -1.0452 -0.2146
 3506TIP3   OH232152   5.854   4.894   2.122  0.2269 -0.0228  0.1784
 3506TIP3    H132153   5.821   4.982   2.102 -1.0058 -0.1515  1.4363
 3506TIP3    H232154   5.821   4.840   2.050  0.6932  0.4784 -0.4200
 3507TIP3   OH232155   0.837   0.225   0.487  0.3425  0.3152  0.2465
 3507TIP3    H132156   0.901   0.210   0.416  0.3267  0.4015  0.2139
 3507TIP3    H232157   0.855   0.155   0.550 -0.4359 -0.4867 -0.3986
 3508TIP3   OH232158   3.025   3.547   6.522  0.3839  0.9702 -0.0368
 3508TIP3    H132159   3.024   3.487   6.597  0.4718 -0.9720 -1.5103
 3508TIP3    H232160   2.933   3.557   6.499  0.4234  0.7131 -0.3085
 3509TIP3   OH232161   3.957   1.713   6.926 -0.2891 -0.3606 -0.1348
 3509TIP3    H132162   4.031   1.652   6.930  0.9877  1.1598  1.1959
 3509TIP3    H232163   3.976   1.770   6.851 -0.8461 -0.8216 -0.6342
 3510TIP3   OH232164   5.773   0.623   0.573 -0.7551  0.8980 -0.3219
 3510TIP3    H132165   5.855   0.618   0.622 -2.6391 -0.8331  3.0302
 3510TIP3    H232166   5.771   0.544   0.520 -1.1059 -0.2086  1.2661
 3511TIP3   OH232167   2.723   6.247   1.080 -0.6443 -0.4523  0.8358
 3511TIP3    H132168   2.808   6.287   1.097 -0.4818 -0.6179  0.4298
 3511TIP3    H232169   2.665   6.320   1.058  0.6886 -0.5984 -4.4685
 3512TIP3   OH232170   3.962   6.290   7.804  0.5783  0.5350  0.2378
 3512TIP3    H132171   3.935   6.332   7.722  0.0168  0.7683  0.5392
 3512TIP3    H232172   3.881   6.250   7.838  0.9593 -0.1889  0.3065
 3513TIP3   OH232173   5.369   5.133   7.344  0.5191 -0.2029 -0.3077
 3513TIP3    H132174   5.332   5.074   7.278 -0.0390  1.1845 -1.2677
 3513TIP3    H232175   5.415   5.075   7.404 -1.0158 -1.7501 -0.5417
 3514TIP3   OH232176   2.376   1.853   7.108 -0.2599 -0.2777  0.0051
 3514TIP3    H132177   2.400   1.872   7.017 -0.2375 -0.4651 -0.0278
 3514TIP3    H232178   2.458   1.858   7.156 -0.5333  1.7294  0.3430
 3515TIP3   OH232179   4.509   5.853   6.184  0.3460  0.3643 -0.4917
 3515TIP3    H132180   4.499   5.874   6.277 -0.5331  0.7940 -0.6706
 3515TIP3    H232181   4.506   5.758   6.180  0.9558  0.3229 -0.0191
 3516TIP3   OH232182   1.789   0.967   7.249  0.8457 -0.2061 -0.2472
 3516TIP3    H132183   1.864   1.026   7.249 -0.1887  1.1788 -0.8765
 3516TIP3    H232184   1.715   1.022   7.275  0.0783 -1.5846  0.5890
 3517TIP3   OH232185   0.347   3.837   1.211  0.7362 -0.0596  0.0016
 3517TIP3    H132186   0.281   3.850   1.143 -0.8503  0.8408  1.6177
 3517TIP3    H232187   0.430   3.855   1.168 -0.0427 -1.0658 -2.0731
 3518TIP3   OH232188   5.818   0.727   1.627 -0.4087 -0.8905 -0.1972
 3518TIP3    H132189   5.791   0.654   1.682  0.6149 -0.1714  1.3263
 3518TIP3    H232190   5.770   0.715   1.545  0.2640 -3.6467 -0.2674
 3519TIP3   OH232191   4.218   3.830   6.969  0.0411  0.0456 -0.7264
 3519TIP3    H132192   4.164   3.774   7.023 -1.0097 -0.0361 -1.8290
 3519TIP3    H232193   4.179   3.917   6.977  1.4457  0.6082  0.6895
 3520TIP3   OH232194   1.594   0.711   0.159  0.1849 -0.1402 -0.2974
 3520TIP3    H132195   1.613   0.618   0.168 -0.4677 -0.4386 -1.7748
 3520TIP3    H232196   1.510   0.715   0.113  1.0072  1.1633 -1.8127
 3521TIP3   OH232197   3.906   3.790   0.109  0.0377  0.0893  0.2664
 3521TIP3    H132198   3.933   3.790   0.017  0.8904  0.5830  0.5047
 3521TIP3    H232199   3.930   3.703   0.142 -1.9030 -0.7588 -0.4129
 3522TIP3   OH232200   7.181   3.981   6.405 -0.3434  0.0152  0.2021
 3522TIP3    H132201   7.167   3.954   6.496  2.0673  1.5140  1.0846
 3522TIP3    H232202   7.119   4.052   6.391 -1.4660 -0.9112  0.2739
 3523TIP3   OH232203   1.253   2.995   7.777 -0.0161  0.3858  0.0737
 3523TIP3    H132204   1.314   2.966   7.845  0.8947  1.6378 -0.1863
 3523TIP3    H232205   1.236   2.916   7.725 -0.0429 -0.3802  1.2248
 3524TIP3   OH232206   3.210   0.696   7.380 -0.1133  0.2056 -0.2912
 3524TIP3    H132207   3.180   0.722   7.467 -0.9697 -1.2984 -0.0964
 3524TIP3    H232208   3.272   0.624   7.396 -0.4346 -0.2219 -0.9196
 3525TIP3   OH232209   0.458   3.896   7.260  0.3275  0.3231 -0.1441
 3525TIP3    H132210   0.468   3.990   7.270  1.9459 -0.0634  3.8217
 3525TIP3    H232211   0.541   3.867   7.222  1.4910  0.2160  2.3309
 3526TIP3   OH232212   5.682   1.478   7.157 -0.4463  0.1271 -0.2089
 3526TIP3    H132213   5.693   1.502   7.248  0.6404  0.0008 -0.2918
 3526TIP3    H232214   5.597   1.513   7.132 -0.0598  1.5470  0.4069
 3527TIP3   OH232215   0.325   4.920   6.343  0.2423 -0.0299 -0.1473
 3527TIP3    H132216   0.405   4.915   6.291  0.3092  0.1949 -0.0654
 3527TIP3    H232217   0.340   4.991   6.405  1.0144 -1.6076  1.5918
 3528TIP3   OH232218   1.854   2.519   7.191 -0.1064 -0.5149 -0.5769
 3528TIP3    H132219   1.906   2.500   7.113 -0.3698 -0.6123 -0.7274
 3528TIP3    H232220   1.919   2.529   7.261  0.2496  1.1674 -1.1046
 3529TIP3   OH232221   5.025   2.662   0.805  0.0428 -0.5034 -0.1273
 3529TIP3    H132222   5.101   2.719   0.814 -0.3620  0.1725 -0.8251
 3529TIP3    H232223   4.969   2.685   0.879  0.3097 -0.6837  0.1335
 3530TIP3   OH232224   1.981   6.103   7.708  0.2094  0.0109 -0.4221
 3530TIP3    H132225   2.071   6.095   7.740  0.1301  1.3640  0.2290
 3530TIP3    H232226   1.985   6.171   7.641  0.0531 -1.5592 -2.0957
 3531TIP3   OH232227   4.793   6.957   0.412  0.4210 -0.1323 -0.2143
 3531TIP3    H132228   4.887   6.965   0.432  0.6532 -0.3785 -1.1560
 3531TIP3    H232229   4.751   6.944   0.497  1.3317 -0.8457  0.1411
 3532TIP3   OH232230   6.246   0.648   7.835  0.1192 -0.0139  0.1138
 3532TIP3    H132231   6.312   0.716   7.823  1.3089 -1.2617 -0.8414
 3532TIP3    H232232   6.257   0.619   7.926 -0.4953  1.1268  0.5702
 3533TIP3   OH232233   3.388   1.098   7.571  0.5440 -0.4775 -0.2105
 3533TIP3    H132234   3.326   1.042   7.524 -0.6510  0.5869  0.0504
 3533TIP3    H232235   3.473   1.055   7.558  0.0587 -0.9471 -2.1836
 3534TIP3   OH232236   3.699   0.868   1.184 -0.1309 -0.0443  0.8811
 3534TIP3    H132237   3.732   0.778   1.183  1.8886  0.6607 -0.1909
 3534TIP3    H232238   3.689   0.889   1.277 -0.1568 -1.1949  1.1527
 3535TIP3   OH232239   0.610   6.198   1.543  0.0652  0.0550 -0.3683
 3535TIP3    H132240   0.607   6.256   1.619 -0.5967  0.4779 -0.7049
 3535TIP3    H232241   0.587   6.254   1.469 -0.6324 -0.6367 -0.6935
 3536TIP3   OH232242   0.851   1.881   7.844 -0.1046 -0.3060  0.1873
 3536TIP3    H132243   0.929   1.929   7.817 -0.8766  0.4825 -0.7262
 3536TIP3    H232244   0.804   1.863   7.762 -1.2942 -0.0284  0.7834
 3537TIP3   OH232245   4.367   4.888   0.425 -0.1154 -0.4597 -0.6656
 3537TIP3    H132246   4.433   4.954   0.401  0.3791 -0.6720  0.0628
 3537TIP3    H232247   4.384   4.870   0.517 -2.4536  0.9113  0.1081
 3538TIP3   OH232248   4.958   3.884   1.925 -0.3774  0.4671  0.3406
 3538TIP3    H132249   5.010   3.955   1.887  0.1781 -0.0444  0.1295
 3538TIP3    H232250   5.021   3.815   1.943 -0.4614  0.9858  3.0396
 3539TIP3   OH232251   2.431   6.190   1.565 -0.5102 -0.6381 -0.4254
 3539TIP3    H132252   2.492   6.160   1.632  0.2401 -1.0294 -1.2691
 3539TIP3    H232253   2.352   6.213   1.614  0.6722  0.9971  0.8276
 3540TIP3   OH232254   1.902   1.403   0.156 -0.3483  0.6597  0.3169
 3540TIP3    H132255   1.984   1.384   0.202 -1.0463 -1.2556  0.8441
 3540TIP3    H232256   1.925   1.474   0.096  2.1781 -0.9336 -0.7962
 3541TIP3   OH232257   3.683   1.705   7.013 -0.0237 -0.5342  0.7632
 3541TIP3    H132258   3.704   1.618   7.047 -1.2103 -1.9498 -1.8548
 3541TIP3    H232259   3.767   1.739   6.982  0.2843 -1.1950  0.8505
 3542TIP3   OH232260   6.017   0.741   1.861 -0.2587  0.3325  0.3760
 3542TIP3    H132261   6.022   0.762   1.767 -0.8787  0.0417  0.2756
 3542TIP3    H232262   5.983   0.651   1.864 -0.1256  0.2965  0.8764
 3543TIP3   OH232263   0.072   0.773   7.463  0.3515  0.5232 -0.4240
 3543TIP3    H132264   0.139   0.717   7.423  2.3064  2.2503  0.1888
 3543TIP3    H232265   0.061   0.738   7.552  3.0693  2.1220  0.6751
 3544TIP3   OH232266   5.517   2.249   7.978  0.1364  0.0508 -0.1257
 3544TIP3    H132267   5.508   2.287   8.065  3.3417 -0.1819  0.4462
 3544TIP3    H232268   5.605   2.210   7.978  0.1657 -0.1672 -3.3877
 3545TIP3   OH232269   1.550   3.367   7.422 -0.6116  0.8223 -0.3516
 3545TIP3    H132270   1.509   3.282   7.404 -1.7755  1.6389 -1.7808
 3545TIP3    H232271   1.643   3.353   7.405 -0.7696 -0.2021 -0.4295
 3546TIP3   OH232272   5.841   1.626   0.681 -0.0353 -0.8838  0.6513
 3546TIP3    H132273   5.777   1.592   0.743 -0.6192 -2.5428 -0.7835
 3546TIP3    H232274   5.859   1.716   0.711 -1.0952 -1.2578  2.5400
 3547TIP3   OH232275   0.726   6.437   0.025  0.1693  0.4407  0.2183
 3547TIP3    H132276   0.700   6.367  -0.035 -0.9677 -0.5448  1.7787
 3547TIP3    H232277   0.701   6.518  -0.020 -2.5816 -0.3316  0.1899
 3548TIP3   OH232278   5.494   1.533   6.654 -0.4282 -0.4143  0.0130
 3548TIP3    H132279   5.583   1.567   6.651 -0.2849 -0.8463 -1.4752
 3548TIP3    H232280   5.440   1.607   6.682  0.4166 -0.2204  1.1589
 3549TIP3   OH232281   4.160   5.344   7.857 -0.4616 -0.1351 -0.1650
 3549TIP3    H132282   4.179   5.367   7.948 -1.4774  0.0244  0.0267
 3549TIP3    H232283   4.243   5.314   7.822 -0.0825 -0.3493  0.8668
 3550TIP3   OH232284   1.763   4.852   7.219  0.2792  0.5623 -0.0918
 3550TIP3    H132285   1.799   4.776   7.172 -0.3644 -0.0643  0.4115
 3550TIP3    H232286   1.835   4.882   7.274  0.1420 -0.5190  0.7097
 3551TIP3   OH232287   6.910   1.512   1.179 -0.2049 -0.1786 -0.5645
 3551TIP3    H132288   6.963   1.479   1.251 -2.1540  1.8729  2.0439
 3551TIP3    H232289   6.965   1.502   1.101  3.5725  0.8218  1.7067
 3552TIP3   OH232290   2.666   2.369   7.912 -0.2330  0.7432 -0.1719
 3552TIP3    H132291   2.727   2.371   7.838  0.9002 -1.4471  0.6284
 3552TIP3    H232292   2.687   2.448   7.962 -0.2056  1.6291 -1.5055
 3553TIP3   OH232293   5.927   6.208   0.229 -0.2591  0.6156  0.1879
 3553TIP3    H132294   5.923   6.180   0.137  0.7345  1.8056 -0.2464
 3553TIP3    H232295   5.964   6.134   0.276 -2.4223 -0.6900 -0.0398
 3554TIP3   OH232296   4.839   2.599   7.505 -0.2326  0.1978 -0.3057
 3554TIP3    H132297   4.765   2.589   7.445 -0.1534  0.1918 -0.4021
 3554TIP3    H232298   4.815   2.674   7.559 -0.3440  0.1491 -0.2855
 3555TIP3   OH232299   3.844   5.444   1.527  0.4282 -0.1794  0.0125
 3555TIP3    H132300   3.911   5.451   1.460  0.5186 -0.3881  0.0832
 3555TIP3    H232301   3.763   5.472   1.483  0.9215  2.2154  0.4932
 3556TIP3   OH232302   1.649   2.709   7.550  0.1407 -0.1808 -0.6057
 3556TIP3    H132303   1.568   2.687   7.504 -0.1787 -0.0779 -0.0937
 3556TIP3    H232304   1.666   2.800   7.524 -1.0857  0.5447  0.9709
 3557TIP3   OH232305   1.715   6.906   6.828 -0.4038 -0.1597 -0.0495
 3557TIP3    H132306   1.652   6.845   6.868  0.8137 -1.1380  0.4432
 3557TIP3    H232307   1.700   6.988   6.874 -0.9859 -0.5165  0.4217
 3558TIP3   OH232308   4.489   5.119   1.745  0.0834 -0.6453  0.4537
 3558TIP3    H132309   4.442   5.101   1.663 -0.4252  0.6086  0.4421
 3558TIP3    H232310   4.434   5.182   1.790  0.6762 -0.8537  1.4860
 3559TIP3   OH232311   5.811   4.770   1.077  0.2925 -0.3032 -0.1712
 3559TIP3    H132312   5.785   4.763   0.985 -1.8980 -0.2248  0.3810
 3559TIP3    H232313   5.752   4.710   1.123  1.4462 -0.4367  1.1759
 3560TIP3   OH232314   1.818   6.218   7.135 -0.3603  0.6858  0.5900
 3560TIP3    H132315   1.755   6.206   7.065 -1.0286 -0.0783  1.2979
 3560TIP3    H232316   1.856   6.305   7.119 -0.3124  0.4218 -0.8358
 3561TIP3   OH232317   0.740   5.944   0.621 -0.8928  0.4699  0.4458
 3561TIP3    H132318   0.700   5.999   0.688  0.0286  0.4802  1.0066
 3561TIP3    H232319   0.825   5.985   0.604  0.2936 -1.3451  1.6648
 3562TIP3   OH232320   3.428   0.250   1.398 -0.3709  0.1581  0.5109
 3562TIP3    H132321   3.379   0.196   1.336 -0.3788  0.6622  0.0662
 3562TIP3    H232322   3.517   0.215   1.394 -0.2358  0.5542 -0.2346
 3563TIP3   OH232323   4.400   6.367   0.065  0.6866 -0.5395  0.3184
 3563TIP3    H132324   4.480   6.406   0.102 -0.1027 -0.6310  2.2477
 3563TIP3    H232325   4.405   6.275   0.091 -0.7666 -0.2270  1.8785
 3564TIP3   OH232326   2.733   5.549   6.775 -0.3081  0.2693 -0.3681
 3564TIP3    H132327   2.768   5.462   6.755  0.6791  0.9514 -1.7663
 3564TIP3    H232328   2.809   5.607   6.776 -0.8763  1.0333  1.1743
 3565TIP3   OH232329   5.828   4.698   1.915  0.2136  0.1761 -1.2756
 3565TIP3    H132330   5.789   4.618   1.950 -0.3001  0.9457 -0.0156
 3565TIP3    H232331   5.846   4.678   1.823 -2.0372 -0.6287 -1.5915
 3566TIP3   OH232332   0.212   2.427   7.178  1.0158 -0.3197  0.6054
 3566TIP3    H132333   0.158   2.437   7.256  1.1281  2.4976  0.4188
 3566TIP3    H232334   0.270   2.503   7.178  0.5460  0.1965 -2.5428
 3567TIP3   OH232335   5.178   6.571   1.613 -0.0274  0.3987  0.2761
 3567TIP3    H132336   5.188   6.665   1.602  2.2461  0.2731  0.7556
 3567TIP3    H232337   5.225   6.551   1.694 -0.9365 -1.1040  0.4868
 3568TIP3   OH232338   3.962   0.266   0.278  0.4073 -0.3324 -0.4683
 3568TIP3    H132339   3.976   0.306   0.193  0.5448  0.6972  0.0194
 3568TIP3    H232340   4.003   0.326   0.340  0.9165 -1.4047  0.2760
 3569TIP3   OH232341   5.008   3.862   0.905 -0.1677 -0.6260  0.3157
 3569TIP3    H132342   5.002   3.804   0.829 -0.6519  1.4192 -1.3410
 3569TIP3    H232343   4.933   3.838   0.959 -1.6163 -0.2033 -1.3991
 3570TIP3   OH232344   3.692   6.285   7.349  0.5113 -0.6726  0.8683
 3570TIP3    H132345   3.633   6.354   7.380  1.3369 -0.0284  1.0395
 3570TIP3    H232346   3.644   6.204   7.366  0.1156 -0.2243  2.0304
 3571TIP3   OH232347   5.457   1.538   1.849  0.0912 -0.4643  0.5898
 3571TIP3    H132348   5.380   1.534   1.906  0.8628  2.1396  1.9838
 3571TIP3    H232349   5.508   1.461   1.872 -1.1937 -1.2241  1.0002
 3572TIP3   OH232350   6.175   4.136   7.308  0.0844 -0.2400 -0.0024
 3572TIP3    H132351   6.127   4.175   7.235  1.0118  1.6678  0.3600
 3572TIP3    H232352   6.224   4.064   7.268 -0.5028 -0.1202 -0.9766
 3573TIP3   OH232353   2.296   1.141   1.367 -0.2495 -0.3661  0.1240
 3573TIP3    H132354   2.282   1.222   1.316 -2.0241 -0.1306  0.9145
 3573TIP3    H232355   2.384   1.151   1.403 -0.3133  1.0974 -0.0448
 3574TIP3   OH232356   1.252   1.834   1.812  0.2557  0.1660  0.3131
 3574TIP3    H132357   1.293   1.805   1.730 -1.0060 -1.1439  0.0997
 3574TIP3    H232358   1.324   1.837   1.875  0.9239 -0.7421 -0.3763
 3575TIP3   OH232359   0.220   0.128   7.598 -0.9140  0.1677  0.1366
 3575TIP3    H132360   0.296   0.078   7.568 -0.9023  1.6052 -2.5916
 3575TIP3    H232361   0.258   0.207   7.637 -0.9740  0.4269 -0.3216
 3576TIP3   OH232362   1.975   7.133   6.981 -0.7979 -0.0235 -0.3161
 3576TIP3    H132363   2.017   7.064   7.034 -0.1764 -1.3047 -2.3438
 3576TIP3    H232364   1.885   7.135   7.012 -0.6455 -1.2622  0.2855
 3577TIP3   OH232365   5.268   1.488   2.040 -0.2846  0.3165  0.3008
 3577TIP3    H132366   5.306   1.553   2.100  2.0566 -1.1994  0.5733
 3577TIP3    H232367   5.181   1.523   2.020  0.4886  3.0281  1.1985
 3578TIP3   OH232368   5.856   2.552   6.662 -0.3047 -0.0503  0.4316
 3578TIP3    H132369   5.840   2.614   6.590 -0.5729 -1.0257 -0.3626
 3578TIP3    H232370   5.793   2.577   6.730  0.5653  1.4684  0.7298
 3579TIP3   OH232371   4.581   0.758   6.401 -0.2858  0.3165  0.0117
 3579TIP3    H132372   4.593   0.853   6.407  0.2526  0.2131  0.6069
 3579TIP3    H232373   4.669   0.722   6.399 -0.4492 -0.2780  1.7137
 3580TIP3   OH232374   2.568   6.591   6.931  0.8406 -0.3096 -0.2976
 3580TIP3    H132375   2.661   6.575   6.943  0.6536 -0.1274  1.6619
 3580TIP3    H232376   2.525   6.534   6.994 -0.2976  0.8073 -0.0161
 3581TIP3   OH232377   3.683   2.329   6.244  0.2507 -0.1640  0.3439
 3581TIP3    H132378   3.677   2.253   6.186 -0.3263  0.2799 -0.1911
 3581TIP3    H232379   3.729   2.394   6.192  0.0863  0.1024  0.5336
 3582TIP3   OH232380   0.811   0.759   1.682  0.1342 -0.3364 -0.3541
 3582TIP3    H132381   0.864   0.680   1.670  2.2588  0.6902  1.6346
 3582TIP3    H232382   0.871   0.824   1.718 -2.1817  1.3557  0.7406
 3583TIP3   OH232383   0.316   6.581   5.468  0.3029  0.1352  0.0815
 3583TIP3    H132384   0.252   6.518   5.437  0.9148 -0.0956 -0.7507
 3583TIP3    H232385   0.368   6.534   5.532 -0.4452  0.3704  0.8802
 3584TIP3   OH232386   3.107   4.074   1.762  0.2444 -0.2621  0.1924
 3584TIP3    H132387   3.188   4.121   1.784 -0.8541  1.3394  1.0102
 3584TIP3    H232388   3.112   3.992   1.811  0.8222  0.3651  1.2105
 3585TIP3   OH232389   5.728   4.317   7.475  0.6527  0.1068  0.4587
 3585TIP3    H132390   5.788   4.247   7.450 -1.8794 -2.0571 -0.0497
 3585TIP3    H232391   5.744   4.331   7.568  3.1003  0.8869 -0.0221
 3586TIP3   OH232392   7.107   1.401   0.944  0.4814  0.4242  0.2411
 3586TIP3    H132393   7.188   1.349   0.950 -0.0732 -0.4966  0.0002
 3586TIP3    H232394   7.037   1.336   0.938 -0.3799  1.1813  1.4401
 3587TIP3   OH232395   4.296   5.937   1.856  0.0006 -0.5110  0.0097
 3587TIP3    H132396   4.229   5.978   1.910  0.4621 -0.1312  0.3019
 3587TIP3    H232397   4.378   5.952   1.903  0.4329 -0.0390 -0.8635
 3588TIP3   OH232398   4.535   2.383   0.399  0.3263 -0.3781 -0.2652
 3588TIP3    H132399   4.497   2.453   0.453 -0.7211 -0.3806 -0.9545
 3588TIP3    H232400   4.610   2.351   0.449  0.2500  0.5985  0.4996
 3589TIP3   OH232401   3.806   2.798   0.862  0.0134  0.1391  0.1880
 3589TIP3    H132402   3.863   2.768   0.932 -0.6849  1.9558  1.6340
 3589TIP3    H232403   3.753   2.867   0.902 -0.3844  1.3115 -2.1478
 3590TIP3   OH232404   6.259   6.351   1.067 -0.2976  0.0283 -0.1400
 3590TIP3    H132405   6.349   6.343   1.035 -0.2904  0.7810 -0.3458
 3590TIP3    H232406   6.216   6.409   1.003 -0.7399  0.2037  0.3091
 3591TIP3   OH232407   4.930   5.563   0.944  0.5973 -0.3241  0.2108
 3591TIP3    H132408   4.942   5.495   0.877  0.8079 -0.8573  0.7877
 3591TIP3    H232409   4.995   5.630   0.921  0.2080 -0.1735 -0.5165
 3592TIP3   OH232410   6.436   5.274   6.259 -0.0684  0.0600 -0.0621
 3592TIP3    H132411   6.385   5.240   6.333  1.1261 -0.0838  0.7238
 3592TIP3    H232412   6.392   5.240   6.181  0.0601 -1.8487  0.6523
 3593TIP3   OH232413   4.297   6.221   1.675  0.5641 -0.3575 -0.0723
 3593TIP3    H132414   4.364   6.202   1.741  0.1737 -1.1332  0.1170
 3593TIP3    H232415   4.219   6.175   1.706  0.6402 -1.5952 -1.5776
 3594TIP3   OH232416   4.811   2.551   1.011 -0.3747 -0.0956 -0.2115
 3594TIP3    H132417   4.766   2.623   1.056  2.1377  0.9980  0.7568
 3594TIP3    H232418   4.814   2.481   1.075 -1.1107 -0.3925 -0.4803
 3595TIP3   OH232419   3.294   0.280   5.572 -0.8879 -0.7436 -0.3395
 3595TIP3    H132420   3.263   0.216   5.508 -1.4619  0.0247 -0.8410
 3595TIP3    H232421   3.219   0.298   5.628 -0.9157 -0.0387 -0.5936
 3596TIP3   OH232422   5.750   4.484   0.801  0.6419  0.5007 -0.3622
 3596TIP3    H132423   5.782   4.502   0.889  0.5338  2.4465 -0.6800
 3596TIP3    H232424   5.711   4.396   0.807  2.1741 -0.1378  1.0674
 3597TIP3   OH232425   0.606   1.125   5.750  0.1461 -0.5225  0.2489
 3597TIP3    H132426   0.517   1.148   5.721 -0.3442 -1.0172  1.3423
 3597TIP3    H232427   0.595   1.047   5.803  1.4852 -1.7260 -1.1447
 3598TIP3   OH232428   4.139   1.039   7.682  0.1600 -0.2086 -0.1238
 3598TIP3    H132429   4.199   0.981   7.729  1.5871  1.9959  0.9461
 3598TIP3    H232430   4.068   1.055   7.744 -0.2060 -0.7304 -0.3991
 3599TIP3   OH232431   6.406   1.913   6.643 -0.9076  0.1054 -0.0657
 3599TIP3    H132432   6.483   1.970   6.639 -1.5194  0.9880  0.4404
 3599TIP3    H232433   6.337   1.969   6.679 -1.0267 -1.5036  2.4154
 3600TIP3   OH232434   1.141   2.727   6.415 -0.3768  0.0481 -0.1764
 3600TIP3    H132435   1.236   2.731   6.405 -0.1968  0.7457  1.4059
 3600TIP3    H232436   1.113   2.656   6.357  1.0631  0.0237 -0.8846
 3601TIP3   OH232437   2.674   4.360   1.403  0.4353  0.7448  0.9055
 3601TIP3    H132438   2.650   4.448   1.432  2.3535  1.3009  0.9128
 3601TIP3    H232439   2.631   4.349   1.318  0.4495  1.8045  0.7568
 3602TIP3   OH232440   4.844   0.635   7.267  0.2521  0.3032  0.0749
 3602TIP3    H132441   4.873   0.707   7.211 -0.4917  0.6532  0.1265
 3602TIP3    H232442   4.751   0.627   7.249  0.0299  0.3214  1.1459
 3603TIP3   OH232443   6.850   2.184   6.234  0.3797  0.3240 -0.1347
 3603TIP3    H132444   6.763   2.207   6.268  0.7394  1.2401  0.1708
 3603TIP3    H232445   6.840   2.092   6.207 -0.3367  0.0180  1.0515
 3604TIP3   OH232446   3.176   5.003   0.120  0.1555 -0.2364 -0.0525
 3604TIP3    H132447   3.165   5.098   0.131 -0.6960 -0.4086  0.6939
 3604TIP3    H232448   3.087   4.968   0.123  0.5130 -1.1421  0.5213
 3605TIP3   OH232449   4.341   0.811   0.471  0.0990  0.5519  0.2734
 3605TIP3    H132450   4.374   0.871   0.538  1.5315  0.8329 -0.6314
 3605TIP3    H232451   4.397   0.733   0.480 -2.7163 -1.4175  2.4869
 3606TIP3   OH232452   2.134   0.775   7.768  0.0592  0.4641  0.4347
 3606TIP3    H132453   2.091   0.836   7.828  0.4798  2.2769 -1.0316
 3606TIP3    H232454   2.194   0.725   7.824  0.2394  1.8819  1.5804
 3607TIP3   OH232455   2.927   7.118   6.740 -0.0003  0.2768 -0.3402
 3607TIP3    H132456   2.983   7.160   6.805 -1.5964 -0.0343  1.3034
 3607TIP3    H232457   2.858   7.181   6.722 -1.2757 -0.7915  0.6146
 3608TIP3   OH232458   0.674   3.684   0.627  0.3680  0.0333  0.4015
 3608TIP3    H132459   0.681   3.591   0.607 -0.3841 -0.0796  0.6393
 3608TIP3    H232460   0.752   3.723   0.587 -0.4695 -0.3632 -1.7493
 3609TIP3   OH232461   2.936   6.014   1.707 -0.5315  0.3761  0.4151
 3609TIP3    H132462   3.022   5.972   1.705  0.4522  2.2920 -0.1433
 3609TIP3    H232463   2.875   5.944   1.731  1.2183 -0.9506  1.1782
 3610TIP3   OH232464   5.012   0.439   1.143  0.0317  1.2059  0.3025
 3610TIP3    H132465   4.929   0.485   1.155  0.9646  2.5189  2.1762
 3610TIP3    H232466   5.006   0.363   1.200 -1.0353 -0.5030 -1.9086
 3611TIP3   OH232467   1.739   1.988   0.390 -0.1891 -0.5292  0.6366
 3611TIP3    H132468   1.743   1.911   0.333 -0.0091 -0.0847  0.0336
 3611TIP3    H232469   1.657   2.031   0.365  1.0686  1.0248 -1.1160
 3612TIP3   OH232470   1.324   3.445   7.227 -0.2623 -0.0141 -0.5202
 3612TIP3    H132471   1.355   3.366   7.272 -0.8738 -0.8498 -1.4871
 3612TIP3    H232472   1.403   3.487   7.195  0.0784 -0.2329  0.0177
 3613TIP3   OH232473   2.003   6.569   7.812  0.3367 -0.1195 -0.6247
 3613TIP3    H132474   2.077   6.547   7.869 -1.0848  0.9246  1.7792
 3613TIP3    H232475   2.040   6.626   7.745  1.3642  2.7210  2.1337
 3614TIP3   OH232476   2.036   0.507   1.074  0.2793 -0.5386  0.1403
 3614TIP3    H132477   2.054   0.590   1.117 -3.0038  0.4784 -0.2371
 3614TIP3    H232478   2.045   0.442   1.143  3.8562 -0.1588  0.2448
 3615TIP3   OH232479   7.117   2.430   0.266  0.0320 -0.0854  0.6002
 3615TIP3    H132480   7.141   2.439   0.358  0.3754 -0.7090  0.5763
 3615TIP3    H232481   7.200   2.413   0.222  0.2316  2.4443 -0.1571
 3616TIP3   OH232482   3.828   1.299   1.061  0.1643  0.1458 -0.1638
 3616TIP3    H132483   3.863   1.215   1.030  0.8323  0.5707 -0.5721
 3616TIP3    H232484   3.769   1.275   1.133 -1.6336 -0.8876 -1.8815
 3617TIP3   OH232485   4.986   2.077   0.885 -0.0547  0.5250 -0.5040
 3617TIP3    H132486   4.892   2.060   0.889  0.1342 -1.3943 -2.3288
 3617TIP3    H232487   5.024   1.996   0.851  2.2721  1.2801  0.0737
 3618TIP3   OH232488   4.297   0.454   7.838  0.4022 -0.7093  0.5373
 3618TIP3    H132489   4.374   0.462   7.895 -0.1108  0.0781  1.1352
 3618TIP3    H232490   4.261   0.368   7.859  0.0182 -0.2892  1.6805
 3619TIP3   OH232491   4.810   0.336   6.803  0.7491 -0.1406 -0.1405
 3619TIP3    H132492   4.769   0.364   6.885 -2.4814  4.2355 -2.7772
 3619TIP3    H232493   4.769   0.251   6.784 -2.1890  0.9504  0.6663
 3620TIP3   OH232494   5.667   1.186   7.109 -0.3683  0.0171 -0.5308
 3620TIP3    H132495   5.644   1.187   7.202  2.7392  1.1913  0.3512
 3620TIP3    H232496   5.681   1.279   7.087  1.0012 -0.3927 -1.5536
 3621TIP3   OH232497   3.017   0.704   1.233 -0.1077  0.1211 -0.3326
 3621TIP3    H132498   3.043   0.613   1.220 -0.8093  0.0646 -1.5300
 3621TIP3    H232499   3.099   0.752   1.242  0.2889 -0.5463 -0.3730
 3622TIP3   OH232500   2.858   6.663   0.637  0.3367 -0.3246 -0.4934
 3622TIP3    H132501   2.767   6.669   0.610  0.4011 -0.5071 -0.7530
 3622TIP3    H232502   2.891   6.753   0.628 -0.0117 -0.1078  0.3103
 3623TIP3   OH232503   6.874   2.546   0.876  0.0754 -0.3790  0.5176
 3623TIP3    H132504   6.942   2.554   0.808  0.9007  1.2731  1.4775
 3623TIP3    H232505   6.792   2.541   0.827  0.7711 -1.1401 -0.6369
 3624TIP3   OH232506   1.630   5.581   6.830 -0.3316 -0.2638  0.5307
 3624TIP3    H132507   1.548   5.548   6.867 -0.8900  1.4323  0.8910
 3624TIP3    H232508   1.603   5.631   6.753  0.5595 -1.2654 -0.4693
 3625TIP3   OH232509   1.187   0.176   7.881  0.0991 -0.1244 -0.5426
 3625TIP3    H132510   1.274   0.193   7.917  0.2429 -0.9889 -0.4494
 3625TIP3    H232511   1.189   0.082   7.859 -1.5443 -0.7227  1.5466
 3626TIP3   OH232512   4.635   4.646   1.301 -0.1478  0.1263 -0.1767
 3626TIP3    H132513   4.707   4.622   1.359 -1.6712  0.9603  2.1528
 3626TIP3    H232514   4.559   4.599   1.336 -0.8122 -0.7780 -2.6018
 3627TIP3   OH232515   1.390   4.812   6.255 -0.0145  0.1661 -0.5330
 3627TIP3    H132516   1.331   4.747   6.215 -0.2768 -0.4385  0.7855
 3627TIP3    H232517   1.342   4.844   6.332  1.0477  0.2481  0.1141
 3628TIP3   OH232518   3.547   6.205   0.356 -0.5042 -0.4024  0.3441
 3628TIP3    H132519   3.497   6.139   0.308 -1.2955  1.3376 -1.3960
 3628TIP3    H232520   3.638   6.187   0.335 -0.7266 -0.8649 -0.2453
 3629TIP3   OH232521   1.316   2.428   0.500  0.0889 -0.2020 -0.1184
 3629TIP3    H132522   1.379   2.427   0.428 -1.2401 -0.8106 -1.2973
 3629TIP3    H232523   1.323   2.517   0.535  1.3448 -0.1500 -0.4302
 3630TIP3   OH232524   6.284   0.935   0.662 -0.6190  0.4241 -0.1428
 3630TIP3    H132525   6.221   1.005   0.642  1.6226  3.1439  1.5724
 3630TIP3    H232526   6.296   0.939   0.757 -0.2304 -2.2065 -0.0182
 3631TIP3   OH232527   3.058   1.505   0.237  0.0686 -0.2791  0.3852
 3631TIP3    H132528   3.020   1.591   0.256 -1.0708 -1.3885  3.7493
 3631TIP3    H232529   3.014   1.445   0.298  2.4509 -2.8632 -0.2444
 3632TIP3   OH232530   0.882   1.598   6.877 -0.1237 -0.6560 -0.6007
 3632TIP3    H132531   0.841   1.512   6.864  1.5134 -1.5481 -0.1446
 3632TIP3    H232532   0.873   1.615   6.970 -3.6762  1.4539 -1.1515
 3633TIP3   OH232533   5.806   1.461   1.185 -0.6049  0.2853  0.3932
 3633TIP3    H132534   5.837   1.527   1.124 -0.1628  0.9802  1.3391
 3633TIP3    H232535   5.786   1.385   1.131 -0.7444  1.0604 -0.6648
 3634TIP3   OH232536   6.964   2.764   5.926  0.2441  0.2106  0.3041
 3634TIP3    H132537   6.872   2.747   5.909  0.0024  2.7433 -1.5077
 3634TIP3    H232538   7.009   2.734   5.848  0.4809  2.0560 -0.3221
 3635TIP3   OH232539   5.057   0.194   0.687 -0.4758 -0.0018 -0.0353
 3635TIP3    H132540   5.016   0.278   0.666  1.3284  1.0885  0.6574
 3635TIP3    H232541   4.987   0.143   0.729 -0.9430  2.1407  1.9934
 3636TIP3   OH232542   5.845   7.176   0.240 -0.2031 -0.6036 -0.6291
 3636TIP3    H132543   5.938   7.200   0.234 -0.5848  0.7182 -1.5869
 3636TIP3    H232544   5.822   7.193   0.331 -0.2817  2.1817 -1.0968
 3637TIP3   OH232545   1.530   0.728   1.620 -0.0479 -0.1216 -0.1566
 3637TIP3    H132546   1.603   0.742   1.559  2.0277 -1.5165  1.8459
 3637TIP3    H232547   1.526   0.809   1.671  0.5446 -0.2802  0.1485
 3638TIP3   OH232548   0.618   5.633   0.913  0.2768  0.7034 -0.6463
 3638TIP3    H132549   0.556   5.560   0.904  0.3485  0.4736  0.5925
 3638TIP3    H232550   0.588   5.681   0.990  2.8199 -0.6354  1.3278
 3639TIP3   OH232551   2.527   5.277   0.683  0.6359 -0.3172  0.1778
 3639TIP3    H132552   2.460   5.342   0.705  1.1494  0.4894 -0.5714
 3639TIP3    H232553   2.489   5.194   0.711 -1.2418 -0.0616 -1.3266
 3640TIP3   OH232554   4.653   0.668   0.156  0.1326 -0.4972  0.2500
 3640TIP3    H132555   4.618   0.745   0.201  0.2813 -0.1095 -0.2839
 3640TIP3    H232556   4.703   0.622   0.222  1.1858  0.5998  0.2479
 3641TIP3   OH232557   6.101   2.376   1.682 -0.1353  0.0863 -0.0453
 3641TIP3    H132558   6.164   2.366   1.753  1.2645  0.3840 -1.2078
 3641TIP3    H232559   6.105   2.292   1.635  0.1128  0.4512 -0.6847
 3642TIP3   OH232560   5.047   5.148   7.954 -0.3609  0.6431  0.6271
 3642TIP3    H132561   5.096   5.148   8.036 -1.9428  0.6527  1.6022
 3642TIP3    H232562   5.102   5.199   7.894  1.3027 -0.1944  1.3461
 3643TIP3   OH232563   6.661   0.681   0.320  0.2288 -0.2558 -0.6600
 3643TIP3    H132564   6.640   0.738   0.246 -0.5144  0.6898  0.2516
 3643TIP3    H232565   6.597   0.705   0.388  0.3286 -1.6987 -0.0044
 3644TIP3   OH232566   1.783   2.569   6.177  0.0103 -0.2442 -0.0854
 3644TIP3    H132567   1.713   2.617   6.134  0.4039  1.3681  1.0034
 3644TIP3    H232568   1.862   2.621   6.161  0.6933 -1.1889  0.0792
 3645TIP3   OH232569   5.926   4.152   0.692 -0.0364 -0.2577  0.4430
 3645TIP3    H132570   5.964   4.064   0.691 -0.2272 -0.3380 -0.2324
 3645TIP3    H232571   5.848   4.145   0.638  1.5370  1.0181 -2.1973
 3646TIP3   OH232572   0.987   6.218   7.322 -0.6617  0.3585 -0.0432
 3646TIP3    H132573   0.963   6.273   7.248  1.0821 -0.1405 -1.0391
 3646TIP3    H232574   1.083   6.219   7.322 -0.5997  0.9591  2.6942
 3647TIP3   OH232575   2.941   6.921   0.600 -0.0867 -0.1655  0.2250
 3647TIP3    H132576   2.960   6.941   0.509 -0.0582  0.7096  0.4215
 3647TIP3    H232577   2.871   6.982   0.625  0.4957  0.1992  1.0337
 3648TIP3   OH232578   1.183   6.424   1.514  0.1389  0.1547 -0.9915
 3648TIP3    H132579   1.167   6.388   1.427  1.4421 -1.3184 -0.6655
 3648TIP3    H232580   1.234   6.356   1.559 -2.6098 -0.2951  1.8146
 3649TIP3   OH232581   4.357   5.025   5.989  0.3229  0.5277 -0.3770
 3649TIP3    H132582   4.386   4.998   6.076 -2.9334 -4.1033 -0.3997
 3649TIP3    H232583   4.280   5.080   6.006  0.5744  0.8852 -0.3746
 3650TIP3   OH232584   4.250   0.838   0.155 -0.2719  0.2397  0.1137
 3650TIP3    H132585   4.262   0.932   0.168 -1.8261  0.4759  0.0712
 3650TIP3    H232586   4.158   0.822   0.178 -0.5012 -0.9873 -1.4773
 3651TIP3   OH232587   1.848   4.687   6.362  0.0383  0.3409  0.2310
 3651TIP3    H132588   1.904   4.741   6.418  0.4389  1.5664 -1.2807
 3651TIP3    H232589   1.787   4.749   6.322  0.1130 -0.4042 -1.0871
 3652TIP3   OH232590   0.737   0.338   6.930 -0.5767 -0.1575  0.4028
 3652TIP3    H132591   0.810   0.352   6.990 -0.4061 -0.4352  0.2591
 3652TIP3    H232592   0.669   0.398   6.961  0.8982  2.7812 -1.5255
 3653TIP3   OH232593   5.556   0.849   7.690 -0.2074 -0.4611 -0.0839
 3653TIP3    H132594   5.520   0.840   7.602 -0.4514 -0.6172  0.0288
 3653TIP3    H232595   5.518   0.776   7.739  1.6530 -1.7150 -0.4034
 3654TIP3   OH232596   0.021   0.689   1.420  0.3231 -0.3198  0.1296
 3654TIP3    H132597   0.009   0.783   1.407 -0.1274 -0.0992  1.8830
 3654TIP3    H232598  -0.068   0.654   1.424  0.4430 -0.5276  1.2580
 3655TIP3   OH232599   1.893   5.686   6.770  0.2244 -0.4121  0.5977
 3655TIP3    H132600   1.802   5.699   6.797 -0.7501 -1.0444 -2.0049
 3655TIP3    H232601   1.891   5.603   6.722  1.9945 -0.0146 -0.2327
 3656TIP3   OH232602   2.339   3.579   1.206  0.1950 -0.0195  0.4444
 3656TIP3    H132603   2.403   3.646   1.182  1.0528 -0.5951  1.0504
 3656TIP3    H232604   2.342   3.516   1.134  1.1663 -0.6255  0.9891
 3657TIP3   OH232605   4.447   4.937   6.219  0.5393 -0.2267 -0.6827
 3657TIP3    H132606   4.474   4.856   6.262 -0.3343 -0.3784 -0.3925
 3657TIP3    H232607   4.354   4.945   6.241  1.1216  2.1580  1.4334
 3658TIP3   OH232608   2.746   0.587   6.609 -0.0421 -0.2789  0.4956
 3658TIP3    H132609   2.775   0.676   6.591 -1.6692  0.0693 -0.6166
 3658TIP3    H232610   2.797   0.533   6.548 -0.8835  0.2103 -0.6935
 3659TIP3   OH232611   0.209   3.258   7.778  0.1263  0.0830 -0.5563
 3659TIP3    H132612   0.157   3.265   7.699  1.2966  0.5135 -1.3246
 3659TIP3    H232613   0.211   3.348   7.813  1.1342  0.2775 -1.0740
 3660TIP3   OH232614   4.972   0.268   1.379  0.1077  0.2754 -0.0910
 3660TIP3    H132615   4.956   0.315   1.461 -0.2496 -0.3117  0.1811
 3660TIP3    H232616   4.966   0.176   1.403  3.1095 -0.0189 -0.1440
 3661TIP3   OH232617   4.696   0.671   5.993  0.1712 -0.0468 -0.4899
 3661TIP3    H132618   4.782   0.705   5.967 -0.0331 -1.0424 -2.7631
 3661TIP3    H232619   4.634   0.738   5.966  0.1766  0.6469  1.1019
 3662TIP3   OH232620   5.510   4.594   1.517  0.6598  0.0131 -0.1325
 3662TIP3    H132621   5.585   4.586   1.576  1.6601  1.5175 -1.0916
 3662TIP3    H232622   5.442   4.636   1.570  0.7557 -0.6474  0.5335
 3663TIP3   OH232623   1.309   2.336   6.753 -0.1257  0.0552  0.3775
 3663TIP3    H132624   1.240   2.298   6.807 -0.1121  1.2392  1.2434
 3663TIP3    H232625   1.360   2.391   6.812  1.0402 -0.1076 -0.4355
 3664TIP3   OH232626   0.981   3.847   7.142  0.3771  0.7169  0.1994
 3664TIP3    H132627   1.037   3.779   7.179  1.3066  0.9536 -0.7146
 3664TIP3    H232628   1.026   3.929   7.162  1.4632  0.8115 -2.2268
 3665TIP3   OH232629   2.114   3.731   0.325  0.2661 -0.4303 -0.0450
 3665TIP3    H132630   2.150   3.813   0.292 -0.1205 -0.4814 -0.6012
 3665TIP3    H232631   2.019   3.740   0.316  0.1881 -0.6899  0.4746
 3666TIP3   OH232632   3.821   6.734   1.361 -0.0947  0.2902 -0.1247
 3666TIP3    H132633   3.729   6.728   1.334  0.5668  0.9208 -2.8677
 3666TIP3    H232634   3.858   6.649   1.339  0.1089  0.2107  0.5085
 3667TIP3   OH232635   1.240   5.733   0.623  0.5682  0.6858  0.7024
 3667TIP3    H132636   1.210   5.643   0.633 -2.0495  1.3432 -0.4340
 3667TIP3    H232637   1.243   5.768   0.712  2.6095 -0.7166  1.2750
 3668TIP3   OH232638   3.043   4.254   1.427  0.2813  0.0559 -0.3729
 3668TIP3    H132639   3.096   4.181   1.397  2.2186  0.5160  1.6996
 3668TIP3    H232640   3.070   4.328   1.371 -0.4945 -0.3805 -1.3693
 3669TIP3   OH232641   7.012   6.403   1.244  0.5801  0.2767  0.2711
 3669TIP3    H132642   6.994   6.309   1.243  0.5495  0.2670  1.2959
 3669TIP3    H232643   7.023   6.426   1.152 -0.8608 -0.4525 -0.0991
 3670TIP3   OH232644   0.830   4.241   0.387 -0.3728  0.0586  0.3022
 3670TIP3    H132645   0.861   4.330   0.403  1.5651 -0.9218  2.7467
 3670TIP3    H232646   0.903   4.198   0.343 -0.4345 -0.8659  1.0832
 3671TIP3   OH232647   7.141   2.871   6.107  0.1597 -0.1604 -0.1657
 3671TIP3    H132648   7.087   2.826   6.042 -0.9536  1.5299 -0.4456
 3671TIP3    H232649   7.231   2.848   6.083 -0.3388 -2.0305 -0.4267
 3672TIP3   OH232650   1.240   2.662   1.220 -0.0143 -0.1603  0.1762
 3672TIP3    H132651   1.301   2.729   1.190  0.6902 -1.0185 -0.3838
 3672TIP3    H232652   1.292   2.606   1.277 -0.6593 -0.0952  0.8419
 3673TIP3   OH232653   2.937   4.802   7.691 -0.2617  0.2403  0.3888
 3673TIP3    H132654   3.004   4.749   7.735  0.7625  1.3830  0.2685
 3673TIP3    H232655   2.936   4.769   7.601  0.6544  0.6672  0.2121
 3674TIP3   OH232656   0.264   2.825   0.165  0.4724  1.0608 -0.8463
 3674TIP3    H132657   0.262   2.920   0.160 -2.9475  1.2359  1.0601
 3674TIP3    H232658   0.185   2.796   0.120 -0.1925 -0.6046  1.1893
 3675TIP3   OH232659   2.014   1.511   6.373  0.0986 -0.1666 -0.2951
 3675TIP3    H132660   1.959   1.432   6.375  0.5311 -0.4600  0.7270
 3675TIP3    H232661   2.099   1.481   6.405  0.6235  0.4695 -1.0532
 3676TIP3   OH232662   1.735   6.578   1.504  0.0263 -0.2055  0.7493
 3676TIP3    H132663   1.710   6.491   1.475 -0.3633  0.3432 -0.6766
 3676TIP3    H232664   1.820   6.567   1.546 -1.7812 -1.8832  4.2927
 3677TIP3   OH232665   6.846   4.708   1.817  0.0698 -0.3195  0.0976
 3677TIP3    H132666   6.783   4.711   1.744  2.0366 -0.5086 -1.7169
 3677TIP3    H232667   6.860   4.615   1.832 -0.1677 -0.2785  0.5753
 3678TIP3   OH232668   1.313   2.144   0.994 -0.2876  0.0071 -0.1508
 3678TIP3    H132669   1.287   2.235   1.005 -0.1424  0.2721 -1.7097
 3678TIP3    H232670   1.231   2.095   0.996 -0.3628  0.1500  0.7221
 3679TIP3   OH232671   4.646   7.027   0.070  0.8705 -0.0682 -0.5932
 3679TIP3    H132672   4.742   7.032   0.077  0.7910 -0.4293  1.3320
 3679TIP3    H232673   4.625   6.937   0.095 -0.0324  0.3619  0.2838
 3680TIP3   OH232674   2.509   0.105   6.478 -0.3982 -0.5724  0.1995
 3680TIP3    H132675   2.502   0.022   6.524 -1.1323 -1.0758 -0.7699
 3680TIP3    H232676   2.458   0.167   6.532 -3.7973 -1.8026 -1.2795
 3681TIP3   OH232677   2.411   3.525   0.612  0.8270  0.3536  0.3176
 3681TIP3    H132678   2.453   3.599   0.569  0.2214  1.4103  1.4897
 3681TIP3    H232679   2.481   3.486   0.665  1.2067 -0.0747 -0.4892
 3682TIP3   OH232680   0.094   1.257   0.858  0.5835 -0.1441 -0.8285
 3682TIP3    H132681   0.135   1.171   0.862 -1.1499 -1.0196 -0.7007
 3682TIP3    H232682   0.026   1.248   0.790  2.3951  2.0943 -3.1172
 3683TIP3   OH232683   4.986   2.461   0.274 -0.0697 -0.0865  0.1489
 3683TIP3    H132684   5.048   2.389   0.262  0.1678 -0.1481  1.5301
 3683TIP3    H232685   4.958   2.453   0.365 -0.4335  1.2553  0.1782
 3684TIP3   OH232686   5.862   3.311   0.106 -0.2454 -0.1484 -0.6974
 3684TIP3    H132687   5.818   3.232   0.076 -1.0094 -0.1450  0.3574
 3684TIP3    H232688   5.798   3.381   0.093 -0.3054 -0.0280  0.1822
 3685TIP3   OH232689   0.018   0.394   6.270 -0.3996 -0.4362  0.2632
 3685TIP3    H132690   0.112   0.375   6.276 -0.2079  0.0685 -0.8629
 3685TIP3    H232691  -0.021   0.313   6.236 -0.2624 -0.4022  0.0211
 3686TIP3   OH232692   2.182   6.727   7.643 -0.0480 -0.3568  0.4487
 3686TIP3    H132693   2.202   6.797   7.706 -0.5794  1.1868 -1.0185
 3686TIP3    H232694   2.195   6.767   7.557  0.2455 -2.2799 -0.4543
 3687TIP3   OH232695   2.711   0.510   0.102  0.1647  0.0372  0.2198
 3687TIP3    H132696   2.626   0.523   0.143 -0.9096 -0.5053 -1.6747
 3687TIP3    H232697   2.721   0.585   0.043  0.4131 -0.5268 -0.4715
 3688TIP3   OH232698   3.203   0.319   7.657 -0.4646 -0.3481  0.1622
 3688TIP3    H132699   3.236   0.336   7.746 -2.2509 -0.5384  0.8997
 3688TIP3    H232700   3.204   0.223   7.650 -0.6307 -0.3447  0.1014
 3689TIP3   OH232701   6.148   6.563   0.450  0.4811 -0.1567  0.0072
 3689TIP3    H132702   6.212   6.498   0.421  0.6919 -0.0840  0.2997
 3689TIP3    H232703   6.113   6.601   0.370 -1.5789 -2.4612 -0.3044
 3690TIP3   OH232704   1.525   3.948   6.308 -0.1237 -0.1372  0.1506
 3690TIP3    H132705   1.450   3.967   6.363 -0.0322 -0.2768  0.3271
 3690TIP3    H232706   1.493   3.958   6.218  0.5395  3.2913  0.1890
 3691TIP3   OH232707   0.081   1.724   5.926  0.1316 -0.4669  0.2227
 3691TIP3    H132708   0.170   1.711   5.958 -0.1840 -0.2861  1.1890
 3691TIP3    H232709   0.076   1.671   5.846  1.1646 -0.3084  0.0466
 3692TIP3   OH232710   4.514   0.721   1.105 -0.1630 -0.5194 -0.0049
 3692TIP3    H132711   4.436   0.748   1.056 -0.3893 -1.8014 -0.3968
 3692TIP3    H232712   4.480   0.697   1.192  0.1743  1.3171  0.6805
 3693TIP3   OH232713   4.672   3.647   5.930  0.4093  0.8739 -0.0826
 3693TIP3    H132714   4.739   3.612   5.871  0.0271 -0.1818  0.0843
 3693TIP3    H232715   4.596   3.662   5.874  0.6689  1.7778 -0.2133
 3694TIP3   OH232716   3.989   1.789   0.980  0.0777 -0.2224 -0.3568
 3694TIP3    H132717   3.948   1.728   1.041  1.5404 -0.2686  0.6270
 3694TIP3    H232718   3.994   1.740   0.897 -1.7580 -0.2178 -0.5103
 3695TIP3   OH232719   7.100   6.819   1.377 -0.2331  0.3640  0.7640
 3695TIP3    H132720   7.121   6.738   1.423  0.2462  0.1016  0.0942
 3695TIP3    H232721   7.007   6.812   1.357 -0.4712  0.5308  1.7835
 3696TIP3   OH232722   6.658   5.523   7.286  0.1547  0.0547  0.1491
 3696TIP3    H132723   6.603   5.463   7.337  1.9808 -1.1863  0.7636
 3696TIP3    H232724   6.616   5.609   7.296 -2.2259 -0.9752 -0.3035
 3697TIP3   OH232725   3.249   4.790   6.636 -0.4979 -0.3906 -1.0015
 3697TIP3    H132726   3.257   4.767   6.543  1.5734  1.5511 -1.4042
 3697TIP3    H232727   3.186   4.862   6.637 -1.8472 -1.5257 -0.6159
 3698TIP3   OH232728   1.659   0.035   6.122 -0.5485  0.4674 -0.2000
 3698TIP3    H132729   1.701   0.119   6.102  0.5414 -0.4573 -2.0404
 3698TIP3    H232730   1.719  -0.007   6.185 -0.6453  0.6855  0.0418
 3699TIP3   OH232731   4.339   4.587   7.773 -0.0433  0.3139  0.5331
 3699TIP3    H132732   4.270   4.521   7.780 -1.3747  1.3145 -1.9514
 3699TIP3    H232733   4.292   4.671   7.773  0.7879  0.9652 -3.5879
 3700TIP3   OH232734   4.185   6.145   1.435  0.7297 -0.1566  0.4307
 3700TIP3    H132735   4.233   6.182   1.508  0.8298 -2.2454  1.5178
 3700TIP3    H232736   4.252   6.126   1.369  1.2501 -1.7083  1.3510
 3701TIP3   OH232737   0.131   6.263   2.317  0.1183 -0.0269  0.1216
 3701TIP3    H132738   0.140   6.170   2.338  3.1369  0.3689  1.0400
 3701TIP3    H232739   0.108   6.304   2.400  0.4553  0.2085  0.1026
 3702TIP3   OH232740   5.631   3.930   7.308 -0.5621  0.1163 -0.2864
 3702TIP3    H132741   5.725   3.912   7.310 -0.7976 -1.1864  0.0468
 3702TIP3    H232742   5.607   3.941   7.401 -1.0594 -1.4337 -0.2111
 3703TIP3   OH232743   4.458   4.794   2.073  0.3034 -0.4795 -0.0410
 3703TIP3    H132744   4.553   4.795   2.073  0.3116 -0.6124 -0.8974
 3703TIP3    H232745   4.432   4.885   2.061  0.3134 -0.3918  0.5718
 3704TIP3   OH232746   2.720   6.749   7.505 -0.1893  0.0249  1.4070
 3704TIP3    H132747   2.815   6.762   7.498  0.0559 -2.0182 -0.0731
 3704TIP3    H232748   2.683   6.837   7.500  1.3933  0.7104 -3.1221
 3705TIP3   OH232749   6.003   3.195   6.291 -0.6556  0.1299 -0.1896
 3705TIP3    H132750   6.003   3.122   6.354 -0.5170 -0.8297 -1.2582
 3705TIP3    H232751   5.919   3.238   6.303 -1.2496 -0.9386 -0.3229
 3706TIP3   OH232752   1.861   2.273   7.018  0.1671 -0.0556  0.4634
 3706TIP3    H132753   1.829   2.196   6.971  1.5485 -1.4551  1.6741
 3706TIP3    H232754   1.818   2.268   7.104  0.2607  0.5470  0.5521
 3707TIP3   OH232755   2.756   5.825   1.828 -0.4399 -0.3862  0.4717
 3707TIP3    H132756   2.667   5.848   1.856 -0.5924  1.1514 -1.1277
 3707TIP3    H232757   2.807   5.826   1.909 -1.4910  0.6203  1.1623
 3708TIP3   OH232758   2.578   4.694   0.879  0.0833  0.0139 -0.3781
 3708TIP3    H132759   2.629   4.643   0.941 -1.3745  0.4331  1.2475
 3708TIP3    H232760   2.601   4.785   0.899 -1.6276  0.2340  0.7320
 3709TIP3   OH232761   0.561   4.860   0.062  0.1517  0.1797  0.2374
 3709TIP3    H132762   0.569   4.826  -0.027  3.0715  1.6136 -0.1871
 3709TIP3    H232763   0.503   4.936   0.055  0.5996  0.4553 -0.5154
 3710TIP3   OH232764   4.775   4.064   7.502 -0.1039  0.2696 -0.6083
 3710TIP3    H132765   4.866   4.043   7.480  0.5995  1.6416  0.8111
 3710TIP3    H232766   4.772   4.159   7.500 -1.6585  0.2332 -1.0821
 3711TIP3   OH232767   6.248   3.399   0.660  0.0605  0.0748  0.0609
 3711TIP3    H132768   6.259   3.380   0.567  1.9507  0.2899  0.1984
 3711TIP3    H232769   6.158   3.372   0.680  0.1513 -1.5175 -1.4596
 3712TIP3   OH232770   5.886   3.039   0.870  0.1172  0.3272 -0.2331
 3712TIP3    H132771   5.910   3.112   0.927  0.2914 -2.0875  3.0733
 3712TIP3    H232772   5.964   2.984   0.868  0.2870  0.5378 -3.3536
 3713TIP3   OH232773   4.871   3.174   6.323  0.3282 -0.4846 -0.3531
 3713TIP3    H132774   4.846   3.082   6.315  1.3786 -0.7404 -0.8563
 3713TIP3    H232775   4.965   3.172   6.341  0.1213  0.4581  0.9637
 3714TIP3   OH232776   6.695   5.974   7.796 -0.3626 -0.3774 -0.2492
 3714TIP3    H132777   6.768   6.006   7.742  0.4464 -1.7901 -0.0482
 3714TIP3    H232778   6.676   5.887   7.761 -3.2581  0.6539 -1.5037
 3715TIP3   OH232779   0.794   4.150   2.311  0.2884 -0.5384 -0.1211
 3715TIP3    H132780   0.725   4.216   2.315  0.6690 -0.1535  0.2996
 3715TIP3    H232781   0.797   4.124   2.219  3.8543  4.1476 -1.7363
 3716TIP3   OH232782   4.376   0.548   5.588  0.1350  0.1799  0.2796
 3716TIP3    H132783   4.464   0.555   5.553 -0.4494  1.6182 -1.0354
 3716TIP3    H232784   4.357   0.454   5.589  1.4289 -0.0936 -0.0319
 3717TIP3   OH232785   7.118   2.916   0.001 -0.3899  0.3493 -0.2072
 3717TIP3    H132786   7.150   2.993  -0.046 -0.5893  1.1779  0.9448
 3717TIP3    H232787   7.033   2.944   0.037 -0.7794 -0.6421 -0.3281
 3718TIP3   OH232788   3.686   6.590   0.689  0.2725 -0.1091  0.3085
 3718TIP3    H132789   3.723   6.503   0.676 -0.4232 -0.2963 -0.5013
 3718TIP3    H232790   3.654   6.616   0.603 -0.6687  0.4195  0.8012
 3719TIP3   OH232791   4.576   5.733   7.149 -0.6115 -0.7309  0.6765
 3719TIP3    H132792   4.672   5.725   7.157 -0.1395  1.9629 -1.1425
 3719TIP3    H232793   4.547   5.747   7.239  0.9193  0.0844  1.0852
 3720TIP3   OH232794   4.330   5.410   5.993  0.3460 -0.4801 -0.3444
 3720TIP3    H132795   4.262   5.346   6.014 -0.8796  1.0540  0.5849
 3720TIP3    H232796   4.355   5.447   6.078  2.5473 -1.1598 -0.6369
 3721TIP3   OH232797   4.704   1.544   7.658 -0.0110  0.2130  0.0869
 3721TIP3    H132798   4.709   1.457   7.619  0.7122  0.1642  0.2824
 3721TIP3    H232799   4.630   1.539   7.718 -1.1470  0.2937 -1.2581
 3722TIP3   OH232800   0.484   1.369   1.685 -0.4189  0.2064  0.1526
 3722TIP3    H132801   0.444   1.434   1.743  1.4810  1.6570 -0.0932
 3722TIP3    H232802   0.506   1.296   1.743 -1.0861  0.4547  0.7330
 3723TIP3   OH232803   6.060   2.146   1.515  0.0914  0.0041 -0.2332
 3723TIP3    H132804   6.060   2.071   1.456  0.4937 -0.7691  0.7080
 3723TIP3    H232805   6.084   2.109   1.600  0.9380  1.3096  0.1252
 3724TIP3   OH232806   5.090   1.605   6.506 -0.5533 -0.0839  0.7440
 3724TIP3    H132807   5.162   1.656   6.468 -1.0780  0.5769  0.6193
 3724TIP3    H232808   5.121   1.514   6.502 -0.7108 -0.0944 -1.5751
 3725TIP3   OH232809   0.824   3.633   1.498 -0.0958  0.0842  0.0680
 3725TIP3    H132810   0.900   3.663   1.549  1.1253 -2.3825 -0.1357
 3725TIP3    H232811   0.834   3.538   1.495 -1.8962 -0.1045 -2.0597
 3726TIP3   OH232812   4.214   3.842   6.482  0.3704 -0.6129  0.4048
 3726TIP3    H132813   4.133   3.890   6.465  0.6333  1.2581  3.5621
 3726TIP3    H232814   4.185   3.753   6.502 -0.8414 -0.1637  0.7398
 3727TIP3   OH232815   5.361   1.577   1.587  0.1269 -0.0952 -0.2248
 3727TIP3    H132816   5.376   1.488   1.555  0.5244 -0.4572  0.9113
 3727TIP3    H232817   5.417   1.584   1.665 -1.6207  0.3260  1.0718
 3728TIP3   OH232818   5.718   0.388   1.549  0.0979  0.1765  0.0981
 3728TIP3    H132819   5.786   0.409   1.486  2.6358 -1.1280  2.2306
 3728TIP3    H232820   5.731   0.450   1.621  0.6482 -1.5599  1.5782
 3729TIP3   OH232821   5.940   5.278   0.125 -0.3556 -0.0206 -0.1156
 3729TIP3    H132822   5.877   5.324   0.181  0.8875  0.0484  1.2893
 3729TIP3    H232823   5.893   5.263   0.043 -2.4621 -0.6934  1.1501
 3730TIP3   OH232824   5.578   3.084   6.401  0.3684 -0.1924 -0.3123
 3730TIP3    H132825   5.556   3.175   6.382  2.2232  0.8186  1.8542
 3730TIP3    H232826   5.494   3.039   6.406 -0.7373  1.8137  0.3546
 3731TIP3   OH232827   5.852   0.446   6.857 -0.0168 -0.1848 -0.6905
 3731TIP3    H132828   5.806   0.377   6.904 -1.1933  1.5101  0.8023
 3731TIP3    H232829   5.880   0.507   6.925  1.1136  0.7429 -1.9371
 3732TIP3   OH232830   2.341   5.736   5.739 -0.2850 -0.2734 -0.3226
 3732TIP3    H132831   2.337   5.641   5.729 -0.1620 -0.3260  0.1345
 3732TIP3    H232832   2.392   5.750   5.819 -4.1842  0.0084  2.4165
 3733TIP3   OH232833   5.456   7.052   1.229 -0.3092 -0.3611 -0.0798
 3733TIP3    H132834   5.477   6.995   1.155 -3.2528 -1.1069 -0.4436
 3733TIP3    H232835   5.440   6.992   1.302 -2.5914 -0.0640 -0.2517
 3734TIP3   OH232836   4.079   4.602   7.045  0.2750  0.5647 -0.0194
 3734TIP3    H132837   4.001   4.547   7.036  1.0656 -0.8644  1.4657
 3734TIP3    H232838   4.045   4.686   7.076 -0.7822  0.4304 -0.7380
 3735TIP3   OH232839   2.164   0.044   1.137 -0.1042 -0.2763  0.0843
 3735TIP3    H132840   2.199   0.004   1.217  0.6434  0.6023  0.2151
 3735TIP3    H232841   2.225   0.017   1.068  0.3233  0.5046  0.1503
 3736TIP3   OH232842   5.481   2.216   7.253 -0.2145 -0.3766 -0.0114
 3736TIP3    H132843   5.389   2.192   7.239 -0.4480 -0.1991  1.1185
 3736TIP3    H232844   5.521   2.136   7.288  0.2958 -0.7403 -1.3712
 3737TIP3   OH232845   4.947   1.193   7.031 -0.1799  0.1524 -0.2056
 3737TIP3    H132846   4.996   1.167   6.953  1.7307  1.5996  0.4297
 3737TIP3    H232847   4.978   1.135   7.100 -0.5597  0.0350 -0.1289
 3738TIP3   OH232848   4.037   6.336   1.220  0.4512 -0.0385  0.4680
 3738TIP3    H132849   3.946   6.348   1.195  0.1862  0.8994  1.7934
 3738TIP3    H232850   4.076   6.423   1.213  1.8108 -0.7464 -2.0432
 3739TIP3   OH232851   0.726   1.380   7.703  0.3468 -0.4570 -0.0675
 3739TIP3    H132852   0.693   1.469   7.718  2.7871  1.0026 -2.4487
 3739TIP3    H232853   0.813   1.380   7.742  0.4523 -1.7772 -0.2544
 3740TIP3   OH232854   1.064   4.206   0.036 -0.4934 -0.0017  0.3032
 3740TIP3    H132855   1.009   4.267  -0.013 -0.4958 -0.6044 -0.4455
 3740TIP3    H232856   1.106   4.261   0.103 -0.9003  0.7204 -0.0208
 3741TIP3   OH232857   1.686   0.883   0.360  1.1925  0.0595  1.0572
 3741TIP3    H132858   1.644   0.818   0.304 -0.7907  1.5469  0.6647
 3741TIP3    H232859   1.677   0.848   0.448  0.7837 -0.5119  0.7954
 3742TIP3   OH232860   2.231   2.835   0.160  0.2897  0.4282  0.6876
 3742TIP3    H132861   2.306   2.785   0.192 -0.8592 -0.1758  2.6483
 3742TIP3    H232862   2.164   2.769   0.142 -0.3186  1.0580  0.6101
 3743TIP3   OH232863   0.667   0.459   7.733  0.0333 -0.5814  0.5043
 3743TIP3    H132864   0.608   0.518   7.779 -0.2145  1.5744 -2.3368
 3743TIP3    H232865   0.753   0.499   7.741 -0.0232 -0.1338 -0.8814
 3744TIP3   OH232866   6.278   7.035   0.666  0.0416 -0.7263 -0.4213
 3744TIP3    H132867   6.203   7.092   0.683  0.3646 -0.2988 -0.4211
 3744TIP3    H232868   6.249   6.949   0.696 -0.2201 -0.4388  0.1765
 3745TIP3   OH232869   3.164   0.846   6.218 -0.3499 -0.2639 -0.2926
 3745TIP3    H132870   3.074   0.880   6.219 -0.3619 -0.0134  3.6831
 3745TIP3    H232871   3.211   0.907   6.161 -2.1304  1.2825 -0.2333
 3746TIP3   OH232872   5.849   4.991   6.591 -0.4389  0.2352 -0.3751
 3746TIP3    H132873   5.836   5.085   6.593 -0.3888  0.2366 -0.0327
 3746TIP3    H232874   5.795   4.960   6.519 -1.0468  0.4343 -0.0115
 3747TIP3   OH232875   6.802   2.777   0.244  0.0640  0.6032  0.1292
 3747TIP3    H132876   6.837   2.714   0.182  2.0084 -1.2508  2.9006
 3747TIP3    H232877   6.784   2.855   0.191  1.3338 -0.9094 -2.7482
 3748TIP3   OH232878   1.032   2.417   2.296  0.0318 -0.2192  0.0779
 3748TIP3    H132879   0.967   2.369   2.244  0.6544 -0.3277 -0.6250
 3748TIP3    H232880   1.075   2.349   2.348  0.3548 -0.3229 -0.3122
 3749TIP3   OH232881   6.895   1.233   0.923 -0.5790 -0.0766  0.1033
 3749TIP3    H132882   6.801   1.225   0.906 -0.3942 -0.2478 -0.9142
 3749TIP3    H232883   6.922   1.146   0.954 -0.5630 -0.3634 -0.6793
 3750TIP3   OH232884   6.956   1.053   6.809 -0.4169 -0.4237  0.1964
 3750TIP3    H132885   6.873   1.063   6.763  0.2031 -1.2713 -1.1640
 3750TIP3    H232886   6.937   1.083   6.899 -2.5350 -1.8230  0.2941
 3751TIP3   OH232887   3.516   4.377   5.899  0.1879  0.1261  0.0635
 3751TIP3    H132888   3.487   4.304   5.844  1.2002  0.7674 -1.3566
 3751TIP3    H232889   3.435   4.421   5.925 -0.4547 -1.5006  1.0074
 3752TIP3   OH232890   2.537   4.691   1.305 -0.3433 -0.1319 -0.2599
 3752TIP3    H132891   2.462   4.750   1.297 -1.1204 -0.9541  0.6275
 3752TIP3    H232892   2.522   4.645   1.388  1.7558  0.5028  0.5414
 3753TIP3   OH232893   5.721   2.560   0.603  0.3993 -0.2315  0.5410
 3753TIP3    H132894   5.735   2.498   0.674  1.1504 -0.0177  0.5919
 3753TIP3    H232895   5.626   2.566   0.594  0.3086 -0.6590  1.1734
 3754TIP3   OH232896   3.529   2.525   1.848 -0.0756 -0.0625  0.2824
 3754TIP3    H132897   3.589   2.573   1.792 -0.1207  1.9691  1.8441
 3754TIP3    H232898   3.450   2.515   1.795  0.5714 -0.0414 -0.7172
 3755TIP3   OH232899   6.104   1.513   6.515  0.1775 -0.2170 -0.1853
 3755TIP3    H132900   6.054   1.498   6.595 -0.6521  1.9417 -0.2331
 3755TIP3    H232901   6.189   1.545   6.545  0.0979 -0.0395 -0.1455
 3756TIP3   OH232902   4.929   2.365   0.736 -0.2559 -0.3818  0.2306
 3756TIP3    H132903   4.947   2.453   0.769 -2.3692 -0.1241  0.8130
 3756TIP3    H232904   4.970   2.306   0.799 -0.2001  0.1721  0.7167
 3757TIP3   OH232905   1.252   0.041   1.325 -0.2872  0.3403  0.0219
 3757TIP3    H132906   1.194   0.072   1.395  0.5524 -0.3296  1.0466
 3757TIP3    H232907   1.340   0.055   1.359  0.1448 -2.0622  0.0762
 3758TIP3   OH232908   2.147   2.657   7.534 -0.3602 -0.0761  0.4249
 3758TIP3    H132909   2.220   2.616   7.581 -0.7124 -1.5821 -0.2588
 3758TIP3    H232910   2.101   2.583   7.495 -0.3738  1.0688 -1.8642
 3759TIP3   OH232911   6.144   2.390   7.916 -0.1951  0.3811  0.4437
 3759TIP3    H132912   6.064   2.339   7.925  0.8857 -1.2000  1.4402
 3759TIP3    H232913   6.212   2.326   7.895  1.3623  1.2460  2.5159
 3760TIP3   OH232914   4.800   4.986   7.859 -0.0435 -0.2753  0.6502
 3760TIP3    H132915   4.845   4.936   7.792 -0.1543  0.4911 -0.0220
 3760TIP3    H232916   4.865   5.049   7.891  0.4708 -1.6053  2.3646
 3761TIP3   OH232917   5.092   2.097   7.551 -0.2575 -0.1453  0.1390
 3761TIP3    H132918   5.024   2.164   7.545 -0.5675 -0.5799 -2.7170
 3761TIP3    H232919   5.165   2.140   7.595 -0.7294  1.8532 -0.9235
 3762TIP3   OH232920   5.898   6.329   7.571 -0.2265 -0.2630  0.1196
 3762TIP3    H132921   5.989   6.307   7.593  0.4991  1.8232 -0.5585
 3762TIP3    H232922   5.874   6.264   7.504  0.9105 -0.5931  0.0053
 3763TIP3   OH232923   0.142   6.382   6.702 -0.5141 -0.3503  0.2292
 3763TIP3    H132924   0.065   6.438   6.702 -0.7468 -0.6419  1.3042
 3763TIP3    H232925   0.215   6.441   6.680 -0.9968 -0.0225 -0.5256
 3764TIP3   OH232926   3.699   2.599   1.642 -0.3150  0.0356 -0.2761
 3764TIP3    H132927   3.753   2.522   1.623 -0.4533 -0.5748  1.5805
 3764TIP3    H232928   3.670   2.629   1.556  1.6111 -0.5986 -1.2170
 3765TIP3   OH232929   5.601   3.563   7.860 -0.2672  0.2029 -0.1589
 3765TIP3    H132930   5.552   3.562   7.777  1.8350  1.2842 -1.5221
 3765TIP3    H232931   5.687   3.598   7.836 -0.1522  2.3937  2.8160
 3766TIP3   OH232932   5.406   3.488   0.889  0.2435  0.1910  0.2289
 3766TIP3    H132933   5.320   3.491   0.930  0.7103 -0.9104  1.3754
 3766TIP3    H232934   5.411   3.402   0.849  1.6810 -0.7754  2.3000
 3767TIP3   OH232935   0.466   5.158   7.744 -0.0077  0.6069 -0.5003
 3767TIP3    H132936   0.552   5.117   7.749 -0.1848  0.1775 -0.9058
 3767TIP3    H232937   0.485   5.251   7.729  0.4044  0.8080  1.0983
 3768TIP3   OH232938   1.831   6.093   0.877  0.2382 -0.4901 -0.8065
 3768TIP3    H132939   1.766   6.041   0.925  1.0638 -2.4864 -1.7637
 3768TIP3    H232940   1.908   6.093   0.933 -0.1532  0.8810 -0.2144
 3769TIP3   OH232941   3.834   2.704   2.087  0.3874 -0.3149 -0.1652
 3769TIP3    H132942   3.906   2.671   2.140 -1.1471 -2.2045  0.8402
 3769TIP3    H232943   3.849   2.666   2.000  0.2037 -1.3474  0.2419
 3770TIP3   OH232944   0.336   0.302   0.342 -0.2819 -0.0958  0.4827
 3770TIP3    H132945   0.421   0.324   0.380 -0.8320 -0.8569  2.2427
 3770TIP3    H232946   0.294   0.388   0.326  0.5167  0.2586  0.2473
 3771TIP3   OH232947   0.660   6.351   1.821  0.4034 -0.4785  0.4630
 3771TIP3    H132948   0.567   6.369   1.838  0.2380  1.3863 -1.8785
 3771TIP3    H232949   0.706   6.425   1.862  0.9697 -1.7157  2.1556
 3772TIP3   OH232950   7.200   4.062   7.764 -0.5476 -0.1281  0.0328
 3772TIP3    H132951   7.256   4.063   7.687 -0.2357 -0.8194  0.2389
 3772TIP3    H232952   7.260   4.047   7.837 -0.8588  0.3601  0.3885
 3773TIP3   OH232953   3.524   1.501   0.346  0.4171 -0.0735  0.3624
 3773TIP3    H132954   3.554   1.521   0.435 -2.6350  0.1593  1.4392
 3773TIP3    H232955   3.469   1.423   0.356 -1.3371  0.9172 -0.9887
 3774TIP3   OH232956   4.479   5.726   0.313  0.3527 -0.0641  0.3374
 3774TIP3    H132957   4.472   5.657   0.379  3.2012 -1.8295 -0.9964
 3774TIP3    H232958   4.550   5.697   0.256 -1.4091  1.7462 -3.0737
 3775TIP3   OH232959   0.814   3.434   0.282  0.2613 -0.0459  0.0413
 3775TIP3    H132960   0.751   3.366   0.258  0.1907 -0.3096  0.9537
 3775TIP3    H232961   0.899   3.389   0.284  0.1657 -0.1873  0.9898
 3776TIP3   OH232962   0.256   2.515   2.542 -0.0152  0.1272  0.3448
 3776TIP3    H132963   0.339   2.521   2.589  0.7977 -1.5918 -0.7968
 3776TIP3    H232964   0.249   2.598   2.494  0.9089  0.3836  0.6445
 3777TIP3   OH232965   0.807   4.145   6.768  0.4133 -0.0342 -0.4540
 3777TIP3    H132966   0.862   4.139   6.690  3.1774  0.2817  1.3453
 3777TIP3    H232967   0.785   4.055   6.789  1.5424 -0.3151 -0.3884
 3778TIP3   OH232968   5.269   0.866   6.315 -0.2562  0.2215 -0.1733
 3778TIP3    H132969   5.285   0.823   6.231 -1.9603  0.2630 -0.5524
 3778TIP3    H232970   5.175   0.883   6.316 -0.4448 -0.5648  2.1096
 3779TIP3   OH232971   0.432   2.863   6.664 -1.2131  0.4043 -0.1432
 3779TIP3    H132972   0.489   2.894   6.734  1.4505 -0.1355 -1.9222
 3779TIP3    H232973   0.379   2.939   6.641  0.1390  1.5349  0.3434
 3780TIP3   OH232974   4.326   4.985   1.213 -0.0883 -0.4602  0.1048
 3780TIP3    H132975   4.331   5.009   1.305 -3.4684 -0.2654  0.3495
 3780TIP3    H232976   4.300   5.066   1.169 -1.8142 -1.2823 -0.4790
 3781TIP3   OH232977   0.041   2.946   6.705  0.1992 -0.0184 -0.3025
 3781TIP3    H132978   0.085   2.877   6.754 -0.1421 -0.3262 -0.4297
 3781TIP3    H232979  -0.016   2.900   6.643  0.3850  0.3718 -0.7655
 3782TIP3   OH232980   6.285   0.178   7.677 -0.1503 -0.8123  0.1547
 3782TIP3    H132981   6.253   0.222   7.755  0.5411 -1.9676  1.1285
 3782TIP3    H232982   6.219   0.195   7.610 -1.7697 -1.4432  1.5395
 3783TIP3   OH232983   1.239   3.547   0.099  0.2282  0.1459 -0.5154
 3783TIP3    H132984   1.192   3.467   0.074  3.0479 -1.7036 -0.3368
 3783TIP3    H232985   1.288   3.571   0.021 -0.3121  1.5327 -0.4428
 3784TIP3   OH232986   7.036   5.205   7.928 -0.2307 -0.0722 -0.0226
 3784TIP3    H132987   6.944   5.210   7.904 -0.2278  0.6220  0.0720
 3784TIP3    H232988   7.071   5.291   7.905  0.3341 -0.2446  0.1707
 3785TIP3   OH232989   0.223   2.755   2.422  0.2906 -0.6553  0.7662
 3785TIP3    H132990   0.208   2.767   2.328  3.8502 -2.1082 -0.1764
 3785TIP3    H232991   0.162   2.814   2.465 -1.1008  0.4469 -2.4808
 3786TIP3   OH232992   0.389   5.857   7.729  0.7109  0.1166  0.1616
 3786TIP3    H132993   0.334   5.790   7.689  1.1887 -1.0808  1.4413
 3786TIP3    H232994   0.477   5.841   7.693  0.5698  1.0164 -0.6473
 3787TIP3   OH232995   0.906   3.920   1.956 -0.1443  0.6427  0.2963
 3787TIP3    H132996   0.843   3.977   1.999 -1.3247  1.0181 -1.7700
 3787TIP3    H232997   0.872   3.910   1.867  1.7398 -0.6950 -0.3431
 3788TIP3   OH232998   1.808   0.729   0.894 -0.0592 -0.3797 -0.3750
 3788TIP3    H132999   1.720   0.721   0.931  0.2786  1.0495  0.8546
 3788TIP3    H233000   1.855   0.652   0.927 -0.4501 -0.3870  0.1695
 3789TIP3   OH233001   6.879   0.656   7.713 -0.5054  0.0690 -0.1965
 3789TIP3    H133002   6.809   0.699   7.763  0.4849 -0.2919  1.5696
 3789TIP3    H233003   6.868   0.688   7.624 -2.3732  0.7021  0.2185
 3790TIP3   OH233004   6.218   2.240   7.316 -0.2282  0.2618  0.1929
 3790TIP3    H133005   6.151   2.227   7.248  0.9500  0.2982 -1.0207
 3790TIP3    H233006   6.289   2.286   7.271 -0.2141  2.1143  1.9611
 3791TIP3   OH233007   5.780   5.472   1.717  0.4295 -0.1309  0.0473
 3791TIP3    H133008   5.822   5.414   1.780  1.1598  2.4937  2.1369
 3791TIP3    H233009   5.852   5.521   1.677 -0.1097 -0.9682 -2.1523
 3792TIP3   OH233010   5.490   3.588   0.516 -0.3483  0.2444  0.3599
 3792TIP3    H133011   5.563   3.647   0.499 -2.1398  2.9856  1.4304
 3792TIP3    H233012   5.435   3.593   0.438 -0.4405 -0.1439  0.3961
 3793TIP3   OH233013   4.034   1.720   0.708 -0.0988 -0.5786 -0.0848
 3793TIP3    H133014   3.942   1.736   0.684  0.3894  1.8347 -0.6717
 3793TIP3    H233015   4.065   1.658   0.641 -0.2707  1.7683 -2.5249
 3794TIP3   OH233016   4.155   0.157   0.551 -0.2524 -0.3418  0.1309
 3794TIP3    H133017   4.192   0.147   0.639  0.5828 -3.2698 -0.4514
 3794TIP3    H233018   4.078   0.213   0.564  0.2610 -0.0946  2.5963
 3795TIP3   OH233019   2.921   3.051   1.611  0.2812  0.0754  0.5562
 3795TIP3    H133020   2.911   2.959   1.587 -0.7048 -0.0568  1.4225
 3795TIP3    H233021   2.865   3.062   1.688 -1.0080  1.8289 -0.5880
 3796TIP3   OH233022   1.591   6.935   0.145  0.5769 -0.8500  0.1588
 3796TIP3    H133023   1.608   7.013   0.199  1.3282 -2.2139  1.9997
 3796TIP3    H233024   1.498   6.941   0.124  0.4187  0.1028  1.0109
 3797TIP3   OH233025   2.997   3.059   6.895 -0.0150 -0.3313  0.0930
 3797TIP3    H133026   3.017   3.085   6.985  1.1650 -1.4180  0.1799
 3797TIP3    H233027   3.061   2.990   6.875 -0.2760 -0.1420 -1.5639
 3798TIP3   OH233028   1.948   2.255   1.254 -0.2790 -0.1613  0.3006
 3798TIP3    H133029   1.864   2.297   1.238 -0.6231 -0.5144  1.1020
 3798TIP3    H233030   2.009   2.300   1.196 -1.0933 -0.1666 -0.5903
 3799TIP3   OH233031   6.900   5.314   6.318  0.0250  0.3858 -0.5863
 3799TIP3    H133032   6.843   5.248   6.357  0.0408  0.8442  0.2382
 3799TIP3    H233033   6.862   5.331   6.232 -0.3584 -0.2079 -0.5422
 3800TIP3   OH233034   3.657   4.840   7.337 -0.3873 -0.6115  0.4749
 3800TIP3    H133035   3.656   4.759   7.388 -2.3605 -0.4926  0.6942
 3800TIP3    H233036   3.591   4.827   7.269 -0.2941  0.5766  0.1310
 3801TIP3   OH233037   4.961   5.678   1.326  0.0954  0.2626 -0.3470
 3801TIP3    H133038   5.020   5.654   1.398  0.7523  1.7850 -0.3372
 3801TIP3    H233039   5.010   5.656   1.247  0.1270  0.3007 -0.3379
 3802TIP3   OH233040   6.499   5.658   0.546  0.1108 -0.1593  0.1617
 3802TIP3    H133041   6.411   5.687   0.572 -0.2879 -0.4302 -0.8534
 3802TIP3    H233042   6.487   5.567   0.518  0.7588 -0.2624  0.2047
 3803TIP3   OH233043   2.986   5.480   0.462  0.2421  0.8030 -0.3603
 3803TIP3    H133044   3.002   5.572   0.442  2.9192  0.2970 -0.8625
 3803TIP3    H233045   2.979   5.477   0.558 -0.6543  1.6086 -0.3853
 3804TIP3   OH233046   3.674   1.269   7.378  0.3341  0.0210 -0.0400
 3804TIP3    H133047   3.726   1.205   7.329 -2.0990 -1.0854 -1.3668
 3804TIP3    H233048   3.610   1.302   7.314 -0.8792  0.9862  1.5887
 3805TIP3   OH233049   1.560   5.314   0.537  0.0397  0.4298 -0.3736
 3805TIP3    H133050   1.646   5.292   0.571 -0.1484  1.2074  0.6439
 3805TIP3    H233051   1.517   5.229   0.523  1.0363  0.0307 -1.1217
 3806TIP3   OH233052   5.751   2.492   7.591 -0.2581  0.7017  0.3762
 3806TIP3    H133053   5.767   2.551   7.518 -0.2250 -0.3997 -0.5367
 3806TIP3    H233054   5.684   2.536   7.643  0.7643  2.1813  0.5022
 3807TIP3   OH233055   3.906   2.527   7.466 -0.1836  0.0268 -0.5144
 3807TIP3    H133056   3.992   2.552   7.433 -0.5714  0.9193 -0.8558
 3807TIP3    H233057   3.914   2.433   7.482  0.0183 -0.4940 -3.1989
 3808TIP3   OH233058   2.089   6.894   1.389  0.2883 -0.1011 -0.3689
 3808TIP3    H133059   2.099   6.920   1.297 -0.9571  0.1319 -0.4595
 3808TIP3    H233060   2.064   6.802   1.386 -1.2102  0.2716 -0.3713
 3809TIP3   OH233061   2.186   6.793   7.357  0.4384  0.2523  0.9370
 3809TIP3    H133062   2.130   6.868   7.339 -0.4028 -0.5754 -0.0554
 3809TIP3    H233063   2.266   6.810   7.308 -0.3549 -0.1904 -0.5674
 3810TIP3   OH233064   0.128   5.139   6.925 -0.2932 -0.1913  0.0438
 3810TIP3    H133065   0.127   5.046   6.906  1.3685 -0.1077 -0.6534
 3810TIP3    H233066   0.217   5.167   6.904  0.3024  0.9026  3.3341
 3811TIP3   OH233067   6.746   0.421   0.372  0.0557 -0.3804 -0.7777
 3811TIP3    H133068   6.796   0.418   0.290  0.5453  0.9103 -0.5607
 3811TIP3    H233069   6.709   0.509   0.373 -0.4104 -0.5806  0.1268
 3812TIP3   OH233070   0.803   1.828   0.374 -0.3254  0.2445  0.1294
 3812TIP3    H133071   0.847   1.912   0.360  0.1710  0.0724  0.6114
 3812TIP3    H233072   0.786   1.795   0.286  3.2969 -1.1182 -0.2135
 3813TIP3   OH233073   1.869   3.823   1.020 -0.1133  0.1422  0.2151
 3813TIP3    H133074   1.894   3.742   0.976 -0.9327 -0.4726  0.8670
 3813TIP3    H233075   1.792   3.800   1.073  0.5318  0.9900  1.5717
 3814TIP3   OH233076   2.996   3.274   1.309 -0.1110  0.3297 -0.1587
 3814TIP3    H133077   2.925   3.276   1.244  0.6605 -0.9875 -1.0727
 3814TIP3    H233078   2.962   3.327   1.381 -1.9818 -0.1487 -0.6203
 3815TIP3   OH233079   1.479   3.387   0.223  1.1626 -0.0344  0.1262
 3815TIP3    H133080   1.459   3.426   0.308  0.5860  0.3977 -0.1987
 3815TIP3    H233081   1.443   3.449   0.159  1.2252 -0.5533 -0.4205
 3816TIP3   OH233082   2.518   3.121   0.253 -0.2179  0.5550  0.0612
 3816TIP3    H133083   2.568   3.194   0.217 -0.9183  1.3536  0.6600
 3816TIP3    H233084   2.462   3.092   0.181 -0.0736  0.7373 -0.1244
 3817TIP3   OH233085   0.960   3.259   1.145  0.1168 -0.1268 -0.1063
 3817TIP3    H133086   0.933   3.298   1.062  0.3836  1.6215  0.5762
 3817TIP3    H233087   0.911   3.177   1.150 -1.7550  0.8771 -0.8755
 3818TIP3   OH233088   2.751   6.373   6.229  0.0013  0.3268 -0.6740
 3818TIP3    H133089   2.699   6.442   6.270 -1.7123 -0.0641 -2.0771
 3818TIP3    H233090   2.734   6.382   6.135 -0.6140 -2.1993 -0.8848
 3819TIP3   OH233091   3.224   4.982   1.326 -0.1583 -0.4920 -0.2359
 3819TIP3    H133092   3.167   5.004   1.399  1.1402  2.5267  0.0402
 3819TIP3    H233093   3.312   4.999   1.359  0.6822 -2.0015 -1.6003
 3820TIP3   OH233094   3.651   5.236   6.415 -0.1431  0.1616 -0.2783
 3820TIP3    H133095   3.741   5.246   6.445  0.4174  0.8275 -2.0547
 3820TIP3    H233096   3.597   5.260   6.491  1.0690 -2.7358  1.6824
 3821TIP3   OH233097   3.492   4.833   7.757 -0.0305 -0.4170 -0.2924
 3821TIP3    H133098   3.482   4.739   7.747 -0.6321 -0.2961 -0.9264
 3821TIP3    H233099   3.581   4.845   7.790 -0.2418 -1.2539  0.6271
 3822TIP3   OH233100   6.367   0.359   2.069 -0.6291  0.1564 -0.2949
 3822TIP3    H133101   6.383   0.420   2.141 -2.0331 -0.2645  0.4031
 3822TIP3    H233102   6.308   0.406   2.010  0.2824  0.3881 -1.0410
 3823TIP3   OH233103   0.210   1.465   1.205  0.2991 -0.1016 -0.4453
 3823TIP3    H133104   0.144   1.503   1.146 -0.2097 -0.1580  0.0697
 3823TIP3    H233105   0.271   1.420   1.148  0.3570  0.6584 -0.9967
 3824TIP3   OH233106   7.132   6.329   7.221 -0.3507  0.6528 -0.2665
 3824TIP3    H133107   7.222   6.362   7.227 -0.3786  0.7689 -0.4737
 3824TIP3    H233108   7.123   6.270   7.296 -0.2490  0.9967  0.0162
 3825TIP3   OH233109   5.473   0.406   0.922  0.9740  0.7431  0.3873
 3825TIP3    H133110   5.510   0.359   0.847  1.3059 -2.1923  2.2026
 3825TIP3    H233111   5.378   0.395   0.913  1.0009  0.6270  0.2506
 3826TIP3   OH233112   0.827   3.234   7.130 -0.3553 -0.5390  0.0872
 3826TIP3    H133113   0.893   3.191   7.076 -0.5106 -2.2670  1.1909
 3826TIP3    H233114   0.746   3.227   7.079 -0.1888 -0.6792 -0.1593
 3827TIP3   OH233115   6.002   3.729   7.359  0.6434  0.8915 -0.4354
 3827TIP3    H133116   5.969   3.819   7.358  0.4917  0.8332 -0.6117
 3827TIP3    H233117   6.097   3.739   7.352  0.8319  1.1420  1.7320
 3828TIP3   OH233118   1.193   5.655   6.743 -0.8588 -0.0789  0.3273
 3828TIP3    H133119   1.185   5.560   6.730 -0.8718 -0.0957  0.4555
 3828TIP3    H233120   1.231   5.687   6.662  5.7215 -1.0369  2.4465
 3829TIP3   OH233121   6.945   1.502   6.144  0.2487  0.6082  0.2610
 3829TIP3    H133122   6.879   1.492   6.076  0.2021 -0.1199  0.4021
 3829TIP3    H233123   6.902   1.475   6.224  0.9188 -0.6039  0.2366
 3830TIP3   OH233124   5.894   5.350   7.541 -0.2003  0.6713  0.0753
 3830TIP3    H133125   5.814   5.301   7.522 -0.4132  1.3647 -0.9365
 3830TIP3    H233126   5.949   5.336   7.464  0.3185  0.8465  0.4118
 3831TIP3   OH233127   4.534   5.381   0.047  0.0189 -0.5347  0.3089
 3831TIP3    H133128   4.559   5.308  -0.010 -2.3855 -0.1690 -1.3878
 3831TIP3    H233129   4.568   5.459   0.003  2.7591 -0.5412  2.2225
 3832TIP3   OH233130   0.815   1.295   6.792 -0.0426 -0.2074  0.5455
 3832TIP3    H133131   0.865   1.214   6.803  0.2092  0.0613  1.3881
 3832TIP3    H233132   0.757   1.298   6.868 -2.7534 -1.4877 -1.3154
 3833TIP3   OH233133   4.291   0.299   6.924  0.5740 -0.1019  0.6126
 3833TIP3    H133134   4.251   0.287   6.838  1.4431 -0.4464  0.2409
 3833TIP3    H233135   4.344   0.378   6.915  1.9122 -0.9901  0.3273
 3834TIP3   OH233136   5.819   3.545   1.279 -0.3952  0.3191 -0.3845
 3834TIP3    H133137   5.894   3.553   1.221  0.5678 -1.8198  0.4544
 3834TIP3    H233138   5.756   3.492   1.230 -0.6547  0.6863 -0.4496
 3835TIP3   OH233139   3.805   0.584   1.227  0.0805 -0.6557  0.8699
 3835TIP3    H133140   3.774   0.494   1.212  0.5986 -0.8876  1.1612
 3835TIP3    H233141   3.874   0.574   1.292  0.7511 -0.1457  0.2519
 3836TIP3   OH233142   6.296   3.642   7.801 -0.2325 -0.1300 -0.4852
 3836TIP3    H133143   6.215   3.647   7.851  0.4547 -0.8776  0.7567
 3836TIP3    H233144   6.363   3.674   7.861  0.4884 -0.1698 -1.2570
 3837TIP3   OH233145   0.739   7.137   1.025 -0.0980  0.2269 -0.4662
 3837TIP3    H133146   0.771   7.215   0.979 -2.1575  1.2473 -0.2682
 3837TIP3    H233147   0.747   7.067   0.961 -0.6845  1.1455 -1.5877
 3838TIP3   OH233148   2.432   5.334   7.784  0.1409  0.1379  0.2861
 3838TIP3    H133149   2.520   5.298   7.793  0.3353  0.1443 -1.2627
 3838TIP3    H233150   2.374   5.265   7.818  0.6942 -0.1825  0.5971
 3839TIP3   OH233151   6.737   1.098   7.062  0.1444 -0.5234 -0.0071
 3839TIP3    H133152   6.732   1.008   7.032 -0.3839 -1.2559  2.0648
 3839TIP3    H233153   6.654   1.112   7.108  0.8894  0.4605  1.0960
 3840TIP3   OH233154   7.016   1.718   5.716 -0.3782 -0.3990 -0.3382
 3840TIP3    H133155   7.049   1.807   5.705 -0.6072 -0.1062  1.1770
 3840TIP3    H233156   6.955   1.706   5.643  0.2138  0.4127 -0.9753
 3841TIP3   OH233157   6.178   4.285   6.982  0.5958  0.6866  0.4624
 3841TIP3    H133158   6.178   4.193   6.957 -2.4278  0.7683 -0.2823
 3841TIP3    H233159   6.255   4.322   6.939 -1.2267 -0.3452 -4.4396
 3842TIP3   OH233160   3.874   2.209   6.766 -0.0597  0.5171  0.4079
 3842TIP3    H133161   3.853   2.296   6.799  1.2529  1.4755 -1.1840
 3842TIP3    H233162   3.864   2.216   6.671  1.5673 -0.6137  0.1082
 3843TIP3   OH233163   2.102   0.059   0.048  0.0059  0.1575 -0.2829
 3843TIP3    H133164   2.021   0.109   0.043 -0.2078 -0.0741  0.5819
 3843TIP3    H233165   2.122   0.055   0.142  1.0562  0.2696 -0.4903
 3844TIP3   OH233166   1.686   3.572   6.636  0.0943  0.4429  0.6247
 3844TIP3    H133167   1.774   3.605   6.617  0.2412  0.3878  1.1819
 3844TIP3    H233168   1.642   3.569   6.551  0.7955 -0.0073  0.2677
 3845TIP3   OH233169   4.820   7.145   7.518  0.0550 -0.2603 -0.1045
 3845TIP3    H133170   4.810   7.239   7.528  1.4860 -0.2422  1.6431
 3845TIP3    H233171   4.804   7.129   7.425 -0.6855  1.6233 -0.3375
 3846TIP3   OH233172   5.326   4.223   1.003 -0.2295 -0.3730 -0.3645
 3846TIP3    H133173   5.376   4.207   1.082 -0.5803  1.4361  0.2830
 3846TIP3    H233174   5.236   4.237   1.034 -0.6267 -0.9405 -1.2235
 3847TIP3   OH233175   6.842   3.725   0.769  0.1760  0.3541  0.6607
 3847TIP3    H133176   6.811   3.785   0.701 -1.3350 -0.6698  0.4071
 3847TIP3    H233177   6.808   3.763   0.850 -0.3442  0.1296  0.5526
 3848TIP3   OH233178   2.317   2.551   1.575  0.4339 -0.1826 -0.2319
 3848TIP3    H133179   2.305   2.515   1.487  0.3019 -0.2828 -0.1747
 3848TIP3    H233180   2.340   2.475   1.628 -0.1722 -0.2442 -0.0459
 3849TIP3   OH233181   6.375   6.308   7.493  0.1119 -0.6614  0.6737
 3849TIP3    H133182   6.458   6.265   7.513  1.2224  1.4209  0.7832
 3849TIP3    H233183   6.397   6.376   7.429 -1.9250 -1.5507 -1.0917
 3850TIP3   OH233184   3.033   3.384   7.499  0.3486  0.0868 -0.2657
 3850TIP3    H133185   3.057   3.291   7.502 -1.2191 -0.3463 -0.2569
 3850TIP3    H233186   2.938   3.385   7.511  0.0305  1.5502 -2.3462
 3851TIP3   OH233187   5.815   6.964   5.518  0.0953  0.3682  0.1422
 3851TIP3    H133188   5.755   7.027   5.559 -1.5544  1.3270 -3.4127
 3851TIP3    H233189   5.759   6.901   5.474  1.6701  0.0374 -1.5400
 3852TIP3   OH233190   2.107   4.733   1.125 -0.1802  0.0390  0.0035
 3852TIP3    H133191   2.091   4.787   1.047  1.5450 -1.5405 -1.5570
 3852TIP3    H233192   2.023   4.690   1.141 -0.4302 -0.0250 -1.3562
 3853TIP3   OH233193   6.519   1.171   7.747  0.5542 -0.1827  0.2982
 3853TIP3    H133194   6.486   1.147   7.661  0.1998 -0.3713  0.4835
 3853TIP3    H233195   6.584   1.239   7.730 -0.7239  1.0149 -0.0026
 3854TIP3   OH233196   1.102   3.328   0.052  0.5386 -0.2043  0.1364
 3854TIP3    H133197   1.164   3.258   0.075 -1.4550 -1.6242  1.5483
 3854TIP3    H233198   1.068   3.302  -0.034  2.0823  0.7932 -0.8371
 3855TIP3   OH233199   3.696   3.507   1.303  0.1372 -0.9499  0.0093
 3855TIP3    H133200   3.698   3.425   1.353  0.3151 -1.6940 -1.1653
 3855TIP3    H233201   3.682   3.479   1.213 -1.2350  0.4217 -0.2436
 3856TIP3   OH233202   3.142   4.214   0.648  0.1756 -0.5213 -0.2480
 3856TIP3    H133203   3.168   4.257   0.729  0.5903 -1.7344  0.2817
 3856TIP3    H233204   3.120   4.124   0.674 -1.0110 -0.5591 -1.2622
 3857TIP3   OH233205   1.961   3.091   7.081  0.0958 -0.1314 -0.4245
 3857TIP3    H133206   2.037   3.061   7.130 -0.5205 -1.2893 -0.1457
 3857TIP3    H233207   1.942   3.020   7.020 -1.3730 -0.3532  0.2269
 3858TIP3   OH233208   3.571   1.757   6.353 -0.5158 -0.5393 -0.3314
 3858TIP3    H133209   3.665   1.767   6.369 -0.4255 -0.0694 -1.1130
 3858TIP3    H233210   3.534   1.841   6.380 -0.6659 -0.5945 -0.3670
 3859TIP3   OH233211   4.839   0.451   0.334 -0.1432  0.4650  0.0673
 3859TIP3    H133212   4.927   0.449   0.296 -0.7863 -0.5149 -1.4421
 3859TIP3    H233213   4.825   0.362   0.366 -0.2208  0.8758  1.2374
 3860TIP3   OH233214   2.675   2.588   1.305 -0.5587  0.4155 -0.9266
 3860TIP3    H133215   2.604   2.529   1.281  0.8517 -1.5913 -0.4069
 3860TIP3    H233216   2.668   2.597   1.400  0.0127 -0.0145 -0.8356
 3861TIP3   OH233217   5.228   2.564   0.447  0.0796 -0.4408  0.0397
 3861TIP3    H133218   5.189   2.646   0.475 -0.7636 -0.7857 -0.0872
 3861TIP3    H233219   5.274   2.585   0.366  0.6825  0.0992  0.5161
 3862TIP3   OH233220   0.185   3.120   0.783  0.4465  0.0494 -0.1754
 3862TIP3    H133221   0.129   3.045   0.802  1.7208 -0.8445  0.1392
 3862TIP3    H233222   0.270   3.082   0.762  0.4783  1.2412 -2.6313
 3863TIP3   OH233223   5.503   1.392   7.942 -0.3436 -0.0868 -0.0868
 3863TIP3    H133224   5.563   1.466   7.942  1.1085 -1.2212  0.6765
 3863TIP3    H233225   5.549   1.323   7.989 -1.6032 -1.5385 -0.8851
 3864TIP3   OH233226   5.880   3.657   0.768 -0.0052  0.0312  0.1632
 3864TIP3    H133227   5.953   3.718   0.757 -1.0408  0.9743 -2.0514
 3864TIP3    H233228   5.808   3.697   0.719 -1.2584 -2.1122  0.1496
 3865TIP3   OH233229   2.183   5.631   6.563 -0.0344 -0.5014 -0.2241
 3865TIP3    H133230   2.154   5.568   6.630 -0.1864  0.2843  0.4674
 3865TIP3    H233231   2.112   5.695   6.558  0.4144 -0.0164 -0.4348
 3866TIP3   OH233232   6.013   6.992   1.557  0.3602 -0.0020 -0.1242
 3866TIP3    H133233   6.009   7.013   1.650 -0.7658  0.0935 -0.1849
 3866TIP3    H233234   5.923   7.003   1.526  0.2459 -2.2380 -0.7415
 3867TIP3   OH233235   1.934   0.128   0.974  0.1476  0.2987 -0.2189
 3867TIP3    H133236   1.864   0.149   1.035  1.4361  0.8278  1.1383
 3867TIP3    H233237   2.009   0.107   1.029  1.0422 -0.3383 -1.6202
 3868TIP3   OH233238   3.007   2.059   2.050  0.5426 -0.0965 -0.3392
 3868TIP3    H133239   3.025   1.990   1.987  0.4900 -0.9401  0.5460
 3868TIP3    H233240   2.916   2.084   2.035  0.5491 -0.2485 -0.6309
 3869TIP3   OH233241   2.080   6.533   7.302 -0.1738  0.0994  0.0584
 3869TIP3    H133242   2.126   6.616   7.311 -1.1044  0.7530 -0.8855
 3869TIP3    H233243   1.995   6.557   7.263  0.2990 -1.4522 -2.1362
 3870TIP3   OH233244   4.703   4.016   6.338  0.5040  0.3406 -0.1970
 3870TIP3    H133245   4.766   3.979   6.277  0.7033  1.5651 -0.7634
 3870TIP3    H233246   4.752   4.028   6.420  1.0129  1.2082 -0.6087
 3871TIP3   OH233247   6.715   4.142   1.188 -0.2265 -0.6500 -0.1235
 3871TIP3    H133248   6.789   4.117   1.244  0.1322 -0.0260 -0.3154
 3871TIP3    H233249   6.658   4.193   1.246 -0.0279 -0.3010 -0.2379
 3872TIP3   OH233250   5.222   1.750   1.797  0.3821  0.0312 -1.3388
 3872TIP3    H133251   5.293   1.807   1.827  0.9611 -1.1334 -0.4354
 3872TIP3    H233252   5.258   1.705   1.721 -0.5928  1.9245 -2.9877
 3873TIP3   OH233253   1.922   5.047   1.328  0.4749 -0.0782 -0.4258
 3873TIP3    H133254   1.828   5.031   1.343  0.1073 -3.0122 -4.2387
 3873TIP3    H233255   1.925   5.114   1.261  1.0312 -0.5578 -0.8935
 3874TIP3   OH233256   0.439   1.027   7.348  0.1935 -0.1470  0.0560
 3874TIP3    H133257   0.434   1.009   7.441  0.6454  1.7620  0.5029
 3874TIP3    H233258   0.354   1.002   7.313 -0.4386  0.3340  1.2210
 3875TIP3   OH233259   4.806   1.402   0.690 -0.1240 -0.0053  0.1922
 3875TIP3    H133260   4.882   1.424   0.744  0.1993  2.6959 -1.1452
 3875TIP3    H233261   4.830   1.433   0.602 -1.8397 -1.3609 -0.8246
 3876TIP3   OH233262   6.050   0.529   0.171  0.1979 -0.1296  0.3522
 3876TIP3    H133263   5.998   0.511   0.092  1.1683  1.2213 -0.6307
 3876TIP3    H233264   6.006   0.602   0.213  0.0598 -0.4195  0.7186
 3877TIP3   OH233265   3.478   1.371   6.167 -0.4976 -0.1212  0.4347
 3877TIP3    H133266   3.426   1.434   6.117  0.2271  0.4504  0.3822
 3877TIP3    H233267   3.478   1.292   6.113 -0.2470  0.2870 -0.1661
 3878TIP3   OH233268   4.155   2.864   7.793  0.8065  0.1847 -0.7711
 3878TIP3    H133269   4.062   2.857   7.815  1.0301 -1.7311 -0.2171
 3878TIP3    H233270   4.192   2.920   7.861  0.3695 -0.5976  0.1449
 3879TIP3   OH233271   3.935   1.373   5.512 -0.6944  0.0043 -0.3717
 3879TIP3    H133272   4.018   1.412   5.536 -2.2818  2.0120  2.4295
 3879TIP3    H233273   3.925   1.299   5.572  0.2661 -2.1185 -2.6640
 3880TIP3   OH233274   2.583   5.316   1.371  0.0430  0.3020  0.1111
 3880TIP3    H133275   2.571   5.235   1.419  1.7248 -0.5339 -0.7834
 3880TIP3    H233276   2.540   5.383   1.425 -1.0032 -1.1005  1.0667
 3881TIP3   OH233277   1.676   5.607   0.671  0.4327 -0.5771  0.1465
 3881TIP3    H133278   1.617   5.535   0.695  0.2676 -0.3391  0.4582
 3881TIP3    H233279   1.667   5.670   0.742 -0.9770  0.7037 -1.0994
 3882TIP3   OH233280   3.945   3.126   1.541  0.3635  0.4579  0.0576
 3882TIP3    H133281   3.904   3.181   1.474 -0.7100 -0.9917 -0.5370
 3882TIP3    H233282   3.899   3.043   1.535  1.6446 -0.3851  1.2135
 3883TIP3   OH233283   2.266   1.058   1.784 -0.1797 -0.7186  0.4088
 3883TIP3    H133284   2.330   1.007   1.734 -0.7013 -1.0334  0.0673
 3883TIP3    H233285   2.218   0.994   1.835 -1.0037 -0.5998 -0.2077
 3884TIP3   OH233286   4.161   6.515   7.445  0.3719 -0.0133 -0.3512
 3884TIP3    H133287   4.105   6.584   7.410 -1.2273 -1.8997 -1.7597
 3884TIP3    H233288   4.157   6.527   7.540 -1.3243  0.7478 -0.4854
 3885TIP3   OH233289   3.115   1.450   6.168 -0.2813 -0.5962 -0.2987
 3885TIP3    H133290   3.118   1.545   6.161 -0.2295 -0.4351  1.5518
 3885TIP3    H233291   3.069   1.422   6.089 -0.6089  0.9834 -0.6988
 3886TIP3   OH233292   7.174   4.296   6.523 -0.0801 -0.4005 -0.1405
 3886TIP3    H133293   7.235   4.283   6.450  0.5748 -1.6994  0.5932
 3886TIP3    H233294   7.222   4.266   6.600 -0.7839  0.8639  0.8369
 3887TIP3   OH233295   6.554   2.285   0.019 -0.3031  0.2868  0.1116
 3887TIP3    H133296   6.515   2.264  -0.066  0.6743 -2.5009  0.2769
 3887TIP3    H233297   6.485   2.265   0.082 -1.4965  3.5693  0.0475
 3888TIP3   OH233298   2.850   0.684   7.679  0.2326 -0.4444  0.5789
 3888TIP3    H133299   2.823   0.774   7.660 -2.2833 -0.6664  2.4848
 3888TIP3    H233300   2.824   0.634   7.601 -0.5220  0.1357  0.4470
 3889TIP3   OH233301   2.048   0.158   7.222 -0.3519 -0.1811 -0.3339
 3889TIP3    H133302   1.968   0.205   7.249 -0.3401 -0.7642  0.7873
 3889TIP3    H233303   2.117   0.200   7.273 -0.0551 -0.1976 -0.7243
 3890TIP3   OH233304   3.964   5.860   6.264  0.2933  0.2325 -0.0759
 3890TIP3    H133305   4.002   5.827   6.345  3.1858  2.1862 -0.5001
 3890TIP3    H233306   4.002   5.805   6.196  0.3420  0.5641 -0.3190
 3891TIP3   OH233307   1.125   4.110   0.811 -0.5564  0.0690  0.1903
 3891TIP3    H133308   1.144   4.111   0.905 -1.3366  0.3532  0.3529
 3891TIP3    H233309   1.068   4.185   0.797 -1.0362 -0.3877 -0.3785
 3892TIP3   OH233310   0.759   0.399   0.724 -0.5172  0.2274 -0.1065
 3892TIP3    H133311   0.742   0.372   0.634 -0.4907 -0.9595  0.2305
 3892TIP3    H233312   0.829   0.464   0.717 -1.7944  1.5667 -1.0880
 3893TIP3   OH233313   3.692   6.245   5.964  0.2946 -0.1053  0.8680
 3893TIP3    H133314   3.709   6.152   5.978 -3.1269 -0.8801  0.6949
 3893TIP3    H233315   3.615   6.264   6.017 -0.2378  2.1489 -0.5591
 3894TIP3   OH233316   3.571   3.785   7.885 -0.9557  0.0479  0.3118
 3894TIP3    H133317   3.519   3.710   7.858 -0.9261  0.0326  0.2978
 3894TIP3    H233318   3.563   3.786   7.981 -2.0837  0.8260  0.2365
 3895TIP3   OH233319   2.796   7.145   7.037  0.0519  0.3605  0.0050
 3895TIP3    H133320   2.888   7.152   7.064  0.2644 -1.6760 -0.0751
 3895TIP3    H233321   2.790   7.199   6.959  1.6362 -0.8297 -1.0012
 3896TIP3   OH233322   0.169   1.247   7.190 -0.0079  0.1727 -0.3385
 3896TIP3    H133323   0.105   1.251   7.119 -0.4752 -0.8974 -0.0036
 3896TIP3    H233324   0.176   1.153   7.210  2.8305  0.0244 -1.4289
 3897TIP3   OH233325   4.813   2.459   1.590 -0.2224  0.3176 -0.4341
 3897TIP3    H133326   4.797   2.523   1.521  2.2673  1.1027 -0.3716
 3897TIP3    H233327   4.900   2.423   1.570  0.2874  0.0965  1.9052
 3898TIP3   OH233328   0.891   6.577   6.113  0.8667  0.2318  0.6512
 3898TIP3    H133329   0.920   6.633   6.041 -1.5588 -0.1539 -0.7579
 3898TIP3    H233330   0.802   6.552   6.089  1.2441 -2.9041  2.0433
 3899TIP3   OH233331   6.941   2.896   7.133  0.2660  0.7137  0.0747
 3899TIP3    H133332   6.892   2.886   7.214 -0.7210 -1.5573 -0.6874
 3899TIP3    H233333   6.889   2.957   7.080  0.4772  1.5475  0.8141
 3900TIP3   OH233334   1.706   4.053   7.415 -0.5737 -0.1610 -0.1352
 3900TIP3    H133335   1.666   4.140   7.410  1.1347  0.6358 -0.6412
 3900TIP3    H233336   1.794   4.065   7.379  0.0439 -1.8904  0.7048
 3901TIP3   OH233337   4.487   1.463   7.465  0.6613  0.0757  0.7775
 3901TIP3    H133338   4.579   1.438   7.472  1.4244  2.6916  1.4794
 3901TIP3    H233339   4.440   1.399   7.517  2.2786 -0.5037  1.6010
 3902TIP3   OH233340   3.245   0.320   0.791  0.5682 -0.3087  0.2610
 3902TIP3    H133341   3.302   0.249   0.820 -0.8570 -1.1306  1.1696
 3902TIP3    H233342   3.188   0.279   0.725  0.5322  0.3168 -0.1054
 3903TIP3   OH233343   4.240   3.783   0.089  0.4251  0.2152  0.0626
 3903TIP3    H133344   4.230   3.728   0.011  1.6217  0.1097 -0.0346
 3903TIP3    H233345   4.262   3.869   0.055  0.7862  0.2078  0.2768
 3904TIP3   OH233346   6.754   5.257   7.839 -0.1351 -0.3938  0.7337
 3904TIP3    H133347   6.668   5.261   7.798  0.6692  1.2706 -0.9472
 3904TIP3    H233348   6.773   5.348   7.864  1.5262 -0.5337  0.1237
 3905TIP3   OH233349   5.972   0.232   1.536  0.3750 -0.3255 -0.4318
 3905TIP3    H133350   5.917   0.206   1.610 -0.8717 -0.5444 -1.4021
 3905TIP3    H233351   5.954   0.166   1.469  1.1755  0.1006 -1.0774
 3906TIP3   OH233352   1.318   1.207   0.864 -0.1970 -0.4073 -0.3397
 3906TIP3    H133353   1.301   1.263   0.788 -0.3488  1.1968  0.8149
 3906TIP3    H233354   1.245   1.223   0.922  0.1655 -1.2394  0.3624
 3907TIP3   OH233355   0.441   6.511   5.696 -0.5668 -0.2737 -0.3215
 3907TIP3    H133356   0.457   6.425   5.734 -0.5011 -0.2385 -0.2715
 3907TIP3    H233357   0.518   6.563   5.719 -1.3794  0.3158  1.1225
 3908TIP3   OH233358   1.991   4.450   5.518 -0.0861  0.2546 -0.3918
 3908TIP3    H133359   1.936   4.513   5.471  1.6628  3.3835  1.3940
 3908TIP3    H233360   2.009   4.492   5.601  0.8214 -2.9607  1.1965
 3909TIP3   OH233361   0.253   1.278   1.911  0.3495 -0.0300  0.3010
 3909TIP3    H133362   0.321   1.215   1.888  0.0037  0.2770 -1.7238
 3909TIP3    H233363   0.293   1.363   1.895  0.1351  0.2133  1.0311
 3910TIP3   OH233364   1.175   3.867   1.892  0.2799 -0.2610 -0.0003
 3910TIP3    H133365   1.094   3.890   1.937  0.6209  2.9824 -0.7765
 3910TIP3    H233366   1.146   3.819   1.814 -0.9883  1.1739 -0.4704
 3911TIP3   OH233367   0.960   5.234   0.851  0.4227  0.0149 -0.2655
 3911TIP3    H133368   1.018   5.161   0.872  0.7958  0.4495  0.2514
 3911TIP3    H233369   1.006   5.311   0.885  1.9510  1.0802 -4.2202
 3912TIP3   OH233370   3.781   0.807   6.454 -0.1863  0.3064 -0.0294
 3912TIP3    H133371   3.756   0.723   6.415 -0.5952  0.1898  0.4760
 3912TIP3    H233372   3.876   0.804   6.459 -0.2481 -0.6051  1.0244
 3913TIP3   OH233373   1.300   7.081   7.261  0.6099  0.2348  0.5575
 3913TIP3    H133374   1.227   7.126   7.303  0.3765  3.1271 -2.5523
 3913TIP3    H233375   1.261   7.032   7.190  1.1358 -3.5616  2.6211
 3914TIP3   OH233376   1.673   4.329   0.410  0.0554 -0.1719  0.2922
 3914TIP3    H133377   1.745   4.353   0.351 -0.4423 -0.0348 -0.2667
 3914TIP3    H233378   1.710   4.340   0.498  0.3969  0.8907  0.0254
 3915TIP3   OH233379   0.918   4.738   1.468  0.3028 -0.1045  0.2545
 3915TIP3    H133380   0.926   4.657   1.517 -1.8933  0.0543  0.9771
 3915TIP3    H233381   0.932   4.712   1.377  0.6661 -1.1038  0.5815
 3916TIP3   OH233382   3.214   2.133   2.198 -0.3939 -0.7823 -0.0798
 3916TIP3    H133383   3.183   2.221   2.179 -3.0861 -0.2808  5.0125
 3916TIP3    H233384   3.145   2.076   2.165 -0.1772 -0.7879 -0.5405
 3917TIP3   OH233385   6.303   7.217   7.057 -0.6061  0.3772 -0.3015
 3917TIP3    H133386   6.342   7.134   7.085  0.2166  1.3782  1.7567
 3917TIP3    H233387   6.285   7.205   6.964  1.0882 -1.5020 -0.4563
 3918TIP3   OH233388   2.858   0.759   2.137  0.0674 -0.0774 -0.5320
 3918TIP3    H133389   2.840   0.669   2.165  0.5493  0.0582  0.2167
 3918TIP3    H233390   2.773   0.791   2.106 -0.1987 -0.6534 -0.4187
 3919TIP3   OH233391   2.711   6.093   6.723  0.4417  0.2556 -0.0699
 3919TIP3    H133392   2.736   6.174   6.678  2.0493  0.4661  1.1451
 3919TIP3    H233393   2.684   6.122   6.810  1.8692 -0.5780  0.6730
 3920TIP3   OH233394   3.239   1.442   0.871 -0.1843  0.4933 -0.2261
 3920TIP3    H133395   3.193   1.523   0.893  0.7546  0.5723  1.6558
 3920TIP3    H233396   3.181   1.373   0.902 -1.3764  0.3426 -2.5865
 3921TIP3   OH233397   6.758   2.938   7.354  0.0048 -0.2686 -0.6120
 3921TIP3    H133398   6.735   2.973   7.440  1.5268 -0.7540  0.0497
 3921TIP3    H233399   6.694   2.975   7.294 -0.7262  0.5713  0.6368
 3922TIP3   OH233400   0.552   0.591   7.430 -0.4352  0.1199 -0.4865
 3922TIP3    H133401   0.540   0.648   7.506 -0.1233  1.3593 -1.3403
 3922TIP3    H233402   0.618   0.527   7.459  0.4212  1.1814 -0.0136
 3923TIP3   OH233403   2.190   5.905   6.138  0.1787  0.0784  0.5031
 3923TIP3    H133404   2.264   5.918   6.080  0.1213 -1.5283  0.0175
 3923TIP3    H233405   2.130   5.977   6.118  1.4792  1.2660  0.7488
 3924TIP3   OH233406   4.302   2.016   6.212  0.2729 -0.2477  0.2012
 3924TIP3    H133407   4.351   2.096   6.231 -1.1563  0.1470  2.6649
 3924TIP3    H233408   4.367   1.946   6.219  1.2429  0.5418 -0.5184
 3925TIP3   OH233409   0.360   2.776   0.549  0.2310 -0.4267  0.3922
 3925TIP3    H133410   0.350   2.714   0.622 -1.1062 -0.1949  0.4378
 3925TIP3    H233411   0.271   2.786   0.514  0.2534  2.0574  0.8618
 3926TIP3   OH233412   1.577   4.574   1.470 -0.3879  0.2419  0.3973
 3926TIP3    H133413   1.529   4.515   1.528 -0.9926  0.8182  0.4894
 3926TIP3    H233414   1.642   4.518   1.427 -1.2653 -0.5837  0.1198
 3927TIP3   OH233415   0.637   1.826   6.088 -0.0929 -0.8010  0.4446
 3927TIP3    H133416   0.731   1.814   6.101 -0.1586  0.4274  2.4884
 3927TIP3    H233417   0.630   1.909   6.041 -0.1556 -1.4665 -0.7710
 3928TIP3   OH233418   3.234   4.671   0.481  0.0252 -0.0797 -0.2377
 3928TIP3    H133419   3.153   4.707   0.516  0.6511 -0.8015  2.1503
 3928TIP3    H233420   3.295   4.671   0.555  1.3745 -1.9972 -1.2386
 3929TIP3   OH233421   1.971   1.497   1.607 -0.2687  0.0515  0.3701
 3929TIP3    H133422   2.056   1.463   1.638 -0.6850  0.1465  1.6730
 3929TIP3    H233423   1.908   1.466   1.672 -1.7503 -2.4625 -2.0202
 3930TIP3   OH233424   5.854   4.727   6.597  0.6769 -0.6022  0.0853
 3930TIP3    H133425   5.839   4.708   6.504 -0.3667 -0.6159  0.2432
 3930TIP3    H233426   5.891   4.815   6.598 -1.0165  0.1605 -0.2671
 3931TIP3   OH233427   5.451   4.348   7.412 -1.2257 -0.2551 -0.0735
 3931TIP3    H133428   5.522   4.329   7.473 -0.8384 -1.2200 -0.8103
 3931TIP3    H233429   5.467   4.438   7.385 -0.1283 -0.5469 -0.4297
 3932TIP3   OH233430   6.099   1.138   7.379 -0.2339  0.0215 -0.3096
 3932TIP3    H133431   6.046   1.138   7.299  1.6949  0.5502 -1.6753
 3932TIP3    H233432   6.070   1.061   7.427 -1.2173 -0.5128 -1.6950
 3933TIP3   OH233433   5.168   5.006   7.523  0.0501  0.0862 -0.4113
 3933TIP3    H133434   5.153   5.094   7.559 -0.1398 -0.7691  1.7117
 3933TIP3    H233435   5.118   4.948   7.581  1.4667 -1.5901 -0.8061
 3934TIP3   OH233436   1.267   0.575   6.436  0.4205  0.5830 -0.0259
 3934TIP3    H133437   1.329   0.503   6.426 -0.4659  0.1421 -3.9914
 3934TIP3    H233438   1.191   0.536   6.481  0.1651 -0.9162 -1.6477
 3935TIP3   OH233439   0.757   2.763   2.379  0.0182  0.1844 -0.0178
 3935TIP3    H133440   0.702   2.840   2.391 -0.9841 -0.6068  0.6170
 3935TIP3    H233441   0.696   2.691   2.366  0.9563 -0.1379 -3.4155
 3936TIP3   OH233442   1.338   7.017   7.902 -0.1096 -0.3195  0.2496
 3936TIP3    H133443   1.354   7.104   7.939 -2.9797  1.3461 -2.0141
 3936TIP3    H233444   1.316   6.963   7.978  2.5288  0.6144  1.8033
 3937TIP3   OH233445   0.137   5.673   7.278 -0.0135 -0.7331 -0.1836
 3937TIP3    H133446   0.130   5.760   7.241  1.2648  0.4131  2.0223
 3937TIP3    H233447   0.052   5.657   7.319  0.4795  0.5649  1.4567
 3938TIP3   OH233448   6.099   6.503   0.740 -0.1437  0.6906  0.0781
 3938TIP3    H133449   6.145   6.529   0.661  2.2911 -3.0528 -0.0148
 3938TIP3    H233450   6.115   6.574   0.802 -0.4057  2.7865 -2.1367
 3939TIP3   OH233451   2.543   5.513   6.283  0.7630  0.2394 -0.3514
 3939TIP3    H133452   2.485   5.590   6.279  1.2479  0.5405 -2.5461
 3939TIP3    H233453   2.490   5.446   6.327 -1.0639  0.6944 -1.7425
 3940TIP3   OH233454   5.903   3.279   1.016  0.3910 -0.4254 -0.4754
 3940TIP3    H133455   5.823   3.318   0.982 -1.5850 -2.0390  1.9448
 3940TIP3    H233456   5.950   3.352   1.057 -0.3712  0.3636 -0.9711
 3941TIP3   OH233457   6.458   6.793   0.989 -0.4452  0.4912  0.0177
 3941TIP3    H133458   6.404   6.857   1.035 -1.1104 -0.3377  0.4147
 3941TIP3    H233459   6.469   6.721   1.052 -0.7667 -0.3374 -0.8411
 3942TIP3   OH233460   6.042   1.833   2.152 -0.2595 -0.1885 -0.4156
 3942TIP3    H133461   5.989   1.754   2.137  2.0595 -1.9613  0.0491
 3942TIP3    H233462   6.100   1.809   2.224 -0.1498  2.3584  0.4329
 3943TIP3   OH233463   4.149   3.891   7.555 -0.3071  0.4098  0.5452
 3943TIP3    H133464   4.097   3.820   7.593  0.1468 -0.0915  0.2371
 3943TIP3    H233465   4.234   3.885   7.600 -0.2717  0.7720  0.5295
 3944TIP3   OH233466   0.809   7.018   1.500 -0.2261 -0.0330  0.3881
 3944TIP3    H133467   0.790   7.031   1.593 -0.1799 -0.6885  0.4918
 3944TIP3    H233468   0.870   6.944   1.498  1.2118  1.1044 -0.0395
 3945TIP3   OH233469   6.157   2.578   0.626 -0.5814 -0.2959  0.5151
 3945TIP3    H133470   6.211   2.506   0.593  0.3289 -0.3104  1.9616
 3945TIP3    H233471   6.186   2.654   0.575  1.9815  0.0205  2.2646
 3946TIP3   OH233472   4.478   3.687   0.254  0.1159 -0.4285 -0.3252
 3946TIP3    H133473   4.461   3.706   0.346 -1.0505 -0.7111 -0.4650
 3946TIP3    H233474   4.401   3.719   0.208  1.1296  0.6561 -1.3499
 3947TIP3   OH233475   3.030   6.410   1.025 -0.6693 -0.3437  0.4861
 3947TIP3    H133476   3.052   6.502   1.036 -0.9646 -0.1934 -0.1242
 3947TIP3    H233477   3.041   6.372   1.112 -1.9408  0.5625  1.0748
 3948TIP3   OH233478   0.616   5.499   6.253  0.6321  0.2245 -0.1270
 3948TIP3    H133479   0.558   5.465   6.185  1.3729  0.7480 -1.0387
 3948TIP3    H233480   0.682   5.430   6.264  0.9754  0.4894 -0.5215
 3949TIP3   OH233481   0.799   5.067   5.939 -0.2029 -0.0576  0.6725
 3949TIP3    H133482   0.783   5.021   5.856  0.3336 -1.5256  1.3399
 3949TIP3    H233483   0.872   5.125   5.920  0.4492 -0.9711  0.2995
 3950TIP3   OH233484   1.735   1.666   7.960 -0.4474  0.1318 -0.3511
 3950TIP3    H133485   1.713   1.667   8.052 -1.1989 -3.3316 -0.3534
 3950TIP3    H233486   1.806   1.601   7.953  0.1193  0.8645 -2.1356
 3951TIP3   OH233487   5.370   3.396   5.912  0.2781 -0.2635 -0.2152
 3951TIP3    H133488   5.345   3.305   5.896  0.3814 -0.5482  1.1245
 3951TIP3    H233489   5.464   3.392   5.931  0.8398  0.4593 -2.5650
 3952TIP3   OH233490   7.098   3.005   0.294  0.2684 -0.8573  0.2800
 3952TIP3    H133491   7.024   2.946   0.278 -0.9039  0.3334  1.1094
 3952TIP3    H233492   7.175   2.952   0.274 -0.8093 -1.9598 -1.1964
 3953TIP3   OH233493   1.004   3.619   0.785  0.3593  0.3730  0.1024
 3953TIP3    H133494   0.989   3.565   0.708 -0.0938  0.9373 -0.2136
 3953TIP3    H233495   1.093   3.596   0.814  0.5409  0.1699 -0.5939
 3954TIP3   OH233496   2.983   7.165   7.678  0.3016 -0.2973 -0.6874
 3954TIP3    H133497   3.037   7.183   7.755  1.0977  1.0422 -1.5115
 3954TIP3    H233498   3.034   7.199   7.604 -2.0869  2.1099 -1.4108
 3955TIP3   OH233499   0.643   1.165   7.228  0.1424 -0.4383  0.1112
 3955TIP3    H133500   0.560   1.130   7.261 -0.6944 -0.0847 -1.5179
 3955TIP3    H233501   0.709   1.124   7.283 -1.0221 -1.8235  0.5618
 3956TIP3   OH233502   5.743   6.540   0.747  0.2762  0.1142  0.1690
 3956TIP3    H133503   5.790   6.470   0.793  0.4097  0.4756  0.5778
 3956TIP3    H233504   5.683   6.493   0.689  0.6370 -0.3467  0.1592
 3957TIP3   OH233505   3.637   3.008   6.872  0.2817  0.0634  0.4031
 3957TIP3    H133506   3.668   3.088   6.829 -1.3085  0.1595 -0.6609
 3957TIP3    H233507   3.572   3.039   6.935 -1.9508 -0.4669 -1.5303
 3958TIP3   OH233508   4.815   0.076   1.147 -0.3389  0.0235 -0.1743
 3958TIP3    H133509   4.737   0.052   1.097  1.0097 -2.4504 -1.2695
 3958TIP3    H233510   4.805   0.030   1.230  0.0494 -0.5511 -0.4350
 3959TIP3   OH233511   1.456   3.077   7.438 -0.1416  0.0796 -0.3131
 3959TIP3    H133512   1.535   3.036   7.473  0.1267  0.4790 -0.4413
 3959TIP3    H233513   1.414   3.008   7.386 -0.8104 -0.6766  1.1676
 3960TIP3   OH233514   7.209   3.087   1.671 -0.3579  0.5807  0.0250
 3960TIP3    H133515   7.171   3.169   1.701 -0.7361  0.6948 -0.7490
 3960TIP3    H233516   7.268   3.112   1.599 -0.4546  0.1864 -0.1965
 3961TIP3   OH233517   1.117   3.664   7.269 -0.1721 -0.4163 -0.3369
 3961TIP3    H133518   1.192   3.606   7.257  0.6005  0.3226  0.8411
 3961TIP3    H233519   1.041   3.606   7.263  0.5678 -1.5024  0.4712
 3962TIP3   OH233520   6.513   3.995   7.470 -0.7874 -0.3601 -0.2548
 3962TIP3    H133521   6.452   3.926   7.496 -1.5801  0.2209 -0.5271
 3962TIP3    H233522   6.475   4.075   7.505  0.0750 -0.0307 -0.0258
 3963TIP3   OH233523   4.070   4.079   7.026 -0.1670  0.1170  0.3681
 3963TIP3    H133524   4.033   4.166   7.009 -1.6477 -0.7068 -0.8968
 3963TIP3    H233525   4.050   4.063   7.118 -0.2178  0.9519  0.5161
 3964TIP3   OH233526   3.203   6.281   0.168 -0.0396 -0.8606 -0.3538
 3964TIP3    H133527   3.188   6.199   0.215 -0.4402  0.7441  2.5506
 3964TIP3    H233528   3.116   6.311   0.141 -0.2685  0.0165  1.2484
 3965TIP3   OH233529   6.445   5.382   0.475  0.0206 -0.1367 -0.0760
 3965TIP3    H133530   6.438   5.289   0.495  0.6519  0.0290  0.9877
 3965TIP3    H233531   6.516   5.387   0.410  0.9852 -0.2738  0.9450
 3966TIP3   OH233532   3.545   2.081   0.723  0.0866 -0.4706  0.2670
 3966TIP3    H133533   3.466   2.029   0.711 -0.6594  0.4804  0.9208
 3966TIP3    H233534   3.604   2.024   0.771 -0.1009 -1.2827 -0.4555
 3967TIP3   OH233535   5.827   2.130   1.325  0.2316 -0.3680  0.1899
 3967TIP3    H133536   5.797   2.207   1.374 -2.3418  0.0299 -1.7673
 3967TIP3    H233537   5.827   2.060   1.389 -0.5653  0.6273  1.3452
 3968TIP3   OH233538   1.009   0.031   1.536 -0.3525  0.4324  0.4522
 3968TIP3    H133539   0.973   0.119   1.549 -0.9777  0.0876  1.1781
 3968TIP3    H233540   0.949  -0.011   1.475  1.3018  1.2793 -1.9109
 3969TIP3   OH233541   6.281   1.710   7.436  0.3488  0.1835  0.0991
 3969TIP3    H133542   6.286   1.791   7.386  1.5871  1.2270  1.8131
 3969TIP3    H233543   6.360   1.662   7.412  0.1770 -0.0153 -0.0747
 3970TIP3   OH233544   4.068   0.972   0.656  1.0155  0.4519 -0.3648
 3970TIP3    H133545   4.113   0.888   0.642  1.5712  0.9005 -1.3590
 3970TIP3    H233546   4.126   1.020   0.716  0.8594  0.2524 -0.0531
 3971TIP3   OH233547   6.239   5.146   1.892 -0.4827  0.2421 -0.1337
 3971TIP3    H133548   6.148   5.117   1.891 -0.1542 -0.8387  0.2421
 3971TIP3    H233549   6.272   5.118   1.978  0.2925  0.3616 -0.3857
 3972TIP3   OH233550   3.108   5.855   6.231 -0.1485 -0.5451  0.6328
 3972TIP3    H133551   3.165   5.830   6.158 -0.3025  1.2007 -0.1363
 3972TIP3    H233552   3.046   5.916   6.192  0.1699  0.9373  2.3483
 3973TIP3   OH233553   2.073   6.885   7.073  0.1258 -0.5337 -0.3108
 3973TIP3    H133554   2.148   6.944   7.064  0.0094 -0.2793  0.2716
 3973TIP3    H233555   2.029   6.916   7.153 -1.2356  0.0477 -1.2381
 3974TIP3   OH233556   2.253   3.125   7.796  0.4236 -0.3643 -0.3187
 3974TIP3    H133557   2.231   3.215   7.820  1.0430 -0.2352 -0.2397
 3974TIP3    H233558   2.173   3.076   7.814  0.5931 -0.1278  1.2045
 3975TIP3   OH233559   2.284   0.052   7.099 -0.1858  0.2269  0.2501
 3975TIP3    H133560   2.223   0.099   7.156 -0.3719  0.3196 -0.0230
 3975TIP3    H233561   2.247   0.062   7.011 -0.2888 -0.5215  0.2005
 3976TIP3   OH233562   1.558   2.765   1.553 -0.1512  0.0167 -0.1092
 3976TIP3    H133563   1.598   2.685   1.587  0.9842  0.5393 -0.1879
 3976TIP3    H233564   1.604   2.782   1.471 -1.1257  0.1683 -0.6421
 3977TIP3   OH233565   6.480   4.806   0.679 -0.4611  0.0494  0.1029
 3977TIP3    H133566   6.527   4.734   0.640 -0.9075  0.6682 -1.6728
 3977TIP3    H233567   6.387   4.781   0.673 -0.5417  0.0606  1.0206
 3978TIP3   OH233568   4.356   0.215   5.852 -0.2098  0.1815 -0.0240
 3978TIP3    H133569   4.315   0.129   5.861 -1.0950  0.3846 -1.7433
 3978TIP3    H233570   4.305   0.272   5.910  0.0288 -0.3159  0.6929
 3979TIP3   OH233571   6.434   4.450   0.160 -0.5970  0.6910  0.3951
 3979TIP3    H133572   6.459   4.465   0.069 -0.8584 -0.5222  0.1087
 3979TIP3    H233573   6.512   4.471   0.211 -0.6038  1.8725 -0.0533
 3980TIP3   OH233574   0.196   3.685   6.534 -0.3069 -0.2092 -0.3336
 3980TIP3    H133575   0.114   3.658   6.576  1.3454 -1.7317  2.2291
 3980TIP3    H233576   0.218   3.768   6.576 -0.5442  0.2251 -1.0571
 3981TIP3   OH233577   4.986   5.530   6.956  0.1290 -0.1074 -0.6883
 3981TIP3    H133578   4.909   5.556   6.905 -0.0353  1.2358  0.2012
 3981TIP3    H233579   5.028   5.612   6.979  1.5817 -0.8092 -0.7378
 3982TIP3   OH233580   0.548   2.939   5.777 -0.2080  0.6790  0.0407
 3982TIP3    H133581   0.508   2.929   5.863  0.2265  0.2748  0.2045
 3982TIP3    H233582   0.572   3.031   5.771 -0.0538  0.6635  0.4357
 3983TIP3   OH233583   3.907   7.170   7.258  0.1491  0.5773 -0.3113
 3983TIP3    H133584   3.955   7.232   7.202 -0.7857  1.0708 -0.5792
 3983TIP3    H233585   3.976   7.123   7.304  0.8947  2.2615  0.3988
 3984TIP3   OH233586   7.157   1.845   0.583  0.5053  0.5378 -0.2670
 3984TIP3    H133587   7.069   1.828   0.616  0.0792  0.4128 -1.4087
 3984TIP3    H233588   7.160   1.801   0.498  1.2366  1.6107 -0.8281
 3985TIP3   OH233589   1.966   0.962   5.856  0.3280  0.2655 -0.6969
 3985TIP3    H133590   1.956   1.056   5.872 -0.8715  0.0849 -0.2548
 3985TIP3    H233591   1.895   0.922   5.906  1.1835 -0.9255 -0.4137
 3986TIP3   OH233592   2.704   4.949   0.933  0.6213 -0.1280 -0.8442
 3986TIP3    H133593   2.794   4.941   0.963  0.1627  0.2496  0.7154
 3986TIP3    H233594   2.661   5.003   1.000 -0.9026 -0.8081 -1.2394
 3987TIP3   OH233595   6.051   5.536   0.911  0.0260  0.2609  0.5901
 3987TIP3    H133596   6.048   5.629   0.934 -1.1254  0.5404 -0.6212
 3987TIP3    H233597   6.103   5.496   0.982 -1.4104  1.4467  2.4229
 3988TIP3   OH233598   2.711   5.733   5.911 -0.4621  0.1512 -0.2548
 3988TIP3    H133599   2.785   5.742   5.852 -1.0239 -1.0367 -1.1672
 3988TIP3    H233600   2.729   5.796   5.982  1.4909 -0.2545 -0.3484
 3989TIP3   OH233601   5.638   5.730   6.881 -0.3805 -0.0752 -0.2665
 3989TIP3    H133602   5.595   5.811   6.908  1.3198  0.7079  0.1703
 3989TIP3    H233603   5.682   5.699   6.960 -0.0657 -0.8236 -0.7253
 3990TIP3   OH233604   7.025   2.818   7.545 -0.6718  0.2176  0.0657
 3990TIP3    H133605   6.970   2.877   7.494 -1.7911  0.1893  1.1814
 3990TIP3    H233606   7.043   2.865   7.626 -0.0493 -0.2584  0.2138
 3991TIP3   OH233607   0.732   4.322   6.983 -0.3671  0.8729 -0.4453
 3991TIP3    H133608   0.648   4.359   6.958  0.3479  2.6044 -0.4447
 3991TIP3    H233609   0.759   4.270   6.908 -0.9606  1.1619 -0.8620
 3992TIP3   OH233610   2.449   3.084   6.409  0.4046  0.6251  0.2255
 3992TIP3    H133611   2.404   3.026   6.471  0.6959 -1.1023 -1.1231
 3992TIP3    H233612   2.415   3.171   6.430 -1.5027 -0.2598  1.0684
 3993TIP3   OH233613   1.063   3.978   6.824  0.3159 -0.1555 -0.2530
 3993TIP3    H133614   0.979   3.948   6.790 -0.0725 -0.2434  0.7789
 3993TIP3    H233615   1.126   3.911   6.794 -0.3104 -1.2226  0.7678
 3994TIP3   OH233616   4.065   0.810   1.248 -0.1089  0.4336  0.3557
 3994TIP3    H133617   4.068   0.739   1.312 -0.9270  1.2274  1.3257
 3994TIP3    H233618   4.060   0.890   1.302  0.8043  1.2228 -0.7005
 3995TIP3   OH233619   4.220   4.081   2.010  0.0833 -0.4108 -0.8546
 3995TIP3    H133620   4.275   4.100   2.085 -0.0994 -0.4945 -0.6989
 3995TIP3    H233621   4.160   4.156   2.004  0.8332  0.1564 -1.6063
 3996TIP3   OH233622   0.781   6.921   6.291 -0.6737 -0.1666 -0.3982
 3996TIP3    H133623   0.754   7.012   6.302 -0.5731 -0.2371  0.4986
 3996TIP3    H233624   0.846   6.924   6.221 -0.6316  0.4539 -0.3405
 3997TIP3   OH233625   1.269   1.319   0.342  0.0753  0.4740 -0.5118
 3997TIP3    H133626   1.345   1.260   0.347 -0.8048 -0.6609 -0.2516
 3997TIP3    H233627   1.301   1.401   0.380  1.6845  0.5837 -1.9394
 3998TIP3   OH233628   0.067   3.212   0.483  0.3998 -0.1790  0.3118
 3998TIP3    H133629   0.141   3.166   0.523  0.3141  0.5415  1.3094
 3998TIP3    H233630   0.099   3.300   0.467 -0.4093  0.3183  1.3113
 3999TIP3   OH233631   1.683   6.848   1.454  0.6778 -0.3306 -0.1269
 3999TIP3    H133632   1.712   6.902   1.527 -1.1137 -0.6636  0.9166
 3999TIP3    H233633   1.670   6.761   1.493  0.9015 -0.8281 -1.1347
 4000TIP3   OH233634   1.472   4.335   1.117 -0.0102  0.0370  0.3395
 4000TIP3    H133635   1.530   4.411   1.105  1.6309 -1.2662 -0.3642
 4000TIP3    H233636   1.458   4.331   1.211 -2.5069  2.8610  0.2172
 4001TIP3   OH233637   4.596   7.201   1.379 -0.3799 -0.4270 -0.2672
 4001TIP3    H133638   4.551   7.126   1.340 -0.2059  0.3350 -2.0335
 4001TIP3    H233639   4.627   7.169   1.463 -2.7492 -1.4767  0.2975
 4002TIP3   OH233640   5.104   4.105   1.847  0.6589 -0.1542 -0.1761
 4002TIP3    H133641   5.184   4.100   1.795  1.4478 -0.6500  1.0241
 4002TIP3    H233642   5.122   4.175   1.911  0.3510 -0.6204  0.4314
 4003TIP3   OH233643   5.240   2.627   1.658 -0.0560 -0.1215 -0.3197
 4003TIP3    H133644   5.211   2.572   1.585 -0.5206 -2.2889  1.3901
 4003TIP3    H233645   5.169   2.620   1.723  0.8043  0.8684  0.7765
 4004TIP3   OH233646   5.010   0.919   0.472  0.5136  0.1820 -0.2889
 4004TIP3    H133647   4.973   0.883   0.391 -1.0219 -0.1413  0.5053
 4004TIP3    H233648   4.946   0.985   0.500  0.7034 -0.1434  0.9696
 4005TIP3   OH233649   2.652   1.482   1.393 -0.1656 -0.1796  0.2799
 4005TIP3    H133650   2.727   1.541   1.409  0.1585 -0.0357 -1.5580
 4005TIP3    H233651   2.637   1.441   1.478  0.4868  1.5207  1.2946
 4006TIP3   OH233652   6.826   1.579   7.581  0.6295 -0.5598 -0.5631
 4006TIP3    H133653   6.870   1.613   7.503  0.6319 -0.3231 -0.4599
 4006TIP3    H233654   6.768   1.650   7.608  0.2222 -0.8460 -0.6685
 4007TIP3   OH233655   4.047   1.813   6.327  0.3063 -0.9090  0.3995
 4007TIP3    H133656   4.113   1.811   6.396  0.5918 -2.3335  0.1103
 4007TIP3    H233657   4.090   1.775   6.251 -0.3309 -0.2979 -0.2817
 4008TIP3   OH233658   6.333   2.701   7.398  0.1460  0.4998 -0.0758
 4008TIP3    H133659   6.360   2.618   7.437  0.9054  0.2962 -0.9926
 4008TIP3    H233660   6.267   2.736   7.458 -1.4100 -1.5397 -0.4944
 4009TIP3   OH233661   3.651   5.860   0.089  1.2219 -0.2652 -0.4433
 4009TIP3    H133662   3.596   5.909   0.151 -0.3780  0.4638 -2.3072
 4009TIP3    H233663   3.726   5.831   0.141  0.0425  0.3960  1.7790
 4010TIP3   OH233664   3.599   6.499   0.443 -0.1076  0.0911 -0.5493
 4010TIP3    H133665   3.585   6.406   0.421  0.8453  0.3162 -2.3172
 4010TIP3    H233666   3.641   6.535   0.365 -0.3937  2.0086  0.1489
 4011TIP3   OH233667   5.298   4.967   1.814  0.0047 -0.0626 -0.1649
 4011TIP3    H133668   5.347   4.956   1.895  1.0551  2.6105 -0.3418
 4011TIP3    H233669   5.239   5.041   1.832 -1.1319 -0.6631 -1.2564
 4012TIP3   OH233670   0.288   2.410   2.305  0.1171 -0.0413  0.0063
 4012TIP3    H133671   0.338   2.328   2.308  1.9746  1.0658  0.1929
 4012TIP3    H233672   0.279   2.436   2.397  1.6690  1.1884 -0.1553
 4013TIP3   OH233673   3.121   3.881   7.306 -0.7812  0.5716  0.8402
 4013TIP3    H133674   3.038   3.913   7.340 -0.2735  1.0541  1.6356
 4013TIP3    H233675   3.181   3.955   7.314 -0.2888  0.2597  0.1851
 4014TIP3   OH233676   2.789   4.977   6.855  0.0054 -0.7140 -0.6716
 4014TIP3    H133677   2.834   4.971   6.939 -1.0122  1.7516  0.1414
 4014TIP3    H233678   2.755   4.889   6.840 -0.7708 -0.9870  2.1044
 4015TIP3   OH233679   6.828   6.405   6.735 -0.3615 -0.0953  0.5886
 4015TIP3    H133680   6.812   6.444   6.821  0.7146  2.4614 -0.2806
 4015TIP3    H233681   6.764   6.448   6.677  0.5298  0.0291 -0.3188
 4016TIP3   OH233682   3.897   0.775   5.979  0.2296 -0.2682 -0.4609
 4016TIP3    H133683   3.917   0.837   5.909  0.7706 -0.4481 -0.4750
 4016TIP3    H233684   3.961   0.796   6.048 -0.6818  0.3026  0.2270
 4017TIP3   OH233685   6.561   6.748   0.727 -0.0352  0.3981  0.0696
 4017TIP3    H133686   6.590   6.834   0.696 -3.6501  1.7508 -0.0270
 4017TIP3    H233687   6.534   6.763   0.817 -0.2808 -0.7590  0.2005
 4018TIP3   OH233688   3.843   0.447   7.564  0.2554  0.4721 -0.1264
 4018TIP3    H133689   3.892   0.373   7.599 -0.7395 -0.9119 -1.5285
 4018TIP3    H233690   3.898   0.480   7.493  0.3286  0.5774 -0.0218
 4019TIP3   OH233691   2.695   6.254   1.960 -0.0083 -0.2570 -0.0392
 4019TIP3    H133692   2.687   6.345   1.989 -0.5720 -0.1864 -0.4077
 4019TIP3    H233693   2.765   6.256   1.895 -2.2327  0.5660 -2.5824
 4020TIP3   OH233694   2.891   2.908   7.436  0.2240 -0.5543  0.1931
 4020TIP3    H133695   2.854   2.943   7.517 -1.6777 -1.3237 -0.2852
 4020TIP3    H233696   2.962   2.850   7.465 -0.2149 -0.5761  1.2745
 4021TIP3   OH233697   4.163   5.528   7.644 -0.0490 -0.3257  0.3136
 4021TIP3    H133698   4.071   5.555   7.643  0.1916  0.6875  1.6476
 4021TIP3    H233699   4.166   5.458   7.710 -0.0297 -1.0894 -0.4847
 4022TIP3   OH233700   6.170   1.964   6.368 -0.1072 -0.3584  0.1009
 4022TIP3    H133701   6.217   2.002   6.293 -0.8907 -1.5537 -1.0582
 4022TIP3    H233702   6.195   1.871   6.366  1.5767 -0.0677  2.6992
 4023TIP3   OH233703   0.803   3.848   6.054  0.1132 -0.1223 -0.5235
 4023TIP3    H133704   0.867   3.789   6.016  0.2518 -0.5779  0.3792
 4023TIP3    H233705   0.741   3.867   5.984  1.4937  0.7105 -1.5610
 4024TIP3   OH233706   5.059   6.712   0.862  0.4896 -0.2112 -0.9666
 4024TIP3    H133707   5.140   6.727   0.813  0.6827 -0.1403 -0.6327
 4024TIP3    H233708   5.039   6.797   0.902  0.5427 -0.3600 -0.6174
 4025TIP3   OH233709   0.753   2.266   6.993  1.0178  0.6507  0.0322
 4025TIP3    H133710   0.771   2.209   7.067 -0.3909 -0.2041 -0.2505
 4025TIP3    H233711   0.768   2.355   7.026 -1.7793  0.4808  2.0714
 4026TIP3   OH233712   6.862   2.046   0.861  0.4735 -0.6881  0.0346
 4026TIP3    H133713   6.814   2.015   0.937  1.1866 -0.0253  0.7674
 4026TIP3    H233714   6.946   2.000   0.864  1.7228  1.5158  1.3833
 4027TIP3   OH233715   6.253   0.668   7.255  0.2416 -0.1944 -0.3786
 4027TIP3    H133716   6.177   0.668   7.313 -0.6141  0.0877 -1.4751
 4027TIP3    H233717   6.277   0.575   7.248 -0.8381 -0.4286 -1.0891
 4028TIP3   OH233718   3.173   2.409   0.917  0.6222 -0.2606  0.2125
 4028TIP3    H133719   3.173   2.374   1.006  1.6606 -1.1607 -0.1230
 4028TIP3    H233720   3.262   2.394   0.884  0.4225  0.5762 -0.7808
 4029TIP3   OH233721   0.920   6.442   1.638 -0.4288  0.3132 -1.1182
 4029TIP3    H133722   1.007   6.456   1.602  0.4917  2.8111  1.6492
 4029TIP3    H233723   0.935   6.393   1.719 -1.8116 -0.6574 -1.4130
 4030TIP3   OH233724   6.620   2.449   6.581  0.4869  0.4358  0.5080
 4030TIP3    H133725   6.599   2.542   6.587 -2.6597 -0.1639  0.5498
 4030TIP3    H233726   6.549   2.405   6.628 -1.6076 -2.2160 -4.3279
 4031TIP3   OH233727   4.555   4.189   1.277 -0.3766 -0.0968  0.3885
 4031TIP3    H133728   4.584   4.160   1.364  0.5963 -1.3424 -0.3155
 4031TIP3    H233729   4.633   4.230   1.239 -0.0333 -1.7793 -0.8107
 4032TIP3   OH233730   3.746   2.502   7.933  0.0721  0.5088 -0.4953
 4032TIP3    H133731   3.760   2.500   8.028  1.8816 -0.9912 -0.7384
 4032TIP3    H233732   3.834   2.505   7.896 -0.3338 -3.0472 -2.1410
 4033TIP3   OH233733   1.253   3.186   7.581 -0.0560  0.3190 -0.5901
 4033TIP3    H133734   1.248   3.112   7.641 -1.2825  0.3756 -0.6025
 4033TIP3    H233735   1.297   3.151   7.504 -2.3715 -0.9995 -1.4090
 4034TIP3   OH233736   0.820   6.488   2.011  0.1802  0.7592  0.8353
 4034TIP3    H133737   0.888   6.449   2.066 -1.0738 -1.5138  0.8674
 4034TIP3    H233738   0.740   6.478   2.062 -0.6786  0.5068 -0.5308
 4035TIP3   OH233739   2.615   3.885   7.177 -0.5209 -0.3060  0.2728
 4035TIP3    H133740   2.568   3.943   7.237  0.2815 -0.5578  1.1733
 4035TIP3    H233741   2.704   3.880   7.213  0.2315  0.1619 -1.3781
 4036TIP3   OH233742   5.016   1.459   0.837 -0.2938  0.4441 -0.4721
 4036TIP3    H133743   5.101   1.493   0.807 -0.0449 -1.1690 -1.6873
 4036TIP3    H233744   5.018   1.473   0.932  1.1798  0.7453 -0.5143
 4037TIP3   OH233745   4.806   4.073   6.597 -0.4115 -0.2868  0.3041
 4037TIP3    H133746   4.811   3.981   6.621 -2.6097 -0.8277 -1.0751
 4037TIP3    H233747   4.803   4.119   6.681  2.8650 -1.2186  1.0538
 4038TIP3   OH233748   2.024   1.037   0.847  0.3778 -0.0833 -0.0295
 4038TIP3    H133749   2.063   1.119   0.878  0.5681 -0.1963  0.0360
 4038TIP3    H233750   1.957   1.017   0.913  0.9835 -0.4760  0.4786
 4039TIP3   OH233751   1.310   5.202   1.912 -0.1533 -0.0829  0.0420
 4039TIP3    H133752   1.330   5.275   1.853 -0.0610 -0.4052 -0.3302
 4039TIP3    H233753   1.395   5.167   1.937 -0.1918 -1.6376 -1.7764
 4040TIP3   OH233754   0.575   2.590   7.572  0.1676 -0.4015  0.8056
 4040TIP3    H133755   0.557   2.683   7.585 -1.3389 -0.0765 -2.5626
 4040TIP3    H233756   0.496   2.545   7.601 -0.3063 -0.3231 -0.3248
 4041TIP3   OH233757   2.900   2.259   6.688 -0.1552  0.5772  0.4457
 4041TIP3    H133758   2.916   2.354   6.682 -0.0536  0.6196  1.2192
 4041TIP3    H233759   2.970   2.220   6.636  1.5086  0.8342  2.3386
 4042TIP3   OH233760   3.006   6.515   1.932  0.0896 -0.1761 -0.0051
 4042TIP3    H133761   2.926   6.464   1.937  0.3908 -0.8639 -1.6140
 4042TIP3    H233762   3.058   6.487   2.007  0.1045 -2.0116 -0.6703
 4043TIP3   OH233763   5.294   1.183   1.390 -0.3421  0.1546 -0.0567
 4043TIP3    H133764   5.309   1.202   1.298 -0.0646  0.9436  0.1417
 4043TIP3    H233765   5.205   1.147   1.393 -1.2537  2.2588 -0.3734
 4044TIP3   OH233766   2.104   5.835   7.104  0.4038 -0.4025  0.1914
 4044TIP3    H133767   2.179   5.835   7.163 -0.3712 -0.2214  1.2142
 4044TIP3    H233768   2.138   5.868   7.021  1.7371 -1.5923  0.2226
 4045TIP3   OH233769   4.692   1.776   7.910 -0.4608 -0.3022 -0.7904
 4045TIP3    H133770   4.653   1.826   7.838 -0.1917  0.6982 -0.2639
 4045TIP3    H233771   4.617   1.753   7.966 -0.3711  1.5049  0.1512
 4046TIP3   OH233772   4.201   1.295   0.419  0.3931  0.1259 -0.0705
 4046TIP3    H133773   4.258   1.360   0.378  1.5508 -0.4734  0.5438
 4046TIP3    H233774   4.120   1.342   0.436  0.6415  0.9552 -1.1132
 4047TIP3   OH233775   2.993   7.066   0.074 -0.2687  0.4606  0.8058
 4047TIP3    H133776   2.927   7.000   0.052  0.1160  0.3261  0.0471
 4047TIP3    H233777   2.942   7.143   0.099 -0.7269 -0.1404  1.7985
 4048TIP3   OH233778   4.515   2.790   6.901  0.2066 -0.4818  0.3233
 4048TIP3    H133779   4.604   2.802   6.866  0.4313 -1.2266  0.6335
 4048TIP3    H233780   4.469   2.744   6.831 -0.4899  1.5150 -0.6206
 4049TIP3   OH233781   6.711   5.039   7.500  0.1457 -0.0010  0.5693
 4049TIP3    H133782   6.746   4.997   7.578  1.6663  2.8049  1.5199
 4049TIP3    H233783   6.779   5.028   7.434  0.1323  0.1266  0.5333
 4050TIP3   OH233784   1.018   3.418   7.474  0.0412 -0.2140  0.5914
 4050TIP3    H133785   0.990   3.433   7.383  0.6992  0.0896  0.4347
 4050TIP3    H233786   1.055   3.330   7.473 -2.4869 -1.3880  1.1948
 4051TIP3   OH233787   4.790   5.941   6.455 -0.2342 -0.0831 -0.4779
 4051TIP3    H133788   4.772   6.033   6.471  0.0750  0.0038 -0.6260
 4051TIP3    H233789   4.807   5.904   6.542 -0.8124 -0.1020 -0.3690
 4052TIP3   OH233790   0.533   4.791   6.731  0.0812  0.1386 -0.0658
 4052TIP3    H133791   0.453   4.743   6.706  1.7339 -2.8175 -0.1840
 4052TIP3    H233792   0.593   4.776   6.658  1.4513  0.4516  0.9728
 4053TIP3   OH233793   3.716   2.761   1.855 -0.1367 -0.1374 -0.0886
 4053TIP3    H133794   3.705   2.699   1.928 -0.9700 -0.3096 -0.3538
 4053TIP3    H233795   3.706   2.707   1.776  1.3989 -0.0740 -0.3669
 4054TIP3   OH233796   4.697   3.372   6.439  0.3146 -0.0987 -0.3393
 4054TIP3    H133797   4.755   3.317   6.386 -0.1726 -0.0658 -0.9090
 4054TIP3    H233798   4.672   3.315   6.512 -0.3525 -0.7113 -1.0315
 4055TIP3   OH233799   1.232   4.519   6.993  0.1819 -0.6352 -0.4868
 4055TIP3    H133800   1.190   4.593   6.948 -1.8419 -0.7495  1.0913
 4055TIP3    H233801   1.272   4.558   7.071  0.1351 -1.0289 -0.2663
 4056TIP3   OH233802   7.145   1.215   6.483  0.4430 -0.2536 -0.0222
 4056TIP3    H133803   7.209   1.224   6.412  0.8736 -0.3463  0.3455
 4056TIP3    H233804   7.066   1.183   6.440  0.7391 -0.4392 -0.4418
 4057TIP3   OH233805   1.261   6.231   7.176  0.0783 -0.6601 -0.3395
 4057TIP3    H133806   1.318   6.162   7.210  0.7621 -0.5390 -1.2039
 4057TIP3    H233807   1.244   6.205   7.085 -2.2805 -1.3476  0.2345
 4058TIP3   OH233808   2.192   5.516   6.980 -0.9196  0.0692  0.5193
 4058TIP3    H133809   2.286   5.525   6.968 -1.0659  0.9094 -0.0984
 4058TIP3    H233810   2.174   5.559   7.064 -1.0883  2.4175 -0.6237
 4059TIP3   OH233811   4.536   4.446   7.927  0.2114  0.1825 -0.5196
 4059TIP3    H133812   4.485   4.489   7.859  0.6093 -0.3446 -1.1622
 4059TIP3    H233813   4.484   4.369   7.952  0.6175 -0.2836 -1.0836
 4060TIP3   OH233814   1.353   2.787   0.345  0.4600 -0.3119  0.3890
 4060TIP3    H133815   1.354   2.858   0.280  0.7146 -0.7094 -0.0433
 4060TIP3    H233816   1.265   2.750   0.338  0.8545 -1.1023 -0.5533
 4061TIP3   OH233817   4.159   1.754   0.391 -0.1456  0.3214 -0.4716
 4061TIP3    H133818   4.121   1.823   0.445 -0.4141 -0.0700 -0.1535
 4061TIP3    H233819   4.174   1.796   0.306  1.2905  1.2560  0.1960
 4062TIP3   OH233820   6.398   3.010   7.485  0.6889  0.6169 -0.7267
 4062TIP3    H133821   6.344   2.990   7.409  0.4839  0.5572 -0.5682
 4062TIP3    H233822   6.391   3.105   7.495  0.1584  0.5474 -0.3759
 4063TIP3   OH233823   4.467   5.775   1.036 -0.4163 -0.0682  0.1688
 4063TIP3    H133824   4.421   5.857   1.020 -1.7984 -0.3155  2.4126
 4063TIP3    H233825   4.536   5.773   0.970 -0.5786  2.6818 -0.2124
 4064TIP3   OH233826   6.047   7.024   7.943  0.3453  0.5574  0.0198
 4064TIP3    H133827   6.107   7.098   7.940 -3.3943  3.9894  1.0054
 4064TIP3    H233828   6.050   6.995   8.034  0.6784  0.5529  0.0083
 4065TIP3   OH233829   1.368   0.926   0.247 -0.1023 -0.4076  0.1488
 4065TIP3    H133830   1.422   0.971   0.313  1.3804 -0.9062 -0.6687
 4065TIP3    H233831   1.360   0.836   0.279 -0.0769 -0.4447  0.0522
 4066TIP3   OH233832   1.223   2.321   1.194 -0.0140  0.1423  0.1273
 4066TIP3    H133833   1.142   2.366   1.219 -0.2221 -0.7835  1.2401
 4066TIP3    H233834   1.279   2.328   1.272  0.8558  0.4645 -0.5038
 4067TIP3   OH233835   5.750   2.025   0.715 -0.2837  0.1634 -0.1320
 4067TIP3    H133836   5.689   1.953   0.699 -0.3877  0.4871 -1.2796
 4067TIP3    H233837   5.828   1.984   0.750  0.0659 -0.6474 -1.7835
 4068TIP3   OH233838   1.524   7.204   1.039 -0.1237  0.4145  0.1228
 4068TIP3    H133839   1.429   7.198   1.050 -0.1173  0.5998  0.2875
 4068TIP3    H233840   1.553   7.113   1.032 -0.1731  0.2964  1.2939
 4069TIP3   OH233841   0.516   0.062   1.449  0.2293  0.4099  0.5745
 4069TIP3    H133842   0.587   0.002   1.427 -0.8267 -0.5961 -0.2127
 4069TIP3    H233843   0.473   0.021   1.524 -0.8610 -0.1738 -0.3350
 4070TIP3   OH233844   3.831   5.168   1.352  0.5071 -0.0741 -0.2187
 4070TIP3    H133845   3.755   5.130   1.307 -0.1839  0.9013  0.0764
 4070TIP3    H233846   3.866   5.096   1.404 -1.3442 -0.1209  1.0779
 4071TIP3   OH233847   4.161   4.375   7.456 -0.1150  0.5085 -0.4319
 4071TIP3    H133848   4.228   4.329   7.406 -0.6467 -0.2237 -0.4906
 4071TIP3    H233849   4.144   4.319   7.532  1.3045  2.0149  1.0901
 4072TIP3   OH233850   0.652   1.496   0.951 -0.3980 -0.2208 -0.0089
 4072TIP3    H133851   0.598   1.574   0.961  2.7422  2.3102 -0.9390
 4072TIP3    H233852   0.667   1.489   0.856 -0.0884 -1.6054  0.1113
 4073TIP3   OH233853   0.813   3.170   5.902  0.1100  0.2135 -0.5460
 4073TIP3    H133854   0.794   3.095   5.958 -0.4535  0.8396  0.1262
 4073TIP3    H233855   0.727   3.203   5.877  0.3534 -0.1389 -1.9119
 4074TIP3   OH233856   6.790   2.450   7.147 -0.5736 -0.0385  0.1809
 4074TIP3    H133857   6.743   2.531   7.166 -2.2313 -1.2149  1.3337
 4074TIP3    H233858   6.729   2.381   7.171  2.2520 -1.7047  3.3606
 4075TIP3   OH233859   3.035   2.770   7.063 -0.3045 -0.0550  0.2211
 4075TIP3    H133860   3.104   2.707   7.043 -0.1610 -0.6860  2.4229
 4075TIP3    H233861   3.080   2.853   7.074 -0.2535  0.0707 -0.8140
 4076TIP3   OH233862   3.434   6.560   6.648 -0.2124  1.0399 -0.3793
 4076TIP3    H133863   3.456   6.648   6.680  1.0693  0.6938 -0.2567
 4076TIP3    H233864   3.471   6.557   6.560  1.0662  0.1485  0.1533
 4077TIP3   OH233865   2.404   1.340   1.839  0.1331 -0.4630  0.6509
 4077TIP3    H133866   2.490   1.331   1.797  1.0085 -0.3750  2.3526
 4077TIP3    H233867   2.359   1.258   1.819  1.2044 -1.1536  0.9905
 4078TIP3   OH233868   6.228   2.313   6.864  0.8895 -0.2349  0.3590
 4078TIP3    H133869   6.151   2.351   6.905  1.6000  0.4006  1.1477
 4078TIP3    H233870   6.224   2.341   6.773  0.1656 -0.2483  0.3871
 4079TIP3   OH233871   2.338   5.411   6.435 -0.1005 -0.3738 -0.2772
 4079TIP3    H133872   2.268   5.467   6.469 -1.6803 -1.4334 -1.6633
 4079TIP3    H233873   2.296   5.326   6.421  0.7190 -0.3347 -3.7258
 4080TIP3   OH233874   2.332   4.754   0.083  0.3691  0.1972 -0.7795
 4080TIP3    H133875   2.385   4.824   0.046  5.2156 -2.3119  0.6148
 4080TIP3    H233876   2.344   4.680   0.022  0.8608 -1.2587  0.9928
 4081TIP3   OH233877   0.782   2.466   0.682  0.0487  0.3795 -0.0477
 4081TIP3    H133878   0.790   2.406   0.608 -0.8257 -0.0458  0.1884
 4081TIP3    H233879   0.869   2.469   0.720  0.2964 -0.0900 -0.5625
 4082TIP3   OH233880   4.477   1.523   7.842  0.5761 -0.1305 -0.6927
 4082TIP3    H133881   4.451   1.605   7.885  0.9076 -0.5339  0.3229
 4082TIP3    H233882   4.396   1.473   7.833  0.7584 -0.9326  1.4677
 4083TIP3   OH233883   0.026   6.216   6.516  0.4344  0.0334 -0.2786
 4083TIP3    H133884   0.052   6.284   6.454 -0.7526  0.7211 -0.0701
 4083TIP3    H233885   0.056   6.248   6.601  1.4392 -0.5692 -0.3964
 4084TIP3   OH233886   2.694   1.129   6.972 -0.2034 -0.0244  0.6822
 4084TIP3    H133887   2.693   1.034   6.962 -1.4059 -0.1263  1.5454
 4084TIP3    H233888   2.728   1.161   6.888  0.0326 -1.1966  0.3047
 4085TIP3   OH233889   5.620   0.241   0.160 -0.4924  0.1539  0.0800
 4085TIP3    H133890   5.716   0.249   0.153 -0.6447  1.8986 -0.4244
 4085TIP3    H233891   5.599   0.164   0.107  0.6496 -0.4434  0.4487
 4086TIP3   OH233892   3.353   3.484   0.906  0.1380  0.8031  0.5049
 4086TIP3    H133893   3.321   3.442   0.826 -0.0202  1.8620  0.0012
 4086TIP3    H233894   3.276   3.485   0.964  0.6792 -1.5587  1.4008
 4087TIP3   OH233895   6.859   2.660   0.494  0.9088  0.1663  0.2173
 4087TIP3    H133896   6.777   2.686   0.536  1.2427  1.1510  0.2864
 4087TIP3    H233897   6.854   2.697   0.406  1.8977  1.5594  0.7018
 4088TIP3   OH233898   3.386   2.932   1.386  0.5711 -0.7645  0.1284
 4088TIP3    H133899   3.295   2.901   1.387  0.5876 -0.8083  0.1997
 4088TIP3    H233900   3.380   3.023   1.416  0.4382 -0.4809 -0.7093
 4089TIP3   OH233901   3.326   6.686   6.168  0.3729  1.0957  0.3278
 4089TIP3    H133902   3.419   6.708   6.171  0.4050  1.2870 -1.2037
 4089TIP3    H233903   3.288   6.729   6.244  1.5427  0.9873  0.9855
 4090TIP3   OH233904   0.054   2.072   5.722  0.4550  0.7966 -0.0493
 4090TIP3    H133905   0.125   2.046   5.780  0.6475 -0.6965 -0.9001
 4090TIP3    H233906   0.097   2.117   5.650  1.0351 -2.7251 -2.1315
 4091TIP3   OH233907   0.487   2.454   6.445 -0.5482 -0.4862  0.2324
 4091TIP3    H133908   0.439   2.494   6.373 -0.6053 -0.7420  0.1265
 4091TIP3    H233909   0.429   2.466   6.521 -1.3588 -1.8891 -0.1330
 4092TIP3   OH233910   4.263   5.407   0.155 -0.2627  0.9352  0.4562
 4092TIP3    H133911   4.358   5.402   0.148 -0.3960 -0.2037 -1.3380
 4092TIP3    H233912   4.246   5.484   0.210  1.6538  2.5927 -1.1118
 4093TIP3   OH233913   5.224   5.672   6.893 -0.2195  0.1192  1.3937
 4093TIP3    H133914   5.238   5.590   6.940 -0.9025 -1.2006 -0.5747
 4093TIP3    H233915   5.285   5.668   6.819 -1.1791  0.7564  0.5365
 4094TIP3   OH233916   3.263   2.330   6.626  0.1352 -0.1025  0.0452
 4094TIP3    H133917   3.338   2.273   6.607  0.9478  0.2154  2.1268
 4094TIP3    H233918   3.188   2.281   6.593  1.0821 -1.1516 -0.6400
 4095TIP3   OH233919   1.095   5.701   1.062  0.2004  0.0125  0.1323
 4095TIP3    H133920   1.060   5.786   1.034  0.3754  0.3910  1.0328
 4095TIP3    H233921   1.115   5.713   1.154  1.2406 -0.6921  0.0087
 4096TIP3   OH233922   1.729   6.408   0.695  0.0476  0.1971  0.2366
 4096TIP3    H133923   1.786   6.343   0.735 -0.8832 -1.4758 -1.0306
 4096TIP3    H233924   1.786   6.483   0.677  2.1220 -1.7477 -1.8275
 4097TIP3   OH233925   7.108   2.704   6.955 -0.1005  0.0373  0.5985
 4097TIP3    H133926   7.040   2.646   6.921  0.2258  0.5255 -0.9561
 4097TIP3    H233927   7.060   2.771   7.004 -0.7412  0.1773 -0.1873
 4098TIP3   OH233928   4.141   7.182   1.636  0.1516  0.2661  0.2405
 4098TIP3    H133929   4.223   7.151   1.673  0.1626  0.2601  0.2100
 4098TIP3    H233930   4.073   7.130   1.681  0.1677  0.2290  0.2217
 4099TIP3   OH233931   2.676   5.516   0.042  0.6276  0.1033  0.5945
 4099TIP3    H133932   2.583   5.531   0.027  0.2471 -1.1927  1.4093
 4099TIP3    H233933   2.680   5.425   0.074  2.1872  0.0813  0.3964
 4100TIP3   OH233934   0.072   6.677   1.610  0.0225 -0.0819 -0.7064
 4100TIP3    H133935   0.034   6.731   1.680  0.5937 -0.0653 -0.4073
 4100TIP3    H233936   0.027   6.593   1.617  1.0966 -0.5858  0.6426
 4101TIP3   OH233937   4.200   4.291   0.149  0.4403  0.1851 -0.1353
 4101TIP3    H133938   4.198   4.387   0.153  0.0985  0.2211 -0.8398
 4101TIP3    H233939   4.291   4.270   0.128 -0.0997  0.5741 -3.4354
 4102TIP3   OH233940   3.937   3.852   0.524  0.1603  0.3924  0.2411
 4102TIP3    H133941   3.841   3.860   0.527 -0.2031 -2.4388  3.8936
 4102TIP3    H233942   3.969   3.927   0.575 -0.3561 -0.0277  1.2185
 4103TIP3   OH233943   6.978   5.719   7.836 -0.8854  0.0573  0.4790
 4103TIP3    H133944   6.974   5.803   7.790 -0.1872 -0.2547 -0.1605
 4103TIP3    H233945   7.067   5.716   7.872 -0.6726 -0.7124 -0.0895
 4104TIP3   OH233946   2.304   2.159   7.201  0.0756  0.2993  0.0370
 4104TIP3    H133947   2.355   2.237   7.180 -2.5066  2.5451  1.3727
 4104TIP3    H233948   2.226   2.166   7.146 -0.7891 -0.6109  1.1041
 4105TIP3   OH233949   0.945   4.605   0.079  0.0671  0.1565 -0.0726
 4105TIP3    H133950   0.927   4.511   0.087  1.1441 -0.0746 -0.2764
 4105TIP3    H233951   0.888   4.634   0.008 -0.2624 -0.3406 -0.0217
 4106TIP3   OH233952   2.143   1.941   1.672 -0.1567 -0.4521 -0.0377
 4106TIP3    H133953   2.192   2.022   1.688 -2.4600  0.7056  1.7824
 4106TIP3    H233954   2.181   1.878   1.732 -0.3773  0.2204  0.8293
 4107TIP3   OH233955   1.786   5.976   6.755 -0.5474 -0.6561 -0.7465
 4107TIP3    H133956   1.866   5.927   6.736 -0.9223 -0.1826 -4.1150
 4107TIP3    H233957   1.715   5.923   6.718 -1.4723  0.2762 -0.3766
 4108TIP3   OH233958   5.856   3.671   5.923 -0.3148 -0.2056 -0.2796
 4108TIP3    H133959   5.775   3.666   5.973 -0.7865 -1.6365 -1.1464
 4108TIP3    H233960   5.827   3.679   5.832  0.5307  0.5452 -0.4980
 4109TIP3   OH233961   4.024   7.153   7.575 -0.2970  0.1872  0.3341
 4109TIP3    H133962   4.098   7.166   7.634 -0.3124  2.2886 -0.0416
 4109TIP3    H233963   4.063   7.118   7.494 -0.0119 -0.6648  0.8253
 4110TIP3   OH233964   2.442   2.420   1.336  0.1599 -0.4810 -0.0610
 4110TIP3    H133965   2.441   2.470   1.255 -0.9363 -1.6971 -0.8360
 4110TIP3    H233966   2.358   2.375   1.338 -0.2599  0.2446  2.2380
 4111TIP3   OH233967   3.687   0.939   1.450 -0.1697 -0.0999  0.1401
 4111TIP3    H133968   3.603   0.924   1.495 -0.3012 -2.7341 -0.8293
 4111TIP3    H233969   3.753   0.924   1.518 -0.4403 -0.3258  0.3588
 4112TIP3   OH233970   1.805   4.675   0.535 -0.2150  0.5640 -0.1380
 4112TIP3    H133971   1.747   4.632   0.597  2.2313 -0.3277  1.6948
 4112TIP3    H233972   1.828   4.607   0.472 -1.7144  1.1326 -1.3462
 4113TIP3   OH233973   2.566   5.106   1.537 -0.5977 -0.4166  0.1308
 4113TIP3    H133974   2.471   5.097   1.548 -0.3559 -0.2674  3.5336
 4113TIP3    H233975   2.603   5.054   1.608  1.8747  0.2749 -0.5485
 4114TIP3   OH233976   6.102   5.861   6.383  0.0591 -0.4602  0.4467
 4114TIP3    H133977   6.016   5.857   6.425  0.0049 -1.1406  0.2866
 4114TIP3    H233978   6.106   5.949   6.345 -0.8812 -0.6834 -0.2119
 4115TIP3   OH233979   4.303   2.581   5.879 -0.2432 -0.4621  0.3499
 4115TIP3    H133980   4.391   2.559   5.909  0.1956  0.5439 -0.1436
 4115TIP3    H233981   4.247   2.563   5.954  0.4052 -0.9404  0.7339
 4116TIP3   OH233982   0.507   4.774   6.166  0.2324 -0.2138 -0.1355
 4116TIP3    H133983   0.470   4.725   6.093 -0.3833  0.0759 -0.0251
 4116TIP3    H233984   0.524   4.862   6.131 -1.3342  0.3423  0.3984
 4117TIP3   OH233985   2.596   0.995   7.886 -0.3984 -0.0526 -0.4223
 4117TIP3    H133986   2.514   0.968   7.926 -0.7398  1.4358 -0.0576
 4117TIP3    H233987   2.573   1.021   7.797 -0.4903  1.1150 -0.0756
 4118TIP3   OH233988   2.804   5.195   1.952 -0.3518 -0.1642 -0.0617
 4118TIP3    H133989   2.898   5.203   1.935 -0.4677 -0.1008 -0.6848
 4118TIP3    H233990   2.794   5.110   1.994 -0.0900 -0.4526 -0.5753
 4119TIP3   OH233991   1.601   2.065   7.509  0.6001 -0.2002 -0.2354
 4119TIP3    H133992   1.627   2.009   7.582  1.2068 -0.0198 -0.3061
 4119TIP3    H233993   1.516   2.030   7.481  0.1409  0.0172  0.8369
 4120TIP3   OH233994   0.159   5.985   2.289 -0.0579  0.0816  0.4160
 4120TIP3    H133995   0.099   5.932   2.236 -0.5368 -0.7103  1.6883
 4120TIP3    H233996   0.232   6.004   2.230 -1.4431  0.9120 -1.1113
 4121TIP3   OH233997   0.954   1.948   6.308  0.4522 -0.3882 -0.5369
 4121TIP3    H133998   0.939   1.930   6.215  1.4089 -2.8898 -0.2721
 4121TIP3    H233999   1.049   1.956   6.315  0.7187 -3.3837  0.6375
 4122TIP3   OH234000   5.467   6.989   0.913  0.1311 -0.1909  0.2120
 4122TIP3    H134001   5.451   7.052   0.842  0.1035  1.1514  1.3820
 4122TIP3    H234002   5.503   6.912   0.868  0.2937  0.6925 -1.2374
 4123TIP3   OH234003   0.741   5.464   1.322 -0.2565 -0.0420  0.1361
 4123TIP3    H134004   0.707   5.534   1.267 -1.0335 -0.0145  0.6388
 4123TIP3    H234005   0.809   5.507   1.375  1.6375 -0.4029 -1.8575
 4124TIP3   OH234006   1.520   5.357   7.624 -0.0967  0.2026  0.2213
 4124TIP3    H134007   1.511   5.450   7.644  0.0857  0.2887 -0.0801
 4124TIP3    H234008   1.490   5.349   7.534 -1.2925 -0.2464  0.6510
 4125TIP3   OH234009   1.384   4.282   5.960  0.8440  0.0892 -0.2445
 4125TIP3    H134010   1.316   4.319   5.904 -0.0945 -0.4750  0.4945
 4125TIP3    H234011   1.446   4.241   5.900 -0.8345 -1.6903 -0.8304
 4126TIP3   OH234012   2.925   2.010   1.645 -1.1149 -0.3812 -0.5040
 4126TIP3    H134013   2.831   1.992   1.637 -1.2709  0.4970 -0.7910
 4126TIP3    H234014   2.936   2.096   1.603 -0.1432 -0.5872 -0.6818
 4127TIP3   OH234015   5.176   2.333   1.158 -0.9783  0.0424 -0.5658
 4127TIP3    H134016   5.108   2.348   1.224  0.0122 -2.5156  1.1643
 4127TIP3    H234017   5.247   2.393   1.183 -1.1320  0.0501 -0.1457
 4128TIP3   OH234018   4.359   3.335   1.617  0.0980  0.0287 -0.1751
 4128TIP3    H134019   4.352   3.353   1.523 -2.6227  1.2686  0.1641
 4128TIP3    H234020   4.289   3.273   1.635 -0.2312  0.7486  1.2066
 4129TIP3   OH234021   4.664   3.344   1.725 -0.5741 -0.3698  0.2169
 4129TIP3    H134022   4.573   3.371   1.714 -1.3138 -2.9531 -0.6701
 4129TIP3    H234023   4.714   3.400   1.665 -1.6580  0.5743  0.1768
 4130TIP3   OH234024   2.009   2.949   7.847  0.2275  0.2223  0.8616
 4130TIP3    H134025   1.997   2.854   7.852 -2.2101  0.4651  0.7380
 4130TIP3    H234026   1.937   2.985   7.899 -0.4202  2.0535 -1.1923
 4131TIP3   OH234027   6.752   6.697   7.760 -0.0206  0.5886 -0.0724
 4131TIP3    H134028   6.760   6.706   7.665  2.2664 -1.9240 -0.2534
 4131TIP3    H234029   6.822   6.753   7.794  0.7936 -0.4080 -0.0577
 4132TIP3   OH234030   6.976   2.400   7.366  0.0677 -0.1615 -0.4668
 4132TIP3    H134031   6.932   2.413   7.282 -1.1179 -0.4548  0.0897
 4132TIP3    H234032   6.928   2.456   7.427  1.4689  0.7299 -0.1397
 4133TIP3   OH234033   3.213   0.541   5.479  0.4387 -0.0826 -0.7089
 4133TIP3    H134034   3.142   0.515   5.537  0.0624  0.7311 -0.7876
 4133TIP3    H234035   3.262   0.461   5.463  0.2971 -0.3935  0.3916
 4134TIP3   OH234036   6.742   5.127   0.499 -0.1540  0.5623 -0.2941
 4134TIP3    H134037   6.667   5.092   0.546  1.5118 -2.8850  0.1390
 4134TIP3    H234038   6.742   5.081   0.415  0.9860  1.1542 -0.6556
 4135TIP3   OH234039   2.509   4.346   6.660 -0.5274  0.1404 -0.3458
 4135TIP3    H134040   2.457   4.265   6.662  1.0599 -1.0715 -3.1643
 4135TIP3    H234041   2.573   4.335   6.730 -1.4189 -0.2363  0.4293
 4136TIP3   OH234042   0.199   2.329   1.531 -0.3599 -0.2797  0.0128
 4136TIP3    H134043   0.174   2.248   1.576  0.0532 -0.2617  0.2818
 4136TIP3    H234044   0.116   2.373   1.512 -0.6090 -0.9149 -0.4216
 4137TIP3   OH234045   2.680   6.583   7.715 -0.3563 -0.4592  0.0794
 4137TIP3    H134046   2.617   6.514   7.695 -1.0260  0.5363 -1.3567
 4137TIP3    H234047   2.670   6.647   7.644  0.1596  1.1790  1.4166
 4138TIP3   OH234048   0.327   6.287   1.928 -0.0057  0.1007 -0.0416
 4138TIP3    H134049   0.260   6.330   1.981  0.5377 -0.3344  1.0305
 4138TIP3    H234050   0.283   6.266   1.846 -0.9952  0.4061  0.3952
 4139TIP3   OH234051   3.934   1.556   7.490 -0.1124 -0.0071  0.2722
 4139TIP3    H134052   4.025   1.586   7.490  0.5435 -1.5856 -3.3115
 4139TIP3    H234053   3.940   1.461   7.498 -1.4568 -0.1278  0.0349
 4140TIP3   OH234054   7.141   3.363   7.860 -0.5372 -0.2305 -0.1327
 4140TIP3    H134055   7.083   3.419   7.808 -0.9957  0.6427  1.2566
 4140TIP3    H234056   7.087   3.336   7.935  0.6151 -0.0178  0.8019
 4141TIP3   OH234057   4.106   1.316   2.071  0.2532 -0.7871  0.1076
 4141TIP3    H134058   4.124   1.394   2.019 -0.4005 -1.2417 -0.8447
 4141TIP3    H234059   4.160   1.248   2.030  1.4087 -0.6906  1.4063
 4142TIP3   OH234060   3.590   5.822   1.037  0.3026 -0.0899 -0.0100
 4142TIP3    H134061   3.556   5.733   1.046  0.5589 -0.1091  0.8227
 4142TIP3    H234062   3.513   5.878   1.045  0.3151 -0.1801  0.8953
 4143TIP3   OH234063   2.344   2.688   7.117  0.0173 -0.2187  0.2167
 4143TIP3    H134064   2.273   2.753   7.120 -0.3054 -0.6021  1.2650
 4143TIP3    H234065   2.423   2.739   7.137 -0.0754  0.0522 -0.0912
 4144TIP3   OH234066   1.588   0.405   0.892 -0.5062  0.0438  0.1495
 4144TIP3    H134067   1.518   0.436   0.834 -0.4901  0.1935  0.2078
 4144TIP3    H234068   1.610   0.318   0.860 -1.2204 -0.3033  0.5706
 4145TIP3   OH234069   1.940   2.933   0.373 -0.8756 -0.3119 -0.4373
 4145TIP3    H134070   1.980   2.858   0.419 -0.4157  0.1306 -0.1037
 4145TIP3    H234071   1.928   2.902   0.283 -1.8563 -1.2212 -0.0258
 4146TIP3   OH234072   2.491   4.342   7.384 -0.6236 -0.3140  0.1539
 4146TIP3    H134073   2.508   4.251   7.407 -0.7530 -0.5398 -0.6273
 4146TIP3    H234074   2.577   4.376   7.357 -0.2680  0.2341  1.8696
 4147TIP3   OH234075   3.393   4.597   0.037  0.2855 -0.3125  0.1850
 4147TIP3    H134076   3.341   4.669   0.001  1.7305  0.8453  0.3525
 4147TIP3    H234077   3.348   4.573   0.117 -0.8247 -0.3538 -0.4293
 4148TIP3   OH234078   7.179   0.349   1.955 -0.4498  0.1919  0.2634
 4148TIP3    H134079   7.209   0.313   1.872  0.6191  2.0571 -0.2225
 4148TIP3    H234080   7.231   0.303   2.021 -2.6808 -2.7398  0.1800
 4149TIP3   OH234081   6.367   1.914   1.234 -0.1604  0.7030  0.3613
 4149TIP3    H134082   6.449   1.958   1.258 -0.6503  1.2825  1.0004
 4149TIP3    H234083   6.390   1.821   1.234  0.5898  0.8766  0.1794
 4150TIP3   OH234084   3.418   6.296   6.473 -0.6857 -0.2022  0.6905
 4150TIP3    H134085   3.510   6.300   6.444 -0.9682  0.9690 -0.1078
 4150TIP3    H234086   3.386   6.212   6.439 -0.2244 -0.0986 -0.0213
 4151TIP3   OH234087   6.853   6.943   1.000  0.0176 -0.1894 -0.4960
 4151TIP3    H134088   6.936   6.989   0.999 -1.0013  1.7658  0.2056
 4151TIP3    H234089   6.836   6.921   0.908  0.2708  1.3943 -0.9506
 4152TIP3   OH234090   6.050   1.675   0.354 -0.0472 -0.1932 -0.0952
 4152TIP3    H134091   6.014   1.751   0.309  1.3882  0.2885 -0.4860
 4152TIP3    H234092   6.086   1.710   0.435  2.8289  0.0547 -1.3657
 4153TIP3   OH234093   5.600   5.013   0.917  0.1802 -0.2159  0.3391
 4153TIP3    H134094   5.610   5.001   1.011  1.7772 -2.0991  0.0000
 4153TIP3    H234095   5.613   4.926   0.880 -4.3599 -0.3972 -1.4362
 4154TIP3   OH234096   4.377   2.883   1.392  0.4401  0.0275 -0.1791
 4154TIP3    H134097   4.433   2.961   1.396  0.7814 -0.1726 -0.9938
 4154TIP3    H234098   4.334   2.880   1.478 -1.2001  2.3053 -0.8164
 4155TIP3   OH234099   4.726   5.033   6.314  0.1654  0.0334 -0.3961
 4155TIP3    H134100   4.693   4.944   6.299  0.0451  0.1156 -0.6193
 4155TIP3    H234101   4.817   5.029   6.283  0.1569 -0.0101 -0.4173
 4156TIP3   OH234102   1.222   6.854   5.920 -0.0296  0.2339 -0.6154
 4156TIP3    H134103   1.170   6.780   5.890 -1.5440  0.9505  0.1214
 4156TIP3    H234104   1.251   6.897   5.839 -1.2990  0.2825 -1.0741
 4157TIP3   OH234105   6.417   6.576   1.173 -0.0206 -0.2853  0.2745
 4157TIP3    H134106   6.443   6.495   1.128 -0.7438 -0.7106  0.5990
 4157TIP3    H234107   6.459   6.570   1.259 -0.1147 -0.3348  0.3165
 4158TIP3   OH234108   3.547   5.727   7.340 -0.3664 -0.1931 -0.1076
 4158TIP3    H134109   3.501   5.749   7.421 -2.2163  3.0980 -1.8503
 4158TIP3    H234110   3.478   5.702   7.279  0.9722 -2.3691 -0.8426
 4159TIP3   OH234111   1.785   5.581   6.381  0.1890  0.0462 -1.0228
 4159TIP3    H134112   1.861   5.640   6.377 -0.8048  1.3758 -0.7895
 4159TIP3    H234113   1.798   5.531   6.461  0.8974  0.1479 -1.0640
 4160TIP3   OH234114   6.347   2.228   0.167  0.2306 -0.0760 -0.0170
 4160TIP3    H134115   6.292   2.153   0.147 -1.8982  1.3038  0.3014
 4160TIP3    H234116   6.291   2.286   0.219  1.8958  1.5640  0.0721
 4161TIP3   OH234117   4.740   1.008   0.868  0.1729 -0.1977  0.0789
 4161TIP3    H134118   4.731   1.097   0.832 -2.1283 -0.2239  0.4526
 4161TIP3    H234119   4.685   1.008   0.945  0.3683 -1.8956  0.2503
 4162TIP3   OH234120   3.383   6.651   1.143  0.5862  0.3736 -0.1681
 4162TIP3    H134121   3.407   6.566   1.178  1.6176 -0.1991 -2.1749
 4162TIP3    H234122   3.465   6.689   1.111 -0.4267  0.1507 -3.3725
 4163TIP3   OH234123   4.235   4.625   7.403 -0.3952 -0.0359 -0.6022
 4163TIP3    H134124   4.306   4.643   7.465 -3.2984  0.9285  2.8257
 4163TIP3    H234125   4.225   4.529   7.406 -1.2899  0.0435  1.6916
 4164TIP3   OH234126   5.535   3.455   6.891  0.1987 -0.2839 -0.6232
 4164TIP3    H134127   5.524   3.363   6.915  1.7660 -0.7059 -1.3392
 4164TIP3    H234128   5.493   3.463   6.806  0.1878 -0.3771 -0.6264
 4165TIP3   OH234129   3.937   3.590   1.146  0.3253 -0.1343  0.1334
 4165TIP3    H134130   3.857   3.601   1.198 -0.0503  1.5072 -0.7207
 4165TIP3    H234131   3.917   3.518   1.086 -1.3684  1.5941 -1.5117
 4166TIP3   OH234132   3.983   5.303   1.150 -0.0858  0.1241  0.3345
 4166TIP3    H134133   3.909   5.274   1.204 -0.0165  0.7054  0.7552
 4166TIP3    H234134   4.033   5.360   1.208  0.9643 -0.6400  0.2072
 4167TIP3   OH234135   0.936   5.570   7.976 -0.4023 -0.2152  0.2960
 4167TIP3    H134136   0.955   5.612   8.060 -0.6054 -1.0602  0.7650
 4167TIP3    H234137   0.914   5.643   7.918 -2.0549  0.2611  1.4469
 4168TIP3   OH234138   6.770   0.894   0.920 -0.1644 -0.4432  0.2783
 4168TIP3    H134139   6.763   0.934   0.833  2.7349 -0.3189 -0.0224
 4168TIP3    H234140   6.865   0.885   0.934 -0.5867 -2.8962  2.3319
 4169TIP3   OH234141   2.387   1.290   7.550 -0.0406 -0.0237 -0.0647
 4169TIP3    H134142   2.300   1.323   7.528 -0.2770 -0.2181  0.5544
 4169TIP3    H234143   2.407   1.331   7.634  0.8732  0.7717 -0.6552
 4170TIP3   OH234144   1.104   1.884   7.170 -0.3327  0.0765 -0.1818
 4170TIP3    H134145   1.135   1.955   7.113 -0.9692  2.1094  1.8474
 4170TIP3    H234146   1.009   1.892   7.169 -0.3810 -0.3115  0.5749
 4171TIP3   OH234147   0.211   1.912   7.885  0.8258 -0.0322 -0.3156
 4171TIP3    H134148   0.126   1.933   7.848  1.3162  0.7656 -1.0250
 4171TIP3    H234149   0.221   1.973   7.958  0.9770  0.1554 -0.4959
 4172TIP3   OH234150   4.148   1.492   6.916 -0.2346  0.0947  0.1262
 4172TIP3    H134151   4.204   1.553   6.867 -0.2246  0.4914  0.6262
 4172TIP3    H234152   4.181   1.406   6.892  0.9884  0.3372  0.8588
 4173TIP3   OH234153   0.656   4.091   0.577  0.0743  0.7665  0.1771
 4173TIP3    H134154   0.719   4.141   0.525  0.4654 -0.0213 -0.1336
 4173TIP3    H234155   0.710   4.044   0.641 -0.2190  0.2921  0.0847
 4174TIP3   OH234156   2.960   2.267   0.769  0.0336  0.5596 -0.3962
 4174TIP3    H134157   3.010   2.206   0.715 -0.5962 -0.8303  0.5520
 4174TIP3    H234158   3.024   2.334   0.794  0.8879 -0.0260 -0.9406
 4175TIP3   OH234159   6.952   3.419   6.108  0.2648 -0.4489  0.3583
 4175TIP3    H134160   6.897   3.440   6.033 -0.5634  0.5236  1.2053
 4175TIP3    H234161   7.006   3.346   6.078 -0.6444 -0.6483 -0.8967
 4176TIP3   OH234162   4.241   0.341   6.399 -0.2445  0.2248 -0.5180
 4176TIP3    H134163   4.195   0.409   6.350  0.8506  1.3851 -0.0049
 4176TIP3    H234164   4.326   0.334   6.356 -0.9927 -2.2924 -1.8155
 4177TIP3   OH234165   0.100   1.250   6.193  0.2118 -0.1784  0.0988
 4177TIP3    H134166   0.190   1.229   6.219  0.2727 -1.5846 -1.1442
 4177TIP3    H234167   0.108   1.336   6.151  0.8800 -0.0428  0.4747
 4178TIP3   OH234168   3.859   7.180   0.780  0.3004  0.2799  0.2686
 4178TIP3    H134169   3.855   7.220   0.693  1.8514  2.7946  1.2307
 4178TIP3    H234170   3.824   7.092   0.768  1.7369  0.0219 -3.2037
 4179TIP3   OH234171   5.931   7.066   6.492  0.9234  0.0753  0.3874
 4179TIP3    H134172   5.920   7.132   6.561  0.0991  0.7465 -0.3481
 4179TIP3    H234173   5.992   7.106   6.430 -0.8750  0.9500 -0.9356
 4180TIP3   OH234174   0.820   2.646   6.171 -0.6203  0.4066  0.1787
 4180TIP3    H134175   0.854   2.735   6.173  2.0433 -0.5412  1.0340
 4180TIP3    H234176   0.841   2.615   6.083  0.0169  0.0892  0.4369
 4181TIP3   OH234177   5.594   1.045   1.362  0.0444 -0.1363  0.2277
 4181TIP3    H134178   5.658   1.017   1.296  0.6867  1.2898  0.2206
 4181TIP3    H234179   5.511   1.007   1.332  0.3861  0.2132 -1.2396
 4182TIP3   OH234180   1.678   1.346   7.022  1.0876  0.6121 -0.3400
 4182TIP3    H134181   1.658   1.253   7.015  1.7555  0.4910 -0.7710
 4182TIP3    H234182   1.715   1.356   7.110 -1.0891  0.9022  0.5948
 4183TIP3   OH234183   2.969   0.362   7.496 -0.0517  0.1603  0.0955
 4183TIP3    H134184   2.935   0.292   7.552  0.7719 -1.1859 -0.9959
 4183TIP3    H234185   3.061   0.370   7.520 -0.6354  2.6558  1.9128
 4184TIP3   OH234186   2.093   6.726   6.668  0.0134 -0.1115  0.5544
 4184TIP3    H134187   2.062   6.812   6.638 -0.6743  0.1709  1.9622
 4184TIP3    H234188   2.176   6.745   6.711 -0.2580 -0.1037  1.0812
 4185TIP3   OH234189   5.092   7.030   1.275  0.0164 -0.7905  0.4617
 4185TIP3    H134190   5.140   7.007   1.195 -0.5787  1.4152 -0.5979
 4185TIP3    H234191   5.161   7.045   1.340  0.5783 -1.2911 -0.0018
 4186TIP3   OH234192   3.221   1.791   7.214  0.0361  0.9761 -0.0649
 4186TIP3    H134193   3.178   1.830   7.139 -1.6750 -1.5958 -0.5167
 4186TIP3    H234194   3.288   1.733   7.177 -1.7721 -1.4293  0.1900
 4187TIP3   OH234195   0.032   6.495   5.596 -0.5591  0.2368 -0.4209
 4187TIP3    H134196   0.095   6.551   5.641 -1.5084  0.8462  0.1888
 4187TIP3    H234197   0.039   6.521   5.504  1.6361 -1.2560 -0.7368
 4188TIP3   OH234198   2.983   5.263   0.078 -0.2357  0.0279 -0.4009
 4188TIP3    H134199   2.996   5.223  -0.008  0.8760 -0.8212  0.1351
 4188TIP3    H234200   2.995   5.357   0.062  1.9349 -0.2701 -0.8785
 4189TIP3   OH234201   1.734   3.359   1.101 -0.0384  0.1280 -0.4197
 4189TIP3    H134202   1.654   3.320   1.137  1.1867 -1.3276  0.8941
 4189TIP3    H234203   1.800   3.342   1.168  1.2842  1.7293 -1.2582
 4190TIP3   OH234204   6.502   3.805   0.880  0.2514  0.1519 -0.5269
 4190TIP3    H134205   6.475   3.722   0.840  1.4321 -0.7367  0.4116
 4190TIP3    H234206   6.541   3.855   0.808 -0.1766 -0.2497 -1.0440
 4191TIP3   OH234207   1.106   2.303   7.242  0.3478 -0.8052 -0.2335
 4191TIP3    H134208   1.018   2.273   7.262 -0.0855  1.1192  1.0345
 4191TIP3    H234209   1.093   2.386   7.196  1.4958 -1.2062 -1.3321
 4192TIP3   OH234210   2.182   0.866   0.734 -0.2957  0.2946 -0.2147
 4192TIP3    H134211   2.094   0.843   0.704 -0.7263 -0.4240  1.4672
 4192TIP3    H234212   2.168   0.938   0.796  0.2185 -0.2266  0.5295
 4193TIP3   OH234213   6.882   0.483   2.061  0.7602  0.0122 -0.1065
 4193TIP3    H134214   6.821   0.516   2.128  1.6282  1.7778 -0.1104
 4193TIP3    H234215   6.826   0.445   1.994 -0.2911  0.6619  0.3789
 4194TIP3   OH234216   3.278   3.020   0.133 -0.6464  0.1907  0.1727
 4194TIP3    H134217   3.225   3.096   0.157 -0.1088  0.6503 -0.0758
 4194TIP3    H234218   3.238   2.947   0.181 -1.0838  0.6511  0.5220
 4195TIP3   OH234219   1.355   2.158   7.808  0.2225  0.2910 -0.1647
 4195TIP3    H134220   1.446   2.163   7.835  0.0034  1.0617  0.4797
 4195TIP3    H234221   1.352   2.209   7.726  0.1599  1.2918  0.4415
 4196TIP3   OH234222   7.060   2.325   1.039 -0.0350 -0.1825 -0.6248
 4196TIP3    H134223   7.011   2.407   1.046  1.3815  0.7430 -1.1157
 4196TIP3    H234224   7.050   2.284   1.125 -0.5773  0.6090 -0.2993
 4197TIP3   OH234225   5.594   2.580   6.388 -0.1563 -0.6682  0.5162
 4197TIP3    H134226   5.536   2.549   6.459  0.2882 -0.6182  0.9039
 4197TIP3    H234227   5.571   2.525   6.313 -0.4691 -0.8811  0.7636
 4198TIP3   OH234228   6.507   0.345   6.988  0.3767  0.3135  0.0071
 4198TIP3    H134229   6.589   0.391   7.008  0.6516 -0.4020  0.5715
 4198TIP3    H234230   6.520   0.311   6.899  0.9519 -0.3297  0.3270
 4199TIP3   OH234231   4.527   5.407   6.387 -0.1667  0.4493  0.2248
 4199TIP3    H134232   4.512   5.476   6.452  0.7150 -0.4097  1.3952
 4199TIP3    H234233   4.554   5.331   6.439  0.1847 -0.3824 -1.1285
 4200TIP3   OH234234   6.176   4.693   5.398 -0.0557 -0.4337 -0.0952
 4200TIP3    H134235   6.148   4.679   5.307  0.4259 -0.3522 -0.2623
 4200TIP3    H234236   6.235   4.620   5.416  2.3049  1.1153 -0.8980
 4201TIP3   OH234237   0.598   5.963   1.403 -0.3583 -0.3335 -0.0236
 4201TIP3    H134238   0.648   5.885   1.429 -0.3023 -0.4273 -0.4127
 4201TIP3    H234239   0.601   6.020   1.481  0.3200 -0.3591 -0.0225
 4202TIP3   OH234240   3.042   3.898   6.282 -0.0797  0.1434  0.6222
 4202TIP3    H134241   2.994   3.949   6.217  0.4613  0.4688  0.4788
 4202TIP3    H234242   2.994   3.815   6.287 -0.4749  0.3457  0.2532
 4203TIP3   OH234243   4.315   6.133   0.738 -0.0169 -0.0517  0.4302
 4203TIP3    H134244   4.264   6.062   0.699  0.7187 -1.4798  1.9594
 4203TIP3    H234245   4.258   6.169   0.806 -0.2729  0.6852 -0.1465
 4204TIP3   OH234246   1.300   2.446   0.948 -0.1695  0.1033  0.4106
 4204TIP3    H134247   1.306   2.413   1.037 -0.9076  2.2046  1.3048
 4204TIP3    H234248   1.288   2.540   0.958 -1.1097  0.3004 -1.8810
 4205TIP3   OH234249   0.205   3.065   5.776 -0.2919 -1.4885 -0.4839
 4205TIP3    H134250   0.274   3.027   5.830 -2.3722 -0.4490  3.2232
 4205TIP3    H234251   0.214   3.160   5.789 -2.6090 -1.3334  0.4959
 4206TIP3   OH234252   0.810   3.399   6.841  0.3425  0.0420  0.6127
 4206TIP3    H134253   0.877   3.333   6.858  0.7865  0.2700 -0.1537
 4206TIP3    H234254   0.852   3.482   6.865  1.2165  0.4438 -1.9376
 4207TIP3   OH234255   3.610   6.778   1.111  0.0476  0.0331 -0.5209
 4207TIP3    H134256   3.629   6.733   1.029  0.8957  0.0143 -0.3234
 4207TIP3    H234257   3.673   6.850   1.115  0.2836 -0.1981  0.2839
 4208TIP3   OH234258   3.270   5.046   0.683 -0.3667  0.3326  0.1044
 4208TIP3    H134259   3.181   5.080   0.694  0.9275  3.7030  1.6915
 4208TIP3    H234260   3.309   5.102   0.616  1.2396  0.5529  1.1605
 4209TIP3   OH234261   6.429   1.726   7.832  0.0209  0.6358  0.6879
 4209TIP3    H134262   6.386   1.641   7.836  1.2998 -0.1731 -1.2047
 4209TIP3    H234263   6.378   1.782   7.890 -2.1477 -0.8523  0.3122
 4210TIP3   OH234264   5.769   2.426   0.829  0.2100  0.6247  0.2861
 4210TIP3    H134265   5.855   2.387   0.812 -1.3848 -1.7195 -3.5568
 4210TIP3    H234266   5.740   2.384   0.911  1.5057 -0.8606  0.0375
 4211TIP3   OH234267   4.559   5.401   7.194 -0.0133 -0.6251 -0.1829
 4211TIP3    H134268   4.575   5.452   7.114  1.2791 -1.0894 -0.2383
 4211TIP3    H234269   4.589   5.458   7.264 -0.2620 -0.5944 -0.1017
 4212TIP3   OH234270   2.663   5.046   1.256 -0.2931 -0.0152  0.8553
 4212TIP3    H134271   2.619   5.119   1.213  0.3933 -0.7495 -1.2068
 4212TIP3    H234272   2.616   5.035   1.339 -2.1767  1.0091 -0.0160
 4213TIP3   OH234273   5.770   3.064   7.973 -0.0368 -0.5316 -0.4588
 4213TIP3    H134274   5.689   3.030   8.010 -0.1981 -0.3858 -0.6749
 4213TIP3    H234275   5.807   2.991   7.924 -0.2954 -0.4530 -0.7781
 4214TIP3   OH234276   4.251   4.731   1.249 -0.4415 -0.4137 -0.4733
 4214TIP3    H134277   4.209   4.711   1.165 -2.0105  1.4426 -0.2091
 4214TIP3    H234278   4.309   4.805   1.230  0.2916 -0.8869 -0.1666
 4215TIP3   OH234279   2.025   4.310   1.491  0.0156  0.0863 -0.3163
 4215TIP3    H134280   1.983   4.378   1.437  0.4102 -0.7157 -1.6945
 4215TIP3    H234281   2.118   4.316   1.468 -0.1373 -1.9329 -1.6875
 4216TIP3   OH234282   6.806   1.153   1.585  0.0254  0.1358 -0.1046
 4216TIP3    H134283   6.833   1.146   1.676  1.7519  1.1120 -0.4965
 4216TIP3    H234284   6.888   1.155   1.535 -0.8480  0.5839 -1.6029
 4217TIP3   OH234285   1.806   1.440   6.003 -0.7645  0.5411  0.2918
 4217TIP3    H134286   1.729   1.427   6.058  0.2419 -1.9235  1.2753
 4217TIP3    H234287   1.857   1.506   6.049 -0.6976 -0.3261  1.5224
 4218TIP3   OH234288   2.661   4.609   6.808  0.2661  0.0584 -0.6369
 4218TIP3    H134289   2.607   4.552   6.864 -0.4018  0.4447 -0.8681
 4218TIP3    H234290   2.710   4.663   6.870 -1.2041  1.1662 -0.3774
 4219TIP3   OH234291   0.428   1.113   6.730  0.1272  0.1974  0.4794
 4219TIP3    H134292   0.512   1.075   6.758  0.9463  1.8848  0.4023
 4219TIP3    H234293   0.373   1.107   6.808  0.8597  0.5714  1.0410
 4220TIP3   OH234294   1.333   4.173   0.634 -0.3317  0.6769  0.2003
 4220TIP3    H134295   1.403   4.209   0.689  0.4950 -2.8786  1.7471
 4220TIP3    H234296   1.266   4.147   0.697 -0.9480 -0.2652 -0.8258
 4221TIP3   OH234297   1.075   0.389   6.255 -0.4063  0.5404 -0.2148
 4221TIP3    H134298   1.072   0.470   6.205  0.0695  0.4199 -0.4483
 4221TIP3    H234299   1.160   0.390   6.298  0.3848 -0.6720 -1.6694
 4222TIP3   OH234300   6.161   0.450   6.128 -0.2304  0.6562  0.1716
 4222TIP3    H134301   6.220   0.434   6.055  2.0031 -0.0933  1.9994
 4222TIP3    H234302   6.079   0.480   6.088  0.1189 -1.7709 -2.7316
 4223TIP3   OH234303   4.306   3.332   1.353 -0.3509 -0.1124  0.2605
 4223TIP3    H134304   4.392   3.355   1.320 -1.4648  1.4799 -1.8238
 4223TIP3    H234305   4.273   3.266   1.292 -1.1968  0.4354  0.1084
 4224TIP3   OH234306   1.080   6.906   6.138  0.0909 -0.0471  0.3556
 4224TIP3    H134307   1.142   6.888   6.068 -1.7518 -0.8861 -1.1753
 4224TIP3    H234308   1.014   6.962   6.098 -3.2350 -3.7652 -0.0560
 4225TIP3   OH234309   2.801   4.133   7.124 -0.3733  0.4278  0.0311
 4225TIP3    H134310   2.841   4.053   7.092 -0.2347  0.6378 -0.3300
 4225TIP3    H234311   2.714   4.135   7.083  0.7430  1.9941 -2.5038
 4226TIP3   OH234312   2.561   4.588   6.546 -0.2706 -0.1667  0.2850
 4226TIP3    H134313   2.603   4.637   6.617  0.5823  0.4068 -0.5808
 4226TIP3    H234314   2.544   4.502   6.582  0.6928 -0.0680  1.0134
 4227TIP3   OH234315   3.315   0.409   6.661 -0.6116  0.2665  0.0324
 4227TIP3    H134316   3.269   0.470   6.718 -1.1265  0.2704 -0.3755
 4227TIP3    H234317   3.287   0.433   6.573  1.2086  1.1528 -0.3660
 4228TIP3   OH234318   6.584   3.122   0.480 -0.3233  0.1231  0.0976
 4228TIP3    H134319   6.514   3.134   0.544  0.0097  3.3839  0.0491
 4228TIP3    H234320   6.538   3.099   0.399 -0.8560 -2.5804  1.0749
 4229TIP3   OH234321   4.425   0.834   7.928 -0.0217 -0.0386  0.5769
 4229TIP3    H134322   4.373   0.828   8.008  0.0797  0.5973  0.6912
 4229TIP3    H234323   4.462   0.922   7.930 -0.0623 -0.0004 -0.1948
 4230TIP3   OH234324   3.918   5.933   1.435 -0.0345 -0.5816  0.6084
 4230TIP3    H134325   3.893   5.896   1.520 -0.1366 -2.7042 -0.2704
 4230TIP3    H234326   3.863   5.886   1.372 -0.6097  1.5961 -0.5831
 4231TIP3   OH234327   1.064   6.813   0.464 -0.5824  0.0388  0.4076
 4231TIP3    H134328   1.014   6.829   0.384  1.6422 -0.1174 -1.0888
 4231TIP3    H234329   1.102   6.726   0.451 -0.1510  0.0350  1.6047
 4232TIP3   OH234330   5.616   1.315   6.797  0.1730 -0.3221 -0.3258
 4232TIP3    H134331   5.548   1.260   6.836  0.3722 -1.6385 -1.6960
 4232TIP3    H234332   5.568   1.376   6.741  0.0177  0.0621  0.2226
 4233TIP3   OH234333   5.961   1.771   1.777  0.1009 -0.0513 -0.6588
 4233TIP3    H134334   5.961   1.735   1.866  2.8839  2.4123  0.5243
 4233TIP3    H234335   6.010   1.707   1.725 -0.5405 -0.9688 -0.1562
 4234TIP3   OH234336   3.624   4.835   0.338 -0.1972  0.3634 -0.7306
 4234TIP3    H134337   3.645   4.830   0.245  1.0957  1.0896 -0.5042
 4234TIP3    H234338   3.532   4.858   0.341  0.3647  3.2196 -1.9196
 4235TIP3   OH234339   2.537   4.718   6.317  0.3515 -0.2891 -0.6546
 4235TIP3    H134340   2.522   4.663   6.393 -1.0824 -0.4470 -1.0183
 4235TIP3    H234341   2.469   4.785   6.321  0.6084  0.0475 -1.4848
 4236TIP3   OH234342   5.864   0.963   0.244 -0.5880 -0.1690 -0.0613
 4236TIP3    H134343   5.780   0.936   0.205  0.4866 -0.4702 -2.3270
 4236TIP3    H234344   5.888   1.042   0.195  1.1529 -0.9373 -0.5310
 4237TIP3   OH234345   2.043   0.151   0.525  0.2844 -0.5461 -0.3742
 4237TIP3    H134346   2.097   0.189   0.595 -0.7612  0.0119  0.1569
 4237TIP3    H234347   1.999   0.227   0.486 -2.0251 -1.1468  0.8483
 4238TIP3   OH234348   3.346   4.593   1.364  0.3130  0.3358 -0.7074
 4238TIP3    H134349   3.379   4.673   1.324  0.7679  0.7277  0.3896
 4238TIP3    H234350   3.379   4.522   1.308  1.7937  0.8038 -0.4745
 4239TIP3   OH234351   3.467   6.794   0.094  0.1597  0.8454  0.0160
 4239TIP3    H134352   3.416   6.717   0.122 -0.4860  2.2005  2.9307
 4239TIP3    H234353   3.403   6.852   0.053 -0.4058  1.8015  2.1231
 4240TIP3   OH234354   4.125   5.183   0.611 -0.0028  0.3135 -0.0166
 4240TIP3    H134355   4.055   5.247   0.619  0.2856  0.7764 -1.0324
 4240TIP3    H234356   4.080   5.100   0.593 -0.2877  0.6754 -1.0376
 4241TIP3   OH234357   6.779   5.200   0.202  1.2079 -0.1437  0.2692
 4241TIP3    H134358   6.784   5.185   0.108  1.1585  0.4848  0.1631
 4241TIP3    H234359   6.729   5.126   0.235 -0.0186  0.3639 -0.3949
 4242TIP3   OH234360   2.615   3.564   6.503 -0.2693 -0.2551 -0.2213
 4242TIP3    H134361   2.676   3.584   6.432 -0.8716  0.1935 -0.6243
 4242TIP3    H234362   2.557   3.640   6.506 -0.3855 -0.3722  0.6093
 4243TIP3   OH234363   1.236   5.508   6.255 -0.3661 -0.4427 -0.2465
 4243TIP3    H134364   1.213   5.595   6.220 -0.0088 -0.9530 -1.8289
 4243TIP3    H234365   1.221   5.448   6.182  1.3139 -1.4468  0.1751
 4244TIP3   OH234366   2.477   1.750   1.075  0.0306 -0.5050 -0.3583
 4244TIP3    H134367   2.406   1.687   1.085 -0.1062 -0.2210  0.5478
 4244TIP3    H234368   2.555   1.695   1.059  0.0707 -0.9832  1.2660
 4245TIP3   OH234369   0.282   4.737   7.934  0.2267  0.3562  0.5269
 4245TIP3    H134370   0.295   4.831   7.942  1.3625  0.1697  1.1833
 4245TIP3    H234371   0.220   4.727   7.862  0.2793  1.5914  0.2868
 4246TIP3   OH234372   3.718   3.244   1.387 -0.2901  0.1001  0.8107
 4246TIP3    H134373   3.668   3.254   1.468 -0.3754  1.1148  0.6363
 4246TIP3    H234374   3.658   3.196   1.329 -0.0924 -0.9536  1.4530
 4247TIP3   OH234375   4.281   0.401   0.673 -0.0906  0.0290  0.1261
 4247TIP3    H134376   4.282   0.316   0.717 -1.3930 -0.6770 -1.1505
 4247TIP3    H234377   4.241   0.460   0.737 -1.4507 -0.8590  0.1389
 4248TIP3   OH234378   3.615   4.892   1.013  0.3003  0.0060 -0.2504
 4248TIP3    H134379   3.569   4.894   0.929 -0.2804  0.2287  0.0663
 4248TIP3    H234380   3.613   4.983   1.044 -1.3024 -0.3741  0.9512
 4249TIP3   OH234381   6.147   4.902   1.745 -0.6349 -0.3102 -0.1206
 4249TIP3    H134382   6.089   4.966   1.786 -0.2250  0.6798 -1.0332
 4249TIP3    H234383   6.216   4.955   1.705  0.0159 -1.3638 -0.4215
 4250TIP3   OH234384   1.856   2.371   0.158  0.3116 -0.1095  0.2059
 4250TIP3    H134385   1.931   2.352   0.101  0.0772 -0.6992  0.0909
 4250TIP3    H234386   1.895   2.404   0.239  0.6917 -0.3920  0.1390
 4251TIP3   OH234387   7.158   3.389   0.953 -0.5354  0.3147  0.3369
 4251TIP3    H134388   7.087   3.452   0.959 -0.4627  0.3961  0.3483
 4251TIP3    H234389   7.131   3.316   1.010 -0.8457  0.1135 -0.0634
 4252TIP3   OH234390   2.903   0.612   1.002 -0.1990  0.8871 -0.0326
 4252TIP3    H134391   2.847   0.551   1.050 -0.5755  1.5357  0.3761
 4252TIP3    H234392   2.933   0.675   1.069  1.9395 -0.0705  0.0063
 4253TIP3   OH234393   6.584   6.485   7.715 -0.1517 -0.1712  0.0236
 4253TIP3    H134394   6.632   6.559   7.754 -1.5702  1.3061 -0.9021
 4253TIP3    H234395   6.649   6.416   7.707  1.4168  1.2078  0.2922
 4254TIP3   OH234396   0.045   2.404   0.500  0.5612  0.7315 -0.3893
 4254TIP3    H134397   0.132   2.425   0.464  2.4333  0.1569  3.3026
 4254TIP3    H234398   0.055   2.317   0.537 -1.2976  1.0412  0.9675
 4255TIP3   OH234399   2.207   1.931   7.312 -0.1693 -0.3576  0.4816
 4255TIP3    H134400   2.258   1.896   7.239  1.7148  0.5898  1.2627
 4255TIP3    H234401   2.222   2.026   7.308 -0.9356 -0.1799  1.4312
 4256TIP3   OH234402   4.073   6.852   7.971 -0.0370  0.2360 -0.0630
 4256TIP3    H134403   4.131   6.784   8.006 -1.0508 -1.7396 -1.9195
 4256TIP3    H234404   4.060   6.826   7.879 -1.2698  2.4445 -0.5830
 4257TIP3   OH234405   3.918   0.185   7.558 -0.3811 -0.1101 -0.2460
 4257TIP3    H134406   3.992   0.211   7.503 -1.5389 -0.1648 -1.8683
 4257TIP3    H234407   3.939   0.096   7.587 -0.5788 -0.8029 -2.1161
 4258TIP3   OH234408   0.849   3.953   1.360  0.2102  0.8302 -0.2400
 4258TIP3    H134409   0.791   4.030   1.360 -0.5667  0.4229  3.3218
 4258TIP3    H234410   0.932   3.986   1.395  0.5041  0.4151 -0.5462
 4259TIP3   OH234411   3.974   5.374   7.028  0.4256 -0.0867  0.0595
 4259TIP3    H134412   3.979   5.376   7.124 -0.7109 -0.8315  0.1450
 4259TIP3    H234413   4.006   5.460   7.001  0.2130  0.3477  1.1353
 4260TIP3   OH234414   1.794   7.057   7.564  0.4475  0.3763  0.0813
 4260TIP3    H134415   1.806   6.964   7.580  1.6069 -0.0105 -2.3931
 4260TIP3    H234416   1.860   7.099   7.620  0.0822 -0.2904  1.0363
 4261TIP3   OH234417   3.076   1.842   1.907  0.6131 -0.4163  0.5415
 4261TIP3    H134418   3.148   1.797   1.862  0.9220 -0.2982  0.9127
 4261TIP3    H234419   3.059   1.790   1.985 -0.1556 -0.8106  0.1251
 4262TIP3   OH234420   2.937   4.596   1.078  0.2039 -0.0714  0.2694
 4262TIP3    H134421   2.979   4.613   0.994 -0.2646  0.6370  0.1680
 4262TIP3    H234422   2.844   4.588   1.057 -0.0443  1.1095  0.8416
 4263TIP3   OH234423   4.719   3.173   1.400 -0.4525  0.3339  0.5223
 4263TIP3    H134424   4.677   3.227   1.333  2.0150  1.0262 -0.5816
 4263TIP3    H234425   4.749   3.236   1.465  0.7128  0.1130  0.2166
 4264TIP3   OH234426   7.027   2.671   7.832  0.3565 -0.5234  0.5200
 4264TIP3    H134427   7.082   2.694   7.906 -1.5400  0.3095  1.7389
 4264TIP3    H234428   6.952   2.626   7.870 -1.1557  0.7801 -0.7241
 4265TIP3   OH234429   6.349   2.448   0.353 -0.0681 -0.4375 -0.2648
 4265TIP3    H134430   6.377   2.514   0.290 -0.1331 -0.6773 -0.5442
 4265TIP3    H234431   6.414   2.378   0.347  1.0416  0.3867  1.3298
 4266TIP3   OH234432   5.592   1.754   1.768 -0.3166  0.1540 -0.8107
 4266TIP3    H134433   5.546   1.686   1.818  0.6379  0.2393  0.1965
 4266TIP3    H234434   5.534   1.830   1.772  0.0284  0.3654  0.7336
 4267TIP3   OH234435   5.415   2.772   1.017  0.2154  0.1812  0.2661
 4267TIP3    H134436   5.451   2.710   0.953 -2.0739 -2.9874  1.7444
 4267TIP3    H234437   5.320   2.761   1.009 -0.5856  5.3220 -0.8715
 4268TIP3   OH234438   2.322   7.108   0.994 -0.1197  0.1518  0.1579
 4268TIP3    H134439   2.416   7.127   0.998 -0.4150  1.4471  2.1793
 4268TIP3    H234440   2.296   7.139   0.907  1.4152 -0.9551 -0.7635
 4269TIP3   OH234441   0.394   0.677   7.669  0.0147 -0.1001 -0.4547
 4269TIP3    H134442   0.397   0.771   7.655 -0.1508  0.0081  0.1844
 4269TIP3    H234443   0.317   0.663   7.724  0.5686 -0.4894  0.2505
 4270TIP3   OH234444   6.161   6.744   1.434 -0.0391  0.6508 -0.0212
 4270TIP3    H134445   6.100   6.811   1.465  0.8676  0.6379  1.9533
 4270TIP3    H234446   6.247   6.775   1.462  0.6772 -0.1519 -1.2705
 4271TIP3   OH234447   6.588   5.478   6.503  0.3264  0.2284 -0.2132
 4271TIP3    H134448   6.673   5.465   6.547  0.1208  0.3843  0.2397
 4271TIP3    H234449   6.608   5.537   6.430  0.2972  1.7762  0.9841
 4272TIP3   OH234450   0.035   3.505   7.304 -0.0290 -0.3705 -0.2306
 4272TIP3    H134451   0.109   3.508   7.363 -1.8099  0.1099  2.1238
 4272TIP3    H234452   0.058   3.564   7.232  1.8111 -0.2401  0.4350
 4273TIP3   OH234453   2.431   5.032   7.566 -0.4248  0.1623 -0.0196
 4273TIP3    H134454   2.513   5.000   7.603  0.2937  2.3248  0.3786
 4273TIP3    H234455   2.449   5.043   7.473  0.0618  1.5257  0.2220
 4274TIP3   OH234456   6.234   0.076   2.249  0.1886 -0.1120  0.1287
 4274TIP3    H134457   6.307   0.133   2.272 -0.0434  1.2660 -2.2408
 4274TIP3    H234458   6.161   0.136   2.233 -0.0757 -1.0216 -2.4510
 4275TIP3   OH234459   5.657   0.029   0.010  0.0928 -0.2680 -0.5161
 4275TIP3    H134460   5.729   0.014   0.072  0.6572  1.9987 -0.5276
 4275TIP3    H234461   5.647  -0.054  -0.036  1.0423 -1.3915  1.1783
 4276TIP3   OH234462   1.250   0.894   7.462 -0.1451 -0.5544  0.3829
 4276TIP3    H134463   1.249   0.939   7.377 -1.7838  0.8690  1.0960
 4276TIP3    H234464   1.341   0.902   7.492 -0.2187  1.7350  0.1550
 4277TIP3   OH234465   1.023   2.449   1.339  0.1293 -0.2836 -0.0679
 4277TIP3    H134466   1.048   2.522   1.396 -0.1319 -0.0600 -0.2380
 4277TIP3    H234467   0.963   2.487   1.275 -2.0040 -1.1296  1.3295
 4278TIP3   OH234468   2.306   1.982   6.084  0.0385 -0.5873 -0.3653
 4278TIP3    H134469   2.263   1.971   5.999 -1.2886 -2.6072  0.5080
 4278TIP3    H234470   2.255   2.049   6.129  0.2015 -0.1654 -0.7982
 4279TIP3   OH234471   1.122   2.634   1.515 -0.3191  0.6145  0.2038
 4279TIP3    H134472   1.159   2.720   1.536  1.2267  0.2120 -0.7196
 4279TIP3    H234473   1.160   2.576   1.582  1.1562  0.1218 -0.9997
 4280TIP3   OH234474   6.286   3.393   7.692  0.3743 -0.2073 -0.0834
 4280TIP3    H134475   6.300   3.326   7.758 -2.6822  0.7269  1.7514
 4280TIP3    H234476   6.287   3.475   7.740 -0.9998  0.6037 -1.3351
 4281TIP3   OH234477   2.072   5.707   1.737  0.5306  0.6427  0.5570
 4281TIP3    H134478   2.102   5.618   1.724 -0.2597  0.3459  0.6997
 4281TIP3    H234479   1.978   5.703   1.723  0.3630  1.2811  1.4055
 4282TIP3   OH234480   1.307   5.473   0.194 -0.0750 -0.5880  0.3139
 4282TIP3    H134481   1.219   5.485   0.229  0.6191 -0.4015  2.0887
 4282TIP3    H234482   1.357   5.547   0.227  0.8113 -0.8057 -0.4886
 4283TIP3   OH234483   6.854   5.174   0.810  0.1854 -0.1010 -0.4290
 4283TIP3    H134484   6.840   5.157   0.903 -1.1421 -0.0741 -0.6115
 4283TIP3    H234485   6.777   5.222   0.781  0.7798  0.2872 -1.4554
 4284TIP3   OH234486   5.128   5.151   1.928 -0.0517 -0.1184  0.2839
 4284TIP3    H134487   5.123   5.243   1.903 -2.1709 -0.5136 -1.0744
 4284TIP3    H234488   5.051   5.138   1.984 -0.3917 -1.2583 -0.4143
 4285TIP3   OH234489   2.276   4.101   5.535  0.6242  0.2082 -0.7095
 4285TIP3    H134490   2.340   4.034   5.559  0.2287  0.4049  1.0495
 4285TIP3    H234491   2.232   4.066   5.458  1.3613 -0.9168 -0.6409
 4286TIP3   OH234492   5.516   2.051   6.185 -0.1579 -1.1291  0.4145
 4286TIP3    H134493   5.580   2.065   6.115 -0.0544 -1.5486  0.4199
 4286TIP3    H234494   5.438   2.020   6.140  0.0220 -1.7410  0.5095
 4287TIP3   OH234495   4.457   3.505   1.817  0.1252 -0.1157  0.0175
 4287TIP3    H134496   4.402   3.460   1.754  1.3782 -3.2700  0.9914
 4287TIP3    H234497   4.433   3.468   1.902  1.4998  0.7955  0.8507
 4288TIP3   OH234498   1.336   6.456   7.352  0.0913 -0.1338 -0.2074
 4288TIP3    H134499   1.340   6.393   7.280 -0.8419  0.7609 -1.0883
 4288TIP3    H234500   1.243   6.459   7.376  0.4831 -0.9270  1.5283
 4289TIP3   OH234501   3.229   6.161   7.444 -1.0571 -0.2356 -0.2197
 4289TIP3    H134502   3.210   6.243   7.489 -0.0162  0.3740 -0.8284
 4289TIP3    H234503   3.265   6.104   7.512 -2.3003 -0.3948  0.3202
 4290TIP3   OH234504   0.184   6.849   7.583 -0.1465  0.3497 -0.1251
 4290TIP3    H134505   0.143   6.830   7.499 -0.1103 -0.3800  0.0135
 4290TIP3    H234506   0.146   6.933   7.611 -1.0590 -0.0008 -0.2984
 4291TIP3   OH234507   1.886   6.429   6.258 -0.2681 -0.1274  0.3057
 4291TIP3    H134508   1.837   6.488   6.315  0.8562  0.8324  0.3236
 4291TIP3    H234509   1.944   6.487   6.208  1.6591 -1.2902  1.0924
 4292TIP3   OH234510   3.944   3.285   1.234  0.0481  0.4153  0.1527
 4292TIP3    H134511   3.929   3.254   1.145 -0.1210  0.0164  0.3182
 4292TIP3    H234512   3.862   3.270   1.280  0.8863 -1.8017  1.0613
 4293TIP3   OH234513   3.092   5.051   6.184  0.2872  0.3209 -0.1100
 4293TIP3    H134514   3.088   5.103   6.104 -0.0710  0.9567  0.3107
 4293TIP3    H234515   3.179   5.012   6.183  0.4563  0.7011 -0.5747
 4294TIP3   OH234516   7.080   6.745   0.161  0.4824  0.3272  0.3264
 4294TIP3    H134517   7.065   6.840   0.163  0.8869  0.4113  3.3008
 4294TIP3    H234518   6.993   6.707   0.167  0.3205  0.4673 -0.8362
 4295TIP3   OH234519   2.154   3.943   0.112  0.2071  0.0884  0.0178
 4295TIP3    H134520   2.220   3.980   0.054 -1.6212  1.4776 -1.3157
 4295TIP3    H234521   2.122   4.017   0.163 -0.5464 -0.4738  0.3856
 4296TIP3   OH234522   1.130   2.639   0.271 -0.2065  0.0651 -0.4623
 4296TIP3    H134523   1.104   2.585   0.197 -0.7650 -0.8136  0.3475
 4296TIP3    H234524   1.096   2.592   0.348 -0.2470  1.3000  0.3030
 4297TIP3   OH234525   2.945   2.227   1.480 -0.2120  0.6121 -0.0782
 4297TIP3    H134526   2.865   2.209   1.431  0.3203  0.6577 -0.9827
 4297TIP3    H234527   2.928   2.311   1.523 -0.3421  1.0534 -0.9599
 4298TIP3   OH234528   3.866   0.837   1.622  0.4191  0.1513 -0.3990
 4298TIP3    H134529   3.926   0.903   1.657 -0.3434  1.2803 -1.1583
 4298TIP3    H234530   3.912   0.754   1.635  1.2879  0.7855  0.8319
 4299TIP3   OH234531   2.826   1.634   6.596 -0.5429  0.4242  0.7107
 4299TIP3    H134532   2.755   1.631   6.531  0.1349  1.3174 -0.0904
 4299TIP3    H234533   2.793   1.582   6.669 -1.2237 -0.8505 -0.4519
 4300TIP3   OH234534   2.035   5.819   7.646 -0.1365  0.7847 -0.2182
 4300TIP3    H134535   2.016   5.811   7.553  1.6735 -0.3675 -0.5441
 4300TIP3    H234536   1.986   5.896   7.674 -0.4545  1.3549 -2.1919
 4301TIP3   OH234537   3.768   5.281   0.118 -0.1298 -0.3639 -0.4734
 4301TIP3    H134538   3.681   5.314   0.139  0.5322  0.0838  1.8473
 4301TIP3    H234539   3.778   5.203   0.172  0.6280 -0.8539 -1.2893
 4302TIP3   OH234540   0.959   6.329   0.157  0.3532  0.0295 -0.3145
 4302TIP3    H134541   0.883   6.382   0.133  0.3734  0.2191  0.0296
 4302TIP3    H234542   0.937   6.240   0.130 -0.1091  0.0343  0.0408
 4303TIP3   OH234543   1.652   3.826   0.488 -0.2277  0.1023  0.1609
 4303TIP3    H134544   1.659   3.865   0.575 -0.2608 -0.8495  0.5965
 4303TIP3    H234545   1.572   3.864   0.451 -0.0453  0.7480  0.4150
 4304TIP3   OH234546   2.834   2.677   6.622  0.2005  0.1342 -0.0763
 4304TIP3    H134547   2.828   2.691   6.716 -0.9131  1.4653 -0.3075
 4304TIP3    H234548   2.921   2.639   6.609  0.7944  0.8781  1.3865
 4305TIP3   OH234549   5.203   3.605   7.944  0.0167 -0.1890 -0.1261
 4305TIP3    H134550   5.254   3.628   7.866  1.5415 -0.8878  0.6196
 4305TIP3    H234551   5.183   3.512   7.933  1.2549 -0.6008  0.8177
 4306TIP3   OH234552   3.510   1.661   7.654 -0.3199  0.1578  0.0689
 4306TIP3    H134553   3.577   1.641   7.588 -0.5408 -1.3317  0.2503
 4306TIP3    H234554   3.429   1.670   7.604 -0.7851 -2.4959  0.1806
 4307TIP3   OH234555   1.472   3.309   1.198 -0.3987  0.3241  0.0179
 4307TIP3    H134556   1.478   3.346   1.286 -1.1389 -0.2580  0.3309
 4307TIP3    H234557   1.421   3.229   1.209  1.2236 -0.8453 -0.6258
 4308TIP3   OH234558   7.058   6.557   1.484 -0.5009  0.3986 -0.4265
 4308TIP3    H134559   6.969   6.528   1.503  0.3099 -1.2659  1.1367
 4308TIP3    H234560   7.093   6.490   1.426  0.6825 -0.7056  1.4495
 4309TIP3   OH234561   1.017   1.932   1.898  1.0932 -1.1808  0.5038
 4309TIP3    H134562   0.993   1.942   1.990  1.4133 -1.0167  0.5683
 4309TIP3    H234563   1.092   1.873   1.899  1.4352 -0.7516  0.3872
 4310TIP3   OH234564   5.508   3.647   7.465  0.0416  0.1611 -0.3794
 4310TIP3    H134565   5.541   3.624   7.378 -0.9541 -0.1483 -0.6882
 4310TIP3    H234566   5.582   3.690   7.508  0.9874 -0.8830 -0.8880
 4311TIP3   OH234567   1.197   5.754   7.546 -0.4989  0.0759  0.2777
 4311TIP3    H134568   1.122   5.770   7.603 -1.7561  0.2257 -1.3284
 4311TIP3    H234569   1.228   5.667   7.570  0.4706  1.0092  2.7015
 4312TIP3   OH234570   0.291   4.470   0.809  0.5489 -0.4349  0.0956
 4312TIP3    H134571   0.338   4.401   0.760  0.5525  0.9276 -1.9690
 4312TIP3    H234572   0.216   4.426   0.847  0.3581 -1.5657 -1.4752
 4313TIP3   OH234573   1.756   4.456   7.171 -0.4848 -0.0112 -0.1073
 4313TIP3    H134574   1.795   4.423   7.252 -0.3101  0.3171 -0.0555
 4313TIP3    H234575   1.830   4.461   7.110 -0.7165 -0.8045 -0.4667
 4314TIP3   OH234576   3.201   5.211   7.075 -0.0655  0.3994  0.2549
 4314TIP3    H134577   3.252   5.282   7.115 -0.0768 -0.2547  1.4815
 4314TIP3    H234578   3.187   5.240   6.985  2.5022  0.6097 -0.1622
 4315TIP3   OH234579   2.758   3.611   6.953  0.6182 -1.0717 -0.2429
 4315TIP3    H134580   2.763   3.599   7.048  0.9307 -0.9824 -0.2459
 4315TIP3    H234581   2.798   3.697   6.938 -2.0081  0.2671 -0.1715
 4316TIP3   OH234582   5.536   4.908   6.482 -0.2291 -0.3177 -0.2349
 4316TIP3    H134583   5.465   4.970   6.496 -0.7345 -0.6230 -1.3420
 4316TIP3    H234584   5.534   4.852   6.560  0.6618  1.4060  1.0950
 4317TIP3   OH234585   1.858   3.099   2.022  0.3134  0.2424  0.5184
 4317TIP3    H134586   1.807   3.121   2.099  1.3840 -0.4916  1.4678
 4317TIP3    H234587   1.872   3.004   2.028 -0.2356  0.0284 -0.9934
 4318TIP3   OH234588   1.686   5.026   1.018  0.0818 -0.0347 -0.3975
 4318TIP3    H134589   1.776   5.044   0.991  0.3593  0.7308  0.9498
 4318TIP3    H234590   1.691   5.010   1.112 -1.1791 -0.0805 -0.3093
 4319TIP3   OH234591   3.437   5.311   2.368 -0.3203  0.5173  0.6784
 4319TIP3    H134592   3.360   5.367   2.359 -0.2112  0.4818 -0.7209
 4319TIP3    H234593   3.511   5.370   2.350 -0.2465 -0.1826 -1.7208
 4320TIP3   OH234594   2.769   0.042   0.352  0.1290  0.6124  0.3215
 4320TIP3    H134595   2.705   0.014   0.286  0.1896  1.9510 -0.3311
 4320TIP3    H234596   2.755   0.136   0.360  0.7199  0.6095  1.6005
 4321TIP3   OH234597   5.380   3.227   6.203  0.1671 -0.4281  0.2275
 4321TIP3    H134598   5.337   3.200   6.123 -0.4234  0.2449  0.3077
 4321TIP3    H234599   5.309   3.242   6.265  0.3801  1.8011  0.0294
 4322TIP3   OH234600   5.487   3.969   7.987 -0.0343 -0.3381  0.1820
 4322TIP3    H134601   5.549   3.898   8.002  0.6576  0.1216 -0.4850
 4322TIP3    H234602   5.539   4.049   7.990 -0.3821 -0.0075 -1.4811
 4323TIP3   OH234603   3.817   2.175   0.225 -0.1006  0.2328  0.3784
 4323TIP3    H134604   3.801   2.170   0.131  0.8177 -0.6384  0.2448
 4323TIP3    H234605   3.761   2.245   0.256 -0.0635  0.8454 -0.9004
 4324TIP3   OH234606   0.694   4.090   6.282 -0.3666 -0.2882  0.2601
 4324TIP3    H134607   0.610   4.136   6.289 -1.0855 -1.3424 -0.9669
 4324TIP3    H234608   0.670   4.000   6.257  1.0843 -0.8805  0.8873
 4325TIP3   OH234609   2.018   2.313   1.655 -0.0143  0.0487  0.1503
 4325TIP3    H134610   1.993   2.395   1.697  1.7585  1.3578 -1.2117
 4325TIP3    H234611   2.097   2.284   1.702 -0.1611 -0.4620  0.0947
 4326TIP3   OH234612   2.757   2.146   2.009 -0.4317 -0.7974  0.3865
 4326TIP3    H134613   2.670   2.145   2.049 -0.2953 -3.7682  0.8352
 4326TIP3    H234614   2.742   2.173   1.919 -1.6071  0.0924  0.8251
 4327TIP3   OH234615   5.709   4.860   0.224  0.0489  0.4245 -0.0318
 4327TIP3    H134616   5.651   4.833   0.295  1.7237 -1.6893  0.6430
 4327TIP3    H234617   5.769   4.922   0.264 -0.0160  0.4862 -0.0294
 4328TIP3   OH234618   4.038   0.852   6.510 -0.1910  0.2992 -0.1238
 4328TIP3    H134619   4.036   0.887   6.599 -1.1911 -0.3485  0.1194
 4328TIP3    H234620   4.129   0.824   6.498  0.4353  2.1368 -0.0191
 4329TIP3   OH234621   3.037   5.757   0.381 -0.4023  0.6262  0.4328
 4329TIP3    H134622   3.008   5.783   0.294  1.0667 -0.0626 -0.3132
 4329TIP3    H234623   2.978   5.801   0.441 -1.8294  0.6389 -0.9250
 4330TIP3   OH234624   0.988   1.773   2.232  0.5008  0.4990  0.1082
 4330TIP3    H134625   0.984   1.857   2.187  0.9275  0.5931  0.2356
 4330TIP3    H234626   0.906   1.767   2.280  1.2113  1.6610  1.5417
 4331TIP3   OH234627   4.514   2.391   1.005  0.5532 -0.0173 -0.2767
 4331TIP3    H134628   4.571   2.367   0.932 -0.1941 -2.1959 -0.2303
 4331TIP3    H234629   4.571   2.390   1.081  0.8652 -0.1726 -0.5102
 4332TIP3   OH234630   4.241   6.583   0.440 -0.4713 -0.7062 -0.5019
 4332TIP3    H134631   4.328   6.558   0.473 -0.8530 -1.0927  0.2228
 4332TIP3    H234632   4.223   6.518   0.372 -0.6731 -1.3132  0.1231
 4333TIP3   OH234633   3.532   2.271   0.477  0.6212 -0.0277 -0.0694
 4333TIP3    H134634   3.544   2.219   0.557  2.0604 -0.2144 -0.3838
 4333TIP3    H234635   3.455   2.232   0.436  0.0450 -0.1320  1.0548
 4334TIP3   OH234636   4.028   0.510   7.387  0.2103 -0.3217  0.2837
 4334TIP3    H134637   4.065   0.573   7.326  0.4110 -1.6246 -0.9880
 4334TIP3    H234638   4.101   0.489   7.446 -0.3014  1.8168  1.8011
 4335TIP3   OH234639   0.227   1.633   7.919 -0.3439 -0.1845 -0.2079
 4335TIP3    H134640   0.239   1.724   7.892 -0.6671  0.1443  0.7410
 4335TIP3    H234641   0.175   1.638   7.999  0.3076 -1.1543  0.2974
 4336TIP3   OH234642   4.729   1.301   7.532 -0.1813 -0.0499 -0.6021
 4336TIP3    H134643   4.820   1.273   7.518 -0.4952 -2.1346  1.0361
 4336TIP3    H234644   4.679   1.220   7.538 -2.1001  1.0433 -0.9354
 4337TIP3   OH234645   1.493   4.620   1.784  0.0110 -0.5038  0.9285
 4337TIP3    H134646   1.491   4.561   1.860  1.5408 -1.0677  0.5679
 4337TIP3    H234647   1.546   4.694   1.812  1.6250 -1.2850  0.0598
 4338TIP3   OH234648   4.352   3.381   0.243  0.4723  0.0059 -0.1591
 4338TIP3    H134649   4.298   3.374   0.322  1.1646 -2.0901  0.1862
 4338TIP3    H234650   4.370   3.475   0.235  0.5898  0.2681  2.3029
 4339TIP3   OH234651   5.809   2.259   7.414 -0.3589  0.6968  0.6108
 4339TIP3    H134652   5.807   2.268   7.318 -1.1934  0.6095  0.6150
 4339TIP3    H234653   5.829   2.347   7.445  3.3648  0.1423  0.2834
 4340TIP3   OH234654   2.219   4.858   0.814  0.0330  0.5037  0.3410
 4340TIP3    H134655   2.216   4.835   0.721  0.8211 -1.8392  0.8332
 4340TIP3    H234656   2.133   4.894   0.833 -0.6961 -0.4853 -0.9517
 4341TIP3   OH234657   3.974   0.250   6.556  0.3731  0.4606 -0.0741
 4341TIP3    H134658   3.997   0.221   6.644  0.9884 -0.6442 -0.5771
 4341TIP3    H234659   3.898   0.307   6.569 -1.5165 -2.0769  0.9379
 4342TIP3   OH234660   4.498   3.903   7.409  0.1977  0.3137  0.3385
 4342TIP3    H134661   4.582   3.927   7.448  0.0749  0.2877  0.6220
 4342TIP3    H234662   4.432   3.937   7.469 -0.0199  1.1775 -0.3760
 4343TIP3   OH234663   3.834   4.489   7.064  0.7382  0.5458  0.4322
 4343TIP3    H134664   3.793   4.575   7.051  0.3490  0.2128 -0.5920
 4343TIP3    H234665   3.809   4.464   7.153 -1.2077  0.4073 -0.1087
 4344TIP3   OH234666   0.720   3.824   7.214 -0.2983  0.1815 -0.4208
 4344TIP3    H134667   0.811   3.846   7.194 -0.7383  1.3938 -1.1742
 4344TIP3    H234668   0.710   3.733   7.184  0.4859  0.2532 -0.9307
 4345TIP3   OH234669   0.119   3.562   6.914  0.0210  0.4579 -0.6873
 4345TIP3    H134670   0.064   3.585   6.989 -0.0923 -1.0958 -0.2779
 4345TIP3    H234671   0.195   3.620   6.922  1.0542 -1.0872  1.9008
 4346TIP3   OH234672   0.691   4.798   0.937 -0.2100 -0.0195  0.7303
 4346TIP3    H134673   0.671   4.876   0.990  0.3668  0.1559  0.6980
 4346TIP3    H234674   0.655   4.818   0.851 -0.3353  0.0869  0.8072
 4347TIP3   OH234675   4.381   4.629   2.297  0.4548  0.0273  0.1297
 4347TIP3    H134676   4.329   4.558   2.258  1.1304 -0.6364  0.4221
 4347TIP3    H234677   4.382   4.697   2.230  1.1257 -0.8711 -0.7935
 4348TIP3   OH234678   6.605   2.698   0.011 -0.2738 -0.0832 -0.3136
 4348TIP3    H134679   6.598   2.716  -0.082 -1.0555 -0.6194 -0.3689
 4348TIP3    H234680   6.632   2.781   0.050  1.2728 -0.1537 -1.1493
 4349TIP3   OH234681   0.093   1.606   7.107 -0.0696  0.8639 -0.1855
 4349TIP3    H134682   0.015   1.557   7.081 -0.1323  0.2435  1.0818
 4349TIP3    H234683   0.060   1.689   7.140 -0.1300  0.9135 -0.3696
 4350TIP3   OH234684   5.076   5.132   6.575 -0.2186 -0.4547  0.0331
 4350TIP3    H134685   5.144   5.180   6.621  1.0139  0.2869 -2.4253
 4350TIP3    H234686   5.025   5.199   6.530  0.4214 -1.2460 -1.9936
 4351TIP3   OH234687   2.271   4.199   0.893 -0.6469  0.0296 -0.7292
 4351TIP3    H134688   2.342   4.168   0.838 -1.9251 -0.8630 -1.9523
 4351TIP3    H234689   2.293   4.290   0.912  2.7271 -1.1443  2.1233
 4352TIP3   OH234690   6.576   2.945   2.199 -0.2578 -0.8034  0.1374
 4352TIP3    H134691   6.629   2.944   2.279  2.5596 -1.0894 -1.6332
 4352TIP3    H234692   6.564   2.852   2.178 -2.0117 -0.7670  0.7735
 4353TIP3   OH234693   4.073   4.723   1.979 -0.0453 -0.3405  0.1654
 4353TIP3    H134694   4.076   4.655   2.046 -0.3277  0.5011  1.0549
 4353TIP3    H234695   3.999   4.779   2.004  1.8928  1.9833  1.1685
 4354TIP3   OH234696   0.187   0.973   0.856 -0.2893 -0.1361  0.2813
 4354TIP3    H134697   0.238   0.893   0.841 -3.1851 -2.1856  0.5368
 4354TIP3    H234698   0.218   1.006   0.940  0.1035 -1.7204  0.7850
 4355TIP3   OH234699   2.622   0.036   0.110 -0.1186  0.1469 -0.1127
 4355TIP3    H134700   2.699   0.074   0.068 -0.5371 -0.0014 -1.0545
 4355TIP3    H234701   2.549   0.086   0.076 -0.5574 -0.6085 -0.3177
 4356TIP3   OH234702   2.996   6.635   1.677  0.4909  0.0426  0.0546
 4356TIP3    H134703   2.901   6.648   1.670  0.1008 -2.6559 -0.9818
 4356TIP3    H234704   3.012   6.623   1.771 -0.1540  0.7643  0.2596
 4357TIP3   OH234705   0.516   0.450   7.101  0.1136  0.0189 -0.3289
 4357TIP3    H134706   0.550   0.539   7.107 -3.0286  1.2287  2.9743
 4357TIP3    H234707   0.457   0.451   7.025  0.7867  0.4301 -0.8592
 4358TIP3   OH234708   4.894   1.496   5.803 -0.5840  0.3855 -0.5344
 4358TIP3    H134709   4.913   1.555   5.876  0.6627 -0.8940  0.2089
 4358TIP3    H234710   4.881   1.555   5.728 -1.5276  1.7084  0.6010
 4359TIP3   OH234711   5.687   4.157   0.548 -0.0196  0.5006 -0.1404
 4359TIP3    H134712   5.674   4.177   0.455  1.7067 -1.1298 -0.7898
 4359TIP3    H234713   5.646   4.230   0.594 -0.5839  1.5448 -2.1791
 4360TIP3   OH234714   1.920   4.295   5.281 -0.1721 -0.1303  0.0535
 4360TIP3    H134715   1.980   4.330   5.347  0.1392 -0.7190  0.0831
 4360TIP3    H234716   1.835   4.334   5.303  0.6006  2.5934 -1.3731
 4361TIP3   OH234717   6.743   3.006   1.977  0.0950 -0.7234 -0.2216
 4361TIP3    H134718   6.688   3.032   2.051  1.4583 -0.9809  0.9265
 4361TIP3    H234719   6.722   2.913   1.964 -0.6185 -0.5196 -0.6095
 4362TIP3   OH234720   4.590   4.837   7.178 -0.0168  0.4416 -0.2681
 4362TIP3    H134721   4.640   4.841   7.259 -1.1095 -0.2874  0.4667
 4362TIP3    H234722   4.640   4.891   7.117  2.1528 -0.9332  0.1568
 4363TIP3   OH234723   2.738   3.336   5.680 -0.1092 -0.9056 -0.0733
 4363TIP3    H134724   2.791   3.352   5.758  2.1702 -1.8713 -1.3345
 4363TIP3    H234725   2.742   3.242   5.667 -1.6528 -0.9299 -0.6082
 4364TIP3   OH234726   4.233   2.694   1.890  0.2805 -0.1526  0.5359
 4364TIP3    H134727   4.160   2.756   1.899 -0.2112 -0.5983 -0.3227
 4364TIP3    H234728   4.225   2.638   1.967 -1.6347 -1.5738 -0.6042
 4365TIP3   OH234729   0.161   4.275   7.090  0.2126  0.0381 -0.5055
 4365TIP3    H134730   0.081   4.325   7.104  0.1324 -0.0531 -0.6359
 4365TIP3    H234731   0.227   4.341   7.069  0.6516  0.3137  1.5609
 4366TIP3   OH234732   6.346   4.796   6.791  1.5285 -0.3217 -0.1775
 4366TIP3    H134733   6.320   4.845   6.713  2.8400  0.5094 -0.1322
 4366TIP3    H234734   6.269   4.745   6.815  0.1742  1.5678 -0.3636
 4367TIP3   OH234735   4.045   1.393   7.783  0.3904 -0.0082 -0.6971
 4367TIP3    H134736   4.091   1.412   7.865 -0.1395 -0.3928 -0.3004
 4367TIP3    H234737   4.084   1.452   7.719  1.6189 -0.5025 -0.4340
 4368TIP3   OH234738   3.498   1.294   0.772  0.0239 -0.5379  0.2705
 4368TIP3    H134739   3.552   1.265   0.846  0.1821 -1.0452 -0.0449
 4368TIP3    H234740   3.408   1.277   0.801  0.1461 -2.7393 -0.4658
 4369TIP3   OH234741   3.508   4.242   6.713  0.4902 -0.3335  0.4391
 4369TIP3    H134742   3.566   4.318   6.702 -1.6898  1.4893  0.6730
 4369TIP3    H234743   3.489   4.214   6.623 -0.0054  0.5070  0.2676
 4370TIP3   OH234744   6.146   6.241   1.564 -0.5332  0.2980 -0.2450
 4370TIP3    H134745   6.147   6.325   1.609  0.7831 -1.6626  3.8922
 4370TIP3    H234746   6.054   6.225   1.543 -1.1670  1.6686  1.2933
 4371TIP3   OH234747   3.388   3.788   7.360  0.2007 -0.6067  0.6517
 4371TIP3    H134748   3.293   3.794   7.369 -0.1249 -1.3272 -1.5441
 4371TIP3    H234749   3.423   3.812   7.446 -1.9190  0.7703  1.1955
 4372TIP3   OH234750   2.670   4.299   6.877 -0.5653  0.2635  0.8919
 4372TIP3    H134751   2.611   4.354   6.928 -2.6195 -0.6032 -0.4272
 4372TIP3    H234752   2.630   4.212   6.879 -0.0809 -0.0634 -1.1306
 4373TIP3   OH234753   0.016   6.270   1.090 -0.0951  0.6818  0.8068
 4373TIP3    H134754   0.099   6.304   1.124  0.2903  1.1749 -0.5401
 4373TIP3    H234755  -0.034   6.349   1.068 -0.7441  0.3831  1.2041
 4374TIP3   OH234756   6.979   2.568   6.261  0.0496  0.0105 -0.1274
 4374TIP3    H134757   7.061   2.544   6.305  0.9071 -0.1424 -1.7620
 4374TIP3    H234758   6.954   2.650   6.302  1.3023  0.3256  0.0467
 4375TIP3   OH234759   5.331   3.924   6.811 -0.0670 -0.8292  0.1976
 4375TIP3    H134760   5.405   3.898   6.755  0.9493  0.6991  0.7508
 4375TIP3    H234761   5.367   3.992   6.868 -1.5887 -0.9695  1.3887
 4376TIP3   OH234762   6.542   6.597   6.873  1.0539 -0.4440 -0.5584
 4376TIP3    H134763   6.505   6.541   6.941  0.0137  0.0120 -0.7198
 4376TIP3    H234764   6.515   6.555   6.791 -1.4971  1.2853 -0.7221
 4377TIP3   OH234765   4.580   2.865   0.525 -0.2881 -0.1252 -0.2647
 4377TIP3    H134766   4.632   2.836   0.451  1.2994 -0.0432  0.7681
 4377TIP3    H234767   4.623   2.828   0.602 -0.7279  1.3590  0.7655
 4378TIP3   OH234768   2.904   4.485   0.141 -0.6396 -0.0967  0.3564
 4378TIP3    H134769   2.949   4.419   0.194  0.2395  1.2729  1.4202
 4378TIP3    H234770   2.825   4.505   0.191 -0.0228  0.8881  0.9781
 4379TIP3   OH234771   2.684   4.017   0.965  0.5611 -0.5495 -0.7871
 4379TIP3    H134772   2.711   4.022   1.057 -0.9131  0.2342 -0.3547
 4379TIP3    H234773   2.653   4.106   0.946 -0.7009 -1.1368 -1.5292
 4380TIP3   OH234774   0.852   1.131   7.756  0.1684 -0.0913  0.1724
 4380TIP3    H134775   0.763   1.145   7.790  0.2661  1.0287  0.0078
 4380TIP3    H234776   0.909   1.171   7.821  0.4486  0.6403 -0.5066
 4381TIP3   OH234777   3.779   6.703   6.991 -0.1187 -0.0299  0.1415
 4381TIP3    H134778   3.741   6.624   6.951  0.5330  0.0698 -0.6908
 4381TIP3    H234779   3.853   6.670   7.042  0.4722  0.0895 -0.6258
 4382TIP3   OH234780   1.010   0.474   5.811 -0.0064 -0.3354 -0.1312
 4382TIP3    H134781   1.032   0.397   5.759 -0.2393 -0.7949  0.4342
 4382TIP3    H234782   0.932   0.510   5.769 -0.1911 -0.6986 -0.1092
 4383TIP3   OH234783   3.935   6.667   0.307 -0.4951 -0.6088 -0.2125
 4383TIP3    H134784   4.024   6.668   0.341 -0.6391  1.6096  0.2699
 4383TIP3    H234785   3.927   6.583   0.263  2.4182 -0.2302 -1.7311
 4384TIP3   OH234786   4.841   1.498   1.399 -0.1257  0.5034 -0.4197
 4384TIP3    H134787   4.904   1.484   1.328  0.4320 -1.1343  0.3519
 4384TIP3    H234788   4.895   1.498   1.478 -0.8061  1.7835  0.0753
 4385TIP3   OH234789   5.826   4.842   6.333  0.5948 -0.0919 -0.2338
 4385TIP3    H134790   5.797   4.886   6.253  0.7343 -0.6757 -0.6121
 4385TIP3    H234791   5.744   4.815   6.376  0.4993  0.7146  0.1166
 4386TIP3   OH234792   2.173   2.634   1.256  0.1027  0.3460 -0.4431
 4386TIP3    H134793   2.173   2.546   1.219 -0.2028  0.1315  0.0672
 4386TIP3    H234794   2.109   2.631   1.326  2.0058  0.2293  1.3791
 4387TIP3   OH234795   3.318   1.377   0.187  0.3494 -0.3495 -0.1458
 4387TIP3    H134796   3.305   1.289   0.223 -0.0663 -0.9056 -1.5941
 4387TIP3    H234797   3.245   1.429   0.223  2.3640  0.3450  3.3611
 4388TIP3   OH234798   1.476   0.118   0.779 -0.6586  0.1930  0.2622
 4388TIP3    H134799   1.451   0.081   0.864 -1.6366 -0.7734 -0.4068
 4388TIP3    H234800   1.570   0.104   0.772 -0.8861 -1.5851  0.3501
 4389TIP3   OH234801   3.321   2.862   7.043 -0.2499  0.1858  0.6797
 4389TIP3    H134802   3.379   2.829   6.975 -0.8962  2.3159 -1.0317
 4389TIP3    H234803   3.306   2.954   7.019  0.2259  1.3602  4.2378
 4390TIP3   OH234804   6.856   1.005   0.672  0.0439 -0.3083  0.6830
 4390TIP3    H134805   6.860   0.912   0.652  0.0636 -0.2158  0.2298
 4390TIP3    H234806   6.940   1.040   0.641  1.3244 -0.6187  3.5246
 4391TIP3   OH234807   1.238   5.900   6.243  0.0640  0.0991 -0.6508
 4391TIP3    H134808   1.235   5.843   6.166 -2.1934 -2.2426  0.9879
 4391TIP3    H234809   1.147   5.907   6.270  0.7843  0.9445  1.7367
 4392TIP3   OH234810   5.882   1.173   7.671  0.4148  0.3793 -0.5511
 4392TIP3    H134811   5.866   1.230   7.596 -0.0023  1.8861  0.6322
 4392TIP3    H234812   5.964   1.204   7.708 -0.4576  1.1168  0.8569
 4393TIP3   OH234813   4.128   3.700   1.352 -0.2643  0.0572 -0.3257
 4393TIP3    H134814   4.122   3.632   1.419 -1.7000 -0.2620 -0.7577
 4393TIP3    H234815   4.075   3.668   1.279 -0.6432  1.4495 -0.6996
 4394TIP3   OH234816   5.449   6.031   7.630 -0.1907  0.2128  0.2969
 4394TIP3    H134817   5.463   5.981   7.550  2.5240  0.6905  0.3841
 4394TIP3    H234818   5.414   6.115   7.600 -0.0083  0.0780 -0.3017
 4395TIP3   OH234819   1.323   3.988   6.463  0.1448 -0.5806 -0.2683
 4395TIP3    H134820   1.296   3.907   6.504  1.2911  0.3085  2.4337
 4395TIP3    H234821   1.245   4.019   6.416 -0.6776 -2.5380 -0.2564
 4396TIP3   OH234822   3.351   5.497   1.417  0.0231 -0.1683  0.6398
 4396TIP3    H134823   3.260   5.499   1.385  0.3711  1.1046 -0.3649
 4396TIP3    H234824   3.344   5.520   1.509 -0.6525  0.4939  0.4445
 4397TIP3   OH234825   0.214   4.768   2.159 -0.7249 -0.2350  0.1903
 4397TIP3    H134826   0.296   4.799   2.197 -1.0080 -0.9442  1.4303
 4397TIP3    H234827   0.241   4.701   2.095 -0.2875  0.4279 -0.3358
 4398TIP3   OH234828   6.105   0.087   0.680  0.2196 -0.2555 -0.0536
 4398TIP3    H134829   6.119   0.177   0.711  0.1950 -0.6039  1.0198
 4398TIP3    H234830   6.076   0.039   0.758 -3.8639 -0.3259 -1.3612
 4399TIP3   OH234831   5.353   6.429   7.197 -0.0126 -0.6097  0.6695
 4399TIP3    H134832   5.424   6.451   7.138 -1.3117  0.0923 -0.7125
 4399TIP3    H234833   5.301   6.509   7.204 -0.2989 -0.8937  2.1983
 4400TIP3   OH234834   1.310   5.297   1.615 -0.5762  0.1634  0.4187
 4400TIP3    H134835   1.247   5.367   1.598  0.5377  1.0724 -0.1210
 4400TIP3    H234836   1.312   5.246   1.534 -0.3874  0.3288  0.3180
 4401TIP3   OH234837   1.936   4.435   0.456  0.3462  0.2229  0.3560
 4401TIP3    H134838   1.972   4.384   0.528 -0.8155 -0.3175  0.5822
 4401TIP3    H234839   1.982   4.519   0.460  2.2032 -0.7143  0.0650
 4402TIP3   OH234840   3.565   1.434   1.308  0.3672  0.0501 -0.0905
 4402TIP3    H134841   3.610   1.389   1.237  0.6682  1.2785 -0.7030
 4402TIP3    H234842   3.633   1.448   1.374  0.1371 -0.8956  0.3665
 4403TIP3   OH234843   2.458   2.393   7.026  0.2743  0.1975  0.4168
 4403TIP3    H134844   2.465   2.430   7.114  1.3116  1.8414 -0.2956
 4403TIP3    H234845   2.414   2.461   6.975  1.7363  0.2619 -0.8288
 4404TIP3   OH234846   0.441   0.846   0.596  0.6664  0.3288  0.8836
 4404TIP3    H134847   0.531   0.870   0.577  0.2348  0.7557 -0.8025
 4404TIP3    H234848   0.392   0.870   0.517 -0.8111 -0.5241  1.4850
 4405TIP3   OH234849   3.176   4.876   5.981  0.3859 -0.5391 -0.0011
 4405TIP3    H134850   3.211   4.936   5.915  0.2003 -1.4102 -0.9091
 4405TIP3    H234851   3.081   4.879   5.969  0.2710  0.0460  0.9070
 4406TIP3   OH234852   4.655   0.951   6.813  0.0177  0.5592  0.1719
 4406TIP3    H134853   4.659   0.969   6.720 -0.9300  0.6783  0.1401
 4406TIP3    H234854   4.703   1.023   6.854  3.7871 -1.4345 -0.3644
 4407TIP3   OH234855   0.280   1.175   1.328 -0.2495 -0.4389 -0.4653
 4407TIP3    H134856   0.318   1.132   1.405 -0.2231 -0.0463 -0.2571
 4407TIP3    H234857   0.288   1.269   1.347  0.0233 -0.3391 -1.0746
 4408TIP3   OH234858   5.857   6.309   6.585 -0.0787  0.1660  0.7779
 4408TIP3    H134859   5.944   6.278   6.562  0.2383  0.1670  1.9036
 4408TIP3    H234860   5.872   6.396   6.623 -0.7072  0.6936 -0.1557
 4409TIP3   OH234861   4.063   2.196   0.402  0.5878  0.4992  0.3064
 4409TIP3    H134862   3.987   2.192   0.343  0.2776 -1.0989  0.7575
 4409TIP3    H234863   4.116   2.268   0.369  1.9651 -2.0666 -3.8410
 4410TIP3   OH234864   0.936   4.920   1.153  0.3537 -0.2114  0.2067
 4410TIP3    H134865   0.865   4.857   1.167 -0.1753  0.3717  0.1745
 4410TIP3    H234866   0.905   4.975   1.081  1.1890 -0.4568 -0.3537
 4411TIP3   OH234867   2.466   6.051   6.119 -0.5387  0.7324  0.0447
 4411TIP3    H134868   2.402   6.108   6.161  0.0208  0.5117  1.2442
 4411TIP3    H234869   2.518   6.110   6.064 -2.1500  0.8097 -1.4590
 4412TIP3   OH234870   4.882   2.989   0.214  0.7663 -1.1588 -0.3730
 4412TIP3    H134871   4.968   2.947   0.222  0.8155 -0.7115  2.0307
 4412TIP3    H234872   4.821   2.924   0.249  0.3926 -0.6899 -0.1399
 4413TIP3   OH234873   2.536   0.345   7.873  0.1075  0.2129  0.0788
 4413TIP3    H134874   2.476   0.281   7.912  0.7450  0.3284  1.3006
 4413TIP3    H234875   2.575   0.389   7.948  0.3282  1.4388 -0.7358
 4414TIP3   OH234876   0.479   6.306   6.259 -0.0178  0.0917 -0.1914
 4414TIP3    H134877   0.553   6.250   6.283  0.9796  1.0494 -0.9247
 4414TIP3    H234878   0.467   6.291   6.165  0.2290  1.0449 -0.3865
 4415TIP3   OH234879   5.077   1.325   6.509 -0.6301  0.2890 -0.1432
 4415TIP3    H134880   4.994   1.322   6.556 -0.4794 -1.7796  0.0819
 4415TIP3    H234881   5.074   1.250   6.449  1.6852 -0.8269  1.0165
 4416TIP3   OH234882   3.207   0.362   6.371 -0.1842  0.2258 -0.0420
 4416TIP3    H134883   3.195   0.313   6.290 -2.5798  2.0334 -0.8781
 4416TIP3    H234884   3.122   0.357   6.415  0.7270  0.2733  1.8230
 4417TIP3   OH234885   6.855   3.524   6.987 -0.1785 -0.2217 -0.4335
 4417TIP3    H134886   6.904   3.449   7.022 -0.7065 -0.8794 -1.0832
 4417TIP3    H234887   6.920   3.573   6.936  0.2170 -0.1203  0.1618
 4418TIP3   OH234888   6.871   3.631   0.052  0.3300 -0.8513  0.1663
 4418TIP3    H134889   6.869   3.561   0.116  1.7436  0.6491  1.9748
 4418TIP3    H234890   6.822   3.702   0.092 -0.6128 -0.5659 -1.3863
 4419TIP3   OH234891   5.076   0.929   1.766  0.0645 -0.4984 -0.2601
 4419TIP3    H134892   5.046   0.908   1.855  0.5882 -0.1159  0.0106
 4419TIP3    H234893   5.015   0.996   1.735  1.7550  1.7967  1.0583
 4420TIP3   OH234894   6.290   5.866   0.747 -1.0237  0.1780 -0.3636
 4420TIP3    H134895   6.319   5.817   0.823 -0.2235  0.7359 -0.2973
 4420TIP3    H234896   6.251   5.800   0.689 -1.3204 -0.2967  0.3681
 4421TIP3   OH234897   4.302   3.180   7.634  0.0546  0.4895 -0.4757
 4421TIP3    H134898   4.378   3.138   7.673  0.1670  0.4586 -0.7281
 4421TIP3    H234899   4.255   3.109   7.590 -1.3276  0.0659  1.5490
 4422TIP3   OH234900   3.819   1.664   7.987  0.3456 -0.2731 -0.3738
 4422TIP3    H134901   3.725   1.650   7.999  0.3108  0.5920  0.4772
 4422TIP3    H234902   3.841   1.734   8.049  0.9490  1.7197 -2.6660
 4423TIP3   OH234903   6.759   1.337   7.674 -0.2752 -0.1525  0.1565
 4423TIP3    H134904   6.790   1.422   7.642  1.0583 -1.6872 -3.1765
 4423TIP3    H234905   6.829   1.306   7.731 -0.9713  1.1012  1.7494
 4424TIP3   OH234906   3.795   0.333   6.106  0.4196 -0.0273 -0.0366
 4424TIP3    H134907   3.742   0.404   6.070 -0.2450 -0.4652  0.0645
 4424TIP3    H234908   3.754   0.312   6.190  0.3682 -0.7980 -0.2502
 4425TIP3   OH234909   0.963   6.808   1.284  0.0086  0.5050  0.2754
 4425TIP3    H134910   0.938   6.776   1.371  0.9078 -0.1446  0.3092
 4425TIP3    H234911   0.886   6.791   1.229 -0.1877 -0.0493  0.7106
 4426TIP3   OH234912   6.971   4.862   6.870  0.7591  0.3887 -0.5224
 4426TIP3    H134913   6.977   4.943   6.922 -0.0713 -0.5293  1.0752
 4426TIP3    H234914   7.045   4.867   6.810  1.7573  1.5170  0.7380
 4427TIP3   OH234915   2.034   3.757   7.658 -0.6061  0.0825  0.1380
 4427TIP3    H134916   1.946   3.780   7.628 -1.5114 -1.5958  1.2996
 4427TIP3    H234917   2.021   3.729   7.749  1.5355  2.1498  1.1932
 4428TIP3   OH234918   0.369   6.239   7.902 -0.4226 -0.4606 -0.2868
 4428TIP3    H134919   0.408   6.322   7.873  1.3555 -0.9966  0.3997
 4428TIP3    H234920   0.280   6.262   7.927  0.0361  1.2687 -0.0875
 4429TIP3   OH234921   6.142   3.453   6.865  0.2896  0.1534  0.4181
 4429TIP3    H134922   6.218   3.507   6.843 -0.2563  0.6841 -0.1788
 4429TIP3    H234923   6.180   3.374   6.904  1.1770  0.1627 -0.3943
 4430TIP3   OH234924   2.991   4.783   0.563 -0.2982 -0.3792 -0.1474
 4430TIP3    H134925   2.958   4.789   0.653  1.1052 -1.6868  0.5078
 4430TIP3    H234926   3.007   4.874   0.538  0.9362 -0.0345  1.6300
 4431TIP3   OH234927   3.639   1.602   0.890 -0.2161  0.5071 -0.4280
 4431TIP3    H134928   3.622   1.548   0.967 -0.3109  1.5584  0.2994
 4431TIP3    H234929   3.695   1.547   0.834  0.2682 -0.0792  0.6122
 4432TIP3   OH234930   3.487   7.220   7.530  0.0316 -0.0959 -0.2409
 4432TIP3    H134931   3.557   7.176   7.578 -0.1238  0.1256  0.2006
 4432TIP3    H234932   3.492   7.185   7.441  0.7631 -0.0064 -0.2385
 4433TIP3   OH234933   6.855   5.774   1.176  0.4086 -0.4896  0.0371
 4433TIP3    H134934   6.924   5.711   1.157  2.0512  0.3160  2.6679
 4433TIP3    H234935   6.836   5.761   1.269  0.3405  2.3512  0.5206
 4434TIP3   OH234936   1.560   2.157   1.385  0.1778  0.4997  0.7184
 4434TIP3    H134937   1.575   2.168   1.291  1.1077 -1.0155  0.6508
 4434TIP3    H234938   1.634   2.200   1.427  1.3305 -1.3098  0.6222
 4435TIP3   OH234939   0.155   3.818   6.287  0.5291  0.5673  0.6932
 4435TIP3    H134940   0.185   3.788   6.373 -0.2581 -0.0584  0.7611
 4435TIP3    H234941   0.089   3.885   6.306  1.3924  1.4796  0.5500
 4436TIP3   OH234942   7.198   0.834   0.474 -0.5710 -0.2851 -0.5185
 4436TIP3    H134943   7.136   0.786   0.419 -0.1591 -1.9194  0.3840
 4436TIP3    H234944   7.281   0.829   0.426 -0.6868  0.1940 -0.7777
 4437TIP3   OH234945   6.528   7.203   6.565  0.1844  0.4945  0.1806
 4437TIP3    H134946   6.554   7.257   6.640  0.4197  0.8812 -0.1748
 4437TIP3    H234947   6.549   7.114   6.591  0.1300  0.6129  0.6339
 4438TIP3   OH234948   6.490   0.795   0.520 -0.2123  0.2330 -0.1713
 4438TIP3    H134949   6.425   0.818   0.586  0.1807  0.3325  0.1884
 4438TIP3    H234950   6.512   0.704   0.539 -2.7569 -0.9712 -2.4294
 4439TIP3   OH234951   3.976   3.637   6.531  0.1251  0.3437  0.2042
 4439TIP3    H134952   4.007   3.613   6.444  1.6671  3.4744 -0.2357
 4439TIP3    H234953   3.896   3.687   6.515 -0.1036  0.1385  0.6747
 4440TIP3   OH234954   2.964   3.126   6.324 -0.6194 -0.2338  0.5480
 4440TIP3    H134955   2.887   3.075   6.298 -1.1218  0.6249  0.3481
 4440TIP3    H234956   2.932   3.186   6.392 -0.5164  1.2753 -0.6970
 4441TIP3   OH234957   4.470   5.764   7.392  0.2799  0.0613  0.5400
 4441TIP3    H134958   4.551   5.743   7.439 -0.0623  2.0222  2.1628
 4441TIP3    H234959   4.448   5.853   7.420 -0.8277  0.7826 -2.1968
 4442TIP3   OH234960   5.058   5.003   6.871  0.4194  0.5464 -0.7142
 4442TIP3    H134961   5.000   5.074   6.845 -0.3228  0.1574 -0.1560
 4442TIP3    H234962   5.088   5.028   6.959 -1.8000 -0.9705  0.5626
 4443TIP3   OH234963   2.149   3.462   6.827  0.6228 -0.1935  0.3035
 4443TIP3    H134964   2.159   3.480   6.921  2.7912 -0.2684  0.1251
 4443TIP3    H234965   2.106   3.540   6.793  1.0822  0.4499  1.1460
 4444TIP3   OH234966   3.506   0.914   0.251  0.1319 -0.0237 -0.0874
 4444TIP3    H134967   3.590   0.910   0.207  0.4120 -1.8187  0.4982
 4444TIP3    H234968   3.468   0.827   0.237 -0.9591  0.2659  0.8929
 4445TIP3   OH234969   4.742   1.735   0.685 -0.8917  0.6223  0.5597
 4445TIP3    H134970   4.778   1.792   0.753 -0.3017  0.9415 -0.0102
 4445TIP3    H234971   4.815   1.679   0.660 -1.5545 -0.6724  1.3729
 4446TIP3   OH234972   3.378   2.257   7.610  0.3106 -0.6107 -0.1447
 4446TIP3    H134973   3.437   2.282   7.681 -0.3642 -1.0418  0.5804
 4446TIP3    H234974   3.393   2.163   7.598  2.3525 -0.1177 -2.4083
 4447TIP3   OH234975   0.099   2.768   1.787  0.1580  0.1597  0.6044
 4447TIP3    H134976   0.034   2.785   1.718  0.1975  0.1902  0.5745
 4447TIP3    H234977   0.070   2.819   1.862 -0.7331 -1.0600  1.1172
 4448TIP3   OH234978   0.085   5.401   7.518  0.4600  0.7663  0.3107
 4448TIP3    H134979   0.003   5.426   7.560 -0.4668 -1.6390  0.0704
 4448TIP3    H234980   0.125   5.339   7.579  0.9365  0.1092 -0.6617
 4449TIP3   OH234981   1.559   5.745   1.455 -0.6789  0.1567  0.1828
 4449TIP3    H134982   1.543   5.755   1.549 -0.8799  2.0835 -0.0041
 4449TIP3    H234983   1.559   5.835   1.421  0.7584 -0.3992 -1.4490
 4450TIP3   OH234984   4.147   6.750   7.034 -0.4774  0.3974 -0.4336
 4450TIP3    H134985   4.138   6.804   6.956 -0.2059 -2.1870 -2.3871
 4450TIP3    H234986   4.105   6.667   7.011  1.0746 -1.0462  1.5522
 4451TIP3   OH234987   4.460   5.460   0.630  0.2982 -0.6544 -0.1496
 4451TIP3    H134988   4.417   5.502   0.704 -0.0345  4.1288 -2.6755
 4451TIP3    H234989   4.546   5.434   0.663  0.3294  1.6758  1.8210
 4452TIP3   OH234990   0.315   6.857   1.288  0.1407  0.4709  0.1391
 4452TIP3    H134991   0.268   6.927   1.334 -0.1573 -1.0015  2.2246
 4452TIP3    H234992   0.376   6.903   1.231  1.9002  2.5600  3.3941
 4453TIP3   OH234993   7.216   1.749   0.355  0.1919 -0.3641  0.0473
 4453TIP3    H134994   7.171   1.730   0.272  1.4351  0.2427 -0.7940
 4453TIP3    H234995   7.278   1.676   0.366  0.9338  0.2144 -0.2346
 4454TIP3   OH234996   5.405   5.472   7.564  0.0402 -0.0063  0.0035
 4454TIP3    H134997   5.480   5.464   7.622  0.6720  1.1301 -0.6259
 4454TIP3    H234998   5.420   5.553   7.515  0.6971 -1.9795 -3.3883
 4455TIP3   OH234999   4.235   0.551   0.148  0.7551 -0.3561  0.1170
 4455TIP3    H135000   4.247   0.645   0.155  2.2638 -0.3456 -1.8800
 4455TIP3    H235001   4.313   0.519   0.103 -1.3847 -2.0032 -2.8272
 4456TIP3   OH235002   1.523   4.931   7.623 -0.0723 -0.1398 -0.3269
 4456TIP3    H135003   1.438   4.926   7.667 -0.5071 -0.8050 -1.2158
 4456TIP3    H235004   1.511   4.882   7.541  1.0073  0.2276 -0.7226
 4457TIP3   OH235005   3.563   4.544   6.471 -0.1403 -0.1264  0.4846
 4457TIP3    H135006   3.556   4.474   6.407 -0.7494  0.6245 -0.2983
 4457TIP3    H235007   3.596   4.502   6.550 -1.4201 -1.4629  0.3304
 4458TIP3   OH235008   3.739   6.034   6.852  0.3549  0.2673 -0.0037
 4458TIP3    H135009   3.660   6.084   6.875  0.3554 -0.4753  1.8037
 4458TIP3    H235010   3.809   6.077   6.901  0.8339  0.1376 -0.5780
 4459TIP3   OH235011   0.432   6.196   7.626 -0.4860  0.4571 -0.2324
 4459TIP3    H135012   0.462   6.137   7.696  0.7497  0.9645 -0.3073
 4459TIP3    H235013   0.462   6.154   7.545 -0.1899  0.8449 -0.3259
 4460TIP3   OH235014   1.021   2.177   6.613  0.2232 -0.4849 -0.0757
 4460TIP3    H135015   1.064   2.098   6.579 -0.3534 -1.1959  0.7733
 4460TIP3    H235016   1.022   2.239   6.540 -1.4770 -2.1238 -1.6081
 4461TIP3   OH235017   1.201   0.705   1.608  0.4592  0.4246  0.5611
 4461TIP3    H135018   1.284   0.657   1.613 -0.6059 -2.7708 -4.3831
 4461TIP3    H235019   1.137   0.645   1.644 -0.1379  1.3081  0.9910
 4462TIP3   OH235020   5.416   0.511   0.437  0.7004 -0.4241 -0.0911
 4462TIP3    H135021   5.474   0.588   0.436  0.4445 -0.2155  0.4116
 4462TIP3    H235022   5.349   0.531   0.371 -1.0949  1.1885  2.0384
 4463TIP3   OH235023   5.084   2.943   1.244  0.0301  0.3858  0.3793
 4463TIP3    H135024   5.109   2.902   1.327 -1.3275 -2.5894 -0.5517
 4463TIP3    H235025   5.132   2.894   1.177 -0.2558  1.5519 -0.7305
 4464TIP3   OH235026   0.887   1.090   2.135 -0.0138 -0.0040  0.0946
 4464TIP3    H135027   0.873   1.178   2.170  1.2739 -0.2622  1.3602
 4464TIP3    H235028   0.950   1.101   2.064 -0.5664  0.2005 -0.3676
 4465TIP3   OH235029   3.421   2.514   0.273 -0.1773  0.2852 -0.5447
 4465TIP3    H135030   3.467   2.445   0.321  0.9264  1.1133 -0.3565
 4465TIP3    H235031   3.335   2.477   0.254  0.3883 -1.1334 -0.4649
 4466TIP3   OH235032   2.292   3.293   6.672  0.0094  0.1893 -0.4793
 4466TIP3    H135033   2.242   3.349   6.732  0.7112 -0.2775  0.5685
 4466TIP3    H235034   2.383   3.322   6.682  0.2949 -0.6984 -0.4050
 4467TIP3   OH235035   6.216   3.055   1.730  0.2641 -0.1967 -0.6510
 4467TIP3    H135036   6.151   2.996   1.690 -2.9710  2.5405  0.0792
 4467TIP3    H235037   6.179   3.077   1.815  1.5526  2.4275 -0.6772
 4468TIP3   OH235038   0.494   0.589   1.598 -0.3431 -0.1467  0.4462
 4468TIP3    H135039   0.427   0.579   1.530  0.6912  3.8825 -1.5266
 4468TIP3    H235040   0.553   0.515   1.585 -1.6786 -0.9934 -1.2265
 4469TIP3   OH235041   4.834   0.424   6.115 -0.2356  0.3106  0.5719
 4469TIP3    H135042   4.739   0.427   6.123 -0.3294  2.3850 -0.5966
 4469TIP3    H235043   4.857   0.503   6.066  2.0742 -0.2820  0.5550
 4470TIP3   OH235044   0.564   1.181   1.893  0.1873  0.0230 -0.6054
 4470TIP3    H135045   0.604   1.108   1.940 -3.2891 -1.6016  0.1744
 4470TIP3    H235046   0.593   1.259   1.941  0.2939 -1.2433  1.5282
 4471TIP3   OH235047   6.803   3.907   1.526  0.1649 -0.4219 -0.4999
 4471TIP3    H135048   6.856   3.965   1.580  0.8409 -1.2329 -0.2760
 4471TIP3    H235049   6.847   3.907   1.441 -1.7040  2.0204 -1.6044
 4472TIP3   OH235050   0.364   0.455   6.143  0.0755  0.4294  0.4015
 4472TIP3    H135051   0.303   0.529   6.144  0.5229  0.8240 -0.7833
 4472TIP3    H235052   0.449   0.493   6.166  0.7031  0.6910 -2.0982
 4473TIP3   OH235053   3.449   6.002   6.485  0.3669  0.4651 -0.1438
 4473TIP3    H135054   3.543   5.985   6.493  0.2407 -0.2301 -0.0228
 4473TIP3    H235055   3.425   5.965   6.400 -0.2385 -1.6462  0.8597
 4474TIP3   OH235056   2.403   7.100   6.545  0.5296 -0.1134  0.4645
 4474TIP3    H135057   2.309   7.083   6.544  0.7777 -1.6235 -0.0677
 4474TIP3    H235058   2.437   7.046   6.473  1.7435  0.7558  0.3680
 4475TIP3   OH235059   5.035   4.335   7.307  0.1945 -0.8273 -0.0235
 4475TIP3    H135060   4.988   4.332   7.390  1.2128 -0.3169  0.5825
 4475TIP3    H235061   4.973   4.377   7.247  0.0104  0.2141  0.8589
 4476TIP3   OH235062   2.240   4.506   1.178 -0.9159  0.0912 -0.7984
 4476TIP3    H135063   2.231   4.600   1.164  1.5869  0.3915 -0.7253
 4476TIP3    H235064   2.236   4.495   1.273  3.1060  0.7626 -0.4190
 4477TIP3   OH235065   0.988   0.201   7.282 -0.2570  0.2691  0.6006
 4477TIP3    H135066   0.907   0.252   7.274  0.2443  0.9904 -0.0787
 4477TIP3    H235067   1.002   0.165   7.194 -0.1688 -0.3676  0.8735
 4478TIP3   OH235068   5.236   7.110   0.347  0.4002 -0.6989 -0.1362
 4478TIP3    H135069   5.185   7.126   0.427 -1.4083 -1.1532 -1.1386
 4478TIP3    H235070   5.261   7.197   0.317  0.2536 -0.4614  0.4124
 4479TIP3   OH235071   3.404   3.133   7.431 -0.3817  0.1550  0.6677
 4479TIP3    H135072   3.434   3.085   7.354  2.2254 -0.4791  1.9556
 4479TIP3    H235073   3.360   3.210   7.396  0.5756 -0.1915 -1.4647
 4480TIP3   OH235074   6.091   6.115   7.921  0.2237  0.3473 -0.6775
 4480TIP3    H135075   6.117   6.023   7.924  2.3876  0.9167  2.8285
 4480TIP3    H235076   6.127   6.147   7.838  1.4766 -1.4205 -0.8785
 4481TIP3   OH235077   1.350   2.803   7.448  0.1823  0.2207 -0.1426
 4481TIP3    H135078   1.371   2.713   7.423  0.1434 -0.0708  0.8547
 4481TIP3    H235079   1.318   2.797   7.538  1.3425  1.3612  0.3893
 4482TIP3   OH235080   4.738   4.251   0.235  0.3738 -0.3298 -0.4521
 4482TIP3    H135081   4.716   4.163   0.203  1.6296 -0.2336 -1.6618
 4482TIP3    H235082   4.785   4.292   0.162  1.8475  0.5237  0.9251
 4483TIP3   OH235083   5.895   6.200   6.173  0.1386 -0.1524 -0.5714
 4483TIP3    H135084   5.913   6.187   6.079  1.0737  2.5785 -0.8718
 4483TIP3    H235085   5.971   6.163   6.217  1.1822  1.1789 -1.1488
 4484TIP3   OH235086   3.357   2.120   1.440 -0.5603 -0.2118  0.0895
 4484TIP3    H135087   3.336   2.151   1.352 -0.9403 -0.3951  0.1166
 4484TIP3    H235088   3.275   2.128   1.489 -1.5796 -4.0904 -0.6759
 4485TIP3   OH235089   2.001   2.985   1.276 -0.0478 -0.1794 -0.3688
 4485TIP3    H135090   2.024   3.047   1.207  1.0532  0.7165  0.7630
 4485TIP3    H235091   2.084   2.942   1.298 -0.2715 -0.0219  0.7995
 4486TIP3   OH235092   2.993   1.763   7.445 -0.3438  0.1867 -0.5001
 4486TIP3    H135093   2.944   1.797   7.370  0.4806  0.4479 -0.9378
 4486TIP3    H235094   2.951   1.803   7.521 -0.5597  0.7209 -0.8904
 4487TIP3   OH235095   1.107   2.162   0.771  0.0606  0.2152 -0.3581
 4487TIP3    H135096   1.050   2.090   0.800  0.1313  0.6138  0.8274
 4487TIP3    H235097   1.194   2.123   0.765 -0.2805 -0.3433 -1.9624
 4488TIP3   OH235098   4.612   6.443   0.352 -0.3074  0.3555 -0.0715
 4488TIP3    H135099   4.634   6.532   0.325  0.7492 -0.4489 -1.9843
 4488TIP3    H235100   4.653   6.387   0.287  1.8833 -1.7265  2.8603
 4489TIP3   OH235101   4.839   6.558   0.877  0.3775 -0.5592 -0.2542
 4489TIP3    H135102   4.905   6.611   0.922 -0.7845 -0.4787  1.4180
 4489TIP3    H235103   4.887   6.480   0.848  1.1960 -0.5441  1.0106
 4490TIP3   OH235104   5.764   1.795   6.315  0.0040  0.1944  0.2302
 4490TIP3    H135105   5.831   1.736   6.348 -0.0070  0.0779  0.0471
 4490TIP3    H235106   5.798   1.824   6.230  0.0049  0.4437  0.3147
 4491TIP3   OH235107   2.117   1.405   6.735 -0.4642  0.0842 -0.0961
 4491TIP3    H135108   2.114   1.341   6.665 -0.4773 -1.4998  1.2881
 4491TIP3    H235109   2.025   1.427   6.750 -0.4607  0.4329 -0.5599
 4492TIP3   OH235110   5.057   4.665   1.177 -0.5592  0.0925 -0.0585
 4492TIP3    H135111   5.065   4.672   1.273  1.8140  1.4099 -0.2762
 4492TIP3    H235112   4.992   4.732   1.154 -0.0558  0.7990  0.5225
 4493TIP3   OH235113   4.856   6.543   6.623 -0.1275  0.0876  0.3148
 4493TIP3    H135114   4.812   6.550   6.538 -0.5057 -0.0014  0.5017
 4493TIP3    H235115   4.787   6.563   6.687 -0.6867 -2.9410  0.7870
 4494TIP3   OH235116   6.412   0.999   6.744  0.2142  0.0165  0.4336
 4494TIP3    H135117   6.418   0.969   6.653  0.0935 -1.9844  1.0396
 4494TIP3    H235118   6.503   1.011   6.771  0.2447  0.7742  0.0079
 4495TIP3   OH235119   0.812   2.945   6.040  0.5599 -0.2746 -0.5817
 4495TIP3    H135120   0.725   2.946   6.079  0.2087 -1.3684 -1.2930
 4495TIP3    H235121   0.872   2.948   6.114 -0.0643  1.1022 -0.1069
 4496TIP3   OH235122   2.851   5.817   1.497  0.9092 -0.1222 -0.2089
 4496TIP3    H135123   2.940   5.839   1.523  0.5162 -0.4325  1.5131
 4496TIP3    H235124   2.846   5.842   1.405  1.9447  2.4149  0.3511
 4497TIP3   OH235125   6.765   5.639   0.266 -0.3101  0.2481  0.8226
 4497TIP3    H135126   6.705   5.707   0.236 -0.2464 -0.6249 -1.4980
 4497TIP3    H235127   6.708   5.564   0.285 -0.0903 -0.7813 -1.9485
 4498TIP3   OH235128   0.186   3.450   1.770 -0.2317 -0.1076 -0.1057
 4498TIP3    H135129   0.175   3.541   1.798 -1.9893  0.3416 -1.9852
 4498TIP3    H235130   0.098   3.412   1.775 -0.3505 -0.4808 -3.1131
 4499TIP3   OH235131   1.981   1.933   6.564  0.3599 -0.4081  0.1208
 4499TIP3    H135132   1.954   1.848   6.597 -0.0401  0.2113  1.4588
 4499TIP3    H235133   1.921   1.952   6.492  0.3936 -1.1995 -0.1199
 4500TIP3   OH235134   7.157   6.124   0.019 -0.3180 -0.8486  0.8990
 4500TIP3    H135135   7.180   6.116   0.111 -1.6525 -1.8194  1.1715
 4500TIP3    H235136   7.095   6.053   0.003  0.0653 -0.8457 -0.8065
 4501TIP3   OH235137   4.801   0.920   0.269 -0.6950  0.4760  0.2284
 4501TIP3    H135138   4.731   0.950   0.212 -0.8452 -0.4430 -0.0965
 4501TIP3    H235139   4.760   0.852   0.324 -0.6507  1.5851  1.7030
 4502TIP3   OH235140   3.796   3.031   6.203  0.2528 -1.0251  0.3054
 4502TIP3    H135141   3.861   3.056   6.137  0.1579 -1.4569  0.0445
 4502TIP3    H235142   3.830   2.950   6.241  2.0161  0.8257  3.1220
 4503TIP3   OH235143   0.130   3.273   6.847  0.1002 -0.3308  0.5181
 4503TIP3    H135144   0.091   3.359   6.857 -0.6353 -0.9161  4.1107
 4503TIP3    H235145   0.067   3.224   6.793 -0.5681  0.7363  0.3039
 4504TIP3   OH235146   6.927   2.070   7.286  0.1753  0.1761  0.1657
 4504TIP3    H135147   6.851   2.035   7.240  0.6337  0.3751 -0.7694
 4504TIP3    H235148   6.902   2.160   7.309  0.5996  0.7100 -1.3459
 4505TIP3   OH235149   3.331   2.096   0.399 -0.4158 -0.7859  0.2921
 4505TIP3    H135150   3.305   2.073   0.310  2.8985 -0.4162 -0.9186
 4505TIP3    H235151   3.389   2.025   0.426 -0.1916 -0.1503  1.5680
 4506TIP3   OH235152   5.278   0.127   2.214  0.4094  0.8163 -0.2213
 4506TIP3    H135153   5.304   0.180   2.139  2.1602  1.1381  0.5582
 4506TIP3    H235154   5.355   0.125   2.270  0.4475 -2.5068 -0.1476
 4507TIP3   OH235155   3.247   0.557   0.482  0.1628  0.3318 -0.0689
 4507TIP3    H135156   3.272   0.614   0.555  1.2701 -0.4274  0.1709
 4507TIP3    H235157   3.152   0.555   0.484  0.1645  0.9195  0.8992
 4508TIP3   OH235158   3.798   2.008   0.428 -0.4623  0.2531  0.5906
 4508TIP3    H135159   3.804   2.067   0.504 -0.1025  0.4799  0.3914
 4508TIP3    H235160   3.812   2.065   0.353  0.2303 -0.1330  0.4130
 4509TIP3   OH235161   6.996   3.007   1.339  0.0336 -0.6293  0.2404
 4509TIP3    H135162   7.023   2.943   1.404 -1.2884 -1.1527  0.2998
 4509TIP3    H235163   7.009   3.092   1.382 -1.0334 -0.9694  1.2939
 4510TIP3   OH235164   5.617   4.297   2.194  0.9239  0.2431  0.5361
 4510TIP3    H135165   5.604   4.207   2.226 -0.4280 -0.4002 -1.6252
 4510TIP3    H235166   5.692   4.292   2.135 -1.4455 -0.4481 -2.6766
 4511TIP3   OH235167   6.915   0.117   1.744  0.2753  0.4934 -0.0029
 4511TIP3    H135168   6.851   0.185   1.723  1.6052  1.2735 -1.7527
 4511TIP3    H235169   6.960   0.149   1.822 -0.6495  0.4666  0.5682
 4512TIP3   OH235170   4.376   0.898   1.892 -0.0367 -0.2532  0.0675
 4512TIP3    H135171   4.367   0.936   1.804 -1.7102 -0.7055  0.0177
 4512TIP3    H235172   4.336   0.812   1.885  1.1993 -0.9239  0.9023
 4513TIP3   OH235173   2.316   2.177   6.515 -0.1818  0.1633 -0.1845
 4513TIP3    H135174   2.281   2.127   6.589 -0.1906 -1.7098 -1.3938
 4513TIP3    H235175   2.242   2.185   6.454  0.2683  0.1777 -0.7369
 4514TIP3   OH235176   6.248   2.105   1.035  0.5092 -0.0334 -0.5451
 4514TIP3    H135177   6.330   2.124   0.989  0.9769  3.0399  1.3319
 4514TIP3    H235178   6.274   2.055   1.112  0.5152  0.2758 -0.3471
 4515TIP3   OH235179   5.706   1.794   6.712  0.2943 -0.1948 -0.3513
 4515TIP3    H135180   5.754   1.840   6.780 -0.7770  0.8740 -0.2891
 4515TIP3    H235181   5.683   1.710   6.752 -0.4372  0.4689  0.6753
 4516TIP3   OH235182   5.570   0.495   0.015  0.6293 -0.5155  0.1216
 4516TIP3    H135183   5.599   0.448  -0.063  0.7184 -0.7704  0.3085
 4516TIP3    H235184   5.535   0.427   0.072 -2.3790 -0.0472 -0.9669
 4517TIP3   OH235185   1.032   0.385   1.347  0.2650 -0.6364 -0.7771
 4517TIP3    H135186   0.937   0.395   1.339  0.2525  1.4835  1.1476
 4517TIP3    H235187   1.045   0.348   1.434  1.2253 -0.3871 -0.8069
 4518TIP3   OH235188   6.962   5.937   0.175  0.3970  0.0952  0.5647
 4518TIP3    H135189   6.982   5.845   0.156  0.6119 -0.2678  2.4274
 4518TIP3    H235190   6.977   5.947   0.269 -0.0231  1.9454  0.4811
 4519TIP3   OH235191   1.058   7.164   7.344 -0.1690  0.2321 -0.0593
 4519TIP3    H135192   0.976   7.115   7.350 -0.5870  1.0278  0.9251
 4519TIP3    H235193   1.031   7.256   7.340  0.7011  0.5676  1.2962
 4520TIP3   OH235194   1.008   3.107   7.868 -0.2578  0.7688 -0.1297
 4520TIP3    H135195   0.995   3.026   7.918 -1.2793 -0.1651 -1.8509
 4520TIP3    H235196   1.090   3.092   7.820  0.8113  1.7327  1.2856
 4521TIP3   OH235197   1.398   2.405   6.494  0.3291  0.4838 -1.1216
 4521TIP3    H135198   1.404   2.321   6.540  0.7234  0.3855 -1.3493
 4521TIP3    H235199   1.355   2.464   6.556 -2.5994 -0.6030 -1.9493
 4522TIP3   OH235200   5.574   5.219   1.154  0.3589  0.7018 -0.3448
 4522TIP3    H135201   5.565   5.125   1.169  0.2334  0.7087 -0.3820
 4522TIP3    H235202   5.495   5.258   1.190  0.0239  0.7125 -1.0810
 4523TIP3   OH235203   1.045   6.741   6.866  0.0961 -0.2638  0.3858
 4523TIP3    H135204   0.969   6.777   6.820  1.0540  1.1288 -0.1699
 4523TIP3    H235205   1.015   6.655   6.896 -1.5956  0.1120 -0.0698
 4524TIP3   OH235206   0.511   2.276   7.504  0.1550  0.2724  0.0679
 4524TIP3    H135207   0.481   2.353   7.551  0.6342 -0.3361  1.4114
 4524TIP3    H235208   0.431   2.239   7.465 -0.7320 -0.6227  2.5416
 4525TIP3   OH235209   3.002   3.538   0.178 -0.0698 -0.8595  0.0519
 4525TIP3    H135210   2.927   3.479   0.174  1.3332 -2.9372  1.9817
 4525TIP3    H235211   3.072   3.492   0.131  0.7128 -0.1706  0.5014
 4526TIP3   OH235212   7.061   0.785   6.933  0.1140  0.3581 -0.2869
 4526TIP3    H135213   7.117   0.727   6.880  0.6375  0.3638  0.2500
 4526TIP3    H235214   6.990   0.810   6.874  0.2812 -0.2443 -0.7538
 4527TIP3   OH235215   5.268   5.238   1.652  0.5059 -0.3408  0.3715
 4527TIP3    H135216   5.324   5.311   1.625  0.0325 -0.7092 -1.7994
 4527TIP3    H235217   5.207   5.276   1.715 -0.3601  1.4333 -1.4215
 4528TIP3   OH235218   5.877   4.501   1.381 -0.1680  0.7642 -0.1526
 4528TIP3    H135219   5.836   4.453   1.453  1.5347  1.1541  1.1270
 4528TIP3    H235220   5.934   4.437   1.339  1.0648  1.2668  0.7047
 4529TIP3   OH235221   4.906   3.808   0.616  0.0724  0.0828  0.4142
 4529TIP3    H135222   4.865   3.867   0.554  0.9710  0.5149  0.2051
 4529TIP3    H235223   4.841   3.796   0.685 -0.5315  0.4392 -0.0852
 4530TIP3   OH235224   1.902   6.823   0.312 -0.0240  0.2186  0.1961
 4530TIP3    H135225   1.840   6.761   0.275  0.5225 -0.0640 -0.2520
 4530TIP3    H235226   1.988   6.785   0.296  0.4121  1.7613 -1.3935
 4531TIP3   OH235227   4.533   5.363   7.568  0.0714 -0.0518 -0.1331
 4531TIP3    H135228   4.491   5.442   7.535 -0.2862  0.4512  1.4451
 4531TIP3    H235229   4.479   5.336   7.642  1.3925 -0.5435  0.6867
 4532TIP3   OH235230   3.266   2.320   1.205  0.1365  0.1954 -0.1880
 4532TIP3    H135231   3.347   2.370   1.204 -0.8550  1.8776 -1.1282
 4532TIP3    H235232   3.205   2.374   1.255 -0.4546 -0.9906  0.4231
 4533TIP3   OH235233   2.556   4.028   6.923  0.4362 -0.0855 -0.1371
 4533TIP3    H135234   2.574   3.958   6.986 -0.5895 -1.0356 -0.8873
 4533TIP3    H235235   2.464   4.051   6.937 -0.3119 -1.4525 -2.3601
 4534TIP3   OH235236   3.123   5.263   0.344  0.0417  0.0164  0.2410
 4534TIP3    H135237   3.078   5.301   0.419 -1.7025 -0.4734 -0.5064
 4534TIP3    H235238   3.071   5.289   0.268  0.3035 -1.6120 -0.5556
 4535TIP3   OH235239   1.292   0.296   1.556  0.6223 -0.3562 -0.3663
 4535TIP3    H135240   1.312   0.370   1.614 -0.3409  0.2664 -0.8037
 4535TIP3    H235241   1.196   0.295   1.550  0.5752 -2.0062  0.0831
 4536TIP3   OH235242   3.207   7.203   7.547 -0.8367 -0.1269  0.3917
 4536TIP3    H135243   3.197   7.109   7.531 -0.3997 -0.2789  0.9684
 4536TIP3    H235244   3.299   7.221   7.526 -0.4205 -0.2097  2.0490
 4537TIP3   OH235245   0.107   3.088   6.093  0.4176  0.3687  0.1645
 4537TIP3    H135246   0.023   3.048   6.120  0.8551 -0.6033  0.1421
 4537TIP3    H235247   0.152   3.105   6.176  1.4488 -1.9331  0.1707
 4538TIP3   OH235248   5.506   2.275   7.599  0.3189 -0.2135 -0.1218
 4538TIP3    H135249   5.531   2.347   7.657 -1.0497  1.7742 -1.8668
 4538TIP3    H235250   5.560   2.288   7.520 -0.8701 -0.2852 -0.9734
 4539TIP3   OH235251   3.661   0.196   0.377 -0.0755  0.5567  0.4941
 4539TIP3    H135252   3.739   0.246   0.352  0.2861  0.5929  1.6314
 4539TIP3    H235253   3.595   0.262   0.397 -0.2097  0.5344  0.1397
 4540TIP3   OH235254   4.062   5.947   6.859 -0.2429 -0.4190 -0.4122
 4540TIP3    H135255   4.074   5.926   6.952 -1.1289 -1.4217 -0.4982
 4540TIP3    H235256   4.004   6.023   6.859  0.9637  0.5299 -0.1351
 4541TIP3   OH235257   1.157   1.927   7.844  0.2730  0.2073 -0.3192
 4541TIP3    H135258   1.192   1.842   7.819 -0.8636 -0.4200  0.1582
 4541TIP3    H235259   1.230   1.988   7.833  0.4759 -0.4053 -2.9441
 4542TIP3   OH235260   4.333   2.158   7.612 -0.1555 -0.1262  0.1098
 4542TIP3    H135261   4.382   2.240   7.622 -0.2797 -0.1510  0.9791
 4542TIP3    H235262   4.252   2.173   7.660 -0.9280 -0.1606 -1.1514
 4543TIP3   OH235263   6.627   2.492   0.200  0.1091 -1.0556  0.0566
 4543TIP3    H135264   6.606   2.417   0.144 -2.7825  0.0955 -0.5846
 4543TIP3    H235265   6.623   2.568   0.142  1.3750 -0.2013  1.0128
 4544TIP3   OH235266   6.891   2.639   1.700 -0.3347 -0.0752 -0.1906
 4544TIP3    H135267   6.864   2.558   1.742 -0.0095 -0.5409 -0.8634
 4544TIP3    H235268   6.978   2.658   1.736  0.0064 -0.5515 -0.7514
 4545TIP3   OH235269   6.803   6.686   6.822  0.0381  0.0967  0.2752
 4545TIP3    H135270   6.723   6.638   6.843 -0.6193  1.1994  0.4016
 4545TIP3    H235271   6.847   6.696   6.906 -0.1236  0.2314  0.3448
 4546TIP3   OH235272   1.016   6.092   0.544  0.1399 -0.4009 -0.2784
 4546TIP3    H135273   1.073   6.162   0.577  0.2484 -0.6395  0.0462
 4546TIP3    H235274   1.075   6.020   0.523  0.2724  0.3216 -2.6127
 4547TIP3   OH235275   0.581   6.277   7.020  0.0587  0.3828  0.5237
 4547TIP3    H135276   0.599   6.187   7.048 -1.5659  0.1576  0.9383
 4547TIP3    H235277   0.486   6.285   7.025  0.0402  1.6275 -1.0611
 4548TIP3   OH235278   1.739   3.385   0.259  0.1912  0.4768 -0.5327
 4548TIP3    H135279   1.645   3.369   0.261 -0.2584  1.8443 -3.9909
 4548TIP3    H235280   1.755   3.443   0.333 -1.3382 -0.9633  1.0187
 4549TIP3   OH235281   1.846   0.788   7.861 -0.2714 -0.1170 -0.5208
 4549TIP3    H135282   1.788   0.844   7.914 -0.0244 -0.2096 -0.1496
 4549TIP3    H235283   1.826   0.812   7.771 -0.6482  0.0961 -0.3846
 4550TIP3   OH235284   3.580   0.339   6.601  0.0512  0.5122 -0.4914
 4550TIP3    H135285   3.486   0.345   6.614 -0.0040  0.3866 -0.8372
 4550TIP3    H235286   3.591   0.320   6.508  0.4417  1.3145 -0.6171
 4551TIP3   OH235287   1.683   5.736   7.622  0.2809  0.1381 -0.2293
 4551TIP3    H135288   1.660   5.730   7.529  1.4141 -0.4450 -0.4863
 4551TIP3    H235289   1.694   5.829   7.638 -2.0110  0.4595 -0.1293
 4552TIP3   OH235290   5.134   4.347   1.960  0.3168 -0.0897 -0.1898
 4552TIP3    H135291   5.224   4.374   1.979  0.5880 -1.2111  0.2201
 4552TIP3    H235292   5.086   4.371   2.039  0.5642 -0.8021  0.1887
 4553TIP3   OH235293   4.736   2.177   7.772  0.0860 -0.2607 -0.2921
 4553TIP3    H135294   4.751   2.189   7.865  1.2443  1.3802 -0.6560
 4553TIP3    H235295   4.792   2.103   7.748  0.4871 -0.0922  0.1270
 4554TIP3   OH235296   1.286   0.648   0.107 -0.9170 -0.2890 -0.1978
 4554TIP3    H135297   1.318   0.674   0.194 -2.1898  0.0898  0.1773
 4554TIP3    H235298   1.315   0.557   0.097  3.2281  0.9211 -1.3318
 4555TIP3   OH235299   3.096   0.985   1.049  0.3433  0.0602  0.2736
 4555TIP3    H135300   3.001   0.971   1.044  0.5732 -2.0976  0.8422
 4555TIP3    H235301   3.114   1.001   1.141  0.4329  1.7535 -0.0012
 4556TIP3   OH235302   1.878   3.190   0.166 -0.3489  1.0946  0.5004
 4556TIP3    H135303   1.833   3.120   0.117  1.1671 -0.1127  0.7256
 4556TIP3    H235304   1.808   3.238   0.209 -1.4303 -0.9869  1.2439
 4557TIP3   OH235305   4.360   7.202   2.147  0.1185 -0.0254  0.1879
 4557TIP3    H135306   4.366   7.284   2.196  1.7341  0.9839 -1.5752
 4557TIP3    H235307   4.430   7.147   2.183 -0.9138 -0.6410  1.3153
 4558TIP3   OH235308   0.751   2.940   0.950 -0.4278 -0.5967  0.3444
 4558TIP3    H135309   0.813   2.971   1.017 -0.6633  1.3457 -0.2713
 4558TIP3    H235310   0.804   2.884   0.893  0.6528  0.4729  0.2246
 4559TIP3   OH235311   4.874   3.857   1.574 -0.2014 -0.0130 -0.3150
 4559TIP3    H135312   4.962   3.821   1.588 -0.1698  0.6889  1.6747
 4559TIP3    H235313   4.815   3.785   1.595 -0.1704 -0.9587 -3.1063
 4560TIP3   OH235314   1.213   2.933   7.218 -0.3116 -0.4343 -0.1295
 4560TIP3    H135315   1.247   2.854   7.260  1.1048 -0.5961 -1.4788
 4560TIP3    H235316   1.123   2.939   7.248 -0.3587 -2.3775  0.2669
 4561TIP3   OH235317   1.307   2.629   1.738 -0.4710 -0.0840  0.6393
 4561TIP3    H135318   1.380   2.651   1.680  0.6218  0.0413  2.0281
 4561TIP3    H235319   1.327   2.673   1.820 -2.1295 -0.0386  1.0479
 4562TIP3   OH235320   5.985   3.241   7.184 -0.4296 -0.0217 -0.0775
 4562TIP3    H135321   5.905   3.291   7.201  1.5777  4.0349 -1.1998
 4562TIP3    H235322   6.055   3.295   7.222  1.9467 -2.6584 -0.3951
 4563TIP3   OH235323   1.145   7.024   0.628  0.1376 -0.4314 -0.0345
 4563TIP3    H135324   1.115   6.952   0.572  0.2473 -1.0646  0.6969
 4563TIP3    H235325   1.238   7.006   0.642  0.2896  0.1479 -0.2691
 4564TIP3   OH235326   2.811   6.887   0.013 -0.3709  0.1543 -0.0462
 4564TIP3    H135327   2.825   6.895  -0.081 -0.5567 -1.0263 -0.1844
 4564TIP3    H235328   2.809   6.793   0.030  2.5810  0.2865  1.5853
 4565TIP3   OH235329   1.571   6.810   7.656  0.8520  0.1580  0.1164
 4565TIP3    H135330   1.657   6.811   7.614 -0.0013 -2.1305 -1.9282
 4565TIP3    H235331   1.512   6.848   7.590  0.0071 -0.1436  0.6884
 4566TIP3   OH235332   7.195   6.334   7.708 -0.2877 -0.6232  0.4607
 4566TIP3    H135333   7.179   6.242   7.690 -0.5241 -0.6936  1.0159
 4566TIP3    H235334   7.275   6.355   7.660 -1.5812 -0.4620 -1.7504
 4567TIP3   OH235335   5.111   0.399   5.877  0.5899 -0.1747  0.1355
 4567TIP3    H135336   5.144   0.322   5.830 -1.8185 -0.5322 -1.1140
 4567TIP3    H235337   5.031   0.423   5.831  1.4278  3.3443  0.2892
 4568TIP3   OH235338   3.042   0.002   0.366 -0.1919  0.2598  0.0561
 4568TIP3    H135339   3.077   0.088   0.342 -0.9332  0.6494  0.3561
 4568TIP3    H235340   2.948   0.009   0.353 -0.0680 -1.2350 -2.1246
 4569TIP3   OH235341   2.170   3.835   6.491  0.0477  0.2012  0.2922
 4569TIP3    H135342   2.118   3.915   6.502  1.7221  1.3260  0.3774
 4569TIP3    H235343   2.145   3.803   6.404 -1.5042  0.1290  0.7289
 4570TIP3   OH235344   4.753   2.216   1.127 -0.1940 -0.1181 -0.1775
 4570TIP3    H135345   4.744   2.167   1.046 -0.2791 -0.5061  0.0644
 4570TIP3    H235346   4.846   2.237   1.133 -0.5727  2.6362 -1.9523
 4571TIP3   OH235347   0.091   6.989   1.461  0.0948  0.0352  0.3190
 4571TIP3    H135348   0.052   7.063   1.415  3.3496  0.2067 -2.5575
 4571TIP3    H235349   0.030   6.917   1.447 -1.6396  1.4032  0.5278
 4572TIP3   OH235350   4.643   5.845   1.241  0.2858  0.7550  0.3545
 4572TIP3    H135351   4.583   5.801   1.181  1.8378  0.6718 -1.2142
 4572TIP3    H235352   4.721   5.864   1.188  2.5979 -1.1369  2.7659
 4573TIP3   OH235353   1.273   3.060   6.136 -0.1620 -0.0696  0.2274
 4573TIP3    H135354   1.183   3.038   6.161 -0.8893  0.5437 -1.6372
 4573TIP3    H235355   1.275   3.155   6.134  0.3455 -0.0848 -0.2910
 4574TIP3   OH235356   0.125   4.723   6.319 -0.1027  0.5162  0.3924
 4574TIP3    H135357   0.103   4.669   6.395  1.7053 -1.0531 -0.1040
 4574TIP3    H235358   0.185   4.789   6.353  0.5376 -0.0557  0.4009
 4575TIP3   OH235359   0.883   5.585   7.313  0.6288 -0.1453 -0.0105
 4575TIP3    H135360   0.801   5.632   7.300 -0.1686 -1.5145 -0.2150
 4575TIP3    H235361   0.952   5.649   7.296 -0.3761  1.3592  1.3441
 4576TIP3   OH235362   6.630   1.239   0.990 -0.4386  0.0814  0.0216
 4576TIP3    H135363   6.628   1.318   1.044 -2.1445 -0.0952  0.2634
 4576TIP3    H235364   6.583   1.173   1.041 -0.9440 -0.4648 -1.1051
 4577TIP3   OH235365   1.805   1.466   0.652  0.2608  0.1336  0.1442
 4577TIP3    H135366   1.799   1.557   0.677  0.2699  0.0982  0.2730
 4577TIP3    H235367   1.878   1.464   0.589 -1.0351  0.5541 -1.4266
 4578TIP3   OH235368   5.316   0.622   1.153  0.2873  0.0265 -0.3517
 4578TIP3    H135369   5.313   0.554   1.086 -1.2420 -0.0161 -0.2683
 4578TIP3    H235370   5.225   0.631   1.183  0.4199  2.1524 -0.4158
 4579TIP3   OH235371   2.860   5.990   0.536 -0.0062  0.4517  0.2918
 4579TIP3    H135372   2.815   6.074   0.524  1.1661  1.4517  2.3735
 4579TIP3    H235373   2.796   5.935   0.582 -0.4236  0.5108 -0.1998
 4580TIP3   OH235374   6.294   2.961   6.204  0.0641 -0.0519  0.1102
 4580TIP3    H135375   6.264   2.966   6.294 -0.9446  1.6655 -0.2794
 4580TIP3    H235376   6.213   2.955   6.152  0.5697  0.2692 -0.7395
 4581TIP3   OH235377   2.267   2.161   7.759 -0.0191  0.0937 -0.1601
 4581TIP3    H135378   2.334   2.141   7.693 -0.1253 -1.5698  0.1921
 4581TIP3    H235379   2.316   2.205   7.829  0.3781  0.4746 -0.6668
 4582TIP3   OH235380   4.102   4.931   0.498  0.3249  0.3656  0.3993
 4582TIP3    H135381   4.048   4.898   0.427 -1.2783 -0.1778  1.8141
 4582TIP3    H235382   4.192   4.925   0.465 -0.3535 -0.1072 -1.4539
 4583TIP3   OH235383   4.970   3.996   7.806 -0.4171 -0.5542  0.0661
 4583TIP3    H135384   4.990   3.974   7.715 -0.0176 -0.4945  0.1363
 4583TIP3    H235385   5.037   3.951   7.857 -0.7364 -0.7203  0.3452
 4584TIP3   OH235386   4.065   6.305   6.714  0.0032 -0.7388  1.0969
 4584TIP3    H135387   4.078   6.245   6.640 -0.3970 -1.1868  1.3856
 4584TIP3    H235388   4.083   6.252   6.791  0.7087 -0.1867  1.3133
 4585TIP3   OH235389   6.673   0.087   0.100  0.3988 -0.6085 -0.4157
 4585TIP3    H135390   6.665  -0.008   0.097 -0.9250 -0.5544  0.5166
 4585TIP3    H235391   6.622   0.118   0.025  0.4991 -0.6302 -0.4918
 4586TIP3   OH235392   6.622   5.781   0.047  0.1445  0.4610  0.1277
 4586TIP3    H135393   6.688   5.843   0.016 -0.2702 -0.6192 -3.3114
 4586TIP3    H235394   6.575   5.754  -0.032 -0.7460 -3.0267  1.6541
 4587TIP3   OH235395   6.199   4.775   0.646  0.1338  0.7174  0.3273
 4587TIP3    H135396   6.110   4.757   0.674 -0.6979 -1.1494 -3.0292
 4587TIP3    H235397   6.193   4.860   0.601  0.0074  0.5556  0.0341
 4588TIP3   OH235398   1.912   3.844   7.236  0.5844 -0.0144  0.0912
 4588TIP3    H135399   1.968   3.833   7.159  1.5000  1.6955  0.4568
 4588TIP3    H235400   1.911   3.758   7.278  2.2436 -0.3169 -0.4180
 4589TIP3   OH235401   5.791   4.352   1.598 -0.0159  0.3364  0.2233
 4589TIP3    H135402   5.852   4.306   1.656 -0.7001 -0.7117  0.1254
 4589TIP3    H235403   5.730   4.396   1.657 -0.1726  0.0075  0.3061
 4590TIP3   OH235404   5.883   0.163   6.271 -0.8690 -0.0991 -0.2584
 4590TIP3    H135405   5.871   0.172   6.177 -0.4127  0.4127 -0.2727
 4590TIP3    H235406   5.794   0.154   6.306 -1.0053 -0.9891 -0.7962
 4591TIP3   OH235407   1.073   2.969   1.797  0.2863  0.2643  0.2063
 4591TIP3    H135408   0.996   2.987   1.851 -0.4957 -1.9326 -0.0930
 4591TIP3    H235409   1.131   2.919   1.855 -0.3509 -1.6881 -0.7487
 4592TIP3   OH235410   2.027   1.863   1.416 -0.2130  0.3674  0.7445
 4592TIP3    H135411   2.089   1.827   1.352 -2.3399 -3.0138  0.3489
 4592TIP3    H235412   2.083   1.907   1.481  2.3038  0.3184 -1.2146
 4593TIP3   OH235413   0.695   2.702   7.316 -0.0193  0.6431 -0.0595
 4593TIP3    H135414   0.620   2.674   7.367  0.0767 -1.5504 -1.0306
 4593TIP3    H235415   0.764   2.716   7.380 -0.9218  1.6117  0.7316
 4594TIP3   OH235416   3.368   3.027   2.128 -0.4823 -0.0835 -0.7994
 4594TIP3    H135417   3.393   2.957   2.069  0.7867 -0.4264  0.1009
 4594TIP3    H235418   3.424   3.101   2.104 -0.3349 -0.0538 -0.3751
 4595TIP3   OH235419   3.147   3.240   0.844  0.2507  0.3682 -0.0798
 4595TIP3    H135420   3.080   3.172   0.845  1.1363 -0.5262 -0.6056
 4595TIP3    H235421   3.113   3.306   0.784  0.4906 -0.7686 -1.5056
 4596TIP3   OH235422   4.584   5.098   6.720  0.3599  0.0781 -0.5471
 4596TIP3    H135423   4.552   5.086   6.810  0.7360  0.3477 -0.3781
 4596TIP3    H235424   4.664   5.046   6.716  0.1942 -0.1569 -0.8106
 4597TIP3   OH235425   1.625   6.923   0.987  0.4490  0.3925  0.3534
 4597TIP3    H135426   1.540   6.879   0.988 -0.8047  2.5947 -0.8357
 4597TIP3    H235427   1.684   6.861   0.944 -0.7660 -0.8189  0.3708
 4598TIP3   OH235428   4.821   3.455   5.757  0.1679 -0.4690 -0.0419
 4598TIP3    H135429   4.755   3.442   5.688 -2.0531  1.6016  1.5009
 4598TIP3    H235430   4.818   3.374   5.809 -1.2208 -0.4099  0.0069
 4599TIP3   OH235431   0.083   5.451   1.055  0.3343  0.5496  0.1418
 4599TIP3    H135432   0.176   5.453   1.080  0.8345 -1.1655 -1.3713
 4599TIP3    H235433   0.062   5.358   1.049 -1.8194  0.8847  1.4386
 4600TIP3   OH235434   0.989   2.857   6.634  0.1442  0.8699 -0.0205
 4600TIP3    H135435   0.928   2.789   6.662 -1.0295  1.8098 -0.2134
 4600TIP3    H235436   1.051   2.812   6.576 -1.1459  0.1332 -0.8630
 4601TIP3   OH235437   6.968   3.783   5.900  0.1771 -0.2212 -0.1765
 4601TIP3    H135438   7.008   3.747   5.821 -0.9837 -0.1291 -0.8398
 4601TIP3    H235439   6.884   3.818   5.870 -0.3934 -0.3980  1.1411
 4602TIP3   OH235440   3.672   1.480   6.440 -0.2816  0.4059  0.0383
 4602TIP3    H135441   3.612   1.524   6.380 -1.1158  0.5228  0.9245
 4602TIP3    H235442   3.693   1.547   6.505  0.8747  0.3823 -0.2893
 4603TIP3   OH235443   6.444   3.520   1.883 -0.0309 -0.3189  0.1886
 4603TIP3    H135444   6.432   3.429   1.906  0.8891 -0.7565 -0.9093
 4603TIP3    H235445   6.532   3.542   1.916 -1.4195  1.1605  3.2686
 4604TIP3   OH235446   5.905   0.302   6.540 -0.0714  0.0124 -0.3729
 4604TIP3    H135447   5.851   0.228   6.569  1.6001 -1.0466  0.1223
 4604TIP3    H235448   5.942   0.274   6.457  1.1059  0.0151  0.1437
 4605TIP3   OH235449   1.409   3.018   6.644 -0.1360  0.0995 -0.4381
 4605TIP3    H135450   1.501   3.022   6.670 -0.0752  0.3090 -0.6751
 4605TIP3    H235451   1.365   2.974   6.716 -0.0344  0.9719  0.1641
 4606TIP3   OH235452   7.133   1.405   7.004 -0.5619 -0.2162 -0.4032
 4606TIP3    H135453   7.056   1.381   7.056  0.4827 -1.0853  0.8365
 4606TIP3    H235454   7.133   1.343   6.931  2.5994 -5.3433  3.2029
 4607TIP3   OH235455   7.145   2.302   1.395 -0.0540 -0.6155 -0.3871
 4607TIP3    H135456   7.142   2.268   1.484 -1.5152  2.1795  0.7388
 4607TIP3    H235457   7.140   2.224   1.339  0.2656 -2.3928  1.9314
 4608TIP3   OH235458   5.274   3.498   1.570 -0.0115 -0.3164 -0.2965
 4608TIP3    H135459   5.297   3.572   1.626 -0.8244 -0.2738 -0.0062
 4608TIP3    H235460   5.308   3.421   1.616 -0.7793 -0.2949  0.3200
 4609TIP3   OH235461   2.216   1.677   6.600  0.0448 -0.1299 -0.0534
 4609TIP3    H135462   2.176   1.590   6.604 -0.0744 -0.0958 -0.4228
 4609TIP3    H235463   2.224   1.694   6.506 -0.4618  0.4979  0.0147
 4610TIP3   OH235464   5.497   3.705   1.397 -0.1480 -0.3266 -0.1177
 4610TIP3    H135465   5.414   3.673   1.431 -0.5690  1.0500  0.1950
 4610TIP3    H235466   5.559   3.691   1.469 -0.6565  0.9118  0.5957
 4611TIP3   OH235467   6.857   5.864   1.737  0.4923  0.3075 -0.2969
 4611TIP3    H135468   6.868   5.783   1.786  1.0522  0.4482 -0.1855
 4611TIP3    H235469   6.813   5.837   1.656 -2.0730  0.3035  0.9994
 4612TIP3   OH235470   2.415   1.075   0.505 -0.2517  0.3222  0.0811
 4612TIP3    H135471   2.322   1.094   0.516 -0.6404 -2.0291  1.4998
 4612TIP3    H235472   2.447   1.058   0.593  1.9116  2.3493 -0.1923
 4613TIP3   OH235473   5.110   6.502   7.685 -0.5624 -0.2963 -0.1479
 4613TIP3    H135474   5.173   6.541   7.624 -0.4388 -0.3542 -0.0589
 4613TIP3    H235475   5.077   6.425   7.640 -0.9862  0.0443 -0.4219
 4614TIP3   OH235476   4.465   2.372   7.370  0.0435  0.3568 -0.7960
 4614TIP3    H135477   4.521   2.305   7.408 -1.5493  0.4396  1.9259
 4614TIP3    H235478   4.525   2.445   7.352  0.9764  0.3436  1.7627
 4615TIP3   OH235479   1.257   3.759   0.477 -0.3490  0.0773 -0.5702
 4615TIP3    H135480   1.217   3.785   0.560  0.1288 -0.0466 -0.2934
 4615TIP3    H235481   1.304   3.838   0.449 -0.8774  0.2583 -0.9508
 4616TIP3   OH235482   0.951   6.189   6.766  0.4223 -0.5055  0.2283
 4616TIP3    H135483   0.878   6.130   6.748  0.1832  0.1199 -0.9692
 4616TIP3    H235484   0.911   6.274   6.782  0.9018  0.1480 -1.7545
 4617TIP3   OH235485   1.843   0.435   1.503  0.1817  0.1429 -0.7576
 4617TIP3    H135486   1.855   0.398   1.416  0.8477  0.9717 -1.0332
 4617TIP3    H235487   1.910   0.391   1.557 -1.5353 -1.8853 -0.1341
 4618TIP3   OH235488   2.040   0.782   1.525 -0.7519 -0.0406 -0.0283
 4618TIP3    H135489   1.975   0.766   1.593 -0.4374  0.6026  0.4434
 4618TIP3    H235490   2.085   0.698   1.515 -1.9395 -0.6196 -0.6921
 4619TIP3   OH235491   6.838   0.101   1.377  0.3050  0.1305 -0.6574
 4619TIP3    H135492   6.923   0.113   1.419  0.4815  0.7993 -1.2010
 4619TIP3    H235493   6.782   0.168   1.415 -0.2551 -0.8820  0.3780
 4620TIP3   OH235494   4.834   3.810   6.628  0.1625  0.4911  0.6703
 4620TIP3    H135495   4.872   3.774   6.548  2.0672  1.5075  1.0499
 4620TIP3    H235496   4.767   3.746   6.654 -0.8921  0.4079 -1.9884
 4621TIP3   OH235497   0.117   5.840   7.541  0.2402  0.0103  0.5234
 4621TIP3    H135498   0.045   5.796   7.495  1.4261 -0.6355 -0.7570
 4621TIP3    H235499   0.143   5.911   7.483  0.7181  0.1682  0.9273
 4622TIP3   OH235500   2.526   2.957   1.545  0.0476 -0.4508 -0.2262
 4622TIP3    H135501   2.549   2.906   1.467  0.0477  0.3702 -0.7714
 4622TIP3    H235502   2.503   3.043   1.512 -0.4363 -0.2324  0.6437
 4623TIP3   OH235503   0.911   6.745   1.561  0.4120 -0.1024  0.1102
 4623TIP3    H135504   0.826   6.706   1.580  0.7240 -0.6256  0.4532
 4623TIP3    H235505   0.974   6.683   1.596  1.0657 -1.2114 -2.7629
 4624TIP3   OH235506   4.229   4.379   0.821  0.1453  0.1175  0.6225
 4624TIP3    H135507   4.299   4.432   0.783 -0.7825  0.5262 -0.5389
 4624TIP3    H235508   4.267   4.291   0.829  0.9698  0.4584  0.5491
 4625TIP3   OH235509   4.699   0.883   7.238  0.3874 -0.3283  0.0389
 4625TIP3    H135510   4.654   0.960   7.205 -0.1523 -0.6179  0.0879
 4625TIP3    H235511   4.737   0.842   7.160 -2.8383 -2.2986 -0.6980
 4626TIP3   OH235512   5.627   5.169   0.688 -0.1193 -0.4982  0.5845
 4626TIP3    H135513   5.646   5.116   0.766 -0.0116 -0.8076  0.3497
 4626TIP3    H235514   5.712   5.207   0.664 -0.3987  0.7254  1.4314
 4627TIP3   OH235515   5.539   3.263   1.741 -0.5559 -0.0515  0.0819
 4627TIP3    H135516   5.595   3.296   1.812 -0.5077 -0.5094  0.2604
 4627TIP3    H235517   5.483   3.198   1.783 -2.3576  1.5223  0.2671
 4628TIP3   OH235518   4.900   2.500   2.082 -0.4017  0.3493  0.0092
 4628TIP3    H135519   4.879   2.583   2.124  2.1898  0.9785  0.2403
 4628TIP3    H235520   4.954   2.453   2.146 -0.5225 -0.8439 -0.7165
 4629TIP3   OH235521   5.276   6.635   7.513  0.5001 -0.2020 -0.6808
 4629TIP3    H135522   5.279   6.646   7.418  0.1935  0.0846 -0.6595
 4629TIP3    H235523   5.249   6.721   7.546  1.1474 -0.1416 -0.2943
 4630TIP3   OH235524   6.784   7.066   1.434 -0.8635  0.2549 -0.5943
 4630TIP3    H135525   6.810   7.058   1.526 -1.1338 -0.4315 -0.5687
 4630TIP3    H235526   6.807   7.156   1.410  0.9282 -0.1096 -0.3934
 4631TIP3   OH235527   5.969   3.589   7.114  0.1857  0.1048 -0.4542
 4631TIP3    H135528   5.945   3.496   7.112  0.9569 -0.0991 -0.3925
 4631TIP3    H235529   5.965   3.612   7.207  0.1905  0.0830 -0.4486
 4632TIP3   OH235530   1.749   3.304   6.312 -0.7214 -0.1529  0.7747
 4632TIP3    H135531   1.825   3.346   6.271 -1.4217  0.9673  0.5772
 4632TIP3    H235532   1.682   3.304   6.244 -0.5515 -2.2371  0.5558
 4633TIP3   OH235533   5.141   3.527   6.026 -0.2103  0.3558 -0.0284
 4633TIP3    H135534   5.125   3.579   5.948 -0.3385 -1.0779 -1.0080
 4633TIP3    H235535   5.221   3.478   6.006  0.3058  0.6983  1.1398
 4634TIP3   OH235536   5.066   4.575   1.624 -0.5781 -0.2396 -0.2310
 4634TIP3    H135537   5.007   4.587   1.698  0.0662  1.5265  0.0274
 4634TIP3    H235538   5.095   4.484   1.631 -1.0269 -0.2858  1.2930
 4635TIP3   OH235539   4.100   1.318   7.459 -0.2630  0.3252 -0.1808
 4635TIP3    H135540   4.133   1.345   7.373 -1.4818  1.6697 -0.2501
 4635TIP3    H235541   4.113   1.223   7.460  0.7295  0.4138 -1.4219
 4636TIP3   OH235542   0.017   0.477   6.554  0.7465 -0.1243  0.1323
 4636TIP3    H135543   0.006   0.457   6.461 -0.2497  0.2900  0.1476
 4636TIP3    H235544   0.012   0.392   6.597  2.0959 -0.4206 -0.2510
 4637TIP3   OH235545   5.533   3.466   6.247 -0.4507  0.0450 -0.0397
 4637TIP3    H135546   5.449   3.511   6.259 -1.2146 -1.3340 -0.0245
 4637TIP3    H235547   5.509   3.382   6.208  1.1178  0.4688 -2.0677
 4638TIP3   OH235548   2.474   0.607   1.665 -0.0074 -0.8044  0.0777
 4638TIP3    H135549   2.386   0.595   1.699  0.2749  1.8416  2.0582
 4638TIP3    H235550   2.525   0.536   1.705 -1.0356 -1.9468 -0.5492
 4639TIP3   OH235551   1.410   2.934   1.211 -0.4062 -0.1288 -0.4959
 4639TIP3    H135552   1.448   3.003   1.156 -2.2746  3.3695  2.2332
 4639TIP3    H235553   1.477   2.917   1.277 -0.4994  0.1267 -0.3355
 4640TIP3   OH235554   2.051   6.923   1.119 -0.0378  0.8948 -0.4964
 4640TIP3    H135555   2.076   6.977   1.044  0.1792  0.3101 -0.8494
 4640TIP3    H235556   1.960   6.900   1.102  0.2513  0.0780 -1.0104
 4641TIP3   OH235557   3.905   3.259   0.967 -0.0314  0.6360 -0.2823
 4641TIP3    H135558   3.830   3.291   0.917  0.7342  0.0838 -1.8360
 4641TIP3    H235559   3.935   3.181   0.919  1.4009  0.7146  0.4207
 4642TIP3   OH235560   2.096   1.223   7.968  0.4573 -0.7168 -0.5433
 4642TIP3    H135561   2.164   1.253   8.028 -0.1505 -0.6324  0.1194
 4642TIP3    H235562   2.075   1.135   7.999  0.9281 -1.1255 -1.3402
 4643TIP3   OH235563   6.154   4.014   7.938 -0.2776  0.0924 -0.4373
 4643TIP3    H135564   6.242   4.019   7.975  0.3379 -2.7795 -1.3389
 4643TIP3    H235565   6.167   4.011   7.844 -1.2178 -1.7140 -0.5426
 4644TIP3   OH235566   2.059   1.984   0.743 -0.1022 -0.3691  0.2422
 4644TIP3    H135567   2.034   2.064   0.788 -1.1706 -0.2136 -0.5898
 4644TIP3    H235568   2.081   2.012   0.654  0.2532 -0.9001  0.1581
 4645TIP3   OH235569   5.031   1.162   0.764 -0.5169 -0.0736  0.4501
 4645TIP3    H135570   4.960   1.126   0.710  1.2352 -0.2985 -1.8340
 4645TIP3    H235571   5.000   1.249   0.789 -1.7307 -0.2822 -0.2418
 4646TIP3   OH235572   2.296   4.121   7.950 -0.7569  0.6662 -0.3591
 4646TIP3    H135573   2.240   4.086   7.881 -0.9015  0.5654 -0.1943
 4646TIP3    H235574   2.285   4.216   7.945 -3.7832  0.6034  1.9249
 4647TIP3   OH235575   6.425   1.264   1.518 -0.0847  0.0431  0.1069
 4647TIP3    H135576   6.473   1.186   1.545 -1.0299 -0.8142 -0.5980
 4647TIP3    H235577   6.483   1.308   1.457 -0.0006 -0.7552 -0.4113
 4648TIP3   OH235578   4.159   2.479   6.694  0.0152  0.9023  0.1640
 4648TIP3    H135579   4.193   2.486   6.783  2.2262 -1.7671 -0.3123
 4648TIP3    H235580   4.072   2.440   6.703  0.3481  0.3609  1.1681
 4649TIP3   OH235581   4.717   2.065   0.896  0.1436  0.4019  0.5258
 4649TIP3    H135582   4.710   1.988   0.840 -0.3762  1.4462 -0.8974
 4649TIP3    H235583   4.632   2.071   0.939 -0.6470  1.4263 -1.0923
 4650TIP3   OH235584   5.207   2.038   0.417 -0.6422  0.2043 -0.0077
 4650TIP3    H135585   5.194   1.981   0.342 -0.8473  0.0071  0.1751
 4650TIP3    H235586   5.218   2.125   0.380  1.7038 -0.2094 -0.4242
 4651TIP3   OH235587   2.668   1.008   6.652 -0.6726 -0.0643 -0.6605
 4651TIP3    H135588   2.686   1.080   6.592 -1.0775 -0.0130 -0.7212
 4651TIP3    H235589   2.728   1.021   6.725 -1.1625  0.6828 -0.3791
 4652TIP3   OH235590   5.341   4.660   6.571  0.3115  0.0719  0.3093
 4652TIP3    H135591   5.416   4.658   6.630  0.1368 -2.0031  0.5221
 4652TIP3    H235592   5.275   4.712   6.619  0.7871 -0.0884  1.1616
 4653TIP3   OH235593   4.468   2.674   0.099 -0.2152  0.4398  0.3191
 4653TIP3    H135594   4.489   2.727   0.022  0.0237  1.6657  1.2127
 4653TIP3    H235595   4.455   2.586   0.063  0.4271  0.8675 -1.0575
 4654TIP3   OH235596   3.954   1.954   7.139 -0.4273  0.0361 -0.3288
 4654TIP3    H135597   3.972   1.896   7.065  1.4898  0.1120  0.0245
 4654TIP3    H235598   4.034   2.007   7.148 -0.7133  0.2065  1.6304
 4655TIP3   OH235599   6.279   1.427   7.618 -0.3398 -0.3446 -0.2139
 4655TIP3    H135600   6.273   1.501   7.557  0.2587 -1.0583 -1.1723
 4655TIP3    H235601   6.332   1.362   7.572  0.3486 -0.8191  1.1807
 4656TIP3   OH235602   5.633   0.114   0.914 -0.2094  0.1857 -0.4470
 4656TIP3    H135603   5.574   0.071   0.853  0.1096  0.7488 -1.1646
 4656TIP3    H235604   5.673   0.184   0.864  0.6550  0.1666  0.1851
 4657TIP3   OH235605   0.304   4.906   7.281  0.3372 -0.3276  0.4346
 4657TIP3    H135606   0.329   4.992   7.247  1.5720 -1.3831 -1.5003
 4657TIP3    H235607   0.286   4.854   7.203 -2.0512 -1.4054  1.5980
 4658TIP3   OH235608   5.585   3.692   0.882  0.5422  0.1291 -0.3864
 4658TIP3    H135609   5.526   3.749   0.931  1.0556 -0.6032  1.1517
 4658TIP3    H235610   5.536   3.611   0.870  1.0988 -0.4027  0.7038
 4659TIP3   OH235611   1.498   6.167   7.919 -0.4542 -0.1360 -0.5735
 4659TIP3    H135612   1.430   6.099   7.920  1.5925 -2.2912  0.0968
 4659TIP3    H235613   1.526   6.172   7.828  1.1707 -2.1777 -0.2534
 4660TIP3   OH235614   1.231   0.010   1.074 -0.2295  0.0094 -0.1431
 4660TIP3    H135615   1.148   0.056   1.060 -1.2874 -1.5414  0.6534
 4660TIP3    H235616   1.252   0.027   1.166 -0.5105 -0.8677  0.0941
 4661TIP3   OH235617   5.244   6.758   0.410  0.2934 -0.1747  0.9490
 4661TIP3    H135618   5.288   6.673   0.402  0.4769 -0.0118  0.1585
 4661TIP3    H235619   5.195   6.752   0.492  0.7230 -0.8509  1.1641
 4662TIP3   OH235620   2.949   3.013   0.363 -0.0628 -0.3231  0.5552
 4662TIP3    H135621   2.916   2.943   0.307  0.9743 -0.9670  0.7217
 4662TIP3    H235622   2.962   2.972   0.448  1.5650 -0.2329  0.3894
 4663TIP3   OH235623   0.694   3.280   1.036 -0.1835 -0.1375 -0.3456
 4663TIP3    H135624   0.627   3.336   1.075 -0.2168 -0.0765 -0.4902
 4663TIP3    H235625   0.702   3.311   0.946  0.7491  0.5321 -0.0534
 4664TIP3   OH235626   4.384   6.519   0.998 -0.5837  0.1496 -0.4626
 4664TIP3    H135627   4.469   6.478   0.987 -0.1415  0.7531  0.5889
 4664TIP3    H235628   4.356   6.540   0.909 -1.5125 -3.6646 -1.2481
 4665TIP3   OH235629   4.691   1.683   7.236 -0.5174 -0.0070  0.2725
 4665TIP3    H135630   4.668   1.599   7.196  0.6902 -0.5789  0.7199
 4665TIP3    H235631   4.607   1.727   7.251 -1.0772 -0.3191 -1.6818
 4666TIP3   OH235632   2.599   2.807   7.423 -0.1468 -0.8441  0.3032
 4666TIP3    H135633   2.688   2.798   7.389  0.5537 -1.6086  2.1907
 4666TIP3    H235634   2.550   2.850   7.353  1.3439 -1.7181 -1.3482
 4667TIP3   OH235635   2.013   2.096   0.495 -0.3712 -0.0945  0.0548
 4667TIP3    H135636   1.938   2.050   0.458 -0.2943 -0.7101  0.6502
 4667TIP3    H235637   1.976   2.175   0.535 -0.7465 -0.5519  0.6203
 4668TIP3   OH235638   2.004   4.966   6.680  0.2650  0.1931  0.1749
 4668TIP3    H135639   2.078   4.941   6.626 -1.1038 -0.3932 -1.5143
 4668TIP3    H235640   1.942   4.893   6.671 -1.0293  1.2177  0.5165
 4669TIP3   OH235641   4.653   3.253   7.888 -0.2176 -0.0537 -0.0437
 4669TIP3    H135642   4.625   3.177   7.837 -1.6126 -0.6935  1.5854
 4669TIP3    H235643   4.625   3.234   7.977 -0.6959  2.4086  0.4171
 4670TIP3   OH235644   2.808   5.716   7.072  0.0046  1.3002  0.0017
 4670TIP3    H135645   2.822   5.800   7.029  1.0459  1.4780  0.6341
 4670TIP3    H235646   2.855   5.724   7.155 -0.3435  0.2877  0.3088
 4671TIP3   OH235647   3.325   1.116   7.020  0.3240  0.0473 -0.1746
 4671TIP3    H135648   3.383   1.078   7.086  0.5944  1.7420  0.6519
 4671TIP3    H235649   3.366   1.097   6.936  1.9692  0.9636  0.3788
 4672TIP3   OH235650   4.329   1.066   6.531 -0.0678  0.0851 -0.0535
 4672TIP3    H135651   4.382   1.004   6.581  0.4303  1.5166  1.2395
 4672TIP3    H235652   4.392   1.123   6.487 -0.5320  0.5248 -0.1600
 4673TIP3   OH235653   5.379   5.879   7.847 -0.2375 -0.0813 -0.0414
 4673TIP3    H135654   5.389   5.941   7.775  0.1625  0.4794  0.4870
 4673TIP3    H235655   5.421   5.799   7.815 -1.0491 -0.1904 -0.8516
 4674TIP3   OH235656   7.003   1.243   1.826 -0.5509 -0.3100 -0.2410
 4674TIP3    H135657   7.088   1.203   1.810 -0.3810  0.2113 -0.6693
 4674TIP3    H235658   6.945   1.170   1.847 -0.0544 -0.6902 -0.1852
 4675TIP3   OH235659   3.486   0.035   6.524 -0.4250  0.0830 -0.1100
 4675TIP3    H135660   3.411   0.077   6.566 -1.7074 -2.7664  0.6958
 4675TIP3    H235661   3.557   0.044   6.588 -1.0134 -0.0264  0.5786
 4676TIP3   OH235662   5.919   1.595   0.095  0.1282  0.5847 -0.2694
 4676TIP3    H135663   5.953   1.541   0.167 -1.1290  1.7685  1.2914
 4676TIP3    H235664   5.897   1.532   0.026  0.1290 -0.7453  0.8955
 4677TIP3   OH235665   2.474   0.636   6.474  0.3668 -0.1342  0.0987
 4677TIP3    H135666   2.545   0.606   6.530  1.0033  2.5817  0.9186
 4677TIP3    H235667   2.448   0.720   6.511 -1.4462  0.2441 -1.7943
 4678TIP3   OH235668   0.766   1.290   1.271  0.0355  0.7835 -0.0541
 4678TIP3    H135669   0.803   1.361   1.323 -0.4036  1.4546 -0.6371
 4678TIP3    H235670   0.682   1.271   1.311  1.3925 -1.5340  1.9897
 4679TIP3   OH235671   3.688   5.431   1.017 -0.4776  0.4825  0.2718
 4679TIP3    H135672   3.777   5.462   1.035  0.0179  0.1936 -1.5501
 4679TIP3    H235673   3.632   5.503   1.046  0.3411  0.7735  1.1998
 4680TIP3   OH235674   2.281   4.136   0.593 -0.1212  0.0116 -0.5155
 4680TIP3    H135675   2.258   4.060   0.647 -0.7201 -0.2255 -1.0874
 4680TIP3    H235676   2.200   4.158   0.546  0.7941 -0.8769 -2.6535
 4681TIP3   OH235677   7.005   5.914   0.438 -0.0764 -0.3312 -0.0608
 4681TIP3    H135678   6.987   5.997   0.482 -1.1396 -0.3171 -0.5005
 4681TIP3    H235679   7.100   5.903   0.446 -0.1428 -0.0199  1.6805
 4682TIP3   OH235680   5.521   6.778   7.757 -0.0358  0.0950 -0.0216
 4682TIP3    H135681   5.587   6.790   7.825  0.7304 -2.3118 -0.2196
 4682TIP3    H235682   5.573   6.757   7.678 -0.8613  3.2335 -1.5341
 4683TIP3   OH235683   5.266   6.936   0.639 -0.0684 -0.5533  0.1634
 4683TIP3    H135684   5.225   7.022   0.645  0.6221 -0.2926  1.4136
 4683TIP3    H235685   5.314   6.938   0.557 -0.0660  0.2482  0.1796
 4684TIP3   OH235686   5.037   5.532   0.012  0.5875 -0.1568 -0.0533
 4684TIP3    H135687   5.036   5.628   0.019 -1.1435 -0.0925 -0.7354
 4684TIP3    H235688   5.112   5.512  -0.044 -0.6749  1.0273 -2.2905
 4685TIP3   OH235689   3.297   5.241   7.969  0.2571  0.6491  0.0223
 4685TIP3    H135690   3.235   5.279   7.907 -1.3283  0.6613  1.5459
 4685TIP3    H235691   3.292   5.147   7.954 -1.6793  0.4727  1.4428
 4686TIP3   OH235692   6.183   0.195   7.168 -0.1741 -0.3337  0.1516
 4686TIP3    H135693   6.106   0.220   7.116  0.6040  1.1243 -0.3737
 4686TIP3    H235694   6.219   0.119   7.122  0.2318  0.6497 -1.2195
 4687TIP3   OH235695   2.669   3.516   1.756 -0.3852  0.3054  0.1039
 4687TIP3    H135696   2.602   3.573   1.795 -0.4711  0.6720 -0.5663
 4687TIP3    H235697   2.745   3.527   1.813 -0.4504  0.9844  0.0713
 4688TIP3   OH235698   2.385   3.400   6.301 -0.4401 -0.0123  0.4317
 4688TIP3    H135699   2.454   3.419   6.366  0.0188 -1.0404  0.2605
 4688TIP3    H235700   2.332   3.479   6.299 -0.0423  0.3018  1.5527
 4689TIP3   OH235701   1.103   4.009   7.618  0.4520 -0.0584  0.4366
 4689TIP3    H135702   1.125   3.921   7.588  0.6410  0.1422 -0.0303
 4689TIP3    H235703   1.017   4.026   7.580 -0.1739 -0.5276  1.5881
 4690TIP3   OH235704   2.352   0.674   6.224  0.2529  0.1638 -0.1971
 4690TIP3    H135705   2.435   0.686   6.178  0.9495  3.3514  1.6256
 4690TIP3    H235706   2.377   0.657   6.315 -1.0835  0.8669  0.3278
 4691TIP3   OH235707   4.633   6.364   1.732 -0.0201 -0.2488 -0.0169
 4691TIP3    H135708   4.728   6.358   1.733  0.3878  2.8913 -2.6305
 4691TIP3    H235709   4.614   6.457   1.733 -2.9761 -0.6907 -1.5260
 4692TIP3   OH235710   0.234   1.109   6.517  0.0396  0.5149  0.3538
 4692TIP3    H135711   0.270   1.171   6.454 -1.4757  2.0009  0.8760
 4692TIP3    H235712   0.289   1.120   6.595  0.5073  0.3337  0.0528
 4693TIP3   OH235713   1.707   5.138   7.684 -0.1400  0.2028 -0.0418
 4693TIP3    H135714   1.662   5.055   7.671 -0.0534  0.6177 -3.9209
 4693TIP3    H235715   1.645   5.204   7.653  0.3902  1.5147  1.5409
 4694TIP3   OH235716   0.684   0.884   1.927 -0.0463  0.1130  0.2041
 4694TIP3    H135717   0.770   0.890   1.885  0.0598  0.5309  0.4790
 4694TIP3    H235718   0.697   0.822   1.999 -0.0160  0.0505  0.1446
 4695TIP3   OH235719   1.692   1.711   0.759 -0.3735  0.4882 -0.0936
 4695TIP3    H135720   1.621   1.700   0.822 -1.4610  0.8518 -1.2142
 4695TIP3    H235721   1.695   1.805   0.743  1.8531  0.7837  1.5573
 4696TIP3   OH235722   3.240   5.259   6.788 -0.0094 -0.4974  0.3000
 4696TIP3    H135723   3.332   5.283   6.802  0.4547 -2.4628  1.0040
 4696TIP3    H235724   3.242   5.200   6.712 -1.0048  1.1029 -1.0157
 4697TIP3   OH235725   2.406   2.638   0.285  0.2003  0.3122  0.7714
 4697TIP3    H135726   2.471   2.567   0.291 -1.3012 -1.1755  0.1534
 4697TIP3    H235727   2.378   2.653   0.375  0.8723  0.4639  0.9595
 4698TIP3   OH235728   3.425   2.817   1.660  0.6216 -0.4880 -0.1379
 4698TIP3    H135729   3.395   2.732   1.691  0.9535 -1.0966 -1.4193
 4698TIP3    H235730   3.394   2.822   1.570  0.9978  0.5576 -0.2208
 4699TIP3   OH235731   0.599   4.868   1.911  0.0154  0.1392  0.8019
 4699TIP3    H135732   0.674   4.895   1.963  1.5853 -1.0800 -0.7055
 4699TIP3    H235733   0.577   4.781   1.943  0.5078 -0.2993  0.0063
 4700TIP3   OH235734   2.217   1.779   1.213  0.3179  0.1674 -0.2035
 4700TIP3    H135735   2.238   1.698   1.167  1.8671  0.9862 -1.0526
 4700TIP3    H235736   2.208   1.844   1.143  2.0275  1.3089  0.5498
 4701TIP3   OH235737   6.303   2.186   7.813  0.1904 -0.3043  0.0497
 4701TIP3    H135738   6.254   2.155   7.737  0.0110 -0.3825  0.1951
 4701TIP3    H235739   6.320   2.108   7.864 -0.6202 -0.1247  0.6225
 4702TIP3   OH235740   5.977   5.603   0.192  0.4658  0.2800  0.5545
 4702TIP3    H135741   5.912   5.619   0.260  0.0697  0.6352  0.1028
 4702TIP3    H235742   6.055   5.574   0.239 -0.3517 -1.2265  1.0157
 4703TIP3   OH235743   7.135   0.569   1.188 -0.1078  0.1659 -0.0321
 4703TIP3    H135744   7.105   0.481   1.167 -2.1984  0.8743 -0.2788
 4703TIP3    H235745   7.187   0.558   1.268  1.0154 -1.4616 -0.9322
 4704TIP3   OH235746   4.593   1.806   0.238  0.3220 -0.5419 -0.1188
 4704TIP3    H135747   4.610   1.860   0.315  2.0273 -0.6194 -0.3982
 4704TIP3    H235748   4.550   1.865   0.176  1.1714  0.2213 -0.0061
 4705TIP3   OH235749   6.799   3.895   0.999  0.1956  0.0138  0.0632
 4705TIP3    H135750   6.725   3.951   1.022  0.9075  1.5055 -1.0618
 4705TIP3    H235751   6.875   3.953   1.003  1.2238 -1.3158  0.5384
 4706TIP3   OH235752   0.302   2.512   0.746  0.2042 -0.0684  0.0116
 4706TIP3    H135753   0.220   2.464   0.736 -0.0119  0.4103 -0.6196
 4706TIP3    H235754   0.329   2.496   0.836 -0.8845  0.2413  0.4061
 4707TIP3   OH235755   2.092   6.647   1.309 -0.6496  0.0457  0.1426
 4707TIP3    H135756   2.137   6.571   1.347 -0.3625 -0.2452 -0.7461
 4707TIP3    H235757   2.144   6.669   1.232 -2.1087 -0.4110 -1.0162
 4708TIP3   OH235758   6.106   6.078   7.086  0.3822  0.3768  0.4727
 4708TIP3    H135759   6.102   6.143   7.155 -0.6411  2.1873 -1.1973
 4708TIP3    H235760   6.188   6.031   7.101  0.1915  0.6938  2.8636
 4709TIP3   OH235761   7.025   4.798   2.061  0.3697  0.2663 -0.0274
 4709TIP3    H135762   6.942   4.819   2.103  0.9171  0.7071  0.8763
 4709TIP3    H235763   7.001   4.766   1.975 -0.6519  2.3582 -0.5791
 4710TIP3   OH235764   1.623   6.301   0.470 -0.0702  0.4655  0.0451
 4710TIP3    H135765   1.611   6.213   0.506  0.0941  0.1456 -0.6819
 4710TIP3    H235766   1.663   6.350   0.542  0.0863 -0.1207  0.3671
 4711TIP3   OH235767   0.365   6.275   6.503  0.7801  0.2029  0.3202
 4711TIP3    H135768   0.271   6.282   6.485  0.4469 -3.6807 -0.3629
 4711TIP3    H235769   0.404   6.251   6.418  2.0826 -0.1501  0.9864
 4712TIP3   OH235770   2.358   4.256   7.140  0.3895  0.0668 -0.9251
 4712TIP3    H135771   2.392   4.240   7.228 -2.8908  0.7147  0.6061
 4712TIP3    H235772   2.328   4.171   7.109 -1.9721  0.3672  0.3072
 4713TIP3   OH235773   5.018   4.260   7.860  0.4995  0.0488 -0.2449
 4713TIP3    H135774   4.982   4.175   7.883 -0.4225  0.1165 -1.3270
 4713TIP3    H235775   5.086   4.277   7.926  0.6857 -1.5012 -0.0104
 4714TIP3   OH235776   2.366   1.757   7.692  0.0805 -0.0265 -0.4730
 4714TIP3    H135777   2.287   1.752   7.639 -0.8447  0.3445  0.8261
 4714TIP3    H235778   2.427   1.809   7.640 -0.0259 -1.4481 -2.0792
 4715TIP3   OH235779   0.015   2.924   0.865 -0.8078 -0.2864  0.0050
 4715TIP3    H135780   0.065   2.873   0.929 -2.0215 -0.0261  1.2110
 4715TIP3    H235781  -0.077   2.904   0.885 -1.2413  0.7571 -0.8589
 4716TIP3   OH235782   1.449   0.999   0.967  0.0789  0.2672  0.6054
 4716TIP3    H135783   1.408   0.981   1.052  0.6519  0.0926  0.8546
 4716TIP3    H235784   1.411   1.082   0.939 -0.4615  0.0939  0.8126
 4717TIP3   OH235785   0.954   4.728   6.050  0.1281 -0.3475 -0.0453
 4717TIP3    H135786   0.983   4.666   5.983  1.9183  2.2671 -1.8328
 4717TIP3    H235787   1.022   4.726   6.117  1.9698  1.9559 -1.7082
 4718TIP3   OH235788   3.278   6.421   5.992  0.0012  0.4891 -0.3751
 4718TIP3    H135789   3.342   6.370   6.042 -0.7022  0.0812  0.1097
 4718TIP3    H235790   3.269   6.502   6.042  1.0627  1.0928 -1.1064
 4719TIP3   OH235791   0.775   1.611   1.187 -0.4612 -0.7766  0.0287
 4719TIP3    H135792   0.727   1.561   1.120 -0.5299 -0.8918  0.1634
 4719TIP3    H235793   0.746   1.702   1.174 -0.9150 -0.8823  0.2786
 4720TIP3   OH235794   5.638   2.217   0.559  0.0135  0.3052  0.2519
 4720TIP3    H135795   5.566   2.248   0.614 -2.6847 -2.9060 -1.0997
 4720TIP3    H235796   5.666   2.135   0.599 -0.5252 -0.9694 -1.8046
 4721TIP3   OH235797   5.648   6.389   0.531  0.4875 -0.0923 -0.6159
 4721TIP3    H135798   5.639   6.298   0.559 -0.0105 -0.1721 -1.0172
 4721TIP3    H235799   5.728   6.390   0.479 -0.4112 -0.6809 -2.0579
 4722TIP3   OH235800   2.395   5.432   0.898 -0.6921  0.4938 -0.5591
 4722TIP3    H135801   2.317   5.387   0.931  0.4320 -1.5688 -0.6248
 4722TIP3    H235802   2.448   5.449   0.976 -0.7176  0.9858 -0.6403
 4723TIP3   OH235803   6.695   4.909   0.269 -0.1987 -0.1244 -0.1081
 4723TIP3    H135804   6.721   4.879   0.182 -1.1600  1.0338 -0.8201
 4723TIP3    H235805   6.647   4.835   0.306 -0.0784 -0.4988 -0.6897
 4724TIP3   OH235806   0.961   3.840   7.828  0.2190  0.2441 -0.5218
 4724TIP3    H135807   0.919   3.825   7.743  0.5710  1.3135 -0.9136
 4724TIP3    H235808   1.020   3.766   7.840 -3.4189 -2.7453  1.2224
 4725TIP3   OH235809   1.410   1.133   6.983 -0.3628 -0.6071 -0.2741
 4725TIP3    H135810   1.472   1.069   6.949 -0.6633 -0.8192 -0.4331
 4725TIP3    H235811   1.395   1.193   6.909 -0.7790 -0.8876 -0.4220
 4726TIP3   OH235812   6.728   4.230   6.309  0.1098  0.2338  0.3923
 4726TIP3    H135813   6.768   4.312   6.339  1.3864 -0.3882  0.4595
 4726TIP3    H235814   6.802   4.177   6.279 -0.6774 -0.9550  0.4997
 4727TIP3   OH235815   5.951   3.790   0.431  0.0386 -0.0788 -0.6700
 4727TIP3    H135816   6.036   3.818   0.465  0.9190 -0.3354 -2.5476
 4727TIP3    H235817   5.899   3.772   0.510  2.0134 -0.8575  0.5527
 4728TIP3   OH235818   1.372   1.816   0.197 -0.2841 -0.6536  0.1716
 4728TIP3    H135819   1.346   1.900   0.235 -1.4581 -0.1747 -1.5961
 4728TIP3    H235820   1.299   1.791   0.141  0.2716 -2.6197  0.2359
 4729TIP3   OH235821   7.179   0.537   0.296  0.3046 -0.3043  0.0360
 4729TIP3    H135822   7.262   0.563   0.254  0.4033  0.9589  0.9365
 4729TIP3    H235823   7.111   0.569   0.236  0.4337 -2.1730 -1.1754
 4730TIP3   OH235824   6.646   0.629   2.077 -0.7454  0.1685 -0.7233
 4730TIP3    H135825   6.648   0.716   2.039 -2.5875  0.1212 -1.0402
 4730TIP3    H235826   6.579   0.634   2.146  1.0905 -0.2846  1.1994
 4731TIP3   OH235827   6.438   3.301   7.489 -0.1001 -0.2399  0.5754
 4731TIP3    H135828   6.369   3.329   7.549 -0.1303  0.3744  0.2634
 4731TIP3    H235829   6.516   3.297   7.544 -0.2877 -0.4806  0.8300
 4732TIP3   OH235830   1.347   5.358   7.399 -0.4322 -0.3916 -0.3208
 4732TIP3    H135831   1.252   5.365   7.394 -0.3190  1.4684 -0.4776
 4732TIP3    H235832   1.370   5.298   7.328 -1.5116 -1.5277  0.2320
 4733TIP3   OH235833   2.738   4.900   1.717  0.2130 -0.1395 -0.5130
 4733TIP3    H135834   2.681   4.823   1.710  2.0627 -1.5392 -0.9474
 4733TIP3    H235835   2.753   4.910   1.811 -2.6640  1.8126 -0.1301
 4734TIP3   OH235836   6.423   1.200   6.453 -0.1400  0.1719  0.5615
 4734TIP3    H135837   6.367   1.252   6.394 -0.0666 -0.7931 -0.3873
 4734TIP3    H235838   6.404   1.109   6.429  1.2914 -0.1861  0.7479
 4735TIP3   OH235839   0.495   2.160   6.386 -0.0008 -0.3107  0.1811
 4735TIP3    H135840   0.586   2.138   6.366  0.3519  0.3433  1.0401
 4735TIP3    H235841   0.500   2.240   6.438 -1.0491 -0.4413  0.5084
 4736TIP3   OH235842   4.003   0.999   1.808 -0.0554  0.1983 -0.2885
 4736TIP3    H135843   4.022   1.090   1.786  1.0812 -0.0633 -0.4572
 4736TIP3    H235844   4.067   0.977   1.876  0.9878 -1.0299 -1.6025
 4737TIP3   OH235845   0.957   0.012   0.667  0.0497 -0.1168 -0.4994
 4737TIP3    H135846   1.020  -0.060   0.679 -0.1354 -0.3183 -0.7244
 4737TIP3    H235847   1.009   0.091   0.680  0.2127 -0.2947 -0.0349
 4738TIP3   OH235848   6.286   2.524   1.339  0.0896  0.2906 -0.0208
 4738TIP3    H135849   6.215   2.461   1.347 -0.6950  0.9087 -1.7219
 4738TIP3    H235850   6.365   2.474   1.362 -0.6666 -0.9445 -0.0363
 4739TIP3   OH235851   1.858   4.941   6.908 -0.4306  0.2632 -0.0041
 4739TIP3    H135852   1.916   4.886   6.961 -0.4248 -1.1178 -1.3686
 4739TIP3    H235853   1.911   4.965   6.832 -0.5049  2.0312  0.4737
 4740TIP3   OH235854   2.392   6.419   0.846  0.7638 -0.5964  0.0061
 4740TIP3    H135855   2.375   6.509   0.817  1.1550 -0.0932  1.2521
 4740TIP3    H235856   2.429   6.376   0.769 -2.2606 -0.6098 -1.5887
 4741TIP3   OH235857   6.008   5.437   2.211 -0.0013  0.2597 -0.2571
 4741TIP3    H135858   6.048   5.451   2.125 -1.5296  0.7222 -0.9276
 4741TIP3    H235859   5.965   5.352   2.204 -4.0415  2.2036 -1.6236
 4742TIP3   OH235860   4.720   4.644   7.782  0.0158 -0.2900 -0.2551
 4742TIP3    H135861   4.697   4.678   7.696  0.1058  0.7855  0.1340
 4742TIP3    H235862   4.701   4.550   7.777 -1.1694 -0.0225 -1.0404
 4743TIP3   OH235863   0.716   6.647   6.677 -0.6290  0.2775 -0.0494
 4743TIP3    H135864   0.786   6.676   6.619 -1.5758 -0.4222 -1.6287
 4743TIP3    H235865   0.636   6.667   6.629 -1.4010 -2.1890  0.0662
 4744TIP3   OH235866   4.464   5.003   0.095  0.2503 -0.6514  0.4693
 4744TIP3    H135867   4.523   5.010   0.171  3.2174  0.9634 -1.7576
 4744TIP3    H235868   4.479   4.915   0.061  2.4068  0.0741 -0.6857
 4745TIP3   OH235869   6.598   2.044   1.319  0.0679  0.1965  0.3402
 4745TIP3    H135870   6.554   2.034   1.404  0.5380 -2.5905  0.3475
 4745TIP3    H235871   6.641   2.129   1.325 -1.7312  1.0864  2.0052
 4746TIP3   OH235872   7.195   4.122   1.985  0.0455 -0.1487  0.1715
 4746TIP3    H135873   7.113   4.170   1.998  0.8898  1.1181  1.0094
 4746TIP3    H235874   7.175   4.033   2.012 -0.5986  0.5277  2.0642
 4747TIP3   OH235875   2.133   3.454   7.099  0.0142 -0.3656 -0.0990
 4747TIP3    H135876   2.219   3.413   7.088  0.4376  0.6162 -0.5850
 4747TIP3    H235877   2.096   3.412   7.176  1.9588  0.8496  1.6282
 4748TIP3   OH235878   1.398   6.216   6.745  0.1007  0.3344  0.2642
 4748TIP3    H135879   1.383   6.306   6.716 -1.2311 -0.0749 -0.3994
 4748TIP3    H235880   1.370   6.162   6.671 -0.6753 -0.6714  1.2612
 4749TIP3   OH235881   0.978   2.686   2.271  0.2915  0.7029 -0.5128
 4749TIP3    H135882   0.887   2.694   2.299  0.2149  3.5654 -1.2973
 4749TIP3    H235883   1.009   2.605   2.312 -2.5418 -0.2926 -0.1389
 4750TIP3   OH235884   2.760   5.119   7.423  0.5218  0.4953  0.2889
 4750TIP3    H135885   2.828   5.178   7.390  0.2496  2.9916  3.6134
 4750TIP3    H235886   2.680   5.148   7.379  0.5832  2.0470  1.0938
 4751TIP3   OH235887   5.797   3.814   1.047 -0.0677 -0.0634  0.0051
 4751TIP3    H135888   5.745   3.753   0.994  0.6462 -0.0624 -0.7302
 4751TIP3    H235889   5.793   3.896   0.998 -0.2460  0.2305  0.5043
 4752TIP3   OH235890   0.580   0.732   6.413  0.1787  0.2078  0.2733
 4752TIP3    H135891   0.613   0.698   6.496  2.2385  0.3900 -0.4023
 4752TIP3    H235892   0.615   0.671   6.347 -1.7717 -0.1862 -0.4637
 4753TIP3   OH235893   0.208   0.081   0.435 -0.3039  0.2600 -0.5957
 4753TIP3    H135894   0.244   0.016   0.375 -1.2886 -0.0888 -0.8276
 4753TIP3    H235895   0.217   0.164   0.389  0.3081  0.1935 -0.5976
 4754TIP3   OH235896   4.251   3.995   1.748 -0.6510 -0.1541 -0.1118
 4754TIP3    H135897   4.205   4.063   1.698 -4.0039 -2.6356 -0.7540
 4754TIP3    H235898   4.223   4.010   1.839  0.5473  0.6710  0.1507
 4755TIP3   OH235899   0.047   2.971   7.001 -0.6303 -0.1932 -0.4659
 4755TIP3    H135900   0.139   2.973   6.976 -0.7508 -2.5650 -1.3489
 4755TIP3    H235901  -0.000   2.960   6.918 -1.4907 -1.6338  0.1703
 4756TIP3   OH235902   2.250   7.203   0.746  0.2302 -0.0269  0.0902
 4756TIP3    H135903   2.240   7.297   0.727  0.0072 -0.1671 -0.5127
 4756TIP3    H235904   2.183   7.161   0.693  0.8331 -0.5943 -0.2309
 4757TIP3   OH235905   4.750   6.470   1.293 -0.7948 -0.2764 -0.4348
 4757TIP3    H135906   4.799   6.529   1.236 -0.2662  0.0958  0.3984
 4757TIP3    H235907   4.790   6.480   1.379 -4.1939  2.3714  1.0763
 4758TIP3   OH235908   3.361   4.185   6.478 -0.9878 -0.0174  0.4540
 4758TIP3    H135909   3.301   4.258   6.493 -0.3002  0.6909 -0.1989
 4758TIP3    H235910   3.359   4.171   6.383 -0.3936 -0.2245  0.4669
 4759TIP3   OH235911   4.358   3.921   7.742 -0.3690  0.1955  0.2949
 4759TIP3    H135912   4.297   3.942   7.813 -1.6947 -0.0684 -0.7342
 4759TIP3    H235913   4.390   3.833   7.764 -1.0905 -0.0568  0.3508
 4760TIP3   OH235914   4.038   0.393   7.028  0.0336 -0.4238  0.0660
 4760TIP3    H135915   4.124   0.355   7.014 -0.7798 -2.5480  0.3876
 4760TIP3    H235916   4.054   0.477   7.070  2.0475  0.7820 -2.8466
 4761TIP3   OH235917   1.497   1.464   1.622 -0.1647 -0.2187  0.2260
 4761TIP3    H135918   1.470   1.381   1.663  1.4364 -1.3684 -0.9299
 4761TIP3    H235919   1.592   1.468   1.637 -0.0953  1.0109 -0.4415
 4762TIP3   OH235920   6.550   4.457   7.410 -0.1119 -0.4241  0.2320
 4762TIP3    H135921   6.574   4.543   7.444 -2.4715  0.4032  0.0021
 4762TIP3    H235922   6.502   4.475   7.330  1.0686 -2.0964 -0.9118
 4763TIP3   OH235923   6.102   4.222   0.379  0.0773 -0.5131  0.4012
 4763TIP3    H135924   6.011   4.238   0.401 -0.0213  0.8310 -0.8140
 4763TIP3    H235925   6.099   4.145   0.322 -0.1240 -1.3373  1.5036
 4764TIP3   OH235926   1.867   6.178   0.077  0.0772 -0.1770 -0.3424
 4764TIP3    H135927   1.831   6.090   0.089  0.5357 -0.2385  0.6800
 4764TIP3    H235928   1.795   6.228   0.039 -1.0100 -0.3814  1.3605
 4765TIP3   OH235929   3.468   5.241   1.405 -0.1405 -0.1669 -0.5916
 4765TIP3    H135930   3.408   5.315   1.410  0.2775  0.2265 -1.3261
 4765TIP3    H235931   3.462   5.199   1.492 -1.5533 -0.2025 -0.6886
 4766TIP3   OH235932   4.409   0.324   7.513 -0.4486  0.1621  0.4923
 4766TIP3    H135933   4.490   0.340   7.465 -1.4057 -0.7993 -1.5703
 4766TIP3    H235934   4.427   0.246   7.566  0.1633  0.3521  0.5676
 4767TIP3   OH235935   3.671   3.775   7.501  0.3540  0.1774 -0.5532
 4767TIP3    H135936   3.657   3.744   7.412  0.9543 -0.8708 -0.2891
 4767TIP3    H235937   3.757   3.742   7.526 -0.3303 -0.6591  0.8643
 4768TIP3   OH235938   6.671   4.066   6.776  0.0973 -0.3904 -0.0967
 4768TIP3    H135939   6.653   4.160   6.787 -2.7899 -0.9789  0.9621
 4768TIP3    H235940   6.749   4.064   6.720  0.0558  2.6265 -0.4598
 4769TIP3   OH235941   5.734   6.029   0.929  0.3905 -0.8050  0.0393
 4769TIP3    H135942   5.814   5.987   0.960 -0.3718 -0.6275  2.4020
 4769TIP3    H235943   5.694   6.067   1.007 -0.4185  1.8797 -1.5321
 4770TIP3   OH235944   1.206   4.674   0.011 -0.3694 -0.0082  0.0932
 4770TIP3    H135945   1.115   4.647   0.018 -1.2112  2.6585  0.5627
 4770TIP3    H235946   1.213   4.716  -0.074  0.2247  0.4267  0.3470
 4771TIP3   OH235947   1.818   0.787   1.193 -0.4759 -0.0207  0.0368
 4771TIP3    H135948   1.902   0.747   1.171 -0.3937  0.6339 -0.8911
 4771TIP3    H235949   1.753   0.723   1.165 -0.3487  0.4816 -1.5293
 4772TIP3   OH235950   6.686   0.644   7.162  0.0019  0.3982  0.2237
 4772TIP3    H135951   6.751   0.589   7.118  0.9104  1.3744  0.3056
 4772TIP3    H235952   6.661   0.708   7.096 -0.0022  0.7395  0.5527
 4773TIP3   OH235953   0.319   5.530   1.187  0.3027 -0.2304 -0.2802
 4773TIP3    H135954   0.299   5.509   1.278 -0.8686 -0.7626 -0.6502
 4773TIP3    H235955   0.386   5.465   1.162  1.2204  0.4177  0.4166
 4774TIP3   OH235956   3.938   4.304   1.059 -1.0923 -0.0655  0.1652
 4774TIP3    H135957   4.011   4.246   1.083  0.4614  1.3856 -0.7946
 4774TIP3    H235958   3.877   4.248   1.012 -0.3061 -1.2092  0.4530
 4775TIP3   OH235959   6.764   3.788   7.787  0.4299 -0.3171  0.0964
 4775TIP3    H135960   6.848   3.834   7.780  0.6779 -0.0845  3.0418
 4775TIP3    H235961   6.787   3.696   7.782  0.4602 -0.2455 -1.7367
 4776TIP3   OH235962   3.889   6.342   2.303 -0.2553  0.0891 -0.1798
 4776TIP3    H135963   3.813   6.338   2.245 -0.9869  0.8912  0.6765
 4776TIP3    H235964   3.949   6.276   2.269 -2.2245 -2.1298  0.3558
 4777TIP3   OH235965   4.372   5.487   2.105  0.1972  0.2614  0.0605
 4777TIP3    H135966   4.398   5.535   2.027 -2.3695 -0.7130 -1.5016
 4777TIP3    H235967   4.441   5.422   2.118 -0.0928 -0.6386 -2.4261
 4778TIP3   OH235968   5.408   1.966   0.092 -0.9590  0.0181 -0.6327
 4778TIP3    H135969   5.491   1.958   0.044 -0.0073  0.5442  0.8402
 4778TIP3    H235970   5.366   2.043   0.054  0.6687  1.5798  0.5526
 4779TIP3   OH235971   6.576   6.463   1.855 -0.1724 -0.2925  0.1940
 4779TIP3    H135972   6.528   6.543   1.834  1.3522  0.8994  1.0075
 4779TIP3    H235973   6.597   6.472   1.948  1.5954 -0.7395 -0.1332
 4780TIP3   OH235974   7.151   0.716   0.757 -0.0249 -0.4428  0.3742
 4780TIP3    H135975   7.061   0.690   0.737 -0.5172  0.6081  1.1722
 4780TIP3    H235976   7.179   0.767   0.681  0.8438 -2.8731 -1.0684
 4781TIP3   OH235977   5.493   4.379   6.204  0.3863 -1.0879 -0.2787
 4781TIP3    H135978   5.536   4.328   6.135 -2.3435 -1.5821 -1.7872
 4781TIP3    H235979   5.415   4.416   6.161  1.2907  3.0467  1.1667
 4782TIP3   OH235980   2.811   5.474   7.756 -0.1273  0.0938 -0.6094
 4782TIP3    H135981   2.743   5.537   7.779 -0.5377 -0.4227 -0.3900
 4782TIP3    H235982   2.776   5.390   7.783  0.7277 -0.1474 -0.2091
 4783TIP3   OH235983   5.262   1.370   6.707 -0.1516  0.2857  0.1658
 4783TIP3    H135984   5.192   1.360   6.642 -0.4030  1.6273  0.1917
 4783TIP3    H235985   5.329   1.423   6.662 -0.2515  1.0811  0.9261
 4784TIP3   OH235986   2.586   5.609   0.737  0.1392 -0.9647 -0.0593
 4784TIP3    H135987   2.571   5.643   0.826  2.6330  0.2096  0.0067
 4784TIP3    H235988   2.499   5.590   0.703 -0.9835  0.0957  2.0544
 4785TIP3   OH235989   2.751   6.244   0.564 -0.1060 -0.0721  0.7233
 4785TIP3    H135990   2.726   6.322   0.515  0.2607 -0.2553  0.2476
 4785TIP3    H235991   2.826   6.272   0.616 -0.0872 -0.0608  0.6899
 4786TIP3   OH235992   3.723   2.076   1.939  0.0703  0.0175  0.3152
 4786TIP3    H135993   3.811   2.053   1.969  1.3191  1.6112 -1.7832
 4786TIP3    H235994   3.706   2.162   1.978  0.8021  1.1000 -1.5850
 4787TIP3   OH235995   6.968   6.427   0.511 -0.1963  0.3967 -1.1754
 4787TIP3    H135996   6.908   6.500   0.526  0.7605  1.1552 -0.8731
 4787TIP3    H235997   7.008   6.446   0.426 -0.4223 -0.1377 -1.4075
 4788TIP3   OH235998   3.262   4.298   6.892 -0.7381 -0.1965 -0.8326
 4788TIP3    H135999   3.182   4.348   6.875 -0.1068  0.7211 -1.1455
 4788TIP3    H236000   3.314   4.307   6.812 -0.9996 -2.1366 -1.2647
 4789TIP3   OH236001   0.786   5.884   1.200  0.7101 -0.1088 -0.5364
 4789TIP3    H136002   0.740   5.962   1.232 -0.0941 -0.1122 -1.6112
 4789TIP3    H236003   0.801   5.902   1.107 -0.9886 -1.8908 -1.2274
 4790TIP3   OH236004   5.244   1.203   6.305  0.7285  0.2253 -0.0298
 4790TIP3    H136005   5.335   1.178   6.325  0.3552  0.6315  2.6021
 4790TIP3    H236006   5.252   1.289   6.263  1.5700  0.8613  1.3348
 4791TIP3   OH236007   5.350   1.091   5.631 -0.2359 -0.1080 -0.2100
 4791TIP3    H136008   5.305   1.009   5.654 -2.1177  0.8858 -0.1729
 4791TIP3    H236009   5.281   1.157   5.634  1.2795  1.5153 -0.1215
 4792TIP3   OH236010   4.129   4.621   0.209  0.0752 -0.0144  0.3845
 4792TIP3    H136011   4.222   4.645   0.203 -0.4848  2.2131 -0.4675
 4792TIP3    H236012   4.125   4.561   0.283  2.0256  0.8354  1.2766
 4793TIP3   OH236013   3.666   3.943   0.451  0.2461  0.1695 -0.2021
 4793TIP3    H136014   3.629   4.031   0.444  0.1355  0.1257 -0.1739
 4793TIP3    H236015   3.595   3.885   0.423  0.2970  0.0854 -0.1571
 4794TIP3   OH236016   2.896   2.456   1.202 -0.4244  0.3035  0.4168
 4794TIP3    H136017   2.814   2.491   1.239 -1.2254 -0.2479 -0.7634
 4794TIP3    H236018   2.942   2.533   1.170 -1.4144  0.4625 -0.6870
 4795TIP3   OH236019   3.079   1.955   0.976 -0.0107  0.1318  0.5778
 4795TIP3    H136020   3.073   1.890   1.046 -0.1935  1.3158  1.6810
 4795TIP3    H236021   3.015   2.022   0.999 -0.3354  0.3783 -0.9260
 4796TIP3   OH236022   1.970   5.796   0.145 -0.2378  0.2155  0.0847
 4796TIP3    H136023   1.888   5.765   0.106 -0.0609  2.3224 -2.2637
 4796TIP3    H236024   1.949   5.808   0.237 -2.6013  0.6308 -0.4275
 4797TIP3   OH236025   0.380   3.526   7.239  0.2703  0.0436 -0.5829
 4797TIP3    H136026   0.467   3.562   7.223  0.0169  0.8208 -0.2348
 4797TIP3    H236027   0.348   3.500   7.153 -0.8495  3.6116 -1.4215
 4798TIP3   OH236028   2.796   3.801   6.064  0.2225  0.3376  0.3662
 4798TIP3    H136029   2.741   3.864   6.110 -0.7175 -0.1308 -0.0961
 4798TIP3    H236030   2.756   3.716   6.081  0.3028  0.0767 -0.6697
 4799TIP3   OH236031   6.611   6.157   6.923 -0.0511  0.0745 -0.7069
 4799TIP3    H136032   6.574   6.139   6.837 -0.5961 -0.1589 -0.4284
 4799TIP3    H236033   6.703   6.132   6.916  0.2776  1.4392 -1.6560
 4800TIP3   OH236034   2.487   6.398   7.893  0.1570 -0.0598 -0.2096
 4800TIP3    H136035   2.440   6.417   7.811  0.1330  0.8788  0.0150
 4800TIP3    H236036   2.476   6.304   7.905 -2.1828  0.2086  0.1381
 4801TIP3   OH236037   4.512   6.788   1.078 -0.1701  0.3737  0.3301
 4801TIP3    H136038   4.458   6.850   1.029  0.3089  0.5353  0.0021
 4801TIP3    H236039   4.481   6.702   1.051  0.2613  0.4581 -0.4579
 4802TIP3   OH236040   5.136   1.004   5.899  0.0760  0.5369 -0.6733
 4802TIP3    H136041   5.187   0.986   5.978 -0.6932 -2.9796 -0.8084
 4802TIP3    H236042   5.098   1.090   5.914  2.7274  1.5074  1.1976
 4803TIP3   OH236043   1.627   2.560   1.763 -0.0540 -0.6234  0.5801
 4803TIP3    H136044   1.610   2.470   1.791 -1.1398 -0.8447 -0.7041
 4803TIP3    H236045   1.660   2.603   1.841  1.2570 -2.3282  1.0361
 4804TIP3   OH236046   5.849   6.605   7.533 -0.1152 -0.1266  0.7820
 4804TIP3    H136047   5.868   6.512   7.546 -1.2846 -0.6068 -0.6074
 4804TIP3    H236048   5.819   6.611   7.442 -2.4401  1.1772  1.5486
 4805TIP3   OH236049   5.640   0.889   0.048  0.3292 -0.0784 -0.0031
 4805TIP3    H136050   5.609   0.960  -0.009 -0.6908  0.8371  1.6032
 4805TIP3    H236051   5.571   0.824   0.046  1.0378 -0.8119 -1.0801
 4806TIP3   OH236052   6.159   2.022   6.647  0.5536 -0.3351 -0.0941
 4806TIP3    H136053   6.127   1.948   6.698 -0.7102 -0.3839 -0.9260
 4806TIP3    H236054   6.146   1.996   6.556  0.9937  0.5220 -0.4100
 4807TIP3   OH236055   2.056   6.982   0.066  0.0484 -0.3969 -0.4020
 4807TIP3    H136056   2.100   7.058   0.104 -1.4574 -0.7341  2.2833
 4807TIP3    H236057   2.122   6.913   0.067  1.0771  0.4918 -1.7837
 4808TIP3   OH236058   6.606   6.924   6.369  0.3439  0.8286 -0.1423
 4808TIP3    H136059   6.543   6.886   6.308 -0.4978  2.2683 -0.2191
 4808TIP3    H236060   6.556   6.934   6.450  0.8025  0.9796  0.1189
 4809TIP3   OH236061   2.787   4.248   0.721  0.4151 -0.4865  0.0352
 4809TIP3    H136062   2.853   4.208   0.777  0.9861  0.7949  0.2923
 4809TIP3    H236063   2.837   4.293   0.653 -0.2584 -1.5833 -1.2253
 4810TIP3   OH236064   4.534   4.555   7.034 -0.0935 -0.0698  0.1276
 4810TIP3    H136065   4.535   4.617   7.107  0.6333 -0.2894  0.3122
 4810TIP3    H236066   4.613   4.575   6.984  0.6720 -1.4656  0.7306
 4811TIP3   OH236067   1.962   6.436   1.017  0.0675  0.1459  0.2240
 4811TIP3    H136068   2.023   6.508   1.007  0.5942 -0.1299  1.3272
 4811TIP3    H236069   2.010   6.359   0.986 -0.1708  0.1254 -0.0979
 4812TIP3   OH236070   1.486   6.277   0.917  0.4927 -0.0338 -0.1550
 4812TIP3    H136071   1.508   6.270   0.824 -0.9089  0.5246 -0.5532
 4812TIP3    H236072   1.525   6.199   0.956  0.8426 -0.4435 -1.2557
 4813TIP3   OH236073   5.046   0.803   7.431 -0.7233  0.1873  0.6296
 4813TIP3    H136074   5.005   0.729   7.386 -0.3015 -1.2406  2.4571
 4813TIP3    H236075   5.012   0.798   7.520  2.6639 -0.5493  2.0100
 4814TIP3   OH236076   0.373   6.599   1.201  0.0262  0.1544  0.5264
 4814TIP3    H136077   0.354   6.688   1.231  1.0030  1.0595 -1.3685
 4814TIP3    H236078   0.400   6.609   1.110 -0.8709 -2.2253 -0.0874
 4815TIP3   OH236079   0.544   5.549   7.474 -0.3104  0.4219  0.3406
 4815TIP3    H136080   0.502   5.593   7.548 -0.6607  1.2144 -0.3153
 4815TIP3    H236081   0.471   5.525   7.416  0.0372  0.7654 -0.2539
 4816TIP3   OH236082   5.985   2.648   0.856 -0.1834 -0.1264  0.1260
 4816TIP3    H136083   5.892   2.627   0.856 -0.5262  1.2615  0.2174
 4816TIP3    H236084   6.018   2.616   0.772 -1.2868  1.5100 -0.9864
 4817TIP3   OH236085   1.678   3.413   0.812 -0.2745  0.0259  0.3865
 4817TIP3    H136086   1.619   3.483   0.785 -3.2009 -1.9943  1.0175
 4817TIP3    H236087   1.668   3.409   0.907 -1.0781 -1.8851  0.2746
 4818TIP3   OH236088   5.098   6.289   6.573  0.1015 -0.9772  0.4106
 4818TIP3    H136089   5.102   6.385   6.568  2.2039 -0.9909  0.8110
 4818TIP3    H236090   5.008   6.268   6.550 -0.1586  1.0354 -0.6960
 4819TIP3   OH236091   2.943   0.373   0.070 -0.1337 -0.3926  1.3044
 4819TIP3    H136092   2.868   0.432   0.071 -0.4622 -0.7713  2.8772
 4819TIP3    H236093   2.987   0.390  -0.013 -1.6188  0.2681  0.6238
 4820TIP3   OH236094   6.263   5.959   7.356 -0.3253 -0.1474 -0.6563
 4820TIP3    H136095   6.275   6.038   7.302 -1.7509 -0.9642 -2.2484
 4820TIP3    H236096   6.302   5.889   7.304 -2.6952 -1.1330 -1.1999
 4821TIP3   OH236097   1.449   1.671   6.120  0.3767  0.0418 -0.6324
 4821TIP3    H136098   1.424   1.691   6.030  0.8186  1.1271 -0.5286
 4821TIP3    H236099   1.367   1.647   6.163  0.0196  0.3918 -1.1058
 4822TIP3   OH236100   6.705   6.237   2.002  0.2351  0.3723  0.4862
 4822TIP3    H136101   6.643   6.167   2.023 -1.6973  2.1826  1.1311
 4822TIP3    H236102   6.655   6.300   1.951  1.3167  2.2239  1.5832
 4823TIP3   OH236103   2.334   0.447   1.211 -0.2530 -0.8774 -0.2129
 4823TIP3    H136104   2.276   0.391   1.263  0.1729 -2.3917 -1.3102
 4823TIP3    H236105   2.421   0.406   1.220  0.3016  0.2678 -0.1387
 4824TIP3   OH236106   5.730   0.156   6.684 -0.1320  0.0590  0.4969
 4824TIP3    H136107   5.641   0.128   6.658  0.1207  0.9657 -1.5987
 4824TIP3    H236108   5.725   0.168   6.778 -1.9613 -0.9189  0.5738
 4825TIP3   OH236109   3.630   1.713   6.671 -0.1801 -0.6514 -0.5591
 4825TIP3    H136110   3.685   1.769   6.617 -1.1378 -0.4268 -1.3328
 4825TIP3    H236111   3.632   1.755   6.758  0.0180 -0.0485 -0.8467
 4826TIP3   OH236112   4.968   5.151   0.308 -0.2800  0.1226  0.9515
 4826TIP3    H136113   4.922   5.074   0.274  0.1137  0.0232  0.6261
 4826TIP3    H236114   4.928   5.225   0.261 -1.0270  0.1812  1.6547
 4827TIP3   OH236115   5.653   2.641   1.469  1.1080  0.1588  0.6302
 4827TIP3    H136116   5.617   2.646   1.381 -1.5397 -0.2061  1.6215
 4827TIP3    H236117   5.694   2.726   1.484  1.5762  0.2302 -0.8936
 4828TIP3   OH236118   5.232   0.186   0.096  0.2395 -0.3001 -0.0564
 4828TIP3    H136119   5.280   0.165   0.016  0.3965  0.2099 -0.1012
 4828TIP3    H236120   5.258   0.118   0.158  2.8388  1.2192  0.6632
 4829TIP3   OH236121   4.647   2.797   7.819 -0.1687  0.0604 -0.1247
 4829TIP3    H136122   4.673   2.725   7.876  1.9769  0.1527 -0.8848
 4829TIP3    H236123   4.617   2.755   7.739  1.5471 -0.0474 -0.7565
 4830TIP3   OH236124   1.134   3.153   6.730  0.2302  0.3477 -0.5157
 4830TIP3    H136125   1.135   3.062   6.703 -0.0929 -0.0838  0.8558
 4830TIP3    H236126   1.178   3.200   6.659 -0.1459 -0.7843 -1.5112
 4831TIP3   OH236127   5.976   4.677   1.687 -0.3181  0.3831 -0.3684
 4831TIP3    H136128   6.014   4.590   1.680 -1.5201 -0.0641 -1.7571
 4831TIP3    H236129   6.051   4.736   1.689  0.4815 -0.5815 -1.1642
 4832TIP3   OH236130   0.672   6.140   6.324  0.0890  0.2869 -0.5415
 4832TIP3    H136131   0.605   6.076   6.349  0.5572  0.2567  0.6841
 4832TIP3    H236132   0.755   6.095   6.339  0.4551 -0.2044 -3.4114
 4833TIP3   OH236133   3.229   1.515   7.804 -0.1031  0.4267  0.3591
 4833TIP3    H136134   3.185   1.441   7.846  0.6615 -0.1724  0.1178
 4833TIP3    H236135   3.178   1.531   7.725  0.4601 -0.6748 -0.2490
 4834TIP3   OH236136   0.635   1.507   7.283 -0.5984  0.6818 -0.2264
 4834TIP3    H136137   0.563   1.473   7.338 -0.4666 -0.7007 -0.8571
 4834TIP3    H236138   0.654   1.435   7.223  1.6949  0.8184  0.2719
 4835TIP3   OH236139   1.038   4.474   0.408  0.3610  0.4130  0.3801
 4835TIP3    H136140   1.126   4.440   0.395  0.7347  0.6888  1.9447
 4835TIP3    H236141   1.050   4.568   0.423 -0.0798  0.3219  1.4553
 4836TIP3   OH236142   2.073   6.270   1.257  0.0060  0.2101 -0.4482
 4836TIP3    H136143   2.057   6.312   1.172  0.4129  2.5429  0.5535
 4836TIP3    H236144   2.151   6.314   1.291  1.9452 -3.0217 -0.2792
 4837TIP3   OH236145   3.497   4.276   7.045 -0.1518  0.4687  0.4247
 4837TIP3    H136146   3.542   4.261   6.962  0.3685 -0.9290  0.9317
 4837TIP3    H236147   3.404   4.273   7.023 -0.0152  0.6543 -0.1882
 4838TIP3   OH236148   7.094   0.700   6.643 -0.3641 -0.1187 -0.2992
 4838TIP3    H136149   7.062   0.691   6.553 -1.3838  1.1230 -0.0863
 4838TIP3    H236150   7.122   0.791   6.650  2.1561 -0.8423 -0.0852
 4839TIP3   OH236151   1.064   1.002   1.094 -0.0237  0.2126 -0.0407
 4839TIP3    H136152   1.108   1.078   1.055  0.8210 -0.3109 -0.1136
 4839TIP3    H236153   1.122   0.928   1.076 -0.6853 -0.4060  0.3094
 4840TIP3   OH236154   4.335   0.405   6.023  0.0089 -0.1025 -0.0086
 4840TIP3    H136155   4.404   0.402   6.089 -0.2556 -2.4744  0.2572
 4840TIP3    H236156   4.307   0.497   6.022  1.3742  0.4012  1.7242
 4841TIP3   OH236157   1.455   5.980   7.292  0.4984  0.2117 -0.3660
 4841TIP3    H136158   1.395   5.949   7.224  1.6354  2.3287 -2.4974
 4841TIP3    H236159   1.527   5.916   7.291  0.3567  0.0575 -0.9541
 4842TIP3   OH236160   0.652   6.303   0.836  0.2053 -0.0217  0.3739
 4842TIP3    H136161   0.742   6.313   0.868  0.8571 -3.2494 -0.1858
 4842TIP3    H236162   0.628   6.392   0.808  2.9174  1.1035  1.2206
 4843TIP3   OH236163   4.179   4.218   1.608 -0.0116  0.5815 -0.2513
 4843TIP3    H136164   4.169   4.301   1.655  0.9223  0.8139 -0.4475
 4843TIP3    H236165   4.205   4.243   1.520  0.9384  0.0797 -0.1292
 4844TIP3   OH236166   2.382   0.076   5.881  0.2629 -0.8914 -0.0464
 4844TIP3    H136167   2.389   0.074   5.976  1.0530 -2.1542 -0.1115
 4844TIP3    H236168   2.472   0.087   5.850 -0.0645  0.2110 -0.6462
 4845TIP3   OH236169   0.713   4.344   1.815  0.1695 -0.0144  0.1757
 4845TIP3    H136170   0.627   4.385   1.818  1.3171  2.5481  2.1018
 4845TIP3    H236171   0.759   4.390   1.744  0.4837 -0.1347  0.2988
 4846TIP3   OH236172   0.434   6.201   6.758 -0.3403 -0.3498 -0.4585
 4846TIP3    H136173   0.415   6.220   6.666 -0.3397  0.7245 -0.2440
 4846TIP3    H236174   0.369   6.251   6.807  0.7857  0.5394  0.1757
 4847TIP3   OH236175   4.608   4.413   0.938  0.1037 -0.3882 -0.1198
 4847TIP3    H136176   4.668   4.340   0.954  0.2471 -0.2462 -0.0147
 4847TIP3    H236177   4.566   4.391   0.855  0.1426 -0.5946 -0.0861
 4848TIP3   OH236178   4.361   3.000   0.426 -0.0063 -0.2747 -0.2943
 4848TIP3    H136179   4.347   2.911   0.392  1.0631 -1.2534  1.6475
 4848TIP3    H236180   4.445   2.995   0.471 -0.4762  1.4148  0.8649
 4849TIP3   OH236181   3.464   3.780   0.363  0.0848 -0.2325  0.0965
 4849TIP3    H136182   3.513   3.714   0.315 -1.1579 -0.4544 -0.9241
 4849TIP3    H236183   3.373   3.767   0.336 -0.5376  0.2291  1.8394
 4850TIP3   OH236184   1.129   6.904   6.412 -0.4187  0.4720 -0.2661
 4850TIP3    H136185   1.136   6.912   6.317  0.6123  0.9571 -0.1677
 4850TIP3    H236186   1.219   6.891   6.442 -0.8520 -0.9183  0.5546
 4851TIP3   OH236187   6.514   4.328   1.324  0.1308 -0.0453 -0.1446
 4851TIP3    H136188   6.603   4.357   1.299  0.4233 -1.0434 -0.3103
 4851TIP3    H236189   6.512   4.337   1.419  0.0842  0.8594 -0.2226
 4852TIP3   OH236190   1.407   1.179   6.356  1.2445  0.6811  0.4536
 4852TIP3    H136191   1.426   1.266   6.321 -0.5588  1.8794  2.2888
 4852TIP3    H236192   1.312   1.172   6.352  1.3709 -1.3490  0.1019
 4853TIP3   OH236193   1.830   6.740   1.239 -0.2376  0.5093  0.8346
 4853TIP3    H136194   1.909   6.689   1.258  0.0676  0.5414 -0.2423
 4853TIP3    H236195   1.785   6.748   1.323 -0.3221 -1.5683  1.0355
 4854TIP3   OH236196   6.051   6.400   7.874 -0.7492 -0.2200 -0.5429
 4854TIP3    H136197   6.127   6.438   7.831  0.4275 -0.4924  1.2140
 4854TIP3    H236198   6.074   6.309   7.889 -1.2091 -0.1987  0.4324
 4855TIP3   OH236199   2.047   0.182   5.979 -0.3811  0.2301 -0.0360
 4855TIP3    H136200   2.053   0.245   5.907  0.7479  0.3286  0.1211
 4855TIP3    H236201   2.017   0.101   5.937  0.1979  0.3035 -0.6176
 4856TIP3   OH236202   2.177   3.594   1.607  0.2325  0.0156 -0.2371
 4856TIP3    H136203   2.122   3.633   1.674 -0.7823  0.1206 -1.1096
 4856TIP3    H236204   2.240   3.662   1.583 -0.5848  0.6169 -0.6986
 4857TIP3   OH236205   5.300   3.811   1.677  0.0575  0.2038 -0.5468
 4857TIP3    H136206   5.302   3.879   1.744  0.2323  0.2148 -0.5632
 4857TIP3    H236207   5.369   3.750   1.702  2.0699  1.6459 -2.2281
 4858TIP3   OH236208   3.404   0.102   0.897  0.6854  0.1257  0.0054
 4858TIP3    H136209   3.423   0.026   0.951 -0.5085 -0.3257 -0.1909
 4858TIP3    H236210   3.486   0.120   0.850  0.8658 -1.2684 -0.2391
 4859TIP3   OH236211   7.000   6.937   7.264  0.6718 -0.1104  0.4687
 4859TIP3    H136212   7.033   7.020   7.230  0.5223  0.0466  0.7047
 4859TIP3    H236213   6.980   6.955   7.356  0.2122 -0.2801  0.4066
 4860TIP3   OH236214   1.431   5.622   7.700 -0.4738  0.0062  0.8034
 4860TIP3    H136215   1.514   5.669   7.692 -0.0862 -0.7706  0.1541
 4860TIP3    H236216   1.400   5.644   7.788 -0.2098  1.3077  0.5921
 4861TIP3   OH236217   2.754   1.369   0.142 -0.5327 -0.2367  0.0802
 4861TIP3    H136218   2.693   1.441   0.157  0.3286  0.2844  1.2584
 4861TIP3    H236219   2.769   1.332   0.229  1.5591  0.2722 -0.0144
 4862TIP3   OH236220   1.866   3.788   7.972  0.5922  0.2118 -0.0704
 4862TIP3    H136221   1.918   3.820   8.046  0.0247  0.4708  0.2163
 4862TIP3    H236222   1.784   3.759   8.011  0.7349 -0.7365 -0.4475
 4863TIP3   OH236223   3.170   4.274   7.155 -0.1256 -0.6036  0.4923
 4863TIP3    H136224   3.078   4.299   7.147  0.4441  1.1088 -1.5473
 4863TIP3    H236225   3.197   4.253   7.065  2.2574  2.0339  0.4729
 4864TIP3   OH236226   5.496   6.921   1.477  0.8068  0.3745 -0.1167
 4864TIP3    H136227   5.482   6.829   1.500 -1.1407  0.2077 -1.6917
 4864TIP3    H236228   5.449   6.970   1.545  1.7027  0.2457  0.6257
 4865TIP3   OH236229   0.699   1.470   0.655 -0.0410 -0.6508 -0.1044
 4865TIP3    H136230   0.772   1.521   0.620 -2.4623  1.7533 -2.1313
 4865TIP3    H236231   0.670   1.417   0.581 -1.0046 -0.7091  0.2963
 4866TIP3   OH236232   0.226   0.767   0.034  0.5819  0.2906 -0.1909
 4866TIP3    H136233   0.197   0.858   0.029  2.2541  1.0194  1.8494
 4866TIP3    H236234   0.198   0.728  -0.049 -0.3099  2.6076 -1.0524
 4867TIP3   OH236235   2.340   4.999   1.683 -0.2534  0.4161  0.3010
 4867TIP3    H136236   2.272   5.064   1.665 -0.3953  0.5990  1.4065
 4867TIP3    H236237   2.373   5.022   1.770  1.4039  0.4707 -0.2975
 4868TIP3   OH236238   4.646   5.411   1.820  0.9495 -0.6597 -0.1149
 4868TIP3    H136239   4.586   5.372   1.757  1.5336 -1.2941 -0.2794
 4868TIP3    H236240   4.676   5.338   1.874  0.5813 -0.1530  0.8038
 4869TIP3   OH236241   3.997   3.292   0.516 -0.1250 -0.8134  0.1590
 4869TIP3    H136242   4.046   3.356   0.464 -0.7858 -0.1257  0.3584
 4869TIP3    H236243   4.062   3.253   0.574  0.2817 -0.2643  0.0792
 4870TIP3   OH236244   0.140   2.733   1.022 -0.4056 -0.2653  0.8283
 4870TIP3    H136245   0.223   2.720   1.068 -1.2731 -0.8344  2.3210
 4870TIP3    H236246   0.132   2.655   0.967 -0.0987 -0.3632  0.9158
 4871TIP3   OH236247   4.395   4.123   2.226  0.3054  0.1156  0.8596
 4871TIP3    H136248   4.461   4.152   2.288  0.4659 -0.7366  1.1007
 4871TIP3    H236249   4.320   4.181   2.242  0.3516 -0.0855  1.8390
 4872TIP3   OH236250   3.674   1.136   0.019  0.3385 -0.8361  0.0281
 4872TIP3    H136251   3.588   1.123   0.060  0.0698 -0.0223 -0.2681
 4872TIP3    H236252   3.666   1.219  -0.028  1.6537 -0.1337  0.9749
 4873TIP3   OH236253   5.308   3.203   7.673  0.5188 -0.2647 -0.2458
 4873TIP3    H136254   5.374   3.237   7.613 -0.8547  1.3658 -0.8994
 4873TIP3    H236255   5.318   3.108   7.669  2.3560 -0.0710 -0.8308
 4874TIP3   OH236256   5.946   4.764   1.342  0.1381 -0.2691 -0.1962
 4874TIP3    H136257   5.927   4.678   1.379 -1.7202  0.6022  1.0633
 4874TIP3    H236258   5.877   4.777   1.277  0.6084  0.1318 -0.6185
 4875TIP3   OH236259   5.974   1.748   6.497 -0.7037 -0.1914 -0.4019
 4875TIP3    H136260   6.016   1.662   6.496  0.7358  0.4433  0.7240
 4875TIP3    H236261   5.958   1.765   6.590 -0.9903  0.7483 -0.6142
 4876TIP3   OH236262   1.908   3.323   0.703  0.1064  0.4654  0.2501
 4876TIP3    H136263   1.906   3.304   0.609 -0.4526  0.8490  0.1774
 4876TIP3    H236264   1.817   3.343   0.725  0.0194 -0.7426  1.1078
 4877TIP3   OH236265   5.220   4.978   1.197  0.4747 -0.1795  0.3476
 4877TIP3    H136266   5.165   4.918   1.247  1.3751 -1.0690  0.2914
 4877TIP3    H236267   5.217   5.060   1.246 -0.1069 -0.5094  0.8723
 4878TIP3   OH236268   3.285   5.911   7.247 -0.0777 -0.0451  0.0422
 4878TIP3    H136269   3.276   5.850   7.321 -0.5746 -0.6556 -0.5032
 4878TIP3    H236270   3.205   5.963   7.250  0.2954  0.5138  0.4403
 4879TIP3   OH236271   3.513   7.197   1.447 -0.2560 -0.6199  0.5333
 4879TIP3    H136272   3.553   7.110   1.458 -1.7287 -1.2660  1.0933
 4879TIP3    H236273   3.419   7.181   1.455 -0.5175  1.1806  1.6040
 4880TIP3   OH236274   3.280   5.468   0.926 -0.0012 -0.0751  0.3346
 4880TIP3    H136275   3.253   5.521   0.851  0.5701 -0.0008  0.1784
 4880TIP3    H236276   3.276   5.377   0.894 -0.0932 -0.0664  0.3213
 4881TIP3   OH236277   0.602   2.845   0.428 -0.4454 -0.3295  0.3276
 4881TIP3    H136278   0.533   2.815   0.488 -0.6181 -1.2547 -0.3212
 4881TIP3    H236279   0.669   2.881   0.486 -1.8327  1.4474  0.9380
 4882TIP3   OH236280   2.965   3.051   7.887 -0.5680  0.4155 -0.0205
 4882TIP3    H136281   3.001   3.038   7.975  0.8626 -0.0415 -0.6577
 4882TIP3    H236282   2.911   3.130   7.896 -0.0819  0.6402  1.1639
 4883TIP3   OH236283   4.398   5.459   1.632 -0.2533  0.2743  0.4264
 4883TIP3    H136284   4.397   5.481   1.725  0.2654 -0.2916  0.5734
 4883TIP3    H236285   4.355   5.533   1.589  1.2023  1.4598  0.9283
 4884TIP3   OH236286   1.560   6.708   6.468  0.1486  0.1684 -0.1770
 4884TIP3    H136287   1.536   6.625   6.511 -1.3658 -0.7118 -2.5182
 4884TIP3    H236288   1.492   6.769   6.496 -0.9043 -0.4341 -1.3241
 4885TIP3   OH236289   3.703   3.271   0.477 -0.2449  0.5500 -0.5918
 4885TIP3    H136290   3.724   3.362   0.499 -0.8402  0.6871 -0.5626
 4885TIP3    H236291   3.618   3.277   0.433 -1.6657 -0.2601  1.8651
 4886TIP3   OH236292   2.973   4.971   1.502 -0.1669 -0.3408  0.0728
 4886TIP3    H136293   3.020   4.977   1.585 -1.0460  0.4662  0.5273
 4886TIP3    H236294   2.889   4.931   1.525  0.6385 -2.7835 -0.8954
 4887TIP3   OH236295   1.445   0.043   6.397  0.2598  0.2189 -0.1290
 4887TIP3    H136296   1.481   0.122   6.357  1.1955  0.0021  0.2612
 4887TIP3    H236297   1.517   0.007   6.448 -0.2075 -0.7960 -0.1599
 4888TIP3   OH236298   4.932   6.793   6.336  0.4843  0.1449 -0.0159
 4888TIP3    H136299   4.880   6.845   6.275  0.1281  1.6989  1.5292
 4888TIP3    H236300   4.957   6.716   6.287  1.3397  1.9322 -2.5797
 4889TIP3   OH236301   1.004   0.841   2.184  0.0090  0.1208  0.3893
 4889TIP3    H136302   1.094   0.871   2.192 -0.4800  2.1650 -0.9862
 4889TIP3    H236303   0.958   0.915   2.144 -2.4277 -0.6006  1.6796
 4890TIP3   OH236304   6.553   5.073   0.014  0.1144  0.4696 -0.0585
 4890TIP3    H136305   6.528   5.126  -0.062  2.0786  1.2658 -0.2237
 4890TIP3    H236306   6.471   5.036   0.046 -0.9762  1.4583 -1.5680
 4891TIP3   OH236307   1.982   4.104   2.036  0.2610  0.1834 -0.6058
 4891TIP3    H136308   2.063   4.061   2.009  1.2347  1.7882 -0.3866
 4891TIP3    H236309   1.963   4.069   2.123 -0.1908 -1.3790 -1.2995
 4892TIP3   OH236310   4.301   3.478   7.668 -0.7500 -0.4364 -0.6719
 4892TIP3    H136311   4.232   3.468   7.602 -0.5482 -0.1336 -0.9310
 4892TIP3    H236312   4.375   3.429   7.632 -0.5932 -0.1511 -0.7377
 4893TIP3   OH236313   5.308   4.790   7.425 -0.0492  0.2940 -0.2391
 4893TIP3    H136314   5.260   4.872   7.438  1.2957  1.0403  0.1515
 4893TIP3    H236315   5.240   4.723   7.415 -1.1577  1.3617  0.0482
 4894TIP3   OH236316   0.169   5.670   0.515 -0.1012 -0.8319 -0.0940
 4894TIP3    H136317   0.227   5.687   0.589 -0.5044 -0.8639  0.2346
 4894TIP3    H236318   0.094   5.728   0.529  0.3344  0.0030 -1.0871
 4895TIP3   OH236319   6.961   4.696   1.091 -0.3215 -0.6847  0.3194
 4895TIP3    H136320   7.042   4.742   1.070 -0.1310 -1.4166 -0.5837
 4895TIP3    H236321   6.917   4.684   1.007 -2.2468  1.2394  0.9375
 4896TIP3   OH236322   3.690   1.879   0.823  0.3013  0.1662  0.2360
 4896TIP3    H136323   3.751   1.859   0.753 -0.1444 -0.9420  0.1402
 4896TIP3    H236324   3.657   1.793   0.851 -1.5443  0.7365 -0.0295
 4897TIP3   OH236325   2.061   2.615   0.165  0.0365  0.3552 -0.6892
 4897TIP3    H136326   2.128   2.562   0.121  1.6048  2.2577 -0.7528
 4897TIP3    H236327   2.042   2.569   0.246  2.5081  0.4271 -0.0010
 4898TIP3   OH236328   3.972   4.474   0.758 -1.0756  0.0772 -0.3206
 4898TIP3    H136329   4.068   4.470   0.754 -1.0269  1.2983 -1.2308
 4898TIP3    H236330   3.947   4.400   0.812  0.4047 -0.1095  0.1664
 4899TIP3   OH236331   2.287   5.762   1.126  0.0218 -0.3452 -0.1152
 4899TIP3    H136332   2.292   5.797   1.037 -3.1533  2.4208  0.5805
 4899TIP3    H236333   2.236   5.682   1.117  0.0422 -0.2873 -0.8213
 4900TIP3   OH236334   2.722   4.039   6.146  0.7143 -0.3825  0.0858
 4900TIP3    H136335   2.808   4.080   6.137  2.6292 -3.7490  1.5661
 4900TIP3    H236336   2.692   4.066   6.233  0.1428  0.8454 -0.4560
 4901TIP3   OH236337   1.649   1.982   0.665  0.1593 -0.0093  0.4934
 4901TIP3    H136338   1.706   2.009   0.593  0.5217 -2.0742 -0.0744
 4901TIP3    H236339   1.561   1.977   0.626 -0.0693  1.1991  0.8368
 4902TIP3   OH236340   3.551   5.849   6.167  0.5730 -0.2396 -0.3180
 4902TIP3    H136341   3.459   5.859   6.144  0.1178  0.0375  1.4478
 4902TIP3    H236342   3.594   5.825   6.085 -1.0638 -0.3986 -1.1752
 4903TIP3   OH236343   2.029   1.514   0.498 -0.4281 -0.0010 -0.1743
 4903TIP3    H136344   2.022   1.600   0.457  1.1714 -0.5706 -1.7988
 4903TIP3    H236345   2.028   1.453   0.424 -1.0657 -1.3556  0.9107
 4904TIP3   OH236346   1.679   4.482   6.373 -0.0413 -0.6835  0.4189
 4904TIP3    H136347   1.735   4.559   6.373  0.6462 -1.1626  1.1650
 4904TIP3    H236348   1.647   4.475   6.283  3.6263 -2.1786 -0.9929
 4905TIP3   OH236349   0.050   3.421   1.328 -0.3446  0.2467 -0.1079
 4905TIP3    H136350   0.145   3.422   1.318 -0.0657  0.7372  2.0978
 4905TIP3    H236351   0.031   3.496   1.385 -1.9371 -0.3854  0.2497
 4906TIP3   OH236352   1.685   2.190   0.859  0.5567  0.4453 -0.6116
 4906TIP3    H136353   1.626   2.249   0.813  0.1594  0.1540 -0.4749
 4906TIP3    H236354   1.685   2.110   0.806  0.1973  0.1562 -0.1748
 4907TIP3   OH236355   2.622   7.057   7.582  0.1077  0.0781 -0.3533
 4907TIP3    H136356   2.615   7.089   7.672 -1.1794  1.0755 -0.7650
 4907TIP3    H236357   2.673   7.125   7.537  1.4436 -0.8091 -0.2281
 4908TIP3   OH236358   7.191   0.796   1.013 -0.1094 -0.3157  0.3964
 4908TIP3    H136359   7.162   0.720   1.064  0.4287 -1.1671 -0.5172
 4908TIP3    H236360   7.202   0.761   0.924  1.6997  0.4567  0.2888
 4909TIP3   OH236361   4.381   1.302   7.649  0.0622 -0.1303 -0.3084
 4909TIP3    H136362   4.452   1.239   7.652  0.2651  0.1062 -0.0979
 4909TIP3    H236363   4.302   1.250   7.662  0.3022 -0.2169  0.9274
 4910TIP3   OH236364   2.430   3.617   0.902 -0.2811 -0.2964  0.1223
 4910TIP3    H136365   2.412   3.610   0.808  2.0664  2.7403 -0.7321
 4910TIP3    H236366   2.351   3.657   0.938 -0.0827  1.5445 -1.2698
 4911TIP3   OH236367   4.688   6.585   6.891 -0.1298  0.3286 -0.1622
 4911TIP3    H136368   4.638   6.664   6.913  0.5792  1.0662 -1.1313
 4911TIP3    H236369   4.772   6.597   6.935  0.3054  0.5427 -1.0384
 4912TIP3   OH236370   2.786   1.995   1.349  0.1014  0.2113 -0.0349
 4912TIP3    H136371   2.731   2.038   1.413  1.5781  2.0032  0.1021
 4912TIP3    H236372   2.753   2.025   1.264 -1.8557 -2.1637 -0.2249
 4913TIP3   OH236373   6.964   4.117   7.557  0.0602 -0.2697 -0.2822
 4913TIP3    H136374   6.899   4.047   7.548 -0.8861  0.0964  2.6081
 4913TIP3    H236375   6.920   4.195   7.523 -1.9856  0.3927  3.3848
 4914TIP3   OH236376   2.199   1.318   1.076 -0.4752 -0.5126 -0.3549
 4914TIP3    H136377   2.227   1.409   1.071  2.1376 -1.2392 -0.5436
 4914TIP3    H236378   2.123   1.313   1.017  0.4336  1.1499 -1.7740
 4915TIP3   OH236379   5.226   0.964   0.664 -0.0702  0.2665 -0.0571
 4915TIP3    H136380   5.227   1.025   0.738 -0.2323  0.5115 -0.2565
 4915TIP3    H236381   5.154   0.995   0.609 -0.0719 -0.0312 -0.2219
 4916TIP3   OH236382   3.477   4.445   1.584  0.0609 -0.1907 -0.9261
 4916TIP3    H136383   3.493   4.522   1.639  2.1732  0.6721 -2.5695
 4916TIP3    H236384   3.429   4.480   1.509 -0.4749 -0.8246 -0.8820
 4917TIP3   OH236385   1.849   6.641   7.161  0.2943  0.0560 -0.0911
 4917TIP3    H136386   1.794   6.714   7.190 -0.3804 -0.5673  0.2150
 4917TIP3    H236387   1.858   6.653   7.067 -0.0849  0.3458 -0.0916
 4918TIP3   OH236388   4.198   6.558   1.193 -0.2508 -0.2869 -0.0712
 4918TIP3    H136389   4.274   6.549   1.134 -0.1011 -0.5887  0.1689
 4918TIP3    H236390   4.225   6.626   1.255 -0.1502 -0.4490  0.0606
 4919TIP3   OH236391   3.677   3.424   7.782  0.3477  0.0796  0.3891
 4919TIP3    H136392   3.666   3.418   7.687  0.1815  1.1336  0.3366
 4919TIP3    H236393   3.678   3.333   7.812  2.3055 -0.3562 -0.8254
 4920TIP3   OH236394   5.458   5.635   5.904 -0.2084 -0.2204  0.7478
 4920TIP3    H136395   5.539   5.686   5.914 -0.5378  0.0501  2.3118
 4920TIP3    H236396   5.458   5.576   5.979 -1.3152 -0.4269  0.5999
 4921TIP3   OH236397   7.139   5.264   1.588 -0.2921 -0.1658 -0.6139
 4921TIP3    H136398   7.080   5.190   1.573 -1.1579  0.5260 -0.7049
 4921TIP3    H236399   7.130   5.284   1.681  0.0528 -0.2624 -0.5580
 4922TIP3   OH236400   1.067   2.563   2.024 -0.4028  0.2395  0.0492
 4922TIP3    H136401   1.050   2.529   2.112 -1.0762  0.3268 -0.0425
 4922TIP3    H236402   1.078   2.657   2.036  0.1663  0.1642  0.1278
 4923TIP3   OH236403   3.272   3.696   6.090  0.3145 -0.3668  0.1788
 4923TIP3    H136404   3.290   3.783   6.124  0.4628 -0.9537  1.7440
 4923TIP3    H236405   3.186   3.703   6.048  0.0396  0.4014  0.8489
 4924TIP3   OH236406   6.303   3.651   6.310  0.2833 -0.7815  0.1862
 4924TIP3    H136407   6.267   3.565   6.329 -2.5042  0.0638 -0.7425
 4924TIP3    H236408   6.302   3.657   6.214 -1.9168  1.0996  0.2490
 4925TIP3   OH236409   4.213   4.633   0.993  0.3868  0.0742  0.1223
 4925TIP3    H136410   4.207   4.559   0.933 -1.1176  0.2950 -0.0276
 4925TIP3    H236411   4.230   4.708   0.936  1.7451 -0.0953  0.2600
 4926TIP3   OH236412   6.822   6.343   7.690  0.2404 -0.4040 -0.0837
 4926TIP3    H136413   6.856   6.398   7.620  0.4572  2.0446  1.8146
 4926TIP3    H236414   6.890   6.347   7.758 -0.2800 -2.0961  0.5819
 4927TIP3   OH236415   1.437   0.002   0.066  0.4938  0.4543  0.1608
 4927TIP3    H136416   1.415  -0.071   0.123  0.3378  0.2720 -0.1366
 4927TIP3    H236417   1.465   0.071   0.127  1.3107 -0.0756  0.4065
 4928TIP3   OH236418   3.438   5.099   6.104 -0.0894 -0.4544  0.1606
 4928TIP3    H136419   3.470   5.061   6.022 -0.4023 -0.2706 -0.0478
 4928TIP3    H236420   3.431   5.192   6.087 -1.0878 -0.5314  0.0778
 4929TIP3   OH236421   0.587   3.844   1.059  0.1944  0.0497  0.5119
 4929TIP3    H136422   0.618   3.934   1.049  0.6546 -0.0739  0.8123
 4929TIP3    H236423   0.571   3.815   0.969  0.6999  0.2043  0.3673
 4930TIP3   OH236424   5.389   0.912   1.151  0.3241  0.1507  0.2876
 4930TIP3    H136425   5.338   0.849   1.204 -0.0729 -0.5032 -0.8307
 4930TIP3    H236426   5.403   0.866   1.068 -0.1953  1.6463 -0.6563
 4931TIP3   OH236427   1.101   3.494   0.341  0.0803  0.0255 -0.6340
 4931TIP3    H136428   1.181   3.520   0.387  0.3194  0.7659 -1.4546
 4931TIP3    H236429   1.132   3.455   0.259 -0.4008  0.9244 -1.2641
 4932TIP3   OH236430   1.380   0.306   1.079 -0.6470 -0.1438 -0.0745
 4932TIP3    H136431   1.460   0.354   1.058 -1.4946  0.5891 -1.8305
 4932TIP3    H236432   1.398   0.264   1.163  1.0806  1.0959  0.2154
 4933TIP3   OH236433   0.451   0.511   6.641  0.1042  0.0740 -0.5262
 4933TIP3    H136434   0.489   0.453   6.575  1.1175 -1.9586  1.6808
 4933TIP3    H236435   0.522   0.571   6.664 -0.5889  1.5312 -1.9750
 4934TIP3   OH236436   1.087   0.251   0.658  0.0346  0.1641 -0.8923
 4934TIP3    H136437   1.064   0.311   0.588  0.7612 -0.5412 -1.7575
 4934TIP3    H236438   1.140   0.303   0.718 -1.6900  1.1317 -0.1376
 4935TIP3   OH236439   4.735   3.029   1.749 -0.2338 -0.2111  0.2348
 4935TIP3    H136440   4.745   3.097   1.815 -1.4116  0.6452 -0.4307
 4935TIP3    H236441   4.697   3.074   1.673 -1.9983 -1.7669  0.1173
 4936TIP3   OH236442   3.703   4.224   0.374  0.2764  0.5568  0.3900
 4936TIP3    H136443   3.751   4.153   0.330 -0.7820  0.9131 -1.4495
 4936TIP3    H236444   3.693   4.291   0.307  0.4775  2.1123  1.8447
 4937TIP3   OH236445   5.408   0.265   6.422  0.0526 -0.0600  0.2806
 4937TIP3    H136446   5.323   0.220   6.432  0.5742 -0.9747  0.7743
 4937TIP3    H236447   5.385   0.357   6.408 -0.9950 -0.0262  1.9459
 4938TIP3   OH236448   3.488   2.767   6.854 -0.3959  0.8257 -0.4140
 4938TIP3    H136449   3.545   2.834   6.817 -0.2228  0.8884 -0.0384
 4938TIP3    H236450   3.547   2.710   6.902 -0.8395  1.8743  1.4565
 4939TIP3   OH236451   5.724   3.368   7.176 -0.2999 -0.0759  0.1056
 4939TIP3    H136452   5.680   3.299   7.226 -0.0975 -1.2992 -1.3378
 4939TIP3    H236453   5.667   3.444   7.184 -1.2685 -0.8270  0.5247
 4940TIP3   OH236454   6.072   3.243   7.926 -0.2132 -0.4853  0.1844
 4940TIP3    H136455   5.994   3.281   7.967  0.2639  0.4320  0.2508
 4940TIP3    H236456   6.145   3.293   7.962  0.4651 -1.6984  0.5441
 4941TIP3   OH236457   4.894   6.677   1.189  0.0211  0.6442 -0.3838
 4941TIP3    H136458   4.987   6.678   1.210 -0.3880  0.8347  1.6412
 4941TIP3    H236459   4.858   6.753   1.234 -1.1781  0.4088 -0.8879
 4942TIP3   OH236460   0.185   4.063   7.549  0.5063 -0.0167 -0.0305
 4942TIP3    H136461   0.221   4.143   7.586 -1.0597  0.4600  0.5477
 4942TIP3    H236462   0.172   4.083   7.456 -0.7931  0.7773  0.2985
 4943TIP3   OH236463   2.778   6.838   6.475 -0.2300  0.2079 -0.6134
 4943TIP3    H136464   2.750   6.908   6.416 -0.1791 -0.9361 -2.0571
 4943TIP3    H236465   2.703   6.824   6.533 -1.1339 -0.0552 -1.7946
 4944TIP3   OH236466   5.173   4.346   1.677  0.0772  0.3101  0.2461
 4944TIP3    H136467   5.236   4.277   1.659  1.9534  2.1491 -0.5822
 4944TIP3    H236468   5.158   4.341   1.772  0.6428 -0.8137  0.2877
 4945TIP3   OH236469   2.521   6.210   5.890  0.0181 -0.1886  0.3395
 4945TIP3    H136470   2.472   6.287   5.860 -1.4750 -1.4947 -0.8215
 4945TIP3    H236471   2.517   6.150   5.815  0.6533 -1.5978  1.3997
 4946TIP3   OH236472   7.203   6.182   0.338 -0.1537 -0.1670 -0.1598
 4946TIP3    H136473   7.276   6.120   0.336 -1.4363 -1.7611 -1.9511
 4946TIP3    H236474   7.146   6.150   0.408 -0.4629 -0.5979 -0.6030
 4947TIP3   OH236475   2.932   2.345   0.054 -0.1435 -0.2089 -0.2094
 4947TIP3    H136476   2.900   2.264   0.094  1.6912 -0.3270  1.1585
 4947TIP3    H236477   2.862   2.409   0.071 -0.9324 -1.1101  0.0687
 4948TIP3   OH236478   4.532   1.992   5.907 -0.2079  0.8034  0.0120
 4948TIP3    H136479   4.484   1.910   5.904  0.2377  0.4975  0.9696
 4948TIP3    H236480   4.620   1.970   5.875  0.1061  0.7533  0.8776
 4949TIP3   OH236481   0.954   2.849   7.962 -0.1793  0.1658 -0.1579
 4949TIP3    H136482   1.042   2.813   7.969  0.4436  1.6876  0.3488
 4949TIP3    H236483   0.911   2.822   8.043 -1.4249 -3.4841 -1.8001
 4950TIP3   OH236484   1.501   6.180   7.630  0.0461  0.0237  0.1750
 4950TIP3    H136485   1.504   6.085   7.641  0.4483 -0.0942 -0.9027
 4950TIP3    H236486   1.564   6.198   7.560 -1.2775  0.9064 -0.8164
 4951TIP3   OH236487   6.164   3.830   1.217  0.2151  0.4505  0.0002
 4951TIP3    H136488   6.138   3.782   1.138 -2.0418  0.4901  0.6569
 4951TIP3    H236489   6.218   3.902   1.184  0.0649 -0.0578 -1.4211
 4952TIP3   OH236490   5.496   2.364   1.366 -0.2021 -0.2011 -0.5888
 4952TIP3    H136491   5.457   2.287   1.326 -0.7278 -0.6966  0.8136
 4952TIP3    H236492   5.510   2.339   1.458 -0.0601  1.2505 -0.1911
 4953TIP3   OH236493   5.829   5.700   7.467 -0.2969  0.0383  0.3682
 4953TIP3    H136494   5.883   5.730   7.540  1.3834 -0.0295 -0.7966
 4953TIP3    H236495   5.877   5.728   7.388 -1.3020 -1.1668 -0.7141
 4954TIP3   OH236496   3.763   1.527   1.472 -0.2950  0.2495  0.1359
 4954TIP3    H136497   3.818   1.524   1.393  0.9904  0.2985  0.9983
 4954TIP3    H236498   3.817   1.487   1.540 -2.2413 -1.9594  0.5388
 4955TIP3   OH236499   3.524   2.454   7.793  0.4421 -0.2218  0.1980
 4955TIP3    H136500   3.493   2.543   7.777  0.9626  0.1959  1.3684
 4955TIP3    H236501   3.601   2.465   7.850  0.3178 -1.4287  0.6400
 4956TIP3   OH236502   4.418   3.538   6.456 -0.6459  0.0161  0.3671
 4956TIP3    H136503   4.338   3.487   6.462 -0.5742 -0.0095  1.1298
 4956TIP3    H236504   4.487   3.473   6.447 -0.5844 -0.0186  1.0402
 4957TIP3   OH236505   0.635   4.597   0.523 -0.1748 -0.5032  0.0397
 4957TIP3    H136506   0.686   4.601   0.442 -1.5265 -0.6744 -0.8641
 4957TIP3    H236507   0.549   4.563   0.495 -0.5716 -0.8673  1.5987
 4958TIP3   OH236508   6.773   0.283   7.312  0.0047  0.1498 -0.2735
 4958TIP3    H136509   6.741   0.347   7.376 -0.8873  2.4533 -2.8116
 4958TIP3    H236510   6.745   0.319   7.227  1.9073 -2.2457 -2.0344
 4959TIP3   OH236511   1.876   3.322   1.367 -1.1125  0.1979  0.0071
 4959TIP3    H136512   1.924   3.289   1.443 -0.3809 -1.1271 -1.0006
 4959TIP3    H236513   1.926   3.400   1.340 -1.4528  0.7588  0.9300
 4960TIP3   OH236514   6.700   2.016   7.751 -0.0093  0.0587  0.7419
 4960TIP3    H136515   6.646   2.074   7.697  0.7243 -0.4346 -0.5639
 4960TIP3    H236516   6.691   1.930   7.711  1.6686 -0.0518  0.5110
 4961TIP3   OH236517   4.970   6.832   7.245  0.1179  0.2004  0.3075
 4961TIP3    H136518   4.960   6.813   7.338 -2.0274 -1.0449 -0.1118
 4961TIP3    H236519   4.911   6.906   7.229 -0.6410 -0.5159 -0.3005
 4962TIP3   OH236520   4.619   2.237   5.745 -0.1308 -0.0085  0.3379
 4962TIP3    H136521   4.546   2.293   5.774 -0.3183  0.1798 -0.4741
 4962TIP3    H236522   4.597   2.150   5.777  0.1418  0.3665  1.5865
 4963TIP3   OH236523   2.832   5.496   2.190 -0.4885 -0.1172  0.3876
 4963TIP3    H136524   2.771   5.462   2.125  0.7193  0.4232 -1.0743
 4963TIP3    H236525   2.905   5.434   2.190  0.8008  1.3282 -0.8374
 4964TIP3   OH236526   0.786   5.886   0.910 -0.6642 -0.0876  0.2641
 4964TIP3    H136527   0.703   5.930   0.894 -1.1924 -0.8085  0.9280
 4964TIP3    H236528   0.780   5.803   0.862  1.1813  1.3565 -2.8098
 4965TIP3   OH236529   4.281   3.908   5.885 -0.4988  0.3056  0.2510
 4965TIP3    H136530   4.261   3.822   5.849 -2.2348  2.1113 -3.6772
 4965TIP3    H236531   4.375   3.919   5.873 -0.4274 -0.6367 -0.1139
 4966TIP3   OH236532   6.477   1.660   1.232 -0.1707 -0.0792  0.1485
 4966TIP3    H136533   6.488   1.594   1.163 -0.8706 -1.1766  1.0554
 4966TIP3    H236534   6.567   1.680   1.261  0.1188  0.2539 -0.9196
 4967TIP3   OH236535   0.878   1.568   7.169  0.0860  0.1309  0.1079
 4967TIP3    H136536   0.783   1.562   7.178  0.1963 -1.4423  0.5383
 4967TIP3    H236537   0.910   1.586   7.257  0.1860  0.8450 -0.0682
 4968TIP3   OH236538   4.192   2.903   7.529 -0.3688  0.4999  0.0097
 4968TIP3    H136539   4.116   2.961   7.528  0.8167  2.2162  2.1994
 4968TIP3    H236540   4.183   2.854   7.610  0.0234 -0.5116 -0.5504
 4969TIP3   OH236541   1.175   5.949   7.928  0.0261  0.0530 -0.1213
 4969TIP3    H136542   1.155   6.041   7.946 -0.3762  0.0006 -0.2706
 4969TIP3    H236543   1.170   5.906   8.013  0.9428  0.2951  0.0611
 4970TIP3   OH236544   3.127   0.490   6.958  0.0508  0.2382 -0.0393
 4970TIP3    H136545   3.124   0.574   7.004 -1.4162  0.8457 -1.1586
 4970TIP3    H236546   3.217   0.459   6.971  0.1706  1.1943  1.7394
 4971TIP3   OH236547   4.874   5.309   0.112 -0.6134 -0.5626 -0.0445
 4971TIP3    H136548   4.931   5.380   0.085 -1.2532  0.2730  0.7256
 4971TIP3    H236549   4.860   5.258   0.033 -3.8313  2.7613 -1.9180
 4972TIP3   OH236550   3.337   7.146   6.082 -0.0966  0.3630 -0.5803
 4972TIP3    H136551   3.349   7.065   6.033  0.2103  0.7201 -1.1025
 4972TIP3    H236552   3.320   7.213   6.015 -1.6833  0.5072 -0.0818
 4973TIP3   OH236553   1.094   0.572   6.075 -0.2066 -0.2160 -0.0217
 4973TIP3    H136554   1.168   0.630   6.057  0.6924 -1.3850 -0.1626
 4973TIP3    H236555   1.054   0.557   5.989 -2.8646  3.2061  0.3564
 4974TIP3   OH236556   6.078   1.467   0.635 -0.3438 -0.6433 -0.1451
 4974TIP3    H136557   6.050   1.416   0.711  1.1335  1.0469  1.6562
 4974TIP3    H236558   6.010   1.534   0.624  0.3636  0.2909  0.9576
 4975TIP3   OH236559   1.457   3.697   7.652 -0.7779  0.6607 -0.1733
 4975TIP3    H136560   1.493   3.661   7.571  1.6106 -0.2973  1.1903
 4975TIP3    H236561   1.516   3.770   7.674 -0.1122 -0.3523  1.6704
 4976TIP3   OH236562   6.191   6.469   5.963 -0.5391 -0.3683 -0.0601
 4976TIP3    H136563   6.224   6.484   5.875  0.4866  0.6545  0.4835
 4976TIP3    H236564   6.109   6.420   5.949 -0.6155  0.1328 -1.5883
 4977TIP3   OH236565   4.365   0.233   2.253  0.1633  0.9664 -0.3213
 4977TIP3    H136566   4.455   0.241   2.283 -0.0094 -0.4571  0.6822
 4977TIP3    H236567   4.322   0.313   2.284  0.6219  0.7316  0.9936
 4978TIP3   OH236568   4.633   3.095   1.058  0.2387  0.4950  0.3527
 4978TIP3    H136569   4.608   3.187   1.070  1.5878  0.6675  2.2212
 4978TIP3    H236570   4.725   3.091   1.082  0.5403 -1.1694 -0.8573
 4979TIP3   OH236571   0.377   2.089   1.153 -0.2894 -0.1054 -0.1534
 4979TIP3    H136572   0.318   2.026   1.111 -1.5881  1.0088 -0.0729
 4979TIP3    H236573   0.460   2.078   1.107 -0.6841 -1.3796 -0.6055
 4980TIP3   OH236574   4.719   3.756   0.811 -0.5552 -0.5774  0.4795
 4980TIP3    H136575   4.722   3.815   0.886 -0.6775 -0.3610  0.3122
 4980TIP3    H236576   4.647   3.787   0.757  0.6035  0.3354 -0.6061
 4981TIP3   OH236577   1.255   1.555   0.012  0.7796 -0.6529 -0.5297
 4981TIP3    H136578   1.240   1.476  -0.039  2.2198 -0.6137 -1.0621
 4981TIP3    H236579   1.315   1.607  -0.041  1.3721 -0.0646  0.6678
 4982TIP3   OH236580   0.736   1.460   1.668 -0.0045 -0.2905 -0.3305
 4982TIP3    H136581   0.643   1.439   1.667  0.0155 -0.4459  0.3657
 4982TIP3    H236582   0.762   1.461   1.576 -0.3156 -1.9434 -0.4654
 4983TIP3   OH236583   0.507   5.877   0.124 -0.1666 -0.4743  0.6192
 4983TIP3    H136584   0.530   5.906   0.212  0.5453  0.3669  0.1745
 4983TIP3    H236585   0.445   5.805   0.137 -1.1082  0.5295  1.7681
 4984TIP3   OH236586   0.305   2.088   0.785  0.2196  0.6042  0.0418
 4984TIP3    H136587   0.278   2.000   0.811  0.2441  0.5857  0.0034
 4984TIP3    H236588   0.227   2.142   0.798  0.0055  0.4506 -0.5845
 4985TIP3   OH236589   5.115   0.180   7.544  0.7793  0.8537  0.2754
 4985TIP3    H136590   5.123   0.122   7.620  0.3124 -1.4312 -1.3274
 4985TIP3    H236591   5.023   0.208   7.546  0.9513  1.4213  0.9306
 4986TIP3   OH236592   2.287   0.932   7.090  0.3352 -0.1285  0.0465
 4986TIP3    H136593   2.263   0.898   7.176  1.0307 -0.4015  0.1340
 4986TIP3    H236594   2.204   0.966   7.054  0.0675  0.1062  0.8670
 4987TIP3   OH236595   6.660   6.254   7.268 -0.0975 -0.1111 -0.1933
 4987TIP3    H136596   6.666   6.265   7.173  4.0565  0.1809 -0.0930
 4987TIP3    H236597   6.655   6.343   7.302 -0.5124 -0.1706 -0.0934
 4988TIP3   OH236598   0.693   6.074   6.764 -0.3978 -0.1964  0.0130
 4988TIP3    H136599   0.613   6.118   6.795 -0.0954 -0.0087  0.5464
 4988TIP3    H236600   0.666   6.028   6.685 -0.5607  1.5624 -1.0127
 4989TIP3   OH236601   6.873   4.761   7.666  0.2955 -0.4146 -0.0941
 4989TIP3    H136602   6.915   4.701   7.729  1.4402 -0.6721 -1.0668
 4989TIP3    H236603   6.853   4.839   7.718  0.9973 -0.7087  0.6496
 4990TIP3   OH236604   4.551   3.144   6.261 -0.3971 -0.3569  0.6205
 4990TIP3    H136605   4.569   3.105   6.176 -0.8768 -0.1783  0.4343
 4990TIP3    H236606   4.605   3.222   6.264  1.5104 -1.6309  1.4876
 4991TIP3   OH236607   6.040   3.220   0.287  0.0825  0.2916  0.1178
 4991TIP3    H136608   6.006   3.277   0.356  1.5293  1.4887 -0.1113
 4991TIP3    H236609   5.995   3.248   0.207 -1.6505 -1.1440  0.5088
 4992TIP3   OH236610   2.325   1.738   0.451 -0.0731  0.2190 -0.2835
 4992TIP3    H136611   2.336   1.659   0.503  1.9109 -0.1396 -1.1416
 4992TIP3    H236612   2.342   1.810   0.513  2.1609 -0.1940 -0.3160
 4993TIP3   OH236613   2.919   0.741   0.335  0.0629 -0.3427  0.9635
 4993TIP3    H136614   2.944   0.740   0.242  0.0747  0.1525  0.9582
 4993TIP3    H236615   2.924   0.833   0.360 -1.7659 -0.2178  0.9607
 4994TIP3   OH236616   6.671   6.830   7.165 -0.2180  0.1389  0.3953
 4994TIP3    H136617   6.658   6.923   7.150 -0.0405  0.2246  0.7464
 4994TIP3    H236618   6.762   6.814   7.140 -0.4612 -0.0971 -0.3762
 4995TIP3   OH236619   6.421   5.503   7.786 -0.5766 -0.0797  0.4756
 4995TIP3    H136620   6.452   5.591   7.807  0.4764 -0.2503 -0.3017
 4995TIP3    H236621   6.397   5.508   7.693  1.5832 -1.1474 -0.2009
 4996TIP3   OH236622   5.615   4.488   0.540 -0.0274 -0.3476  0.0045
 4996TIP3    H136623   5.642   4.502   0.631 -0.6096  0.7525  0.0141
 4996TIP3    H236624   5.697   4.471   0.493  0.6131  1.7479  0.2533
 4997TIP3   OH236625   6.527   1.621   0.812 -0.5448  0.4062  0.3307
 4997TIP3    H136626   6.616   1.611   0.847  0.0342  3.5028 -0.0138
 4997TIP3    H236627   6.472   1.575   0.874  1.1063  0.1391  1.6785
 4998TIP3   OH236628   3.336   4.970   7.505 -0.2579 -0.1193 -0.5960
 4998TIP3    H136629   3.325   4.887   7.551 -1.6017 -0.7658 -2.0192
 4998TIP3    H236630   3.247   4.998   7.484  0.2656 -0.1515 -3.2591
 4999TIP3   OH236631   4.676   2.825   6.026 -0.0952  0.0213  0.0004
 4999TIP3    H136632   4.640   2.912   6.011  1.0985  0.5153 -0.1076
 4999TIP3    H236633   4.718   2.831   6.112  0.4419 -0.2928 -0.2339
 5000TIP3   OH236634   5.123   0.540   1.817 -0.3379 -0.2188 -0.0077
 5000TIP3    H136635   5.185   0.589   1.871 -0.5863  1.5369 -1.2522
 5000TIP3    H236636   5.043   0.536   1.869 -0.3344  0.7692  0.0830
 5001TIP3   OH236637   2.038   5.295   7.637 -0.5077 -0.5083  0.3362
 5001TIP3    H136638   1.976   5.367   7.649  3.6323  3.6845 -0.5560
 5001TIP3    H236639   2.065   5.301   7.545  3.5391  0.3388  1.3614
 5002TIP3   OH236640   4.641   2.726   1.152 -0.4991  0.2573 -0.7314
 5002TIP3    H136641   4.578   2.768   1.093 -1.8019 -0.1008  0.3655
 5002TIP3    H236642   4.645   2.783   1.228  0.9141  0.5318 -0.9746
 5003TIP3   OH236643   3.121   0.864   0.648 -0.1761  0.3401  0.6120
 5003TIP3    H136644   3.183   0.792   0.658 -0.4718 -0.1880 -1.0628
 5003TIP3    H236645   3.108   0.897   0.737  1.4714 -0.3883  1.1592
 5004TIP3   OH236646   5.779   2.676   7.088 -0.2431 -0.0010  0.2206
 5004TIP3    H136647   5.872   2.672   7.067  0.2886  0.5382  2.2662
 5004TIP3    H236648   5.735   2.684   7.003  1.3317 -3.2320 -1.0653
 5005TIP3   OH236649   3.309   2.610   1.441 -0.6930 -0.1248 -0.1313
 5005TIP3    H136650   3.232   2.558   1.417 -1.0220  0.2643  0.0726
 5005TIP3    H236651   3.317   2.599   1.535 -1.6679  1.3897  0.1634
 5006TIP3   OH236652   1.807   3.641   7.020  0.2322 -0.1957 -0.2638
 5006TIP3    H136653   1.805   3.671   6.929 -0.5650  0.2939 -0.0955
 5006TIP3    H236654   1.900   3.640   7.042  0.3944  0.3379 -0.8739
 5007TIP3   OH236655   1.819   2.177   7.661  0.9167 -0.8077 -0.3369
 5007TIP3    H136656   1.779   2.129   7.589  0.4189 -0.9464  0.0191
 5007TIP3    H236657   1.816   2.269   7.634 -0.3837 -0.7281  0.0075
 5008TIP3   OH236658   3.279   1.868   7.654  0.5675 -0.4605 -0.2977
 5008TIP3    H136659   3.365   1.892   7.688  0.2288 -0.1770  0.3810
 5008TIP3    H236660   3.222   1.866   7.731 -0.1639 -0.0666 -0.8134
 5009TIP3   OH236661   5.675   0.758   0.930 -0.3737  0.4817  0.0544
 5009TIP3    H136662   5.620   0.778   0.855 -0.1565  0.8525 -0.0092
 5009TIP3    H236663   5.662   0.665   0.946 -0.7147  0.4853 -0.2042
 5010TIP3   OH236664   2.669   4.869   5.802  0.0487  0.0889 -0.1256
 5010TIP3    H136665   2.611   4.841   5.731  0.0168  1.7867 -0.8232
 5010TIP3    H236666   2.639   4.820   5.879  0.4568 -2.2246 -1.3687
 5011TIP3   OH236667   2.973   5.028   0.451 -0.0062 -0.3056 -0.8724
 5011TIP3    H136668   2.955   5.006   0.360 -1.6155  2.4353 -1.3506
 5011TIP3    H236669   3.039   5.097   0.446  1.1588 -1.3035  0.1825
 5012TIP3   OH236670   7.133   2.043   7.841  0.2625  0.2664 -0.3078
 5012TIP3    H136671   7.131   2.132   7.877 -0.3896  0.4621 -0.7868
 5012TIP3    H236672   7.086   1.990   7.905 -2.1752  0.8733 -1.4389
 5013TIP3   OH236673   2.569   0.870   7.112  0.6669  0.0234  0.1764
 5013TIP3    H136674   2.579   0.829   7.197 -0.7989  0.4352  0.5784
 5013TIP3    H236675   2.502   0.937   7.125 -1.2368 -1.3477 -1.7575
 5014TIP3   OH236676   5.178   2.385   7.854 -0.1444 -0.2276 -0.4828
 5014TIP3    H136677   5.086   2.401   7.833 -0.3237 -0.7444 -0.1029
 5014TIP3    H236678   5.223   2.463   7.823 -0.6005 -0.3284 -1.4195
 5015TIP3   OH236679   3.214   2.366   6.191 -0.0744 -0.9783 -0.1138
 5015TIP3    H136680   3.224   2.426   6.117  1.1451 -1.8770 -0.7306
 5015TIP3    H236681   3.218   2.422   6.269  2.2252 -0.3046 -0.6197
 5016TIP3   OH236682   2.865   0.212   6.044 -0.5851  0.8463  0.4116
 5016TIP3    H136683   2.877   0.293   5.995 -0.2331 -0.9941 -2.8479
 5016TIP3    H236684   2.780   0.178   6.015 -0.9311  0.2087  2.0370
 5017TIP3   OH236685   0.337   3.288   1.320  0.8634  0.1899  0.2054
 5017TIP3    H136686   0.343   3.380   1.292  1.7757  0.6861  1.8623
 5017TIP3    H236687   0.409   3.244   1.275  1.4169  0.6545  0.6182
 5018TIP3   OH236688   5.717   6.922   6.195  0.2699  0.0249  0.3006
 5018TIP3    H136689   5.679   6.844   6.153 -0.2111  0.7222 -0.5761
 5018TIP3    H236690   5.666   6.995   6.160  2.7006  1.0682 -1.2937
 5019TIP3   OH236691   7.137   5.418   7.244 -1.0918 -0.4065  0.4885
 5019TIP3    H136692   7.195   5.416   7.321 -1.3339  0.7528  0.7290
 5019TIP3    H236693   7.057   5.374   7.273 -0.8938 -0.6534  0.6566
 5020TIP3   OH236694   1.272   3.458   6.673 -0.1552  0.3370 -0.4015
 5020TIP3    H136695   1.222   3.539   6.671 -0.7593  0.0105  0.9109
 5020TIP3    H236696   1.336   3.471   6.743 -0.0206 -0.1824 -0.4230
 5021TIP3   OH236697   5.591   3.392   0.074  0.5097 -0.5378  0.4261
 5021TIP3    H136698   5.597   3.430  -0.013 -0.0041  1.2824  1.1436
 5021TIP3    H236699   5.498   3.395   0.096  0.3065 -2.9996  0.2344
 5022TIP3   OH236700   6.041   1.039   1.173  0.1477 -0.2056 -0.6125
 5022TIP3    H136701   6.020   1.118   1.222  0.5643 -0.0452 -0.6856
 5022TIP3    H236702   6.069   1.071   1.087 -0.0822 -0.4555 -0.7832
 5023TIP3   OH236703   1.433   5.820   1.094  0.3254  0.5475  0.1149
 5023TIP3    H136704   1.378   5.789   1.165 -0.5186 -0.3847 -0.9130
 5023TIP3    H236705   1.372   5.864   1.034  0.7810  0.0935 -0.7070
 5024TIP3   OH236706   5.210   5.339   7.422  0.0645 -0.1096  0.4177
 5024TIP3    H136707   5.270   5.269   7.400  1.7119  1.8323 -1.8163
 5024TIP3    H236708   5.258   5.392   7.486  1.9225  2.6215 -2.9003
 5025TIP3   OH236709   5.655   1.085   7.826 -0.4160 -0.3414 -0.2325
 5025TIP3    H136710   5.732   1.114   7.777  0.3798  0.2177  1.2889
 5025TIP3    H236711   5.623   1.008   7.779  0.2613  0.2241 -1.6538
 5026TIP3   OH236712   6.796   6.028   6.461 -0.4370 -0.0824 -0.1750
 5026TIP3    H136713   6.843   6.054   6.540 -2.2563 -1.2364  1.3899
 5026TIP3    H236714   6.808   5.933   6.456 -1.1195 -0.1512 -0.7258
 5027TIP3   OH236715   2.797   0.560   7.452 -0.0327  0.0844  0.1329
 5027TIP3    H136716   2.860   0.490   7.464  0.1981  0.2552 -0.0617
 5027TIP3    H236717   2.797   0.576   7.358 -0.3887  0.0643  0.1301
 5028TIP3   OH236718   0.258   4.695   0.969 -0.2708  0.6036  0.1106
 5028TIP3    H136719   0.333   4.681   1.026 -0.5565  1.0888  0.6198
 5028TIP3    H236720   0.265   4.626   0.903  0.6903  0.7261  0.0682
 5029TIP3   OH236721   1.002   1.440   7.733  0.1427 -0.0488 -0.4007
 5029TIP3    H136722   1.094   1.424   7.753  0.0745  0.8143  0.6626
 5029TIP3    H236723   0.987   1.392   7.651  0.7011 -2.7935  1.0004
 5030TIP3   OH236724   1.680   2.450   7.835 -0.3024 -0.4307 -0.0160
 5030TIP3    H136725   1.745   2.422   7.770  1.4429 -0.4846  1.6451
 5030TIP3    H236726   1.702   2.400   7.913 -1.7700  0.2712  0.8829
 5031TIP3   OH236727   3.870   3.672   0.787  0.7328 -0.1737 -0.1732
 5031TIP3    H136728   3.812   3.595   0.793  0.5164 -0.0677 -0.8152
 5031TIP3    H236729   3.810   3.746   0.774  1.0353 -0.1560 -1.6110
 5032TIP3   OH236730   0.350   2.821   0.883  0.3032 -0.1237  0.0255
 5032TIP3    H136731   0.345   2.726   0.898 -1.9370  0.1627  1.4650
 5032TIP3    H236732   0.347   2.860   0.970  3.0710  1.3145 -0.4081
 5033TIP3   OH236733   2.018   4.168   6.779  0.5595 -0.0560 -0.4138
 5033TIP3    H136734   1.998   4.095   6.721  2.2528  0.0323 -1.1620
 5033TIP3    H236735   2.018   4.245   6.722  1.6831  0.1058 -0.2175
 5034TIP3   OH236736   2.608   1.985   5.912  0.4636  0.0437  0.3427
 5034TIP3    H136737   2.697   2.009   5.937  0.7303 -1.0166  0.4893
 5034TIP3    H236738   2.579   2.054   5.853  0.9162  1.0547  1.2630
 5035TIP3   OH236739   4.692   0.163   1.717  0.1022 -0.3524 -0.1390
 5035TIP3    H136740   4.680   0.102   1.790  0.8357  0.1569  0.4242
 5035TIP3    H236741   4.660   0.247   1.752  0.5881 -0.0756 -0.3606
 5036TIP3   OH236742   3.703   0.564   5.999 -0.4545 -0.7096 -0.2585
 5036TIP3    H136743   3.678   0.541   5.910 -0.9719 -2.3295  0.2625
 5036TIP3    H236744   3.757   0.642   5.990 -3.8672  1.7457 -1.6752
 5037TIP3   OH236745   2.153   5.894   1.919  0.3141 -0.0788 -0.3591
 5037TIP3    H136746   2.077   5.903   1.976 -0.7578  1.0014 -1.8706
 5037TIP3    H236747   2.128   5.827   1.856  0.6993  0.1290 -0.7392
 5038TIP3   OH236748   7.022   4.452   5.937 -0.1305 -0.0208 -0.8481
 5038TIP3    H136749   6.956   4.498   5.989  0.4417  0.7688 -0.7989
 5038TIP3    H236750   6.976   4.423   5.859 -0.7382 -0.2391 -0.4123
 5039TIP3   OH236751   2.343   2.332   0.722 -0.0121  0.5054 -0.3306
 5039TIP3    H136752   2.260   2.377   0.735  0.1814  0.8515 -0.2677
 5039TIP3    H236753   2.333   2.287   0.638 -0.6810 -0.4153  0.2211
 5040TIP3   OH236754   1.233   2.699   7.717  0.1245 -0.5076  0.5352
 5040TIP3    H136755   1.219   2.712   7.811  1.7306 -0.1737  0.7710
 5040TIP3    H236756   1.318   2.655   7.713 -0.3151 -1.2717 -0.7357
 5041TIP3   OH236757   4.145   4.150   0.423 -0.3242 -0.0657  0.2825
 5041TIP3    H136758   4.090   4.197   0.486 -0.1423  1.3814 -0.5985
 5041TIP3    H236759   4.121   4.186   0.338  0.6808 -0.7218 -0.2985
 5042TIP3   OH236760   5.185   4.151   6.699 -0.0340 -0.0984  0.0791
 5042TIP3    H136761   5.167   4.064   6.663  0.9830 -0.0772 -0.4991
 5042TIP3    H236762   5.260   4.139   6.756 -1.0061  0.0722  1.4411
 5043TIP3   OH236763   1.257   6.910   7.656  0.8587 -0.0059 -0.5956
 5043TIP3    H136764   1.295   6.956   7.730 -2.3931  1.3381  0.4259
 5043TIP3    H236765   1.316   6.930   7.583  2.0933  1.8937  0.8189
 5044TIP3   OH236766   0.660   3.474   6.090 -0.1775 -0.6370 -0.1692
 5044TIP3    H136767   0.609   3.474   6.009  0.1341  0.1288 -0.3734
 5044TIP3    H236768   0.751   3.463   6.061  0.0160  0.3819  0.0112
 5045TIP3   OH236769   1.666   3.340   2.085  0.2110  0.4003  0.5562
 5045TIP3    H136770   1.670   3.257   2.132  2.4463 -1.0166 -1.8545
 5045TIP3    H236771   1.599   3.326   2.019  0.6866  0.4180  0.0599
 5046TIP3   OH236772   4.161   5.475   6.462 -0.4778  0.5978 -0.3237
 5046TIP3    H136773   4.155   5.385   6.431 -1.8331  0.3406  0.6066
 5046TIP3    H236774   4.183   5.467   6.555 -1.4419  1.1736 -0.0253
 5047TIP3   OH236775   4.461   1.787   6.215 -0.0007  0.7189 -0.1431
 5047TIP3    H136776   4.535   1.772   6.156 -0.3449 -0.0404 -0.4030
 5047TIP3    H236777   4.477   1.729   6.289 -0.4779  0.3273 -0.3394
 5048TIP3   OH236778   2.451   3.772   6.468  0.3345 -1.0140  0.3356
 5048TIP3    H136779   2.361   3.802   6.480  0.2736 -0.9460 -0.2671
 5048TIP3    H236780   2.453   3.736   6.379  0.8085 -1.3504  0.4801
 5049TIP3   OH236781   3.723   2.946   0.409  0.0195 -0.4752 -0.0550
 5049TIP3    H136782   3.666   2.978   0.339  0.1126 -1.2659 -0.5005
 5049TIP3    H236783   3.671   2.879   0.454 -0.3934  0.6629  1.2466
 5050TIP3   OH236784   6.442   4.187   0.837  0.1040 -0.2255  0.0656
 5050TIP3    H136785   6.530   4.187   0.876  0.2844  0.8443 -0.3125
 5050TIP3    H236786   6.420   4.279   0.828 -1.8284 -0.4640  1.8189
 5051TIP3   OH236787   2.883   0.118   7.981  0.7684 -0.6857  0.1043
 5051TIP3    H136788   2.902   0.200   8.026  0.1244 -1.3465  1.6631
 5051TIP3    H236789   2.928   0.125   7.897 -1.8163  2.5897 -1.2400
 5052TIP3   OH236790   3.482   4.396   1.947 -0.0930 -0.3415 -0.1178
 5052TIP3    H136791   3.494   4.458   1.875 -0.3453 -0.2985 -0.1259
 5052TIP3    H236792   3.533   4.432   2.019 -1.0915  0.4532  0.2215
 5053TIP3   OH236793   4.821   0.997   7.805 -0.2676 -0.3870  0.0079
 5053TIP3    H136794   4.788   0.915   7.841  0.5399 -0.4174  0.7124
 5053TIP3    H236795   4.809   1.061   7.876  0.3281 -0.2068 -0.0414
 5054TIP3   OH236796   4.230   4.299   1.346 -0.4389 -0.0525 -0.0980
 5054TIP3    H136797   4.253   4.263   1.260 -1.2718 -3.0300  0.7985
 5054TIP3    H236798   4.145   4.341   1.333  0.1974  1.0008 -1.0296
 5055TIP3   OH236799   6.105   2.964   7.945 -0.1241 -0.4498 -0.5305
 5055TIP3    H136800   6.091   3.055   7.918 -1.3376  0.4018  2.5908
 5055TIP3    H236801   6.200   2.953   7.947  0.0674 -0.1797 -3.4478
 5056TIP3   OH236802   2.993   2.703   1.439 -0.4242  0.3056 -0.5610
 5056TIP3    H136803   3.036   2.684   1.523 -0.3537  1.3400 -0.3454
 5056TIP3    H236804   2.913   2.751   1.464 -1.1980 -0.7137 -1.0119
 5057TIP3   OH236805   0.006   2.360   7.399 -0.6643  0.3371  0.0028
 5057TIP3    H136806  -0.088   2.358   7.379 -1.0561  0.8999  1.6088
 5057TIP3    H236807   0.012   2.413   7.478  0.6969 -1.9154  1.5133
 5058TIP3   OH236808   3.279   3.368   7.327 -0.3634  0.0208  0.0257
 5058TIP3    H136809   3.313   3.426   7.260  2.0104  0.7638  1.7170
 5058TIP3    H236810   3.212   3.419   7.372 -0.8743  0.0738 -0.7804
 5059TIP3   OH236811   2.557   1.844   7.528 -0.4543 -0.2893 -0.5221
 5059TIP3    H136812   2.646   1.870   7.549 -0.3317 -0.1164 -1.2330
 5059TIP3    H236813   2.566   1.784   7.453 -0.7882 -1.7508  0.5455
 5060TIP3   OH236814   0.997   0.413   7.050  0.9532 -0.2236 -0.2894
 5060TIP3    H136815   0.972   0.495   7.008  0.8880 -0.1398 -0.0844
 5060TIP3    H236816   1.089   0.425   7.073  1.5581 -0.9505 -2.0836
 5061TIP3   OH236817   1.876   0.248   0.094 -0.0613  0.4503 -0.0132
 5061TIP3    H136818   1.883   0.295   0.011  2.7630  1.0128  0.4145
 5061TIP3    H236819   1.905   0.312   0.160 -0.6440 -0.4840  1.1814
 5062TIP3   OH236820   4.985   5.925   7.794 -0.3134  0.0846  0.3882
 5062TIP3    H136821   4.908   5.969   7.758  0.5657  0.8313 -0.6348
 5062TIP3    H236822   5.022   5.990   7.854  0.5203  0.4363 -0.4928
 5063TIP3   OH236823   0.100   5.965   5.584  0.1032  0.2672  0.0640
 5063TIP3    H136824   0.152   5.885   5.592 -1.1720 -0.4638  1.5177
 5063TIP3    H236825   0.154   6.033   5.624  0.1467 -0.3898  1.1555
 5064TIP3   OH236826   6.871   4.461   0.665 -0.6054  0.1313  0.0946
 5064TIP3    H136827   6.869   4.480   0.571 -1.2208  0.5936  0.1898
 5064TIP3    H236828   6.940   4.396   0.675  0.7154  1.3835 -0.4434
 5065TIP3   OH236829   2.447   3.645   1.888 -0.0737  0.4211  0.0714
 5065TIP3    H136830   2.360   3.658   1.927 -0.3870  0.8102 -0.7443
 5065TIP3    H236831   2.497   3.722   1.916  0.2983 -0.2231  1.2710
 5066TIP3   OH236832   0.917   6.060   0.099  0.4273  0.4706 -0.9615
 5066TIP3    H136833   0.825   6.056   0.073 -0.8497  1.6713  2.7056
 5066TIP3    H236834   0.947   5.969   0.098 -1.1440 -0.0719 -1.2568
 5067TIP3   OH236835   3.989   3.939   5.830  0.3316 -0.2493 -0.0781
 5067TIP3    H136836   4.068   3.906   5.874  1.0488  0.9135 -0.4413
 5067TIP3    H236837   3.934   3.862   5.818  0.8035 -0.8477  1.4409
 5068TIP3   OH236838   6.870   3.453   0.727 -0.2839 -0.2472 -0.2738
 5068TIP3    H136839   6.843   3.399   0.801  1.0075 -1.4605 -0.6304
 5068TIP3    H236840   6.859   3.543   0.757  0.2847 -0.7121  1.4407
 5069TIP3   OH236841   4.869   4.847   1.033 -0.2448 -0.9182  0.0372
 5069TIP3    H136842   4.833   4.935   1.029  0.4942 -0.6027 -4.0251
 5069TIP3    H236843   4.803   4.792   0.991  0.9869 -1.5199 -1.2084
 5070TIP3   OH236844   6.691   1.953   1.074  0.0346 -0.0797  0.4484
 5070TIP3    H136845   6.632   2.012   1.027 -0.5561 -1.2723 -0.3703
 5070TIP3    H236846   6.677   1.973   1.166  0.1343  1.3014  0.1971
 5071TIP3   OH236847   6.960   4.376   7.751 -0.2651  0.0294  0.4157
 5071TIP3    H136848   6.984   4.299   7.700  0.8491  0.4273  0.3197
 5071TIP3    H236849   6.865   4.385   7.738 -0.3144 -1.0021  0.0008
 5072TIP3   OH236850   1.954   0.436   7.422  0.0175  0.1344  0.3843
 5072TIP3    H136851   1.894   0.427   7.348  0.9236  1.8304 -0.6227
 5072TIP3    H236852   1.898   0.432   7.500 -1.2459  0.4623 -0.4853
 5073TIP3   OH236853   0.741   2.836   1.367  0.6042  0.0186  0.6923
 5073TIP3    H136854   0.668   2.863   1.422 -1.4311 -0.9995 -1.3572
 5073TIP3    H236855   0.759   2.745   1.393  0.3306 -0.1221  0.3972
 5074TIP3   OH236856   2.398   4.348   0.384 -0.3092  0.8039 -0.4417
 5074TIP3    H136857   2.377   4.353   0.478 -0.5961  1.1064 -0.5206
 5074TIP3    H236858   2.312   4.343   0.341 -0.1917 -2.5937 -0.5303
 5075TIP3   OH236859   6.386   1.219   1.165  0.3526 -0.0233 -0.6583
 5075TIP3    H136860   6.447   1.166   1.216  0.3483 -0.1391 -0.7747
 5075TIP3    H236861   6.312   1.234   1.225  0.4639  0.0616 -0.5415
 5076TIP3   OH236862   6.121   2.539   6.033 -0.3178 -0.2256 -0.2875
 5076TIP3    H136863   6.042   2.564   6.081  0.4294  2.2601 -0.2251
 5076TIP3    H236864   6.189   2.598   6.066  1.0235 -0.7428 -1.9854
 5077TIP3   OH236865   2.223   0.393   6.421 -0.2621  0.3306 -0.0558
 5077TIP3    H136866   2.258   0.383   6.332 -1.5149 -0.3986 -0.5061
 5077TIP3    H236867   2.169   0.473   6.416 -0.2211  0.3671  0.0879
 5078TIP3   OH236868   2.160   6.309   0.492 -0.0923 -0.4622 -0.0855
 5078TIP3    H136869   2.102   6.292   0.566 -0.2679 -2.6084 -0.6444
 5078TIP3    H236870   2.143   6.237   0.431 -0.1112  1.3522 -2.3471
 5079TIP3   OH236871   1.991   5.224   0.349 -0.2497 -0.2087  0.5715
 5079TIP3    H136872   2.065   5.167   0.327 -0.5814 -0.3399 -0.2290
 5079TIP3    H236873   1.978   5.277   0.270 -2.4382 -1.7130 -0.1608
 5080TIP3   OH236874   3.634   5.186   0.859  0.3365 -0.0850 -0.1864
 5080TIP3    H136875   3.669   5.252   0.918 -0.4343 -1.0584  1.4340
 5080TIP3    H236876   3.701   5.117   0.856 -0.1792 -0.6306  0.6101
 5081TIP3   OH236877   5.094   1.879   0.728  0.0770  0.2268  0.0901
 5081TIP3    H136878   5.108   1.813   0.661 -1.4160 -0.8205  0.7519
 5081TIP3    H236879   5.181   1.900   0.761  0.6465 -0.7805 -0.7303
 5082TIP3   OH236880   6.879   1.777   1.013 -0.5851  0.2018  0.1559
 5082TIP3    H136881   6.804   1.758   0.957  1.0246  2.8457 -3.3462
 5082TIP3    H236882   6.848   1.847   1.072 -1.4755 -0.4025  0.4168
 5083TIP3   OH236883   4.437   0.532   6.872 -0.0775  0.1190  0.6120
 5083TIP3    H136884   4.501   0.587   6.917 -0.6769  1.0404  0.3707
 5083TIP3    H236885   4.475   0.516   6.786 -0.3246  0.9687  0.3372
 5084TIP3   OH236886   6.970   2.259   6.499 -0.2754 -0.3518 -0.0256
 5084TIP3    H136887   6.958   2.350   6.526  0.7537  0.1694 -1.2184
 5084TIP3    H236888   6.948   2.258   6.406 -2.0870 -1.7325  0.3635
 5085TIP3   OH236889   5.061   4.777   7.147 -0.1389  0.1198 -0.2305
 5085TIP3    H136890   4.993   4.741   7.204 -0.7812  0.8985 -0.4927
 5085TIP3    H236891   5.061   4.719   7.071 -1.8350  1.1457 -1.0917
 5086TIP3   OH236892   3.671   2.028   6.328  0.5205 -0.5536  0.2865
 5086TIP3    H136893   3.587   2.023   6.375  1.7916  0.3300  2.7950
 5086TIP3    H236894   3.650   2.077   6.248 -1.7431 -2.1576 -0.2072
 5087TIP3   OH236895   2.322   3.224   1.340 -0.1659  0.3836  0.2482
 5087TIP3    H136896   2.279   3.143   1.313  2.1140 -0.6499 -0.4611
 5087TIP3    H236897   2.335   3.272   1.258 -1.3041  1.4298  0.6390
 5088TIP3   OH236898   6.101   4.707   1.039 -0.2067 -0.3375  0.1407
 5088TIP3    H136899   6.139   4.794   1.056  0.1031 -0.4754  0.1558
 5088TIP3    H236900   6.019   4.707   1.087  0.5369 -0.6349  1.4648
 5089TIP3   OH236901   3.494   5.119   2.162  0.0419 -0.1654  0.2525
 5089TIP3    H136902   3.457   5.177   2.229 -0.7465  0.0392 -0.3318
 5089TIP3    H236903   3.574   5.163   2.133 -1.3690  1.5405 -1.3386
 5090TIP3   OH236904   1.377   6.253   1.263  0.0433  0.5332 -0.0346
 5090TIP3    H136905   1.441   6.218   1.200 -1.0256 -0.1280 -0.7724
 5090TIP3    H236906   1.413   6.339   1.287  0.4501  0.8489 -1.6051
 5091TIP3   OH236907   2.726   5.465   7.143 -0.6656  0.2540 -0.0292
 5091TIP3    H136908   2.746   5.545   7.095 -2.5735  1.7156  1.4275
 5091TIP3    H236909   2.701   5.495   7.230 -1.3101 -1.9563  0.6177
 5092TIP3   OH236910   1.427   1.999   0.416  0.2816  0.4910  0.2828
 5092TIP3    H136911   1.381   2.053   0.351 -0.2259 -2.3072 -1.8915
 5092TIP3    H236912   1.359   1.976   0.480  0.1126  1.0690  0.3172
 5093TIP3   OH236913   0.958   5.903   6.224  0.1276  0.2404 -0.1675
 5093TIP3    H136914   0.889   5.907   6.290 -0.3933 -0.4245 -0.6463
 5093TIP3    H236915   0.940   5.977   6.166 -1.0154 -0.6830 -1.0509
 5094TIP3   OH236916   0.836   5.883   7.233  0.1420  0.4877  0.0326
 5094TIP3    H136917   0.830   5.872   7.139  1.8427 -0.9788  0.0315
 5094TIP3    H236918   0.929   5.867   7.253 -0.2468  0.4144  1.9681
 5095TIP3   OH236919   2.427   6.568   6.562  0.2225 -0.0674 -0.2724
 5095TIP3    H136920   2.471   6.566   6.477  0.2182 -0.4153 -0.2663
 5095TIP3    H236921   2.465   6.644   6.607  1.2477 -0.7069 -0.0367
 5096TIP3   OH236922   1.064   1.324   6.981  0.2634 -0.0983 -0.4156
 5096TIP3    H136923   1.025   1.400   7.025  0.0302 -0.1430 -0.5451
 5096TIP3    H236924   1.159   1.340   6.985  0.2635 -0.2371  0.3455
 5097TIP3   OH236925   1.620   4.567   0.702 -0.3735  0.2628  0.0747
 5097TIP3    H136926   1.652   4.498   0.759  0.1859 -0.1464 -0.7136
 5097TIP3    H236927   1.525   4.568   0.717 -0.4888 -1.1312 -0.3730
 5098TIP3   OH236928   3.463   4.763   1.190  0.7298 -0.1945  0.1343
 5098TIP3    H136929   3.524   4.835   1.176  1.2947 -0.5966  0.4661
 5098TIP3    H236930   3.397   4.773   1.122  1.7238 -0.3377 -0.8769
 5099TIP3   OH236931   6.736   5.444   0.715 -0.5095  0.0425  0.1125
 5099TIP3    H136932   6.736   5.539   0.712  1.5312  0.1669  1.4767
 5099TIP3    H236933   6.751   5.417   0.625 -2.7399  0.8911 -0.5882
 5100TIP3   OH236934   2.417   5.734   0.444 -0.4205  0.4759  0.2996
 5100TIP3    H136935   2.386   5.682   0.518  0.4976  0.5165  0.7226
 5100TIP3    H236936   2.475   5.675   0.396  0.6233  1.0952  0.7759
 5101TIP3   OH236937   2.807   2.144   0.235 -0.3415 -0.1373  0.0257
 5101TIP3    H136938   2.715   2.153   0.260 -0.1729  2.2558  0.0267
 5101TIP3    H236939   2.851   2.119   0.316 -0.9610 -1.2747  0.0306
 5102TIP3   OH236940   6.512   3.298   7.045  0.0950  0.5220  0.1589
 5102TIP3    H136941   6.420   3.278   7.031  0.6048 -2.5346  0.5334
 5102TIP3    H236942   6.535   3.252   7.126  2.8226 -2.3491 -1.9903
 5103TIP3   OH236943   3.208   1.455   2.088 -0.0388 -0.2968 -0.1798
 5103TIP3    H136944   3.173   1.405   2.014  1.0541 -0.6921 -0.4506
 5103TIP3    H236945   3.301   1.432   2.090  0.2516  0.8674  0.3916
 5104TIP3   OH236946   1.224   5.836   1.292  0.0903  0.2383 -0.6749
 5104TIP3    H136947   1.228   5.931   1.307 -0.3700  0.1775 -0.1606
 5104TIP3    H236948   1.207   5.799   1.378  0.2506 -0.3168 -0.8791
 5105TIP3   OH236949   5.269   1.820   1.452 -0.2266  0.1473 -0.7478
 5105TIP3    H136950   5.306   1.748   1.503  0.1530 -0.6288 -2.0716
 5105TIP3    H236951   5.189   1.783   1.414 -0.0683  0.4413 -1.3734
 5106TIP3   OH236952   3.891   5.929   1.841  0.2188  0.1726  0.7374
 5106TIP3    H136953   3.803   5.960   1.858  0.7556  1.4695  1.2893
 5106TIP3    H236954   3.891   5.903   1.749 -0.8828 -0.4184  0.8919
 5107TIP3   OH236955   6.562   5.153   0.950  0.4381  0.2904  0.1202
 5107TIP3    H136956   6.501   5.210   0.996  0.3650  2.0585 -2.0105
 5107TIP3    H236957   6.509   5.078   0.923  0.0122  0.2234  1.0973
 5108TIP3   OH236958   4.829   5.927   0.154 -0.6896  0.6664  0.0335
 5108TIP3    H136959   4.781   5.917   0.237  0.7827  0.8105  0.9420
 5108TIP3    H236960   4.812   6.018   0.128 -2.2560  0.2408 -0.5793
 5109TIP3   OH236961   3.943   1.831   7.646 -0.1974 -0.2198 -0.2731
 5109TIP3    H136962   4.027   1.869   7.622 -0.3771  0.6656  0.4423
 5109TIP3    H236963   3.956   1.736   7.640  0.7577 -0.0815 -0.4470
 5110TIP3   OH236964   1.739   4.041   7.124 -0.3739 -0.0399 -0.0634
 5110TIP3    H136965   1.814   4.100   7.117 -0.8488  0.5473 -0.2455
 5110TIP3    H236966   1.772   3.966   7.173  0.8710 -0.6746 -1.7875
 5111TIP3   OH236967   4.541   3.697   5.711  0.0562 -1.1757 -0.2997
 5111TIP3    H136968   4.511   3.699   5.621  0.5989  1.0013 -0.4878
 5111TIP3    H236969   4.556   3.789   5.734 -0.4949 -1.6142  2.1549
 5112TIP3   OH236970   6.384   3.631   7.346  0.1235 -0.1750  0.6042
 5112TIP3    H136971   6.460   3.578   7.320  0.9282  0.4385  1.6264
 5112TIP3    H236972   6.348   3.663   7.263  0.6794 -0.8788  0.0761
 5113TIP3   OH236973   2.153   6.660   1.005 -0.1561 -0.0806  0.7904
 5113TIP3    H136974   2.121   6.747   1.030  0.4180  0.9246 -1.6737
 5113TIP3    H236975   2.248   6.669   1.005 -0.0957  0.2059 -2.1048
 5114TIP3   OH236976   5.733   3.414   0.831  0.4150  0.1752  0.1769
 5114TIP3    H136977   5.775   3.495   0.800  0.8276 -0.3923 -0.8230
 5114TIP3    H236978   5.665   3.397   0.766 -0.8545  0.6565  1.3566
 5115TIP3   OH236979   5.177   0.532   7.896 -0.4736 -0.5109  0.0891
 5115TIP3    H136980   5.124   0.561   7.971 -1.9898  0.2463 -1.2080
 5115TIP3    H236981   5.146   0.444   7.877 -1.1261 -0.1597 -0.5192
 5116TIP3   OH236982   6.289   3.373   0.029  0.2692  0.8800 -0.0367
 5116TIP3    H136983   6.305   3.365   0.123  0.2156  1.9000  0.0656
 5116TIP3    H236984   6.375   3.394  -0.008  0.5075 -0.5503 -0.3652
 5117TIP3   OH236985   4.196   4.052   7.916  0.2969  0.2653  0.5725
 5117TIP3    H136986   4.181   4.092   7.831 -1.0251 -0.2837  0.5257
 5117TIP3    H236987   4.111   4.054   7.960  0.6970 -0.4664  1.4400
 5118TIP3   OH236988   2.517   2.262   6.085  0.7756 -0.2417 -0.3905
 5118TIP3    H136989   2.516   2.344   6.035  1.8247 -0.7730 -1.3327
 5118TIP3    H236990   2.518   2.193   6.018 -2.1732 -1.1430  0.3590
 5119TIP3   OH236991   0.816   7.101   1.794 -0.7820 -0.2537 -0.0512
 5119TIP3    H136992   0.769   7.159   1.854 -0.3599  0.7104 -0.6307
 5119TIP3    H236993   0.840   7.025   1.847 -1.2340  0.1568  0.7547
 5120TIP3   OH236994   7.085   3.761   0.588  1.1416 -0.1542 -0.1773
 5120TIP3    H136995   7.139   3.824   0.636  1.7205 -1.4482  0.9156
 5120TIP3    H236996   7.000   3.764   0.632  1.5891 -1.1369  0.7771
 5121TIP3   OH236997   0.252   1.636   6.408 -0.4003  0.4686 -0.2114
 5121TIP3    H136998   0.282   1.683   6.330 -0.2713  0.5581 -0.1075
 5121TIP3    H236999   0.156   1.641   6.403 -0.3950  0.3664 -0.4288
 5122TIP3   OH237000   4.451   1.959   6.655 -0.4080 -0.1482  0.3112
 5122TIP3    H137001   4.420   2.040   6.696  0.2624  0.2904 -0.0406
 5122TIP3    H237002   4.529   1.935   6.704 -1.2683 -1.2625  1.2029
 5123TIP3   OH237003   2.066   3.178   1.081 -0.5631  0.2991 -0.9602
 5123TIP3    H137004   2.090   3.259   1.035  2.5689 -0.6927 -1.2726
 5123TIP3    H237005   2.051   3.114   1.012  0.7696 -0.3105 -0.7269
 5124TIP3   OH237006   2.010   2.648   7.823 -0.2744  0.3327  0.1036
 5124TIP3    H137007   1.958   2.623   7.746  1.3885  0.9704 -1.2814
 5124TIP3    H237008   2.052   2.567   7.851 -0.5073  0.1879  0.0388
 5125TIP3   OH237009   4.381   4.526   1.393  0.1871  0.1827  0.3567
 5125TIP3    H137010   4.351   4.442   1.356  2.9610 -0.3232 -0.9789
 5125TIP3    H237011   4.325   4.591   1.351 -0.9363 -0.8607  0.1616
 5126TIP3   OH237012   3.642   4.686   1.412  0.5880 -0.6891  0.2682
 5126TIP3    H137013   3.705   4.716   1.347 -0.7509 -1.3958 -1.4464
 5126TIP3    H237014   3.557   4.692   1.368 -0.2895 -1.9688  1.6588
 5127TIP3   OH237015   7.051   1.746   6.820 -0.5601 -0.6560 -0.7193
 5127TIP3    H137016   7.085   1.835   6.818 -0.5473 -0.6186  0.5361
 5127TIP3    H237017   7.020   1.730   6.730 -1.0917  0.8101 -0.8203
 5128TIP3   OH237018   4.624   4.548   2.465  0.4615  0.4658  0.5018
 5128TIP3    H137019   4.563   4.608   2.421 -0.1222  0.3710  1.1640
 5128TIP3    H237020   4.616   4.466   2.418  2.7380  1.3628 -1.7256
 5129TIP3   OH237021   1.766   0.266   7.219  0.3603  0.6568 -0.0565
 5129TIP3    H137022   1.718   0.285   7.139 -1.0127 -2.0647 -0.0106
 5129TIP3    H237023   1.699   0.254   7.286  0.8560 -3.2590  0.0210
 5130TIP3   OH237024   5.576   6.064   6.649  0.7060 -0.8788 -0.2342
 5130TIP3    H137025   5.573   5.973   6.618 -1.9912 -0.8464 -0.3328
 5130TIP3    H237026   5.512   6.110   6.593 -0.1650  0.3918  1.7089
 5131TIP3   OH237027   4.084   4.592   1.531  0.4612  0.6321  0.3553
 5131TIP3    H137028   4.075   4.539   1.610  2.8136  0.9720  0.9229
 5131TIP3    H237029   4.033   4.546   1.465  0.7560 -1.2127  1.3597
 5132TIP3   OH237030   4.901   3.269   6.726  0.1200 -0.7259 -0.6596
 5132TIP3    H137031   4.874   3.358   6.752  0.2781 -0.8375 -0.1069
 5132TIP3    H237032   4.819   3.220   6.721  0.0407 -0.5763 -0.8722
 5133TIP3   OH237033   2.169   4.351   7.533  0.1504  0.3108 -0.3161
 5133TIP3    H137034   2.219   4.345   7.614  0.2380  0.5197 -0.3528
 5133TIP3    H237035   2.203   4.281   7.478  0.6186  0.6454 -0.4572
 5134TIP3   OH237036   5.531   1.950   5.659 -0.4553  0.0766  0.2857
 5134TIP3    H137037   5.600   2.011   5.634  1.3034 -1.4744  1.1654
 5134TIP3    H237038   5.451   1.990   5.624  0.8241  1.9980 -0.6530
 5135TIP3   OH237039   6.827   1.468   6.383  0.3088 -0.5307 -0.1999
 5135TIP3    H137040   6.827   1.414   6.462  0.7442  0.7881  0.7302
 5135TIP3    H237041   6.743   1.514   6.386  0.9785  0.7026  0.3567
 5136TIP3   OH237042   5.693   6.103   0.520 -0.5259  0.0717 -0.0256
 5136TIP3    H137043   5.770   6.079   0.571  2.2089  0.9509 -3.3551
 5136TIP3    H237044   5.634   6.028   0.527  2.4605 -2.4987 -0.5673
 5137TIP3   OH237045   6.196   6.665   0.178  0.6057  0.1503  0.1151
 5137TIP3    H137046   6.256   6.740   0.169 -0.7127  1.1546 -0.7538
 5137TIP3    H237047   6.227   6.601   0.115  1.0540  0.4562  0.0240
 5138TIP3   OH237048   4.727   3.835   7.915  0.3762  0.1895  0.1672
 5138TIP3    H137049   4.726   3.752   7.868 -0.3130 -0.6328  1.5693
 5138TIP3    H237050   4.792   3.888   7.869  1.9570 -1.6678  0.1452
 5139TIP3   OH237051   0.625   4.176   1.455 -0.0039  0.0885 -0.1360
 5139TIP3    H137052   0.630   4.271   1.464 -0.4942  0.0679  0.4859
 5139TIP3    H237053   0.534   4.155   1.473 -0.0941 -0.4254 -1.1306
 5140TIP3   OH237054   0.066   4.566   6.848  0.6696  0.1566 -0.3875
 5140TIP3    H137055   0.043   4.600   6.934  1.1913  1.9891 -0.9371
 5140TIP3    H237056   0.153   4.527   6.860  0.7248  0.3722 -0.0875
 5141TIP3   OH237057   4.074   3.168   6.192  0.5387 -0.3157 -0.5044
 5141TIP3    H137058   4.032   3.156   6.277  1.4319 -0.9457 -0.1314
 5141TIP3    H237059   4.093   3.079   6.161 -1.0288 -0.1722 -2.0392
 5142TIP3   OH237060   2.243   3.343   5.975  0.3145 -0.1222 -0.1509
 5142TIP3    H137061   2.205   3.427   5.950  0.9164 -0.0145 -0.6931
 5142TIP3    H237062   2.187   3.278   5.932 -0.5014 -0.0398  0.7285
 5143TIP3   OH237063   3.822   3.459   0.225 -0.2400 -0.3169 -0.0473
 5143TIP3    H137064   3.849   3.475   0.135 -0.8017 -0.1085 -0.1841
 5143TIP3    H237065   3.829   3.364   0.236  1.1344 -0.2188  0.1285
 5144TIP3   OH237066   0.469   6.518   1.488  0.2858 -0.3442 -0.1123
 5144TIP3    H137067   0.397   6.548   1.431 -0.8563  0.7855  1.8063
 5144TIP3    H237068   0.425   6.487   1.567  1.9095  0.5661  1.2035
 5145TIP3   OH237069   4.001   5.627   0.868  0.2935  0.1404 -0.0241
 5145TIP3    H137070   4.024   5.535   0.861  0.3958  0.0532  1.2373
 5145TIP3    H237071   3.996   5.658   0.777 -1.6791 -1.5535 -0.5430
 5146TIP3   OH237072   2.133   2.408   1.088  0.1723  0.4824  0.2458
 5146TIP3    H137073   2.202   2.350   1.118  1.2328  1.5328 -0.0702
 5146TIP3    H237074   2.158   2.430   0.998 -2.9495 -2.6737 -1.6627
 5147TIP3   OH237075   5.348   2.872   6.421 -0.1921 -0.7166 -0.3979
 5147TIP3    H137076   5.279   2.931   6.452 -1.8516 -2.2324 -0.9848
 5147TIP3    H237077   5.309   2.784   6.428  1.7789 -1.6586 -0.5666
 5148TIP3   OH237078   4.239   5.785   7.722 -0.6666  0.0757  0.1053
 5148TIP3    H137079   4.330   5.811   7.709 -1.0468  0.6882 -1.7034
 5148TIP3    H237080   4.240   5.689   7.716  0.0050  0.0031  1.2838
 5149TIP3   OH237081   7.108   1.568   6.366  0.3406  0.0499  0.3015
 5149TIP3    H137082   7.074   1.531   6.448 -0.4566  0.3957  0.1421
 5149TIP3    H237083   7.033   1.563   6.305  1.1165 -0.8253 -0.6131
 5150TIP3   OH237084   6.853   1.595   2.154 -0.2179  0.3810  0.2821
 5150TIP3    H137085   6.934   1.573   2.109  0.3157  0.0811  1.3652
 5150TIP3    H237086   6.869   1.681   2.193 -0.7214  0.6982 -0.1993
 5151TIP3   OH237087   3.968   1.221   0.654  0.5118 -0.0560  0.0909
 5151TIP3    H137088   3.986   1.127   0.651  1.3079  0.0573  0.8093
 5151TIP3    H237089   4.053   1.261   0.673 -0.1580  0.6421  1.8887
 5152TIP3   OH237090   6.866   4.653   7.050 -0.6404  0.2231  0.4057
 5152TIP3    H137091   6.933   4.710   7.013 -0.0872 -0.6777 -0.0164
 5152TIP3    H237092   6.829   4.607   6.975 -1.1749  0.1187  0.7246
 5153TIP3   OH237093   5.488   5.195   7.730 -0.2968  0.0614  0.7369
 5153TIP3    H137094   5.570   5.189   7.681 -0.3814  1.7621  0.3305
 5153TIP3    H237095   5.469   5.105   7.756  0.3138 -0.7623 -1.4348
 5154TIP3   OH237096   6.386   2.431   7.164 -0.0097  0.3642  0.4126
 5154TIP3    H137097   6.311   2.472   7.121 -1.3743 -1.5651  0.8500
 5154TIP3    H237098   6.454   2.429   7.097  0.3633  3.7445  0.5055
 5155TIP3   OH237099   4.075   3.081   6.496 -0.0358  0.4066 -0.0282
 5155TIP3    H137100   4.147   3.021   6.516 -1.6238 -1.5095  0.2048
 5155TIP3    H237101   4.045   3.111   6.582 -0.1199  0.4704 -0.0798
 5156TIP3   OH237102   4.133   5.720   1.295 -0.1100 -0.6458 -0.0668
 5156TIP3    H137103   4.123   5.810   1.326 -2.0632 -1.2297  1.1891
 5156TIP3    H237104   4.190   5.679   1.360  0.1399 -0.5218 -0.2057
 5157TIP3   OH237105   3.398   2.126   0.007 -0.6461 -0.2164  0.3494
 5157TIP3    H137106   3.422   2.080   0.087 -0.0095 -0.1558  0.2010
 5157TIP3    H237107   3.328   2.073  -0.031 -0.5019 -0.6005  0.6161
 5158TIP3   OH237108   6.548   1.541   1.677  0.3021  0.1138  0.0274
 5158TIP3    H137109   6.585   1.540   1.765  1.9067 -0.1438 -0.6142
 5158TIP3    H237110   6.493   1.619   1.674  0.3403  0.1940  1.2019
 5159TIP3   OH237111   4.042   4.739   2.354 -0.1118  0.6272 -0.2413
 5159TIP3    H137112   4.103   4.705   2.289  0.4010  0.8251  0.1286
 5159TIP3    H237113   4.019   4.663   2.408  0.4333  0.6991  0.1070
 5160TIP3   OH237114   4.144   3.279   7.166 -0.5619 -0.5750 -0.0339
 5160TIP3    H137115   4.192   3.349   7.120  1.0716 -1.8033 -0.2802
 5160TIP3    H237116   4.147   3.304   7.258  0.9272 -0.8054  0.0005
 5161TIP3   OH237117   1.391   4.384   6.383  0.7987  0.0450 -0.3167
 5161TIP3    H137118   1.477   4.344   6.369  0.5392 -1.5999  2.2852
 5161TIP3    H237119   1.328   4.319   6.349  0.4943 -0.3071  0.8806
 5162TIP3   OH237120   4.886   7.082   0.739  0.5970 -0.4225 -0.1459
 5162TIP3    H137121   4.951   7.073   0.809 -0.2431  0.0095  0.7187
 5162TIP3    H237122   4.820   7.016   0.759  1.1873 -1.4837 -1.5309
 5163TIP3   OH237123   1.202   1.736   1.253  0.2054  0.6373  0.1607
 5163TIP3    H137124   1.202   1.806   1.188  2.8377 -1.7579 -2.6993
 5163TIP3    H237125   1.154   1.664   1.212 -0.0193 -0.2092  1.8290
 5164TIP3   OH237126   4.779   4.133   1.979  0.1193  0.2663  0.1300
 5164TIP3    H137127   4.809   4.212   2.024 -1.3982  0.7760  0.3018
 5164TIP3    H237128   4.858   4.080   1.969  0.8001  0.8954  1.8532
 5165TIP3   OH237129   3.381   5.102   1.631  0.1596  0.3989  0.4758
 5165TIP3    H137130   3.457   5.056   1.596  0.4493  0.5530  0.8861
 5165TIP3    H237131   3.417   5.157   1.701 -0.1830  1.2277  0.0091
 5166TIP3   OH237132   0.201   3.548   7.508 -0.4566 -0.4364  0.4635
 5166TIP3    H137133   0.167   3.547   7.597 -0.1245 -1.7232  0.5924
 5166TIP3    H237134   0.293   3.526   7.517 -0.3500 -0.2828 -0.1796
 5167TIP3   OH237135   4.739   0.699   0.442 -0.1376  0.2173  0.0762
 5167TIP3    H137136   4.791   0.620   0.428  0.3050  0.8489 -2.2957
 5167TIP3    H237137   4.661   0.669   0.488  0.6729 -1.3469  0.4908
 5168TIP3   OH237138   2.874   3.297   6.518 -0.5168  0.3824 -0.5838
 5168TIP3    H137139   2.941   3.284   6.585 -0.7685 -0.9643 -0.5661
 5168TIP3    H237140   2.811   3.357   6.558  0.1263  0.8066 -0.2009
 5169TIP3   OH237141   0.643   3.691   1.263 -0.4262 -0.2877  0.2280
 5169TIP3    H137142   0.625   3.752   1.191  0.8070  0.9985  0.9683
 5169TIP3    H237143   0.606   3.608   1.233 -1.3758  0.5985 -1.1878
 5170TIP3   OH237144   5.229   5.563   6.574 -0.4640  0.4888  0.1727
 5170TIP3    H137145   5.294   5.617   6.617 -1.3916  2.3146 -0.6179
 5170TIP3    H237146   5.273   5.528   6.497  0.7366 -1.5850  1.6758
 5171TIP3   OH237147   6.825   3.774   0.465 -0.7203 -0.1970  0.0274
 5171TIP3    H137148   6.806   3.792   0.373 -0.0165  0.5252  0.0256
 5171TIP3    H237149   6.919   3.787   0.474 -0.9398  0.7962  1.0869
 5172TIP3   OH237150   6.047   2.018   7.053  0.0903  0.3327 -0.1181
 5172TIP3    H137151   5.988   1.976   7.116 -0.5646  1.0046 -0.2752
 5172TIP3    H237152   6.030   2.111   7.062  0.7830  0.5055 -0.5197
 5173TIP3   OH237153   6.933   2.237   0.218 -0.4890 -0.4558 -0.0365
 5173TIP3    H137154   6.889   2.263   0.300 -1.2429 -1.4948 -0.0929
 5173TIP3    H237155   7.010   2.293   0.214 -0.4253 -0.3931  1.4049
 5174TIP3   OH237156   3.015   3.504   0.836  0.0263  0.0859  0.3516
 5174TIP3    H137157   3.004   3.469   0.925 -0.9139 -0.4539  0.0371
 5174TIP3    H237158   2.990   3.596   0.843 -1.9770 -0.4001  0.2847
 5175TIP3   OH237159   4.393   7.157   0.644  0.0654 -0.3883  0.6664
 5175TIP3    H137160   4.369   7.178   0.554  1.6619 -0.6967  0.1425
 5175TIP3    H237161   4.392   7.241   0.690  0.9184  0.0213 -0.0570
 5176TIP3   OH237162   2.755   2.099   7.833 -0.2307  0.1888  0.0281
 5176TIP3    H137163   2.734   2.164   7.900  0.4117  1.0137 -0.5306
 5176TIP3    H237164   2.829   2.138   7.786  0.4412 -1.1481 -0.0638
 5177TIP3   OH237165   4.062   2.613   1.421  0.3420  0.0991 -0.8757
 5177TIP3    H137166   4.020   2.695   1.449  1.2475  0.1151  0.5534
 5177TIP3    H237167   4.133   2.601   1.483  1.1899 -0.9836 -2.0180
 5178TIP3   OH237168   1.699   0.516   0.465 -0.2463  0.2849  0.2729
 5178TIP3    H137169   1.626   0.465   0.428 -0.1871  0.3461  0.0704
 5178TIP3    H237170   1.660   0.599   0.489 -0.1616  0.4651 -0.2050
 5179TIP3   OH237171   5.874   2.350   0.501 -0.0986 -0.4213 -0.0522
 5179TIP3    H137172   5.792   2.302   0.508 -0.9763  0.8655 -1.0814
 5179TIP3    H237173   5.852   2.439   0.529  0.8353  0.0347 -0.7281
 5180TIP3   OH237174   5.760   0.487   1.004 -0.4232 -0.4343  0.1923
 5180TIP3    H137175   5.774   0.437   1.084  1.2577 -1.6945 -0.8127
 5180TIP3    H237176   5.711   0.428   0.947  1.1605 -0.8171 -0.8303
 5181TIP3   OH237177   0.719   1.066   7.530 -0.0038 -0.1650 -0.0309
 5181TIP3    H137178   0.788   1.093   7.590  0.2630 -1.2303  0.1535
 5181TIP3    H237179   0.694   0.979   7.559  1.7986 -1.7664 -2.8479
 5182TIP3   OH237180   3.850   3.927   7.180 -0.7534 -0.0619  0.1088
 5182TIP3    H137181   3.900   3.858   7.224  0.0323  1.1954  1.3012
 5182TIP3    H237182   3.802   3.883   7.111  1.2173 -1.4982 -0.4090
 5183TIP3   OH237183   6.841   0.426   7.013 -0.1129 -0.0677  0.8454
 5183TIP3    H137184   6.923   0.386   7.041  1.5114  1.8014 -0.9615
 5183TIP3    H237185   6.863   0.473   6.933 -2.2984  2.7350  1.7145
 5184TIP3   OH237186   0.917   2.877   6.935  0.0014 -0.3431 -0.3612
 5184TIP3    H137187   0.846   2.846   6.991  0.8614 -1.3064  0.2297
 5184TIP3    H237188   0.957   2.797   6.899  0.9516  0.1644 -0.4706
 5185TIP3   OH237189   5.515   6.720   0.875  0.4188 -0.4807 -0.1120
 5185TIP3    H137190   5.577   6.682   0.812  0.9823 -0.5313  0.4641
 5185TIP3    H237191   5.452   6.649   0.891 -0.0823 -0.2702 -1.0634
 5186TIP3   OH237192   3.667   3.464   6.513 -0.0234  0.1419 -0.3057
 5186TIP3    H137193   3.672   3.557   6.538  0.2310 -0.1647  0.8301
 5186TIP3    H237194   3.606   3.463   6.439 -0.0067  1.2190 -0.3573
 5187TIP3   OH237195   3.230   0.110   6.699  0.3396  0.0982  0.9259
 5187TIP3    H137196   3.267   0.197   6.712  0.6103  0.0799  0.2866
 5187TIP3    H237197   3.180   0.116   6.618  0.4732 -0.3812  0.8036
 5188TIP3   OH237198   6.292   3.475   1.644 -0.1373  0.0960  0.0527
 5188TIP3    H137199   6.199   3.500   1.645 -0.2945 -0.4613 -0.0032
 5188TIP3    H237200   6.322   3.491   1.733 -0.3342  0.1046  0.1193
 5189TIP3   OH237201   4.000   2.557   7.007 -0.0163 -0.2238  0.0543
 5189TIP3    H137202   3.920   2.513   7.035 -0.6793  0.0147 -1.3559
 5189TIP3    H237203   3.970   2.640   6.970  1.0822  0.7651  1.3032
 5190TIP3   OH237204   0.780   0.943   6.784  0.1129  0.2406 -0.0240
 5190TIP3    H137205   0.862   0.984   6.813  0.6754  0.1789 -1.4795
 5190TIP3    H237206   0.720   0.958   6.857  1.4956  0.0040  1.2206
 5191TIP3   OH237207   6.441   6.859   6.951 -0.2625 -0.0665  0.1910
 5191TIP3    H137208   6.398   6.889   7.031  0.8807  1.1711  0.3806
 5191TIP3    H237209   6.477   6.773   6.974 -0.2763  0.1055  0.8859
 5192TIP3   OH237210   3.788   4.796   1.200 -0.0533 -0.3687  0.2574
 5192TIP3    H137211   3.852   4.740   1.155  0.4799  0.8501 -0.5580
 5192TIP3    H237212   3.722   4.815   1.134 -0.2022 -0.0031  0.5094
 5193TIP3   OH237213   6.440   2.450   7.459  0.2581 -0.1462  0.1269
 5193TIP3    H137214   6.424   2.455   7.365 -2.2920  0.2043  0.4961
 5193TIP3    H237215   6.535   2.461   7.468  0.2926  2.7398 -2.2134
 5194TIP3   OH237216   3.801   2.474   0.220 -0.0027  0.0539  0.4873
 5194TIP3    H137217   3.782   2.568   0.221 -0.5006  0.0165 -1.2631
 5194TIP3    H237218   3.895   2.468   0.237  0.0618  0.8812  0.4621
 5195TIP3   OH237219   4.367   1.760   7.983  0.1517  0.5060 -0.1279
 5195TIP3    H137220   4.387   1.851   8.006  1.4752  0.0821  0.5139
 5195TIP3    H237221   4.278   1.747   8.015 -0.4983  1.8895 -1.2448
 5196TIP3   OH237222   0.616   0.092   7.332 -0.0457 -0.5301  0.4921
 5196TIP3    H137223   0.621   0.136   7.247 -0.1052 -0.2099  0.6538
 5196TIP3    H237224   0.650   0.156   7.395 -1.8000  0.0044  0.9792
 5197TIP3   OH237225   1.806   6.197   6.422  0.4576  0.1224  0.1947
 5197TIP3    H137226   1.851   6.270   6.379  0.1982  0.1685  0.0045
 5197TIP3    H237227   1.842   6.197   6.511  2.3073 -1.0739 -0.5009
 5198TIP3   OH237228   3.920   3.157   7.043 -0.3440 -0.3248  0.0068
 5198TIP3    H137229   3.855   3.227   7.030  1.8672  1.6616 -1.1890
 5198TIP3    H237230   3.989   3.199   7.095  1.2303 -1.5188 -1.0478
 5199TIP3   OH237231   3.011   5.685   1.079 -0.0581  0.0406  0.0724
 5199TIP3    H137232   3.022   5.699   0.985 -0.6557  0.1241  0.0086
 5199TIP3    H237233   2.928   5.638   1.087  0.1378 -0.2331  0.5382
 5200TIP3   OH237234   4.351   0.811   7.288  0.1082 -0.0923  0.6727
 5200TIP3    H137235   4.377   0.856   7.208 -1.2199 -0.6325 -0.0932
 5200TIP3    H237236   4.434   0.784   7.329  0.7935 -0.7326 -1.0627
 5201TIP3   OH237237   0.075   4.538   6.555 -0.6098  0.2866  0.2482
 5201TIP3    H137238   0.015   4.463   6.557 -1.7033  1.0935 -1.2238
 5201TIP3    H237239   0.081   4.566   6.646 -0.3290 -1.4478  0.8089
 5202TIP3   OH237240   7.049   5.660   0.221  1.0750  0.0639  0.3784
 5202TIP3    H137241   7.025   5.568   0.219 -2.6149  0.8611 -1.7800
 5202TIP3    H237242   7.000   5.696   0.295  1.7838  0.4461  0.6662
 5203TIP3   OH237243   1.380   0.567   0.706  0.2905 -0.1661 -0.5766
 5203TIP3    H137244   1.367   0.534   0.617  0.6873 -1.0004 -0.3296
 5203TIP3    H237245   1.303   0.539   0.755 -0.8214  1.8340 -1.0614
 5204TIP3   OH237246   1.704   1.835   7.614 -0.2170 -0.4548  0.0769
 5204TIP3    H137247   1.797   1.814   7.624 -0.6261 -2.1830  0.7782
 5204TIP3    H237248   1.659   1.768   7.667 -1.9164 -0.6691 -1.5183
 5205TIP3   OH237249   7.175   6.746   6.828 -0.6214  0.3171 -0.0468
 5205TIP3    H137250   7.150   6.671   6.773 -1.8306  0.5970  0.0946
 5205TIP3    H237251   7.101   6.758   6.887  0.0860  0.8802  0.7499
 5206TIP3   OH237252   3.854   5.580   7.862 -0.9104 -0.3603 -0.0655
 5206TIP3    H137253   3.870   5.567   7.768 -0.4780 -2.2352  0.2235
 5206TIP3    H237254   3.936   5.614   7.896 -0.7021 -0.7321 -0.1906
 5207TIP3   OH237255   6.471   2.697   0.403 -0.0087 -0.2221  0.6866
 5207TIP3    H137256   6.530   2.772   0.397 -0.2594 -0.1191 -0.6773
 5207TIP3    H237257   6.524   2.622   0.378 -0.4909 -0.0966 -0.7968
 5208TIP3   OH237258   6.318   4.459   5.462 -0.0632  0.5344 -0.2003
 5208TIP3    H137259   6.251   4.407   5.506 -0.1852  1.2615  0.5026
 5208TIP3    H237260   6.400   4.430   5.501 -0.1388  0.9141  0.2553
 5209TIP3   OH237261   5.266   5.504   0.633 -0.1198  0.7114 -0.0116
 5209TIP3    H137262   5.195   5.452   0.595  0.2430 -1.0467  1.5352
 5209TIP3    H237263   5.346   5.461   0.603  0.1829 -1.0418  2.8783
 5210TIP3   OH237264   0.488   3.716   0.819  0.1217  0.1586 -0.3018
 5210TIP3    H137265   0.423   3.781   0.794 -0.2903 -0.2568 -0.3218
 5210TIP3    H237266   0.534   3.695   0.737 -1.3817 -1.3729 -0.8127
 5211TIP3   OH237267   6.487   1.561   6.842 -0.4639  0.2690 -0.7227
 5211TIP3    H137268   6.431   1.548   6.919  1.0869 -0.8877  0.2564
 5211TIP3    H237269   6.505   1.473   6.811 -1.2358  0.7163 -2.6013
 5212TIP3   OH237270   6.317   6.061   0.312 -0.1788 -0.9332 -0.3117
 5212TIP3    H137271   6.304   5.968   0.294 -0.7320 -1.1566  1.1024
 5212TIP3    H237272   6.321   6.067   0.408 -0.4567  0.5309 -0.3641
 5213TIP3   OH237273   0.457   3.162   7.982  0.3735 -0.3306  0.0989
 5213TIP3    H137274   0.391   3.123   8.039  0.9004  0.1626  1.0904
 5213TIP3    H237275   0.414   3.239   7.944  0.8544  1.0339  2.1278
 5214TIP3   OH237276   2.720   1.260   6.548  0.5352 -0.9214  0.3228
 5214TIP3    H137277   2.809   1.288   6.525  0.2405  1.2613  1.5533
 5214TIP3    H237278   2.663   1.323   6.504 -0.2358 -0.3917  1.9841
 5215TIP3   OH237279   5.413   2.056   6.435 -0.4866  0.4340  0.2060
 5215TIP3    H137280   5.463   2.064   6.354 -0.8618  1.8006  0.0732
 5215TIP3    H237281   5.441   1.973   6.473  0.4355  0.2524 -0.8211
 5216TIP3   OH237282   6.174   4.486   7.190 -0.0561 -0.9201 -0.4789
 5216TIP3    H137283   6.142   4.458   7.276  2.8707 -1.4119  0.5484
 5216TIP3    H237284   6.137   4.423   7.129 -1.5967 -1.0031  0.4821
 5217TIP3   OH237285   4.311   1.421   6.112 -0.2300  0.0981 -0.0081
 5217TIP3    H137286   4.404   1.412   6.093 -0.3501 -2.0455  0.2131
 5217TIP3    H237287   4.268   1.381   6.036 -0.9723  0.9038 -0.0215
 5218TIP3   OH237288   6.859   0.271   0.085 -0.3130 -0.2551  0.3581
 5218TIP3    H137289   6.825   0.341   0.029  2.2519  0.7320 -0.1062
 5218TIP3    H237290   6.790   0.204   0.084 -1.5653  0.9374 -1.6532
 5219TIP3   OH237291   6.507   6.364   1.024 -0.6569  0.3527 -0.6510
 5219TIP3    H137292   6.505   6.270   1.006 -0.2187 -0.0016  1.0153
 5219TIP3    H237293   6.543   6.403   0.944  0.5566 -1.0426 -0.8113
 5220TIP3   OH237294   1.955   0.949   6.160 -0.4693  0.0496  0.1904
 5220TIP3    H137295   1.885   0.906   6.111  0.9233 -0.8745 -1.0813
 5220TIP3    H237296   1.969   1.032   6.114 -0.9082  0.3724  0.6262
 5221TIP3   OH237297   6.500   2.170   0.925  0.2932 -0.1676  0.3678
 5221TIP3    H137298   6.527   2.246   0.873  1.3174 -0.3319  0.6465
 5221TIP3    H237299   6.493   2.099   0.861 -0.7641  0.1737  0.0904
 5222TIP3   OH237300   5.621   1.942   7.894  0.1390  0.6882 -0.2029
 5222TIP3    H137301   5.601   1.962   7.802 -0.0272 -0.2286 -0.3807
 5222TIP3    H237302   5.693   2.001   7.916  0.9021  0.2133 -1.2574
 5223TIP3   OH237303   6.186   4.584   6.393  0.5917  0.3064  0.1714
 5223TIP3    H137304   6.185   4.493   6.364  0.3316  0.0761  0.8612
 5223TIP3    H237305   6.168   4.635   6.314  2.1587 -0.1387 -0.5047
 5224TIP3   OH237306   1.133   4.744   1.056  0.0674  0.1994  0.3721
 5224TIP3    H137307   1.147   4.700   1.139 -3.3866 -1.6902  0.1248
 5224TIP3    H237308   1.066   4.809   1.074 -0.7480 -0.2446 -0.9129
 5225TIP3   OH237309   1.288   5.939   0.850  0.4798  0.0995  0.1975
 5225TIP3    H137310   1.322   6.029   0.858  0.8339 -0.0169  0.0024
 5225TIP3    H237311   1.197   5.946   0.881  0.2569  0.6856 -0.5410
 5226TIP3   OH237312   6.386   0.837   1.599 -0.2207  0.0463 -0.7793
 5226TIP3    H137313   6.303   0.879   1.579  0.4066  0.9350 -1.6139
 5226TIP3    H237314   6.453   0.899   1.569  0.7996  0.2336  1.6241
 5227TIP3   OH237315   6.349   3.806   7.559 -0.4242 -0.4070  0.1267
 5227TIP3    H137316   6.346   3.749   7.636  1.0256 -0.2903  0.2978
 5227TIP3    H237317   6.350   3.746   7.485  2.4601 -0.7396  0.3317
 5228TIP3   OH237318   5.232   2.722   7.503  0.5503  0.0927 -0.4913
 5228TIP3    H137319   5.160   2.749   7.447  0.5407 -1.0944 -1.0828
 5228TIP3    H237320   5.207   2.635   7.535  2.1807 -0.8571 -1.6241
 5229TIP3   OH237321   5.168   4.754   0.728  0.4997 -0.1764 -0.3600
 5229TIP3    H137322   5.115   4.834   0.729  0.0616 -0.4448 -1.0651
 5229TIP3    H237323   5.257   4.785   0.709  0.0185  0.0127 -2.5663
 5230TIP3   OH237324   0.636   4.128   0.033 -0.4217 -0.5943  0.4093
 5230TIP3    H137325   0.688   4.054   0.065 -1.5840 -1.3704  0.5765
 5230TIP3    H237326   0.607   4.173   0.112 -0.4287 -0.4706  0.3368
 5231TIP3   OH237327   5.920   4.323   6.858  0.2769 -0.1978  0.1355
 5231TIP3    H137328   5.992   4.315   6.921  0.4989  1.9288  0.2505
 5231TIP3    H237329   5.860   4.386   6.898 -0.4249 -0.1088 -1.0147
 5232TIP3   OH237330   4.603   4.984   1.107 -0.1286  0.0031  0.1179
 5232TIP3    H137331   4.516   5.004   1.143  0.3382 -0.1448  1.3734
 5232TIP3    H237332   4.600   4.890   1.090 -0.3972  0.0967 -0.3694
 5233TIP3   OH237333   4.185   3.494   0.439  0.4749 -0.3561 -0.0385
 5233TIP3    H137334   4.164   3.580   0.404  0.6084 -0.7540 -1.1181
 5233TIP3    H237335   4.252   3.512   0.506  2.3353  0.1763 -1.9510
 5234TIP3   OH237336   5.523   6.209   0.863 -0.4823 -0.0512 -0.1749
 5234TIP3    H137337   5.516   6.148   0.937  0.0443  0.6082  0.4435
 5234TIP3    H237338   5.520   6.154   0.785  0.4776 -0.9271  0.3748
 5235TIP3   OH237339   1.245   3.476   0.832  0.4918  0.6014 -0.1981
 5235TIP3    H137340   1.257   3.503   0.923  0.2952  1.3017 -0.3716
 5235TIP3    H237341   1.245   3.381   0.835 -1.7107  0.5753  0.8550
 5236TIP3   OH237342   5.128   6.120   0.744 -0.5135  0.4528  0.0754
 5236TIP3    H137343   5.131   6.173   0.824  0.2368 -2.0517  1.8147
 5236TIP3    H237344   5.047   6.070   0.752 -0.1188 -0.2778 -0.3952
 5237TIP3   OH237345   5.553   5.788   6.538  0.3938  0.3739 -0.1689
 5237TIP3    H137346   5.533   5.712   6.592 -1.0474 -1.5261 -3.0823
 5237TIP3    H237347   5.576   5.751   6.452 -0.7298  3.2096 -1.8412
 5238TIP3   OH237348   5.973   5.918   7.328  0.0504 -0.7072  0.0648
 5238TIP3    H137349   6.063   5.939   7.352 -0.1244 -0.3147  0.3736
 5238TIP3    H237350   5.973   5.919   7.232  0.3953 -0.8012  0.0632
 5239TIP3   OH237351   7.062   1.180   5.895  0.3239 -0.0320  0.5704
 5239TIP3    H137352   7.093   1.269   5.876 -0.1207 -0.0606 -0.3817
 5239TIP3    H237353   6.967   1.187   5.890  0.3063 -0.7114 -0.2875
 5240TIP3   OH237354   0.191   0.497   0.141 -0.5182 -0.5855 -0.1115
 5240TIP3    H137355   0.217   0.424   0.084  3.6519  0.4155  0.1901
 5240TIP3    H237356   0.208   0.576   0.090 -0.5704  0.2741  1.1346
 5241TIP3   OH237357   0.743   3.074   7.685 -0.2889 -0.1010  0.2155
 5241TIP3    H137358   0.776   3.123   7.760  1.2471 -1.0706  0.2092
 5241TIP3    H237359   0.799   3.101   7.612 -1.2794  0.2626 -0.4285
 5242TIP3   OH237360   7.154   4.532   0.363 -0.1365 -0.4438 -0.5928
 5242TIP3    H137361   7.115   4.445   0.358  0.6585 -0.8826  0.3639
 5242TIP3    H237362   7.206   4.540   0.284  0.1692 -1.0433 -0.4562
 5243TIP3   OH237363   0.619   4.133   1.175  0.0814  0.1026  0.2708
 5243TIP3    H137364   0.638   4.227   1.170 -0.2390  0.1746  0.3508
 5243TIP3    H237365   0.634   4.111   1.267 -1.9434  0.5543  0.7634
 5244TIP3   OH237366   1.148   2.921   2.266  0.1955  0.0035  0.1848
 5244TIP3    H137367   1.117   2.994   2.320  2.1860 -0.1479  1.6322
 5244TIP3    H237368   1.085   2.851   2.284 -0.3446  0.6009  0.6836
 5245TIP3   OH237369   6.919   6.724   1.166 -0.2458 -0.4565  0.1665
 5245TIP3    H137370   6.876   6.798   1.123 -0.8689 -0.4722  0.7621
 5245TIP3    H237371   7.005   6.718   1.123  0.2372  1.2783  0.8285
 5246TIP3   OH237372   7.020   0.748   0.101 -0.3459  0.0251  0.0096
 5246TIP3    H137373   6.984   0.778   0.184 -3.3309  1.0396 -1.4712
 5246TIP3    H237374   7.037   0.828   0.052  3.7438 -0.4124  0.3443
 5247TIP3   OH237375   4.246   5.225   6.310 -0.1287 -0.0257 -0.4624
 5247TIP3    H137376   4.328   5.225   6.359 -0.8064 -0.3789  0.7136
 5247TIP3    H237377   4.264   5.171   6.232  0.3275 -1.3681  0.5374
 5248TIP3   OH237378   3.223   2.932   0.458 -0.1530 -0.2414 -0.9553
 5248TIP3    H137379   3.183   2.902   0.377  0.0256  0.0338 -1.1468
 5248TIP3    H237380   3.202   3.025   0.463  1.0644  0.0795 -1.4345
 5249TIP3   OH237381   3.405   0.236   0.176  0.2982 -0.3122  0.5144
 5249TIP3    H137382   3.400   0.275   0.264  2.2165 -0.2872  0.6637
 5249TIP3    H237383   3.471   0.167   0.185  0.0156 -0.7640 -0.7480
 5250TIP3   OH237384   2.784   4.064   0.138  0.2218 -0.2509  0.2207
 5250TIP3    H137385   2.871   4.055   0.177  0.5488  0.2046 -0.3715
 5250TIP3    H237386   2.731   4.106   0.205  0.2641 -1.1770  0.8458
 5251TIP3   OH237387   3.245   6.239   7.193 -0.1637  0.0955  0.3161
 5251TIP3    H137388   3.235   6.200   7.280  0.5530  2.6644  1.6427
 5251TIP3    H237389   3.292   6.173   7.142  0.5538 -0.9706  2.2772
 5252TIP3   OH237390   2.140   6.364   1.633 -0.1465 -0.0232 -0.5767
 5252TIP3    H137391   2.088   6.444   1.633 -0.7863 -0.4092  0.9004
 5252TIP3    H237392   2.109   6.315   1.708  1.6158 -0.7630 -0.2736
 5253TIP3   OH237393   6.118   5.074   7.138  0.1042 -0.2870 -0.9416
 5253TIP3    H137394   6.060   5.086   7.063 -2.2809 -0.9151  0.6674
 5253TIP3    H237395   6.175   5.001   7.114  0.1356  0.2304 -2.5183
 5254TIP3   OH237396   5.036   4.830   0.432  0.0360 -0.2254 -0.1175
 5254TIP3    H137397   4.993   4.905   0.474  0.5479 -0.4370  0.8083
 5254TIP3    H237398   4.989   4.754   0.465 -0.3459 -0.3440 -0.8967
 5255TIP3   OH237399   6.270   0.077   0.458  0.6977 -0.1305 -0.3039
 5255TIP3    H137400   6.222   0.062   0.539  1.1396  0.6825  0.1183
 5255TIP3    H237401   6.342   0.013   0.460  1.1949  0.4401  0.3514
 5256TIP3   OH237402   6.897   3.483   1.113 -0.2173  0.3202 -0.4228
 5256TIP3    H137403   6.856   3.416   1.058 -3.0592 -1.5712  3.4966
 5256TIP3    H237404   6.838   3.559   1.106  0.3595  0.7235 -1.1496
 5257TIP3   OH237405   0.872   4.916   2.001  0.0961 -0.3123 -0.5866
 5257TIP3    H137406   0.917   5.000   1.995  1.6865 -1.1865 -1.4975
 5257TIP3    H237407   0.927   4.862   2.058  0.1744 -1.3390 -1.5754
 5258TIP3   OH237408   6.151   3.320   1.229  0.4013  0.2889 -0.5651
 5258TIP3    H137409   6.227   3.271   1.200  0.4837  0.9472 -1.5097
 5258TIP3    H237410   6.126   3.373   1.154 -1.0668  0.0038 -0.3229
 5259TIP3   OH237411   7.051   1.400   0.232  0.2283  0.0693 -0.7790
 5259TIP3    H137412   6.967   1.404   0.279  0.0709 -0.6630 -0.9909
 5259TIP3    H237413   7.083   1.312   0.248 -0.2021 -0.4702 -2.6758
 5260TIP3   OH237414   2.786   2.053   0.519 -0.1429  0.3559  0.0677
 5260TIP3    H137415   2.805   2.008   0.602 -0.1573 -2.2767 -1.2612
 5260TIP3    H237416   2.713   2.005   0.481  1.8314 -0.5724 -2.8980
 5261TIP3   OH237417   0.480   6.983   0.768 -0.0672 -0.5490 -0.0760
 5261TIP3    H137418   0.408   7.022   0.718 -0.0870  0.1777  0.4846
 5261TIP3    H237419   0.544   7.054   0.776  1.3338 -1.5633 -1.6907
 5262TIP3   OH237420   5.830   6.050   5.927 -0.6954  0.3092 -0.1355
 5262TIP3    H137421   5.892   6.028   5.858 -0.4651  1.4394 -0.3066
 5262TIP3    H237422   5.745   6.050   5.884 -0.4905  1.5681 -0.5621
 5263TIP3   OH237423   3.838   2.792   6.296 -0.0949  0.3394  0.2526
 5263TIP3    H137424   3.855   2.748   6.213 -0.4978  0.4704  0.1007
 5263TIP3    H237425   3.923   2.792   6.341  0.5226  1.7740 -0.8538
 5264TIP3   OH237426   4.288   2.753   1.147 -0.1533 -0.1084  0.4737
 5264TIP3    H137427   4.306   2.797   1.230  0.2034  0.9417 -0.1291
 5264TIP3    H237428   4.338   2.804   1.082 -4.0629  2.1418 -1.1504
 5265TIP3   OH237429   0.627   6.727   5.755 -0.4845 -0.1557  0.8818
 5265TIP3    H137430   0.596   6.810   5.791  0.0256 -0.0052  0.9835
 5265TIP3    H237431   0.715   6.716   5.793 -0.0820 -0.1707 -0.0422
 5266TIP3   OH237432   0.157   0.384   1.308 -0.0849 -0.5441 -0.2389
 5266TIP3    H137433   0.172   0.450   1.375 -0.5948 -0.5569 -0.1028
 5266TIP3    H237434   0.192   0.303   1.346  0.4885 -0.3632 -0.3831
 5267TIP3   OH237435   0.754   2.116   6.414 -0.3225 -0.2930 -0.0279
 5267TIP3    H137436   0.814   2.047   6.386  0.7957  0.5669  0.1625
 5267TIP3    H237437   0.765   2.121   6.509  1.6494  1.9049 -0.2807
 5268TIP3   OH237438   2.394   3.376   1.913 -0.0440  0.7682 -0.4133
 5268TIP3    H137439   2.425   3.467   1.920 -0.8216  0.9928  0.2612
 5268TIP3    H237440   2.377   3.363   1.820  1.6492  0.7650 -0.7703
 5269TIP3   OH237441   3.722   4.250   6.065  0.3071 -0.3540  0.2566
 5269TIP3    H137442   3.724   4.159   6.035 -0.9556 -0.6986  1.1024
 5269TIP3    H237443   3.652   4.290   6.013 -1.4558 -0.7901  2.1495
 5270TIP3   OH237444   0.264   7.152   0.695  0.3010  0.3941  0.7739
 5270TIP3    H137445   0.186   7.101   0.673  0.7260  0.1238 -0.1571
 5270TIP3    H237446   0.280   7.206   0.618  0.3771  1.2867  1.4058
 5271TIP3   OH237447   5.054   1.752   1.090  0.2787  0.1729  0.0667
 5271TIP3    H137448   5.147   1.741   1.072  0.4710  1.1810  0.3975
 5271TIP3    H237449   5.042   1.715   1.177  0.4262  0.2923  0.1381
 5272TIP3   OH237450   6.356   2.895   0.684 -0.0001  0.3586 -1.2607
 5272TIP3    H137451   6.332   2.878   0.593  0.0882  2.3061 -1.6861
 5272TIP3    H237452   6.367   2.808   0.723 -1.2260 -0.5215 -2.7828
 5273TIP3   OH237453   5.925   0.504   6.011 -0.3422 -0.1359 -0.3654
 5273TIP3    H137454   5.862   0.561   6.056  0.4936  0.0159  0.6513
 5273TIP3    H237455   5.874   0.426   5.988 -0.5218 -0.8409  2.1074
 5274TIP3   OH237456   0.371   3.787   5.743  0.6087 -0.0445 -0.3014
 5274TIP3    H137457   0.277   3.804   5.748  0.6743  0.2757 -0.1809
 5274TIP3    H237458   0.401   3.795   5.833  1.1733  2.2330 -0.6363
 5275TIP3   OH237459   1.084   0.822   0.149 -0.3271 -0.3693  0.6079
 5275TIP3    H137460   1.143   0.747   0.142  0.3359  0.2932 -1.4688
 5275TIP3    H237461   1.085   0.863   0.062  0.0580  2.5940  1.8735
 5276TIP3   OH237462   1.117   2.231   0.475 -0.3714 -0.5180  0.0867
 5276TIP3    H137463   1.179   2.304   0.477 -2.1841  1.1196  0.1679
 5276TIP3    H237464   1.110   2.203   0.567  0.1093 -0.6086  0.0982
 5277TIP3   OH237465   1.972   7.035   1.724 -0.0564 -0.0330  0.9886
 5277TIP3    H137466   1.987   7.077   1.639  0.8231  0.6887  1.4936
 5277TIP3    H237467   1.878   7.017   1.725 -0.2793  1.0282  0.3446
 5278TIP3   OH237468   6.131   0.248   7.460  0.3945  0.0772  0.0396
 5278TIP3    H137469   6.152   0.251   7.367  2.1241 -0.1418  0.3876
 5278TIP3    H237470   6.061   0.183   7.467  1.6485 -1.4588 -0.8911
 5279TIP3   OH237471   3.963   1.079   7.013  0.0988  0.0588 -0.0960
 5279TIP3    H137472   3.995   1.010   6.954  0.9541  0.1780  0.2016
 5279TIP3    H237473   3.995   1.052   7.099 -0.4426  0.3053  0.1822
 5280TIP3   OH237474   2.673   1.567   7.536  0.0090  0.6038  0.1288
 5280TIP3    H137475   2.721   1.607   7.608 -0.0268 -1.0152  1.1088
 5280TIP3    H237476   2.699   1.475   7.539 -0.5357  0.3759 -1.4987
 5281TIP3   OH237477   6.795   2.882   7.757 -0.3462  0.2500 -0.1508
 5281TIP3    H137478   6.878   2.835   7.757 -0.3267  0.2711  0.8792
 5281TIP3    H237479   6.790   2.923   7.843 -1.0499  0.9199 -0.4971
 5282TIP3   OH237480   1.726   5.173   7.353  0.0330 -0.3789  0.2472
 5282TIP3    H137481   1.721   5.183   7.448 -0.6138 -1.3124  0.3211
 5282TIP3    H237482   1.789   5.102   7.338 -2.2535 -2.5093  0.1572
 5283TIP3   OH237483   6.820   4.526   6.107 -0.6334  0.0265 -0.3551
 5283TIP3    H137484   6.848   4.495   6.194 -0.9434  1.4657  0.2850
 5283TIP3    H237485   6.750   4.589   6.126 -0.4315  0.6628 -1.6389
 5284TIP3   OH237486   1.122   6.991   0.976  0.3049  0.1426  0.8238
 5284TIP3    H137487   1.150   7.082   0.986  0.4015  0.2521 -0.3259
 5284TIP3    H237488   1.088   6.985   0.887  1.6691 -1.2900  0.3414
 5285TIP3   OH237489   6.358   3.748   2.001  0.6378  0.0244  0.5822
 5285TIP3    H137490   6.354   3.661   1.961 -2.1664  0.1300  0.3712
 5285TIP3    H237491   6.266   3.768   2.022  1.1340  3.1028  0.2367
 5286TIP3   OH237492   2.204   2.370   6.158 -0.1355 -0.3174  0.1930
 5286TIP3    H137493   2.244   2.357   6.072  0.0293  1.2781 -0.0001
 5286TIP3    H237494   2.126   2.315   6.157 -0.8729  0.7001 -1.4984
 5287TIP3   OH237495   5.918   1.558   1.406 -0.0319  0.3937  0.1353
 5287TIP3    H137496   5.882   1.519   1.327  0.5804  0.5014 -0.2026
 5287TIP3    H237497   5.842   1.574   1.462 -0.4750  0.3977 -0.4617
 5288TIP3   OH237498   5.247   4.179   7.322  0.0443 -0.2319  0.0463
 5288TIP3    H137499   5.176   4.242   7.312  0.1943 -0.0878 -0.1157
 5288TIP3    H237500   5.311   4.224   7.378 -0.0553 -0.4164  0.3108
 5289TIP3   OH237501   2.563   0.823   0.611  0.2321 -0.4622  0.0811
 5289TIP3    H137502   2.509   0.773   0.673  0.0016 -1.1238 -0.6346
 5289TIP3    H237503   2.567   0.911   0.649 -2.1578 -0.1068 -0.2958
 5290TIP3   OH237504   6.773   6.007   1.029  0.0071  0.0551  0.5764
 5290TIP3    H137505   6.807   5.923   1.060 -1.9934 -0.8582  0.4976
 5290TIP3    H237506   6.832   6.033   0.960  0.3615 -1.6079  0.2050
 5291TIP3   OH237507   6.004   5.753   7.662  0.5874 -0.3524 -0.4686
 5291TIP3    H137508   6.083   5.806   7.658  1.3345 -1.0008  2.6253
 5291TIP3    H237509   5.965   5.775   7.747 -1.7518 -1.1854 -1.2384
 5292TIP3   OH237510   2.104   3.484   1.324  0.2851  0.1008 -0.0534
 5292TIP3    H137511   2.190   3.478   1.283  0.3216  1.6381 -0.2711
 5292TIP3    H237512   2.086   3.578   1.328 -0.6652 -0.1111  1.4977
 5293TIP3   OH237513   6.867   0.060   7.457 -0.2675 -0.3638  0.3318
 5293TIP3    H137514   6.815   0.035   7.534 -1.5061 -1.6392 -0.8659
 5293TIP3    H237515   6.818   0.131   7.417 -0.7797 -1.1151 -0.4213
 5294TIP3   OH237516   1.777   2.744   1.367  0.1237 -0.3510 -0.1521
 5294TIP3    H137517   1.832   2.673   1.400  1.0810 -0.4668 -1.8834
 5294TIP3    H237518   1.827   2.824   1.383  0.8314 -0.4534 -1.7008
 5295TIP3   OH237519   5.645   4.345   1.180 -0.3669 -0.6447 -0.3123
 5295TIP3    H137520   5.593   4.273   1.144 -0.8778  0.3951 -1.7528
 5295TIP3    H237521   5.617   4.422   1.131  0.2291  0.5430  1.1247
 5296TIP3   OH237522   5.053   4.112   0.700 -0.2663 -0.3911  0.6178
 5296TIP3    H137523   4.984   4.075   0.755 -0.7816  0.9741  0.9404
 5296TIP3    H237524   5.017   4.111   0.612 -0.7629  0.4124  0.7993
 5297TIP3   OH237525   3.444   3.268   0.390  0.4574  1.1051  0.4506
 5297TIP3    H137526   3.454   3.247   0.297 -0.9552  0.5578  0.3977
 5297TIP3    H237527   3.385   3.201   0.424  0.9109  1.3258  1.7419
 5298TIP3   OH237528   5.659   5.533   6.420 -0.2717 -0.6269 -0.2783
 5298TIP3    H137529   5.707   5.453   6.395  0.2316 -0.3219 -0.3010
 5298TIP3    H237530   5.724   5.603   6.412 -0.1897 -0.4584  1.5306
 5299TIP3   OH237531   3.665   6.075   1.843  0.6995 -0.2760 -0.3112
 5299TIP3    H137532   3.597   6.108   1.902  1.5995  1.4064 -0.1705
 5299TIP3    H237533   3.620   6.063   1.759  0.3252  1.4621 -0.4050
 5300TIP3   OH237534   3.100   2.681   7.399 -0.3549 -0.2477 -0.0665
 5300TIP3    H137535   3.089   2.614   7.467  0.3289  1.0744  1.4257
 5300TIP3    H237536   3.191   2.671   7.371 -0.5653 -0.6304 -0.6183
 5301TIP3   OH237537   4.697   2.679   0.785 -0.1505 -0.5548 -0.5307
 5301TIP3    H137538   4.714   2.767   0.818 -0.2062  0.1005 -2.1390
 5301TIP3    H237539   4.732   2.621   0.852  0.3942  0.6869  0.3075
 5302TIP3   OH237540   6.888   7.058   1.688  0.6397 -0.1862  0.3293
 5302TIP3    H137541   6.963   7.035   1.744  1.5823  0.1702 -0.7440
 5302TIP3    H237542   6.880   7.153   1.698  0.0070 -0.2866  0.8178
 5303TIP3   OH237543   4.332   3.179   1.015 -0.1248  0.3592  0.7137
 5303TIP3    H137544   4.323   3.131   0.933 -1.4816 -0.3435  1.2374
 5303TIP3    H237545   4.426   3.198   1.022  0.1338 -0.3551 -0.5479
 5304TIP3   OH237546   0.177   6.090   7.451 -0.2291  0.1423 -0.1731
 5304TIP3    H137547   0.240   6.086   7.379  1.5716 -1.8883  1.4034
 5304TIP3    H237548   0.210   6.161   7.506  0.0329 -0.1607  0.0646
 5305TIP3   OH237549   4.346   4.916   5.751  0.3496 -0.2484  0.8640
 5305TIP3    H137550   4.267   4.860   5.753  0.5685 -0.5943 -0.0060
 5305TIP3    H237551   4.355   4.946   5.842 -1.5981  0.9532  0.7176
 5306TIP3   OH237552   2.457   0.877   0.134  0.1325 -0.4799  0.2751
 5306TIP3    H137553   2.515   0.848   0.204 -1.5806 -1.4438  1.3553
 5306TIP3    H237554   2.381   0.821   0.141 -0.4504 -0.0350 -1.8641
 5307TIP3   OH237555   4.389   2.168   6.902  0.3432 -0.5200 -0.3351
 5307TIP3    H137556   4.294   2.166   6.901  0.1064  1.4381  3.3734
 5307TIP3    H237557   4.415   2.083   6.938 -0.1012 -0.5243 -0.0207
 5308TIP3   OH237558   7.021   6.248   1.511  0.1484 -1.1207  0.5808
 5308TIP3    H137559   6.972   6.280   1.436  4.1106  0.6516 -1.5776
 5308TIP3    H237560   7.017   6.319   1.575  1.0717 -0.2963 -0.2421
 5309TIP3   OH237561   6.824   1.671   1.570  0.2627  0.0313  0.2128
 5309TIP3    H137562   6.882   1.619   1.626 -1.2577 -1.1468  0.7555
 5309TIP3    H237563   6.739   1.669   1.615 -0.4036  1.0802 -0.9372
 5310TIP3   OH237564   2.166   1.776   7.522  0.0925 -0.0699 -0.4464
 5310TIP3    H137565   2.113   1.729   7.458  0.1912  0.5520 -0.9993
 5310TIP3    H237566   2.178   1.863   7.484 -0.6109  0.6142  0.8385
 5311TIP3   OH237567   2.399   0.327   6.601 -0.4811 -0.4443  0.6473
 5311TIP3    H137568   2.423   0.383   6.675 -0.5084 -0.2737  0.5263
 5311TIP3    H237569   2.342   0.382   6.546  0.8389 -0.0247 -0.3370
 5312TIP3   OH237570   0.208   1.337   1.563  0.7790 -0.0485  0.6671
 5312TIP3    H137571   0.205   1.247   1.596  1.1687 -1.2819 -2.3460
 5312TIP3    H237572   0.295   1.369   1.589  0.4114 -0.2577  2.2848
 5313TIP3   OH237573   6.403   3.264   1.935 -0.3800  0.1154 -0.0765
 5313TIP3    H137574   6.338   3.194   1.926 -1.5291  0.2983  4.3612
 5313TIP3    H237575   6.464   3.231   2.002  2.0046  1.5019 -1.4046
 5314TIP3   OH237576   1.947   7.052   5.792  0.3317  0.7001 -0.3276
 5314TIP3    H137577   2.017   7.044   5.857  1.2538  0.9803 -1.2486
 5314TIP3    H237578   1.903   6.967   5.793 -0.8257  1.2678  1.9005
 5315TIP3   OH237579   6.358   2.235   1.721  0.7208 -0.0790  0.0858
 5315TIP3    H137580   6.421   2.294   1.764  0.2620  1.4578 -1.2462
 5315TIP3    H237581   6.307   2.198   1.794  2.0290 -0.0436  1.0610
 5316TIP3   OH237582   5.937   0.533   0.810 -0.3712 -0.1314 -0.2728
 5316TIP3    H137583   5.859   0.554   0.861  0.2631  0.1385  0.6064
 5316TIP3    H237584   5.998   0.495   0.873  0.4275  0.1839 -0.8340
 5317TIP3   OH237585   4.530   1.071   7.635 -0.4788  0.4806  0.0507
 5317TIP3    H137586   4.609   1.024   7.607 -1.3203 -0.8057 -0.2788
 5317TIP3    H237587   4.545   1.092   7.727 -0.5280 -1.5176  0.5620
 5318TIP3   OH237588   5.678   1.777   7.027  0.0097 -0.1040 -0.3716
 5318TIP3    H137589   5.748   1.765   7.091 -0.3352 -1.9769 -0.3028
 5318TIP3    H237590   5.662   1.872   7.027  1.7510  0.2327  0.4268
 5319TIP3   OH237591   4.014   0.412   0.061  0.0793  0.0678 -0.2250
 5319TIP3    H137592   3.983   0.468  -0.010 -0.3294  0.0668 -0.0535
 5319TIP3    H237593   4.089   0.458   0.098  0.3423  0.0298 -0.7074
 5320TIP3   OH237594   1.490   6.492   1.121 -0.0221 -0.4995 -0.3072
 5320TIP3    H137595   1.572   6.538   1.141 -0.3890 -0.3630  0.9588
 5320TIP3    H237596   1.497   6.471   1.028  0.1357  2.1721 -0.9936
 5321TIP3   OH237597   5.619   0.104   6.302 -0.1218 -0.6448  0.0792
 5321TIP3    H137598   5.566   0.151   6.367  0.7373 -0.6042  0.7771
 5321TIP3    H237599   5.556   0.066   6.242 -0.8947  0.4646  0.1485
 5322TIP3   OH237600   1.125   5.215   7.612 -0.0947  0.5331  0.2815
 5322TIP3    H137601   1.127   5.300   7.655 -0.7951  0.2345  0.9130
 5322TIP3    H237602   1.201   5.216   7.554  2.2226  0.1375  3.0656
 5323TIP3   OH237603   4.049   6.751   0.580 -0.1312  0.0923  0.0664
 5323TIP3    H137604   4.135   6.712   0.560 -0.7334 -0.6285 -1.2288
 5323TIP3    H237605   4.067   6.844   0.588  0.5555  0.1638 -1.7312
 5324TIP3   OH237606   0.007   3.738   0.939 -0.2878  0.5209 -0.1540
 5324TIP3    H137607  -0.036   3.725   1.023 -1.4777 -0.9474 -0.9367
 5324TIP3    H237608   0.074   3.670   0.935 -0.0156  0.7895 -0.2755
 5325TIP3   OH237609   4.912   5.786   7.453 -0.0435  0.1429  0.0879
 5325TIP3    H137610   5.007   5.786   7.457  0.1338  0.9371 -2.4283
 5325TIP3    H237611   4.888   5.879   7.447 -0.5998 -0.0839 -3.4249
 5326TIP3   OH237612   7.144   4.898   7.719  0.0393 -0.6583 -0.1922
 5326TIP3    H137613   7.232   4.900   7.756  0.2844  0.2302 -0.7967
 5326TIP3    H237614   7.140   4.817   7.669 -0.0430 -1.5030  1.1309
 5327TIP3   OH237615   4.359   5.731   6.722 -0.3765 -0.2193  0.3236
 5327TIP3    H137616   4.442   5.745   6.766 -0.5453  1.0574  0.2649
 5327TIP3    H237617   4.293   5.756   6.787 -0.7343 -1.2200  0.3722
 5328TIP3   OH237618   6.372   5.702   0.994  0.1284 -0.0662 -0.7198
 5328TIP3    H137619   6.446   5.759   1.016  0.2203 -0.0679 -1.0217
 5328TIP3    H237620   6.412   5.622   0.962 -0.0054  0.0168 -1.0942
 5329TIP3   OH237621   1.304   6.478   1.884 -0.5816 -0.2891  0.5540
 5329TIP3    H137622   1.379   6.481   1.825 -1.6287  2.3908 -0.7920
 5329TIP3    H237623   1.330   6.530   1.959 -1.7528  2.7135 -0.9533
 5330TIP3   OH237624   0.794   6.898   0.891 -0.2992  0.7405 -0.1827
 5330TIP3    H137625   0.875   6.870   0.849 -0.2850  0.7309 -0.1495
 5330TIP3    H237626   0.725   6.863   0.836 -0.3128 -0.8552  0.7859
 5331TIP3   OH237627   0.943   4.246   7.771 -0.5606 -0.4482  0.2449
 5331TIP3    H137628   0.924   4.339   7.756 -0.4683 -0.6125 -1.0111
 5331TIP3    H237629   0.863   4.211   7.810 -0.9323 -0.0364 -0.1341
 5332TIP3   OH237630   1.088   2.545   7.437  0.0080  0.2387  0.7143
 5332TIP3    H137631   1.182   2.538   7.453  0.3281  0.4551 -0.8969
 5332TIP3    H237632   1.054   2.458   7.459  0.4961  0.2875  1.7284
 5333TIP3   OH237633   0.486   2.741   2.292 -0.5540  0.1019  0.2100
 5333TIP3    H137634   0.468   2.700   2.208  1.0455 -0.6856  0.2113
 5333TIP3    H237635   0.416   2.710   2.350 -1.1001 -0.1427 -0.5644
 5334TIP3   OH237636   6.870   2.383   0.464 -0.3685  0.1706 -0.2571
 5334TIP3    H137637   6.840   2.340   0.544  3.8908 -1.0686  0.9077
 5334TIP3    H237638   6.863   2.476   0.482 -1.2939 -0.0773  0.7387
 5335TIP3   OH237639   1.017   2.493   0.472 -0.4861  0.0473  0.0686
 5335TIP3    H137640   1.006   2.401   0.497 -0.1780 -0.2283 -0.7710
 5335TIP3    H237641   0.928   2.525   0.458 -0.5855 -0.1685  0.2090
 5336TIP3   OH237642   6.404   3.232   1.179 -0.6415  0.1007 -0.1029
 5336TIP3    H137643   6.447   3.316   1.161 -1.1771  0.8283  1.7333
 5336TIP3    H237644   6.409   3.184   1.097 -2.4103  2.8708 -2.0127
 5337TIP3   OH237645   6.014   5.195   0.638 -0.2140  0.3590  0.4025
 5337TIP3    H137646   6.048   5.136   0.572 -1.0536 -0.6099  0.8131
 5337TIP3    H237647   5.951   5.250   0.591  0.5552  0.9408  0.0253
 5338TIP3   OH237648   2.647   1.960   1.619  0.4085 -0.2017  0.1747
 5338TIP3    H137649   2.607   2.010   1.690  0.3477  0.5838 -0.3953
 5338TIP3    H237650   2.581   1.895   1.595  0.9078 -1.2913  1.6403
 5339TIP3   OH237651   4.930   3.062   1.972  0.4952 -0.5370 -0.6221
 5339TIP3    H137652   4.920   3.005   2.048 -1.4315 -3.0279 -2.5741
 5339TIP3    H237653   4.993   3.017   1.916 -0.9689 -0.7906 -2.1518
 5340TIP3   OH237654   1.745   5.607   1.286 -0.1290  0.6312  0.1735
 5340TIP3    H137655   1.654   5.635   1.283  0.1384  1.4592 -0.3433
 5340TIP3    H237656   1.757   5.574   1.376 -0.6288  1.5263  0.5785
 5341TIP3   OH237657   5.576   1.803   0.663 -0.1495  0.3520  0.1660
 5341TIP3    H137658   5.505   1.857   0.628  0.8685  0.0310 -2.5587
 5341TIP3    H237659   5.550   1.713   0.645  2.1879  0.2437 -3.9402
 5342TIP3   OH237660   6.606   2.376   1.789  0.1213 -0.4250 -0.3631
 5342TIP3    H137661   6.607   2.423   1.872 -0.7289  1.0380 -1.1480
 5342TIP3    H237662   6.698   2.367   1.765  0.2847  1.8026 -0.7123
 5343TIP3   OH237663   2.246   1.223   0.764  0.2107 -0.0989 -0.6114
 5343TIP3    H137664   2.268   1.130   0.757  0.6897  0.0309 -0.8458
 5343TIP3    H237665   2.316   1.261   0.816 -0.4549 -0.0300  0.2516
 5344TIP3   OH237666   4.850   1.970   1.355 -0.0074 -0.1235 -0.2752
 5344TIP3    H137667   4.807   1.984   1.271  0.8390  0.8315 -0.5838
 5344TIP3    H237668   4.795   2.017   1.418  0.3839  0.8404 -0.6199
 5345TIP3   OH237669   0.201   3.378   0.761  0.1099 -0.3330  0.1246
 5345TIP3    H137670   0.115   3.420   0.763 -0.4064 -1.3746  1.6395
 5345TIP3    H237671   0.182   3.284   0.758  1.2053 -0.5562 -0.3109
 5346TIP3   OH237672   6.781   3.807   1.788 -0.4444  0.0456  0.0333
 5346TIP3    H137673   6.863   3.842   1.824 -0.4688  0.5693 -0.4041
 5346TIP3    H237674   6.782   3.833   1.696 -0.3655 -1.3102 -0.3724
 5347TIP3   OH237675   6.644   1.466   1.117 -0.3498  0.0011 -0.1911
 5347TIP3    H137676   6.642   1.425   1.204 -1.7692 -0.8917 -0.6087
 5347TIP3    H237677   6.734   1.497   1.107 -0.0253 -0.3361  1.3847
 5348TIP3   OH237678   6.014   2.168   0.116  0.2186 -0.1913  0.1454
 5348TIP3    H137679   6.041   2.081   0.145  0.2519  0.2049  1.3662
 5348TIP3    H237680   6.024   2.223   0.193  1.0498  1.0959 -0.8271
 5349TIP3   OH237681   4.742   5.534   7.935 -0.6583 -0.1521  0.6419
 5349TIP3    H137682   4.733   5.528   7.840 -3.2612 -3.3908  0.9018
 5349TIP3    H237683   4.833   5.561   7.949  1.1104 -3.3987 -2.8071
 5350TIP3   OH237684   4.959   1.437   7.626  0.3398 -0.5601  0.3456
 5350TIP3    H137685   4.894   1.471   7.688 -0.4489 -0.5798 -0.4367
 5350TIP3    H237686   5.002   1.366   7.673  1.1213  0.6643  1.5480
 5351TIP3   OH237687   3.136   2.817   0.211  0.1590  0.6126  0.3136
 5351TIP3    H137688   3.050   2.807   0.171  0.5533  0.5963 -0.5740
 5351TIP3    H237689   3.192   2.756   0.163  0.4532 -0.1625  1.5916
 5352TIP3   OH237690   3.110   1.270   6.883 -0.0766  0.7045  0.4879
 5352TIP3    H137691   3.151   1.311   6.807 -0.7387  0.4132 -0.0328
 5352TIP3    H237692   3.183   1.253   6.943  0.7086 -0.5678 -0.7536
 5353TIP3   OH237693   2.940   1.571   1.030  0.5084 -0.0318 -0.5017
 5353TIP3    H137694   2.972   1.578   1.120  0.2200 -1.6573 -0.2591
 5353TIP3    H237695   2.849   1.542   1.038 -1.2990  4.5700 -1.1669
 5354TIP3   OH237696   6.807   1.817   5.899  0.2056 -0.5175  0.4658
 5354TIP3    H137697   6.889   1.782   5.863  0.6460 -0.7190  1.6107
 5354TIP3    H237698   6.740   1.792   5.835  0.6702 -2.5171  0.7055
 5355TIP3   OH237699   5.938   0.489   7.598 -0.1650 -0.2850 -0.3639
 5355TIP3    H137700   5.863   0.440   7.565 -1.3355  0.8311  0.5440
 5355TIP3    H237701   5.979   0.429   7.660 -1.3482 -0.3100  0.4353
 5356TIP3   OH237702   5.140   4.410   6.559  0.5397  0.0263  0.1652
 5356TIP3    H137703   5.138   4.381   6.650 -0.0744 -0.2878  0.0613
 5356TIP3    H237704   5.201   4.483   6.558  1.3507 -0.6346  0.6223
 5357TIP3   OH237705   0.248   1.279   7.701 -0.3982  0.0502  0.2127
 5357TIP3    H137706   0.201   1.210   7.654 -0.6353 -0.5886  1.3486
 5357TIP3    H237707   0.340   1.266   7.677 -0.3110 -1.2768  1.1016
 5358TIP3   OH237708   6.070   0.574   6.652 -0.8621 -0.0450  0.4475
 5358TIP3    H137709   6.103   0.484   6.646  2.3187  1.0973 -1.4999
 5358TIP3    H237710   6.072   0.595   6.745  1.3097 -1.0372  0.6745
 5359TIP3   OH237711   4.605   4.097   7.802  0.0722  0.4260  0.3288
 5359TIP3    H137712   4.514   4.072   7.789  0.7032 -1.4833 -0.9331
 5359TIP3    H237713   4.651   4.060   7.726  1.8178  1.8044  0.6431
 5360TIP3   OH237714   3.838   2.198   1.424  0.4555  0.2061 -0.0384
 5360TIP3    H137715   3.775   2.209   1.352  0.2872  1.7306  0.3022
 5360TIP3    H237716   3.904   2.138   1.390 -0.1959  0.0622 -1.0761
 5361TIP3   OH237717   2.998   4.343   6.868 -0.3816  0.0603  0.3307
 5361TIP3    H137718   2.935   4.318   6.936 -1.2765 -0.6452 -0.7203
 5361TIP3    H237719   2.949   4.401   6.810  0.4424  0.8476  0.4069
 5362TIP3   OH237720   6.633   1.409   7.098 -0.3705 -0.1092  0.0043
 5362TIP3    H137721   6.640   1.393   7.192 -0.9233 -0.6652 -0.0413
 5362TIP3    H237722   6.542   1.438   7.086 -0.4623 -0.5581 -0.4252
 5363TIP3   OH237723   2.317   5.719   1.411 -0.2281 -0.0437 -0.1143
 5363TIP3    H137724   2.388   5.717   1.475  1.0191 -0.0606 -1.4473
 5363TIP3    H237725   2.357   5.688   1.330 -2.0410 -1.1182 -0.6545
 5364TIP3   OH237726   5.998   3.574   6.334 -0.0621 -0.0012  0.3964
 5364TIP3    H137727   6.053   3.543   6.406  1.4081  1.6442  0.0610
 5364TIP3    H237728   5.963   3.658   6.366  0.2695  0.5374 -0.6292
 5365TIP3   OH237729   2.870   0.642   7.192 -0.3181 -0.5295  0.3597
 5365TIP3    H137730   2.961   0.638   7.220 -0.2387  2.7072  0.9297
 5365TIP3    H237731   2.871   0.610   7.102  1.2599 -1.0789  0.5507
 5366TIP3   OH237732   6.928   4.112   1.672  0.2728  0.1514 -0.5576
 5366TIP3    H137733   6.929   4.084   1.763 -1.6620  0.8001 -0.2972
 5366TIP3    H237734   7.017   4.142   1.654  0.8840 -0.7615  0.8545
 5367TIP3   OH237735   2.298   1.575   7.248 -0.1099  0.4409  0.8052
 5367TIP3    H137736   2.376   1.623   7.276  0.4383  1.2166 -1.7947
 5367TIP3    H237737   2.332   1.490   7.219 -0.4110  0.3202  0.8014
 5368TIP3   OH237738   6.794   0.408   1.021 -0.3031 -0.4366  0.1373
 5368TIP3    H137739   6.737   0.339   1.054  1.1893 -0.3743  3.1328
 5368TIP3    H237740   6.745   0.489   1.035 -0.2390 -0.5287  0.8946
 5369TIP3   OH237741   5.941   6.847   7.603  0.0394 -0.5548 -0.7330
 5369TIP3    H137742   5.897   6.764   7.587  0.2583 -0.7806 -0.1671
 5369TIP3    H237743   6.015   6.825   7.660 -1.1931  0.3476  1.2895
 5370TIP3   OH237744   4.372   5.305   1.215 -0.4349  0.1686 -0.3796
 5370TIP3    H137745   4.424   5.378   1.250  0.6005 -0.1921 -1.0900
 5370TIP3    H237746   4.294   5.346   1.178  1.2789  1.3035 -3.0524
 5371TIP3   OH237747   1.046   4.037   0.240 -0.3599  0.2531 -0.4381
 5371TIP3    H137748   1.058   4.086   0.159  0.4184  1.2309  0.2464
 5371TIP3    H237749   1.118   3.974   0.240 -0.1653  0.4744 -0.3498
 5372TIP3   OH237750   4.966   0.402   1.605  0.0806  0.1647 -0.0941
 5372TIP3    H137751   5.034   0.469   1.595 -0.0627  0.5491  1.3030
 5372TIP3    H237752   4.919   0.427   1.684 -2.7823  0.8174 -1.8933
 5373TIP3   OH237753   2.658   0.710   1.156  0.3410 -0.0355 -0.0844
 5373TIP3    H137754   2.652   0.624   1.114  0.7455  0.0405 -0.3087
 5373TIP3    H237755   2.654   0.691   1.249  0.0698 -0.2655 -0.1410
 5374TIP3   OH237756   2.813   0.960   1.036 -0.6403  0.0176 -0.1571
 5374TIP3    H137757   2.766   0.885   1.074 -0.2286 -0.1396  0.0420
 5374TIP3    H237758   2.813   0.943   0.942 -0.4841 -0.2705 -0.1052
 5375TIP3   OH237759   4.759   2.206   0.039 -0.1069 -0.0674  0.0577
 5375TIP3    H137760   4.721   2.287   0.073  1.1535 -0.0201  1.4773
 5375TIP3    H237761   4.807   2.169   0.114  0.2595 -1.5545 -0.8735
 5376TIP3   OH237762   1.637   2.142   7.867 -0.1632  0.3001  0.0446
 5376TIP3    H137763   1.679   2.057   7.879 -0.2776  0.1848 -0.3536
 5376TIP3    H237764   1.687   2.183   7.796 -0.1483  0.5423  0.1921
 5377TIP3   OH237765   1.042   5.503   0.272 -0.2084 -0.0614 -0.4007
 5377TIP3    H137766   0.950   5.505   0.246 -0.9309  0.1746  2.0093
 5377TIP3    H237767   1.042   5.533   0.363  1.9119 -2.7983  0.6205
 5378TIP3   OH237768   0.230   5.225   0.146 -0.2442 -0.3225 -0.5007
 5378TIP3    H137769   0.138   5.214   0.122 -0.4930  0.0794  0.2246
 5378TIP3    H237770   0.230   5.220   0.242  0.2382  1.3376 -0.3809
 5379TIP3   OH237771   2.778   4.643   2.004  0.0382  0.1937  0.1882
 5379TIP3    H137772   2.752   4.595   1.925  0.6223  1.4689 -0.8122
 5379TIP3    H237773   2.723   4.606   2.073  0.0154 -1.4649 -0.6473
 5380TIP3   OH237774   0.909   0.557   7.738 -0.5010  0.2580  0.3920
 5380TIP3    H137775   0.966   0.544   7.814 -1.8780  0.8267  1.5763
 5380TIP3    H237776   0.949   0.629   7.689  0.5059 -0.2405  0.4676
 5381TIP3   OH237777   1.470   5.475   1.360 -0.0507 -0.0490 -0.2965
 5381TIP3    H137778   1.473   5.565   1.329 -1.5008  1.2561  2.9346
 5381TIP3    H237779   1.376   5.455   1.366  0.0645 -0.1414  2.9939
 5382TIP3   OH237780   5.156   1.707   7.658  0.0380 -0.1353 -0.4676
 5382TIP3    H137781   5.067   1.677   7.637 -0.1176 -1.5833  1.8522
 5382TIP3    H237782   5.198   1.630   7.696  1.5316  1.1405  0.5738
 5383TIP3   OH237783   6.308   4.586   1.657  0.2070  0.0790 -0.1903
 5383TIP3    H137784   6.377   4.519   1.654  1.5433  1.1076  2.9046
 5383TIP3    H237785   6.229   4.537   1.681  0.6714 -0.6618 -0.1400
 5384TIP3   OH237786   6.159   6.664   0.972  0.0542 -0.2168 -0.2079
 5384TIP3    H137787   6.226   6.644   1.037  0.3190 -0.5335 -0.5748
 5384TIP3    H237788   6.120   6.746   1.003  0.5315 -0.0888  0.0689
 5385TIP3   OH237789   6.229   2.986   6.876 -0.0593  0.2057 -0.1427
 5385TIP3    H137790   6.306   3.026   6.835  1.5291 -0.5156  1.9789
 5385TIP3    H237791   6.208   2.911   6.820 -0.5968  1.5951 -1.9147
 5386TIP3   OH237792   4.488   0.596   0.581 -0.1178  0.4049  0.4374
 5386TIP3    H137793   4.447   0.534   0.520  0.9197 -0.0290  0.1610
 5386TIP3    H237794   4.467   0.561   0.668  0.8338 -0.6051  0.2810
 5387TIP3   OH237795   0.417   7.208   1.709 -0.2164 -0.4614  0.2849
 5387TIP3    H137796   0.332   7.168   1.690 -0.7195  0.9215 -0.5195
 5387TIP3    H237797   0.404   7.251   1.793 -0.5631  0.3746 -0.1840
 5388TIP3   OH237798   2.819   1.589   0.767 -0.0940 -0.1443 -0.0958
 5388TIP3    H137799   2.821   1.500   0.731 -3.6219 -0.4719  0.1553
 5388TIP3    H237800   2.875   1.584   0.845 -1.7928 -2.8430  1.1200
 5389TIP3   OH237801   5.816   1.278   1.579 -0.0916  0.3368 -0.6406
 5389TIP3    H137802   5.791   1.253   1.668  0.6683 -0.2554 -0.5865
 5389TIP3    H237803   5.880   1.347   1.591  0.8757 -0.5311 -0.6865
 5390TIP3   OH237804   0.012   6.428   5.985  0.0092  0.5036  0.1606
 5390TIP3    H137805  -0.056   6.494   5.977  0.2181  0.5764 -1.1364
 5390TIP3    H237806   0.092   6.471   5.956  0.4344  0.1198  0.7282
 5391TIP3   OH237807   0.442   3.409   7.549  0.1305  0.0368 -0.1771
 5391TIP3    H137808   0.442   3.481   7.612 -1.6125  0.0498 -0.1499
 5391TIP3    H237809   0.428   3.331   7.602 -1.9045  0.0996 -0.5468
 5392TIP3   OH237810   1.340   3.226   0.579  0.1002 -0.6437  0.3270
 5392TIP3    H137811   1.344   3.315   0.544 -1.6557 -0.7940 -0.3109
 5392TIP3    H237812   1.361   3.169   0.505 -1.7022 -0.8736 -0.0388
 5393TIP3   OH237813   7.211   7.051   0.774 -0.0802  0.5441  0.0001
 5393TIP3    H137814   7.268   7.009   0.837  2.8187  3.8116 -0.1397
 5393TIP3    H237815   7.179   7.129   0.819 -2.5649  0.0601 -0.7802
 5394TIP3   OH237816   6.993   6.161   0.550 -0.1104  0.3156 -0.3411
 5394TIP3    H137817   6.993   6.158   0.645 -1.9530 -1.8982 -0.3338
 5394TIP3    H237818   6.962   6.249   0.528 -0.2278  0.6508  1.0856
 5395TIP3   OH237819   2.499   1.039   0.769  0.0084 -0.1691  0.1912
 5395TIP3    H137820   2.551   1.119   0.777  1.1176 -0.9664  1.3464
 5395TIP3    H237821   2.455   1.031   0.854 -1.7982  0.3042 -0.6432
 5396TIP3   OH237822   2.839   3.864   7.323 -0.4300 -0.1594 -0.0098
 5396TIP3    H137823   2.794   3.894   7.402 -1.9327  0.9536 -1.2159
 5396TIP3    H237824   2.827   3.769   7.323 -2.2574  0.0214  0.0951
 5397TIP3   OH237825   1.510   0.841   7.566  0.4183 -0.2943 -0.2318
 5397TIP3    H137826   1.598   0.843   7.604  0.2513 -0.2987  0.1574
 5397TIP3    H237827   1.513   0.768   7.504  0.2505 -1.2775  0.8728
 5398TIP3   OH237828   6.641   1.384   1.385 -0.1369 -0.6401  0.0216
 5398TIP3    H137829   6.734   1.363   1.395  0.2497  0.0527 -1.7498
 5398TIP3    H237830   6.636   1.478   1.402 -0.4330 -0.6037 -0.2625
 5399TIP3   OH237831   0.018   0.139   1.096 -0.1300  0.2599 -0.3179
 5399TIP3    H137832   0.084   0.192   1.140 -0.5972  1.4085 -0.9717
 5399TIP3    H237833  -0.047   0.201   1.064 -1.8992 -0.8890  0.8515
 5400TIP3   OH237834   0.736   3.543   1.818 -0.2114 -0.0505 -0.5905
 5400TIP3    H137835   0.751   3.488   1.741  0.3686  0.4345 -0.8287
 5400TIP3    H237836   0.816   3.534   1.870  0.4494  1.6040 -1.2747
 5401TIP3   OH237837   5.290   4.204   5.499  0.3003  0.5215 -0.0900
 5401TIP3    H137838   5.204   4.176   5.469  0.3558  0.4945 -0.2247
 5401TIP3    H237839   5.289   4.300   5.488 -0.3462  0.7326  1.5425
 5402TIP3   OH237840   3.698   0.134   0.922 -0.0148  0.7041  0.0126
 5402TIP3    H137841   3.751   0.065   0.882  0.9285  0.7917  1.0450
 5402TIP3    H237842   3.702   0.116   1.016 -1.6709  0.8417  0.1439
 5403TIP3   OH237843   6.769   3.936   7.518 -0.3286  0.1201 -0.1731
 5403TIP3    H137844   6.685   3.947   7.474 -0.4196  3.9103  0.6044
 5403TIP3    H237845   6.746   3.911   7.608 -0.4144 -1.4944 -0.6080
 5404TIP3   OH237846   0.069   1.063   0.638 -0.4543  0.6894  0.3059
 5404TIP3    H137847   0.014   0.993   0.601  0.0339  0.9577 -0.9899
 5404TIP3    H237848   0.106   1.025   0.717 -0.4114 -0.4371 -0.2332
 5405TIP3   OH237849   2.723   6.492   5.972  0.4211  0.2562  0.3901
 5405TIP3    H137850   2.734   6.405   5.933 -0.6508 -0.1640  0.9805
 5405TIP3    H237851   2.636   6.520   5.945 -0.4530 -0.1347  2.5579
 5406TIP3   OH237852   0.199   4.630   0.531  0.0737  0.5077  0.3721
 5406TIP3    H137853   0.185   4.575   0.608  0.3132  0.4846  0.4008
 5406TIP3    H237854   0.274   4.684   0.554 -0.3509  1.0599  0.4566
 5407TIP3   OH237855   0.860   2.759   0.700  0.7881  0.1215  0.1700
 5407TIP3    H137856   0.950   2.764   0.668  0.8637 -0.0606  0.3550
 5407TIP3    H237857   0.835   2.667   0.689  0.4784  0.2513 -0.2756
 5408TIP3   OH237858   2.842   1.002   0.752  0.3001  0.2211 -0.2941
 5408TIP3    H137859   2.813   1.041   0.670 -0.4449 -0.4541 -0.3511
 5408TIP3    H237860   2.836   0.908   0.739 -2.4001  0.0647  1.3968
 5409TIP3   OH237861   0.679   5.713   6.036  0.1646  0.2273  0.2514
 5409TIP3    H137862   0.690   5.645   5.969  2.2185 -0.0716  0.8480
 5409TIP3    H237863   0.655   5.665   6.115 -0.3348  0.3998  0.2093
 5410TIP3   OH237864   4.203   3.187   1.896 -0.1366  0.4644 -0.2774
 5410TIP3    H137865   4.199   3.144   1.811  0.6954  0.0622 -0.1203
 5410TIP3    H237866   4.287   3.160   1.933 -0.0850  1.3573  0.2896
 5411TIP3   OH237867   1.864   6.550   0.183  0.2935  0.0041 -0.1403
 5411TIP3    H137868   1.790   6.608   0.203  0.3989  0.6604 -1.5022
 5411TIP3    H237869   1.857   6.479   0.247 -1.6219 -0.0379 -0.3380
 5412TIP3   OH237870   6.324   1.414   6.259 -0.1600  0.0538  0.1318
 5412TIP3    H137871   6.316   1.509   6.258  0.7025  0.1310 -0.0346
 5412TIP3    H237872   6.415   1.397   6.234  0.0153 -0.7712  1.2305
 5413TIP3   OH237873   1.184   6.539   0.149 -0.3692 -0.2771 -0.4762
 5413TIP3    H137874   1.249   6.473   0.125 -0.1707 -0.3389  0.2068
 5413TIP3    H237875   1.111   6.488   0.185 -0.0930 -0.1203  0.3336
 5414TIP3   OH237876   4.891   1.954   7.665 -0.8589  0.2648  0.1584
 5414TIP3    H137877   4.902   1.864   7.634  1.4688  0.5952 -0.1490
 5414TIP3    H237878   4.969   2.000   7.634 -1.6923  2.2504  0.8474
 5415TIP3   OH237879   6.624   4.351   6.853  0.0606  0.5374 -0.0219
 5415TIP3    H137880   6.534   4.383   6.858  0.2877  1.0464  2.7926
 5415TIP3    H237881   6.677   4.430   6.843  0.2284  0.1961 -2.2331
 5416TIP3   OH237882   3.879   1.876   0.152  0.1579 -0.3192  0.5882
 5416TIP3    H137883   3.973   1.889   0.156  0.3329 -1.3553  0.1976
 5416TIP3    H237884   3.843   1.940   0.213  1.1517 -0.3849  1.2654
 5417TIP3   OH237885   3.178   4.434   7.544 -0.6869  0.3296  0.4558
 5417TIP3    H137886   3.259   4.399   7.583 -1.1386  1.7470  2.8824
 5417TIP3    H237887   3.110   4.372   7.569 -0.4525 -0.6487 -1.2373
 5418TIP3   OH237888   5.548   1.820   1.319 -0.0605 -0.0246 -0.0363
 5418TIP3    H137889   5.549   1.726   1.304 -2.2070  0.2290 -2.4984
 5418TIP3    H237890   5.472   1.835   1.376 -0.5148  0.3026 -0.7119
 5419TIP3   OH237891   0.348   5.772   1.019  0.0924  0.3251 -0.3410
 5419TIP3    H137892   0.363   5.696   1.076 -1.1941  0.2636 -0.0483
 5419TIP3    H237893   0.379   5.847   1.070  1.5378  0.0032 -0.7038
 5420TIP3   OH237894   5.831   5.221   7.870  0.7455 -1.0495 -0.4525
 5420TIP3    H137895   5.881   5.194   7.793  0.9331 -0.0674 -0.6791
 5420TIP3    H237896   5.767   5.151   7.883  0.7283 -1.2300 -1.4828
 5421TIP3   OH237897   6.033   1.598   7.474  0.1183 -0.4664  0.0786
 5421TIP3    H137898   5.988   1.629   7.395  0.8498  3.2613  0.9744
 5421TIP3    H237899   6.110   1.654   7.482  0.5113 -1.2508  3.0233
 5422TIP3   OH237900   6.847   1.033   1.269 -0.0949  0.9400 -0.1201
 5422TIP3    H137901   6.890   1.104   1.318  3.6606 -0.4220 -1.1151
 5422TIP3    H237902   6.900   1.023   1.190  0.1986 -3.5134  0.3733
 5423TIP3   OH237903   2.939   1.417   7.738  0.2171  0.1239 -0.4500
 5423TIP3    H137904   2.926   1.331   7.697 -1.8806  0.0086  0.3726
 5423TIP3    H237905   2.936   1.400   7.832  0.6515  1.0049 -0.2598
 5424TIP3   OH237906   4.347   2.653   7.791  0.5127 -0.6134  0.1822
 5424TIP3    H137907   4.339   2.576   7.848 -2.3316 -0.4518  0.1416
 5424TIP3    H237908   4.272   2.708   7.815  1.6065  1.4371 -0.8670
 5425TIP3   OH237909   3.494   0.967   0.723  0.2294  0.1175  0.0040
 5425TIP3    H137910   3.561   0.899   0.719 -0.2220 -0.3550  0.3379
 5425TIP3    H237911   3.505   1.007   0.809 -1.1459 -1.2577  0.8605
 5426TIP3   OH237912   6.469   4.264   6.252 -0.2992 -0.5231 -0.1809
 5426TIP3    H137913   6.493   4.343   6.203 -1.7147 -0.8850 -1.5577
 5426TIP3    H237914   6.551   4.230   6.285  1.1509 -1.4716 -4.1910
 5427TIP3   OH237915   4.683   7.140   7.756  0.2366  0.4056 -0.2220
 5427TIP3    H137916   4.731   7.128   7.674  1.6849  2.6360  0.1931
 5427TIP3    H237917   4.750   7.130   7.824 -0.5037  0.6287  0.5501
 5428TIP3   OH237918   3.054   5.324   2.181 -0.4535 -0.3017 -0.1237
 5428TIP3    H137919   3.113   5.380   2.232 -0.7914  0.3276 -0.4112
 5428TIP3    H237920   3.095   5.237   2.183  1.0672  0.3444 -1.2083
 5429TIP3   OH237921   5.310   4.531   0.834 -0.8054 -0.1771  0.0617
 5429TIP3    H137922   5.235   4.488   0.875 -0.5933  0.7803  1.4945
 5429TIP3    H237923   5.274   4.614   0.800 -0.2036  0.8324  1.7795
 5430TIP3   OH237924   3.564   4.807   5.700  0.7025 -0.4350 -0.2016
 5430TIP3    H137925   3.485   4.763   5.669  0.9502 -0.7327 -0.4074
 5430TIP3    H237926   3.621   4.736   5.731  0.6617 -0.1822  0.4699
 5431TIP3   OH237927   5.050   1.491   7.056  0.6353 -0.1108 -0.1355
 5431TIP3    H137928   5.006   1.406   7.047  0.4584 -0.1974  1.3558
 5431TIP3    H237929   5.050   1.508   7.150  1.7871  0.9579 -0.3070
 5432TIP3   OH237930   4.560   3.085   5.989  0.0136 -0.0057 -0.3272
 5432TIP3    H137931   4.642   3.112   5.949  0.5512 -1.8769 -0.5845
 5432TIP3    H237932   4.492   3.135   5.944  1.0121  1.7872  0.0992
 5433TIP3   OH237933   5.086   6.430   1.090 -0.1603 -0.1392 -0.1890
 5433TIP3    H137934   5.051   6.480   1.016  0.1926 -0.4110 -0.5513
 5433TIP3    H237935   5.145   6.490   1.134 -1.0043  0.2929  0.3738
 5434TIP3   OH237936   6.138   0.380   7.867  0.3600 -0.1680 -0.4323
 5434TIP3    H137937   6.151   0.472   7.845  0.9408 -0.0288  0.4608
 5434TIP3    H237938   6.043   0.370   7.874  0.3453  0.9819  1.9422
 5435TIP3   OH237939   5.643   1.994   7.339  0.3377 -0.0619  0.0754
 5435TIP3    H137940   5.715   1.940   7.305 -0.3169 -1.0873  0.2780
 5435TIP3    H237941   5.686   2.067   7.383  1.2378  0.8484 -2.1704
 5436TIP3   OH237942   0.549   4.103   6.516  0.0536 -0.9464  0.5037
 5436TIP3    H137943   0.523   4.018   6.482 -0.7725 -0.7358  0.6007
 5436TIP3    H237944   0.636   4.088   6.553  1.2786 -1.0633 -2.1753
 5437TIP3   OH237945   6.844   4.525   6.811 -0.0209  0.2127  0.1709
 5437TIP3    H137946   6.886   4.440   6.796  0.9768  0.5617  0.9095
 5437TIP3    H237947   6.838   4.564   6.723 -1.2836 -0.9547 -0.2975
 5438TIP3   OH237948   1.719   4.869   0.728  0.7912  0.2175  0.0089
 5438TIP3    H137949   1.631   4.893   0.697 -0.0504 -1.4580  0.9426
 5438TIP3    H237950   1.740   4.789   0.680  1.2405 -0.1093  0.7354
 5439TIP3   OH237951   2.550   3.298   0.499 -0.4379 -0.1462  0.1598
 5439TIP3    H137952   2.528   3.378   0.452  2.1600  0.3166 -0.4198
 5439TIP3    H237953   2.588   3.240   0.432  1.6738 -0.1555  1.2631
 5440TIP3   OH237954   2.497   3.944   7.838 -0.2382  0.3649 -0.4401
 5440TIP3    H137955   2.435   4.005   7.879 -1.1029 -0.7025 -0.1250
 5440TIP3    H237956   2.546   3.906   7.911  0.5620  0.9302 -0.6623
 5441TIP3   OH237957   6.309   1.825   6.961  0.2109  0.8261  0.0268
 5441TIP3    H137958   6.329   1.918   6.951 -2.3000  1.3651 -0.5662
 5441TIP3    H237959   6.224   1.814   6.920 -1.0081 -1.1095  2.7857
 5442TIP3   OH237960   6.029   6.088   0.975 -0.0702  0.2875  0.4001
 5442TIP3    H137961   6.031   6.155   1.043  0.6145  0.5658  0.1103
 5442TIP3    H237962   6.120   6.061   0.965 -0.4348 -1.3681  1.1748
 5443TIP3   OH237963   5.847   4.485   1.071 -0.0292  0.4653  0.0271
 5443TIP3    H137964   5.939   4.475   1.094  0.1541 -0.5936 -1.0338
 5443TIP3    H237965   5.800   4.435   1.138  0.0415  1.9716  1.2586
 5444TIP3   OH237966   0.399   6.328   0.647  0.0595 -0.1985  0.4674
 5444TIP3    H137967   0.451   6.247   0.647  0.6907  0.1849 -0.2785
 5444TIP3    H237968   0.448   6.388   0.590 -0.6772  0.5307  0.5723
 5445TIP3   OH237969   0.269   5.125   0.634 -0.4612 -0.3463 -0.3209
 5445TIP3    H137970   0.225   5.160   0.557 -2.4617 -1.5854  0.1882
 5445TIP3    H237971   0.243   5.184   0.705 -0.4587 -0.5064 -0.1877
 5446TIP3   OH237972   6.985   2.519   1.247 -0.8494  0.6079  0.1678
 5446TIP3    H137973   6.923   2.455   1.282 -1.0806  0.6163 -0.2196
 5446TIP3    H237974   7.055   2.524   1.312 -1.3281  0.7063  0.6797
 5447TIP3   OH237975   7.081   4.051   5.982 -0.1437 -0.0953  0.3198
 5447TIP3    H137976   7.039   4.069   5.898 -0.3307 -0.5963  0.3056
 5447TIP3    H237977   7.065   3.958   5.998  0.8403 -0.2670  0.3727
 5448TIP3   OH237978   5.107   3.061   6.291  0.3350 -0.7743 -0.0582
 5448TIP3    H137979   5.138   2.970   6.288  0.7616 -0.6084 -1.2377
 5448TIP3    H237980   5.060   3.073   6.209 -0.0252 -0.0163  0.2467
 5449TIP3   OH237981   5.220   6.788   6.973 -0.0790  0.2753  0.3455
 5449TIP3    H137982   5.279   6.837   6.917 -0.3395  0.8237  0.5509
 5449TIP3    H237983   5.133   6.807   6.939 -0.1618 -0.3135  0.2137
 5450TIP3   OH237984   0.501   6.745   6.522 -0.1079 -0.2702  0.8396
 5450TIP3    H137985   0.411   6.720   6.504 -0.0308 -0.0317  0.0893
 5450TIP3    H237986   0.523   6.808   6.453  1.2986 -1.8707 -0.2489
 5451TIP3   OH237987   1.299   1.156   0.589  0.4475  0.6748  0.5756
 5451TIP3    H137988   1.304   1.064   0.614 -1.9107  0.0088 -1.0134
 5451TIP3    H237989   1.368   1.166   0.523  1.6931  0.4665  1.8223
 5452TIP3   OH237990   6.552   5.229   7.397  0.3635 -0.7016 -0.5634
 5452TIP3    H137991   6.584   5.157   7.451  0.0341  0.5235  1.3715
 5452TIP3    H237992   6.570   5.202   7.307  1.3256 -2.6512  0.1630
 5453TIP3   OH237993   5.664   3.795   0.092  0.3685  0.6926 -0.1239
 5453TIP3    H137994   5.751   3.805   0.131  0.5675 -0.8457 -0.1186
 5453TIP3    H237995   5.659   3.703   0.069 -0.1013  1.3512 -2.9609
 5454TIP3   OH237996   0.801   1.328   2.249 -0.4934  0.6491  0.7838
 5454TIP3    H137997   0.724   1.287   2.288 -1.2660 -1.9762 -2.9178
 5454TIP3    H237998   0.770   1.361   2.165  2.3144 -0.3255 -0.7669
 5455TIP3   OH237999   4.760   6.814   0.995 -0.4814  1.2438  0.0235
 5455TIP3    H138000   4.799   6.738   1.039  0.2725  1.2257 -0.6638
 5455TIP3    H238001   4.671   6.818   1.029 -0.8483 -0.5276 -0.6436
 5456TIP3   OH238002   2.043   1.842   5.991 -0.2143  0.1075  0.5290
 5456TIP3    H138003   1.968   1.863   5.935  1.0679  1.0696 -0.8817
 5456TIP3    H238004   2.026   1.752   6.020 -1.3096 -0.1312 -0.7596
 5457TIP3   OH238005   0.794   2.715   0.159 -0.1461 -0.4343  0.1931
 5457TIP3    H138006   0.759   2.672   0.237 -0.3932  0.8057  0.7919
 5457TIP3    H238007   0.752   2.669   0.086  0.1996 -1.7099  0.7637
 5458TIP3   OH238008   7.053   5.557   1.143 -0.2240 -0.1586  0.0601
 5458TIP3    H138009   7.129   5.534   1.089  0.3809  0.0095  0.8222
 5458TIP3    H238010   7.016   5.472   1.167  0.4437 -0.2840  0.6825
 5459TIP3   OH238011   4.353   5.781   0.701  0.0876 -0.0569  0.2832
 5459TIP3    H138012   4.377   5.698   0.742  1.0665  1.0683  2.1258
 5459TIP3    H238013   4.260   5.772   0.682 -0.3496 -0.7892  2.5115
 5460TIP3   OH238014   5.491   2.308   0.264 -0.4767  0.0772  0.1391
 5460TIP3    H138015   5.580   2.343   0.258 -0.4406  0.0478  0.4954
 5460TIP3    H238016   5.497   2.236   0.327 -0.6369 -0.3012 -0.2705
 5461TIP3   OH238017   6.538   3.921   1.887 -0.0201 -0.4104 -0.1140
 5461TIP3    H138018   6.489   3.881   1.958 -1.5668  0.5620 -0.5728
 5461TIP3    H238019   6.616   3.867   1.877  1.7739  0.9986  4.2163
 5462TIP3   OH238020   5.398   3.176   2.173  0.6053  0.5792 -0.2277
 5462TIP3    H138021   5.430   3.139   2.256  0.8210  1.2647  0.0022
 5462TIP3    H238022   5.363   3.101   2.125  0.4927  0.1728  0.4803
 5463TIP3   OH238023   4.697   2.452   0.175  0.4398 -0.4996 -0.3047
 5463TIP3    H138024   4.651   2.426   0.254  0.3995 -0.1216 -0.2045
 5463TIP3    H238025   4.784   2.478   0.205 -0.2852  1.8696 -0.0588
 5464TIP3   OH238026   0.645   2.539   1.695  0.2844 -0.2911 -0.5448
 5464TIP3    H138027   0.587   2.514   1.624 -0.9276 -0.9530  0.6270
 5464TIP3    H238028   0.601   2.507   1.774  2.1434 -0.6376  0.4075
 5465TIP3   OH238029   1.181   6.200   0.081  0.0211 -0.3299 -0.1428
 5465TIP3    H138030   1.122   6.233   0.148 -0.7497 -2.3674  0.2564
 5465TIP3    H238031   1.212   6.278   0.035 -2.9380  0.8475 -0.3441
 5466TIP3   OH238032   4.665   0.235   1.467  0.3851  0.2437 -0.0631
 5466TIP3    H138033   4.652   0.157   1.412 -1.9071  0.7994 -0.3762
 5466TIP3    H238034   4.689   0.200   1.553  1.0161 -0.7283 -0.6118
 5467TIP3   OH238035   5.996   5.196   6.141 -0.1285 -0.2173  0.0291
 5467TIP3    H138036   5.926   5.204   6.076 -0.8268  1.4576  0.9308
 5467TIP3    H238037   6.077   5.205   6.090 -0.6450  0.4729 -0.6965
 5468TIP3   OH238038   1.590   6.093   1.088 -0.4079  0.7937 -0.7267
 5468TIP3    H138039   1.673   6.115   1.129 -1.3308  1.7682  0.6706
 5468TIP3    H238040   1.569   6.005   1.121 -2.2056  2.3628  2.8813
 5469TIP3   OH238041   4.198   1.541   7.612 -0.2051  0.2768  0.0909
 5469TIP3    H138042   4.165   1.491   7.537 -0.7644 -0.1169  0.5888
 5469TIP3    H238043   4.290   1.514   7.620  0.1702  1.1324 -1.1035
 5470TIP3   OH238044   4.832   4.388   0.027 -0.2888 -0.2642 -0.0534
 5470TIP3    H138045   4.744   4.411  -0.001  0.3974  1.2275 -1.1053
 5470TIP3    H238046   4.885   4.393  -0.053  0.8923 -0.3617  0.6950
 5471TIP3   OH238047   4.941   5.351   7.432  0.2413 -0.3206  0.3605
 5471TIP3    H138048   5.037   5.348   7.437  0.2938  1.5312  1.7479
 5471TIP3    H238049   4.919   5.307   7.350  2.1228 -2.6795  1.0048
 5472TIP3   OH238050   6.832   2.296   7.686 -0.3812 -0.4605 -0.3104
 5472TIP3    H138051   6.909   2.260   7.642 -0.8744 -1.3547 -0.4716
 5472TIP3    H238052   6.780   2.219   7.710 -0.3498  0.0183  1.4403
 5473TIP3   OH238053   3.143   6.647   6.472 -0.0814 -0.2239  0.5006
 5473TIP3    H138054   3.148   6.740   6.449  1.3451 -0.6925 -1.4203
 5473TIP3    H238055   3.217   6.634   6.532  1.0284 -0.4562 -0.8483
 5474TIP3   OH238056   4.713   1.252   6.338  0.4820  0.1750 -0.6971
 5474TIP3    H138057   4.737   1.305   6.415 -0.4326 -2.2875  1.4196
 5474TIP3    H238058   4.797   1.223   6.302  0.9521  1.9543 -1.1549
 5475TIP3   OH238059   0.022   2.207   7.158 -0.2181 -0.3558  0.2807
 5475TIP3    H138060   0.075   2.287   7.157  0.3523 -0.7174 -1.4621
 5475TIP3    H238061  -0.007   2.199   7.249 -0.4696  1.9439  0.4655
 5476TIP3   OH238062   2.110   4.664   7.750  0.1661  0.9212 -0.4127
 5476TIP3    H138063   2.037   4.721   7.726 -0.6042  0.4021  0.6738
 5476TIP3    H238064   2.076   4.607   7.818  1.0856 -0.4957 -1.0956
 5477TIP3   OH238065   5.508   5.024   1.508 -0.0812  1.2353 -0.2176
 5477TIP3    H138066   5.421   4.985   1.515  0.5580  0.0819  2.1549
 5477TIP3    H238067   5.499   5.110   1.549 -0.4674  1.8871 -1.5895
 5478TIP3   OH238068   6.673   3.145   7.569 -0.0038  0.4373  0.0540
 5478TIP3    H138069   6.725   3.168   7.646  2.3632 -2.7974 -0.3823
 5478TIP3    H238070   6.600   3.094   7.604 -1.0798  2.1145  0.3747
 5479TIP3   OH238071   0.999   0.512   0.589  0.4373  0.7756  0.2932
 5479TIP3    H138072   0.950   0.541   0.511 -2.1815 -1.1624  1.0752
 5479TIP3    H238073   0.973   0.574   0.657 -0.2843  0.2753  0.4884
 5480TIP3   OH238074   3.537   3.807   6.924 -0.1264 -0.4283  0.4999
 5480TIP3    H138075   3.631   3.790   6.934  0.7376  2.2817 -1.6756
 5480TIP3    H238076   3.513   3.854   7.004  0.5217 -0.5718  0.7883
 5481TIP3   OH238077   6.884   3.047   5.961  0.6391 -0.4609  0.1175
 5481TIP3    H138078   6.914   2.957   5.973  1.0533 -0.4468 -0.7954
 5481TIP3    H238079   6.846   3.070   6.046 -0.7512 -1.9671 -0.0341
 5482TIP3   OH238080   3.271   5.689   7.413 -0.2308 -0.9100  0.1879
 5482TIP3    H138081   3.332   5.663   7.481 -2.3279 -1.1898  2.0739
 5482TIP3    H238082   3.188   5.648   7.438 -2.3053  2.8441  0.1712
 5483TIP3   OH238083   0.631   1.277   6.416 -0.2086  0.4019  0.1126
 5483TIP3    H138084   0.666   1.353   6.370 -0.3241 -0.0136 -0.6681
 5483TIP3    H238085   0.708   1.225   6.438 -0.2213  0.1774 -0.3712
 5484TIP3   OH238086   3.136   2.899   0.765 -0.1535 -0.2860  0.1487
 5484TIP3    H138087   3.180   2.829   0.716  0.2754  0.4186 -0.5064
 5484TIP3    H238088   3.187   2.908   0.845 -1.8663 -2.6265  1.6113
 5485TIP3   OH238089   0.988   0.389   1.043  0.1904 -0.6788  0.1671
 5485TIP3    H138090   0.969   0.340   1.123 -0.5512  0.4585  0.7161
 5485TIP3    H238091   1.006   0.478   1.074 -0.8939 -0.0364 -0.9856
 5486TIP3   OH238092   0.780   5.365   5.929 -0.1000  0.1233 -0.8926
 5486TIP3    H138093   0.709   5.423   5.901 -1.2392 -0.0066  1.4366
 5486TIP3    H238094   0.742   5.316   6.002  2.1747 -0.4812 -0.0482
 5487TIP3   OH238095   6.204   1.650   0.804  0.1107 -0.0395  0.5912
 5487TIP3    H138096   6.214   1.609   0.890  1.5489 -0.5678  0.2019
 5487TIP3    H238097   6.205   1.577   0.742 -0.9216  0.3323  0.1020
 5488TIP3   OH238098   3.658   4.590   5.834 -0.3826 -0.1685  0.2280
 5488TIP3    H138099   3.740   4.551   5.804 -0.9410  0.1667 -1.8969
 5488TIP3    H238100   3.605   4.514   5.859 -0.9300 -0.8056 -2.4946
 5489TIP3   OH238101   0.363   6.614   7.597  0.3644 -0.5152  0.1814
 5489TIP3    H138102   0.307   6.691   7.595  2.0338  0.8118  1.6227
 5489TIP3    H238103   0.417   6.621   7.517  1.7662  0.8721  1.1872
 5490TIP3   OH238104   2.058   3.471   6.297  0.1335  0.3675  0.1689
 5490TIP3    H138105   2.060   3.410   6.370  1.7607  1.1895  0.8685
 5490TIP3    H238106   2.029   3.419   6.223 -1.5401 -0.4992  1.3736
 5491TIP3   OH238107   6.156   3.395   7.313 -0.4066  0.0232  0.0596
 5491TIP3    H138108   6.250   3.395   7.329 -0.2511 -2.1713 -0.5433
 5491TIP3    H238109   6.118   3.434   7.392  1.0208  1.6785 -0.0315
 5492TIP3   OH238110   6.463   4.842   1.649 -0.1410 -0.0897 -0.3944
 5492TIP3    H138111   6.440   4.891   1.570  1.2329 -1.0563 -1.4369
 5492TIP3    H238112   6.404   4.766   1.648 -0.4172  0.1188 -0.2399
 5493TIP3   OH238113   2.606   5.380   6.038  0.2639 -0.0275  0.0859
 5493TIP3    H138114   2.570   5.294   6.020 -1.7252  1.0039 -1.3108
 5493TIP3    H238115   2.580   5.399   6.128  1.9557 -1.3974  0.9156
 5494TIP3   OH238116   5.902   0.121   7.393  0.0542 -0.5949 -0.0467
 5494TIP3    H138117   5.844   0.168   7.333 -2.3005  0.1664  2.6608
 5494TIP3    H238118   5.879   0.029   7.382 -2.2868 -0.2547  1.4776
 5495TIP3   OH238119   6.028   2.798   5.823 -0.3703 -0.0979  0.0828
 5495TIP3    H138120   6.006   2.731   5.759 -1.0796 -1.4120  1.6248
 5495TIP3    H238121   5.957   2.862   5.818 -0.8896 -0.6649  0.1810
 5496TIP3   OH238122   7.102   3.207   5.990 -0.0482 -0.4929  0.9632
 5496TIP3    H138123   7.190   3.170   5.982 -0.3469 -1.0276 -0.0362
 5496TIP3    H238124   7.044   3.137   5.961 -0.7319  0.2349  0.5325
 5497TIP3   OH238125   0.810   3.603   7.949 -0.7780  0.1591 -0.1561
 5497TIP3    H138126   0.879   3.629   7.888 -1.4628  2.5548  0.0055
 5497TIP3    H238127   0.846   3.621   8.036 -0.7864 -0.7505  0.0502
 5498TIP3   OH238128   6.964   5.928   7.399 -0.1641  0.4734 -0.5641
 5498TIP3    H138129   6.957   5.916   7.304  0.8604 -0.3659 -0.5447
 5498TIP3    H238130   6.877   5.903   7.432 -0.1229 -0.5279 -1.1617
 5499TIP3   OH238131   4.818   2.872   7.557  0.7119  0.9209 -0.0549
 5499TIP3    H138132   4.768   2.904   7.482 -0.2463  1.4295  0.7678
 5499TIP3    H238133   4.895   2.928   7.560  0.9385  0.6547 -0.8713
 5500TIP3   OH238134   1.174   2.292   7.980 -0.1138 -0.2512  0.2698
 5500TIP3    H138135   1.241   2.230   7.950 -0.3748  0.0518 -0.9933
 5500TIP3    H238136   1.147   2.339   7.900 -0.1062  1.3125  1.1496
 5501TIP3   OH238137   4.399   2.895   1.741 -0.1234 -0.3624  0.4565
 5501TIP3    H138138   4.407   2.971   1.798 -1.3511  0.0321  0.1384
 5501TIP3    H238139   4.357   2.829   1.795 -1.1353 -0.0433  0.0880
 5502TIP3   OH238140   7.057   5.667   0.808  0.1640  0.0655 -0.5889
 5502TIP3    H138141   7.152   5.674   0.823 -0.0922  1.2011  0.7604
 5502TIP3    H238142   7.032   5.589   0.857 -0.1038  1.8005  2.2638
 5503TIP3   OH238143   6.052   6.226   0.692  0.0378 -0.6519 -0.3690
 5503TIP3    H138144   6.071   6.300   0.750  0.9850  0.1785 -1.6937
 5503TIP3    H238145   5.985   6.259   0.632  1.1092 -0.5565 -1.5327
 5504TIP3   OH238146   6.227   3.214   7.018  0.3251  0.0611  0.3381
 5504TIP3    H138147   6.218   3.134   6.966  4.0172 -0.0856 -0.3726
 5504TIP3    H238148   6.177   3.198   7.098  0.0171 -2.4597 -0.2979
 5505TIP3   OH238149   0.931   3.666   0.188 -0.5493  0.0185  0.2810
 5505TIP3    H138150   1.012   3.698   0.228  0.6224 -0.1948 -1.7978
 5505TIP3    H238151   0.909   3.588   0.239  0.9211 -0.2793  0.4965
 5506TIP3   OH238152   6.612   0.024   7.083 -0.1635  0.0446 -0.8598
 5506TIP3    H138153   6.591  -0.014   7.169  1.2322 -0.8231 -0.8614
 5506TIP3    H238154   6.550   0.095   7.072  0.8517  1.4985  1.7808
 5507TIP3   OH238155   0.479   2.679   0.248 -0.4341  0.0024  0.4250
 5507TIP3    H138156   0.405   2.732   0.218  0.0282  0.0122 -0.7521
 5507TIP3    H238157   0.530   2.739   0.302 -0.6848  0.3311  0.3086
 5508TIP3   OH238158   1.991   3.048   7.554 -0.0413 -0.0743  0.5818
 5508TIP3    H138159   1.933   3.055   7.629 -0.2880 -0.7519  0.4657
 5508TIP3    H238160   2.070   3.005   7.589  0.4870  1.0122  0.7821
 5509TIP3   OH238161   6.970   6.161   6.668 -0.4755  0.1943 -0.7642
 5509TIP3    H138162   6.916   6.237   6.689  2.0029  2.2934 -1.3509
 5509TIP3    H238163   7.040   6.196   6.612  0.8804 -2.5171 -0.9603
 5510TIP3   OH238164   3.685   2.061   7.073  0.3102  0.0600  0.6304
 5510TIP3    H138165   3.728   2.001   7.013  0.9129  0.5622  0.5428
 5510TIP3    H238166   3.734   2.053   7.155  1.4332  1.5809  0.1521
 5511TIP3   OH238167   2.315   1.356   0.109  0.1067  0.2613 -0.1188
 5511TIP3    H138168   2.367   1.278   0.128 -0.6768 -0.5374 -1.1089
 5511TIP3    H238169   2.332   1.415   0.182  3.7555  0.7824 -1.1766
 5512TIP3   OH238170   7.178   6.627   6.202  0.0770 -0.1261 -0.1786
 5512TIP3    H138171   7.093   6.583   6.191  0.4600 -0.5051 -1.9242
 5512TIP3    H238172   7.161   6.718   6.179 -0.2410  0.2201  1.3259
 5513TIP3   OH238173   1.660   0.566   1.137 -0.5069 -0.0835  0.6481
 5513TIP3    H138174   1.582   0.566   1.192 -1.7555  1.8372 -0.9763
 5513TIP3    H238175   1.627   0.555   1.048  1.0357  1.0774 -0.1174
 5514TIP3   OH238176   0.240   1.816   1.358  0.2292  0.0421  0.6775
 5514TIP3    H138177   0.334   1.796   1.359  0.2247 -0.4023 -1.7729
 5514TIP3    H238178   0.229   1.874   1.283 -1.4427  0.1938  1.0094
 5515TIP3   OH238179   1.970   4.860   0.917 -0.5614  0.0606 -0.4879
 5515TIP3    H138180   1.968   4.924   0.987 -0.7260 -0.1044 -0.3408
 5515TIP3    H238181   1.879   4.851   0.889 -0.3213  1.2509 -1.7588
 5516TIP3   OH238182   2.601   1.280   0.424 -0.7954  0.8847 -0.5133
 5516TIP3    H138183   2.631   1.343   0.490 -1.5773  1.7474 -0.9524
 5516TIP3    H238184   2.541   1.222   0.472 -2.6310  2.4857 -0.7430
 5517TIP3   OH238185   0.559   0.701   7.159 -0.2358  0.3188 -0.1523
 5517TIP3    H138186   0.605   0.785   7.157  0.6633 -0.1389  0.7484
 5517TIP3    H238187   0.548   0.681   7.252 -1.7845  0.1364 -0.3419
 5518TIP3   OH238188   0.354   1.216   6.238  0.1234 -0.3184  0.0868
 5518TIP3    H138189   0.375   1.140   6.184 -1.7635 -0.8665  0.0721
 5518TIP3    H238190   0.412   1.285   6.204  0.5439 -1.2373 -1.1512
 5519TIP3   OH238191   7.162   0.962   6.642 -0.3195  0.2216 -0.1880
 5519TIP3    H138192   7.178   1.044   6.596  0.8133  0.0431 -0.1382
 5519TIP3    H238193   7.104   0.987   6.715  0.9595  1.2110  0.5332
 5520TIP3   OH238194   0.052   6.616   0.431 -1.2110 -0.1713  0.5268
 5520TIP3    H138195   0.089   6.534   0.465 -1.4542 -1.1551 -1.4321
 5520TIP3    H238196   0.012   6.658   0.507  1.3428 -0.4745  2.1507
 5521TIP3   OH238197   0.368   1.921   7.340 -0.7148  0.0239 -0.0176
 5521TIP3    H138198   0.349   2.008   7.376  0.2153  0.1879  0.0997
 5521TIP3    H238199   0.284   1.876   7.341 -0.6773 -0.1848  2.9058
 5522TIP3   OH238200   6.500   4.364   1.935  0.6772  0.3341 -0.7244
 5522TIP3    H138201   6.579   4.398   1.978 -0.7062  1.2714  1.2074
 5522TIP3    H238202   6.472   4.292   1.991 -0.9035  1.2601 -0.2836
 5523TIP3   OH238203   6.957   4.285   2.008 -1.0671 -0.1885 -0.2166
 5523TIP3    H138204   6.863   4.275   2.023 -1.1267  1.2622  0.5434
 5523TIP3    H238205   6.963   4.333   1.926 -0.9511 -1.0231 -0.7065
 5524TIP3   OH238206   5.576   3.897   0.367  0.6082  0.2798 -0.5752
 5524TIP3    H138207   5.621   3.982   0.365  2.0779 -0.4837 -1.9258
 5524TIP3    H238208   5.583   3.864   0.277  0.3481 -1.4355  0.0035
 5525TIP3   OH238209   4.120   6.995   7.323 -0.2657 -0.0141  0.0219
 5525TIP3    H138210   4.215   6.989   7.337  0.1507  0.6298 -2.1709
 5525TIP3    H238211   4.102   6.928   7.257 -1.4274 -0.3785  0.6917
 5526TIP3   OH238212   5.513   5.784   1.158  0.5879 -0.3519 -0.1214
 5526TIP3    H138213   5.510   5.725   1.083  0.3222 -0.9099  0.3255
 5526TIP3    H238214   5.530   5.870   1.120  1.0365 -0.7199 -0.7732
 5527TIP3   OH238215   5.026   0.526   6.285 -0.6637 -0.2956 -0.0633
 5527TIP3    H138216   5.098   0.547   6.225 -1.3370  0.6173 -0.5844
 5527TIP3    H238217   4.978   0.456   6.241 -0.5532 -0.3518 -0.0953
 5528TIP3   OH238218   5.305   0.120   0.816 -0.4311  0.8923 -0.1236
 5528TIP3    H138219   5.218   0.125   0.777 -0.5287  0.0924 -0.0296
 5528TIP3    H238220   5.291   0.137   0.909 -0.4119  1.2777 -0.1897
 5529TIP3   OH238221   4.098   5.710   5.608  0.1579  0.0386  0.3257
 5529TIP3    H138222   4.145   5.775   5.556  0.0604  0.3927  0.6723
 5529TIP3    H238223   4.008   5.743   5.611  0.1103 -0.1087  0.5061
 5530TIP3   OH238224   3.009   5.126   0.780 -0.0204 -0.5209  0.2275
 5530TIP3    H138225   2.934   5.177   0.809 -0.0993 -0.2958 -0.3617
 5530TIP3    H238226   3.046   5.090   0.860  0.4254  0.9915  0.7328
 5531TIP3   OH238227   3.930   1.916   1.665 -0.4954  0.0987  0.2454
 5531TIP3    H138228   3.902   2.006   1.650 -1.7633 -0.3369 -0.1334
 5531TIP3    H238229   3.944   1.910   1.760  1.0885  1.0801  0.1120
 5532TIP3   OH238230   6.334   4.369   1.114  0.0313 -0.0497 -0.1729
 5532TIP3    H138231   6.389   4.366   1.192 -0.8145  1.7749  0.5476
 5532TIP3    H238232   6.362   4.448   1.067  0.0761 -0.7630 -1.3914
 5533TIP3   OH238233   6.174   2.014   0.278  0.3277  0.1627  0.0250
 5533TIP3    H138234   6.107   2.019   0.347  0.2270 -0.0087 -0.0603
 5533TIP3    H238235   6.241   1.955   0.314  0.2339  0.0046 -0.0580
 5534TIP3   OH238236   5.917   6.707   0.123 -0.7160  0.1961 -0.1735
 5534TIP3    H138237   5.905   6.626   0.074 -3.7880  1.1532 -1.2819
 5534TIP3    H238238   6.011   6.711   0.140 -0.1048 -2.3723 -2.1816
 5535TIP3   OH238239   5.092   1.727   6.937 -0.8984 -0.5244 -0.2187
 5535TIP3    H138240   5.040   1.752   7.014 -0.8733 -1.3770  0.0901
 5535TIP3    H238241   5.115   1.635   6.953 -0.7674 -0.6655 -1.1786
 5536TIP3   OH238242   1.939   4.512   1.688 -0.2760  0.3210 -0.1452
 5536TIP3    H138243   1.956   4.454   1.614  0.5312 -0.6762  0.7849
 5536TIP3    H238244   2.023   4.518   1.734 -1.0655 -0.2532  1.4841
 5537TIP3   OH238245   1.457   4.404   5.666  0.1931  0.1924  0.3197
 5537TIP3    H138246   1.377   4.422   5.715  0.4536  0.6917  0.5648
 5537TIP3    H238247   1.488   4.320   5.700 -0.8828 -0.6115 -0.6392
 5538TIP3   OH238248   5.527   4.532   1.019  0.6289 -0.4830 -0.1300
 5538TIP3    H138249   5.499   4.600   1.080 -1.0446 -1.2860  0.0398
 5538TIP3    H238250   5.464   4.534   0.948  1.1907 -1.1387 -0.6717
 5539TIP3   OH238251   5.972   6.349   5.881 -0.4810 -0.0764  0.7870
 5539TIP3    H138252   5.940   6.291   5.812 -0.4528 -0.2402  0.9096
 5539TIP3    H238253   5.893   6.391   5.915 -0.3928  0.7875 -0.0371
 5540TIP3   OH238254   3.826   4.361   2.042  0.3796 -0.7162  0.3776
 5540TIP3    H138255   3.876   4.415   1.981 -0.5284 -2.1629 -1.7504
 5540TIP3    H238256   3.757   4.419   2.075  0.0322 -0.2494 -1.0923
 5541TIP3   OH238257   3.646   4.482   0.862 -0.0113 -0.2878  0.4221
 5541TIP3    H138258   3.676   4.572   0.851 -2.9793  0.6878 -0.6417
 5541TIP3    H238259   3.687   4.433   0.791  0.6813  0.4535  0.2997
 5542TIP3   OH238260   3.107   3.113   7.515  0.2808  0.4857  0.4158
 5542TIP3    H138261   3.100   3.025   7.479 -1.4154  1.3721 -1.6264
 5542TIP3    H238262   3.202   3.128   7.524  0.8021 -0.2042 -2.8069
 5543TIP3   OH238263   1.899   4.507   1.068 -1.8324  0.4641  0.0554
 5543TIP3    H138264   1.953   4.533   0.993  1.3068  2.7389  2.7594
 5543TIP3    H238265   1.940   4.427   1.101 -2.3559  0.2055  0.0832
 5544TIP3   OH238266   3.641   5.412   7.190 -0.1725 -0.4321  0.3613
 5544TIP3    H138267   3.636   5.464   7.270  1.4679 -0.9753  0.8519
 5544TIP3    H238268   3.734   5.409   7.169 -0.4674 -1.2614 -0.9376
 5545TIP3   OH238269   1.832   2.478   7.583  0.0851  0.5787 -0.4081
 5545TIP3    H138270   1.787   2.559   7.557  0.6115  0.8322 -0.5399
 5545TIP3    H238271   1.913   2.478   7.532  0.5605  0.4658  0.3303
 5546TIP3   OH238272   4.198   6.230   7.706  0.2529  0.1650  0.1728
 5546TIP3    H138273   4.210   6.146   7.751 -0.2374 -0.2796 -0.5029
 5546TIP3    H238274   4.119   6.266   7.746 -0.1517 -0.2051 -0.2745
 5547TIP3   OH238275   2.904   3.344   1.031  0.2012 -0.4373  0.2075
 5547TIP3    H138276   2.831   3.374   0.976 -0.6434 -2.1634  0.3245
 5547TIP3    H238277   2.909   3.250   1.016 -0.2996 -1.0734  3.3131
 5548TIP3   OH238278   4.842   4.323   2.155 -0.3726  0.2579  0.7528
 5548TIP3    H138279   4.793   4.405   2.149 -0.8994 -0.1263 -3.1116
 5548TIP3    H238280   4.933   4.349   2.144 -0.5971  0.3833 -1.2037
 5549TIP3   OH238281   5.375   2.540   1.201  0.1785  0.5278  0.2454
 5549TIP3    H138282   5.420   2.483   1.263  0.2506  0.9902  0.6313
 5549TIP3    H238283   5.445   2.593   1.162  0.1856 -0.0649 -0.5643
 5550TIP3   OH238284   4.387   0.265   5.597  0.6434  0.2623 -0.0606
 5550TIP3    H138285   4.398   0.233   5.687  0.7734  0.8554  0.1351
 5550TIP3    H238286   4.330   0.199   5.556  0.3308  0.1450  0.5433
 5551TIP3   OH238287   7.165   2.615   1.456 -0.2407 -0.1086 -0.1690
 5551TIP3    H138288   7.189   2.549   1.521  0.5724 -0.2167 -0.5770
 5551TIP3    H238289   7.145   2.693   1.507  5.8924  1.7241  0.1871
 5552TIP3   OH238290   5.569   5.592   1.824 -0.8052 -0.5380  0.0802
 5552TIP3    H138291   5.604   5.654   1.888 -0.7777 -1.5547  1.0981
 5552TIP3    H238292   5.646   5.560   1.777 -0.9396  1.0751 -1.3098
 5553TIP3   OH238293   5.282   3.199   1.601 -0.2818  0.6217 -0.0722
 5553TIP3    H138294   5.316   3.173   1.686  0.1696  0.6146 -0.2519
 5553TIP3    H238295   5.348   3.169   1.538 -1.4673 -1.0757 -0.6102
 5554TIP3   OH238296   4.715   0.465   0.784 -0.5243 -0.1290 -0.3092
 5554TIP3    H138297   4.740   0.557   0.791  1.7652 -0.6546 -0.8064
 5554TIP3    H238298   4.637   0.457   0.840 -0.7072  2.0497 -0.1687
 5555TIP3   OH238299   0.173   0.750   7.066  0.1467 -0.9572 -0.2999
 5555TIP3    H138300   0.111   0.695   7.018 -1.3159 -0.8089  1.2816
 5555TIP3    H238301   0.204   0.693   7.137  0.1768 -0.3689  0.1618
 5556TIP3   OH238302   5.025   5.619   0.316  0.3238 -0.2144 -0.4356
 5556TIP3    H138303   5.008   5.614   0.222 -3.0958  1.3278 -0.0498
 5556TIP3    H238304   5.058   5.708   0.329  0.7349 -0.4046 -0.1602
 5557TIP3   OH238305   0.364   2.916   1.154  0.0473 -0.2021  0.1051
 5557TIP3    H138306   0.443   2.964   1.178 -0.3130  0.9017 -0.8294
 5557TIP3    H238307   0.300   2.940   1.220 -0.0895  0.5166 -0.2789
 5558TIP3   OH238308   6.965   2.023   1.668 -0.3798 -0.3792  0.1901
 5558TIP3    H138309   6.990   1.936   1.699  1.3213 -0.0721 -0.2178
 5558TIP3    H238310   7.033   2.081   1.702 -0.1614  0.4278 -1.5129
 5559TIP3   OH238311   5.202   0.361   6.126  0.7944  0.1465 -0.3994
 5559TIP3    H138312   5.262   0.289   6.105  0.3772 -0.1516 -0.6051
 5559TIP3    H238313   5.138   0.360   6.055 -0.2663 -0.4512  0.5212
 5560TIP3   OH238314   2.836   3.573   7.675 -0.1342 -0.2051  0.3546
 5560TIP3    H138315   2.860   3.658   7.639 -1.6994 -0.5015 -1.5464
 5560TIP3    H238316   2.741   3.577   7.685  0.0364 -0.7625  3.0023
 5561TIP3   OH238317   3.951   3.281   5.956  0.2987  0.0247  0.1364
 5561TIP3    H138318   4.008   3.293   5.879 -0.0188  0.9783  0.0421
 5561TIP3    H238319   4.012   3.260   6.027  0.8228  1.3022  0.0983
 5562TIP3   OH238320   2.522   6.597   7.325  0.1135  0.6682  0.4203
 5562TIP3    H138321   2.605   6.633   7.359 -0.0936  0.4232  1.2196
 5562TIP3    H238322   2.483   6.670   7.277  0.9210  0.6986 -0.2162
 5563TIP3   OH238323   0.687   0.448   1.008  0.4044  0.5342  0.4210
 5563TIP3    H138324   0.710   0.395   1.084  1.5532  1.7167  0.9361
 5563TIP3    H238325   0.722   0.400   0.934  0.0445 -0.1916  0.7024
 5564TIP3   OH238326   2.635   5.153   0.059  0.2137 -0.9064 -0.1224
 5564TIP3    H138327   2.660   5.234   0.103  0.3995 -0.4245 -1.0767
 5564TIP3    H238328   2.625   5.089   0.129 -0.1656  0.0011  0.6696
 5565TIP3   OH238329   1.250   3.804   6.113 -0.3180  0.7233  0.4388
 5565TIP3    H138330   1.260   3.899   6.110 -0.5840  0.7300 -0.5747
 5565TIP3    H238331   1.156   3.791   6.124 -0.2247  0.5777  1.0863
 5566TIP3   OH238332   5.718   6.019   7.707  0.2527 -0.1207  0.3758
 5566TIP3    H138333   5.629   6.032   7.738  0.7724  0.9572  1.5340
 5566TIP3    H238334   5.759   5.965   7.775  0.4688 -0.6976 -0.1989
 5567TIP3   OH238335   5.759   4.522   6.140 -0.1717  0.0937 -0.3010
 5567TIP3    H138336   5.737   4.580   6.067 -0.2537  0.3448 -0.0806
 5567TIP3    H238337   5.674   4.490   6.171 -0.1132 -0.2848 -0.5378
 5568TIP3   OH238338   2.278   4.977   7.767  0.2637  0.0038  0.5755
 5568TIP3    H138339   2.185   4.981   7.748 -0.0199 -0.6738  1.7599
 5568TIP3    H238340   2.320   5.007   7.686 -0.8097 -3.6269 -1.5373
 5569TIP3   OH238341   1.976   0.694   6.668 -0.0470  0.4097 -0.3462
 5569TIP3    H138342   1.905   0.710   6.729 -0.0586  0.1626 -0.2954
 5569TIP3    H238343   1.933   0.682   6.583  0.0203  1.6350 -0.5809
 5570TIP3   OH238344   0.620   2.900   6.840  0.3980 -0.0459 -0.6661
 5570TIP3    H138345   0.669   2.831   6.795  1.9610 -0.0921  0.9804
 5570TIP3    H238346   0.664   2.909   6.924 -1.9822  0.5279  0.5854
 5571TIP3   OH238347   3.477   3.201   7.848  0.2539  0.5802  0.0967
 5571TIP3    H138348   3.462   3.111   7.875  0.5440  0.9247  1.4927
 5571TIP3    H238349   3.446   3.205   7.758 -0.5535 -0.7002  0.2951
 5572TIP3   OH238350   4.405   4.163   0.483  0.0693 -0.7402 -0.8690
 5572TIP3    H138351   4.310   4.165   0.471 -0.0950 -0.5984  0.3623
 5572TIP3    H238352   4.436   4.245   0.443 -0.4447 -0.2894 -0.3499
 5573TIP3   OH238353   1.381   3.907   1.116  0.2881  0.0718 -0.1575
 5573TIP3    H138354   1.372   3.844   1.045 -0.1599  0.8656 -0.8057
 5573TIP3    H238355   1.324   3.980   1.093  2.6800  1.8943 -0.7137
 5574TIP3   OH238356   0.383   0.841   1.281  0.0346  0.3076 -0.2527
 5574TIP3    H138357   0.394   0.917   1.338 -0.7443  0.6802 -0.5774
 5574TIP3    H238358   0.307   0.862   1.227 -0.6297 -0.9872  0.1221
 5575TIP3   OH238359   6.781   5.705   1.427 -0.1846 -0.2438  0.0092
 5575TIP3    H138360   6.685   5.704   1.427 -0.2265  0.0163 -1.7584
 5575TIP3    H238361   6.806   5.632   1.483 -1.3954  0.2905  1.2893
 5576TIP3   OH238362   2.644   3.494   1.015 -0.2554 -0.2258  0.7309
 5576TIP3    H138363   2.627   3.400   1.029  0.1562 -0.3752  0.2455
 5576TIP3    H238364   2.563   3.528   0.978 -0.2512 -0.4826  0.4874
 5577TIP3   OH238365   3.189   6.415   6.352  0.5086  0.4297 -0.1258
 5577TIP3    H138366   3.280   6.423   6.382 -0.0323  0.6267  1.5657
 5577TIP3    H238367   3.147   6.496   6.380 -0.3533  0.0417 -0.2508
 5578TIP3   OH238368   0.990   6.795   0.741 -0.4795  0.0814 -0.4006
 5578TIP3    H138369   1.066   6.745   0.771 -0.3606  0.4392 -0.0984
 5578TIP3    H238370   1.000   6.799   0.646  0.8649  1.6689 -0.2426
 5579TIP3   OH238371   7.130   5.701   7.424  0.2531 -0.0342  0.2718
 5579TIP3    H138372   7.061   5.763   7.399  0.1132  0.2019  1.2016
 5579TIP3    H238373   7.089   5.645   7.490  0.3786 -1.1324 -0.5622
 5580TIP3   OH238374   7.180   4.214   0.425 -0.0921  0.0661  0.3158
 5580TIP3    H138375   7.220   4.127   0.435  0.2918 -0.0013 -1.5064
 5580TIP3    H238376   7.152   4.237   0.513 -2.1658 -2.8592  0.5865
 5581TIP3   OH238377   5.746   6.202   1.174 -0.3334  0.0053  0.2287
 5581TIP3    H138378   5.841   6.201   1.162 -0.1782 -0.8420  1.3496
 5581TIP3    H238379   5.728   6.290   1.207 -0.3396  1.1426 -2.5450
 5582TIP3   OH238380   3.025   0.091   1.126  0.2934 -0.2398 -0.3825
 5582TIP3    H138381   3.076   0.171   1.137  0.0884 -0.2877  1.1852
 5582TIP3    H238382   3.055   0.054   1.043  2.3962  0.0545  0.1889
 5583TIP3   OH238383   0.136   6.384   0.514  0.3045 -0.0151  0.3497
 5583TIP3    H138384   0.220   6.350   0.543  0.4809 -0.3651 -0.5704
 5583TIP3    H238385   0.099   6.316   0.458 -0.1979  0.5048  0.0295
 5584TIP3   OH238386   5.680   4.174   6.261 -0.1251  0.0401  0.0117
 5584TIP3    H138387   5.716   4.094   6.300  1.2773  0.7952  0.3308
 5584TIP3    H238388   5.643   4.222   6.336  2.6557  1.5369  0.5367
 5585TIP3   OH238389   2.480   5.991   6.479 -0.2388  0.0094  0.5040
 5585TIP3    H138390   2.454   6.070   6.527 -0.6161 -0.0366  0.3723
 5585TIP3    H238391   2.525   6.024   6.401  0.7812  0.0837  1.1062
 5586TIP3   OH238392   1.816   6.088   1.217  0.1447 -0.3028 -0.4678
 5586TIP3    H138393   1.875   6.015   1.200  0.4933 -0.1035 -0.1433
 5586TIP3    H238394   1.875   6.162   1.236 -0.2112 -0.1175 -0.0810
 5587TIP3   OH238395   0.859   1.922   1.649  0.0656 -0.4294 -0.0036
 5587TIP3    H138396   0.899   1.858   1.591 -1.0880 -1.8481  0.7117
 5587TIP3    H238397   0.828   1.870   1.724 -0.3268  1.0586  0.9065
 5588TIP3   OH238398   1.127   1.585   6.755  0.5127  0.0051 -0.3064
 5588TIP3    H138399   1.177   1.666   6.770  0.7919 -0.2183 -0.0253
 5588TIP3    H238400   1.039   1.607   6.785  1.1150 -0.5227  2.0929
 5589TIP3   OH238401   3.867   1.794   6.544  0.0933  1.0583  0.2679
 5589TIP3    H138402   3.903   1.711   6.576 -1.7436 -0.2002 -0.7314
 5589TIP3    H238403   3.931   1.825   6.480 -0.1879 -0.8013 -1.0122
 5590TIP3   OH238404   5.356   4.216   7.885  0.1496  0.3035  0.5022
 5590TIP3    H138405   5.334   4.208   7.792  2.6660 -1.4980 -0.0535
 5590TIP3    H238406   5.389   4.130   7.909  0.9298  1.1473  2.6938
 5591TIP3   OH238407   3.791   3.442   6.142  0.3460  0.3304  0.1529
 5591TIP3    H138408   3.855   3.403   6.082  0.0991 -0.9381  0.6910
 5591TIP3    H238409   3.800   3.391   6.223 -2.6427 -1.1592 -0.3470
 5592TIP3   OH238410   4.436   0.852   7.013 -0.8905 -0.3126 -0.4545
 5592TIP3    H138411   4.513   0.814   6.969 -1.1370  0.8994 -2.0312
 5592TIP3    H238412   4.444   0.946   6.997 -0.9233  0.2414  2.3153
 5593TIP3   OH238413   0.803   6.943   7.561 -0.0349 -0.2927  0.0873
 5593TIP3    H138414   0.877   6.885   7.539 -1.2251 -1.8497  0.0290
 5593TIP3    H238415   0.805   7.011   7.494  1.7641  0.1262  0.5018
 5594TIP3   OH238416   6.370   1.533   1.007  0.4883 -0.1549 -0.3150
 5594TIP3    H138417   6.299   1.569   1.060 -0.8917 -1.7545 -1.0165
 5594TIP3    H238418   6.405   1.461   1.058 -0.4719 -1.3409 -1.2733
 5595TIP3   OH238419   1.363   6.824   0.980  0.0073 -0.1734  0.3488
 5595TIP3    H138420   1.409   6.753   0.934 -0.2699 -0.6319  0.7636
 5595TIP3    H238421   1.330   6.880   0.910 -0.6810 -1.0319 -0.0422
 5596TIP3   OH238422   2.229   4.039   1.083 -0.3400 -0.2058 -0.1239
 5596TIP3    H138423   2.204   3.954   1.045 -0.6493  0.1800 -0.8154
 5596TIP3    H238424   2.223   4.100   1.009  2.3020  0.0064 -0.2614
 5597TIP3   OH238425   6.350   0.289   0.023 -1.0052 -0.7018 -0.3304
 5597TIP3    H138426   6.269   0.324  -0.013  0.6296  1.6594 -2.0155
 5597TIP3    H238427   6.354   0.325   0.112 -1.9301 -1.0723 -0.1329
 5598TIP3   OH238428   6.522   0.858   1.031 -0.3843  0.7881  0.0062
 5598TIP3    H138429   6.606   0.880   0.991  1.5216 -0.4180  3.0271
 5598TIP3    H238430   6.529   0.766   1.053 -2.3775  0.7564  0.6915
 5599TIP3   OH238431   1.374   1.703   1.599 -0.3002  0.1443 -0.3319
 5599TIP3    H138432   1.421   1.620   1.603  1.1821  0.9774  0.4120
 5599TIP3    H238433   1.411   1.748   1.524  1.2026  1.3937  1.0763
 5600TIP3   OH238434   5.837   3.912   1.565  0.0959 -0.0709  0.1739
 5600TIP3    H138435   5.782   3.946   1.635  1.7633 -0.3270  1.6777
 5600TIP3    H238436   5.791   3.833   1.535 -2.2880  1.7519 -1.3435
 5601TIP3   OH238437   6.379   1.534   0.076 -0.2292  0.4321 -0.1049
 5601TIP3    H138438   6.414   1.614   0.114  2.5011 -0.4074 -0.6062
 5601TIP3    H238439   6.308   1.507   0.135 -0.2606  2.4318  0.8284
 5602TIP3   OH238440   5.718   5.963   6.248 -0.3626 -0.2625 -0.2121
 5602TIP3    H138441   5.696   6.038   6.303 -2.0228 -2.0880  1.7459
 5602TIP3    H238442   5.776   6.000   6.181 -1.2908  2.8004  0.4927
 5603TIP3   OH238443   4.742   4.346   7.738 -0.2219  0.5246  0.5125
 5603TIP3    H138444   4.678   4.282   7.768 -0.9544  1.1183  0.2612
 5603TIP3    H238445   4.801   4.297   7.680 -0.1977 -0.1122  1.0633
 5604TIP3   OH238446   0.493   4.082   1.901 -0.4011 -0.2532 -0.0004
 5604TIP3    H138447   0.409   4.037   1.890 -0.4198  0.2697 -2.9461
 5604TIP3    H238448   0.487   4.158   1.842  1.4986  0.7844  1.0482
 5605TIP3   OH238449   4.211   0.741   6.883 -0.5075 -0.4036 -0.6387
 5605TIP3    H138450   4.260   0.812   6.925 -1.7963 -0.8476  1.8493
 5605TIP3    H238451   4.277   0.674   6.864  0.1069 -0.4245  1.3522
 5606TIP3   OH238452   3.926   4.586   1.095  0.0668  0.3559 -0.2977
 5606TIP3    H138453   3.866   4.516   1.068  0.9020 -0.1096 -1.0046
 5606TIP3    H238454   3.996   4.584   1.030  0.9731  0.7291  0.6341
 5607TIP3   OH238455   4.965   1.874   7.939  0.6645  0.4198 -0.7862
 5607TIP3    H138456   4.879   1.843   7.966  1.7776 -0.6976  1.8017
 5607TIP3    H238457   4.951   1.908   7.850 -2.2649 -0.3024 -0.7194
 5608TIP3   OH238458   2.796   6.021   7.197 -0.5739 -0.3576 -0.2513
 5608TIP3    H138459   2.823   6.082   7.128 -3.9622  1.7718  0.0557
 5608TIP3    H238460   2.831   6.061   7.278 -0.2680 -0.4805 -0.3208
 5609TIP3   OH238461   6.487   6.140   1.388  0.7685 -0.2316 -0.2184
 5609TIP3    H138462   6.445   6.069   1.339 -0.5594 -0.3699  1.0604
 5609TIP3    H238463   6.574   6.106   1.409 -0.8214 -2.8678  3.0160
 5610TIP3   OH238464   1.245   1.793   6.879  0.4327 -0.1139  0.5414
 5610TIP3    H138465   1.198   1.767   6.958 -1.1768  0.3190 -0.2380
 5610TIP3    H238466   1.238   1.889   6.877 -2.0501 -0.2101 -1.5133
 5611TIP3   OH238467   1.104   2.927   0.244  0.8229  0.7021 -0.1894
 5611TIP3    H138468   1.083   2.979   0.321  1.9751  0.1556  0.5071
 5611TIP3    H238469   1.087   2.836   0.271  0.4011  0.5690 -0.8687
 5612TIP3   OH238470   5.517   1.114   6.340 -0.0206 -0.0553 -0.0932
 5612TIP3    H138471   5.580   1.073   6.398 -0.4797 -1.6362 -0.6494
 5612TIP3    H238472   5.521   1.062   6.259 -2.1479 -0.3675 -0.0768
 5613TIP3   OH238473   6.101   4.800   5.658  0.0740 -0.9319  0.1785
 5613TIP3    H138474   6.128   4.837   5.574 -2.1396  0.5864  0.0697
 5613TIP3    H238475   6.081   4.709   5.638 -0.2104 -0.6505 -0.9073
 5614TIP3   OH238476   1.507   2.101   6.394  0.3482  0.4221  0.4931
 5614TIP3    H138477   1.490   2.190   6.364 -0.4790  0.0694 -0.1227
 5614TIP3    H238478   1.439   2.083   6.458 -0.2099 -0.1711 -0.2488
 5615TIP3   OH238479   7.108   3.649   1.174  0.2727 -0.5835 -0.0574
 5615TIP3    H138480   7.156   3.652   1.257  0.6204  0.7908 -0.2745
 5615TIP3    H238481   7.038   3.586   1.189 -1.5737  1.7838  2.3482
 5616TIP3   OH238482   3.457   3.408   6.290 -0.8295 -0.2273  0.0299
 5616TIP3    H138483   3.454   3.441   6.200 -2.8047 -1.5241 -0.4460
 5616TIP3    H238484   3.465   3.313   6.280  1.4227 -0.2367  1.3071
 5617TIP3   OH238485   2.066   1.245   7.685 -0.0767 -0.3382  0.2868
 5617TIP3    H138486   1.979   1.240   7.725 -0.3320  0.1968 -0.1928
 5617TIP3    H238487   2.123   1.274   7.756 -0.0788 -1.7367  0.8959
 5618TIP3   OH238488   1.220   6.094   1.853 -0.0301  0.1479  0.6231
 5618TIP3    H138489   1.285   6.107   1.785  0.5925  1.3418  1.4124
 5618TIP3    H238490   1.270   6.098   1.935 -0.4120 -3.2187  1.1663
 5619TIP3   OH238491   1.486   6.064   1.437  0.0341 -0.1414 -0.3623
 5619TIP3    H138492   1.419   6.010   1.480  0.1296 -1.2682 -1.5620
 5619TIP3    H238493   1.437   6.126   1.384 -0.0672  0.3832  0.3312
 5620TIP3   OH238494   3.020   2.147   7.700  0.0134 -0.3953 -0.2413
 5620TIP3    H138495   3.090   2.204   7.731 -0.0813 -0.4790  0.1261
 5620TIP3    H238496   3.046   2.123   7.611  0.5598 -0.6123 -0.0223
 5621TIP3   OH238497   1.600   0.533   6.859 -0.1206 -0.1216 -0.0316
 5621TIP3    H138498   1.516   0.561   6.823  0.2630 -0.2729 -1.0688
 5621TIP3    H238499   1.580   0.450   6.903 -0.3623 -0.6015 -1.0190
 5622TIP3   OH238500   5.769   5.093   7.219 -0.5988 -0.6227 -0.2279
 5622TIP3    H138501   5.732   5.005   7.213 -0.1330 -0.7551 -1.3845
 5622TIP3    H238502   5.819   5.104   7.138  0.2089  0.3140  0.3689
 5623TIP3   OH238503   3.548   4.859   2.106 -0.3583 -0.7785 -0.2943
 5623TIP3    H138504   3.524   4.938   2.154 -1.9610 -1.1961 -0.3434
 5623TIP3    H238505   3.502   4.868   2.022 -1.0308 -2.0157 -0.0793
 5624TIP3   OH238506   2.803   6.322   6.520  0.0045  0.1800 -0.1937
 5624TIP3    H138507   2.796   6.409   6.560 -1.0768  0.0625 -0.0974
 5624TIP3    H238508   2.804   6.339   6.426  0.1175  0.3112 -0.1698
 5625TIP3   OH238509   5.583   5.264   1.647  0.3580 -0.5486  0.3029
 5625TIP3    H138510   5.565   5.355   1.670 -1.1728 -1.1022  1.4757
 5625TIP3    H238511   5.671   5.248   1.682 -0.3210 -0.1873  2.3374
 5626TIP3   OH238512   3.186   2.847   6.727 -0.2810 -0.4904 -0.3902
 5626TIP3    H138513   3.250   2.790   6.769  0.1613  0.2709  0.0047
 5626TIP3    H238514   3.118   2.788   6.695 -0.8313 -1.0792  1.7235
 5627TIP3   OH238515   0.367   3.434   0.016 -0.0890 -0.2369  0.2443
 5627TIP3    H138516   0.429   3.477   0.075 -0.3940  1.1529 -0.4099
 5627TIP3    H238517   0.281   3.454   0.053 -0.2484 -0.0420 -0.2261
 5628TIP3   OH238518   3.347   3.628   6.404 -0.5903  0.1038 -0.5254
 5628TIP3    H138519   3.387   3.549   6.367 -0.9319 -0.0373 -0.6009
 5628TIP3    H238520   3.290   3.596   6.474 -0.1274  0.3509 -0.0334
 5629TIP3   OH238521   2.578   4.744   6.041  0.0358  0.6081  0.1774
 5629TIP3    H138522   2.493   4.759   5.999  0.0697  0.4662  0.0604
 5629TIP3    H238523   2.556   4.724   6.132 -0.0361  0.9498  0.2372
 5630TIP3   OH238524   0.318   5.999   0.610 -0.4455  0.1532  0.3639
 5630TIP3    H138525   0.232   6.039   0.619 -0.1956  0.3288  2.6654
 5630TIP3    H238526   0.314   5.921   0.666  0.5917 -0.3855 -0.2723
 5631TIP3   OH238527   3.679   0.228   7.422 -0.0012 -0.1319  0.2548
 5631TIP3    H138528   3.728   0.180   7.489  0.6189 -1.8105 -1.3208
 5631TIP3    H238529   3.747   0.265   7.366 -0.5086 -0.4564 -0.5880
 5632TIP3   OH238530   3.154   1.828   6.922  0.2136 -0.2348 -0.9511
 5632TIP3    H138531   3.137   1.772   6.846  2.7510 -0.4242 -1.4939
 5632TIP3    H238532   3.165   1.915   6.885  0.5860 -0.1705 -0.6908
 5633TIP3   OH238533   6.588   0.829   6.983  0.4340  0.3740 -0.3374
 5633TIP3    H138534   6.493   0.830   6.982  0.4181  0.2420  0.6098
 5633TIP3    H238535   6.612   0.793   6.898 -0.3788 -0.4751 -0.2216
 5634TIP3   OH238536   6.767   6.393   7.994 -0.4040  0.3769 -0.1468
 5634TIP3    H138537   6.765   6.314   8.048 -0.0710  0.6004  0.1984
 5634TIP3    H238538   6.850   6.388   7.947 -0.5352  0.3567 -0.3765
 5635TIP3   OH238539   5.902   3.960   7.265 -0.4482 -0.0552  0.1674
 5635TIP3    H138540   5.911   3.917   7.180 -0.7073  1.7303 -0.8159
 5635TIP3    H238541   5.917   4.053   7.247 -0.2349  0.3493  2.1352
 5636TIP3   OH238542   5.957   4.128   7.499 -0.3766  0.2793 -0.4638
 5636TIP3    H138543   6.032   4.111   7.441 -1.1110 -0.7553 -1.1316
 5636TIP3    H238544   5.917   4.043   7.512 -2.0307  0.9524 -0.9235
 5637TIP3   OH238545   2.860   6.582   6.470  0.1692 -0.7715  0.0957
 5637TIP3    H138546   2.949   6.608   6.493 -0.2280  0.2190  0.5955
 5637TIP3    H238547   2.811   6.664   6.469 -0.8853 -1.3765  0.5006
 5638TIP3   OH238548   2.762   2.539   0.119  0.9489 -0.5549  0.0524
 5638TIP3    H138549   2.801   2.625   0.135  0.8162 -0.6030  0.6451
 5638TIP3    H238550   2.710   2.521   0.197 -0.5548 -0.3336 -0.8480
 5639TIP3   OH238551   6.751   1.943   6.136 -0.2243 -0.1302  0.1476
 5639TIP3    H138552   6.774   1.885   6.064 -0.6870 -1.5951  1.1316
 5639TIP3    H238553   6.657   1.957   6.126 -0.1519  0.2877  0.0346
 5640TIP3   OH238554   4.761   6.241   0.564 -0.3243  0.4395  0.2040
 5640TIP3    H138555   4.725   6.285   0.487  0.6098  1.0450  0.0918
 5640TIP3    H238556   4.694   6.251   0.631 -0.3052  1.7218  0.0608
 5641TIP3   OH238557   2.699   4.969   7.672  0.0103 -0.5769  0.2264
 5641TIP3    H138558   2.675   4.878   7.653  0.1719 -0.4829 -0.4505
 5641TIP3    H238559   2.766   4.990   7.607 -1.5145  0.7044 -1.0086
 5642TIP3   OH238560   4.387   5.214   0.463  0.1668  0.6386 -0.1526
 5642TIP3    H138561   4.302   5.171   0.469 -0.3953  1.7625  0.0672
 5642TIP3    H238562   4.398   5.259   0.547  1.1224  0.2595 -0.0560
 5643TIP3   OH238563   3.617   2.875   7.689  1.0054 -0.4580 -0.3390
 5643TIP3    H138564   3.535   2.906   7.726  1.0984  2.1361 -2.0679
 5643TIP3    H238565   3.595   2.847   7.601  1.8287 -0.4725 -0.5529
 5644TIP3   OH238566   6.146   0.778   6.472 -0.1414 -0.2090  0.6523
 5644TIP3    H138567   6.148   0.860   6.520  0.7175  0.0550  0.1901
 5644TIP3    H238568   6.147   0.710   6.540  0.1582  0.1623  1.0234
 5645TIP3   OH238569   3.828   5.117   6.628 -0.5130 -0.3612  0.1627
 5645TIP3    H138570   3.894   5.150   6.689  0.0234  0.1090 -0.6654
 5645TIP3    H238571   3.761   5.078   6.685  0.3764 -0.6805  1.0209
 5646TIP3   OH238572   6.272   6.010   1.673 -0.1655 -0.1027 -0.2777
 5646TIP3    H138573   6.229   6.068   1.611  1.3128  0.3902 -0.8915
 5646TIP3    H238574   6.350   6.058   1.701  0.1413 -1.0592  0.5936
 5647TIP3   OH238575   6.703   2.897   1.662  0.4602 -0.5555 -0.4650
 5647TIP3    H138576   6.681   2.920   1.752  1.9588  1.2630 -0.5123
 5647TIP3    H238577   6.776   2.834   1.671  0.6581 -0.3190 -0.4036
 5648TIP3   OH238578   5.930   4.559   0.594 -0.0961  0.5516  0.0755
 5648TIP3    H138579   5.919   4.654   0.595  1.8952  0.8582  2.1489
 5648TIP3    H238580   5.876   4.528   0.667 -1.4088 -0.0623 -1.1113
 5649TIP3   OH238581   6.924   2.511   6.905 -0.3002 -0.3368  0.2556
 5649TIP3    H138582   6.890   2.475   6.987  1.1010 -2.3745 -0.0073
 5649TIP3    H238583   6.982   2.444   6.871 -0.1942  0.8130 -2.0162
 5650TIP3   OH238584   3.965   0.701   0.993 -0.3931 -0.2575 -0.4210
 5650TIP3    H138585   3.929   0.684   1.080 -0.9055 -0.9281 -0.7540
 5650TIP3    H238586   3.900   0.666   0.933 -1.3537  2.5989 -1.1786
 5651TIP3   OH238587   2.087   0.776   1.240 -0.1277  0.1822  0.4692
 5651TIP3    H138588   2.093   0.770   1.335  1.4745  1.1354  0.4669
 5651TIP3    H238589   2.178   0.772   1.210 -0.5856  0.2231 -1.0062
 5652TIP3   OH238590   3.031   0.146   6.493  0.0730 -0.2369 -0.3119
 5652TIP3    H138591   3.002   0.081   6.430 -1.0441 -1.7312  1.6220
 5652TIP3    H238592   2.950   0.190   6.521  0.2811 -0.8039  1.2989
 5653TIP3   OH238593   3.138   5.182   1.128 -0.1718 -0.1949 -0.6503
 5653TIP3    H138594   3.141   5.103   1.182  0.1511  0.2866  0.0413
 5653TIP3    H238595   3.221   5.181   1.080  0.3712  0.3378  0.2505
 5654TIP3   OH238596   2.053   6.798   2.309  0.6463  0.0111 -0.0589
 5654TIP3    H138597   2.120   6.746   2.264  0.6239 -0.3133  0.2669
 5654TIP3    H238598   2.093   6.884   2.322 -0.1201  0.8166 -2.5862
 5655TIP3   OH238599   6.540   1.637   7.382  0.1626  0.8073 -0.0930
 5655TIP3    H138600   6.545   1.664   7.290  0.2148  0.5769 -0.1609
 5655TIP3    H238601   6.587   1.553   7.384  0.3909  0.9394  0.1954
 5656TIP3   OH238602   4.491   3.665   7.760  0.1457 -0.4220 -1.1254
 5656TIP3    H138603   4.503   3.642   7.853  0.8332 -0.8994 -1.3205
 5656TIP3    H238604   4.435   3.596   7.726  1.6491 -1.4917 -1.5501
 5657TIP3   OH238605   6.805   0.073   7.782  0.3496 -0.2441 -0.4321
 5657TIP3    H138606   6.723   0.052   7.826  0.0433 -1.2735 -1.4423
 5657TIP3    H238607   6.812   0.169   7.788 -2.0655  0.1462 -2.2209
 5658TIP3   OH238608   4.584   3.536   7.974 -0.1122  0.2402 -0.2145
 5658TIP3    H138609   4.597   3.450   7.934 -0.1628  0.1309  0.0008
 5658TIP3    H238610   4.637   3.534   8.054 -1.6314 -0.3388  0.8434
 5659TIP3   OH238611   0.167   3.692   0.533  0.4001  0.8926 -0.0400
 5659TIP3    H138612   0.147   3.604   0.566 -1.6575  1.3232 -0.0048
 5659TIP3    H238613   0.233   3.677   0.465 -1.1968 -0.9272 -1.3020
 5660TIP3   OH238614   5.780   6.727   1.614 -0.1257  0.2461 -0.1545
 5660TIP3    H138615   5.860   6.763   1.651  0.9468  0.7847 -2.7285
 5660TIP3    H238616   5.778   6.636   1.645  1.2824  0.3290  0.2799
 5661TIP3   OH238617   3.691   5.746   0.516 -0.1993  0.5298  0.2997
 5661TIP3    H138618   3.675   5.725   0.609 -0.3753 -2.2643 -0.2743
 5661TIP3    H238619   3.603   5.746   0.477 -0.2807  3.1122  0.2981
 5662TIP3   OH238620   3.539   6.048   7.379 -0.0480  0.6202 -0.3699
 5662TIP3    H138621   3.492   6.053   7.462  0.8223  2.6417  0.0451
 5662TIP3    H238622   3.529   5.956   7.352  0.7815 -0.4869  2.6332
 5663TIP3   OH238623   2.169   3.668   0.588  0.3066 -0.0880  0.1845
 5663TIP3    H138624   2.239   3.607   0.565  0.9108  0.3115  0.9148
 5663TIP3    H238625   2.132   3.695   0.504  0.8272 -0.5336 -0.1960
 5664TIP3   OH238626   1.934   4.991   7.390  0.0425 -0.3467  0.2189
 5664TIP3    H138627   1.998   5.024   7.328 -1.3494  1.4085 -0.3567
 5664TIP3    H238628   1.983   4.981   7.472  0.6050  3.3893  0.5136
 5665TIP3   OH238629   5.554   6.564   0.157 -0.6577  0.1366 -0.2095
 5665TIP3    H138630   5.619   6.552   0.225 -0.6958 -1.7124 -0.4689
 5665TIP3    H238631   5.495   6.489   0.165  0.1621 -0.9450 -3.1570
 5666TIP3   OH238632   5.957   2.549   0.163  0.0463 -0.0514 -0.4663
 5666TIP3    H138633   6.001   2.479   0.210 -0.3334  1.0873  1.7050
 5666TIP3    H238634   6.023   2.584   0.104  0.5824 -1.4309 -0.7204
 5667TIP3   OH238635   6.921   2.729   1.982  0.2775 -0.2834 -0.1974
 5667TIP3    H138636   6.826   2.739   1.991  0.0009 -1.7642 -1.2037
 5667TIP3    H238637   6.947   2.796   1.919 -0.2592 -0.5566 -0.7088
 5668TIP3   OH238638   4.501   5.244   0.830 -0.4902 -0.0163 -0.4108
 5668TIP3    H138639   4.592   5.251   0.860 -0.3586 -2.0555 -0.1994
 5668TIP3    H238640   4.452   5.299   0.891  0.4508  0.1218  0.2464
 5669TIP3   OH238641   1.004   5.379   2.066  0.4369 -0.8893 -0.3892
 5669TIP3    H138642   1.002   5.285   2.047 -2.8389 -0.9995 -0.1130
 5669TIP3    H238643   0.966   5.420   1.989  1.5369  0.2241 -0.3697
 5670TIP3   OH238644   6.942   3.756   6.845 -0.6259 -0.4222  0.5939
 5670TIP3    H138645   7.002   3.799   6.906 -1.7472  0.6816  0.9844
 5670TIP3    H238646   6.856   3.789   6.870 -1.0406  1.0713 -2.3408
 5671TIP3   OH238647   4.621   1.126   7.161  0.1394  0.7360  0.1755
 5671TIP3    H138648   4.539   1.128   7.112 -0.9225  0.0785  1.8565
 5671TIP3    H238649   4.641   1.218   7.179  0.5352  0.9881 -1.4130
 5672TIP3   OH238650   6.183   4.948   1.134  0.2891 -0.1989 -0.1883
 5672TIP3    H138651   6.227   4.954   1.219  0.0606 -0.3720 -0.0564
 5672TIP3    H238652   6.149   5.036   1.118 -2.1460 -0.7870  1.2506
 5673TIP3   OH238653   5.018   1.072   1.426 -0.3599  0.6519  0.1815
 5673TIP3    H138654   5.026   1.090   1.520  2.3426 -0.2613  0.2200
 5673TIP3    H238655   4.934   1.111   1.401 -1.4992  0.3405  3.0867
 5674TIP3   OH238656   0.516   3.324   0.787 -0.1552 -0.0160  0.6326
 5674TIP3    H138657   0.425   3.337   0.815 -1.2263 -0.2265 -2.4208
 5674TIP3    H238658   0.531   3.231   0.799 -0.9850 -0.3105 -0.4363
 5675TIP3   OH238659   5.477   2.529   6.992  0.0517 -0.4183  0.0241
 5675TIP3    H138660   5.448   2.620   6.995  3.2490  0.7241 -0.2156
 5675TIP3    H238661   5.429   2.491   6.918 -1.5959  0.9447  0.3466
 5676TIP3   OH238662   0.886   4.859   7.865  0.1469  0.2770 -0.6755
 5676TIP3    H138663   0.942   4.856   7.787 -1.2123 -0.2908 -1.6571
 5676TIP3    H238664   0.912   4.940   7.909  0.7432  0.7700 -1.8688
 5677TIP3   OH238665   7.209   4.814   0.058  0.3681 -0.3382  0.6769
 5677TIP3    H138666   7.206   4.739  -0.002 -1.3749 -1.6997  2.3344
 5677TIP3    H238667   7.267   4.785   0.129 -0.2309 -0.0771  1.2741
 5678TIP3   OH238668   3.100   4.474   1.275 -0.3335  0.7637 -0.4922
 5678TIP3    H138669   3.186   4.513   1.286 -0.2567  0.7964 -1.1577
 5678TIP3    H238670   3.050   4.538   1.224 -0.3824  0.2477 -1.1028
 5679TIP3   OH238671   0.494   2.846   7.597  0.0508  0.1890  0.0950
 5679TIP3    H138672   0.558   2.917   7.601 -0.1938  0.4392 -0.3904
 5679TIP3    H238673   0.423   2.880   7.543  0.4761 -0.8431 -1.1714
 5680TIP3   OH238674   1.229   3.740   6.465  0.2467  0.1913 -0.6105
 5680TIP3    H138675   1.163   3.737   6.396  0.5332  2.0348 -0.9993
 5680TIP3    H238676   1.179   3.741   6.546 -0.1384 -0.2481 -0.8366
 5681TIP3   OH238677   7.200   4.802   1.032 -0.4851 -0.4896 -0.1676
 5681TIP3    H138678   7.289   4.769   1.026 -0.0283  0.2366  1.7728
 5681TIP3    H238679   7.209   4.897   1.027 -1.3061 -0.4482 -1.1969
 5682TIP3   OH238680   5.395   0.844   5.768  0.2674  0.4258 -0.4003
 5682TIP3    H138681   5.428   0.855   5.679  0.3934  0.0066 -0.4086
 5682TIP3    H238682   5.375   0.751   5.775 -0.1856  0.5376 -0.1422
 5683TIP3   OH238683   6.846   0.839   1.435  0.3229  0.4170  0.2012
 5683TIP3    H138684   6.752   0.835   1.456  0.2656  0.9559  0.0771
 5683TIP3    H238685   6.855   0.920   1.385  1.1703  1.3433  1.7807
 5684TIP3   OH238686   5.188   6.394   6.203 -0.2431 -0.4624 -0.4813
 5684TIP3    H138687   5.254   6.328   6.223 -0.9505 -1.1374 -0.3135
 5684TIP3    H238688   5.148   6.364   6.121  1.2604  1.2185 -1.9080
 5685TIP3   OH238689   0.641   4.725   7.846  0.3164 -0.7178  0.1187
 5685TIP3    H138690   0.609   4.713   7.757 -1.1755 -1.7823  0.7600
 5685TIP3    H238691   0.720   4.779   7.836 -0.6463  0.4645 -1.6916
 5686TIP3   OH238692   6.095   5.861   7.991 -0.1055 -0.2610  1.3033
 5686TIP3    H138693   6.077   5.767   7.984 -0.6371 -0.1879  1.6143
 5686TIP3    H238694   6.149   5.869   8.069  0.3027 -0.3533  1.0326
 5687TIP3   OH238695   0.593   5.146   1.361 -0.2959  0.4920 -0.1143
 5687TIP3    H138696   0.558   5.225   1.401  2.8504  1.7522  0.4792
 5687TIP3    H238697   0.643   5.104   1.431 -1.2136 -1.6415 -0.6454
 5688TIP3   OH238698   1.270   1.714   7.329 -0.7444 -0.4652  0.1835
 5688TIP3    H138699   1.363   1.736   7.322 -0.7261 -0.8539 -0.9306
 5688TIP3    H238700   1.226   1.776   7.271 -1.1474 -0.5042  0.4426
 5689TIP3   OH238701   7.008   1.613   7.863  0.7666  0.3677  0.1126
 5689TIP3    H138702   7.050   1.685   7.816  1.1602 -0.0917 -0.2491
 5689TIP3    H238703   6.914   1.629   7.854  0.8498  0.6512 -0.2503
 5690TIP3   OH238704   3.140   2.899   1.072 -0.0496  0.2216 -0.6614
 5690TIP3    H138705   3.095   2.816   1.059 -1.1256  0.6259  0.3225
 5690TIP3    H238706   3.233   2.876   1.078 -0.3944 -1.0141  0.3892
 5691TIP3   OH238707   0.818   0.665   6.966  0.4598 -0.2415 -0.2397
 5691TIP3    H138708   0.732   0.682   6.928 -0.1196  0.2219  1.2098
 5691TIP3    H238709   0.841   0.746   7.011  2.9331  0.6780 -2.8074
 5692TIP3   OH238710   3.978   0.563   1.427  0.2620 -0.0426 -0.2937
 5692TIP3    H138711   4.054   0.508   1.406 -0.1041 -0.5616 -0.2742
 5692TIP3    H238712   4.007   0.614   1.503  0.8844  0.3841 -0.8036
 5693TIP3   OH238713   0.996   5.757   0.466  0.2027  0.3321  0.0774
 5693TIP3    H138714   1.086   5.781   0.489  0.7574 -0.7501 -0.8879
 5693TIP3    H238715   0.961   5.719   0.547  1.6660 -2.1233 -0.3387
 5694TIP3   OH238716   0.463   5.454   6.690 -0.2286  0.4465  0.1180
 5694TIP3    H138717   0.530   5.497   6.636  1.6740  0.9885  2.7516
 5694TIP3    H238718   0.386   5.511   6.683  0.6917  1.6726 -0.2695
 5695TIP3   OH238719   5.311   0.938   7.942 -0.7269  0.3750  0.1355
 5695TIP3    H138720   5.333   0.845   7.940 -0.6619  0.3976 -0.7601
 5695TIP3    H238721   5.280   0.953   8.031  0.1042 -0.3017  0.5593
 5696TIP3   OH238722   2.297   3.382   7.435  0.4678 -0.3556  0.3969
 5696TIP3    H138723   2.234   3.310   7.440  0.2269 -0.0670  2.9997
 5696TIP3    H238724   2.245   3.460   7.458  1.4086  0.1288  0.9278
 5697TIP3   OH238725   5.226   2.184   0.887 -0.0961 -0.6845  0.1084
 5697TIP3    H138726   5.137   2.149   0.890 -0.3142 -0.1253  0.4141
 5697TIP3    H238727   5.226   2.254   0.952 -0.1139  0.8969 -1.5310
 5698TIP3   OH238728   2.921   2.709   1.026 -0.2430  0.4427 -0.3926
 5698TIP3    H138729   2.826   2.697   1.018  0.0378 -2.6792 -0.4124
 5698TIP3    H238730   2.956   2.676   0.944  0.9633 -1.1473  0.7083
 5699TIP3   OH238731   3.552   6.350   1.509  0.0736 -0.2535 -0.0660
 5699TIP3    H138732   3.473   6.346   1.563  0.1313  2.5295  0.3413
 5699TIP3    H238733   3.623   6.327   1.569 -0.2325 -1.2924 -0.0673
 5700TIP3   OH238734   3.083   5.869   6.754  0.0259  0.2420 -0.1323
 5700TIP3    H138735   3.167   5.830   6.778  0.6404  2.4585  1.6175
 5700TIP3    H238736   3.105   5.926   6.679  0.3260  1.4980  0.8738
 5701TIP3   OH238737   3.306   3.099   6.945 -0.1068 -0.4490 -0.1844
 5701TIP3    H138738   3.321   3.110   6.851  0.7220  1.8150  0.1637
 5701TIP3    H238739   3.317   3.186   6.982 -1.2138 -1.1407  1.9368
 5702TIP3   OH238740   0.568   1.487   0.198  0.2301  0.0182 -0.3941
 5702TIP3    H138741   0.533   1.527   0.119 -1.3599 -1.8436 -0.7195
 5702TIP3    H238742   0.503   1.506   0.265  0.3507 -0.4743 -0.1325
 5703TIP3   OH238743   0.421   2.260   0.199  0.2480 -0.0380 -0.4074
 5703TIP3    H138744   0.402   2.255   0.293 -0.7626 -0.6446 -0.6300
 5703TIP3    H238745   0.504   2.214   0.189 -0.4178 -1.3547 -0.0208
 5704TIP3   OH238746   2.676   3.062   6.252  0.2697  0.2446 -0.1796
 5704TIP3    H138747   2.663   3.147   6.211 -1.5379 -0.0815 -0.3642
 5704TIP3    H238748   2.616   3.062   6.327  2.2548  0.1626  1.4791
 5705TIP3   OH238749   3.289   5.651   0.214 -0.5104  0.5048  0.8076
 5705TIP3    H138750   3.239   5.677   0.291 -1.1239 -1.8196  1.2818
 5705TIP3    H238751   3.323   5.564   0.236 -2.4570 -1.2049 -2.2378
 5706TIP3   OH238752   4.923   5.801   5.997 -0.7029 -0.5756  0.2571
 5706TIP3    H138753   4.981   5.876   5.985 -3.2794  1.4364 -0.6763
 5706TIP3    H238754   4.972   5.726   5.964  1.5356  0.8800  0.0973
 5707TIP3   OH238755   3.260   5.528   6.113 -0.0429 -0.2557  0.3723
 5707TIP3    H138756   3.300   5.575   6.186 -0.8154 -1.3779  1.5836
 5707TIP3    H238757   3.234   5.444   6.151 -0.1850 -1.0021 -1.2925
 5708TIP3   OH238758   4.046   2.956   6.012 -0.1939 -0.1143 -0.6900
 5708TIP3    H138759   3.999   2.904   5.947 -1.6004  0.6116 -0.2902
 5708TIP3    H238760   4.114   3.001   5.962 -1.3091  0.5009 -1.6836
 5709TIP3   OH238761   4.024   4.212   5.845  0.3383 -0.1427 -0.0401
 5709TIP3    H138762   4.107   4.223   5.799 -0.6088  1.0240 -1.5309
 5709TIP3    H238763   4.003   4.119   5.834  0.8907 -0.2041 -0.6158
 5710TIP3   OH238764   4.807   5.069   7.436  0.4159 -0.2648  0.4136
 5710TIP3    H138765   4.899   5.093   7.433  0.3576  0.0629  1.2216
 5710TIP3    H238766   4.764   5.131   7.378  0.7127 -0.5145 -0.0879
 5711TIP3   OH238767   3.122   6.504   7.907 -0.7805  0.1275  0.1551
 5711TIP3    H138768   3.190   6.557   7.948 -0.2807  0.2442 -0.7861
 5711TIP3    H238769   3.065   6.567   7.863 -0.5809 -0.0679 -0.3892
 5712TIP3   OH238770   3.107   4.017   1.127  0.4924 -0.0049  0.3883
 5712TIP3    H138771   3.128   4.044   1.216  0.8202  0.6748  0.1095
 5712TIP3    H238772   3.172   3.951   1.105 -0.1200 -0.8241  0.9590
 5713TIP3   OH238773   0.537   1.194   0.768  0.0383  0.0674  0.1552
 5713TIP3    H138774   0.611   1.202   0.829  0.6949 -1.1051 -0.4383
 5713TIP3    H238775   0.521   1.100   0.764 -0.8971  0.2449 -0.4405
 5714TIP3   OH238776   6.370   2.965   7.935 -0.2545  0.2119 -0.4995
 5714TIP3    H138777   6.402   3.055   7.926  0.3115 -0.0606 -1.3213
 5714TIP3    H238778   6.397   2.922   7.853 -0.0848 -0.8310  0.0900
 5715TIP3   OH238779   3.305   3.240   1.449  0.0031  0.2589 -0.4050
 5715TIP3    H138780   3.265   3.325   1.428  0.6153  0.5777 -0.3072
 5715TIP3    H238781   3.253   3.176   1.401 -1.1308  0.5847  0.3612
 5716TIP3   OH238782   1.693   0.148   7.583  0.3077 -0.1582  0.2332
 5716TIP3    H138783   1.682   0.059   7.618 -1.1327  0.4125  1.3355
 5716TIP3    H238784   1.771   0.181   7.628 -0.0984 -0.3111  1.0802
 5717TIP3   OH238785   5.955   0.766   1.184  0.5921  0.0420 -0.6423
 5717TIP3    H138786   5.990   0.850   1.211  1.7596 -0.2576 -1.1615
 5717TIP3    H238787   6.001   0.746   1.103 -1.7114  0.2210 -2.0933
 5718TIP3   OH238788   5.043   4.478   0.982  0.3434 -0.4481 -0.3477
 5718TIP3    H138789   5.043   4.490   0.887  1.1773 -1.0678 -0.4382
 5718TIP3    H238790   5.028   4.566   1.017 -0.4874 -0.2927 -1.0531
 5719TIP3   OH238791   4.141   3.770   0.720  0.5205  0.0187 -0.6390
 5719TIP3    H138792   4.187   3.691   0.691 -0.0518  0.0281 -1.6071
 5719TIP3    H238793   4.048   3.746   0.718  0.4505  0.0401  1.1740
 5720TIP3   OH238794   2.413   2.323   0.997  0.6353 -0.0644  0.1079
 5720TIP3    H138795   2.420   2.322   0.901  0.2088 -0.4860  0.0815
 5720TIP3    H238796   2.425   2.232   1.023 -3.9721 -0.8667  0.0922
 5721TIP3   OH238797   0.387   5.948   1.209  0.1069 -0.2228  0.3185
 5721TIP3    H138798   0.456   5.947   1.275 -0.7480 -1.6053  1.2641
 5721TIP3    H238799   0.307   5.968   1.259 -0.4826 -0.8318 -0.3636
 5722TIP3   OH238800   3.022   5.103   7.803 -0.3504  0.2842  0.0673
 5722TIP3    H138801   2.970   5.042   7.751  2.1659  1.4427 -4.3595
 5722TIP3    H238802   3.110   5.065   7.804  0.1330  1.3346  1.8267
 5723TIP3   OH238803   4.941   7.159   6.722  1.1653  0.1897  0.5071
 5723TIP3    H138804   4.920   7.077   6.677 -2.0892  1.5308 -0.7200
 5723TIP3    H238805   5.033   7.149   6.747  1.6939 -2.7174 -1.9347
 5724TIP3   OH238806   3.972   6.352   1.949 -0.7264  0.4961 -0.1964
 5724TIP3    H138807   3.987   6.299   2.028 -1.9163  0.7475  0.2251
 5724TIP3    H238808   4.056   6.395   1.932 -0.3496  0.1440  0.7195
 5725TIP3   OH238809   1.432   6.938   7.450 -0.3569 -0.1305  0.1698
 5725TIP3    H138810   1.430   6.868   7.384 -2.0268 -1.0385  1.1374
 5725TIP3    H238811   1.412   7.018   7.401  1.7678 -0.2271 -0.9861
 5726TIP3   OH238812   0.757   4.156   2.023 -0.5737 -0.6872 -0.3415
 5726TIP3    H138813   0.678   4.127   1.978 -0.2893 -1.1768 -0.5280
 5726TIP3    H238814   0.784   4.234   1.975 -0.8030 -0.6627 -0.4317
 5727TIP3   OH238815   4.250   3.361   7.940 -0.1892 -0.3811  0.4756
 5727TIP3    H138816   4.252   3.437   7.882 -0.2717 -3.2953 -3.8099
 5727TIP3    H238817   4.342   3.339   7.955 -0.1539 -0.5166  0.0753
 5728TIP3   OH238818   6.599   5.984   1.915 -0.0396  0.5089 -0.0175
 5728TIP3    H138819   6.526   5.964   1.973 -0.7006  0.5686 -0.8022
 5728TIP3    H238820   6.586   5.926   1.840  1.9061 -1.0134  0.7328
 5729TIP3   OH238821   5.183   3.340   7.875 -0.4807  0.7942 -0.8921
 5729TIP3    H138822   5.227   3.293   7.804  1.0009 -2.8705  2.1309
 5729TIP3    H238823   5.093   3.306   7.873 -0.6309  1.1927 -1.3234
 5730TIP3   OH238824   5.545   0.537   7.155  0.4629  0.1130 -0.1986
 5730TIP3    H138825   5.479   0.606   7.162 -0.2702 -0.3640 -2.0106
 5730TIP3    H238826   5.528   0.480   7.230 -2.7254 -1.2548 -1.7914
 5731TIP3   OH238827   1.602   2.433   7.237 -0.1346  0.2557 -0.5870
 5731TIP3    H138828   1.690   2.461   7.212 -0.3293  0.4721 -1.0340
 5731TIP3    H238829   1.544   2.483   7.180 -0.4684 -1.6356 -1.9674
 5732TIP3   OH238830   3.491   0.621   7.840  0.2462 -0.0950  0.0801
 5732TIP3    H138831   3.526   0.591   7.756 -0.9193 -0.6542 -0.2212
 5732TIP3    H238832   3.467   0.713   7.825  0.3030 -0.1107 -0.1063
 5733TIP3   OH238833   2.278   2.955   1.273  0.3410 -0.2822 -0.2995
 5733TIP3    H138834   2.299   2.951   1.180  0.8487 -0.8791 -0.1712
 5733TIP3    H238835   2.357   2.921   1.317  0.7810  1.5829  0.4436
 5734TIP3   OH238836   0.867   0.107   7.053 -0.2364 -0.0932  0.5855
 5734TIP3    H138837   0.823   0.188   7.079  0.5249  0.1752  1.0925
 5734TIP3    H238838   0.830   0.085   6.968 -0.1671  1.0080  0.2597
 5735TIP3   OH238839   6.183   4.619   6.937  0.2546 -0.6079  0.3765
 5735TIP3    H138840   6.164   4.573   7.018 -0.1074 -0.4005  0.4108
 5735TIP3    H238841   6.117   4.588   6.875  2.2169 -2.9859 -0.7175
 5736TIP3   OH238842   6.054   3.742   7.954 -0.7655  0.3318  0.0288
 5736TIP3    H138843   6.038   3.696   8.037  2.2640 -1.6243 -0.3512
 5736TIP3    H238844   6.101   3.821   7.980  0.3020 -0.3456  0.1953
 5737TIP3   OH238845   2.431   6.261   0.621 -0.8997  0.2015  0.2055
 5737TIP3    H138846   2.346   6.270   0.577  0.4174 -0.1534 -2.7020
 5737TIP3    H238847   2.493   6.296   0.558  1.1738  0.1222  2.1000
 5738TIP3   OH238848   1.946   7.135   7.808  0.3409 -0.0386  0.3439
 5738TIP3    H138849   2.038   7.111   7.820  1.3607  2.0309 -2.1158
 5738TIP3    H238850   1.949   7.230   7.792 -2.2837  0.1283  0.4422
 5739TIP3   OH238851   3.062   2.520   6.671 -0.2979 -0.0547 -0.1799
 5739TIP3    H138852   3.135   2.460   6.668 -0.8099 -0.6606 -0.8694
 5739TIP3    H238853   3.016   2.498   6.752  0.1161  0.1441  0.1143
 5740TIP3   OH238854   0.760   4.387   1.165 -0.0174  0.0056  0.2239
 5740TIP3    H138855   0.722   4.454   1.108  0.4913  1.2512  1.3146
 5740TIP3    H238856   0.734   4.412   1.253  1.0550 -0.6456  0.7474
 5741TIP3   OH238857   1.886   5.519   7.597  0.5928 -0.3819  0.2989
 5741TIP3    H138858   1.834   5.509   7.518  0.2474 -1.4842  0.6600
 5741TIP3    H238859   1.869   5.609   7.625 -1.1871 -0.7302  0.4517
 5742TIP3   OH238860   2.850   4.885   1.162 -0.0266  0.4360 -0.3315
 5742TIP3    H138861   2.848   4.800   1.206  0.6040 -0.0732 -1.2777
 5742TIP3    H238862   2.787   4.938   1.212  1.1672  0.1141  1.6363
 5743TIP3   OH238863   0.499   1.495   1.345  0.2365 -0.1438 -0.0164
 5743TIP3    H138864   0.406   1.483   1.326  0.7012 -1.3613 -1.8022
 5743TIP3    H238865   0.528   1.408   1.375  1.0336 -0.1240 -0.6932
 5744TIP3   OH238866   1.654   0.180   1.146  0.0460  0.0516 -0.7138
 5744TIP3    H138867   1.617   0.104   1.101  2.2936 -0.6522 -1.4927
 5744TIP3    H238868   1.597   0.194   1.221 -1.2646 -1.4819 -1.3807
 5745TIP3   OH238869   5.611   7.002   0.192  0.1933 -0.2223 -0.0716
 5745TIP3    H138870   5.665   7.080   0.204  0.7052 -0.4056 -1.0507
 5745TIP3    H238871   5.637   6.944   0.263  0.0717  0.3479  0.4527
 5746TIP3   OH238872   2.637   5.408   2.000 -0.4777 -0.4188 -0.1512
 5746TIP3    H138873   2.696   5.337   1.972 -1.1534 -1.3028  0.6003
 5746TIP3    H238874   2.570   5.364   2.053 -1.5853  0.6188 -0.6424
 5747TIP3   OH238875   7.082   3.224   0.113  0.3883  0.6311 -0.4197
 5747TIP3    H138876   7.129   3.168   0.175  1.1391  1.6501 -0.0374
 5747TIP3    H238877   6.993   3.188   0.111  0.1912  0.8669  1.6662
 5748TIP3   OH238878   5.063   4.557   7.511  0.3830  0.4257  0.4597
 5748TIP3    H138879   5.116   4.535   7.588  0.7648 -0.5907 -0.0837
 5748TIP3    H238880   5.090   4.494   7.444 -0.0051  1.2478 -0.4891
 5749TIP3   OH238881   1.878   5.303   6.182 -0.0707  0.1256  0.0038
 5749TIP3    H138882   1.838   5.257   6.256  1.6618  0.3866  1.1608
 5749TIP3    H238883   1.914   5.233   6.127 -0.2117 -0.0180  0.0943
 5750TIP3   OH238884   5.381   5.603   0.165  0.3184  0.2934  0.5378
 5750TIP3    H138885   5.353   5.521   0.124  0.3694 -0.5561  2.1351
 5750TIP3    H238886   5.415   5.655   0.093  0.6262 -1.2355 -0.4693
 5751TIP3   OH238887   2.366   1.116   0.218 -0.4823 -0.1120 -0.7170
 5751TIP3    H138888   2.391   1.040   0.166 -1.6752  0.0221 -1.5196
 5751TIP3    H238889   2.387   1.091   0.309 -0.3857 -1.1781 -1.0235
 5752TIP3   OH238890   5.150   0.163   0.374  0.0511  0.4362 -0.2632
 5752TIP3    H138891   5.067   0.210   0.378 -0.0046  0.3428 -0.3034
 5752TIP3    H238892   5.175   0.150   0.466 -0.5059 -0.4465 -0.2219
 5753TIP3   OH238893   4.920   0.005   1.417 -0.1371  0.2146 -0.0982
 5753TIP3    H138894   4.892  -0.035   1.499 -0.1150  1.1704  0.3869
 5753TIP3    H238895   4.964  -0.066   1.370  0.8919 -0.0657  1.2154
 5754TIP3   OH238896   6.997   5.004   1.534 -0.2218 -0.4075 -0.0369
 5754TIP3    H138897   6.914   4.963   1.512  0.0856  0.2174 -2.6397
 5754TIP3    H238898   7.056   4.981   1.462  0.3472  3.3374 -1.0051
 5755TIP3   OH238899   4.586   4.837   6.823  0.1311 -0.1133  0.3666
 5755TIP3    H138900   4.682   4.831   6.831  0.2821  0.6389 -0.7300
 5755TIP3    H238901   4.569   4.821   6.730 -0.7921  0.0161  0.5091
 5756TIP3   OH238902   1.583   1.613   7.445  0.3668  0.7587 -0.4001
 5756TIP3    H138903   1.677   1.618   7.464  0.4536 -0.4785 -0.4111
 5756TIP3    H238904   1.542   1.603   7.530  0.4893 -1.3723 -0.5224
 5757TIP3   OH238905   1.507   5.342   6.404  0.4088  0.0510  0.2505
 5757TIP3    H138906   1.459   5.261   6.390 -0.8928  0.9875 -0.9891
 5757TIP3    H238907   1.544   5.333   6.492  0.7328 -2.0752 -0.0562
 5758TIP3   OH238908   5.837   3.047   6.462 -0.6311  0.3450  0.0894
 5758TIP3    H138909   5.840   3.091   6.548 -1.0702  2.4329 -0.8964
 5758TIP3    H238910   5.757   3.080   6.422 -1.6561 -2.3975 -0.2642
 5759TIP3   OH238911   5.907   6.872   0.848 -0.0507  0.3169 -0.6376
 5759TIP3    H138912   5.836   6.878   0.913  0.9523  0.6262  0.4624
 5759TIP3    H238913   5.889   6.791   0.801 -1.1049  0.3572 -0.3445
 5760TIP3   OH238914   4.993   0.456   0.691  0.0877 -0.1384 -0.4549
 5760TIP3    H138915   5.013   0.547   0.667 -1.9556 -0.0536 -2.0893
 5760TIP3    H238916   4.921   0.464   0.754 -0.3358 -0.6303 -0.8780
 5761TIP3   OH238917   2.297   4.399   1.429 -0.3023  0.3024  0.1968
 5761TIP3    H138918   2.309   4.421   1.521 -1.2783 -1.2822  0.7366
 5761TIP3    H238919   2.359   4.328   1.413 -0.3643  0.3538 -0.3072
 5762TIP3   OH238920   3.577   3.952   6.615  0.0440 -0.4118  0.0564
 5762TIP3    H138921   3.654   4.008   6.619  0.2835 -0.6929 -0.4684
 5762TIP3    H238922   3.528   3.973   6.694 -0.8711  1.9479 -1.0412
 5763TIP3   OH238923   3.565   1.519   0.631  0.3617 -0.4895  0.1455
 5763TIP3    H138924   3.529   1.582   0.693 -0.3767 -1.2445  0.4951
 5763TIP3    H238925   3.602   1.450   0.686  0.5555 -0.6996 -0.2449
 5764TIP3   OH238926   6.202   5.117   6.370 -0.2034  0.6575  0.0153
 5764TIP3    H138927   6.131   5.149   6.315 -0.2917  2.8425  1.3115
 5764TIP3    H238928   6.258   5.066   6.311 -1.4356  1.1068 -1.5779
 5765TIP3   OH238929   6.477   4.092   1.657  0.0113 -0.5996 -0.0095
 5765TIP3    H138930   6.387   4.123   1.667 -1.2717 -3.3013 -1.9565
 5765TIP3    H238931   6.495   4.044   1.738 -0.7254 -0.9273 -0.0330
 5766TIP3   OH238932   5.141   0.933   5.430  0.7745  0.6380 -0.1395
 5766TIP3    H138933   5.084   1.009   5.444  1.9983  1.2916  1.6500
 5766TIP3    H238934   5.230   0.969   5.434  1.3872 -0.4773 -2.1000
 5767TIP3   OH238935   3.492   2.792   0.458 -0.5918 -0.0013  0.0797
 5767TIP3    H138936   3.463   2.702   0.439  0.3924 -0.0804 -1.2420
 5767TIP3    H238937   3.415   2.846   0.439 -0.9155 -0.4883 -0.0358
 5768TIP3   OH238938   6.713   3.570   1.912 -0.0389 -0.1355 -0.6202
 5768TIP3    H138939   6.790   3.515   1.900  1.0123  0.9482  0.7027
 5768TIP3    H238940   6.733   3.651   1.864  0.0275  0.4631  0.3745
 5769TIP3   OH238941   2.853   5.251   6.114  0.0009 -0.1725 -0.1462
 5769TIP3    H138942   2.773   5.212   6.080 -0.4952 -0.6306  1.4794
 5769TIP3    H238943   2.923   5.195   6.079 -0.5582 -1.2091  0.3369
 5770TIP3   OH238944   4.130   5.091   2.056  0.1015  0.0467  0.0641
 5770TIP3    H138945   4.045   5.049   2.063 -0.2837  0.4552 -1.7839
 5770TIP3    H238946   4.120   5.174   2.103 -0.1921 -0.3366  0.6975
 5771TIP3   OH238947   0.858   5.347   7.796  0.1589 -0.3073  0.2599
 5771TIP3    H138948   0.809   5.395   7.863 -0.9929 -1.0694 -0.0091
 5771TIP3    H238949   0.946   5.384   7.801 -0.0330  0.0348  1.8149
 5772TIP3   OH238950   6.648   4.697   7.534  0.0651  0.3201 -0.2234
 5772TIP3    H138951   6.640   4.741   7.618 -0.3265 -3.3762  1.8628
 5772TIP3    H238952   6.743   4.694   7.518  0.0632  3.2841 -1.3571
 5773TIP3   OH238953   3.391   3.468   7.074 -0.0541 -0.3946  0.5318
 5773TIP3    H138954   3.303   3.478   7.037 -0.3773  0.3521  1.4538
 5773TIP3    H238955   3.448   3.458   6.998 -0.4567  2.8836 -0.3449
 5774TIP3   OH238956   3.251   6.504   7.363  0.2180 -0.4478 -0.2370
 5774TIP3    H138957   3.164   6.541   7.345 -0.6003 -1.7985  0.7391
 5774TIP3    H238958   3.233   6.421   7.407  2.0059 -1.2710 -0.9650
 5775TIP3   OH238959   3.116   2.139   0.556 -0.5972 -0.3057 -0.0171
 5775TIP3    H138960   3.195   2.156   0.504 -1.9939  2.6760 -1.3935
 5775TIP3    H238961   3.080   2.059   0.518  1.1567 -1.1173 -0.0813
 5776TIP3   OH238962   4.770   5.948   1.767  0.0507  0.0454  0.0310
 5776TIP3    H138963   4.723   5.939   1.850 -0.5008  1.0322 -0.1563
 5776TIP3    H238964   4.857   5.980   1.792 -0.1220  0.3677  0.2333
 5777TIP3   OH238965   1.741   6.359   7.575 -0.3953  0.3461 -0.6468
 5777TIP3    H138966   1.739   6.276   7.528 -0.6783  0.4210 -0.7704
 5777TIP3    H238967   1.834   6.375   7.593 -0.3887 -0.3095 -0.0621
 5778TIP3   OH238968   4.380   5.030   1.479 -0.0272  0.5835  0.2850
 5778TIP3    H138969   4.352   4.946   1.516  1.6920 -0.7839 -1.2892
 5778TIP3    H238970   4.298   5.078   1.465 -1.2912 -1.6724 -0.6670
 5779TIP3   OH238971   3.494   6.783   0.815 -0.5526  0.2233  0.1940
 5779TIP3    H138972   3.407   6.749   0.837 -0.4041 -0.9255 -0.8929
 5779TIP3    H238973   3.532   6.717   0.758  1.0679  0.6941  0.6711
 5780TIP3   OH238974   2.400   5.510   0.100  0.1716 -0.5705 -0.1656
 5780TIP3    H138975   2.321   5.484   0.053 -0.5824  0.8878  0.2458
 5780TIP3    H238976   2.368   5.546   0.183  1.1581  1.0828 -0.4536
 5781TIP3   OH238977   4.074   3.796   1.001  0.2435  0.6402 -0.4357
 5781TIP3    H138978   4.047   3.726   1.059  1.3086  0.2996 -0.3241
 5781TIP3    H238979   4.079   3.755   0.914  2.0270  0.2277 -0.1833
 5782TIP3   OH238980   0.808   0.472   7.477  0.3673 -0.2831 -0.3617
 5782TIP3    H138981   0.866   0.395   7.476 -0.5173 -1.0318  1.2726
 5782TIP3    H238982   0.842   0.526   7.548 -1.2095 -1.0100  1.0102
 5783TIP3   OH238983   0.753   5.261   1.600  0.4271 -0.1762 -0.0187
 5783TIP3    H138984   0.671   5.308   1.590  0.3751 -0.0953  0.7410
 5783TIP3    H238985   0.747   5.220   1.686  0.7865 -0.9508 -0.3555
 5784TIP3   OH238986   0.051   4.537   0.125 -0.0472  0.2679  0.0014
 5784TIP3    H138987   0.146   4.536   0.111 -0.0008 -0.5028  0.2959
 5784TIP3    H238988   0.015   4.506   0.042  0.1335 -2.4160  0.8333
 5785TIP3   OH238989   1.774   3.807   7.526 -0.0635 -0.5155  0.2479
 5785TIP3    H138990   1.762   3.896   7.495 -0.0340  0.0673  1.8132
 5785TIP3    H238991   1.691   3.763   7.504 -0.4235  0.1459  0.2522
 5786TIP3   OH238992   4.735   5.238   0.528 -0.2002  0.2998  0.1204
 5786TIP3    H138993   4.701   5.300   0.463 -0.4681  0.1800  0.1424
 5786TIP3    H238994   4.775   5.293   0.595 -1.3943  0.5116  0.6887
 5787TIP3   OH238995   2.876   2.103   5.943 -0.1092 -0.4742  0.4811
 5787TIP3    H138996   2.912   2.018   5.919 -0.9796 -0.8835  0.6059
 5787TIP3    H238997   2.866   2.149   5.860  1.5199 -0.0072  0.5128
 5788TIP3   OH238998   6.300   4.742   0.335  0.7301  0.2060 -0.0113
 5788TIP3    H138999   6.242   4.808   0.372 -0.2391 -0.7463  0.2112
 5788TIP3    H239000   6.250   4.660   0.340  1.0775 -0.2103 -2.1757
 5789TIP3   OH239001   2.012   6.501   6.558  0.0180 -0.0718 -0.0690
 5789TIP3    H139002   1.921   6.517   6.531  0.6094 -0.7948 -2.9008
 5789TIP3    H239003   2.051   6.588   6.565 -1.1715  0.3154  2.5369
 5790TIP3   OH239004   5.587   0.727   0.376  0.4138 -0.1985  0.7133
 5790TIP3    H139005   5.662   0.675   0.405  0.1978  0.6557  3.0690
 5790TIP3    H239006   5.615   0.818   0.386 -0.0594  0.1695 -0.9685
 5791TIP3   OH239007   2.356   6.831   1.108 -0.7865 -0.1377 -0.1722
 5791TIP3    H139008   2.304   6.911   1.114 -0.1623  0.1790  1.8874
 5791TIP3    H239009   2.446   6.861   1.124 -0.6591 -1.3398  1.5426
 5792TIP3   OH239010   0.262   0.202   6.240  0.8231 -0.0649 -0.3535
 5792TIP3    H139011   0.291   0.134   6.180  0.1126 -0.7112  0.0241
 5792TIP3    H239012   0.303   0.282   6.207 -0.2448 -0.2331 -2.2308
 5793TIP3   OH239013   5.461   5.688   0.660  0.1089 -0.2650  0.2294
 5793TIP3    H139014   5.467   5.770   0.610  1.4391  0.2114  1.1140
 5793TIP3    H239015   5.376   5.651   0.636  0.1540  0.5932 -1.3754
 5794TIP3   OH239016   2.647   1.073   1.894 -0.0763 -0.3810  0.2311
 5794TIP3    H139017   2.656   1.045   1.803 -1.8590 -1.2610  0.2883
 5794TIP3    H239018   2.728   1.120   1.913 -0.1044  0.7750 -2.1427
 5795TIP3   OH239019   2.354   3.269   1.664  0.7128  0.5311  0.1065
 5795TIP3    H139020   2.306   3.200   1.711  2.0459 -0.9341 -0.5815
 5795TIP3    H239021   2.446   3.244   1.673  1.1627  1.6550 -1.0837
 5796TIP3   OH239022   2.953   5.314   7.602  0.6066 -0.0675  0.2437
 5796TIP3    H139023   2.959   5.241   7.665 -1.0150 -0.8538 -0.4391
 5796TIP3    H239024   2.867   5.353   7.620  0.0379 -0.4176 -1.5587
 5797TIP3   OH239025   1.073   0.096   1.873  0.3955  0.4640 -0.2188
 5797TIP3    H139026   1.014   0.092   1.948  0.1916 -1.6308 -0.4393
 5797TIP3    H239027   1.061   0.184   1.837 -0.2205  1.1596  1.6111
 5798TIP3   OH239028   4.136   4.866   0.862  0.0420 -0.1556  0.3483
 5798TIP3    H139029   4.194   4.928   0.818 -0.1818 -1.0205 -1.2329
 5798TIP3    H239030   4.107   4.912   0.941 -0.0395  1.7197 -0.7138
 5799TIP3   OH239031   1.019   7.122   6.547 -0.4245  0.5926 -0.0581
 5799TIP3    H139032   0.933   7.107   6.508 -0.1641 -0.0336 -0.4156
 5799TIP3    H239033   1.076   7.056   6.506  0.1847  0.8790  0.3030
 5800TIP3   OH239034   3.350   0.707   6.697 -0.4489 -0.3169  0.5373
 5800TIP3    H139035   3.419   0.645   6.674 -0.5140 -0.6507  1.2137
 5800TIP3    H239036   3.282   0.692   6.631  0.1514  0.0787 -0.1879
 5801TIP3   OH239037   5.101   3.823   6.976 -0.0986 -0.3089  0.2737
 5801TIP3    H139038   5.147   3.811   6.893  1.0549 -0.4164  0.9049
 5801TIP3    H239039   5.140   3.902   7.013  0.1631 -0.8570  1.1930
 5802TIP3   OH239040   4.121   5.114   1.455  0.1982  0.3125  0.0093
 5802TIP3    H139041   4.060   5.058   1.407  0.0839 -0.2050  0.7436
 5802TIP3    H239042   4.079   5.128   1.540 -0.1481  2.1731 -0.4269
 5803TIP3   OH239043   2.966   3.763   1.356 -0.7936 -0.3017  0.3076
 5803TIP3    H139044   2.926   3.682   1.325  1.2932 -0.8904 -1.0717
 5803TIP3    H239045   2.984   3.813   1.276 -0.7077  0.8786  1.0319
 5804TIP3   OH239046   4.417   2.367   6.678 -0.1232  0.1638 -0.2083
 5804TIP3    H139047   4.429   2.309   6.753 -0.1960  0.4731  0.0466
 5804TIP3    H239048   4.323   2.361   6.658 -0.0525 -0.1398 -0.4600
 5805TIP3   OH239049   1.526   4.117   1.672  0.3256  0.3773 -0.2125
 5805TIP3    H139050   1.556   4.181   1.607  0.4457  0.9038  0.3554
 5805TIP3    H239051   1.478   4.169   1.736  0.0267 -0.1704  0.0087
 5806TIP3   OH239052   5.572   0.320   1.203  0.6854  0.1556  0.1666
 5806TIP3    H139053   5.537   0.231   1.200 -3.0912  1.4755 -1.8326
 5806TIP3    H239054   5.543   0.360   1.121  2.9648  3.0337  0.6057
 5807TIP3   OH239055   0.167   7.113   1.691 -0.5581  0.8681 -0.2185
 5807TIP3    H139056   0.087   7.163   1.707 -0.4381  0.7136  0.9011
 5807TIP3    H239057   0.143   7.053   1.620 -1.5057  0.6719  0.2446
 5808TIP3   OH239058   5.697   2.992   0.684 -0.1757  0.0813 -0.1811
 5808TIP3    H139059   5.756   3.014   0.756  0.5103 -3.3163  0.4881
 5808TIP3    H239060   5.752   2.999   0.606  0.6593 -1.2428  0.2467
 5809TIP3   OH239061   0.334   4.158   5.929  1.2349  0.3037 -0.2750
 5809TIP3    H139062   0.274   4.199   5.867 -0.1372 -1.5233 -0.2048
 5809TIP3    H239063   0.401   4.118   5.874  2.5817  2.4570 -0.3489
 5810TIP3   OH239064   6.110   1.265   1.785  0.7575 -0.2400 -0.2073
 5810TIP3    H139065   6.154   1.260   1.870  1.3378 -1.3103 -0.5491
 5810TIP3    H239066   6.017   1.273   1.806  1.0031  0.8599  0.5238
 5811TIP3   OH239067   5.548   0.279   0.462  0.7529  0.4577  0.0239
 5811TIP3    H139068   5.576   0.268   0.371 -2.2645 -0.7986 -0.8771
 5811TIP3    H239069   5.483   0.349   0.458 -0.8149 -0.8916  0.7979
 5812TIP3   OH239070   4.525   4.219   6.135  0.1390 -0.0154 -0.1303
 5812TIP3    H139071   4.539   4.312   6.154 -0.6310  0.0444  0.1893
 5812TIP3    H239072   4.463   4.219   6.063  0.4364 -0.2843 -0.3886
 5813TIP3   OH239073   5.530   0.161   1.532  1.2964 -0.3711  0.3697
 5813TIP3    H139074   5.612   0.210   1.539  1.1231 -0.2057  1.4145
 5813TIP3    H239075   5.525   0.111   1.614 -0.0366  0.2516  0.6853
 5814TIP3   OH239076   5.440   2.584   0.618 -0.2083  0.1527  0.1178
 5814TIP3    H139077   5.443   2.672   0.655  0.2181  0.4168 -0.5201
 5814TIP3    H239078   5.353   2.576   0.579  0.4015  1.0202 -1.5160
 5815TIP3   OH239079   2.631   2.476   0.366  0.3392 -0.0792 -0.2513
 5815TIP3    H139080   2.651   2.564   0.398  0.5827 -0.4956  0.7784
 5815TIP3    H239081   2.637   2.420   0.443 -3.8196 -0.4569  0.0129
 5816TIP3   OH239082   1.836   5.045   6.343 -0.4084  0.0923  0.0557
 5816TIP3    H139083   1.893   5.025   6.268  0.9343 -2.7055  1.6687
 5816TIP3    H239084   1.772   4.974   6.344 -0.6696  0.3258  1.3190
 5817TIP3   OH239085   4.749   1.197   6.856  0.0589  0.1378  0.8193
 5817TIP3    H139086   4.693   1.271   6.882 -0.7495 -1.2763  3.4508
 5817TIP3    H239087   4.806   1.182   6.932  1.1809 -1.0601 -0.2183
 5818TIP3   OH239088   1.562   6.108   1.895 -0.2994 -0.5083 -0.3902
 5818TIP3    H139089   1.535   6.061   1.974  2.6362 -1.6211  0.0764
 5818TIP3    H239090   1.642   6.064   1.868 -0.6931  0.4603 -3.4909
 5819TIP3   OH239091   5.888   3.954   0.208 -0.3806 -0.6136  0.1063
 5819TIP3    H139092   5.907   3.917   0.294 -0.2569  1.3174  0.9718
 5819TIP3    H239093   5.974   3.962   0.166 -0.2790 -0.2573  0.3782
 5820TIP3   OH239094   5.133   2.221   6.677  0.3021 -0.1392 -0.3534
 5820TIP3    H139095   5.078   2.241   6.601 -1.0683  1.0208  0.8820
 5820TIP3    H239096   5.115   2.130   6.697  0.4927 -0.3838 -1.2630
 5821TIP3   OH239097   4.155   5.352   2.203 -0.2228  0.0245 -0.1737
 5821TIP3    H139098   4.136   5.389   2.290 -4.1227 -1.5783 -0.1491
 5821TIP3    H239099   4.237   5.393   2.178 -0.2574  2.6033  3.1341
 5822TIP3   OH239100   5.085   0.148   6.347  0.0964  0.1623 -0.2089
 5822TIP3    H139101   5.107   0.097   6.268 -0.0263 -1.0494  0.5166
 5822TIP3    H239102   4.989   0.146   6.350  0.1373 -1.6913  1.1411
 5823TIP3   OH239103   1.912   0.522   0.306  0.4381  0.5509  0.0032
 5823TIP3    H139104   1.994   0.528   0.355  0.1352 -0.4997  0.6497
 5823TIP3    H239105   1.844   0.518   0.372 -0.0038 -0.4772 -0.4869
 5824TIP3   OH239106   3.394   5.808   1.480 -0.2239 -0.4489 -0.2435
 5824TIP3    H139107   3.451   5.731   1.493 -1.5297 -1.2094  1.4388
 5824TIP3    H239108   3.356   5.795   1.393 -0.2463 -1.6078 -0.0849
 5825TIP3   OH239109   0.578   0.986   6.950 -0.3837 -0.4066 -0.1734
 5825TIP3    H139110   0.596   1.020   7.038  0.6413  2.9052 -1.4961
 5825TIP3    H239111   0.487   0.958   6.953  0.3369 -2.9000  2.5671
 5826TIP3   OH239112   5.504   6.678   1.592  0.2672  0.2010 -0.1974
 5826TIP3    H139113   5.493   6.585   1.613 -0.0014  0.5573  1.3005
 5826TIP3    H239114   5.597   6.695   1.605 -0.0819  0.6881  1.9724
 5827TIP3   OH239115   4.396   2.014   0.601  0.7482  0.4015 -0.3445
 5827TIP3    H139116   4.339   1.981   0.531  0.9600 -0.0279 -0.3146
 5827TIP3    H239117   4.359   2.100   0.623  0.6880  0.5469 -0.9911
 5828TIP3   OH239118   2.132   2.500   0.812 -0.1381 -1.1766 -0.0441
 5828TIP3    H139119   2.170   2.587   0.813 -1.3924 -0.5903 -0.5558
 5828TIP3    H239120   2.041   2.514   0.785 -1.2029 -2.3117  2.6419
 5829TIP3   OH239121   4.726   6.031   7.719  0.0143 -0.1425  0.4835
 5829TIP3    H139122   4.678   6.058   7.641  0.7230  0.4980  0.2510
 5829TIP3    H239123   4.670   6.056   7.792 -0.9843 -1.4098  0.1851
 5830TIP3   OH239124   4.460   1.438   7.193  0.4415  0.3990 -0.1797
 5830TIP3    H139125   4.375   1.477   7.175  0.2034  0.4124  0.8994
 5830TIP3    H239126   4.478   1.460   7.284  1.3226 -0.1177 -0.2138
 5831TIP3   OH239127   2.576   5.911   6.992  0.0107 -0.2906  1.5042
 5831TIP3    H139128   2.649   5.885   7.049  1.1882 -1.1431 -0.3075
 5831TIP3    H239129   2.604   5.995   6.954  1.9245 -2.3117 -2.0595
 5832TIP3   OH239130   3.944   4.334   0.529  0.0619  0.4409  0.5436
 5832TIP3    H139131   3.854   4.304   0.514  0.4768 -1.0808  0.9619
 5832TIP3    H239132   3.936   4.394   0.604 -0.5369 -0.1081  0.9341
 5833TIP3   OH239133   7.106   6.084   0.925  0.0700  0.2103 -0.2030
 5833TIP3    H139134   7.165   6.136   0.979  0.4877 -1.3323  0.8977
 5833TIP3    H239135   7.030   6.140   0.912  0.4166  1.0287  1.0819
 5834TIP3   OH239136   3.083   5.077   7.494  0.6849  0.7800 -0.6772
 5834TIP3    H139137   3.063   5.163   7.531 -1.2311 -0.3751  1.1220
 5834TIP3    H239138   3.001   5.046   7.457  1.2656 -0.4316 -1.0179
 5835TIP3   OH239139   0.790   4.365   7.966  0.2328  0.2180  0.0246
 5835TIP3    H139140   0.714   4.335   8.015 -0.0951 -0.8388 -1.0813
 5835TIP3    H239141   0.754   4.400   7.885  0.9009  0.1915 -0.2875
 5836TIP3   OH239142   7.204   7.179   1.301  0.1913  0.4802  0.0299
 5836TIP3    H139143   7.161   7.215   1.378  0.7183  0.6610  0.2391
 5836TIP3    H239144   7.198   7.248   1.235 -0.9330  0.0495 -0.3513
 5837TIP3   OH239145   2.938   3.460   7.116 -0.2472 -0.3468  0.6284
 5837TIP3    H139146   2.949   3.421   7.029 -0.1963  0.7426  0.1268
 5837TIP3    H239147   3.005   3.528   7.120  0.9976 -1.5808  2.2604
 5838TIP3   OH239148   2.164   3.091   7.325  0.2552  0.6638 -0.0468
 5838TIP3    H139149   2.113   3.046   7.393  1.0194 -1.2584 -0.6661
 5838TIP3    H239150   2.250   3.105   7.365  0.8850 -0.9710 -0.7272
 5839TIP3   OH239151   1.391   3.576   1.129 -0.1438 -0.2517 -0.2610
 5839TIP3    H139152   1.434   3.491   1.122 -1.5607 -0.9126 -1.3724
 5839TIP3    H239153   1.384   3.592   1.223  1.2980 -0.7347 -0.0525
 5840TIP3   OH239154   5.907   4.504   6.396 -0.4393 -0.3445 -0.0175
 5840TIP3    H139155   5.895   4.499   6.301  0.6261 -0.5996 -0.1475
 5840TIP3    H239156   5.992   4.547   6.408 -1.0790  0.7404  0.8484
 5841TIP3   OH239157   3.205   0.199   7.382 -0.0969 -0.1570  0.4196
 5841TIP3    H139158   3.296   0.180   7.360 -0.2155 -0.0168 -0.2265
 5841TIP3    H239159   3.185   0.141   7.455  1.1215  1.2653  1.9748
 5842TIP3   OH239160   4.035   0.155   1.440 -0.0642  0.1198  0.3659
 5842TIP3    H139161   3.953   0.108   1.426 -1.0269  1.1001  2.3142
 5842TIP3    H239162   4.085   0.100   1.501  0.0081  0.3011  0.4729
 5843TIP3   OH239163   1.417   3.133   1.507 -0.2345  0.5302  0.3740
 5843TIP3    H139164   1.449   3.198   1.570 -1.6919  1.3133  0.3572
 5843TIP3    H239165   1.496   3.101   1.464  0.5798  1.8564  0.8115
 5844TIP3   OH239166   7.038   1.158   1.430 -0.3586 -0.4185 -0.4738
 5844TIP3    H139167   7.075   1.245   1.445 -0.3630 -0.3747 -0.7196
 5844TIP3    H239168   7.109   1.097   1.452 -0.5756 -0.3769  0.3702
 5845TIP3   OH239169   1.588   5.357   2.019  0.4538 -0.0339  0.2361
 5845TIP3    H139170   1.564   5.268   1.995  1.3574  0.3138 -2.2969
 5845TIP3    H239171   1.534   5.412   1.963  2.4995  0.8788 -0.9238
 5846TIP3   OH239172   5.875   1.948   1.079  0.8816 -0.4240 -0.5622
 5846TIP3    H139173   5.873   2.030   1.128  1.5362  0.1785 -1.5080
 5846TIP3    H239174   5.790   1.907   1.096  0.8469  0.0772  0.5324
 5847TIP3   OH239175   2.347   2.978   0.777  0.4301  0.4366 -0.3647
 5847TIP3    H139176   2.298   3.017   0.704  0.7827 -1.7940 -1.9155
 5847TIP3    H239177   2.438   2.980   0.748  0.3869 -2.1504 -0.9348
 5848TIP3   OH239178   2.249   3.506   0.326 -0.1151 -0.1263  0.0419
 5848TIP3    H139179   2.318   3.552   0.373 -0.1719 -0.1910  0.1874
 5848TIP3    H239180   2.187   3.575   0.300 -1.0742 -0.3029  1.7173
 5849TIP3   OH239181   2.859   0.907   7.305 -0.3851  0.4671  0.6405
 5849TIP3    H139182   2.909   0.957   7.240  0.8912  0.3510  1.4977
 5849TIP3    H239183   2.855   0.818   7.269 -0.9208  0.7099  0.0695
 5850TIP3   OH239184   4.785   2.738   2.173  0.6008  0.3848 -0.1320
 5850TIP3    H139185   4.730   2.769   2.101  1.2039 -0.8014 -1.1518
 5850TIP3    H239186   4.842   2.813   2.193  0.0143  0.9357 -0.4707
 5851TIP3   OH239187   3.399   2.814   1.065  0.4766 -0.1523 -0.2732
 5851TIP3    H139188   3.486   2.811   1.026  0.7414 -1.1356  0.3418
 5851TIP3    H239189   3.415   2.836   1.157  0.1323 -0.9209 -0.0233
 5852TIP3   OH239190   6.726   3.255   5.473 -0.4937 -0.0767 -0.1375
 5852TIP3    H139191   6.731   3.201   5.552 -1.3559 -0.0238 -0.0287
 5852TIP3    H239192   6.636   3.290   5.475 -0.6905 -0.4903 -1.4181
 5853TIP3   OH239193   2.523   3.819   7.544 -0.4201  0.3992  0.2596
 5853TIP3    H139194   2.509   3.815   7.639  0.5391 -0.2378  0.3893
 5853TIP3    H239195   2.618   3.831   7.535 -0.4640  0.1118 -0.6205
 5854TIP3   OH239196   7.039   5.028   1.810 -0.2352 -0.2062 -0.2340
 5854TIP3    H139197   7.128   5.061   1.811 -0.0165 -0.7345  1.4150
 5854TIP3    H239198   7.026   4.994   1.722  0.5070  1.6274 -1.0917
 5855TIP3   OH239199   4.605   1.394   6.964  0.5112 -0.1256  0.2618
 5855TIP3    H139200   4.609   1.490   6.958  1.1711 -0.1700 -0.1801
 5855TIP3    H239201   4.543   1.377   7.035 -0.7243  0.6119 -0.5905
 5856TIP3   OH239202   5.840   5.716   1.349  0.2802  1.0558  0.2644
 5856TIP3    H139203   5.905   5.692   1.415 -1.5767  0.9956  2.1804
 5856TIP3    H239204   5.793   5.635   1.331 -0.4294  1.4609  0.2536
 5857TIP3   OH239205   5.825   1.226   6.666  0.3305  0.5947 -0.2068
 5857TIP3    H139206   5.780   1.184   6.592 -0.5688  0.7073  0.2651
 5857TIP3    H239207   5.755   1.264   6.718  0.9150  0.1005  0.9657
 5858TIP3   OH239208   0.274   2.076   5.918  0.0567  0.9784  0.1468
 5858TIP3    H139209   0.347   2.138   5.910  0.2689  0.6359 -0.6439
 5858TIP3    H239210   0.313   1.998   5.956 -0.0886  1.1164  0.5821
 5859TIP3   OH239211   6.042   4.085   1.374  0.3092  0.1450 -0.4464
 5859TIP3    H139212   5.980   4.073   1.302  1.5355  0.8112 -1.6786
 5859TIP3    H239213   6.123   4.111   1.331  1.0512  0.7200  1.2131
 5860TIP3   OH239214   0.354   1.573   7.085 -0.2136  0.1577  0.0773
 5860TIP3    H139215   0.372   1.521   7.163  1.0639  0.6100  0.1050
 5860TIP3    H239216   0.259   1.589   7.088 -0.5684 -1.8131  0.2601
 5861TIP3   OH239217   1.568   5.021   7.944 -0.4174 -0.3350  0.5934
 5861TIP3    H139218   1.486   4.974   7.927  0.5364 -1.3242 -1.6547
 5861TIP3    H239219   1.543   5.114   7.939 -1.4068 -0.6139 -0.0509
 5862TIP3   OH239220   1.930   3.300   6.099  0.3798  0.4314  0.2680
 5862TIP3    H139221   1.843   3.316   6.063  0.2972  0.0835  0.3055
 5862TIP3    H239222   1.936   3.204   6.105  0.0818  0.4958  1.9536
 5863TIP3   OH239223   1.037   5.241   1.770 -0.2644  0.3109  0.6700
 5863TIP3    H139224   1.120   5.271   1.732 -1.8730  2.0570 -1.7831
 5863TIP3    H239225   0.995   5.192   1.699 -0.6090 -2.2667  2.4868
 5864TIP3   OH239226   7.152   4.118   7.299  0.0711 -0.0798 -0.1350
 5864TIP3    H139227   7.109   4.088   7.379 -1.0502  2.3721  0.2569
 5864TIP3    H239228   7.245   4.098   7.313  0.0208  0.9989  2.1561
 5865TIP3   OH239229   3.296   4.511   7.225  0.3062 -0.6125  0.2985
 5865TIP3    H139230   3.249   4.573   7.169  0.7900 -0.4273  0.0963
 5865TIP3    H239231   3.243   4.431   7.220 -1.2499  0.2422  1.8767
 5866TIP3   OH239232   2.462   5.111   1.925 -0.5102 -0.1616  0.1919
 5866TIP3    H139233   2.513   5.038   1.960 -0.8072 -0.5516 -0.1769
 5866TIP3    H239234   2.470   5.180   1.991  0.5481 -0.1848  0.1162
 5867TIP3   OH239235   3.777   4.129   1.257 -0.2649  0.4047 -0.1375
 5867TIP3    H139236   3.854   4.087   1.295  0.1726  0.7462 -0.6314
 5867TIP3    H239237   3.781   4.107   1.164 -0.4198  0.9427 -0.2757
 5868TIP3   OH239238   4.479   2.889   1.001  0.4066 -0.4467 -0.0563
 5868TIP3    H139239   4.540   2.962   1.007 -1.6162  1.2372  1.2105
 5868TIP3    H239240   4.415   2.916   0.935 -1.2056 -0.3267  1.4656
 5869TIP3   OH239241   3.020   2.127   7.228 -0.3680  0.0105  0.4589
 5869TIP3    H139242   3.087   2.159   7.168 -0.3614  1.0704  1.0082
 5869TIP3    H239243   2.938   2.156   7.190 -0.4322 -0.2147  0.4259
 5870TIP3   OH239244   5.956   1.889   7.791  0.0101 -0.1642 -0.2874
 5870TIP3    H139245   5.909   1.964   7.829  0.3146 -1.3885  2.7519
 5870TIP3    H239246   5.968   1.914   7.699  0.1056  3.5132  0.5399
 5871TIP3   OH239247   3.353   5.747   6.772 -0.1225 -0.7527 -0.2227
 5871TIP3    H139248   3.383   5.691   6.843 -0.0602 -0.3408  0.0752
 5871TIP3    H239249   3.385   5.704   6.692  2.4766  0.3755  0.1269
 5872TIP3   OH239250   5.739   3.579   1.803 -0.1692  0.0243 -0.2044
 5872TIP3    H139251   5.825   3.617   1.820 -1.1365  2.5156 -0.4208
 5872TIP3    H239252   5.748   3.487   1.826  2.3669  0.3521  0.3699
 5873TIP3   OH239253   0.684   5.673   6.454  0.4229 -0.1831  0.5079
 5873TIP3    H139254   0.634   5.625   6.388  1.8833 -1.2412  0.1155
 5873TIP3    H239255   0.695   5.611   6.526  3.1783 -0.8878 -0.4114
 5874TIP3   OH239256   0.166   2.552   7.910  0.0111 -0.4636  0.0114
 5874TIP3    H139257   0.200   2.633   7.871  0.8650 -0.4070  0.8069
 5874TIP3    H239258   0.239   2.490   7.903 -1.2995 -1.8486 -2.4158
 5875TIP3   OH239259   4.450   1.435   0.603 -0.2676  0.1507 -0.0408
 5875TIP3    H139260   4.463   1.516   0.553  0.9437 -1.5472 -2.7127
 5875TIP3    H239261   4.490   1.453   0.688  0.2036  2.2734 -0.6543
 5876TIP3   OH239262   1.679   6.292   1.442  0.0811 -0.4193 -0.5532
 5876TIP3    H139263   1.679   6.210   1.394 -3.3547 -0.7819 -0.2064
 5876TIP3    H239264   1.682   6.266   1.535  0.9568 -0.0274 -0.4630
 5877TIP3   OH239265   1.341   4.223   6.635  0.2029 -0.1054 -0.3121
 5877TIP3    H139266   1.310   4.156   6.574  0.1023 -1.5115  1.1949
 5877TIP3    H239267   1.265   4.241   6.691  0.0974  1.6279 -0.9584
 5878TIP3   OH239268   7.121   6.007   1.465  0.1556  0.3756 -0.2269
 5878TIP3    H139269   7.098   6.098   1.485  1.3744  0.7654 -0.5466
 5878TIP3    H239270   7.182   5.982   1.534  2.2517  0.8386 -1.8178
 5879TIP3   OH239271   0.438   7.015   5.697 -0.1395 -0.3371  0.0015
 5879TIP3    H139272   0.475   6.964   5.769 -0.1398 -0.5802 -0.1715
 5879TIP3    H239273   0.384   6.953   5.648  0.5642 -0.3880 -0.7242
 5880TIP3   OH239274   0.008   3.985   0.829  0.1121 -0.4134  0.7129
 5880TIP3    H139275   0.096   4.018   0.847  0.2956 -0.4209 -0.1496
 5880TIP3    H239276   0.008   3.897   0.867  0.5755 -0.5245  0.4628
 5881TIP3   OH239277   5.475   1.340   0.813  0.5452  0.4571 -0.3335
 5881TIP3    H139278   5.453   1.271   0.875 -0.5095 -0.7217 -1.9210
 5881TIP3    H239279   5.550   1.306   0.764  0.5108  0.7631 -0.6051
 5882TIP3   OH239280   3.561   3.096   1.737  0.1212  0.2168 -0.4358
 5882TIP3    H139281   3.564   3.162   1.668 -0.2242 -0.6013 -1.2695
 5882TIP3    H239282   3.535   3.016   1.691  1.2375 -0.6628  0.4191
 5883TIP3   OH239283   0.558   5.010   6.031 -0.2258 -0.1792  0.3094
 5883TIP3    H139284   0.493   5.056   5.978 -1.4620 -0.5293  1.4383
 5883TIP3    H239285   0.641   5.024   5.986 -0.9784  0.8607 -0.8221
 5884TIP3   OH239286   2.218   4.889   2.034 -0.3495  0.0785 -0.2676
 5884TIP3    H139287   2.235   4.820   1.969 -0.5695  0.5750 -0.8626
 5884TIP3    H239288   2.282   4.957   2.014 -1.5437  1.0029 -1.1116
 5885TIP3   OH239289   4.611   0.317   7.771  0.0658  0.1537  0.2747
 5885TIP3    H139290   4.588   0.327   7.864  0.5544  1.9901  0.2373
 5885TIP3    H239291   4.534   0.349   7.724  0.1023 -0.0786  0.0579
 5886TIP3   OH239292   2.635   2.644   6.432  0.2018  0.9537  0.0971
 5886TIP3    H139293   2.599   2.556   6.442 -1.9782  1.4617 -2.2680
 5886TIP3    H239294   2.686   2.658   6.513 -1.8466 -1.2844  1.9438
 5887TIP3   OH239295   3.264   7.026   0.521 -0.2525  0.2634  0.0839
 5887TIP3    H139296   3.236   6.945   0.565  0.4944 -0.8741 -1.4429
 5887TIP3    H239297   3.209   7.032   0.443  2.0601 -0.7960 -1.7506
 5888TIP3   OH239298   4.722   5.201   0.992  0.2127 -0.1237  0.3043
 5888TIP3    H139299   4.766   5.246   1.064  0.5195 -0.9629  0.6615
 5888TIP3    H239300   4.678   5.127   1.034  0.7305 -0.8585 -0.4184
 5889TIP3   OH239301   0.907   6.328   7.086  0.0956 -0.4188  0.5910
 5889TIP3    H139302   0.822   6.373   7.078  1.4601  2.5005  1.0861
 5889TIP3    H239303   0.913   6.276   7.006 -0.7764  1.9746 -1.1977
 5890TIP3   OH239304   5.244   7.158   1.456  0.2320  0.6196 -0.6467
 5890TIP3    H139305   5.246   7.252   1.471  2.0119  0.4813  0.3404
 5890TIP3    H239306   5.280   7.120   1.536 -1.2027 -0.9744 -0.6960
 5891TIP3   OH239307   6.684   1.040   6.739 -0.4309 -0.0331  0.4400
 5891TIP3    H139308   6.700   1.070   6.650 -1.2898  0.1663  0.3470
 5891TIP3    H239309   6.670   1.120   6.790  0.0005 -0.1477  0.7502
 5892TIP3   OH239310   6.487   5.684   1.459 -0.4630 -0.0173 -0.4109
 5892TIP3    H139311   6.474   5.590   1.444  2.4020 -0.4088 -0.9861
 5892TIP3    H239312   6.436   5.727   1.390 -0.3147 -1.2193 -1.3025
 5893TIP3   OH239313   0.852   0.550   6.461 -0.0473 -0.1347  0.4897
 5893TIP3    H139314   0.788   0.555   6.532 -0.9450 -1.0029 -0.2245
 5893TIP3    H239315   0.826   0.472   6.411  0.4437  0.5679 -0.9094
 5894TIP3   OH239316   4.161   1.786   7.321 -0.3826  0.9435 -0.1809
 5894TIP3    H139317   4.125   1.853   7.263  2.5793  1.5844 -1.4779
 5894TIP3    H239318   4.164   1.827   7.407 -0.2544  1.8720 -0.6123
 5895TIP3   OH239319   1.063   3.596   6.299  0.3878  0.1869 -0.5635
 5895TIP3    H139320   1.046   3.574   6.208  1.0391 -0.3328 -0.5672
 5895TIP3    H239321   1.093   3.514   6.338  0.4684  0.4927  0.0306
 5896TIP3   OH239322   5.248   5.523   7.842  0.1935 -0.3967  0.3339
 5896TIP3    H139323   5.195   5.594   7.807 -0.5699 -0.1564  1.8843
 5896TIP3    H239324   5.332   5.531   7.797 -0.1311  1.0205 -0.0567
 5897TIP3   OH239325   4.327   2.746   0.343 -0.4419 -0.4747 -0.5839
 5897TIP3    H139326   4.383   2.708   0.275 -1.1049 -0.9993 -0.8575
 5897TIP3    H239327   4.249   2.690   0.343 -0.4582 -0.4671  0.6057
 5898TIP3   OH239328   1.269   0.988   6.732  0.1308  0.1790 -0.0030
 5898TIP3    H139329   1.328   1.055   6.698  1.9231 -1.5368 -0.4351
 5898TIP3    H239330   1.245   0.936   6.655 -1.0144  0.1395  0.3612
 5899TIP3   OH239331   1.679   4.871   0.158  0.2468 -0.0329  0.5206
 5899TIP3    H139332   1.621   4.919   0.099 -0.1423 -1.1526 -0.0389
 5899TIP3    H239333   1.718   4.803   0.104  2.3713  0.8847  0.8085
 5900TIP3   OH239334   0.240   2.189   6.720 -0.7504 -0.9119 -0.0515
 5900TIP3    H139335   0.237   2.261   6.784 -1.0253 -0.7975 -0.1884
 5900TIP3    H239336   0.217   2.231   6.636  1.4265 -0.6875 -0.5859
 5901TIP3   OH239337   2.277   0.662   1.840  0.0967  0.2378  0.0036
 5901TIP3    H139338   2.202   0.678   1.897  0.4985 -0.0701  0.6165
 5901TIP3    H239339   2.347   0.633   1.898  1.7364  3.5985 -0.0521
 5902TIP3   OH239340   5.250   3.395   1.309 -0.2940 -0.1046  0.1302
 5902TIP3    H139341   5.245   3.426   1.399 -1.0734  0.2537 -0.0312
 5902TIP3    H239342   5.178   3.332   1.301  0.9593 -1.6513  0.3196
 5903TIP3   OH239343   5.142   3.153   6.994  0.8642 -0.1012 -0.3403
 5903TIP3    H139344   5.186   3.210   7.058 -1.9536  1.0393  0.7195
 5903TIP3    H239345   5.070   3.113   7.043 -0.5656 -0.2586 -2.4506
 5904TIP3   OH239346   4.811   4.507   6.553 -0.1530 -0.3310 -0.1022
 5904TIP3    H139347   4.726   4.465   6.538  0.2361 -1.0659 -0.3043
 5904TIP3    H239348   4.873   4.455   6.501  0.5087 -0.1747  0.5157
 5905TIP3   OH239349   5.524   5.348   0.028  0.0711 -0.2729 -0.6018
 5905TIP3    H139350   5.506   5.262   0.066  1.2190 -0.6650 -0.9068
 5905TIP3    H239351   5.546   5.330  -0.064 -0.3992  0.4269 -0.8592
 5906TIP3   OH239352   1.551   3.693   7.392  0.4181 -0.2212 -0.7132
 5906TIP3    H139353   1.550   3.615   7.337  0.5451 -0.7045 -0.0427
 5906TIP3    H239354   1.522   3.764   7.334 -1.0286 -0.9898 -0.9740
 5907TIP3   OH239355   3.780   4.498   1.562 -0.1332 -0.1047  0.2512
 5907TIP3    H139356   3.831   4.484   1.482 -0.5485 -1.2035  0.1658
 5907TIP3    H239357   3.701   4.544   1.533  0.0959  0.2398  0.1631
 5908TIP3   OH239358   3.321   4.520   6.687 -0.0420 -0.3222  0.1443
 5908TIP3    H139359   3.311   4.614   6.674  0.0491 -0.3213  0.0788
 5908TIP3    H239360   3.401   4.511   6.740  0.3777 -0.4027 -0.4912
 5909TIP3   OH239361   4.233   6.248   6.979  0.1621 -0.0460 -0.8861
 5909TIP3    H139362   4.233   6.257   6.884 -0.6231 -0.3548 -0.9242
 5909TIP3    H239363   4.244   6.338   7.011 -3.2811  0.6346 -1.2730
 5910TIP3   OH239364   6.193   1.675   2.322 -0.1539  0.3346 -0.1948
 5910TIP3    H139365   6.197   1.596   2.269 -1.1156  1.0255 -1.3443
 5910TIP3    H239366   6.224   1.648   2.408  0.2324 -1.1107 -0.7631
 5911TIP3   OH239367   3.887   0.727   7.131  0.6476 -0.3267 -0.1874
 5911TIP3    H139368   3.835   0.798   7.094  0.4636 -0.3116  0.0919
 5911TIP3    H239369   3.970   0.730   7.084  0.5572 -0.0683 -0.3291
 5912TIP3   OH239370   5.881   2.840   7.844  0.0727  0.0188  0.6307
 5912TIP3    H139371   5.972   2.870   7.844  0.2796 -0.5798  0.1091
 5912TIP3    H239372   5.885   2.754   7.888 -0.0989 -0.3968 -0.1548
 5913TIP3   OH239373   6.931   2.057   1.182  0.0323 -0.2603  0.1339
 5913TIP3    H139374   6.882   2.137   1.202 -0.5214 -0.8758  1.3276
 5913TIP3    H239375   6.934   2.009   1.265 -0.4284 -1.9029 -0.7549
 5914TIP3   OH239376   5.811   1.317   0.925 -0.2282  0.4496 -0.4201
 5914TIP3    H139377   5.814   1.237   0.871 -2.2582 -0.5186  0.7603
 5914TIP3    H239378   5.730   1.361   0.897  0.2294  1.4656 -0.1913
 5915TIP3   OH239379   5.550   4.919   6.099  0.3523 -0.0506  0.3788
 5915TIP3    H139380   5.528   4.847   6.040 -1.0214  2.1588 -2.0183
 5915TIP3    H239381   5.644   4.911   6.112  0.7555 -0.5791 -2.2849
 5916TIP3   OH239382   3.793   2.195   0.621  0.2426  0.0628  0.0341
 5916TIP3    H139383   3.773   2.288   0.605 -0.4380 -0.2211 -0.8672
 5916TIP3    H239384   3.722   2.165   0.679  0.0893 -0.0510 -0.2100
 5917TIP3   OH239385   5.351   5.014   0.656  0.6570  0.2325 -0.1601
 5917TIP3    H139386   5.289   5.029   0.727  0.6248 -0.1307 -0.1101
 5917TIP3    H239387   5.434   5.049   0.688  0.9811 -1.1886  0.6174
 5918TIP3   OH239388   3.413   4.426   1.165 -0.1433 -0.1065 -0.1142
 5918TIP3    H139389   3.386   4.335   1.147  0.9734 -0.7216  1.1230
 5918TIP3    H239390   3.508   4.426   1.152 -0.3821  1.5413 -2.5199
 5919TIP3   OH239391   3.768   4.954   1.658 -0.3109 -0.0385  0.0735
 5919TIP3    H139392   3.769   5.048   1.645  2.0550  0.0068  0.1718
 5919TIP3    H239393   3.859   4.930   1.673 -0.6983 -2.4653 -0.8331
 5920TIP3   OH239394   3.453   5.579   1.104 -0.1395 -0.1042  0.1484
 5920TIP3    H139395   3.390   5.633   1.150 -0.4385 -1.4453  1.4031
 5920TIP3    H239396   3.403   5.535   1.036 -0.1060  0.4481 -0.2308
 5921TIP3   OH239397   7.070   1.017   7.078  0.5307  0.0301  0.0416
 5921TIP3    H139398   7.055   0.928   7.048 -2.2010  0.9644 -1.7314
 5921TIP3    H239399   7.036   1.018   7.168 -1.0651 -0.3642 -0.5186
 5922TIP3   OH239400   3.597   5.541   0.074  0.0893 -0.0456  0.0651
 5922TIP3    H139401   3.596   5.633   0.103  1.4971 -0.2987  0.9747
 5922TIP3    H239402   3.667   5.538   0.009  1.1219 -0.7888  1.1808
 5923TIP3   OH239403   2.499   4.357   1.205  0.4314  0.6467 -0.2298
 5923TIP3    H139404   2.434   4.427   1.197  0.4510  0.6672 -0.2094
 5923TIP3    H239405   2.484   4.301   1.129  0.5156  0.7555 -0.3261
 5924TIP3   OH239406   6.498   6.476   6.644  0.7914 -0.7482  0.1507
 5924TIP3    H139407   6.504   6.398   6.588  0.6936 -0.6648  0.0256
 5924TIP3    H239408   6.446   6.538   6.594  0.1922 -0.8889  0.5788
 5925TIP3   OH239409   0.952   1.087   7.163  0.1524  0.6414 -0.5280
 5925TIP3    H139410   1.026   1.109   7.220 -1.2333  0.4517  1.4651
 5925TIP3    H239411   0.960   1.147   7.089  0.5306  2.9298  1.2300
 5926TIP3   OH239412   3.384   6.317   6.794  0.0527  0.3745 -0.3630
 5926TIP3    H139413   3.409   6.356   6.711  0.3076  0.4751 -0.2387
 5926TIP3    H239414   3.419   6.228   6.790  0.2688  0.4563 -0.2636
 5927TIP3   OH239415   2.564   5.114   6.717 -0.6977  0.7910  0.2088
 5927TIP3    H139416   2.613   5.066   6.784 -1.6361  0.4815  0.6898
 5927TIP3    H239417   2.608   5.198   6.710 -0.2267  0.5970  0.7738
 5928TIP3   OH239418   5.555   6.772   0.546 -0.1316 -0.1454  0.0483
 5928TIP3    H139419   5.629   6.767   0.484  0.7194 -0.2274  1.0336
 5928TIP3    H239420   5.520   6.860   0.535  2.5909  1.3628  2.2451
 5929TIP3   OH239421   1.933   5.345   0.112 -0.1650 -0.4463 -0.0983
 5929TIP3    H139422   1.947   5.337   0.018  3.6308  1.0158  0.1490
 5929TIP3    H239423   1.851   5.393   0.120 -0.7434 -0.8567 -2.6302
 5930TIP3   OH239424   2.805   5.873   6.609  0.2973 -0.0373 -0.0939
 5930TIP3    H139425   2.774   5.953   6.651 -0.8907 -0.5247 -0.0189
 5930TIP3    H239426   2.899   5.871   6.628  0.4032  1.4996 -0.3816
 5931TIP3   OH239427   0.162   0.618   7.808  0.0701  0.3151  0.0884
 5931TIP3    H139428   0.070   0.605   7.833 -0.2420 -0.7052 -1.4805
 5931TIP3    H239429   0.180   0.549   7.744  2.4157 -0.5117  1.4928
 5932TIP3   OH239430   2.372   1.914   0.791 -0.7442 -0.1631  0.0846
 5932TIP3    H139431   2.280   1.890   0.798 -0.2121 -2.0223  1.9213
 5932TIP3    H239432   2.393   1.952   0.877  0.2621 -0.0235 -0.2095
 5933TIP3   OH239433   1.919   0.107   6.438  0.3394  0.2362 -0.0633
 5933TIP3    H139434   2.003   0.108   6.483  0.6437  0.3682 -0.6169
 5933TIP3    H239435   1.904   0.015   6.417  0.2496  0.1885  0.2207
 5934TIP3   OH239436   2.544   2.946   0.478  0.3551  0.1147 -0.0254
 5934TIP3    H139437   2.527   3.025   0.426  0.7384 -0.3751 -0.9213
 5934TIP3    H239438   2.543   2.976   0.569  0.5109  1.1500 -0.3525
 5935TIP3   OH239439   5.603   0.321   7.775  0.6627  0.6480  0.4915
 5935TIP3    H139440   5.614   0.399   7.721  1.1589 -0.4854 -1.1641
 5935TIP3    H239441   5.657   0.255   7.731  0.7160 -0.4670  2.1640
 5936TIP3   OH239442   2.147   5.821   0.644 -0.2747  0.1870 -0.1897
 5936TIP3    H139443   2.098   5.752   0.687  0.7019 -0.0590  0.5807
 5936TIP3    H239444   2.099   5.839   0.564 -1.3578 -0.3401  0.3242
 5937TIP3   OH239445   0.078   4.416   7.403 -0.1479 -0.0054  0.0011
 5937TIP3    H139446  -0.009   4.451   7.423  0.8153  2.1368  0.7909
 5937TIP3    H239447   0.116   4.398   7.489  0.6425  0.3009 -0.2795
 5938TIP3   OH239448   2.998   1.385   0.495  0.4642 -0.1186 -0.1338
 5938TIP3    H139449   2.968   1.357   0.582  0.5538 -0.9971 -0.3766
 5938TIP3    H239450   3.092   1.400   0.505  0.7862 -1.7853 -0.4471
 5939TIP3   OH239451   6.499   0.118   7.874  0.2765 -0.1854  0.5808
 5939TIP3    H139452   6.471   0.191   7.930 -2.3145 -1.1189  0.6192
 5939TIP3    H239453   6.448   0.129   7.793  0.4847 -1.4675  0.2564
 5940TIP3   OH239454   2.302   6.519   0.433  0.0674  0.2534  0.1076
 5940TIP3    H139455   2.320   6.557   0.519 -0.3811 -0.9675  0.7752
 5940TIP3    H239456   2.242   6.446   0.452 -1.2128  0.8597 -1.3996
 5941TIP3   OH239457   4.100   6.601   0.813  0.0746 -0.2711  0.4749
 5941TIP3    H139458   4.065   6.646   0.736 -0.0296  0.8379  1.1514
 5941TIP3    H239459   4.195   6.614   0.807  0.0925 -0.4501  0.3695
 5942TIP3   OH239460   6.082   6.843   0.477 -0.2164 -0.3304  0.7655
 5942TIP3    H139461   6.123   6.848   0.563 -1.8893  0.4034  1.5578
 5942TIP3    H239462   6.020   6.771   0.484  2.2174 -2.8475 -1.0701
 5943TIP3   OH239463   4.202   0.109   0.201 -0.0838 -0.0714 -0.0843
 5943TIP3    H139464   4.137   0.137   0.265  1.8508 -0.9557  2.3831
 5943TIP3    H239465   4.238   0.028   0.237  1.2438 -0.5010 -2.2089
 5944TIP3   OH239466   4.132   3.168   2.291  0.1208  0.0206 -0.3916
 5944TIP3    H139467   4.216   3.211   2.299 -0.2054  0.6420 -0.2755
 5944TIP3    H239468   4.138   3.091   2.348  0.5502  0.1498 -0.2656
 5945TIP3   OH239469   6.101   6.524   6.411 -0.5441 -0.1278  0.2043
 5945TIP3    H139470   6.093   6.436   6.448  1.0996 -1.7147 -2.7698
 5945TIP3    H239471   6.071   6.515   6.321 -0.6981  2.5021 -0.0856
 5946TIP3   OH239472   1.380   3.816   2.306  0.2021  0.4184  0.3403
 5946TIP3    H139473   1.294   3.856   2.292  0.8220  1.8273  0.3398
 5946TIP3    H239474   1.381   3.739   2.250 -0.1501  1.7603 -1.6173
 5947TIP3   OH239475   5.761   2.986   6.890 -0.0963 -0.6462 -0.4715
 5947TIP3    H139476   5.824   2.944   6.831  1.6981  1.3823 -0.0942
 5947TIP3    H239477   5.789   3.077   6.896 -2.4693  0.1064  0.5802
 5948TIP3   OH239478   5.655   6.171   0.245 -0.0844  0.0915  0.1362
 5948TIP3    H139479   5.647   6.147   0.337  0.3277 -0.1892  0.1003
 5948TIP3    H239480   5.749   6.184   0.231 -0.1183 -0.0922 -0.2997
 5949TIP3   OH239481   1.041   1.599   5.899 -0.2210  0.5472 -0.1178
 5949TIP3    H139482   1.003   1.530   5.953  0.2033  0.5969  0.2466
 5949TIP3    H239483   1.036   1.566   5.809  1.9929 -0.9391  0.2298
 5950TIP3   OH239484   4.744   6.831   0.709  0.5328 -0.0618 -0.3718
 5950TIP3    H139485   4.756   6.819   0.804 -2.9416 -0.2525  0.1518
 5950TIP3    H239486   4.746   6.742   0.674  1.1319 -0.0417 -0.4020
 5951TIP3   OH239487   5.596   2.824   7.795  0.1961 -0.1990  0.0119
 5951TIP3    H139488   5.588   2.773   7.875  2.6826 -0.1500  0.3889
 5951TIP3    H239489   5.690   2.825   7.777  0.0684  2.6246 -1.0321
 5952TIP3   OH239490   6.697   1.291   6.830 -0.4281  0.6068  0.7549
 5952TIP3    H139491   6.752   1.363   6.799 -0.5958  0.9126  1.1491
 5952TIP3    H239492   6.703   1.297   6.926 -1.9425  1.2701  0.8286
 5953TIP3   OH239493   3.880   3.592   2.438 -0.0502 -0.1365 -0.1167
 5953TIP3    H139494   3.900   3.510   2.393 -1.9170 -0.9205  0.3748
 5953TIP3    H239495   3.797   3.621   2.400 -0.5181  0.3616  1.2173
 5954TIP3   OH239496   6.924   4.952   0.633  0.6816  0.2212  1.0057
 5954TIP3    H139497   6.895   4.899   0.707 -0.6940  2.8718  2.5502
 5954TIP3    H239498   6.874   5.034   0.642  1.5073  1.1836 -2.0883
 5955TIP3   OH239499   5.430   6.550   7.886 -0.1317 -0.1487 -0.3767
 5955TIP3    H139500   5.419   6.644   7.872 -0.1495  0.0048  0.5928
 5955TIP3    H239501   5.507   6.543   7.943 -0.6498 -0.6642  0.2759
 5956TIP3   OH239502   0.448   1.190   0.129 -0.1405 -0.2975 -0.5640
 5956TIP3    H139503   0.434   1.254   0.060  1.4887 -0.5121 -1.1482
 5956TIP3    H239504   0.491   1.240   0.199 -1.2240 -0.2125  0.0534
 5957TIP3   OH239505   0.863   5.906   5.858 -0.1257  0.2881  0.3748
 5957TIP3    H139506   0.846   5.930   5.949 -1.7376  1.1260 -0.0978
 5957TIP3    H239507   0.884   5.989   5.815  1.0790 -0.1630  0.0563
 5958TIP3   OH239508   5.646   1.099   0.809 -0.3641  0.0442  0.4142
 5958TIP3    H139509   5.672   1.076   0.898 -0.2139  0.8440  0.5770
 5958TIP3    H239510   5.645   1.015   0.762 -1.5829 -0.5552  1.4460
 5959TIP3   OH239511   2.805   2.963   6.050 -0.1549 -0.4160  0.1812
 5959TIP3    H139512   2.737   2.979   5.985 -0.6150 -0.3968  0.6612
 5959TIP3    H239513   2.761   2.977   6.134  1.1691  2.6125  0.4953
 5960TIP3   OH239514   3.467   5.327   0.169  0.0206  0.3565  0.6727
 5960TIP3    H139515   3.421   5.271   0.107 -0.8902 -0.7287  2.2697
 5960TIP3    H239516   3.504   5.398   0.115  0.3187 -1.1927 -1.2469
 5961TIP3   OH239517   4.404   6.944   6.584  0.0414 -0.8958 -0.2034
 5961TIP3    H139518   4.439   6.909   6.502  0.7869 -1.5434  0.3732
 5961TIP3    H239519   4.463   7.016   6.606 -0.7193 -0.1031 -0.7136
 5962TIP3   OH239520   5.238   6.121   0.320 -0.0852  0.1295 -0.3816
 5962TIP3    H139521   5.306   6.096   0.382  0.8902  1.0392 -1.0496
 5962TIP3    H239522   5.246   6.057   0.249 -0.5635 -0.3293 -0.0294
 5963TIP3   OH239523   4.303   4.750   1.854 -0.7253  0.2058 -0.0423
 5963TIP3    H139524   4.225   4.774   1.904 -0.1170 -0.0895  1.0651
 5963TIP3    H239525   4.374   4.748   1.918 -0.2217 -1.8322 -0.5765
 5964TIP3   OH239526   6.063   5.492   1.943  0.5106 -0.4555 -0.5770
 5964TIP3    H139527   6.106   5.505   1.858 -0.6769  0.7080 -1.0283
 5964TIP3    H239528   5.997   5.425   1.927  0.8442 -0.8446 -0.3503
 5965TIP3   OH239529   6.074   0.755   0.653 -0.6857  0.0669 -0.4301
 5965TIP3    H139530   6.024   0.751   0.734 -1.2910  3.2508 -0.5301
 5965TIP3    H239531   6.144   0.817   0.671 -0.3297  0.2034 -2.1048
 5966TIP3   OH239532   2.696   1.425   6.791 -0.0743 -1.0218 -0.3586
 5966TIP3    H139533   2.714   1.347   6.739 -0.1283 -2.8976  2.1969
 5966TIP3    H239534   2.601   1.426   6.802 -0.0998 -0.4387 -0.5765
 5967TIP3   OH239535   1.577   1.711   1.391 -0.1993  0.2758  0.5034
 5967TIP3    H139536   1.605   1.637   1.338  0.3276 -0.5132  1.8157
 5967TIP3    H239537   1.611   1.788   1.346 -1.5487 -0.1764 -1.3800
 5968TIP3   OH239538   6.086   1.351   0.898  0.3376 -0.0361  0.1029
 5968TIP3    H139539   6.131   1.371   0.980  2.0143 -0.2481 -0.7171
 5968TIP3    H239540   5.994   1.343   0.922  0.5785  1.4213  1.6905
 5969TIP3   OH239541   7.108   3.435   6.627 -0.4029 -0.8011 -0.1696
 5969TIP3    H139542   7.042   3.412   6.562 -3.0502  1.7942  1.3564
 5969TIP3    H239543   7.132   3.352   6.667 -3.2233 -1.8420 -0.4200
 5970TIP3   OH239544   4.728   0.104   6.690  0.2145 -0.1315  0.0388
 5970TIP3    H139545   4.677   0.029   6.719  1.6188 -0.2918  2.3553
 5970TIP3    H239546   4.810   0.066   6.658 -0.3656  0.2328 -1.9794
 5971TIP3   OH239547   4.573   5.064   0.353  0.0620 -0.5579  0.1621
 5971TIP3    H139548   4.528   5.124   0.413  0.6577 -1.6759  1.8177
 5971TIP3    H239549   4.665   5.090   0.357  0.1781 -0.9524  0.1464
 5972TIP3   OH239550   0.699   6.852   0.605  0.5645 -0.0962 -0.0998
 5972TIP3    H139551   0.614   6.887   0.631 -0.3443 -2.9807  1.3185
 5972TIP3    H239552   0.721   6.898   0.524 -1.8510  1.4439  0.0180
 5973TIP3   OH239553   1.700   5.529   7.863 -0.0693 -0.2118 -0.5206
 5973TIP3    H139554   1.676   5.571   7.780 -0.9619 -2.0194 -1.2345
 5973TIP3    H239555   1.784   5.487   7.845  0.3107  0.3849 -0.1392
 5974TIP3   OH239556   0.743   4.910   1.651 -0.2073  0.0283  0.2991
 5974TIP3    H139557   0.741   4.832   1.707  1.3923  0.3556  0.8556
 5974TIP3    H239558   0.804   4.887   1.581  1.0842  1.1219  1.0332
 5975TIP3   OH239559   0.895   3.334   0.833  0.1982 -0.0884  0.5977
 5975TIP3    H139560   0.921   3.246   0.804 -1.8605 -0.6109  0.1255
 5975TIP3    H239561   0.918   3.391   0.759  1.6718 -0.1907  0.9623
 5976TIP3   OH239562   2.458   7.021   6.806 -0.1803  0.0048  0.1404
 5976TIP3    H139563   2.427   7.053   6.721  2.0902 -0.4284 -0.9439
 5976TIP3    H239564   2.392   6.958   6.834  0.2053 -1.7844 -2.6012
 5977TIP3   OH239565   5.956   2.806   7.458  0.2303 -0.3876  0.2005
 5977TIP3    H139566   5.874   2.853   7.467  0.2908 -0.3269  0.4452
 5977TIP3    H239567   6.017   2.870   7.422  0.4718 -0.0983  1.0988
 5978TIP3   OH239568   6.244   5.118   1.359 -0.5572  0.6309 -0.2643
 5978TIP3    H139569   6.233   5.211   1.381 -0.0130  0.5222  0.4894
 5978TIP3    H239570   6.338   5.104   1.361 -0.6271  0.0959 -0.5375
 5979TIP3   OH239571   4.938   2.054   0.526 -0.3689 -0.3646  0.4917
 5979TIP3    H139572   5.032   2.039   0.514 -0.2372  0.3513  0.5584
 5979TIP3    H239573   4.914   1.999   0.601 -0.3208 -1.6647 -0.4167
 5980TIP3   OH239574   2.706   2.635   0.761 -0.6647 -0.2830 -0.3334
 5980TIP3    H139575   2.798   2.611   0.772 -0.6671 -0.0399  0.2695
 5980TIP3    H239576   2.707   2.731   0.762 -1.0169 -0.2804  0.5592
 5981TIP3   OH239577   6.070   2.672   1.138 -0.1119 -0.3068  0.4076
 5981TIP3    H139578   6.096   2.584   1.165 -0.8284 -0.8500 -0.6203
 5981TIP3    H239579   6.046   2.663   1.046  1.0147  1.2202 -0.0921
 5982TIP3   OH239580   3.692   0.210   1.399 -0.0697 -0.1886 -0.2941
 5982TIP3    H139581   3.682   0.133   1.453 -2.7898 -0.4067 -0.9656
 5982TIP3    H239582   3.720   0.279   1.459 -0.0392 -1.1322  0.7899
 5983TIP3   OH239583   5.589   2.379   1.978  0.0542  0.3403  0.1204
 5983TIP3    H139584   5.497   2.402   1.961  0.3131  0.2430 -1.5344
 5983TIP3    H239585   5.591   2.283   1.971  0.3729  0.3804 -0.3885
 5984TIP3   OH239586   2.846   3.249   0.417 -0.2369  0.2115  0.2379
 5984TIP3    H139587   2.860   3.155   0.407 -1.1457 -0.1416  1.8809
 5984TIP3    H239588   2.797   3.274   0.339  0.4381 -0.5711 -0.4566
 5985TIP3   OH239589   2.445   5.804   5.993  0.6129 -0.2296 -0.1782
 5985TIP3    H139590   2.473   5.892   6.019 -0.2139  0.0357 -0.1586
 5985TIP3    H239591   2.526   5.760   5.968  1.1484  0.2469  0.6681
 5986TIP3   OH239592   2.747   5.341   0.236  0.2364  0.4948 -0.9323
 5986TIP3    H139593   2.732   5.295   0.319  2.1348  0.7211 -0.4256
 5986TIP3    H239594   2.841   5.336   0.223  0.0720  1.2955 -2.6190
 5987TIP3   OH239595   2.210   3.833   6.770 -0.0778  0.5598  0.0368
 5987TIP3    H139596   2.199   3.814   6.676  1.1501 -0.0736 -0.0013
 5987TIP3    H239597   2.286   3.780   6.796 -1.1596 -0.2572  1.6933
 5988TIP3   OH239598   3.044   4.145   7.497  0.3096  0.8411 -0.0326
 5988TIP3    H139599   3.074   4.080   7.560  3.0123  1.2728 -0.7401
 5988TIP3    H239600   3.119   4.159   7.439  0.0221  4.7963  0.2398
 5989TIP3   OH239601   4.626   2.566   7.255  0.2276  0.2825  0.9901
 5989TIP3    H139602   4.571   2.539   7.181 -1.2079  0.5135  1.9269
 5989TIP3    H239603   4.661   2.651   7.228  0.7132 -0.1891  0.0857
 5990TIP3   OH239604   3.885   2.529   1.845  0.4293 -0.0256 -0.1465
 5990TIP3    H139605   3.893   2.501   1.754 -1.6104 -0.9328 -0.0956
 5990TIP3    H239606   3.953   2.481   1.891  1.6330  0.6124 -1.2092
 5991TIP3   OH239607   1.656   3.107   1.347  0.3863  0.2633  0.4025
 5991TIP3    H139608   1.659   3.059   1.264  0.2440  0.4219  0.3028
 5991TIP3    H239609   1.726   3.172   1.339 -0.5217  1.2142 -0.1890
 5992TIP3   OH239610   6.290   6.464   7.750 -0.4383  0.4429  0.2531
 5992TIP3    H139611   6.367   6.493   7.799 -0.2866  0.1328  0.2016
 5992TIP3    H239612   6.324   6.439   7.664 -0.7261  1.1492 -0.0748
 5993TIP3   OH239613   3.616   0.935   6.701  0.6577  0.4602 -0.3663
 5993TIP3    H139614   3.604   1.013   6.647 -3.3309 -0.9565 -1.9431
 5993TIP3    H239615   3.663   0.874   6.644  0.8225  0.5774 -0.3586
 5994TIP3   OH239616   4.312   6.861   0.600  0.5905  0.3058  0.0667
 5994TIP3    H139617   4.319   6.925   0.670 -2.0636  0.7344  0.0429
 5994TIP3    H239618   4.379   6.887   0.537  0.9802  1.7703  1.0324
 5995TIP3   OH239619   6.681   3.380   6.590 -0.0543 -0.3418  0.3243
 5995TIP3    H139620   6.619   3.332   6.535 -0.4322 -0.3500  0.7587
 5995TIP3    H239621   6.761   3.386   6.536 -1.4893  2.7972 -1.7823
 5996TIP3   OH239622   3.532   5.341   1.757  0.0509  0.5262 -0.1767
 5996TIP3    H139623   3.556   5.391   1.835  2.7475  0.2615 -0.7374
 5996TIP3    H239624   3.453   5.384   1.724 -0.1839  1.6887  1.7235
 5997TIP3   OH239625   7.102   0.063   1.943 -0.6522  0.3678 -0.2168
 5997TIP3    H139626   7.192   0.091   1.925  0.0952 -0.7587  1.5357
 5997TIP3    H239627   7.095  -0.024   1.904 -0.9511  0.4050 -0.2525
 5998TIP3   OH239628   0.265   2.969   7.516 -0.2057  0.5238  0.4858
 5998TIP3    H139629   0.263   3.053   7.563 -0.7003  2.1606 -2.2161
 5998TIP3    H239630   0.235   2.991   7.427  0.8837 -2.3057 -0.6947
 5999TIP3   OH239631   2.390   4.581   7.296 -0.0653 -0.0552  0.3592
 5999TIP3    H139632   2.303   4.611   7.322 -0.0329 -0.1279  0.5535
 5999TIP3    H239633   2.391   4.488   7.320 -0.4679 -0.4407 -0.9943
 6000TIP3   OH239634   5.076   1.536   6.059  0.2245  1.0041 -0.2014
 6000TIP3    H139635   5.096   1.629   6.065  1.6970  0.5994  2.6693
 6000TIP3    H239636   5.025   1.516   6.138  0.7345 -0.7938 -0.2691
 6001TIP3   OH239637   4.749   6.619   7.558  0.4491 -0.0241  0.4415
 6001TIP3    H139638   4.762   6.525   7.546  0.8581 -0.0798  1.2391
 6001TIP3    H239639   4.790   6.638   7.642 -0.0845  0.7753  0.5339
 6002TIP3   OH239640   2.563   5.992   7.588 -0.3620 -0.3022  0.0833
 6002TIP3    H139641   2.578   5.945   7.506 -2.4603 -1.4244  0.2661
 6002TIP3    H239642   2.475   5.966   7.615  0.6831 -1.0049  3.3674
 6003TIP3   OH239643   5.509   1.349   1.464  0.1007  0.1832  0.0461
 6003TIP3    H139644   5.594   1.305   1.467 -0.2063 -0.6302 -1.7824
 6003TIP3    H239645   5.445   1.278   1.454 -0.5133  0.9213 -1.6524
 6004TIP3   OH239646   4.264   4.430   6.706  0.2914  0.2594 -0.2572
 6004TIP3    H139647   4.175   4.396   6.716  0.0005  0.7358 -1.1079
 6004TIP3    H239648   4.283   4.420   6.613  0.7733  1.0308 -0.2500
 6005TIP3   OH239649   0.732   7.197   6.356  0.4585  0.7363  0.4422
 6005TIP3    H139650   0.661   7.232   6.302 -1.4255  0.0565  2.3613
 6005TIP3    H239651   0.799   7.265   6.354 -0.1313  1.3420 -1.5457
 6006TIP3   OH239652   4.137   2.048   6.520  0.1667  0.2151  0.1093
 6006TIP3    H139653   4.120   2.068   6.428  2.0527  1.0708 -0.0831
 6006TIP3    H239654   4.187   1.967   6.519  1.2046  0.8339  0.2822
 6007TIP3   OH239655   4.863   5.894   1.087  0.5644 -0.0903  0.4787
 6007TIP3    H139656   4.915   5.820   1.116 -1.9545 -2.9000 -1.5156
 6007TIP3    H239657   4.883   5.903   0.994 -0.4271  0.5902  0.3049
 6008TIP3   OH239658   5.512   5.079   0.081  0.1254  0.1780  0.4110
 6008TIP3    H139659   5.601   5.046   0.081  0.0532 -0.0299  0.7699
 6008TIP3    H239660   5.458   5.002   0.060 -0.1703 -0.3516  2.7841
 6009TIP3   OH239661   4.493   2.740   6.271  0.0082  0.1893  0.3044
 6009TIP3    H139662   4.499   2.818   6.327  2.7490  1.2348 -1.2341
 6009TIP3    H239663   4.420   2.759   6.211  0.5320  1.5516  0.0518
 6010TIP3   OH239664   5.143   1.322   0.408 -0.2501  0.4886 -0.5673
 6010TIP3    H139665   5.089   1.283   0.339 -0.9578  0.6999 -0.1413
 6010TIP3    H239666   5.080   1.366   0.465  0.2444 -0.3319  0.6443
 6011TIP3   OH239667   0.202   0.325   7.946 -0.3800  0.0793  0.3557
 6011TIP3    H139668   0.118   0.309   7.903 -0.6483  0.2215  0.8218
 6011TIP3    H239669   0.232   0.238   7.972 -0.8672  0.1172  1.0787
 6012TIP3   OH239670   5.905   1.020   1.460  0.5635 -0.2612  0.2125
 6012TIP3    H139671   5.854   0.954   1.413 -0.5962 -0.9908  2.3605
 6012TIP3    H239672   5.846   1.095   1.466  0.4978 -0.3645  0.9224
 6013TIP3   OH239673   3.477   6.994   6.441  0.6497  0.2591 -0.1762
 6013TIP3    H139674   3.458   7.081   6.477  0.7655  0.1188  0.2334
 6013TIP3    H239675   3.546   7.009   6.376  0.7390  0.4597 -0.0370
 6014TIP3   OH239676   0.163   0.477   1.688  0.0299  0.3439  0.1182
 6014TIP3    H139677   0.204   0.539   1.629  0.6376 -1.6635 -1.7161
 6014TIP3    H239678   0.148   0.526   1.769 -1.8103  3.5367 -1.9618
 6015TIP3   OH239679   1.767   0.714   1.487 -0.8759  0.7293 -0.3536
 6015TIP3    H139680   1.832   0.741   1.421 -0.7278 -0.3255 -0.6680
 6015TIP3    H239681   1.784   0.621   1.500 -2.2648  0.4455 -0.3728
 6016TIP3   OH239682   3.266   0.535   0.061  0.2277 -0.0297  0.1936
 6016TIP3    H139683   3.336   0.499   0.007  0.9488  0.6739  0.6507
 6016TIP3    H239684   3.186   0.512   0.014  0.7953 -0.1773 -0.7218
 6017TIP3   OH239685   3.987   2.646   0.697 -0.0319  0.3069 -0.4021
 6017TIP3    H139686   3.984   2.556   0.729  0.6258  0.2905 -0.3682
 6017TIP3    H239687   3.932   2.695   0.758  0.9753  0.2224  0.5972
 6018TIP3   OH239688   4.904   6.922   6.587 -0.2271 -0.2088  0.0716
 6018TIP3    H139689   4.931   6.875   6.509 -0.3331 -1.3817  0.7134
 6018TIP3    H239690   4.959   6.887   6.657 -0.9342 -0.0389  0.7304
 6019TIP3   OH239691   3.207   3.815   1.479  0.3579 -0.3396 -0.1213
 6019TIP3    H139692   3.252   3.785   1.558  0.1388 -0.2933  0.0219
 6019TIP3    H239693   3.125   3.765   1.478  0.1132  0.0562 -0.0273
 6020TIP3   OH239694   6.675   1.416   0.039  0.5144  0.1363  0.3963
 6020TIP3    H139695   6.594   1.461   0.064  0.1393  0.2433 -0.9263
 6020TIP3    H239696   6.712   1.471  -0.030  2.1651  0.5268  1.5328
 6021TIP3   OH239697   0.741   4.718   0.283 -0.1448  0.2508 -0.1629
 6021TIP3    H139698   0.814   4.702   0.224 -0.9709 -1.2875 -0.8135
 6021TIP3    H239699   0.676   4.764   0.230 -0.3170  0.1172 -0.0709
 6022TIP3   OH239700   4.784   2.293   0.508 -0.1099  0.2618 -0.4079
 6022TIP3    H139701   4.859   2.330   0.554 -0.5090 -0.7458  1.1333
 6022TIP3    H239702   4.807   2.201   0.494 -0.8316  0.0664 -0.3722
 6023TIP3   OH239703   4.300   6.536   6.892  0.2589  0.5750  0.1091
 6023TIP3    H139704   4.302   6.530   6.988 -1.8377  0.9248  0.2220
 6023TIP3    H239705   4.332   6.624   6.873 -1.4841  1.3814  0.6846
 6024TIP3   OH239706   6.789   1.391   0.320 -0.4105  0.7661  0.0408
 6024TIP3    H139707   6.745   1.387   0.236  0.2497 -2.3763 -0.2562
 6024TIP3    H239708   6.720   1.375   0.384 -0.2257 -1.5203 -0.2618
 6025TIP3   OH239709   0.439   2.759   7.861  0.4887 -0.0603 -0.0776
 6025TIP3    H139710   0.462   2.792   7.773 -2.6602 -0.6440 -1.2352
 6025TIP3    H239711   0.371   2.819   7.892  0.2297 -0.9602  1.1557
 6026TIP3   OH239712   7.015   5.168   6.648 -0.2139  0.1856 -1.0296
 6026TIP3    H139713   7.028   5.108   6.575  1.1613  0.6385 -1.1807
 6026TIP3    H239714   7.103   5.191   6.676 -0.7139 -0.1669  0.9444
 6027TIP3   OH239715   3.849   6.459   7.610  0.6710 -0.2501 -0.0769
 6027TIP3    H139716   3.818   6.393   7.549  1.1782 -0.3141 -0.2707
 6027TIP3    H239717   3.825   6.542   7.570 -3.8298 -0.2180  2.1119
 6028TIP3   OH239718   0.866   1.013   0.205  0.2092  0.1234 -0.9388
 6028TIP3    H139719   0.943   0.962   0.181  0.1405 -1.2819  1.4357
 6028TIP3    H239720   0.898   1.072   0.274 -0.2436  1.6568 -1.9960
 6029TIP3   OH239721   5.821   6.068   7.976  0.4711 -0.8241  0.2522
 6029TIP3    H139722   5.897   6.095   7.926  0.4484 -0.5751  0.3528
 6029TIP3    H239723   5.823   5.972   7.972  0.6792 -0.8139  0.0927
 6030TIP3   OH239724   2.900   5.776   0.800  0.2772 -0.2442  0.5039
 6030TIP3    H139725   2.825   5.835   0.792 -0.4047 -1.0525  0.7683
 6030TIP3    H239726   2.861   5.688   0.799  1.2668 -0.6915  0.1610
 6031TIP3   OH239727   1.473   1.419   0.710  0.4309 -0.2475 -0.4756
 6031TIP3    H139728   1.481   1.347   0.772  0.5212  2.6898  3.3447
 6031TIP3    H239729   1.563   1.438   0.683  0.6400 -0.3226  0.1462
 6032TIP3   OH239730   1.080   1.352   1.323 -0.0790  0.2515  0.3090
 6032TIP3    H139731   1.007   1.412   1.331 -0.1029  0.3694 -0.6128
 6032TIP3    H239732   1.150   1.391   1.375 -0.1194  1.0344 -0.2145
 6033TIP3   OH239733   0.061   5.142   1.814 -0.6143  0.5408  0.3946
 6033TIP3    H139734   0.093   5.066   1.863 -2.6340 -1.2278 -0.8739
 6033TIP3    H239735   0.122   5.213   1.837  0.1708 -0.9142  3.1644
 6034TIP3   OH239736   2.480   6.928   6.343  0.6026  0.1914  0.0192
 6034TIP3    H139737   2.409   6.956   6.285  0.7927  0.4070 -0.1141
 6034TIP3    H239738   2.484   6.833   6.334  0.7423  0.2417 -0.4517
 6035TIP3   OH239739   2.509   2.833   1.304 -0.6754 -0.1637  0.2237
 6035TIP3    H139740   2.556   2.750   1.295 -0.3990  0.1019 -0.8887
 6035TIP3    H239741   2.509   2.870   1.216 -1.6937  0.5352  0.5044
 6036TIP3   OH239742   0.275   4.064   0.202  0.1531 -0.2563 -0.1583
 6036TIP3    H139743   0.341   4.032   0.263  0.1033  2.8112  1.6723
 6036TIP3    H239744   0.311   4.145   0.166 -1.2790 -0.2046 -1.6209
 6037TIP3   OH239745   2.868   0.879   1.433 -0.8238  0.1472 -0.6236
 6037TIP3    H139746   2.857   0.957   1.378  1.2310 -0.2215 -1.6692
 6037TIP3    H239747   2.924   0.821   1.382  1.1424 -0.2530  1.7844
 6038TIP3   OH239748   1.850   4.782   1.356 -0.3082 -0.3125 -0.2721
 6038TIP3    H139749   1.920   4.845   1.341  1.3856 -0.9136  3.8203
 6038TIP3    H239750   1.771   4.836   1.365  0.9203  1.2612  2.1024
 6039TIP3   OH239751   1.629   3.739   0.140 -0.1935  0.2150  0.0073
 6039TIP3    H139752   1.586   3.824   0.132  1.2229  0.9567 -0.0112
 6039TIP3    H239753   1.562   3.676   0.112 -1.9096  1.1199  1.8419
 6040TIP3   OH239754   0.880   2.773   7.506  0.1596  0.1900 -0.5589
 6040TIP3    H139755   0.937   2.699   7.523 -0.8112 -0.1946  1.3036
 6040TIP3    H239756   0.843   2.795   7.592 -1.2036  1.4528 -1.4204
 6041TIP3   OH239757   4.549   3.680   6.649  0.2058  0.4539 -0.6149
 6041TIP3    H139758   4.494   3.724   6.713 -0.3017 -1.4624  0.3268
 6041TIP3    H239759   4.490   3.658   6.577  0.0153 -0.4292 -0.1955
 6042TIP3   OH239760   4.628   6.430   1.027 -0.2597  0.0545  0.5751
 6042TIP3    H139761   4.630   6.424   1.123  0.7588 -0.1439  0.5543
 6042TIP3    H239762   4.710   6.475   1.004  0.8722 -2.2694 -0.3357
 6043TIP3   OH239763   4.640   3.701   1.663 -0.0428 -0.0794  0.0745
 6043TIP3    H139764   4.575   3.770   1.648 -0.2503  0.3394  2.5145
 6043TIP3    H239765   4.603   3.648   1.733  1.6322 -0.6591  0.5703
 6044TIP3   OH239766   4.636   4.525   2.139  0.1542 -0.5477  0.0877
 6044TIP3    H139767   4.542   4.530   2.152  0.2937  1.2561  0.7186
 6044TIP3    H239768   4.659   4.607   2.096  1.4393 -0.9488 -0.0342
 6045TIP3   OH239769   3.820   5.087   1.980 -0.4832  0.0615 -0.1131
 6045TIP3    H139770   3.818   5.019   2.047  0.7202  0.2872  0.1556
 6045TIP3    H239771   3.783   5.164   2.022 -1.4660 -0.2943 -0.2937
 6046TIP3   OH239772   3.073   3.275   6.693 -0.3103 -0.5121 -0.2535
 6046TIP3    H139773   3.052   3.230   6.774 -0.2054 -1.9869 -1.0079
 6046TIP3    H239774   3.139   3.220   6.651  1.0891  1.2486 -0.4378
 6047TIP3   OH239775   0.799   4.865   6.472 -0.4925 -0.4259  0.3125
 6047TIP3    H139776   0.862   4.820   6.529 -0.7833 -1.9888 -0.5408
 6047TIP3    H239777   0.750   4.795   6.430 -1.7220  0.7329 -0.2762
 6048TIP3   OH239778   3.745   6.353   1.751 -0.1110  0.5058  0.2777
 6048TIP3    H139779   3.815   6.385   1.808 -0.6457 -0.6346  1.6425
 6048TIP3    H239780   3.683   6.313   1.811 -0.8340 -0.5007 -1.1079
 6049TIP3   OH239781   7.173   3.626   0.114  0.3424 -0.5315 -0.7157
 6049TIP3    H139782   7.087   3.600   0.082  0.2384  1.7097 -2.5038
 6049TIP3    H239783   7.162   3.718   0.140  2.0371 -0.4054 -0.3341
 6050TIP3   OH239784   5.032   6.575   1.886 -0.1695  0.0644 -0.1409
 6050TIP3    H139785   4.978   6.520   1.829 -1.0141  1.2506 -0.5113
 6050TIP3    H239786   5.122   6.546   1.869 -0.4070  0.3700 -2.0449
 6051TIP3   OH239787   2.818   1.120   7.974 -0.5972  0.6478 -0.2617
 6051TIP3    H139788   2.790   1.194   8.028 -0.4194  0.7252 -0.2746
 6051TIP3    H239789   2.742   1.099   7.920 -1.3628 -0.5316  1.2077
 6052TIP3   OH239790   6.166   6.216   7.328 -0.2106 -0.1374 -0.4316
 6052TIP3    H139791   6.149   6.187   7.417  0.1738 -0.2836 -0.4028
 6052TIP3    H239792   6.205   6.303   7.338 -1.1944  0.3283 -0.5103
 6053TIP3   OH239793   5.633   5.243   6.103  0.5205  0.3897 -0.3179
 6053TIP3    H139794   5.588   5.159   6.102  1.2876 -0.0223 -0.7009
 6053TIP3    H239795   5.702   5.235   6.037  1.0402  1.0709  0.1239
 6054TIP3   OH239796   0.713   2.409   6.015  0.2132 -0.1684 -0.0235
 6054TIP3    H139797   0.785   2.417   5.952 -1.0707  0.9659 -1.4366
 6054TIP3    H239798   0.750   2.437   6.098  1.6027 -0.3660 -0.5493
 6055TIP3   OH239799   4.944   5.563   0.598 -0.1063 -0.3332 -0.4407
 6055TIP3    H139800   4.991   5.641   0.627 -1.2050  0.3999 -0.6005
 6055TIP3    H239801   4.973   5.550   0.508 -0.5011  0.3315 -0.6614
 6056TIP3   OH239802   6.977   4.431   1.741 -0.6670  0.1159 -0.2746
 6056TIP3    H139803   7.036   4.504   1.759 -2.9953  2.4132 -1.2370
 6056TIP3    H239804   6.992   4.410   1.649 -0.7434  0.1132 -0.2866
 6057TIP3   OH239805   4.815   2.529   6.077  0.0351  0.3012  0.7138
 6057TIP3    H139806   4.810   2.495   6.166  0.5801  1.2591  1.1206
 6057TIP3    H239807   4.852   2.457   6.026 -3.0919 -1.3875  0.6140
 6058TIP3   OH239808   2.789   4.984   0.663  0.2642 -0.2498  0.5719
 6058TIP3    H139809   2.879   5.014   0.671  0.7506 -1.6141  0.5758
 6058TIP3    H239810   2.745   5.017   0.741  0.5957  0.9358  0.2684
 6059TIP3   OH239811   6.666   1.400   7.383 -0.3976  0.1625  0.1429
 6059TIP3    H139812   6.661   1.316   7.428  2.3678 -1.1230 -1.7190
 6059TIP3    H239813   6.741   1.444   7.423  0.3448  0.1930 -1.2471
 6060TIP3   OH239814   6.989   5.361   2.136  0.1124  0.2470 -0.3021
 6060TIP3    H139815   7.021   5.324   2.054 -0.1042 -0.2371 -0.1731
 6060TIP3    H239816   7.059   5.419   2.165  0.0620  0.6712 -0.9858
 6061TIP3   OH239817   6.380   6.618   6.422  0.5958  0.3001 -0.3154
 6061TIP3    H139818   6.400   6.643   6.332 -0.8623 -0.3624 -0.8450
 6061TIP3    H239819   6.299   6.567   6.416 -0.1992  1.2623  1.5127
 6062TIP3   OH239820   5.324   3.353   0.117 -0.5172  0.3196  0.3861
 6062TIP3    H139821   5.246   3.365   0.171  0.0393  2.2828  0.8453
 6062TIP3    H239822   5.291   3.349   0.027 -1.1719  0.7807  0.6005
 6063TIP3   OH239823   2.743   0.804   6.902  0.1322  0.6562 -0.3355
 6063TIP3    H139824   2.785   0.718   6.903 -0.8675  0.1521  0.1326
 6063TIP3    H239825   2.692   0.807   6.983  2.5673  2.9552  1.3004
 6064TIP3   OH239826   1.334   3.161   7.082 -0.0008  0.0344 -0.1653
 6064TIP3    H139827   1.311   3.073   7.110  1.4445 -0.2013  0.3501
 6064TIP3    H239828   1.322   3.160   6.987 -0.6220 -0.5064 -0.0867
 6065TIP3   OH239829   0.574   3.571   0.196  0.0214 -0.0093  0.3274
 6065TIP3    H139830   0.652   3.567   0.253  0.9415 -0.6213 -0.9318
 6065TIP3    H239831   0.604   3.616   0.117 -0.8483 -0.4607 -0.2762
 6066TIP3   OH239832   7.158   5.579   7.018  0.6768 -0.2759  0.0538
 6066TIP3    H139833   7.104   5.538   6.950  1.3668 -0.5362 -0.3422
 6066TIP3    H239834   7.145   5.523   7.095 -1.4256  0.9507  0.6611
 6067TIP3   OH239835   7.146   2.033   1.004  0.2890  0.0463  0.2800
 6067TIP3    H139836   7.069   2.025   1.061  0.2993 -2.1764  0.0662
 6067TIP3    H239837   7.139   2.121   0.966 -2.2847 -0.1540  0.1124
 6068TIP3   OH239838   6.578   4.909   7.691  0.2586 -1.3356 -0.6938
 6068TIP3    H139839   6.514   4.943   7.753 -1.0307 -1.8109 -1.7171
 6068TIP3    H239840   6.596   4.983   7.633  0.9765 -1.0816 -0.1656
 6069TIP3   OH239841   0.261   5.891   6.757  0.1639  0.2561  0.0003
 6069TIP3    H139842   0.217   5.975   6.744 -1.9513 -0.5948  1.1959
 6069TIP3    H239843   0.225   5.857   6.839  0.9435 -1.8208 -0.4559
 6070TIP3   OH239844   1.182   5.790   0.146  0.4271 -0.3597  0.1674
 6070TIP3    H139845   1.233   5.804   0.225 -0.2772 -2.1637  0.9832
 6070TIP3    H239846   1.096   5.762   0.177 -0.4722  0.7071 -1.2174
 6071TIP3   OH239847   2.832   2.377   7.671 -0.0479  0.0333 -0.2984
 6071TIP3    H139848   2.882   2.296   7.663 -1.3621 -0.7923 -0.4736
 6071TIP3    H239849   2.856   2.428   7.593  0.4299 -0.3879 -0.4322
 6072TIP3   OH239850   4.961   3.032   7.153  0.2570  0.5250 -0.3156
 6072TIP3    H139851   4.900   3.101   7.178  0.1331  0.1095  0.5574
 6072TIP3    H239852   4.908   2.952   7.155  0.5383  0.3235 -0.7610
 6073TIP3   OH239853   3.004   6.147   7.747  0.0964  0.9069 -0.2343
 6073TIP3    H139854   2.932   6.188   7.796  0.2186  0.3222  0.4440
 6073TIP3    H239855   3.043   6.085   7.809 -0.2729 -0.4614 -1.3277
 6074TIP3   OH239856   6.020   2.629   1.980  0.0353  0.5227 -0.0912
 6074TIP3    H139857   6.002   2.618   1.886  3.1579 -1.0605 -0.6187
 6074TIP3    H239858   5.938   2.604   2.023 -0.4092 -2.3281 -2.2885
 6075TIP3   OH239859   4.848   3.444   1.116  0.7224 -0.0826  0.1827
 6075TIP3    H139860   4.910   3.371   1.124  0.2456 -0.8209 -2.2355
 6075TIP3    H239861   4.762   3.402   1.109  0.4257  0.6898 -1.0448
 6076TIP3   OH239862   0.936   6.387   0.882  0.4523 -0.0089  0.2188
 6076TIP3    H139863   0.893   6.451   0.826  2.9339  1.8031  0.2021
 6076TIP3    H239864   1.012   6.358   0.832 -0.3795 -2.8208  0.3757
 6077TIP3   OH239865   7.109   0.627   5.606 -0.1337 -0.2259 -0.6724
 6077TIP3    H139866   7.016   0.621   5.584 -0.3017 -0.7377  0.1468
 6077TIP3    H239867   7.135   0.537   5.625 -0.1696  0.2191  1.8026
 6078TIP3   OH239868   5.953   1.507   7.057  0.3026 -0.3476  0.3989
 6078TIP3    H139869   5.867   1.483   7.092  0.0902  1.6612  1.3822
 6078TIP3    H239870   5.991   1.564   7.123 -0.2175  3.8487 -2.5527
 6079TIP3   OH239871   5.234   4.982   1.552  0.0792  0.5692 -0.5071
 6079TIP3    H139872   5.233   5.071   1.517 -0.5344  1.0401  0.6643
 6079TIP3    H239873   5.249   4.993   1.646  0.2461 -0.5814 -0.3866
 6080TIP3   OH239874   5.313   4.243   6.365 -0.3842 -0.6372  0.3052
 6080TIP3    H139875   5.256   4.298   6.419 -0.0624  0.3959 -0.3666
 6080TIP3    H239876   5.377   4.304   6.327 -1.0831 -1.1526 -1.8829
 6081TIP3   OH239877   0.552   1.247   1.451  0.1023 -0.4242 -0.1201
 6081TIP3    H139878   0.533   1.153   1.454 -0.1838 -0.3713 -0.2331
 6081TIP3    H239879   0.546   1.276   1.542  0.9261 -0.6550  0.0172
 6082TIP3   OH239880   6.727   1.665   1.333 -0.8749 -0.9297 -0.4765
 6082TIP3    H139881   6.769   1.701   1.411 -2.6548  0.4375 -0.0577
 6082TIP3    H239882   6.798   1.628   1.281  0.4276 -1.3634  1.5176
 6083TIP3   OH239883   4.642   4.083   1.527 -0.2539  0.2331  0.1768
 6083TIP3    H139884   4.727   4.109   1.564  1.0092 -1.7005 -1.1132
 6083TIP3    H239885   4.630   3.993   1.557 -1.0178 -0.0757 -1.0023
 6084TIP3   OH239886   0.540   6.886   7.668  0.2916 -0.5285  0.2511
 6084TIP3    H139887   0.631   6.904   7.643 -0.1945 -0.0519 -1.2637
 6084TIP3    H239888   0.498   6.856   7.588 -1.2372  0.6236  0.5645
 6085TIP3   OH239889   1.111   4.513   7.692  0.4552 -0.0256 -0.5813
 6085TIP3    H139890   1.176   4.544   7.756  0.8663 -0.0744 -0.9672
 6085TIP3    H239891   1.154   4.440   7.648  0.4458  0.4582 -1.3949
 6086TIP3   OH239892   2.077   0.913   7.984 -0.4957  0.3322  0.5330
 6086TIP3    H139893   1.992   0.889   7.946  0.1494  0.6081 -1.1930
 6086TIP3    H239894   2.075   0.877   8.072 -1.0293 -2.9243 -0.6574
 6087TIP3   OH239895   1.031   0.866   7.852  0.1583 -0.3753  0.7430
 6087TIP3    H139896   0.962   0.916   7.809 -0.9885 -1.7721  0.8877
 6087TIP3    H239897   1.112   0.898   7.812 -0.6898  0.0156 -0.7455
 6088TIP3   OH239898   5.394   3.892   0.584 -0.6883 -0.5408  0.2065
 6088TIP3    H139899   5.394   3.962   0.649  0.1745 -0.0587 -0.2889
 6088TIP3    H239900   5.443   3.929   0.510 -1.1600 -1.2777 -0.4937
 6089TIP3   OH239901   0.027   5.047   7.949 -0.3839  0.3359  0.1814
 6089TIP3    H139902  -0.057   5.093   7.938  0.5738  1.9487 -0.7450
 6089TIP3    H239903   0.004   4.967   7.997 -2.1700  1.6455  1.6679
 6090TIP3   OH239904   6.227   3.378   6.278  0.2552 -0.1411 -0.1259
 6090TIP3    H139905   6.180   3.302   6.312  0.8900  0.4297  2.1810
 6090TIP3    H239906   6.304   3.341   6.235  0.0115 -0.8442  0.0254
 6091TIP3   OH239907   1.159   5.389   6.692  0.2187 -0.2885 -0.3399
 6091TIP3    H139908   1.153   5.304   6.735 -0.4634 -0.1636 -0.1747
 6091TIP3    H239909   1.153   5.369   6.598  0.8243 -0.4810 -0.3451
 6092TIP3   OH239910   0.448   7.176   7.518  0.1969 -0.1868  0.0311
 6092TIP3    H139911   0.499   7.216   7.448  0.8503 -0.7391  0.1801
 6092TIP3    H239912   0.382   7.123   7.472  0.5426 -0.4464 -0.1770
 6093TIP3   OH239913   6.381   4.620   1.024  0.1166 -0.4187  0.7232
 6093TIP3    H139914   6.410   4.660   1.106  1.3516  0.5356 -0.1468
 6093TIP3    H239915   6.291   4.653   1.013  0.7110  1.2864  0.5924
 6094TIP3   OH239916   5.619   2.336   1.636  0.2802 -0.0542 -0.4750
 6094TIP3    H139917   5.597   2.284   1.713 -0.8843 -1.1283 -1.4995
 6094TIP3    H239918   5.711   2.360   1.649  0.6831 -1.8831  0.3177
 6095TIP3   OH239919   3.420   2.066   7.047 -0.0661 -0.0684 -0.1097
 6095TIP3    H139920   3.428   2.161   7.043 -1.3726  0.0866  0.1937
 6095TIP3    H239921   3.509   2.034   7.056  0.3188  1.2014  0.9007
 6096TIP3   OH239922   3.839   5.247   0.523  0.1300 -0.3147  0.1896
 6096TIP3    H139923   3.838   5.185   0.450  0.7428  0.6102 -0.6476
 6096TIP3    H239924   3.766   5.221   0.578  0.5781 -1.9780  0.0587
 6097TIP3   OH239925   0.163   0.440   7.615  0.5847  0.1232 -0.3081
 6097TIP3    H139926   0.258   0.424   7.607  0.7639 -0.0337  1.5780
 6097TIP3    H239927   0.125   0.395   7.540  1.9772 -0.2020 -0.8536
 6098TIP3   OH239928   1.297   3.687   2.056  0.1732 -0.8866  0.3443
 6098TIP3    H139929   1.237   3.745   2.010 -1.9949 -1.2876  2.4355
 6098TIP3    H239930   1.342   3.638   1.987  0.5851  1.7473 -1.4076
 6099TIP3   OH239931   4.832   5.203   6.947 -0.1286  0.0757 -0.1480
 6099TIP3    H139932   4.825   5.255   6.866 -1.4214  1.5258  0.8323
 6099TIP3    H239933   4.741   5.186   6.972  0.2523 -2.4020 -0.2026
 6100TIP3   OH239934   4.054   5.735   6.516 -0.1793  0.2484  0.0927
 6100TIP3    H139935   4.109   5.662   6.488 -0.8672 -0.2642  0.0585
 6100TIP3    H239936   3.992   5.697   6.579  0.6687  1.1769  1.5597
 6101TIP3   OH239937   0.787   6.398   6.856 -0.3610  0.3459 -0.3039
 6101TIP3    H139938   0.707   6.351   6.882 -0.2226  1.0909  1.6882
 6101TIP3    H239939   0.760   6.452   6.781 -0.7582 -2.0972 -2.0200
 6102TIP3   OH239940   6.557   0.523   1.833  0.3966 -0.1822 -0.3154
 6102TIP3    H139941   6.465   0.531   1.856 -0.3823 -2.6786 -2.0964
 6102TIP3    H239942   6.604   0.530   1.916 -1.7050 -2.2986  1.1950
 6103TIP3   OH239943   3.889   5.611   1.096  0.4156 -0.4018  0.3854
 6103TIP3    H139944   3.922   5.616   1.007 -0.2016 -1.5357  0.0760
 6103TIP3    H239945   3.966   5.622   1.152  0.4300  3.9825 -0.1380
 6104TIP3   OH239946   0.376   1.369   7.303 -0.3349  0.2322  0.2876
 6104TIP3    H139947   0.393   1.308   7.375 -0.2727 -1.2910 -0.9570
 6104TIP3    H239948   0.312   1.323   7.248 -0.6394  1.5108 -0.4663
 6105TIP3   OH239949   1.952   3.603   0.764  0.0364  0.3685 -0.1674
 6105TIP3    H139950   2.023   3.589   0.701  1.1752  0.9742  0.9223
 6105TIP3    H239951   1.916   3.516   0.779  1.8745 -0.2923  0.7250
 6106TIP3   OH239952   6.874   1.948   1.414 -0.5196  0.0302 -0.5125
 6106TIP3    H139953   6.786   1.919   1.391 -0.6341 -0.0591  0.0118
 6106TIP3    H239954   6.894   1.901   1.495 -0.0177  0.1039 -0.5894
 6107TIP3   OH239955   0.426   2.038   1.423  0.0151 -0.4681  0.0689
 6107TIP3    H139956   0.404   2.073   1.336  1.8575 -1.0453 -0.7000
 6107TIP3    H239957   0.513   2.075   1.441 -0.1839 -0.6726  1.5028
 6108TIP3   OH239958   5.036   1.466   1.125 -0.1414 -0.5335  0.4123
 6108TIP3    H139959   5.058   1.373   1.127  2.3309 -0.0115  1.5182
 6108TIP3    H239960   5.120   1.510   1.117 -1.2114  1.6454  0.4757
 6109TIP3   OH239961   4.448   1.287   6.696  0.1576 -0.4974  0.1500
 6109TIP3    H139962   4.447   1.335   6.613 -0.2876  1.3371  1.1517
 6109TIP3    H239963   4.534   1.305   6.734  0.2890 -1.1626  0.1764
 6110TIP3   OH239964   0.260   6.350   1.222 -0.2881 -0.1339 -0.4604
 6110TIP3    H139965   0.269   6.353   1.317  2.7808  0.0600 -0.6379
 6110TIP3    H239966   0.287   6.438   1.193 -4.1299  0.9087 -1.4921
 6111TIP3   OH239967   7.151   0.229   6.639  0.7986  0.0720  0.3538
 6111TIP3    H139968   7.223   0.182   6.596 -0.3232 -1.1210 -0.2843
 6111TIP3    H239969   7.119   0.169   6.706  0.2464  0.4879  0.4738
 6112TIP3   OH239970   2.332   5.176   7.105 -0.2691 -0.3434  0.3068
 6112TIP3    H139971   2.259   5.221   7.064 -0.4437 -0.6123  0.3201
 6112TIP3    H239972   2.407   5.193   7.047 -0.6325 -1.1800 -0.4275
 6113TIP3   OH239973   5.726   7.077   0.490  0.0746  0.2404  0.5322
 6113TIP3    H139974   5.702   6.985   0.485  0.3233  0.1840  0.3553
 6113TIP3    H239975   5.642   7.123   0.497 -0.0385 -0.0111  0.8735
 6114TIP3   OH239976   1.574   0.090   6.816  0.2605  1.0394 -0.0592
 6114TIP3    H139977   1.596   0.118   6.727 -1.4011  1.8283 -0.2689
 6114TIP3    H239978   1.478   0.085   6.816  0.2416  0.8118  1.6274
 6115TIP3   OH239979   5.061   0.991   7.181  0.3999  0.1908  0.3772
 6115TIP3    H139980   5.155   0.975   7.173  0.1507 -1.1853  0.0495
 6115TIP3    H239981   5.039   0.964   7.270  0.4225  1.1309  0.6767
 6116TIP3   OH239982   6.416   3.110   0.259 -0.2602  0.1778 -0.3644
 6116TIP3    H139983   6.489   3.132   0.201 -1.1852 -0.2723 -1.7314
 6116TIP3    H239984   6.378   3.031   0.222 -1.4972  0.4422  0.2824
 6117TIP3   OH239985   1.643   1.491   1.220 -0.1487 -0.0011 -0.3740
 6117TIP3    H139986   1.655   1.417   1.160 -1.4812 -1.4980  1.0909
 6117TIP3    H239987   1.706   1.556   1.191 -0.3624 -0.8728 -3.0258
 6118TIP3   OH239988   5.891   2.714   0.410 -0.2924 -0.8199 -0.1897
 6118TIP3    H139989   5.819   2.684   0.467 -1.0503  0.8180 -0.2288
 6118TIP3    H239990   5.885   2.658   0.333 -0.9512 -1.3080  0.2021
 6119TIP3   OH239991   6.994   6.905   6.048  0.1482  0.3870  0.0238
 6119TIP3    H139992   6.943   6.908   6.129 -0.2290 -1.0790 -0.1338
 6119TIP3    H239993   6.975   6.819   6.010  4.4717 -1.3568  1.1102
 6120TIP3   OH239994   0.809   3.086   6.559  0.2735  0.0585  0.3652
 6120TIP3    H139995   0.852   3.008   6.592 -0.7152 -0.9661 -0.6609
 6120TIP3    H239996   0.867   3.120   6.491  1.0661  0.6721  1.3320
 6121TIP3   OH239997   0.276   0.117   0.110  0.5264 -0.3107  0.6984
 6121TIP3    H139998   0.297   0.175   0.183  0.1737  0.4680  0.1941
 6121TIP3    H239999   0.356   0.113   0.059  0.3788  0.2025  0.4223
 6122TIP3   OH240000   1.432   0.988   7.982  0.2625 -0.2585 -0.3411
 6122TIP3    H140001   1.407   0.977   8.074  2.6935 -0.9467  0.3147
 6122TIP3    H240002   1.379   1.062   7.952 -0.0513  0.4785  1.8380
 6123TIP3   OH240003   2.909   4.265   6.455  0.0299 -0.7115 -0.8155
 6123TIP3    H140004   2.996   4.303   6.439 -0.2444 -0.0584 -0.7837
 6123TIP3    H240005   2.882   4.302   6.539  1.4749 -4.1150  1.3730
 6124TIP3   OH240006   0.751   0.352   7.245 -0.6723  0.1777  0.1464
 6124TIP3    H140007   0.745   0.424   7.308  0.4868  1.7135 -1.3983
 6124TIP3    H240008   0.678   0.366   7.185  0.4010  1.0513 -1.0382
 6125TIP3   OH240009   3.997   4.277   6.116 -0.2783  0.2010 -0.2354
 6125TIP3    H140010   3.912   4.234   6.120 -1.1824  1.9699  0.1891
 6125TIP3    H240011   4.031   4.255   6.030 -0.7820 -1.1893 -0.1074
 6126TIP3   OH240012   2.268   0.594   7.216 -0.1021  0.2835  0.1852
 6126TIP3    H140013   2.219   0.578   7.136  0.3176 -0.2300  0.0245
 6126TIP3    H240014   2.345   0.538   7.209  1.6868  2.6782 -0.6034
 6127TIP3   OH240015   1.746   5.465   7.368  0.2081 -0.6677 -0.5209
 6127TIP3    H140016   1.740   5.514   7.286  2.3766 -3.0168 -2.2810
 6127TIP3    H240017   1.704   5.381   7.349 -1.8387 -0.2871  1.8149
 6128TIP3   OH240018   6.515   2.400   0.750  0.0566 -0.0822 -0.4650
 6128TIP3    H140019   6.446   2.451   0.792 -0.3084  0.8815 -2.1358
 6128TIP3    H240020   6.576   2.465   0.717  0.8226 -0.8521 -0.5908
 6129TIP3   OH240021   1.493   6.717   7.024 -0.1392 -0.3035 -0.5055
 6129TIP3    H140022   1.422   6.778   7.044 -1.6307 -2.0134 -0.3022
 6129TIP3    H240023   1.504   6.666   7.104  1.2502 -0.1744 -0.5901
 6130TIP3   OH240024   4.828   4.530   1.463 -0.1451  0.3417 -0.4082
 6130TIP3    H140025   4.899   4.567   1.515 -1.1126 -0.2198  1.3896
 6130TIP3    H240026   4.861   4.445   1.434  0.8440  1.1521 -1.7717
 6131TIP3   OH240027   7.127   4.349   7.119 -0.2871 -0.4863 -0.0736
 6131TIP3    H140028   7.155   4.283   7.182  1.6991  1.1528  0.8826
 6131TIP3    H240029   7.031   4.346   7.122 -0.2377 -1.8144  1.5623
 6132TIP3   OH240030   4.009   7.007   6.915 -0.2831 -0.2347  0.6735
 6132TIP3    H140031   4.031   7.044   6.830 -1.0455 -1.8154 -0.2671
 6132TIP3    H240032   4.004   7.082   6.974 -0.3634  0.9696 -0.8111
 6133TIP3   OH240033   2.028   5.955   0.427 -0.0223  0.0806  0.4196
 6133TIP3    H140034   2.103   5.978   0.372 -0.6693 -2.3173 -1.6152
 6133TIP3    H240035   1.969   6.030   0.418  1.3630  1.2509  0.6889
 6134TIP3   OH240036   6.831   2.294   1.285  0.1288  0.4420  0.1217
 6134TIP3    H140037   6.766   2.364   1.295 -0.4678 -0.1887  0.8419
 6134TIP3    H240038   6.857   2.273   1.375  0.5332 -0.0321 -0.1027
 6135TIP3   OH240039   6.460   6.088   7.883  0.3763  0.2858 -0.2685
 6135TIP3    H140040   6.556   6.097   7.888  0.1992  2.2342  0.3710
 6135TIP3    H240041   6.426   6.161   7.935 -1.4808 -0.5160 -0.2729
 6136TIP3   OH240042   3.498   4.190   1.005 -0.1259  0.6642  0.1038
 6136TIP3    H140043   3.543   4.107   0.986  1.6756  1.4723  0.6369
 6136TIP3    H240044   3.430   4.196   0.938  0.8516 -0.4115 -1.0523
 6137TIP3   OH240045   5.320   4.105   6.118 -0.5394  0.0418  0.0946
 6137TIP3    H140046   5.354   4.156   6.192 -1.9104  1.8707 -0.4451
 6137TIP3    H240047   5.244   4.059   6.154 -0.1905 -0.4364  0.2241
 6138TIP3   OH240048   0.557   6.434   2.107 -0.1113  0.2738  0.3617
 6138TIP3    H140049   0.463   6.436   2.127 -0.1704  1.0016  0.0298
 6138TIP3    H240050   0.574   6.344   2.081 -1.3934  0.7897 -2.6953
 6139TIP3   OH240051   2.304   6.842   0.072 -0.7548  0.7470 -0.1244
 6139TIP3    H140052   2.345   6.778   0.014 -2.1914  0.0008 -0.3645
 6139TIP3    H240053   2.375   6.874   0.127 -0.1088 -1.7660  0.6499
 6140TIP3   OH240054   6.623   0.202   0.659  0.5367  0.5529 -0.1883
 6140TIP3    H140055   6.571   0.125   0.682  1.1254  0.5467  1.1907
 6140TIP3    H240056   6.638   0.193   0.565 -0.2746 -0.4765 -0.2351
 6141TIP3   OH240057   4.821   1.098   0.558  0.1207  0.5899  0.2766
 6141TIP3    H140058   4.805   1.177   0.507  0.2259 -0.3189 -1.2416
 6141TIP3    H240059   4.734   1.070   0.587 -0.1146  0.3585 -0.6225
 6142TIP3   OH240060   1.068   5.103   2.010 -0.0276  0.0536 -0.0219
 6142TIP3    H140061   1.123   5.030   2.039  0.7255  0.1942 -1.0082
 6142TIP3    H240062   1.118   5.143   1.939 -0.2566  1.7704  0.7364
 6143TIP3   OH240063   0.045   3.200   7.548  0.3223 -0.3565 -0.3472
 6143TIP3    H140064   0.090   3.248   7.479  0.0409 -0.5906 -0.7014
 6143TIP3    H240065  -0.007   3.134   7.501 -0.2452 -0.2077  0.0579
 6144TIP3   OH240066   4.490   6.887   0.385  0.4790  0.1015  1.1912
 6144TIP3    H140067   4.432   6.816   0.358 -0.4377  1.5099 -0.8081
 6144TIP3    H240068   4.578   6.849   0.379  0.0638 -0.7255 -0.5200
 6145TIP3   OH240069   4.184   1.207   7.993 -0.3584  0.6552 -0.2363
 6145TIP3    H140070   4.157   1.297   8.011 -0.7547  0.2298  1.4761
 6145TIP3    H240071   4.106   1.166   7.956 -1.1962  0.2359  1.8637
 6146TIP3   OH240072   1.591   1.037   6.092 -0.3605 -0.5666  0.2186
 6146TIP3    H140073   1.504   1.001   6.075 -0.3953 -0.4562  0.1649
 6146TIP3    H240074   1.651   0.967   6.065 -0.4459 -0.8950  0.8505
 6147TIP3   OH240075   4.495   4.567   5.864 -0.5210  0.3116  0.0695
 6147TIP3    H140076   4.501   4.512   5.786  1.7536 -0.4239  0.6834
 6147TIP3    H240077   4.420   4.533   5.912 -1.3216  0.1134 -1.2808
 6148TIP3   OH240078   4.337   6.709   6.053  0.0631  0.2394  0.0996
 6148TIP3    H140079   4.369   6.646   5.988  1.0992  0.1389  0.6878
 6148TIP3    H240080   4.331   6.792   6.005  0.2836  0.0470 -0.2681
 6149TIP3   OH240081   3.950   4.447   1.347  0.7327  0.0117  0.1969
 6149TIP3    H140082   3.896   4.371   1.322  0.4160  0.4519 -0.4868
 6149TIP3    H240083   3.948   4.504   1.270 -0.9928  1.8438  1.4943
 6150TIP3   OH240084   2.513   3.823   1.236 -0.3325 -0.2200  0.0644
 6150TIP3    H140085   2.563   3.792   1.312  0.7876  0.8073 -0.2035
 6150TIP3    H240086   2.510   3.918   1.247 -2.4897 -0.2567  0.1836
 6151TIP3   OH240087   5.882   0.254   0.151  0.0137 -0.1952  0.6157
 6151TIP3    H140088   5.912   0.259   0.061 -1.0029  0.2631  0.2849
 6151TIP3    H240089   5.951   0.207   0.197  0.9241  0.2734 -0.2296
 6152TIP3   OH240090   6.567   6.449   1.511  0.1197 -0.2203  0.0166
 6152TIP3    H140091   6.658   6.429   1.534  0.1841  1.0886  1.0303
 6152TIP3    H240092   6.552   6.537   1.547 -1.2459 -0.0047 -0.9946
 6153TIP3   OH240093   4.094   4.455   1.778  0.0943 -0.2207  0.0372
 6153TIP3    H140094   4.012   4.496   1.803 -0.0515 -0.9222  0.7320
 6153TIP3    H240095   4.122   4.406   1.855  0.3156 -1.3294 -0.7104
 6154TIP3   OH240096   6.951   5.317   1.287 -0.2183  0.3073 -0.2333
 6154TIP3    H140097   6.894   5.287   1.216 -1.2679 -0.2749  0.8330
 6154TIP3    H240098   6.913   5.280   1.366  1.0887  0.7296  0.6207
 6155TIP3   OH240099   5.985   3.532   1.069 -0.5029  0.2066  0.0397
 6155TIP3    H140100   6.059   3.593   1.075 -0.2625 -0.1527  0.7365
 6155TIP3    H240101   5.931   3.567   0.997  0.4875  0.3093 -0.6740
 6156TIP3   OH240102   4.563   4.247   7.371  0.1499  0.3293 -0.2630
 6156TIP3    H140103   4.595   4.173   7.320  0.9977 -0.6233  1.5395
 6156TIP3    H240104   4.469   4.250   7.354 -0.0326 -1.6583  0.1904
 6157TIP3   OH240105   3.877   4.092   1.938  0.0401 -0.6854 -0.6116
 6157TIP3    H140106   3.783   4.111   1.945  0.3807  1.0934 -0.4113
 6157TIP3    H240107   3.920   4.171   1.972  1.6240 -2.6119  2.3021
 6158TIP3   OH240108   4.960   4.250   7.580 -0.0109 -0.8902 -0.0660
 6158TIP3    H140109   5.019   4.179   7.557 -0.0139 -0.8291 -0.2682
 6158TIP3    H240110   4.978   4.269   7.672 -0.2186 -1.3532  0.0681
 6159TIP3   OH240111   5.766   0.692   6.750 -0.0352  0.3981  0.2643
 6159TIP3    H140112   5.793   0.641   6.827  0.3902 -1.0198 -0.7879
 6159TIP3    H240113   5.671   0.695   6.756 -0.1923 -1.6637 -0.2959
 6160TIP3   OH240114   5.725   0.922   7.313 -0.0237  0.3053 -0.0755
 6160TIP3    H140115   5.756   0.873   7.390 -1.3751  0.3853  0.5426
 6160TIP3    H240116   5.722   1.013   7.343 -1.1077  0.2622 -0.0254
 6161TIP3   OH240117   5.577   0.002   7.311 -0.1948  0.3131  0.4356
 6161TIP3    H140118   5.512   0.048   7.365 -1.6053 -1.2821  0.1864
 6161TIP3    H240119   5.565   0.039   7.224 -2.4483 -1.5008 -0.1186
 6162TIP3   OH240120   5.051   2.785   6.854  0.0871 -0.2970  0.1681
 6162TIP3    H140121   5.108   2.814   6.926  0.7347  1.7709 -1.0964
 6162TIP3    H240122   5.007   2.707   6.888  1.8534 -0.5328  2.0711
 6163TIP3   OH240123   4.647   1.955   6.852  0.2134  0.1798 -0.1370
 6163TIP3    H140124   4.709   2.003   6.798 -1.1345  1.5890 -0.4794
 6163TIP3    H240125   4.653   1.997   6.938 -1.6346  1.6883 -0.6706
 6164TIP3   OH240126   0.048   0.992   1.458  0.3163  0.4319  0.1901
 6164TIP3    H140127   0.103   0.985   1.380 -0.2145  1.4711 -0.2992
 6164TIP3    H240128   0.107   1.023   1.526  0.6011  0.3493 -0.0161
 6165TIP3   OH240129   0.224   1.054   0.010  1.0286  0.0204 -0.5339
 6165TIP3    H140130   0.177   1.118  -0.043 -2.0848  0.0604  1.9423
 6165TIP3    H240131   0.287   1.106   0.060 -1.4201  1.3262  1.4047
 6166TIP3   OH240132   2.784   3.053   7.647 -0.1083 -0.1199  0.0007
 6166TIP3    H140133   2.846   3.057   7.720 -1.0877 -0.4720  0.8898
 6166TIP3    H240134   2.719   3.120   7.668 -0.5683 -0.4440 -0.3827
 6167TIP3   OH240135   2.794   4.727   0.391 -0.3196  0.7468 -0.1870
 6167TIP3    H140136   2.715   4.771   0.424  0.0816  1.3873 -0.0633
 6167TIP3    H240137   2.862   4.749   0.454  0.0800  0.6290 -0.5725
 6168TIP3   OH240138   6.922   0.231   0.496 -0.7756  0.0280 -0.6758
 6168TIP3    H140139   6.865   0.159   0.468  0.0615  0.1131 -2.8002
 6168TIP3    H240140   6.863   0.307   0.499 -0.9068  0.0591 -2.5627
 6169TIP3   OH240141   5.857   5.459   6.810  0.1807  0.2475  0.7729
 6169TIP3    H140142   5.931   5.411   6.847  0.3859 -1.2672 -1.3945
 6169TIP3    H240143   5.897   5.524   6.753 -0.1338 -0.2695 -0.0498
 6170TIP3   OH240144   4.370   5.968   1.298 -0.5048 -0.0190  0.1898
 6170TIP3    H140145   4.309   5.985   1.226 -0.0320  1.7396  0.1522
 6170TIP3    H240146   4.454   5.956   1.255 -0.1829  1.2389  0.4178
 6171TIP3   OH240147   0.745   2.523   7.095 -0.7627 -0.0191 -0.2779
 6171TIP3    H140148   0.712   2.574   7.169 -2.0360  0.7188 -1.3100
 6171TIP3    H240149   0.693   2.553   7.021  0.4990 -0.7211 -1.4878
 6172TIP3   OH240150   4.351   4.437   6.418 -0.5611  0.0574  0.4206
 6172TIP3    H140151   4.446   4.443   6.410 -0.6370  0.2274 -0.3945
 6172TIP3    H240152   4.320   4.414   6.331 -1.3130  0.5060  0.5551
 6173TIP3   OH240153   5.355   1.158   7.761 -0.3087 -0.5390  0.3847
 6173TIP3    H140154   5.348   1.078   7.812  1.4792  0.4379  2.3226
 6173TIP3    H240155   5.449   1.170   7.749 -0.5274  1.3138  0.2720
 6174TIP3   OH240156   0.360   1.390   7.938 -0.5657  0.5067  0.8661
 6174TIP3    H140157   0.335   1.344   7.858  1.6200 -0.9576  0.9394
 6174TIP3    H240158   0.320   1.477   7.929 -2.8710 -0.5870 -0.3665
 6175TIP3   OH240159   3.605   3.222   6.113 -0.0223  0.4751  0.0248
 6175TIP3    H140160   3.676   3.162   6.136  0.9642  1.2127 -0.9739
 6175TIP3    H240161   3.647   3.307   6.105 -1.2179  1.1230  0.4264
 6176TIP3   OH240162   0.114   3.383   0.133  0.2106 -0.1619 -0.3020
 6176TIP3    H140163   0.072   3.468   0.147  0.8558  0.4013 -1.5816
 6176TIP3    H240164   0.065   3.343   0.061 -1.1350 -1.6441  1.3497
 6177TIP3   OH240165   5.892   3.389   0.448  0.0753  0.9143  0.1447
 6177TIP3    H140166   5.902   3.344   0.531  1.5959  1.5771  0.3501
 6177TIP3    H240167   5.797   3.401   0.438 -0.2485 -0.7681  0.8774
 6178TIP3   OH240168   3.156   2.804   7.789 -0.6115  0.4093 -0.2063
 6178TIP3    H140169   3.073   2.755   7.785 -0.5065  0.1571  0.5503
 6178TIP3    H240170   3.133   2.886   7.834 -0.7251  0.9410 -1.2060
 6179TIP3   OH240171   1.846   2.908   0.981  0.1865  0.3142  0.3652
 6179TIP3    H140172   1.936   2.879   0.997  0.9425  2.0752 -0.4197
 6179TIP3    H240173   1.842   2.922   0.886 -1.5631 -1.6707  0.0843
 6180TIP3   OH240174   0.126   4.253   6.314 -0.0227  0.3041 -0.6906
 6180TIP3    H140175   0.152   4.317   6.247 -0.1539 -1.3711 -2.4347
 6180TIP3    H240176   0.064   4.196   6.270 -0.3212 -0.7211  0.9692
 6181TIP3   OH240177   6.193   1.879   7.978 -0.5767  0.0955 -0.2604
 6181TIP3    H140178   6.146   1.888   7.896 -1.5168  1.2826  0.3685
 6181TIP3    H240179   6.125   1.864   8.044  0.1976 -1.4180  0.2458
 6182TIP3   OH240180   1.461   1.993   1.595  0.3561  0.6088  0.1060
 6182TIP3    H140181   1.496   2.020   1.680  0.8161  2.4543 -0.6167
 6182TIP3    H240182   1.487   2.063   1.535 -2.2446  0.6973 -1.0352
 6183TIP3   OH240183   4.094   4.064   1.026 -0.2504  0.8272 -0.0130
 6183TIP3    H140184   4.186   4.084   1.042 -0.8473  2.4953  1.5411
 6183TIP3    H240185   4.084   3.973   1.055  0.4981  1.2522  1.6943
 6184TIP3   OH240186   2.953   5.223   7.234  0.0057 -0.0246  0.2798
 6184TIP3    H140187   2.920   5.305   7.196  1.9982  0.5525 -0.3339
 6184TIP3    H240188   3.044   5.219   7.206 -0.0357 -2.4755  0.3189
 6185TIP3   OH240189   1.014   5.090   7.846  0.2010 -0.1464 -0.3882
 6185TIP3    H140190   1.035   5.130   7.761  1.1461 -0.6209 -0.3905
 6185TIP3    H240191   1.059   5.144   7.910  0.9924 -0.8342 -0.3435
 6186TIP3   OH240192   4.298   6.912   0.963 -0.2995 -0.8115 -0.2593
 6186TIP3    H140193   4.353   6.936   0.889 -0.6312 -0.0812 -0.2699
 6186TIP3    H240194   4.277   6.994   1.006  0.0248 -1.2387  0.7508
 6187TIP3   OH240195   1.262   3.225   0.925  0.2561  0.3802  0.1104
 6187TIP3    H140196   1.211   3.219   1.005  1.0903 -1.3619  0.5631
 6187TIP3    H240197   1.349   3.252   0.954  0.5461 -0.2027 -0.2043
 6188TIP3   OH240198   0.222   1.831   6.673 -0.4987 -0.2138 -0.3059
 6188TIP3    H140199   0.292   1.894   6.690 -0.5234 -0.5557  1.1669
 6188TIP3    H240200   0.149   1.861   6.727 -1.3985 -0.0622 -1.5521
 6189TIP3   OH240201   2.253   5.152   0.335 -0.4084  0.0605 -0.2012
 6189TIP3    H140202   2.310   5.091   0.288 -2.0376 -2.0205  0.3372
 6189TIP3    H240203   2.312   5.214   0.377  1.4394 -1.6741 -0.0918
 6190TIP3   OH240204   4.946   6.745   7.745  0.1038 -0.2577 -0.0400
 6190TIP3    H140205   4.931   6.803   7.819 -1.3754  1.8325 -1.8418
 6190TIP3    H240206   4.980   6.664   7.784  0.2753  1.0509  2.7762
 6191TIP3   OH240207   1.518   3.353   7.708 -0.3941 -0.0382  0.6808
 6191TIP3    H140208   1.444   3.306   7.669  0.7073 -1.7341  0.5219
 6191TIP3    H240209   1.526   3.433   7.656 -0.4264 -1.1412 -1.1041
 6192TIP3   OH240210   0.275   0.121   1.283  0.1398 -0.0768  0.5713
 6192TIP3    H140211   0.255   0.045   1.228  1.8720 -0.6477  0.6493
 6192TIP3    H240212   0.335   0.086   1.350 -2.6596  0.3601  3.5251
 6193TIP3   OH240213   6.405   4.952   0.917 -0.6342 -0.2671 -0.6524
 6193TIP3    H140214   6.387   4.872   0.867  0.5854  0.1487 -1.7983
 6193TIP3    H240215   6.321   4.973   0.958 -1.1620 -1.7280 -0.9086
 6194TIP3   OH240216   0.553   5.130   0.279  0.6018  0.1424  0.4598
 6194TIP3    H140217   0.462   5.103   0.292  0.3449  0.4836 -0.4910
 6194TIP3    H240218   0.605   5.063   0.322 -0.1206  0.6936  2.2784
 6195TIP3   OH240219   1.713   1.166   7.435 -0.6193  0.1180  0.4746
 6195TIP3    H140220   1.738   1.234   7.372  0.0948  0.0083  0.6317
 6195TIP3    H240221   1.772   1.178   7.509  0.1623 -1.2543  0.1175
 6196TIP3   OH240222   3.458   5.573   6.595  0.4060 -0.2166 -0.7930
 6196TIP3    H140223   3.519   5.514   6.639 -0.9929 -0.6355  0.6840
 6196TIP3    H240224   3.498   5.590   6.510  2.7824 -0.1233  0.2513
 6197TIP3   OH240225   6.176   5.151   6.646 -0.0677  0.2389  0.2229
 6197TIP3    H140226   6.176   5.102   6.564  0.3438 -1.6706  1.3158
 6197TIP3    H240227   6.236   5.224   6.630 -0.1632  0.0154 -1.2407
 6198TIP3   OH240228   1.724   2.154   6.161 -0.0860 -0.3810 -0.2253
 6198TIP3    H140229   1.664   2.182   6.230 -0.5286 -1.2793 -0.2219
 6198TIP3    H240230   1.681   2.077   6.123  0.1481  0.1128 -1.5128
 6199TIP3   OH240231   5.149   3.176   6.709 -0.5537  0.1064 -0.3233
 6199TIP3    H140232   5.160   3.182   6.804  0.0058 -1.9773 -0.1959
 6199TIP3    H240233   5.059   3.204   6.693 -0.3062  1.5897  0.6547
 6200TIP3   OH240234   5.645   0.500   7.576  0.1715 -0.3896 -0.5317
 6200TIP3    H140235   5.618   0.449   7.499  0.4799  0.5734 -1.3003
 6200TIP3    H240236   5.625   0.591   7.553  2.6760  0.2291 -0.5768
 6201TIP3   OH240237   5.197   5.840   0.278  0.8493  0.9847  0.1015
 6201TIP3    H140238   5.283   5.801   0.262  1.1141  1.6764 -0.1863
 6201TIP3    H240239   5.149   5.825   0.196  0.2024 -0.6290  0.7362
 6202TIP3   OH240240   4.631   3.218   6.657  0.5738 -0.1615 -0.3350
 6202TIP3    H140241   4.594   3.151   6.600 -1.4061 -0.1320  0.8440
 6202TIP3    H240242   4.568   3.228   6.728  2.7494  0.0743  1.7075
 6203TIP3   OH240243   3.461   1.108   1.184  0.3006  0.2555 -0.0353
 6203TIP3    H140244   3.404   1.043   1.141 -0.5262  1.3982 -0.7248
 6203TIP3    H240245   3.431   1.109   1.275  1.0747 -1.1166  0.2688
 6204TIP3   OH240246   6.088   5.400   6.442 -0.6113  0.4295  0.1460
 6204TIP3    H140247   6.073   5.465   6.511 -0.8879  1.0709 -0.5061
 6204TIP3    H240248   6.174   5.362   6.463  0.3636  2.2155 -0.4001
 6205TIP3   OH240249   6.269   3.650   7.099 -0.1100  0.2161 -0.0147
 6205TIP3    H140250   6.191   3.596   7.089 -1.0506  1.3098  1.0856
 6205TIP3    H240251   6.319   3.635   7.019 -2.2004  0.6847 -1.4903
 6206TIP3   OH240252   2.276   5.926   0.875  0.0990 -0.6601 -0.0903
 6206TIP3    H140253   2.240   5.904   0.789 -1.8367  1.5251  0.0701
 6206TIP3    H240254   2.363   5.960   0.857 -0.2574 -0.3018 -1.1921
 6207TIP3   OH240255   2.804   0.845   5.948 -0.2140 -0.2899 -0.1899
 6207TIP3    H140256   2.873   0.907   5.973  0.3632 -0.4611 -1.2885
 6207TIP3    H240257   2.767   0.882   5.867 -0.1375 -1.1647 -0.6365
 6208TIP3   OH240258   1.301   2.322   7.541 -0.3462  0.7796  0.9406
 6208TIP3    H140259   1.227   2.300   7.597 -2.2495  1.8595 -1.0194
 6208TIP3    H240260   1.318   2.241   7.491  0.7189  0.1237  2.2973
 6209TIP3   OH240261   4.345   3.568   1.021  0.3538  0.8032 -0.4091
 6209TIP3    H140262   4.397   3.501   1.067  2.0297  0.1965 -2.9390
 6209TIP3    H240263   4.261   3.526   1.005  0.5129  0.2237  0.2115
 6210TIP3   OH240264   2.803   5.524   1.060 -0.3429  0.1370  0.0011
 6210TIP3    H140265   2.835   5.442   1.098 -1.0105 -0.4238 -0.5996
 6210TIP3    H240266   2.709   5.522   1.076 -0.5662  0.1271 -1.1894
 6211TIP3   OH240267   3.871   0.353   1.792  0.9741 -0.2688  0.2672
 6211TIP3    H140268   3.838   0.290   1.856 -0.2242  1.4753  1.4424
 6211TIP3    H240269   3.952   0.386   1.832  0.8041  0.0171  0.3812
 6212TIP3   OH240270   5.902   5.982   0.670 -0.6364  0.7007  0.0826
 6212TIP3    H140271   5.850   5.933   0.734 -2.4565  0.6509 -1.3637
 6212TIP3    H240272   5.954   6.043   0.723  0.2003 -1.3447  1.8050
 6213TIP3   OH240273   4.900   2.643   7.063  0.1237  0.1485 -0.1453
 6213TIP3    H140274   4.836   2.712   7.079  1.1517  1.0045  0.5031
 6213TIP3    H240275   4.849   2.564   7.050 -1.0385  0.6198  1.2934
 6214TIP3   OH240276   0.500   1.256   7.552 -0.6316  0.2278 -0.2311
 6214TIP3    H140277   0.558   1.318   7.596 -0.3607  0.0843 -0.3851
 6214TIP3    H240278   0.559   1.192   7.512 -0.8027  1.0622 -1.8957
 6215TIP3   OH240279   2.974   7.178   6.023 -0.1037  0.2842  0.1388
 6215TIP3    H140280   2.942   7.268   6.032  1.2013  0.9909 -1.5943
 6215TIP3    H240281   3.055   7.187   5.973  1.7689 -1.5958  2.6321
 6216TIP3   OH240282   0.069   4.293   7.912  0.6540 -0.2639  0.2050
 6216TIP3    H140283   0.154   4.266   7.947 -0.4519 -3.0248  1.0677
 6216TIP3    H240284   0.065   4.250   7.826  0.2289  0.0492  0.0681
 6217TIP3   OH240285   0.189   3.730   7.969  0.3346 -0.5027 -0.1510
 6217TIP3    H140286   0.116   3.716   8.029  0.2489  0.7877  0.0918
 6217TIP3    H240287   0.182   3.823   7.945  1.4193 -0.5595 -0.7535
 6218TIP3   OH240288   5.257   6.952   7.778  0.6546  0.8623 -0.1269
 6218TIP3    H140289   5.233   6.954   7.686  0.8363  0.9818 -0.1735
 6218TIP3    H240290   5.306   6.871   7.789 -0.0054  0.4791  0.0312
 6219TIP3   OH240291   0.593   3.127   0.394 -0.0882 -0.0371  0.5939
 6219TIP3    H140292   0.597   3.046   0.342 -2.4709  0.3182 -0.2592
 6219TIP3    H240293   0.641   3.107   0.474 -2.6337 -3.1977  1.5205
 6220TIP3   OH240294   4.391   6.167   0.461  0.1007 -0.3525  0.8370
 6220TIP3    H140295   4.303   6.179   0.425  0.4130 -0.1301  0.1283
 6220TIP3    H240296   4.377   6.161   0.556 -0.6476 -0.0380  0.7587
 6221TIP3   OH240297   1.667   4.856   6.242  0.4527 -0.3881  0.0520
 6221TIP3    H140298   1.650   4.882   6.151  1.1515 -0.6140 -0.1485
 6221TIP3    H240299   1.580   4.836   6.278 -0.0146  1.2873 -0.0640
 6222TIP3   OH240300   0.354   4.916   0.296  0.1826  0.3135 -0.3306
 6222TIP3    H140301   0.385   4.855   0.229 -0.6717 -0.0978 -0.3738
 6222TIP3    H240302   0.400   4.891   0.375  1.7009  1.2185 -0.8761
 6223TIP3   OH240303   1.214   0.400   0.874 -0.2371 -0.4323  0.1167
 6223TIP3    H140304   1.274   0.386   0.947  0.1562  0.8552  0.0737
 6223TIP3    H240305   1.128   0.375   0.907  0.1847 -1.5043  0.4457
 6224TIP3   OH240306   0.467   6.966   0.307 -0.2854 -0.2770 -0.1553
 6224TIP3    H140307   0.384   6.960   0.355  0.2112 -0.0440  0.7680
 6224TIP3    H240308   0.442   6.988   0.218 -1.3740 -2.6005 -0.5013
 6225TIP3   OH240309   5.250   6.937   7.508 -0.1078 -0.4151 -0.0200
 6225TIP3    H140310   5.276   6.965   7.421 -1.4499 -0.0830 -0.3295
 6225TIP3    H240311   5.156   6.921   7.502 -0.3054  0.0021  1.4605
 6226TIP3   OH240312   1.181   4.679   1.320 -0.0526 -0.0458  0.2522
 6226TIP3    H140313   1.176   4.774   1.313  0.1945 -0.0369  0.1854
 6226TIP3    H240314   1.272   4.662   1.345 -0.8237 -0.0725  3.4303
 6227TIP3   OH240315   0.347   6.061   2.100  0.0908 -0.0615 -0.2473
 6227TIP3    H140316   0.319   6.119   2.029 -1.3247  0.1808  0.4673
 6227TIP3    H240317   0.408   6.113   2.152 -1.1086  0.8168  0.3412
 6228TIP3   OH240318   0.653   6.536   7.114  0.0795  0.5265 -0.4165
 6228TIP3    H140319   0.588   6.546   7.044 -1.1961  0.8229  0.7673
 6228TIP3    H240320   0.630   6.453   7.156  1.3118 -0.0300 -0.7919
 6229TIP3   OH240321   6.279   6.024   1.017 -0.1947 -0.0905  0.1865
 6229TIP3    H140322   6.364   6.065   1.030 -0.9199  1.3231  0.8385
 6229TIP3    H240323   6.290   5.967   0.941  1.4788 -0.4214  0.6568
 6230TIP3   OH240324   0.523   3.783   7.868 -0.4244  0.1287  0.0219
 6230TIP3    H140325   0.454   3.795   7.803 -0.3933  1.8610  0.2707
 6230TIP3    H240326   0.541   3.689   7.865 -0.9506  0.0297 -1.9142
 6231TIP3   OH240327   5.526   5.254   6.631  0.4464 -0.2323  0.7441
 6231TIP3    H140328   5.561   5.252   6.720  1.5329 -2.1340  0.3360
 6231TIP3    H240329   5.590   5.205   6.579 -0.4407  0.3572 -0.9832
 6232TIP3   OH240330   4.428   3.022   0.071 -0.4011  0.1865 -0.3407
 6232TIP3    H140331   4.357   2.990   0.127  0.0421  0.2222  0.2522
 6232TIP3    H240332   4.474   3.087   0.125 -1.3278  1.9213 -1.5420
 6233TIP3   OH240333   5.300   6.102   6.546 -0.3672  0.6064 -0.3732
 6233TIP3    H140334   5.291   6.018   6.592 -0.2209  0.7916 -0.0023
 6233TIP3    H240335   5.229   6.156   6.582  0.2300  1.0144  0.2219
 6234TIP3   OH240336   5.727   0.974   1.119 -0.2010 -0.2820 -0.3099
 6234TIP3    H140337   5.817   0.956   1.144  0.0190  0.5064 -0.4978
 6234TIP3    H240338   5.702   0.900   1.063  0.6337 -0.0704 -0.9864
 6235TIP3   OH240339   5.255   2.452   6.782 -0.2080 -0.1052 -0.1338
 6235TIP3    H140340   5.182   2.513   6.790  0.1361  0.2164  0.6435
 6235TIP3    H240341   5.215   2.365   6.782 -0.5160  0.0171  1.5169
 6236TIP3   OH240342   2.108   1.934   7.805  0.4107  0.3032 -0.8034
 6236TIP3    H140343   2.159   2.015   7.802 -0.3562  0.7830 -1.3206
 6236TIP3    H240344   2.173   1.865   7.817  1.0111  1.0489  0.3967
 6237TIP3   OH240345   0.680   3.107   1.487  0.1021  0.3902 -0.0358
 6237TIP3    H140346   0.611   3.043   1.505 -1.4881  1.4400 -1.8993
 6237TIP3    H240347   0.710   3.135   1.573 -1.2834 -0.6699  0.8398
 6238TIP3   OH240348   4.297   4.786   1.583  0.5083 -0.3361 -0.2995
 6238TIP3    H140349   4.290   4.759   1.674  1.0886 -0.6895 -0.3546
 6238TIP3    H240350   4.236   4.728   1.536 -0.3091  0.3050 -0.0560
 6239TIP3   OH240351   3.254   6.884   6.357 -0.3314 -0.3437  0.1094
 6239TIP3    H140352   3.193   6.938   6.408 -0.2132 -1.9998  2.1306
 6239TIP3    H240353   3.341   6.912   6.388 -0.1680  0.0105 -0.6554
 6240TIP3   OH240354   6.679   3.981   0.729  0.4605  0.2011  0.1552
 6240TIP3    H140355   6.714   4.040   0.661  1.0154 -0.4974 -0.1840
 6240TIP3    H240356   6.680   4.033   0.809 -1.0793  1.3518 -0.5239
 6241TIP3   OH240357   1.627   2.875   0.200 -0.1135 -0.2177  0.3019
 6241TIP3    H140358   1.673   2.886   0.283  0.4222  0.4476 -0.0712
 6241TIP3    H240359   1.697   2.868   0.135 -0.5171  1.0760 -0.3048
 6242TIP3   OH240360   3.447   6.734   0.398 -0.3207  0.6706 -0.5297
 6242TIP3    H140361   3.506   6.659   0.390  0.6102  1.0962  1.6084
 6242TIP3    H240362   3.496   6.808   0.363 -0.4679  0.6325 -0.8184
 6243TIP3   OH240363   3.395   0.789   1.185 -0.3779  0.1214  0.3942
 6243TIP3    H140364   3.357   0.795   1.272 -0.3839 -2.2399  0.6093
 6243TIP3    H240365   3.488   0.806   1.198 -0.2393 -1.0691  1.0180
 6244TIP3   OH240366   2.138   4.076   1.373 -0.5435 -0.5185  0.2160
 6244TIP3    H140367   2.216   4.096   1.425 -0.9152  1.0835  0.2043
 6244TIP3    H240368   2.168   4.082   1.282 -0.6890  0.1208  0.2113
 6245TIP3   OH240369   1.266   2.140   1.790  0.8390  0.3793 -0.3212
 6245TIP3    H140370   1.356   2.114   1.772  0.9039  0.5195 -0.1966
 6245TIP3    H240371   1.272   2.230   1.821  0.7998 -0.1073  1.1526
 6246TIP3   OH240372   4.900   6.834   0.032  0.6677  0.3371 -0.0120
 6246TIP3    H140373   4.970   6.899   0.032  1.2392 -0.2279  1.3098
 6246TIP3    H240374   4.899   6.801   0.122 -1.2752  0.2941 -0.0086
 6247TIP3   OH240375   1.137   3.929   2.248 -0.2188  0.1828  0.3539
 6247TIP3    H140376   1.071   3.882   2.196 -0.8142  2.1678 -0.8231
 6247TIP3    H240377   1.097   3.939   2.334 -1.5700  1.3770 -0.3469
 6248TIP3   OH240378   5.624   4.393   6.459 -0.4184 -0.3715 -0.7236
 6248TIP3    H140379   5.719   4.406   6.461 -0.6125  1.8028 -2.1329
 6248TIP3    H240380   5.594   4.447   6.386 -2.9729  0.5872  0.9014
 6249TIP3   OH240381   1.947   1.298   0.979 -0.1864 -0.2808 -0.6546
 6249TIP3    H140382   1.880   1.235   0.953 -1.5324  0.0968  1.5673
 6249TIP3    H240383   1.912   1.383   0.954 -0.1931 -0.1469 -0.2132
 6250TIP3   OH240384   3.308   6.543   0.110 -0.2700 -0.4434 -0.3105
 6250TIP3    H140385   3.371   6.519   0.042  0.1965  0.3858 -0.1784
 6250TIP3    H240386   3.280   6.459   0.147  1.4722 -0.8062  0.2753
 6251TIP3   OH240387   1.722   6.587   7.422 -0.3410 -0.2530 -0.0987
 6251TIP3    H140388   1.754   6.567   7.334 -0.4294  1.5340 -0.5887
 6251TIP3    H240389   1.712   6.502   7.465 -0.4142 -1.1700 -1.8598
 6252TIP3   OH240390   0.814   7.080   7.326  0.2462  0.0960 -0.0680
 6252TIP3    H140391   0.808   7.036   7.241 -0.5048 -0.3254  0.1937
 6252TIP3    H240392   0.745   7.147   7.323 -0.8032 -0.9103  0.7625
 6253TIP3   OH240393   5.581   5.684   7.540  0.4435  0.0906  1.1917
 6253TIP3    H140394   5.560   5.738   7.464 -0.2854 -0.3899  1.0395
 6253TIP3    H240395   5.675   5.670   7.535  0.3664 -0.1377  0.2387
 6254TIP3   OH240396   2.772   3.237   1.486  0.1722 -0.0927  0.1828
 6254TIP3    H140397   2.815   3.321   1.504 -0.4116  0.2810 -0.1221
 6254TIP3    H240398   2.842   3.173   1.491  0.3370  0.1756  2.1088
 6255TIP3   OH240399   7.014   7.052   0.596 -0.2188 -0.1824 -0.0676
 6255TIP3    H140400   7.054   7.135   0.570 -0.3788  0.9167  2.8782
 6255TIP3    H240401   7.076   7.013   0.657 -1.0144 -1.3506  0.0258
 6256TIP3   OH240402   3.886   3.476   7.935 -0.2103 -0.3960 -0.1454
 6256TIP3    H140403   3.935   3.399   7.907  0.2065  0.2634 -1.3083
 6256TIP3    H240404   3.813   3.482   7.875 -0.6973 -0.3317  0.4434
 6257TIP3   OH240405   5.200   5.718   7.485  0.6083 -0.2488  0.3123
 6257TIP3    H140406   5.149   5.693   7.562  0.8703  1.1446  0.9667
 6257TIP3    H240407   5.211   5.636   7.436  1.3920 -1.4049  2.2944
 6258TIP3   OH240408   5.843   0.326   1.289 -1.2078  0.2308  1.1236
 6258TIP3    H140409   5.754   0.359   1.274 -0.9694  2.1197  3.3901
 6258TIP3    H240410   5.831   0.251   1.347 -1.3286  0.1611  1.0115
 6259TIP3   OH240411   6.879   4.122   0.537 -0.6592 -0.3431 -0.1265
 6259TIP3    H140412   6.914   4.052   0.482 -1.4254  0.7134 -2.0623
 6259TIP3    H240413   6.806   4.158   0.487 -0.7980  1.3253  1.1693
 6260TIP3   OH240414   2.582   5.153   6.312 -0.6714  0.2137 -0.3816
 6260TIP3    H140415   2.620   5.237   6.338 -0.5151  0.2266 -0.6515
 6260TIP3    H240416   2.573   5.159   6.217 -0.6156 -0.0955 -0.4061
 6261TIP3   OH240417   6.269   6.309   6.740  0.4845 -0.2041 -0.5507
 6261TIP3    H140418   6.360   6.336   6.751  0.2616  0.8831 -1.1999
 6261TIP3    H240419   6.219   6.390   6.752 -0.6574 -1.2238  2.6908
 6262TIP3   OH240420   2.723   3.975   0.410  0.3288  0.1129  0.6091
 6262TIP3    H140421   2.715   4.071   0.405 -0.0505  0.1041  0.9843
 6262TIP3    H240422   2.644   3.942   0.368 -0.6538  0.0043  2.4087
 6263TIP3   OH240423   4.427   4.511   0.684 -0.1614 -0.0499  0.2252
 6263TIP3    H140424   4.492   4.490   0.617 -1.9053 -1.0065 -1.2463
 6263TIP3    H240425   4.445   4.603   0.706  1.3277 -0.1336 -0.5139
 6264TIP3   OH240426   5.845   3.773   6.404 -0.2024 -0.5963  0.0367
 6264TIP3    H140427   5.781   3.842   6.387  1.4428  1.1221  0.5249
 6264TIP3    H240428   5.801   3.715   6.467 -0.8680  1.2282  1.3357
 6265TIP3   OH240429   0.688   4.410   7.721  0.2293 -0.2089  0.1633
 6265TIP3    H140430   0.718   4.444   7.637 -0.3630 -3.6761 -1.6240
 6265TIP3    H240431   0.595   4.433   7.725  0.1817 -0.3213 -0.2774
 6266TIP3   OH240432   5.412   0.654   7.826  1.0291 -0.4953  0.3197
 6266TIP3    H140433   5.472   0.618   7.891 -1.1933 -0.3353  2.6123
 6266TIP3    H240434   5.326   0.619   7.850  0.0819 -0.4978 -2.6479
 6267TIP3   OH240435   1.128   0.886   5.968 -0.2506 -0.1293  0.4424
 6267TIP3    H140436   1.206   0.838   5.997 -0.0534  0.2929  0.6203
 6267TIP3    H240437   1.126   0.964   6.023 -0.7017 -0.0465  0.3163
 6268TIP3   OH240438   6.406   1.754   2.189  0.2408 -0.7731  0.0567
 6268TIP3    H140439   6.348   1.767   2.264  1.6288  0.4528  0.9798
 6268TIP3    H240440   6.436   1.663   2.196 -0.6011 -1.0428  0.2532
 6269TIP3   OH240441   2.937   6.283   0.757  0.0519 -0.2763 -0.0601
 6269TIP3    H140442   3.000   6.327   0.813 -0.8594  0.5623  0.3279
 6269TIP3    H240443   2.870   6.248   0.816 -0.2334 -0.5274 -0.5141
 6270TIP3   OH240444   4.693   5.392   0.291 -0.0076 -0.0876 -0.0593
 6270TIP3    H140445   4.779   5.392   0.249  0.6425 -0.6272  1.2083
 6270TIP3    H240446   4.631   5.378   0.220  1.0019 -0.3331 -0.9139
 6271TIP3   OH240447   6.931   1.323   7.141  0.5925 -0.2854 -0.1555
 6271TIP3    H140448   6.927   1.227   7.137  0.8803 -0.3421  0.7004
 6271TIP3    H240449   6.841   1.351   7.126  0.6307 -0.6482 -1.1743
 6272TIP3   OH240450   0.903   5.081   0.637 -0.3412 -0.1658 -0.0468
 6272TIP3    H140451   0.967   5.023   0.679  0.1063  0.3536 -0.0077
 6272TIP3    H240452   0.907   5.161   0.689 -1.2187 -0.2198  0.1181
 6273TIP3   OH240453   1.173   3.330   1.508 -0.1411 -0.0519  0.3078
 6273TIP3    H140454   1.099   3.269   1.506  0.2026 -0.5788  2.0767
 6273TIP3    H240455   1.250   3.275   1.514  0.3197  0.5337 -0.0512
 6274TIP3   OH240456   3.598   5.201   1.174 -0.2579 -0.1764 -0.2438
 6274TIP3    H140457   3.550   5.218   1.254 -2.3922  1.3928 -1.7494
 6274TIP3    H240458   3.615   5.287   1.137  2.9133 -0.7239 -0.3299
 6275TIP3   OH240459   6.797   1.196   5.794  0.7116 -0.3429 -0.3254
 6275TIP3    H140460   6.744   1.218   5.717 -0.0662 -1.2234 -0.0514
 6275TIP3    H240461   6.740   1.144   5.849  1.0271  0.9079  1.2335
 6276TIP3   OH240462   0.514   0.171   1.118 -0.3852  0.2561 -0.1614
 6276TIP3    H140463   0.593   0.134   1.158 -0.7065 -2.2795 -1.6831
 6276TIP3    H240464   0.503   0.122   1.037 -2.6121  1.7037 -0.8049
 6277TIP3   OH240465   5.721   1.574   7.410  0.0102  0.1275  0.7908
 6277TIP3    H140466   5.750   1.658   7.375  3.8221 -0.7602  1.3204
 6277TIP3    H240467   5.787   1.551   7.476 -0.9140 -3.1991  0.7529
 6278TIP3   OH240468   1.761   1.253   5.765  0.1214  0.4068  0.2655
 6278TIP3    H140469   1.850   1.272   5.736  0.0000  1.3083  0.4595
 6278TIP3    H240470   1.756   1.292   5.852  0.2567 -1.6300  1.2526
 6279TIP3   OH240471   1.689   2.498   1.513 -0.5318  0.0907  0.2835
 6279TIP3    H140472   1.650   2.509   1.600 -1.5031 -0.8739 -0.0113
 6279TIP3    H240473   1.723   2.409   1.514 -2.5042 -0.7447 -1.0357
 6280TIP3   OH240474   6.584   5.973   6.284  0.5085  0.5589 -0.1139
 6280TIP3    H140475   6.649   6.006   6.347  0.1987 -0.0829  0.5610
 6280TIP3    H240476   6.521   5.926   6.338 -0.6627  1.3718 -0.7290
 6281TIP3   OH240477   5.542   1.561   1.246 -0.5060  0.0787  0.0347
 6281TIP3    H140478   5.518   1.477   1.285  1.1415 -0.4371 -0.0061
 6281TIP3    H240479   5.613   1.541   1.186  1.4464  1.7687  1.6276
 6282TIP3   OH240480   2.685   1.711   6.362 -0.0142 -0.0384  0.1162
 6282TIP3    H140481   2.642   1.770   6.299 -0.6243  0.5330  1.0406
 6282TIP3    H240482   2.775   1.743   6.367 -0.7856  2.0779  2.0112
 6283TIP3   OH240483   0.485   3.971   0.383 -0.1557  0.0591 -0.2476
 6283TIP3    H140484   0.547   4.025   0.432 -1.1125  2.1101 -1.2054
 6283TIP3    H240485   0.536   3.937   0.309 -0.0684  1.5956 -0.9326
 6284TIP3   OH240486   1.276   4.252   7.796 -0.1026 -0.5980  0.2893
 6284TIP3    H140487   1.304   4.336   7.832 -1.3962 -0.3159  0.6666
 6284TIP3    H240488   1.278   4.264   7.701 -1.9446  0.4510  0.3420
 6285TIP3   OH240489   2.820   3.788   6.674 -0.3333 -0.0836 -0.1421
 6285TIP3    H140490   2.731   3.811   6.647  0.0622 -0.1397 -1.5879
 6285TIP3    H240491   2.873   3.864   6.649  0.1028 -0.2362  0.3011
 6286TIP3   OH240492   1.988   6.244   0.710  0.1037  0.1217  0.0431
 6286TIP3    H140493   1.924   6.175   0.730  0.1922 -0.1922 -0.7134
 6286TIP3    H240494   2.054   6.235   0.778 -0.7850  0.6277  0.9964
 6287TIP3   OH240495   2.242   1.586   0.962  0.4899  0.4089  0.3025
 6287TIP3    H140496   2.307   1.620   0.901  0.4661  0.3838  0.2632
 6287TIP3    H240497   2.167   1.645   0.954  0.3280  0.1659  0.0036
 6288TIP3   OH240498   1.466   6.566   6.797  0.4258  0.4817  0.0451
 6288TIP3    H140499   1.421   6.628   6.740  0.2421  0.5493  0.2655
 6288TIP3    H240500   1.474   6.610   6.881  0.8782  0.4581  0.0196
 6289TIP3   OH240501   2.668   6.600   0.027  0.3865 -0.4104  0.4673
 6289TIP3    H140502   2.666   6.517  -0.021 -0.6513  0.0371 -0.3064
 6289TIP3    H240503   2.752   6.600   0.072  1.3211 -0.9225 -1.2139
 6290TIP3   OH240504   3.199   4.346   0.889 -0.1283  0.2633 -0.0143
 6290TIP3    H140505   3.129   4.324   0.951  0.9336 -0.3044  1.0154
 6290TIP3    H240506   3.231   4.431   0.919  1.7768 -0.9458  1.5354
 6291TIP3   OH240507   0.502   7.056   6.507 -0.2838  0.1528  0.3171
 6291TIP3    H140508   0.574   7.105   6.468 -0.6681  1.8952  1.6747
 6291TIP3    H240509   0.427   7.075   6.450 -0.1642  0.1828  0.1691
 6292TIP3   OH240510   0.223   2.107   0.396 -0.0006  0.5027 -0.1964
 6292TIP3    H140511   0.147   2.084   0.343  0.5711  0.0424 -0.8468
 6292TIP3    H240512   0.187   2.144   0.476 -0.8874  1.2922 -0.9399
 6293TIP3   OH240513   1.065   6.533   7.397 -0.4907 -0.3248 -0.1805
 6293TIP3    H140514   1.005   6.534   7.322 -0.7026  1.0456 -0.0227
 6293TIP3    H240515   1.011   6.506   7.471 -0.7522  0.2000 -0.1745
 6294TIP3   OH240516   3.506   0.965   5.727  0.0557 -0.0541  0.5161
 6294TIP3    H140517   3.548   1.051   5.727  2.2039 -1.0562 -0.4143
 6294TIP3    H240518   3.547   0.917   5.655 -2.0594 -1.4385  0.1439
 6295TIP3   OH240519   6.164   6.810   0.736 -0.3389 -0.1267  0.1752
 6295TIP3    H140520   6.092   6.849   0.785  1.6518  1.9582  1.6847
 6295TIP3    H240521   6.199   6.742   0.793  0.6717  0.8854  0.8160
 6296TIP3   OH240522   4.288   3.013   0.789  0.1012  0.1823 -0.3562
 6296TIP3    H140523   4.269   3.072   0.716 -3.6602 -0.5446 -0.1592
 6296TIP3    H240524   4.283   2.925   0.751  0.9057 -0.1571  0.2782
 6297TIP3   OH240525   6.467   3.970   1.127  0.3276 -0.0394  0.2974
 6297TIP3    H140526   6.540   4.025   1.154 -0.6001  2.7380 -2.3292
 6297TIP3    H240527   6.495   3.929   1.046 -0.3142 -0.6424  0.3609
 6298TIP3   OH240528   6.007   1.086   5.903  0.7564 -0.1236 -0.1154
 6298TIP3    H140529   5.921   1.046   5.917  0.6022 -0.3321 -1.5017
 6298TIP3    H240530   6.011   1.102   5.808  1.5083  1.5740  0.1584
 6299TIP3   OH240531   0.076   6.621   7.268  0.5693 -0.1272 -0.1198
 6299TIP3    H140532   0.052   6.603   7.358  1.3722  1.4982  0.4620
 6299TIP3    H240533   0.164   6.584   7.258  0.0202 -1.3483 -0.6215
 6300TIP3   OH240534   4.471   1.601   6.418  0.3524 -0.6296 -0.5924
 6300TIP3    H140535   4.538   1.571   6.480 -0.9981  0.8406  1.7044
 6300TIP3    H240536   4.409   1.528   6.412  0.8395 -1.0359 -0.7852
 6301TIP3   OH240537   0.363   7.056   0.066 -0.1567 -0.0377  0.0643
 6301TIP3    H140538   0.337   7.139   0.107 -0.4466 -0.0396 -0.1148
 6301TIP3    H240539   0.316   7.054  -0.017  0.0453 -0.2662 -0.0471
 6302TIP3   OH240540   6.125   0.441   5.785  0.2439 -0.3561 -0.1645
 6302TIP3    H140541   6.044   0.444   5.835  1.2576  0.3163  1.5052
 6302TIP3    H240542   6.112   0.368   5.724 -1.2652 -0.8343  0.6673
 6303TIP3   OH240543   2.023   5.018   1.622 -0.1301  0.6605  0.3593
 6303TIP3    H140544   2.031   5.101   1.668  2.0172  0.1976  0.9337
 6303TIP3    H240545   2.052   5.037   1.532 -0.1586  0.6415  0.3458
 6304TIP3   OH240546   7.099   0.944   6.059  0.0277  0.0433 -1.1734
 6304TIP3    H140547   7.100   1.033   6.024 -2.7714  0.4884 -0.3977
 6304TIP3    H240548   7.023   0.903   6.018 -0.2656 -1.1157  0.4155
 6305TIP3   OH240549   6.066   0.224   1.975 -0.6197  0.3348 -0.3084
 6305TIP3    H140550   6.007   0.152   1.997 -0.7025  0.7716  0.9778
 6305TIP3    H240551   6.091   0.262   2.059  2.0114 -0.2064 -0.7550
 6306TIP3   OH240552   7.180   4.896   7.232 -0.4000 -0.2428  0.4711
 6306TIP3    H140553   7.246   4.865   7.293 -0.1955  0.7039  0.7452
 6306TIP3    H240554   7.216   4.978   7.197 -0.6747 -0.5771 -0.6393
 6307TIP3   OH240555   6.826   0.713   6.187 -0.0679 -0.1813 -0.4458
 6307TIP3    H140556   6.899   0.650   6.192  0.1774  0.1918  0.9968
 6307TIP3    H240557   6.753   0.669   6.230  0.3500  0.8008  1.3873
 6308TIP3   OH240558   2.889   0.766   6.428 -0.7847  0.6803 -0.1127
 6308TIP3    H140559   2.870   0.677   6.397  1.0088 -0.1763  1.1054
 6308TIP3    H240560   2.872   0.822   6.352 -1.7288 -0.7035 -0.9711
 6309TIP3   OH240561   1.708   7.127   6.966  0.2949 -0.3759 -0.0508
 6309TIP3    H140562   1.676   7.155   7.052 -1.3695 -0.7459 -0.5192
 6309TIP3    H240563   1.665   7.184   6.903  0.9591 -0.5614 -0.7016
 6310TIP3   OH240564   6.775   3.122   7.055 -0.1886 -0.1958 -0.1255
 6310TIP3    H140565   6.747   3.182   7.124  1.7033 -0.9899  1.4320
 6310TIP3    H240566   6.771   3.174   6.974 -0.7277  1.3060  0.8268
 6311TIP3   OH240567   3.921   0.885   7.543 -0.0619  0.0271 -0.1637
 6311TIP3    H140568   3.907   0.860   7.634  0.6671 -1.9551 -0.5617
 6311TIP3    H240569   4.001   0.938   7.545  0.3956 -0.6684  0.2514
 6312TIP3   OH240570   2.264   3.140   6.917  0.3780 -0.1235  0.1516
 6312TIP3    H140571   2.272   3.235   6.925 -0.4958 -0.0710  0.6337
 6312TIP3    H240572   2.257   3.124   6.823  0.0064  0.3485  0.0922
 6313TIP3   OH240573   2.854   2.053   6.205 -0.1760 -0.1116  0.2306
 6313TIP3    H140574   2.945   2.073   6.228  0.0294 -0.1372 -0.5100
 6313TIP3    H240575   2.846   2.084   6.115 -0.6355 -0.9348 -0.0224
 6314TIP3   OH240576   2.032   1.668   7.295 -0.2008  0.1532 -0.5205
 6314TIP3    H140577   2.110   1.616   7.276 -0.1344 -0.1055  0.4135
 6314TIP3    H240578   2.028   1.732   7.224 -1.4765 -2.3923 -2.9699
 6315TIP3   OH240579   0.368   0.836   6.309 -0.0708  0.0779 -0.4978
 6315TIP3    H140580   0.391   0.910   6.252 -0.0317  0.8650  0.5231
 6315TIP3    H240581   0.452   0.796   6.330 -0.0155  0.3059 -0.2911
 6316TIP3   OH240582   3.449   2.924   7.895  0.2419 -0.6208  0.1729
 6316TIP3    H140583   3.509   2.870   7.945 -0.5030 -1.5579  0.0820
 6316TIP3    H240584   3.363   2.905   7.933  0.1538  2.0828  1.5863
 6317TIP3   OH240585   3.972   3.506   6.795  0.3911  0.6837  0.0307
 6317TIP3    H140586   3.968   3.547   6.708  1.8216  1.7733  0.4327
 6317TIP3    H240587   4.064   3.513   6.820  0.4676 -1.7866  0.6513
 6318TIP3   OH240588   3.607   0.911   7.796  0.7934 -0.0222 -0.0852
 6318TIP3    H140589   3.598   0.973   7.869  1.9181  0.5081 -0.3658
 6318TIP3    H240590   3.694   0.873   7.808  0.3205 -1.1816 -0.2172
 6319TIP3   OH240591   0.676   0.672   5.949 -0.0825  0.0333 -0.2710
 6319TIP3    H140592   0.627   0.754   5.940  0.6637  0.6052  0.5598
 6319TIP3    H240593   0.721   0.662   5.866 -1.6697 -0.5708 -1.0894
 6320TIP3   OH240594   1.205   2.388   1.861 -0.4412 -0.3823  0.6437
 6320TIP3    H140595   1.159   2.433   1.931 -3.1249 -0.9354 -0.6165
 6320TIP3    H240596   1.219   2.455   1.794  0.0627 -0.3455  0.7848
 6321TIP3   OH240597   2.192   5.891   1.559  0.2156 -0.4560 -0.9371
 6321TIP3    H140598   2.169   5.833   1.632 -1.6180 -1.4632 -2.2129
 6321TIP3    H240599   2.224   5.832   1.491 -1.3883 -0.0006 -2.1459
 6322TIP3   OH240600   4.316   5.049   0.759  0.2567  0.2468  0.5933
 6322TIP3    H140601   4.377   5.114   0.794  2.5426 -1.0121 -0.8367
 6322TIP3    H240602   4.260   5.099   0.699 -0.3390  1.4565  2.0685
 6323TIP3   OH240603   6.419   0.262   1.400  0.0007  0.0394 -0.2360
 6323TIP3    H140604   6.409   0.209   1.321 -1.2715 -1.1260  0.6580
 6323TIP3    H240605   6.343   0.320   1.400 -0.5239 -0.6302  0.6021
 6324TIP3   OH240606   2.151   3.152   1.972  0.4911  0.9613 -0.2064
 6324TIP3    H140607   2.094   3.144   1.896  2.0484 -0.4315 -1.3145
 6324TIP3    H240608   2.127   3.078   2.029  2.8345 -1.3732 -1.9588
 6325TIP3   OH240609   5.862   6.134   1.558  0.4114 -0.0838  0.0456
 6325TIP3    H140610   5.912   6.093   1.629  0.2976 -0.4688 -0.0934
 6325TIP3    H240611   5.783   6.167   1.600  1.6219  2.3101  0.6727
 6326TIP3   OH240612   7.051   0.325   1.032 -0.3259  0.8032 -0.2127
 6326TIP3    H140613   7.086   0.357   0.948  0.2567  0.8926  0.0623
 6326TIP3    H240614   6.958   0.349   1.029 -0.8989 -1.2598 -1.8443
 6327TIP3   OH240615   6.814   6.952   6.763  0.1727 -0.1160  0.3719
 6327TIP3    H140616   6.825   7.000   6.845 -1.9627  0.7528  0.1911
 6327TIP3    H240617   6.806   6.860   6.790  0.7939  0.0031  0.9932
 6328TIP3   OH240618   3.919   6.260   1.576  0.5478 -0.0000  0.7612
 6328TIP3    H140619   3.841   6.267   1.632  1.5162 -1.1252  2.3253
 6328TIP3    H240620   3.990   6.242   1.637  1.5522 -2.0018 -0.8908
 6329TIP3   OH240621   1.626   2.229   0.147 -0.1294  0.1758 -0.0006
 6329TIP3    H140622   1.650   2.167   0.079  2.1573  0.4518  0.4572
 6329TIP3    H240623   1.703   2.285   0.157 -1.2147  1.5465  1.2866
 6330TIP3   OH240624   1.570   0.290   7.391 -0.3793  0.0434  0.0168
 6330TIP3    H140625   1.478   0.289   7.415 -0.6786  1.8199 -0.9101
 6330TIP3    H240626   1.615   0.255   7.468 -1.6882  0.7541  1.1511
 6331TIP3   OH240627   6.858   6.042   6.918 -0.0429 -0.2586 -0.1098
 6331TIP3    H140628   6.937   6.086   6.950  0.4120 -1.3739  0.3716
 6331TIP3    H240629   6.882   6.012   6.831 -0.1675 -0.0032 -0.2306
 6332TIP3   OH240630   0.379   5.161   7.187 -0.5528 -0.2151 -0.1867
 6332TIP3    H140631   0.288   5.151   7.214 -0.6119  0.2010 -0.2239
 6332TIP3    H240632   0.391   5.256   7.177 -0.1806 -0.2824 -0.4020
 6333TIP3   OH240633   0.507   6.549   0.193  0.4731  0.1630  0.1339
 6333TIP3    H140634   0.570   6.481   0.167  0.3849 -0.8456  2.3081
 6333TIP3    H240635   0.556   6.631   0.185  0.9591 -0.2380 -1.4119
 6334TIP3   OH240636   3.763   5.232   1.651  0.1758 -0.1123  0.2020
 6334TIP3    H140637   3.702   5.288   1.697  0.6710  0.2359  0.4446
 6334TIP3    H240638   3.817   5.292   1.599 -1.4229 -0.5910 -2.1517
 6335TIP3   OH240639   3.956   6.057   1.147 -0.2311  0.2310 -0.5356
 6335TIP3    H140640   3.900   6.103   1.085 -1.8797 -0.8614  0.0787
 6335TIP3    H240641   3.976   5.974   1.105 -3.0171 -1.4059  1.0468
 6336TIP3   OH240642   3.829   6.935   0.544 -0.0871  0.1649  0.0023
 6336TIP3    H140643   3.865   6.850   0.565  0.4881  0.3819 -0.0985
 6336TIP3    H240644   3.760   6.949   0.609  1.1504  0.4989  1.2932
 6337TIP3   OH240645   1.082   2.493   6.621  0.0528 -0.4734  0.6352
 6337TIP3    H140646   1.118   2.418   6.670 -0.1682  0.0888  1.7009
 6337TIP3    H240647   1.154   2.557   6.620  0.1564 -0.5999 -0.0497
 6338TIP3   OH240648   0.101   4.910   1.955  0.0353  0.4887 -0.0127
 6338TIP3    H140649   0.127   4.871   2.039 -2.9327  3.7363  2.7089
 6338TIP3    H240650   0.037   4.848   1.920  1.0667 -0.7604  0.2035
 6339TIP3   OH240651   6.647   5.025   1.636 -0.2070  0.0228  0.0897
 6339TIP3    H140652   6.699   5.053   1.712  0.3402 -1.7138  0.3866
 6339TIP3    H240653   6.576   4.974   1.672 -0.3798 -0.1865 -0.5286
 6340TIP3   OH240654   1.350   4.005   1.471  0.6359  0.4354 -0.2853
 6340TIP3    H140655   1.394   4.024   1.553 -0.8072 -0.6831  0.7954
 6340TIP3    H240656   1.414   3.956   1.420  0.8555 -0.7027  1.0305
 6341TIP3   OH240657   3.808   0.557   6.735  0.4866 -0.4614  0.1553
 6341TIP3    H140658   3.849   0.541   6.650  0.1571  0.9363 -0.2997
 6341TIP3    H240659   3.731   0.500   6.736 -0.0873  0.2638 -0.9481
 6342TIP3   OH240660   1.047   4.559   0.844 -0.0192 -0.1762 -0.4078
 6342TIP3    H140661   0.964   4.599   0.820  1.2635  1.4595 -2.3879
 6342TIP3    H240662   1.074   4.605   0.924 -0.0209  0.7783 -0.9473
 6343TIP3   OH240663   4.778   2.616   6.749 -0.3961 -0.1979  0.3301
 6343TIP3    H140664   4.776   2.702   6.791  1.3557  0.4160 -0.7521
 6343TIP3    H240665   4.786   2.554   6.822 -0.4050  0.6295  1.0494
 6344TIP3   OH240666   0.484   3.187   6.146 -0.1796  0.3234  0.3568
 6344TIP3    H140667   0.526   3.107   6.176 -0.8541 -0.1487  0.0841
 6344TIP3    H240668   0.529   3.209   6.065 -0.0910  0.1373  0.3549
 6345TIP3   OH240669   2.644   2.779   1.033  0.3853  0.0547 -0.0979
 6345TIP3    H140670   2.613   2.690   1.046 -2.4251  0.9401  0.1397
 6345TIP3    H240671   2.628   2.798   0.941  1.3749  0.1975 -0.2528
 6346TIP3   OH240672   5.158   0.578   1.545 -0.2528 -0.7277  0.1410
 6346TIP3    H140673   5.246   0.564   1.510 -0.3337 -0.0396 -0.3370
 6346TIP3    H240674   5.166   0.555   1.638  0.9595  1.3552  0.6072
 6347TIP3   OH240675   2.089   3.757   7.001  0.2226 -0.6118  0.5457
 6347TIP3    H140676   2.167   3.722   7.043  0.1930 -0.2487  0.9161
 6347TIP3    H240677   2.117   3.782   6.913  0.3037 -1.3140  0.3714
 6348TIP3   OH240678   6.268   6.823   6.565 -0.2027  0.3790 -0.1545
 6348TIP3    H140679   6.301   6.896   6.512  2.8427 -0.9669 -0.3347
 6348TIP3    H240680   6.306   6.745   6.524 -0.4924 -0.9977  2.0540
 6349TIP3   OH240681   4.430   6.688   0.211 -0.3859  0.1220 -0.0305
 6349TIP3    H140682   4.353   6.660   0.163 -0.1383  0.6420 -0.7369
 6349TIP3    H240683   4.504   6.662   0.156 -0.0265 -0.6377  0.7705
 6350TIP3   OH240684   6.714   2.731   6.452  0.3413  0.0152  0.1041
 6350TIP3    H140685   6.710   2.693   6.365  0.4280  0.7459 -0.2271
 6350TIP3    H240686   6.793   2.694   6.491  1.1040  0.7803 -0.6663
 6351TIP3   OH240687   1.430   2.673   2.001  0.1717  0.3160 -0.2631
 6351TIP3    H140688   1.416   2.579   1.987 -1.4801  0.7748 -2.3370
 6351TIP3    H240689   1.506   2.678   2.058  0.7044 -2.2645 -0.6144
 6352TIP3   OH240690   6.996   2.965   1.859  0.3173 -0.2191  0.3359
 6352TIP3    H140691   6.935   2.991   1.928  1.6904  0.7250  1.2509
 6352TIP3    H240692   7.080   2.958   1.903  1.2401  0.4193 -1.2521
 6353TIP3   OH240693   3.743   6.099   7.889 -0.1532  0.1942 -0.2654
 6353TIP3    H140694   3.691   6.039   7.942  0.6508  0.5638  1.0011
 6353TIP3    H240695   3.809   6.043   7.848 -0.3597 -0.0006 -0.3342
 6354TIP3   OH240696   0.549   5.363   1.127 -0.2745 -0.1417 -0.3450
 6354TIP3    H140697   0.618   5.347   1.062  1.5108 -1.0051  1.6384
 6354TIP3    H240698   0.596   5.374   1.209 -2.4574  0.8267  0.8532
 6355TIP3   OH240699   7.129   1.286   6.753  0.0783 -0.4138 -0.1269
 6355TIP3    H140700   7.036   1.265   6.765 -0.0927  0.7345  0.8509
 6355TIP3    H240701   7.142   1.287   6.659 -0.6975 -1.4069 -0.2626
 6356TIP3   OH240702   3.846   4.533   1.821 -0.1468 -0.2216  0.5254
 6356TIP3    H140703   3.805   4.619   1.834 -0.0183 -0.2918  1.4858
 6356TIP3    H240704   3.806   4.500   1.741  0.8786  1.3454 -0.6948
 6357TIP3   OH240705   5.803   4.194   1.984  0.8242 -0.3375  0.0510
 6357TIP3    H140706   5.850   4.122   1.942  0.3532 -0.6730  0.0846
 6357TIP3    H240707   5.715   4.189   1.947  0.9947  0.7069 -0.5189
 6358TIP3   OH240708   1.557   1.314   6.142 -0.2850 -0.0690  0.7522
 6358TIP3    H140709   1.562   1.220   6.124  0.5047 -0.0858  1.0273
 6358TIP3    H240710   1.497   1.348   6.076  1.4203 -0.3651 -1.0203
 6359TIP3   OH240711   3.848   6.693   0.879 -0.3525 -0.1663  0.0934
 6359TIP3    H140712   3.791   6.663   0.808  1.3640 -0.1306 -1.3665
 6359TIP3    H240713   3.933   6.653   0.860 -0.0412 -0.9484  2.6991
 6360TIP3   OH240714   0.870   5.507   1.012 -0.2712 -0.2416  0.2801
 6360TIP3    H140715   0.796   5.568   1.013  0.0371  0.1885 -1.0087
 6360TIP3    H240716   0.946   5.561   1.032 -0.1669 -0.4862  0.5583
 6361TIP3   OH240717   6.444   5.193   7.767  0.1480 -0.2748 -0.3266
 6361TIP3    H140718   6.440   5.289   7.764 -1.1760 -0.3101  0.0617
 6361TIP3    H240719   6.368   5.166   7.818  1.2064 -1.4966  0.6908
 6362TIP3   OH240720   5.601   6.580   6.653  0.0151  0.3296 -0.3478
 6362TIP3    H140721   5.642   6.666   6.665  0.4706 -0.1180  1.7080
 6362TIP3    H240722   5.522   6.598   6.602  0.0782  1.9832  0.0898
 6363TIP3   OH240723   6.291   3.022   1.389 -0.3186 -0.3797 -0.2415
 6363TIP3    H140724   6.272   3.106   1.346  1.1439  0.3214  0.4058
 6363TIP3    H240725   6.310   2.962   1.317 -0.1945  0.1606 -0.6727
 6364TIP3   OH240726   3.997   6.009   7.518  0.0928 -0.4597  0.0600
 6364TIP3    H140727   4.072   6.068   7.509  0.3189 -0.7105  0.2609
 6364TIP3    H240728   3.982   6.002   7.613 -0.1525 -0.4502  0.0232
 6365TIP3   OH240729   2.440   1.830   1.368 -0.0638 -0.2722 -0.5039
 6365TIP3    H140730   2.364   1.797   1.321 -0.9409  2.7111 -1.4359
 6365TIP3    H240731   2.515   1.804   1.314 -0.8316  0.5278 -2.0079
 6366TIP3   OH240732   4.348   5.512   7.439 -0.3237  0.3285  0.7528
 6366TIP3    H140733   4.373   5.599   7.408 -1.5097  0.5265  0.2853
 6366TIP3    H240734   4.277   5.529   7.502 -2.8675 -0.3839 -1.6980
 6367TIP3   OH240735   7.086   6.425   2.319 -0.2217  0.4197  0.4387
 6367TIP3    H140736   7.081   6.504   2.266 -2.3600  0.0182 -0.0553
 6367TIP3    H240737   7.029   6.362   2.274 -0.0904 -0.7671  1.8404
 6368TIP3   OH240738   6.053   6.242   1.222 -0.3133 -0.0187 -0.4832
 6368TIP3    H140739   6.127   6.291   1.187  0.4762 -1.1520 -0.4628
 6368TIP3    H240740   6.018   6.298   1.292 -0.0737  0.9504 -1.1221
 6369TIP3   OH240741   0.914   4.576   7.502 -0.1534  0.4080 -0.0877
 6369TIP3    H140742   0.991   4.548   7.552  0.2541  0.9960 -0.3702
 6369TIP3    H240743   0.888   4.500   7.451 -0.0571  0.0572  0.3853
 6370TIP3   OH240744   5.989   4.984   0.121 -0.3359 -0.2690  0.0949
 6370TIP3    H140745   6.009   4.977   0.214 -1.9102 -1.5276  0.3656
 6370TIP3    H240746   5.970   5.077   0.108  0.3276 -0.0006  0.9166
 6371TIP3   OH240747   3.392   1.823   0.199  0.0069 -0.1887  0.6261
 6371TIP3    H140748   3.430   1.831   0.287  0.6293  1.3008  0.2629
 6371TIP3    H240749   3.302   1.854   0.209  0.6841  2.0308  0.3853
 6372TIP3   OH240750   5.990   5.676   5.737 -0.2921 -0.4536  0.6319
 6372TIP3    H140751   5.907   5.721   5.724 -0.7155 -1.7025 -1.4361
 6372TIP3    H240752   6.056   5.737   5.704 -0.6598 -0.5365 -0.2771
 6373TIP3   OH240753   0.279   2.202   6.216  0.1843 -0.1365 -0.1405
 6373TIP3    H140754   0.355   2.188   6.272 -0.2857  1.5979  1.0215
 6373TIP3    H240755   0.307   2.173   6.129  1.9732 -0.0685  0.3708
 6374TIP3   OH240756   6.335   1.023   0.921 -0.3483 -0.5543  0.3661
 6374TIP3    H140757   6.387   0.951   0.957 -0.8171 -0.5186  1.1295
 6374TIP3    H240758   6.352   1.096   0.980  0.2965  0.0355 -0.5253
 6375TIP3   OH240759   6.726   6.166   1.688  0.2953  0.0226 -0.4037
 6375TIP3    H140760   6.768   6.252   1.685 -0.3714  0.3371 -0.9359
 6375TIP3    H240761   6.758   6.121   1.609  0.5970 -0.1980 -0.1573
 6376TIP3   OH240762   5.793   6.283   0.816  0.1060  0.1040 -0.1296
 6376TIP3    H140763   5.834   6.198   0.830 -1.6740 -1.0224 -1.3752
 6376TIP3    H240764   5.714   6.281   0.870 -1.8497 -0.5677 -2.8049
 6377TIP3   OH240765   2.696   2.006   6.436 -0.0999 -0.3450  0.2084
 6377TIP3    H140766   2.730   2.037   6.352 -2.3113  0.8416 -0.3301
 6377TIP3    H240767   2.769   2.013   6.496  0.3828  3.1911 -0.5956
 6378TIP3   OH240768   5.941   2.881   6.697 -0.1042  0.4021 -0.5654
 6378TIP3    H140769   6.018   2.825   6.694  0.0703  0.5999 -0.0835
 6378TIP3    H240770   5.869   2.826   6.670 -0.9546 -1.8369  4.8752
 6379TIP3   OH240771   2.417   1.474   0.339  0.0082  0.8766  0.1789
 6379TIP3    H140772   2.490   1.414   0.348  0.1743  1.1845  0.9753
 6379TIP3    H240773   2.383   1.484   0.428  0.8534  3.0159  0.3199
 6380TIP3   OH240774   0.717   5.226   6.153 -0.4862  0.0616 -0.4742
 6380TIP3    H140775   0.690   5.177   6.231 -4.5040  1.7529 -0.5720
 6380TIP3    H240776   0.703   5.165   6.081 -1.9766  0.1403 -0.2801
 6381TIP3   OH240777   5.233   6.241   7.396  0.6439 -0.5655  0.2630
 6381TIP3    H140778   5.250   6.322   7.348  0.4122 -0.6435  0.0482
 6381TIP3    H240779   5.144   6.250   7.429  0.0267 -1.3609 -1.0569
 6382TIP3   OH240780   5.624   3.376   1.450  0.6577  0.1275 -0.4485
 6382TIP3    H140781   5.588   3.342   1.532  0.8543  0.2897 -0.2920
 6382TIP3    H240782   5.548   3.394   1.395  0.5516 -0.7157 -0.5974
 6383TIP3   OH240783   6.067   2.356   0.329 -0.1964  0.2185  0.2738
 6383TIP3    H140784   6.146   2.396   0.365  0.7429  0.3798 -1.8569
 6383TIP3    H240785   6.000   2.372   0.396  1.5705 -0.1414  2.2593
 6384TIP3   OH240786   2.793   6.925   0.924  0.1023  0.3375  0.1942
 6384TIP3    H140787   2.864   6.939   0.985 -0.0075 -0.3293  0.4863
 6384TIP3    H240788   2.799   6.998   0.862  1.2169  0.1398  0.0402
 6385TIP3   OH240789   2.162   5.486   0.239 -0.1613  0.0342  0.3149
 6385TIP3    H140790   2.106   5.408   0.235  1.2387 -0.9666 -1.9072
 6385TIP3    H240791   2.133   5.539   0.164 -1.3972  1.9650  2.0500
 6386TIP3   OH240792   2.959   3.851   0.855  0.0325 -0.3686  0.0490
 6386TIP3    H140793   2.929   3.821   0.942 -0.1741  1.6311  0.7138
 6386TIP3    H240794   2.882   3.842   0.799 -0.4227  0.1946  0.5726
 6387TIP3   OH240795   4.720   2.218   1.398  0.2589 -0.0146  0.1889
 6387TIP3    H140796   4.701   2.258   1.313 -0.5975 -1.2614 -0.2386
 6387TIP3    H240797   4.807   2.249   1.421 -0.1818  1.6834 -0.3394
 6388TIP3   OH240798   0.239   6.727   6.896  0.1726  0.3449 -0.1917
 6388TIP3    H140799   0.311   6.776   6.856  0.0176  2.7468  2.1933
 6388TIP3    H240800   0.162   6.784   6.885 -0.1204  0.5206  2.2312
 6389TIP3   OH240801   2.539   6.099   1.810  0.4589  0.2963  0.0330
 6389TIP3    H140802   2.515   6.017   1.853  1.1170 -0.7373 -1.4607
 6389TIP3    H240803   2.599   6.142   1.870  0.7752 -0.7404  0.4697
 6390TIP3   OH240804   3.095   1.260   1.005  0.3222  0.4217 -0.4364
 6390TIP3    H140805   3.038   1.264   1.082  0.3592  0.8136 -0.4282
 6390TIP3    H240806   3.142   1.178   1.014 -0.3822 -0.0004 -0.5348
 6391TIP3   OH240807   0.268   4.714   7.093 -0.3649 -0.2811 -0.2885
 6391TIP3    H140808   0.314   4.657   7.032  0.1174  0.4561 -0.6305
 6391TIP3    H240809   0.177   4.713   7.063 -0.0275  0.5346 -1.3933
 6392TIP3   OH240810   6.111   2.653   7.927 -0.2750  0.0568 -0.1029
 6392TIP3    H140811   6.136   2.564   7.903  1.2127  0.6318 -0.8234
 6392TIP3    H240812   6.194   2.697   7.946 -1.0994  0.6900  2.5295
 6393TIP3   OH240813   0.407   2.372   7.957 -0.2362  0.1370  0.5160
 6393TIP3    H140814   0.404   2.338   8.047 -0.4255  0.3382  0.5881
 6393TIP3    H240815   0.478   2.436   7.958 -1.1676  1.2196  0.9195
 6394TIP3   OH240816   3.186   4.824   1.106 -0.3638 -0.8949  0.2650
 6394TIP3    H140817   3.215   4.891   1.167  0.8586  1.1132 -2.3560
 6394TIP3    H240818   3.092   4.839   1.097 -0.1500  0.3237 -0.0791
 6395TIP3   OH240819   2.448   7.134   7.353  0.0725  0.0972  0.0645
 6395TIP3    H140820   2.498   7.133   7.434 -0.6657 -0.9560  0.5257
 6395TIP3    H240821   2.375   7.193   7.370 -0.7781 -1.0833  0.6222
 6396TIP3   OH240822   0.070   1.461   1.745 -0.4696 -0.1775  0.2985
 6396TIP3    H140823   0.107   1.408   1.675 -1.1587  0.0476 -0.2484
 6396TIP3    H240824   0.120   1.436   1.823 -0.6096 -1.4474  0.0059
 6397TIP3   OH240825   6.613   4.580   0.620 -0.1115 -0.7635  0.0789
 6397TIP3    H140826   6.556   4.517   0.664  1.5536 -0.8665  2.2386
 6397TIP3    H240827   6.701   4.543   0.629  0.6813  0.9321 -0.3330
 6398TIP3   OH240828   1.402   2.674   0.589 -0.2512  0.3099 -0.5451
 6398TIP3    H140829   1.408   2.744   0.654 -2.2302  0.1274 -0.1025
 6398TIP3    H240830   1.401   2.720   0.505  2.7567  0.5292 -0.5842
 6399TIP3   OH240831   7.021   2.015   5.716  0.7456  0.0462 -0.0176
 6399TIP3    H140832   6.996   2.075   5.645  0.1770 -1.0618 -0.7737
 6399TIP3    H240833   7.117   2.014   5.714  0.7615 -1.2838 -1.9484
 6400TIP3   OH240834   1.109   1.011   0.804 -0.0415  0.3800  0.4578
 6400TIP3    H140835   1.114   0.916   0.799 -2.5693  0.2322 -1.6449
 6400TIP3    H240836   1.196   1.042   0.780  0.7884 -1.3826  1.0983
 6401TIP3   OH240837   1.277   0.183   0.241  0.3661  0.1827  0.1793
 6401TIP3    H140838   1.360   0.151   0.277  0.9314 -1.2572 -2.2205
 6401TIP3    H240839   1.215   0.111   0.254 -0.3461  0.9461  1.2296
 6402TIP3   OH240840   0.245   6.653   6.498  0.6943 -0.2119 -0.3992
 6402TIP3    H140841   0.167   6.697   6.532  1.4626  0.0813  1.0770
 6402TIP3    H240842   0.211   6.583   6.442 -0.6332 -0.4393  0.6419
 6403TIP3   OH240843   4.354   0.980   1.640  0.2924  0.1997  0.0072
 6403TIP3    H140844   4.432   1.018   1.600  1.7199 -1.5702  0.9835
 6403TIP3    H240845   4.351   0.890   1.608 -0.1681 -0.3662  1.5213
 6404TIP3   OH240846   4.519   0.574   6.603  0.0608  0.3786 -0.1845
 6404TIP3    H140847   4.556   0.494   6.565 -2.1627  0.2589 -2.3522
 6404TIP3    H240848   4.540   0.643   6.540 -2.2769  0.5048 -0.9188
 6405TIP3   OH240849   2.340   3.716   7.746  0.1034  0.0669 -0.3985
 6405TIP3    H140850   2.251   3.708   7.781  0.0903  2.6689  0.3327
 6405TIP3    H240851   2.384   3.776   7.807  2.3389 -1.0243 -0.8373
 6406TIP3   OH240852   6.521   5.780   7.258 -0.2144  0.2806  0.1867
 6406TIP3    H140853   6.592   5.780   7.194 -0.7273 -2.0113 -0.4543
 6406TIP3    H240854   6.442   5.763   7.206 -1.1161  1.7067  1.0280
 6407TIP3   OH240855   4.887   7.137   7.939  0.1672  0.3165 -0.4847
 6407TIP3    H140856   4.979   7.141   7.915  0.1034 -0.0131 -0.7896
 6407TIP3    H240857   4.880   7.194   8.016  1.2673 -2.1019  1.5409
 6408TIP3   OH240858   6.883   5.735   6.761 -0.3113  0.6554  0.0897
 6408TIP3    H140859   6.826   5.779   6.698 -0.3237  1.6189  0.7601
 6408TIP3    H240860   6.834   5.657   6.786 -1.8803  2.0083  1.4767
 6409TIP3   OH240861   2.170   2.465   7.167  0.0665 -0.2797 -0.1167
 6409TIP3    H140862   2.227   2.540   7.151 -0.7238  0.2553 -0.4750
 6409TIP3    H240863   2.153   2.428   7.080  1.3385 -1.5804  0.1294
 6410TIP3   OH240864   5.681   0.987   6.904  0.2986  0.4301 -0.4752
 6410TIP3    H140865   5.696   1.057   6.967  1.1255  0.8267 -1.0942
 6410TIP3    H240866   5.617   0.930   6.946  0.2205  1.1284  0.3709
 6411TIP3   OH240867   2.369   3.022   6.031  0.9243  0.4590 -0.1631
 6411TIP3    H140868   2.279   2.991   6.020  1.2879 -1.6684  1.9722
 6411TIP3    H240869   2.420   2.970   5.969  0.8535  0.6824 -0.4087
 6412TIP3   OH240870   2.391   1.177   6.577 -0.0864 -0.4444 -0.2222
 6412TIP3    H140871   2.410   1.096   6.624  1.1589 -0.1319 -0.1407
 6412TIP3    H240872   2.395   1.245   6.644  0.3920 -0.1490 -0.5435
 6413TIP3   OH240873   2.768   2.396   7.230  0.0968 -0.5126 -0.1677
 6413TIP3    H140874   2.694   2.448   7.198  1.1072  0.8777 -0.3553
 6413TIP3    H240875   2.775   2.324   7.168 -2.7174 -2.2749  1.3204
 6414TIP3   OH240876   4.352   3.013   6.984 -0.4102  0.2647  0.2019
 6414TIP3    H140877   4.402   3.074   7.038 -0.0024  0.1995 -0.0956
 6414TIP3    H240878   4.417   2.948   6.955 -0.9508 -0.6967  1.0551
 6415TIP3   OH240879   4.980   4.314   1.407  0.2883  0.3412  0.4334
 6415TIP3    H140880   4.994   4.245   1.472 -0.2003 -1.0958 -0.9092
 6415TIP3    H240881   5.069   4.342   1.384  0.4710  0.7542  1.5755
 6416TIP3   OH240882   1.637   5.314   5.946 -0.2120 -0.0600  0.5508
 6416TIP3    H140883   1.601   5.337   5.860  1.9246  0.0694 -0.3770
 6416TIP3    H240884   1.695   5.240   5.928 -0.5361 -0.7236  2.0939
 6417TIP3   OH240885   0.530   3.506   7.795 -0.3986  0.6619  0.1674
 6417TIP3    H140886   0.599   3.440   7.804 -0.3955  0.2912 -2.1225
 6417TIP3    H240887   0.462   3.477   7.857  0.4666 -0.3253  0.6896
 6418TIP3   OH240888   6.176   3.617   6.556  0.1895  0.3683  0.1576
 6418TIP3    H140889   6.232   3.558   6.605  0.7967  0.1423 -0.7877
 6418TIP3    H240890   6.234   3.659   6.492 -0.7925 -0.2961 -1.2355
 6419TIP3   OH240891   3.155   3.440   1.084 -0.1212 -0.7361 -0.2327
 6419TIP3    H140892   3.090   3.374   1.061  0.7149 -1.2155 -1.2736
 6419TIP3    H240893   3.213   3.396   1.146  0.5708 -1.0609 -1.1032
 6420TIP3   OH240894   4.266   6.623   7.963 -0.6023  0.0795 -0.3052
 6420TIP3    H140895   4.318   6.684   7.909  0.4337  0.7597  1.3728
 6420TIP3    H240896   4.318   6.542   7.964 -0.7909 -0.0467 -0.5904
 6421TIP3   OH240897   3.131   2.100   7.463 -0.0210  0.1827  0.3574
 6421TIP3    H140898   3.152   2.191   7.483  1.4383 -0.3943  1.5896
 6421TIP3    H240899   3.084   2.104   7.379  0.9946  1.9635 -0.1635
 6422TIP3   OH240900   6.876   5.438   5.922  0.1622 -0.3322 -0.4816
 6422TIP3    H140901   6.797   5.389   5.948 -0.9367  2.4069  1.8704
 6422TIP3    H240902   6.948   5.386   5.957 -0.9111 -0.6340  1.4773
 6423TIP3   OH240903   3.788   5.772   1.631  0.4030 -0.2338 -0.0452
 6423TIP3    H140904   3.701   5.783   1.671  0.7513 -2.2254  1.4107
 6423TIP3    H240905   3.780   5.692   1.578  1.8153 -1.5834  1.6668
 6424TIP3   OH240906   1.824   3.829   6.764 -0.3503 -0.0232 -0.0977
 6424TIP3    H140907   1.852   3.848   6.853 -0.7697 -0.3269  0.1043
 6424TIP3    H240908   1.787   3.912   6.732 -0.0210  0.1388 -0.0644
 6425TIP3   OH240909   3.559   2.478   7.240 -0.1371 -0.2479  0.3794
 6425TIP3    H140910   3.512   2.459   7.322 -0.1988  0.4919  0.5239
 6425TIP3    H240911   3.650   2.490   7.267 -0.2222  0.3913  0.4096
 6426TIP3   OH240912   1.316   6.686   1.265  0.0184  0.4939  0.2472
 6426TIP3    H140913   1.327   6.725   1.352  0.5221 -1.9255  1.3441
 6426TIP3    H240914   1.394   6.633   1.252 -0.9150 -0.6656 -0.8845
 6427TIP3   OH240915   0.339   5.210   5.916  0.0258 -0.0162 -0.1704
 6427TIP3    H140916   0.260   5.248   5.955  1.2176  0.5441  1.7920
 6427TIP3    H240917   0.375   5.279   5.862  0.9121  0.9261  1.5419
 6428TIP3   OH240918   1.118   3.113   0.732 -0.0471  0.8589  0.1561
 6428TIP3    H140919   1.193   3.130   0.675  1.1917  0.0107  1.4541
 6428TIP3    H240920   1.146   3.144   0.818 -0.3758 -1.2375  1.0844
 6429TIP3   OH240921   2.238   4.666   0.339  0.0117 -0.0866  0.5865
 6429TIP3    H140922   2.249   4.714   0.256  0.2949 -0.2561  0.5230
 6429TIP3    H240923   2.229   4.575   0.313  0.1155 -0.1423  0.7444
 6430TIP3   OH240924   2.950   6.829   6.686  0.1651 -0.0283 -0.3241
 6430TIP3    H140925   2.897   6.819   6.607  1.7628  1.3640 -1.6758
 6430TIP3    H240926   2.964   6.924   6.693  2.5966 -0.3267 -0.1962
 6431TIP3   OH240927   1.725   0.197   6.604  0.3812 -0.0336 -0.2795
 6431TIP3    H140928   1.786   0.139   6.559  0.9449  1.3458 -1.3909
 6431TIP3    H240929   1.780   0.267   6.640 -0.4232  0.6666 -0.3651
 6432TIP3   OH240930   2.438   2.583   1.091  0.2505  0.0954 -0.0514
 6432TIP3    H140931   2.433   2.495   1.054  1.0290 -0.2572  0.6558
 6432TIP3    H240932   2.378   2.635   1.037 -2.6549 -1.4951  1.3678
 6433TIP3   OH240933   1.550   1.606   7.760 -0.0260  0.5643  0.5581
 6433TIP3    H140934   1.550   1.511   7.750 -0.1201  0.6325 -0.1265
 6433TIP3    H240935   1.602   1.622   7.839 -0.4407 -0.0799  0.9680
 6434TIP3   OH240936   3.236   0.631   6.440  0.4018  0.7088  0.2684
 6434TIP3    H140937   3.233   0.543   6.402 -1.4107  0.6080  0.5740
 6434TIP3    H240938   3.198   0.688   6.374  2.1224  1.4093 -0.1749
 6435TIP3   OH240939   7.145   4.705   7.533  0.2213  0.0447  0.2494
 6435TIP3    H140940   7.090   4.629   7.553  0.1722 -0.0577 -0.2659
 6435TIP3    H240941   7.091   4.760   7.477 -0.3088  1.2018  1.8129
 6436TIP3   OH240942   4.075   7.017   0.713  0.4101 -0.4000 -0.0498
 6436TIP3    H140943   3.986   7.042   0.690  0.2801  0.0662  0.9035
 6436TIP3    H240944   4.131   7.067   0.654  0.0969  0.7780  0.6268
 6437TIP3   OH240945   4.018   1.313   7.151 -0.6009 -1.0978  0.1262
 6437TIP3    H140946   4.102   1.351   7.126 -0.4088 -1.6508 -0.0867
 6437TIP3    H240947   3.998   1.251   7.080 -2.1247  0.4090 -0.8490
 6438TIP3   OH240948   0.680   5.115   1.829  0.1177  0.1446 -0.0446
 6438TIP3    H140949   0.701   5.024   1.808  2.0965  0.4168  0.4756
 6438TIP3    H240950   0.600   5.134   1.780 -0.9115 -2.1457  0.6201
 6439TIP3   OH240951   0.549   1.630   6.397  0.3348  0.0526  0.1555
 6439TIP3    H140952   0.539   1.576   6.318  0.9027  1.3642 -0.8613
 6439TIP3    H240953   0.639   1.616   6.425  0.0347 -0.6683  0.7826
 6440TIP3   OH240954   1.350   0.396   0.075  0.5588 -0.6246 -0.2313
 6440TIP3    H140955   1.324   0.316   0.121 -0.1051 -1.2466 -1.6290
 6440TIP3    H240956   1.444   0.402   0.090  0.2995 -0.5676  1.5340
 6441TIP3   OH240957   7.090   1.674   0.871  0.4556 -0.1803  0.3203
 6441TIP3    H140958   7.073   1.581   0.887 -0.5702 -0.2989 -1.2742
 6441TIP3    H240959   7.009   1.718   0.897 -0.7069 -0.2316 -2.8419
 6442TIP3   OH240960   3.438   7.200   5.790 -0.1500 -0.0008 -0.1210
 6442TIP3    H140961   3.348   7.165   5.788  0.0338 -0.5309  0.6534
 6442TIP3    H240962   3.489   7.134   5.744 -0.2676  0.6667 -1.2405
 6443TIP3   OH240963   3.902   4.422   7.344  0.0278  0.1616 -0.5818
 6443TIP3    H140964   3.975   4.463   7.392  0.2003  0.1568 -0.8377
 6443TIP3    H240965   3.917   4.328   7.352 -1.3297  0.0592  1.5126
 6444TIP3   OH240966   5.576   2.510   6.104 -0.2643  0.3393 -0.2112
 6444TIP3    H140967   5.582   2.429   6.053  0.9893  0.2128  0.1047
 6444TIP3    H240968   5.532   2.572   6.045 -0.2924 -0.2748 -0.8504
 6445TIP3   OH240969   6.204   2.823   0.455 -0.7035  0.4290 -0.3250
 6445TIP3    H140970   6.273   2.773   0.412 -1.0854 -1.4572  1.1047
 6445TIP3    H240971   6.166   2.878   0.386  1.8431  1.1608 -1.2588
 6446TIP3   OH240972   5.595   3.062   5.425  0.5827  0.0685 -0.4710
 6446TIP3    H140973   5.563   2.990   5.479  2.1134  0.1524  0.6074
 6446TIP3    H240974   5.649   3.115   5.484  1.8605  0.4744 -1.9189
 6447TIP3   OH240975   1.236   0.134   7.488 -0.0557  0.4201 -0.1934
 6447TIP3    H140976   1.247   0.114   7.395  2.7336  0.8295 -0.0313
 6447TIP3    H240977   1.187   0.059   7.523  0.8452 -0.8723 -1.5786
 6448TIP3   OH240978   2.884   4.501   0.680 -0.1476 -0.3479 -0.0643
 6448TIP3    H140979   2.793   4.517   0.655 -0.1593 -1.9430 -1.1970
 6448TIP3    H240980   2.918   4.443   0.612  1.6416 -0.0258  0.5002
 6449TIP3   OH240981   0.812   7.185   6.783 -0.3744 -0.1858  0.6078
 6449TIP3    H140982   0.790   7.115   6.723 -0.0145  0.4672 -0.3207
 6449TIP3    H240983   0.895   7.157   6.823 -0.1432 -0.2165  0.1145
 6450TIP3   OH240984   4.028   1.495   0.494  0.2503 -0.2099 -0.0638
 6450TIP3    H140985   4.097   1.553   0.460  0.0398  1.0756  1.5573
 6450TIP3    H240986   3.955   1.507   0.434  0.8126 -0.1679 -0.7576
 6451TIP3   OH240987   6.777   5.502   7.967  0.5112 -0.8152 -0.1845
 6451TIP3    H140988   6.869   5.527   7.958  0.3251 -0.7542 -2.3771
 6451TIP3    H240989   6.753   5.531   8.056  1.4750  2.9604 -0.9847
 6452TIP3   OH240990   2.153   1.160   0.517  0.8896 -0.0627 -0.0255
 6452TIP3    H140991   2.073   1.108   0.507  1.6949 -1.4852  0.5010
 6452TIP3    H240992   2.147   1.197   0.605 -0.6814  2.6092 -1.1477
 6453TIP3   OH240993   5.099   5.400   1.807 -0.0238  0.2009  0.0160
 6453TIP3    H140994   5.018   5.446   1.832 -0.0084  0.6325 -0.7042
 6453TIP3    H240995   5.164   5.469   1.801 -0.0237  0.1184 -1.1892
 6454TIP3   OH240996   3.674   2.853   1.108  0.6660 -0.4384  0.4047
 6454TIP3    H140997   3.724   2.892   1.180 -0.9764 -0.7211  1.7517
 6454TIP3    H240998   3.684   2.759   1.121  0.4956 -0.4901  0.1675
 6455TIP3   OH240999   6.931   1.054   7.325  0.0384  0.1422  0.4925
 6455TIP3    H141000   6.849   1.092   7.356 -0.7707 -1.4116  0.3651
 6455TIP3    H241001   6.998   1.092   7.382 -0.7138  1.7038  0.3690
 6456TIP3   OH241002   3.890   4.851   2.151  0.0339 -0.0345  0.6141
 6456TIP3    H141003   3.925   4.799   2.224 -3.6668 -2.0407  1.1965
 6456TIP3    H241004   3.847   4.926   2.193 -0.3849 -0.1213  0.3500
 6457TIP3   OH241005   3.722   3.427   2.144 -0.4878  0.5125 -0.1255
 6457TIP3    H141006   3.805   3.413   2.190  0.4960 -0.7715 -2.1854
 6457TIP3    H241007   3.678   3.494   2.197  0.4505 -0.9681  2.7841
 6458TIP3   OH241008   4.001   7.067   5.555  0.2510  0.4253 -0.0335
 6458TIP3    H141009   3.942   7.009   5.508  0.5699  0.7502 -0.8508
 6458TIP3    H241010   3.949   7.102   5.627 -0.2060 -0.1718 -0.0686
 6459TIP3   OH241011   5.755   0.946   2.378 -0.1489 -0.6399  0.1209
 6459TIP3    H141012   5.787   0.858   2.359 -0.6297 -0.8533  0.2680
 6459TIP3    H241013   5.690   0.933   2.447 -0.1707 -0.1598  0.1949
 6460TIP3   OH241014   6.742   6.129   7.545 -0.1296 -0.1771  0.5524
 6460TIP3    H141015   6.752   6.201   7.608  2.6048 -1.4710  1.7896
 6460TIP3    H241016   6.717   6.172   7.463  0.2576  2.0526  1.5155
 6461TIP3   OH241017   0.082   4.888   0.330  0.1221  0.6375 -0.4358
 6461TIP3    H141018   0.173   4.918   0.321  0.0348  1.6442  1.4219
 6461TIP3    H241019   0.034   4.967   0.356 -0.9555 -0.2520  0.3384
 6462TIP3   OH241020   6.641   0.692   6.738  0.3644  0.3503  0.9510
 6462TIP3    H141021   6.552   0.678   6.770 -0.2332  1.9614  0.1155
 6462TIP3    H241022   6.630   0.749   6.662  1.8301 -2.1644 -1.3266
 6463TIP3   OH241023   1.107   2.732   0.585  0.1166  0.1622  0.2660
 6463TIP3    H141024   1.196   2.732   0.620 -0.0224  1.1039  0.6654
 6463TIP3    H241025   1.095   2.645   0.548  1.2059  0.0310  0.1995
 6464TIP3   OH241026   3.563   6.053   1.332  0.5513 -0.5564 -0.0877
 6464TIP3    H141027   3.516   6.114   1.389  0.2868 -0.6579 -0.1930
 6464TIP3    H241028   3.517   5.970   1.343  0.2983 -0.5061 -0.6742
 6465TIP3   OH241029   3.468   0.304   6.088 -0.0977 -0.5615  0.2219
 6465TIP3    H141030   3.377   0.276   6.079  0.6027 -2.9082 -0.2502
 6465TIP3    H241031   3.507   0.289   6.002  0.5527  1.3104  0.1403
 6466TIP3   OH241032   0.566   6.024   0.867  0.2903 -0.1388  0.0762
 6466TIP3    H141033   0.596   6.110   0.837 -0.7938  0.4113  0.5244
 6466TIP3    H241034   0.487   6.042   0.918  0.3759 -1.3519  0.6758
 6467TIP3   OH241035   7.169   3.637   1.480 -0.1801 -0.8594 -0.0630
 6467TIP3    H141036   7.128   3.619   1.564 -1.4218 -0.4419 -0.5514
 6467TIP3    H241037   7.213   3.721   1.491  1.6202 -1.8767  0.8260
 6468TIP3   OH241038   3.024   4.431   7.796 -0.7377  0.2884  0.1387
 6468TIP3    H141039   2.935   4.433   7.760 -1.3099 -2.2071  1.2279
 6468TIP3    H241040   3.043   4.522   7.817 -2.6901  1.0006 -0.9153
 6469TIP3   OH241041   1.600   4.625   7.626  0.1536 -0.3496 -0.5830
 6469TIP3    H141042   1.661   4.625   7.552 -0.4568  0.9860 -1.1097
 6469TIP3    H241043   1.609   4.712   7.664 -1.8556  0.0971 -1.0432
 6470TIP3   OH241044   2.153   3.264   0.406  0.2407  0.2012  0.2548
 6470TIP3    H141045   2.164   3.350   0.365 -0.1228  0.1068 -0.0434
 6470TIP3    H241046   2.156   3.202   0.334  0.6525 -0.0523  0.4854
 6471TIP3   OH241047   6.447   6.793   0.184 -0.1924 -0.2891 -0.2190
 6471TIP3    H141048   6.472   6.786   0.276  0.3268 -0.9442 -0.3999
 6471TIP3    H241049   6.512   6.741   0.137  0.8856  1.8142 -1.1992
 6472TIP3   OH241050   4.870   2.322   5.859 -0.3298 -0.4807 -0.6528
 6472TIP3    H141051   4.929   2.253   5.890  0.6740  1.2290  1.4467
 6472TIP3    H241052   4.787   2.276   5.843  0.6018 -2.3570 -0.4091
 6473TIP3   OH241053   6.930   0.173   2.103  0.5993 -0.8308  0.5415
 6473TIP3    H141054   6.998   0.134   2.048 -0.5077 -1.3608 -0.4943
 6473TIP3    H241055   6.941   0.267   2.090  2.4776 -0.7643  2.0774
 6474TIP3   OH241056   4.050   0.522   5.855  0.6483  0.4767  0.3566
 6474TIP3    H141057   3.958   0.545   5.862  0.4832 -0.0714  0.0320
 6474TIP3    H241058   4.050   0.437   5.812  1.3006  0.4190  0.4650
 6475TIP3   OH241059   1.895   0.461   0.833 -0.0816  0.3406  0.1640
 6475TIP3    H141060   1.804   0.463   0.859 -0.7297  0.6633 -1.8854
 6475TIP3    H241061   1.944   0.486   0.911 -1.6399 -1.0384  1.6296
 6476TIP3   OH241062   4.557   4.018   0.075  0.2118  0.3858 -0.0398
 6476TIP3    H141063   4.593   4.006  -0.012 -3.7279 -0.6238 -1.7494
 6476TIP3    H241064   4.588   3.943   0.125  0.4006 -0.4879 -1.4237
 6477TIP3   OH241065   4.677   2.982   7.355  0.4543 -0.0733 -0.3155
 6477TIP3    H141066   4.668   3.076   7.339  0.8873  0.0474  0.1296
 6477TIP3    H241067   4.591   2.955   7.387  0.9950  0.6629  1.9587
 6478TIP3   OH241068   0.841   3.947   0.069  0.4046 -0.3806  0.0545
 6478TIP3    H141069   0.886   3.907  -0.006 -0.2123 -0.3921 -0.3217
 6478TIP3    H241070   0.905   3.945   0.140  2.1892  2.5407 -1.2975
 6479TIP3   OH241071   3.521   2.016   7.642  0.2917 -0.0458 -0.4313
 6479TIP3    H141072   3.587   1.978   7.700  0.8946 -0.5881 -1.4451
 6479TIP3    H241073   3.571   2.073   7.583 -0.5340  1.9172  0.7061
 6480TIP3   OH241074   7.028   1.034   1.063 -0.1955  0.3075  0.2198
 6480TIP3    H141075   7.063   0.958   1.017  0.2119  0.4430  0.3008
 6480TIP3    H241076   7.106   1.084   1.090 -0.3618 -0.4853  2.3083
 6481TIP3   OH241077   0.746   1.645   2.099 -0.2690  0.3856  0.5834
 6481TIP3    H141078   0.733   1.678   2.188 -1.6607 -2.0593  1.3958
 6481TIP3    H241079   0.674   1.684   2.048 -0.0187  1.0644  0.7429
 6482TIP3   OH241080   2.993   1.025   7.072  0.2178 -0.9870 -0.1620
 6482TIP3    H141081   3.086   1.028   7.048  0.9551 -0.9400  2.3567
 6482TIP3    H241082   2.952   1.095   7.022  1.8723  0.0641 -0.1146
 6483TIP3   OH241083   4.643   2.797   1.936 -0.5063  0.1584  0.3807
 6483TIP3    H141084   4.640   2.855   1.860  2.1772  1.0416  0.8446
 6483TIP3    H241085   4.664   2.711   1.901 -1.5358  0.0751 -0.0535
 6484TIP3   OH241086   0.952   2.040   0.320 -0.0164  0.2998  0.4188
 6484TIP3    H141087   0.964   2.027   0.226  0.5657 -0.2379  0.5551
 6484TIP3    H241088   0.989   2.127   0.337  1.3297 -0.2388  0.3852
 6485TIP3   OH241089   3.347   1.079   6.380  0.3242 -0.1562 -0.7454
 6485TIP3    H141090   3.441   1.083   6.397  0.3784 -1.6190 -0.5384
 6485TIP3    H241091   3.309   1.045   6.462 -0.2524 -0.5987 -1.1896
 6486TIP3   OH241092   3.972   3.214   6.717 -0.8752 -0.2649  0.1186
 6486TIP3    H141093   4.041   3.205   6.782  0.8566 -0.2622 -1.6354
 6486TIP3    H241094   3.975   3.307   6.691  1.0753 -0.9517 -2.5890
 6487TIP3   OH241095   2.167   4.317   6.566  0.0042  0.2982 -0.3653
 6487TIP3    H141096   2.188   4.410   6.579 -2.4441  0.8363  0.3013
 6487TIP3    H241097   2.197   4.298   6.478  0.5296  1.7423 -0.5279
 6488TIP3   OH241098   1.241   2.098   0.235  0.2559 -0.1605  0.1693
 6488TIP3    H141099   1.173   2.115   0.170  1.4207  0.6738 -0.8779
 6488TIP3    H241100   1.281   2.183   0.251 -1.1464  0.0076  3.3895
 6489TIP3   OH241101   3.053   3.974   0.413  0.4526 -0.0244 -0.4522
 6489TIP3    H141102   3.041   4.055   0.462 -2.1963  0.1480 -1.1914
 6489TIP3    H241103   3.021   3.905   0.471  1.7447 -0.4281 -0.2029
 6490TIP3   OH241104   5.240   3.570   7.267  0.1401 -0.6731 -0.5044
 6490TIP3    H141105   5.309   3.635   7.264  0.4945 -0.8913  1.6193
 6490TIP3    H241106   5.171   3.610   7.321 -1.1701 -0.6953 -2.0786
 6491TIP3   OH241107   0.886   1.262   0.599  0.5279 -0.0457  1.0896
 6491TIP3    H141108   0.849   1.212   0.671 -0.1040  2.0426  2.3158
 6491TIP3    H241109   0.813   1.314   0.565  1.4163  1.0519  0.7836
 6492TIP3   OH241110   2.972   5.743   7.307  0.4579  0.3718  1.0855
 6492TIP3    H141111   2.961   5.800   7.383  2.1639 -0.3068  1.8762
 6492TIP3    H241112   3.003   5.660   7.343  0.0464 -0.3949 -0.2460
 6493TIP3   OH241113   3.127   5.437   1.273  0.2648 -0.0708  0.2880
 6493TIP3    H141114   3.105   5.505   1.209 -0.3126  0.5519  1.1362
 6493TIP3    H241115   3.124   5.356   1.223  0.9206  0.5114 -0.7327
 6494TIP3   OH241116   4.956   1.192   7.970 -0.2534  0.3236  0.7653
 6494TIP3    H141117   4.966   1.287   7.978  1.6695  0.4196 -1.6271
 6494TIP3    H241118   4.982   1.173   7.880 -2.2445 -2.3124  0.6482
 6495TIP3   OH241119   2.124   0.150   6.870 -0.0715  0.0814 -0.3449
 6495TIP3    H141120   2.074   0.226   6.899 -0.5949  0.2840 -1.7011
 6495TIP3    H241121   2.072   0.075   6.899  0.8955  0.1737  1.7873
 6496TIP3   OH241122   1.065   3.241   7.270  0.3017  0.4905  0.1505
 6496TIP3    H141123   1.039   3.151   7.292 -0.7647  0.9322  0.7560
 6496TIP3    H241124   1.159   3.234   7.254  0.0928 -0.8962 -0.6991
 6497TIP3   OH241125   6.525   6.088   0.967  0.3917 -0.4358 -0.1733
 6497TIP3    H141126   6.545   6.064   0.876 -0.1799  0.5281 -0.5628
 6497TIP3    H241127   6.595   6.046   1.018  0.1318 -1.8692 -0.9310
 6498TIP3   OH241128   5.919   6.484   6.218  0.1910  0.3758  0.0105
 6498TIP3    H141129   5.925   6.389   6.204 -0.7137  0.4444 -0.8995
 6498TIP3    H241130   5.870   6.517   6.143  0.2383  1.5324  0.4666
 6499TIP3   OH241131   3.369   7.052   2.118  0.4034  0.4181 -0.5224
 6499TIP3    H141132   3.331   7.089   2.198  1.0782  1.0134 -0.4712
 6499TIP3    H241133   3.302   7.066   2.052  0.3630  1.0978 -0.3429
 6500TIP3   OH241134   5.303   3.816   6.012  0.3974  0.1060  0.1787
 6500TIP3    H141135   5.332   3.832   5.922 -0.9902  1.1308 -0.1117
 6500TIP3    H241136   5.218   3.774   6.003  0.1887  0.3432  1.0151
 6501TIP3   OH241137   0.331   5.197   1.138 -0.4729  0.2267 -0.2756
 6501TIP3    H141138   0.351   5.113   1.097  0.1958  0.1382  0.2186
 6501TIP3    H241139   0.404   5.254   1.112 -1.5006  1.0063 -1.5715
 6502TIP3   OH241140   5.102   2.599   1.912  0.0321 -0.5422 -0.1425
 6502TIP3    H141141   5.024   2.579   1.965  0.7004 -1.3854  0.5560
 6502TIP3    H241142   5.104   2.695   1.909  0.1181 -0.4460  1.6297
 6503TIP3   OH241143   3.255   0.797   0.932  0.5424 -0.5819  0.4376
 6503TIP3    H141144   3.324   0.795   0.998  1.0926  0.7024 -0.0664
 6503TIP3    H241145   3.190   0.859   0.966 -0.4734 -1.8818  0.9746
 6504TIP3   OH241146   0.325   5.405   6.171 -0.8901 -0.0059  0.2584
 6504TIP3    H141147   0.248   5.391   6.117 -1.6843 -1.3894  1.6812
 6504TIP3    H241148   0.309   5.489   6.215  1.0285  2.6535 -3.5607
 6505TIP3   OH241149   5.041   5.825   0.058 -0.0240 -0.0591  0.7363
 6505TIP3    H141150   4.961   5.857   0.100 -0.6722  0.0957 -0.5636
 6505TIP3    H241151   5.053   5.882  -0.017  0.6893 -0.7737  0.2962
 6506TIP3   OH241152   3.844   1.140   0.397  0.0245  0.3244 -0.3900
 6506TIP3    H141153   3.753   1.124   0.422  0.5123 -1.2212  0.5385
 6506TIP3    H241154   3.887   1.167   0.478  0.3471  1.3401 -0.8869
 6507TIP3   OH241155   6.554   6.292   5.944 -0.1845 -0.6807 -0.1374
 6507TIP3    H141156   6.526   6.381   5.920  3.3171  0.9769  1.2971
 6507TIP3    H241157   6.629   6.274   5.887  0.4954 -1.7988  1.0461
 6508TIP3   OH241158   7.005   6.445   6.399  0.1710  0.0785  0.1162
 6508TIP3    H141159   6.916   6.479   6.403 -0.1872 -0.9479  2.0177
 6508TIP3    H241160   7.006   6.391   6.320 -1.1417 -0.5366  0.4931
 6509TIP3   OH241161   1.004   6.846   7.225 -0.1404 -0.7541  0.5682
 6509TIP3    H141162   0.955   6.766   7.208 -0.0407 -1.2962  2.5975
 6509TIP3    H241163   0.937   6.914   7.230 -0.2994 -0.8252 -0.3546
 6510TIP3   OH241164   2.348   0.241   5.504  0.0533 -0.0410  0.2909
 6510TIP3    H141165   2.284   0.260   5.571  0.3478  1.2762  0.2151
 6510TIP3    H241166   2.433   0.255   5.546  0.2506  0.2436 -0.1854
 6511TIP3   OH241167   0.828   7.188   1.276 -0.6026  0.0647  0.0837
 6511TIP3    H141168   0.853   7.143   1.196  2.5318  0.9571  0.4531
 6511TIP3    H241169   0.832   7.120   1.344  0.4889  0.0801  0.0512
 6512TIP3   OH241170   0.672   2.136   7.763  0.5425 -0.5583 -0.0835
 6512TIP3    H141171   0.645   2.057   7.716 -1.7576  0.7954 -1.2065
 6512TIP3    H241172   0.628   2.207   7.717 -0.2836  1.0808  2.9713
 6513TIP3   OH241173   6.711   3.864   0.189  0.2932 -0.1847  0.2126
 6513TIP3    H141174   6.671   3.939   0.234 -0.9371 -2.2448  2.8498
 6513TIP3    H241175   6.642   3.832   0.131  0.0887 -0.4428  0.5931
 6514TIP3   OH241176   5.829   0.577   7.118  0.2969  0.0065  0.6825
 6514TIP3    H141177   5.890   0.650   7.127  1.3706 -0.9985  2.3412
 6514TIP3    H241178   5.748   0.608   7.157  0.4955  0.5711  0.6577
 6515TIP3   OH241179   4.111   3.485   1.930 -0.6519  0.1010 -0.2865
 6515TIP3    H141180   4.144   3.406   1.888 -0.5003  0.2252 -0.3995
 6515TIP3    H241181   4.149   3.483   2.018 -1.7397 -0.6645  0.1927
 6516TIP3   OH241182   4.711   3.152   0.504 -0.3788  0.6903  0.2999
 6516TIP3    H141183   4.676   3.067   0.479 -1.1538  0.2976  2.5359
 6516TIP3    H241184   4.663   3.176   0.583  2.8604  1.1617  2.2996
 6517TIP3   OH241185   2.194   0.560   1.542 -0.1287  0.6300 -0.2279
 6517TIP3    H141186   2.179   0.480   1.592 -0.0049  1.0733  0.5301
 6517TIP3    H241187   2.275   0.543   1.494 -1.1333 -0.4486 -1.6426
 6518TIP3   OH241188   5.492   7.166   6.522  0.4282 -0.4518  0.3002
 6518TIP3    H141189   5.472   7.158   6.428  0.1476  1.5074  0.1469
 6518TIP3    H241190   5.533   7.084   6.545  1.2772 -0.6557 -1.7517
 6519TIP3   OH241191   7.210   2.466   6.390 -0.0563  0.0015  0.2686
 6519TIP3    H141192   7.251   2.385   6.418 -1.2248 -1.6041 -2.3232
 6519TIP3    H241193   7.275   2.534   6.409  0.3964 -1.2270  3.8016
 6520TIP3   OH241194   6.002   0.268   2.262 -0.6334  0.1572  0.0338
 6520TIP3    H141195   6.005   0.350   2.310  1.0290  0.1367  0.0212
 6520TIP3    H241196   5.917   0.230   2.284 -1.0723  1.4703  0.6969
 6521TIP3   OH241197   0.667   6.197   1.139  0.2630  0.0596  1.0196
 6521TIP3    H141198   0.647   6.231   1.052  2.1863 -0.2893  0.3970
 6521TIP3    H241199   0.645   6.268   1.199 -2.7663 -0.2817  0.4983
 6522TIP3   OH241200   3.635   6.929   0.331 -0.4395 -0.3127 -0.7999
 6522TIP3    H141201   3.690   6.949   0.406 -0.2253 -1.0064 -0.7596
 6522TIP3    H241202   3.693   6.941   0.255  0.4399 -2.9448 -0.6748
 6523TIP3   OH241203   2.455   2.579   0.647 -0.1487 -0.2568  0.2778
 6523TIP3    H141204   2.441   2.485   0.657  0.0605 -0.3066  0.1129
 6523TIP3    H241205   2.546   2.593   0.673 -0.2849 -0.0471  0.6424
 6524TIP3   OH241206   3.289   1.816   1.399  0.0773 -0.1715 -0.1055
 6524TIP3    H141207   3.303   1.729   1.362 -1.2380 -0.6379  0.4244
 6524TIP3    H241208   3.216   1.805   1.460  0.8227  1.0198  1.0566
 6525TIP3   OH241209   2.321   5.885   7.587 -0.0726  0.6360  0.6104
 6525TIP3    H141210   2.233   5.858   7.614 -0.0858 -0.6554 -0.5886
 6525TIP3    H241211   2.319   5.879   7.491  1.4728  0.0513  0.5901
 6526TIP3   OH241212   4.066   3.437   1.420 -0.3063  0.0156 -0.3614
 6526TIP3    H141213   4.156   3.406   1.407  0.1403  1.2726 -0.4043
 6526TIP3    H241214   4.020   3.408   1.341  0.4014  0.5395 -0.9791
 6527TIP3   OH241215   3.627   1.039   0.964  0.5296 -0.7112  0.1302
 6527TIP3    H141216   3.676   0.971   0.917  2.1251  0.1416  0.5074
 6527TIP3    H241217   3.642   1.020   1.056 -0.7152 -1.0244  0.2911
 6528TIP3   OH241218   4.585   3.459   7.527 -0.1158  0.4798 -0.3071
 6528TIP3    H141219   4.662   3.451   7.583 -0.7974 -0.0590  0.5698
 6528TIP3    H241220   4.589   3.549   7.494  0.4422  0.7213  0.3899
 6529TIP3   OH241221   1.731   5.641   0.116  0.1343 -0.2120 -0.4629
 6529TIP3    H141222   1.710   5.586   0.040 -2.9758 -0.8928  0.7705
 6529TIP3    H241223   1.682   5.604   0.188  1.3083  1.6947  1.4547
 6530TIP3   OH241224   3.428   1.996   6.433  0.4127 -0.0580 -0.3531
 6530TIP3    H141225   3.349   1.970   6.481  0.1975 -0.7798 -1.0701
 6530TIP3    H241226   3.419   2.091   6.421  1.2156  0.4354  2.3246
 6531TIP3   OH241227   2.139   1.228   1.601 -0.1077  0.0212  0.1087
 6531TIP3    H141228   2.171   1.176   1.675 -1.1873  1.2812  1.5135
 6531TIP3    H241229   2.179   1.186   1.524  1.7100 -0.8444  1.4292
 6532TIP3   OH241230   2.784   4.247   1.997  0.5703  0.0171  0.4125
 6532TIP3    H141231   2.716   4.286   2.053  0.9461  0.3417  0.6539
 6532TIP3    H241232   2.735   4.202   1.928  0.1082  0.4147  0.4663
 6533TIP3   OH241233   1.447   5.215   6.862 -0.1069  0.6351 -0.6368
 6533TIP3    H141234   1.500   5.142   6.894 -0.4262  1.0351  0.8723
 6533TIP3    H241235   1.389   5.237   6.935  1.9168  4.2460  0.2020
 6534TIP3   OH241236   6.997   7.189   5.621  0.1173 -0.0217  0.3893
 6534TIP3    H141237   6.939   7.266   5.616 -0.4636 -0.4830 -0.2442
 6534TIP3    H241238   7.085   7.224   5.606 -0.2755  0.3713 -1.1694
 6535TIP3   OH241239   4.125   6.667   6.245  0.4759 -0.2741 -0.1425
 6535TIP3    H141240   4.089   6.587   6.207  4.0080 -1.9247 -0.4620
 6535TIP3    H241241   4.194   6.693   6.184  1.1696  1.5045  1.3022
 6536TIP3   OH241242   3.128   6.003   7.974  0.3348 -0.3635  0.1090
 6536TIP3    H141243   3.080   6.019   8.055  0.6708 -1.6088  0.5839
 6536TIP3    H241244   3.120   5.909   7.960  1.2501 -0.3353 -0.6928
 6537TIP3   OH241245   4.614   4.492   6.182  0.3904  0.1553  0.0447
 6537TIP3    H141246   4.627   4.526   6.094  0.6151 -0.8893 -0.3380
 6537TIP3    H241247   4.687   4.528   6.233  0.8434 -0.0570 -0.4456
 6538TIP3   OH241248   1.993   2.261   0.907  0.4297 -0.0513 -0.4361
 6538TIP3    H141249   1.900   2.278   0.926  0.4235 -0.5437  0.0013
 6538TIP3    H241250   2.040   2.328   0.956  0.3886 -1.0054  0.9768
 6539TIP3   OH241251   4.005   6.355   0.786 -0.1930  0.2907  0.1525
 6539TIP3    H141252   4.024   6.343   0.693 -2.4749  1.2006 -0.5012
 6539TIP3    H241253   4.049   6.436   0.809 -0.0431  0.3365 -0.2810
 6540TIP3   OH241254   3.047   1.588   1.293 -0.2440  0.0869 -0.1360
 6540TIP3    H141255   3.034   1.682   1.289 -2.8680 -0.0418  2.0865
 6540TIP3    H241256   3.128   1.576   1.342  1.0798  1.0817 -1.9387
 6541TIP3   OH241257   4.770   1.030   7.464 -0.1012 -0.1503 -0.3241
 6541TIP3    H141258   4.750   0.985   7.382 -0.8734 -1.4230  0.5366
 6541TIP3    H241259   4.831   0.972   7.510 -0.1592  0.2507  0.2736
 6542TIP3   OH241260   1.090   1.576   1.037 -0.4523  0.5671 -0.2300
 6542TIP3    H141261   1.016   1.637   1.030 -1.2310 -0.4962 -1.9562
 6542TIP3    H241262   1.147   1.600   0.964  0.2328  0.4902  0.2713
 6543TIP3   OH241263   2.255   4.724   6.167 -0.0327  0.0987  0.3262
 6543TIP3    H141264   2.309   4.754   6.095  2.2338  0.1432  1.9352
 6543TIP3    H241265   2.178   4.685   6.125  0.4869  1.4242 -2.0129
 6544TIP3   OH241266   2.281   4.385   7.768 -0.2912  0.2750 -0.1032
 6544TIP3    H141267   2.349   4.429   7.818 -0.0464  1.1954 -1.2093
 6544TIP3    H241268   2.206   4.381   7.828  0.5927 -0.4750  1.0165
 6545TIP3   OH241269   3.757   7.202   7.915  0.1109  0.3168  0.2075
 6545TIP3    H141270   3.715   7.116   7.915 -0.4563  0.5650 -1.4406
 6545TIP3    H241271   3.846   7.185   7.945  0.1934 -0.9584 -0.6892
 6546TIP3   OH241272   7.089   2.305   6.767 -0.2754 -0.3856  0.1934
 6546TIP3    H141273   7.152   2.367   6.728  0.2681 -0.8104  0.3837
 6546TIP3    H241274   7.046   2.265   6.692  2.6523 -3.2035 -0.2069
 6547TIP3   OH241275   3.057   3.366   0.602  0.2671 -0.6187 -0.2609
 6547TIP3    H141276   2.972   3.328   0.619  0.7333 -1.3466  0.5278
 6547TIP3    H241277   3.062   3.442   0.661 -0.7729  0.9242 -2.0294
 6548TIP3   OH241278   1.291   0.056   6.806 -0.2851 -0.4044 -0.6762
 6548TIP3    H141279   1.262   0.066   6.896 -1.0221 -0.1482 -0.9337
 6548TIP3    H241280   1.288   0.144   6.769 -0.7858 -0.6315 -1.1869
 6549TIP3   OH241281   2.069   4.572   6.040  0.3044 -0.8195 -0.1296
 6549TIP3    H141282   1.976   4.549   6.032  0.1727  0.1343 -1.9759
 6549TIP3    H241283   2.098   4.583   5.949  1.4951  1.6402  0.4756
 6550TIP3   OH241284   6.733   5.528   6.849 -0.6938  0.3853  0.0967
 6550TIP3    H141285   6.737   5.478   6.930  2.4576 -0.5825 -0.5486
 6550TIP3    H241286   6.741   5.463   6.780  1.0110  1.5298 -0.8423
 6551TIP3   OH241287   2.504   6.940   1.392 -0.1670 -0.6412  0.9561
 6551TIP3    H141288   2.572   6.933   1.324 -0.5600 -0.6761  0.5648
 6551TIP3    H241289   2.553   6.962   1.472  0.1055  1.7356  0.2245
 6552TIP3   OH241290   2.372   5.923   6.785  0.4906 -0.5883 -0.0857
 6552TIP3    H141291   2.448   5.905   6.839 -0.3628  0.7451  1.6664
 6552TIP3    H241292   2.374   6.018   6.772 -1.8173 -0.2161  1.6060
 6553TIP3   OH241293   4.110   2.342   7.982  0.1717 -0.4362  0.0488
 6553TIP3    H141294   4.096   2.327   8.075  0.4275 -0.7138  0.0422
 6553TIP3    H241295   4.078   2.431   7.967  1.1057  0.0122  0.6189
 6554TIP3   OH241296   2.775   2.755   6.889 -0.1787  0.2296  0.0259
 6554TIP3    H141297   2.825   2.760   6.971  1.1328  0.7747 -0.7818
 6554TIP3    H241298   2.724   2.835   6.887  0.7780  0.8501 -0.2892
 6555TIP3   OH241299   6.515   6.261   6.486 -0.3836 -0.6478 -0.2876
 6555TIP3    H141300   6.450   6.260   6.416 -1.0134 -0.2452  0.2760
 6555TIP3    H241301   6.599   6.253   6.441 -0.6108  1.8261 -1.2765
 6556TIP3   OH241302   2.456   3.773   6.194 -0.6971  0.0957 -0.4948
 6556TIP3    H141303   2.362   3.768   6.212 -0.5812 -1.7617 -0.2328
 6556TIP3    H241304   2.472   3.701   6.133  0.4369  0.9139 -1.2098
 6557TIP3   OH241305   7.129   0.163   0.207 -0.5812 -0.2960 -0.1281
 6557TIP3    H141306   7.052   0.190   0.257 -1.0879 -1.3499 -0.3200
 6557TIP3    H241307   7.115   0.197   0.119 -1.2601 -1.2495 -0.3936
 6558TIP3   OH241308   3.241   1.359   6.680  0.1488 -0.1217  0.2098
 6558TIP3    H141309   3.323   1.408   6.685  0.5503 -0.7808  0.0532
 6558TIP3    H241310   3.225   1.348   6.586  0.1311 -0.4140  0.2462
 6559TIP3   OH241311   2.235   6.755   6.236  0.7407  0.7237  0.3946
 6559TIP3    H141312   2.310   6.770   6.178 -0.9111  0.5873 -1.9162
 6559TIP3    H241313   2.176   6.699   6.185  0.4934 -2.1137  3.3908
 6560TIP3   OH241314   4.390   4.142   0.830 -0.4898  0.4738  0.1908
 6560TIP3    H141315   4.388   4.055   0.871 -1.7095  1.0594  1.4572
 6560TIP3    H241316   4.427   4.127   0.744  0.7480 -1.0677  0.9449
 6561TIP3   OH241317   4.624   6.041   0.379 -0.1082  0.0876 -0.1797
 6561TIP3    H141318   4.559   6.065   0.445  1.7943  2.1924  1.0246
 6561TIP3    H241319   4.613   6.106   0.310  0.0008 -0.2278 -0.4975
 6562TIP3   OH241320   3.709   6.963   6.942  0.4791  0.0945  0.3128
 6562TIP3    H141321   3.724   6.870   6.959  1.5644  0.5208  1.9483
 6562TIP3    H241322   3.796   7.000   6.928 -0.0299  0.6538 -1.8037
 6563TIP3   OH241323   4.713   0.754   7.875  0.2497 -0.4898  0.9435
 6563TIP3    H141324   4.723   0.733   7.968  1.3538  0.4519  1.0692
 6563TIP3    H241325   4.619   0.767   7.863 -0.0772 -2.1004  1.5727
 6564TIP3   OH241326   3.911   1.283   6.830  0.1024 -0.6497 -0.4975
 6564TIP3    H141327   3.939   1.234   6.753 -1.3138  0.3740 -1.7211
 6564TIP3    H241328   3.937   1.228   6.904  1.4240 -1.6978 -1.6853
 6565TIP3   OH241329   0.037   6.695   0.713  0.5338 -0.6412 -0.7906
 6565TIP3    H141330   0.029   6.752   0.789 -0.4490  1.4334 -2.3709
 6565TIP3    H241331   0.019   6.607   0.747 -2.1579  0.4760  0.9820
 6566TIP3   OH241332   4.331   0.079   1.483  0.0661 -0.4339  0.2417
 6566TIP3    H141333   4.420   0.066   1.452 -0.0586 -2.2428  0.5331
 6566TIP3    H241334   4.319   0.014   1.552 -1.3884 -0.0401  0.4058
 6567TIP3   OH241335   5.957   7.152   1.783  0.1980 -0.0479  0.3153
 6567TIP3    H141336   5.910   7.230   1.755  0.8714 -0.4338 -2.1013
 6567TIP3    H241337   5.958   7.158   1.879 -0.2587  2.5942  0.2420
 6568TIP3   OH241338   1.424   7.104   6.162  0.2728  0.0484 -0.5685
 6568TIP3    H141339   1.471   7.171   6.212  2.9913 -1.0120 -1.5016
 6568TIP3    H241340   1.472   7.098   6.079  0.3556 -3.1940 -0.4164
 6569TIP3   OH241341   4.344   1.368   6.398  0.3300 -0.2690 -0.1236
 6569TIP3    H141342   4.261   1.327   6.420 -0.6779  2.0546  0.7702
 6569TIP3    H241343   4.332   1.399   6.308  0.2822 -0.0873 -0.0558
 6570TIP3   OH241344   1.232   4.784   6.478 -1.0484 -0.1468  0.5960
 6570TIP3    H141345   1.307   4.726   6.490 -0.9008 -0.2933 -0.8260
 6570TIP3    H241346   1.167   4.753   6.541  0.1417  0.1139  1.9904
 6571TIP3   OH241347   6.366   3.601   6.838 -0.1332 -0.4169  0.0475
 6571TIP3    H141348   6.372   3.689   6.799  0.5378 -0.4144  0.1402
 6571TIP3    H241349   6.457   3.575   6.850 -0.3298 -1.1647 -0.0603
 6572TIP3   OH241350   0.523   0.047   6.201 -0.2224 -0.7814 -0.7807
 6572TIP3    H141351   0.441   0.000   6.188  1.0549 -3.2934 -0.3052
 6572TIP3    H241352   0.570   0.038   6.118  0.4450 -1.1988 -0.3693
 6573TIP3   OH241353   4.513   6.373   6.839  0.4095 -0.4614  0.2269
 6573TIP3    H141354   4.432   6.420   6.859  0.7401  0.5258 -0.6483
 6573TIP3    H241355   4.581   6.440   6.843  1.2818 -1.3746  1.4503
 6574TIP3   OH241356   4.430   3.869   1.599 -0.1149 -0.2639 -0.2624
 6574TIP3    H141357   4.412   3.925   1.523 -0.1018  1.8411  1.2070
 6574TIP3    H241358   4.366   3.897   1.665  1.7783  0.1337  1.5237
 6575TIP3   OH241359   1.104   3.817   1.338 -0.3850 -0.8167 -0.6253
 6575TIP3    H141360   1.140   3.729   1.329  1.3473 -0.0364 -1.9828
 6575TIP3    H241361   1.179   3.875   1.322 -1.4911  0.9161  0.1550
 6576TIP3   OH241362   0.400   3.985   6.233  0.1582  0.5351 -0.1421
 6576TIP3    H141363   0.416   3.913   6.295  1.7849  0.8395 -0.1647
 6576TIP3    H241364   0.306   3.982   6.217  0.1467 -1.4975 -0.0153
 6577TIP3   OH241365   2.160   3.087   6.556 -0.8310 -0.0103  0.5489
 6577TIP3    H141366   2.221   3.031   6.604  0.8054 -0.1207 -1.5212
 6577TIP3    H241367   2.166   3.172   6.599  1.0451  0.0546  0.2495
 6578TIP3   OH241368   6.398   7.206   7.527  0.5817 -0.3975  0.1101
 6578TIP3    H141369   6.312   7.172   7.502  1.1030 -1.4725 -0.3077
 6578TIP3    H241370   6.380   7.267   7.598 -0.6330  0.2659 -0.7322
 6579TIP3   OH241371   4.937   1.204   1.151  0.0788  0.1116  0.8866
 6579TIP3    H141372   4.958   1.119   1.112 -1.1225  0.4688 -0.6211
 6579TIP3    H241373   4.861   1.185   1.207  0.2979  0.0648  1.1745
 6580TIP3   OH241374   6.467   1.736   6.271 -0.2233  0.1097 -0.6598
 6580TIP3    H141375   6.374   1.749   6.293 -0.2626  0.1529 -0.8533
 6580TIP3    H241376   6.489   1.810   6.214 -0.6205 -1.0078 -2.3176
 6581TIP3   OH241377   3.065   2.085   6.854 -0.3566 -0.3970  0.0396
 6581TIP3    H141378   3.111   2.131   6.924  0.7846 -1.2347 -0.1369
 6581TIP3    H241379   3.004   2.150   6.819 -1.8830 -0.3083  2.6084
 6582TIP3   OH241380   2.418   6.670   1.327  0.3028  0.1871  0.0281
 6582TIP3    H141381   2.410   6.687   1.233 -1.4893 -1.2591 -0.1572
 6582TIP3    H241382   2.413   6.756   1.368 -1.0402  0.7106 -1.1425
 6583TIP3   OH241383   3.619   0.148   6.309  0.2556 -0.1159  0.0372
 6583TIP3    H141384   3.574   0.101   6.380  0.1782 -1.4639 -0.8721
 6583TIP3    H241385   3.556   0.150   6.237  0.1483  1.6899  0.1298
 6584TIP3   OH241386   1.507   4.556   7.150  0.0103 -0.2622 -0.1574
 6584TIP3    H141387   1.599   4.529   7.157  1.2160  2.9706 -1.4774
 6584TIP3    H241388   1.508   4.626   7.085 -3.2642  0.6576  0.6146
 6585TIP3   OH241389   7.203   1.419   1.434 -0.5167  0.7009  0.6326
 6585TIP3    H141390   7.214   1.513   1.429  2.6210  0.3426 -2.2811
 6585TIP3    H241391   7.289   1.385   1.460 -0.6687 -1.4329 -1.2824
 6586TIP3   OH241392   6.344   6.938   7.208 -0.1407 -0.0343  0.3137
 6586TIP3    H141393   6.266   6.914   7.257 -0.0823 -0.7149  0.0813
 6586TIP3    H241394   6.383   7.009   7.259 -0.6213 -0.0487  0.7107
 6587TIP3   OH241395   2.450   2.682   7.868  0.3451 -0.3145  0.5630
 6587TIP3    H141396   2.445   2.771   7.902  0.7909 -0.2617  0.5048
 6587TIP3    H241397   2.533   2.680   7.820  0.0685 -0.6027  0.0961
 6588TIP3   OH241398   2.309   1.477   0.614 -0.4119  0.0147  0.4381
 6588TIP3    H141399   2.217   1.501   0.610 -0.2285  0.8679  1.0118
 6588TIP3    H241400   2.310   1.391   0.656 -0.9004  0.3233  1.0834
 6589TIP3   OH241401   5.128   2.160   6.296 -0.1414 -0.8376 -0.1856
 6589TIP3    H141402   5.221   2.172   6.313 -0.3609  1.1971 -0.1873
 6589TIP3    H241403   5.084   2.205   6.368 -1.1254 -0.9135 -0.7156
 6590TIP3   OH241404   2.390   5.728   7.133  0.5657  0.1356  0.6044
 6590TIP3    H141405   2.419   5.816   7.111 -0.5096  0.1522 -0.9480
 6590TIP3    H241406   2.436   5.671   7.070 -0.3303 -0.1571  0.1949
 6591TIP3   OH241407   0.815   6.010   2.008  0.1880 -0.0641  0.1398
 6591TIP3    H141408   0.853   6.042   1.927  0.1695 -0.5876 -0.0816
 6591TIP3    H241409   0.871   5.937   2.033 -1.0601 -1.3163 -0.5739
 6592TIP3   OH241410   3.501   3.689   1.353  0.0427 -0.6264 -1.0216
 6592TIP3    H141411   3.572   3.626   1.340  0.0868 -1.0165  0.8544
 6592TIP3    H241412   3.498   3.704   1.448  0.6072  2.8876 -1.4088
 6593TIP3   OH241413   6.304   6.105   0.607 -0.0406 -0.1625  0.3409
 6593TIP3    H141414   6.229   6.146   0.649  0.5128  0.0671  1.1377
 6593TIP3    H241415   6.306   6.016   0.642 -0.4011 -0.4114 -0.2798
 6594TIP3   OH241416   4.824   0.739   0.856  0.4768 -0.0367  0.5608
 6594TIP3    H141417   4.781   0.821   0.831  2.5214  1.2972  1.2148
 6594TIP3    H241418   4.905   0.737   0.806  1.1747 -0.9042  1.6612
 6595TIP3   OH241419   5.753   6.346   7.810  0.2983 -0.1908 -0.3804
 6595TIP3    H141420   5.767   6.310   7.722 -1.1916  1.6231 -1.4341
 6595TIP3    H241421   5.836   6.387   7.833  0.4993 -0.1104 -1.2288
 6596TIP3   OH241422   1.112   4.076   7.260 -0.0003 -0.0764  0.1951
 6596TIP3    H141423   1.041   4.139   7.247  0.6894  0.8888  0.9246
 6596TIP3    H241424   1.161   4.077   7.178  0.3049  0.7411  0.3801
 6597TIP3   OH241425   0.756   4.727   7.123 -0.1611 -0.2061  0.0553
 6597TIP3    H141426   0.766   4.635   7.151 -0.5881 -0.3068 -0.1256
 6597TIP3    H241427   0.690   4.763   7.182 -1.0908 -0.4247 -0.8178
 6598TIP3   OH241428   0.013   3.562   6.344 -0.5755 -0.4544 -0.0825
 6598TIP3    H141429   0.061   3.640   6.374 -1.2363  0.0544 -0.3262
 6598TIP3    H241430   0.059   3.489   6.384  1.2938 -0.0931 -1.4359
 6599TIP3   OH241431   4.395   6.305   1.233 -0.4201 -0.1066  0.0504
 6599TIP3    H141432   4.328   6.366   1.202 -1.5222 -1.1265  0.3594
 6599TIP3    H241433   4.433   6.349   1.310  0.3587  1.1482 -0.9967
 6600TIP3   OH241434   4.995   2.718   7.310 -0.1433 -0.6844 -0.0693
 6600TIP3    H141435   4.939   2.689   7.382  0.4554 -2.9164 -0.4264
 6600TIP3    H241436   4.964   2.668   7.235  0.2845  0.4209 -1.0066
 6601TIP3   OH241437   4.396   0.657   1.361 -0.8340  0.2144  0.1152
 6601TIP3    H141438   4.389   0.687   1.451  1.4692 -0.9067  0.7420
 6601TIP3    H241439   4.349   0.574   1.359  1.8406 -1.4587  1.2521
 6602TIP3   OH241440   0.663   0.717   1.292  0.2822 -0.0540  0.4561
 6602TIP3    H141441   0.583   0.769   1.289  0.0519 -0.3828  0.8092
 6602TIP3    H241442   0.728   0.770   1.246 -0.1963  0.1166 -0.0335
 6603TIP3   OH241443   3.683   4.452   6.687  0.5330 -0.8005 -0.2722
 6603TIP3    H141444   3.779   4.454   6.678  0.6320 -2.7606 -0.1636
 6603TIP3    H241445   3.664   4.515   6.756  1.4041  1.9790 -2.3801
 6604TIP3   OH241446   1.602   1.231   1.078 -0.3237  0.1940  0.6667
 6604TIP3    H141447   1.516   1.238   1.120 -0.6411  0.7827 -0.0428
 6604TIP3    H241448   1.583   1.240   0.985  0.2639 -1.8357  0.2935
 6605TIP3   OH241449   2.783   5.256   0.848 -0.1013 -0.2885 -0.3592
 6605TIP3    H141450   2.716   5.306   0.801 -0.3838 -1.1208 -0.8452
 6605TIP3    H241451   2.743   5.237   0.933 -0.8506 -1.5590 -0.9757
 6606TIP3   OH241452   4.025   3.897   6.123 -0.6222 -0.2141  0.0513
 6606TIP3    H141453   3.945   3.886   6.071  0.1388 -0.0169 -1.2027
 6606TIP3    H241454   3.993   3.919   6.211 -1.9497  0.9943 -0.6841
 6607TIP3   OH241455   2.670   4.518   7.238  0.6806  0.1451  0.0231
 6607TIP3    H141456   2.643   4.526   7.146  1.8440  0.9134 -0.2810
 6607TIP3    H241457   2.604   4.568   7.287 -1.4920 -2.4338 -0.0290
 6608TIP3   OH241458   1.011   2.337   6.135  0.0556 -0.5680 -0.5083
 6608TIP3    H141459   1.032   2.244   6.125 -1.4762 -1.0812  0.7417
 6608TIP3    H241460   1.009   2.351   6.229  1.0482  0.9480 -0.6770
 6609TIP3   OH241461   6.194   2.762   6.661  0.5368  0.1776 -0.7435
 6609TIP3    H141462   6.217   2.669   6.666 -1.3636 -0.3484 -0.9906
 6609TIP3    H241463   6.273   2.804   6.627  1.4804 -1.3245 -0.5062
 6610TIP3   OH241464   3.120   6.028   6.542 -0.1280 -0.0260  0.0001
 6610TIP3    H141465   3.203   6.075   6.554  0.2772 -1.3246  3.3801
 6610TIP3    H241466   3.138   5.966   6.471  1.4029  0.4910 -0.1094
 6611TIP3   OH241467   6.976   4.495   7.432 -0.7357 -0.2217 -0.2437
 6611TIP3    H141468   6.919   4.420   7.445  0.2944 -0.7203  1.8105
 6611TIP3    H241469   6.917   4.566   7.408 -1.8533 -1.3922 -1.0795
 6612TIP3   OH241470   2.348   0.672   7.909  0.1884  0.0850  0.0016
 6612TIP3    H141471   2.431   0.625   7.920  0.2237  0.3485  0.9543
 6612TIP3    H241472   2.367   0.761   7.937  0.5732  1.2175 -3.4162
 6613TIP3   OH241473   0.601   4.452   0.749  0.1205 -0.0883 -0.2002
 6613TIP3    H141474   0.543   4.383   0.716 -1.2032  0.9275 -0.0529
 6613TIP3    H241475   0.621   4.506   0.673 -0.6166  0.6065  0.0859
 6614TIP3   OH241476   0.218   6.239   6.958 -0.5180 -0.0337 -0.1208
 6614TIP3    H141477   0.157   6.312   6.953 -2.2341 -1.4383 -0.5919
 6614TIP3    H241478   0.200   6.187   6.880  0.2414 -1.2759  0.4958
 6615TIP3   OH241479   6.503   0.185   2.263 -0.4282 -0.5626 -0.4739
 6615TIP3    H141480   6.537   0.097   2.243  0.3429 -0.1672 -0.9589
 6615TIP3    H241481   6.528   0.238   2.187  0.3283  0.3911  0.4046
 6616TIP3   OH241482   6.663   5.186   6.435 -0.8621  0.3378  0.2165
 6616TIP3    H141483   6.637   5.130   6.362 -1.0426  1.1079 -0.3208
 6616TIP3    H241484   6.595   5.253   6.440 -0.8767  0.2710  1.1234
 6617TIP3   OH241485   0.886   4.326   6.274  0.7706  0.3436  0.0440
 6617TIP3    H141486   0.800   4.306   6.311  0.6149  0.3120 -0.3220
 6617TIP3    H241487   0.946   4.265   6.316  0.6155  0.3850  0.3236
 6618TIP3   OH241488   0.230   3.906   6.694  0.0881 -0.8800 -0.0414
 6618TIP3    H141489   0.187   3.990   6.678  2.9075  0.7134 -0.0294
 6618TIP3    H241490   0.250   3.906   6.787  0.8216 -1.1668 -0.1869
 6619TIP3   OH241491   5.522   4.960   1.190 -0.3661 -0.2918 -0.2842
 6619TIP3    H141492   5.436   5.002   1.197 -1.0356 -1.6427 -0.2248
 6619TIP3    H241493   5.515   4.880   1.242 -0.5104 -2.6880 -3.6802
 6620TIP3   OH241494   5.946   2.050   2.035  0.1133 -0.2240  0.0765
 6620TIP3    H141495   5.969   1.957   2.044  1.3136  0.1964  2.3371
 6620TIP3    H241496   6.008   2.095   2.093  0.2969  2.1284 -1.8046
 6621TIP3   OH241497   5.387   0.393   6.964  0.2188 -0.3970 -0.3786
 6621TIP3    H141498   5.302   0.349   6.975 -0.3171  0.2814 -1.6007
 6621TIP3    H241499   5.418   0.407   7.054 -0.8037 -0.9554  0.0831
 6622TIP3   OH241500   4.566   1.591   0.842  0.4775 -0.3057  0.0383
 6622TIP3    H141501   4.626   1.605   0.915 -0.9264  1.6491  0.9120
 6622TIP3    H241502   4.603   1.642   0.770  0.7751 -0.5383  0.0266
 6623TIP3   OH241503   2.829   3.300   7.813 -0.1082  0.1562 -0.4621
 6623TIP3    H141504   2.909   3.352   7.813  0.3722 -0.5124  1.2757
 6623TIP3    H241505   2.772   3.343   7.877 -0.6315 -0.0985 -0.7557
 6624TIP3   OH241506   7.198   6.928   1.163  0.0415 -0.4498 -0.4088
 6624TIP3    H141507   7.184   7.018   1.192 -0.3271 -0.7099  0.2324
 6624TIP3    H241508   7.170   6.874   1.237 -1.6204 -1.1524 -1.4989
 6625TIP3   OH241509   4.938   2.709   0.214 -0.8981  0.3478  0.0392
 6625TIP3    H141510   4.982   2.708   0.130  0.7284  2.4399  0.7773
 6625TIP3    H241511   4.997   2.662   0.273 -0.2487  1.9105  0.7121
 6626TIP3   OH241512   2.407   3.068   7.436 -0.5653 -0.2369 -0.0485
 6626TIP3    H141513   2.491   3.096   7.398 -1.3083 -1.2966 -2.6928
 6626TIP3    H241514   2.432   3.009   7.507  0.9126  2.6207  2.0293
 6627TIP3   OH241515   5.115   7.189   7.359 -0.5238  0.3783  0.2967
 6627TIP3    H141516   5.102   7.247   7.434 -0.7091 -2.3014  2.4859
 6627TIP3    H241517   5.029   7.150   7.344  0.1889 -1.5902  0.9687
 6628TIP3   OH241518   2.140   0.349   7.853 -0.0414  0.4948 -0.4351
 6628TIP3    H141519   2.135   0.388   7.940 -0.2270  2.5611 -1.3212
 6628TIP3    H241520   2.152   0.423   7.794 -0.4573 -0.8022 -2.2287
 6629TIP3   OH241521   3.107   5.538   7.734 -0.4208  0.2231 -0.1737
 6629TIP3    H141522   3.089   5.534   7.640  1.1457  1.4646 -0.5584
 6629TIP3    H241523   3.021   5.522   7.775 -1.1089 -0.4585 -1.7844
 6630TIP3   OH241524   6.334   0.856   1.274 -0.0280  0.0216 -0.5815
 6630TIP3    H141525   6.246   0.893   1.274  0.4375  1.1909 -0.1231
 6630TIP3    H241526   6.379   0.902   1.345  1.3726  0.5015 -1.7259
 6631TIP3   OH241527   5.506   3.402   1.990 -0.0484 -0.2268 -0.4058
 6631TIP3    H141528   5.513   3.467   2.060 -0.1814  0.2127 -0.7907
 6631TIP3    H241529   5.479   3.322   2.034  0.3847 -0.0896  0.1117
 6632TIP3   OH241530   3.383   1.081   1.449  0.1562 -0.1968 -0.1559
 6632TIP3    H141531   3.412   0.996   1.482 -1.4783 -0.8964 -0.4176
 6632TIP3    H241532   3.325   1.114   1.517  0.2786  0.4125 -0.3465
 6633TIP3   OH241533   5.882   1.658   1.034 -0.1076 -0.4992  0.3806
 6633TIP3    H141534   5.815   1.725   1.040  0.7661  0.4268  0.0689
 6633TIP3    H241535   5.919   1.669   0.947  1.3406 -0.1067  1.0162
 6634TIP3   OH241536   0.155   4.826   1.688  0.0805 -0.2249 -0.2488
 6634TIP3    H141537   0.122   4.752   1.738 -0.3133  1.6111  2.4181
 6634TIP3    H241538   0.247   4.832   1.711 -0.3833  1.4090  1.4606
 6635TIP3   OH241539   2.565   2.210   1.736 -0.0446  0.3714  0.1213
 6635TIP3    H141540   2.538   2.140   1.794  2.1008 -0.3629  0.3181
 6635TIP3    H241541   2.519   2.288   1.769 -1.1731 -0.6049  0.9170
 6636TIP3   OH241542   5.736   0.235   6.968 -0.1691  0.2101  0.1235
 6636TIP3    H141543   5.797   0.228   7.042  1.2970  0.4691 -1.0175
 6636TIP3    H241544   5.651   0.208   7.004  0.7910 -1.0694  1.5215
 6637TIP3   OH241545   2.826   4.016   1.233  0.3704  0.2540  0.1982
 6637TIP3    H141546   2.848   4.108   1.220  1.8763  0.0963  1.3439
 6637TIP3    H241547   2.901   3.968   1.199 -0.6198 -0.6121 -0.8672
 6638TIP3   OH241548   2.351   0.187   7.499 -0.2724 -0.5409 -0.5612
 6638TIP3    H141549   2.434   0.234   7.506 -0.4329 -0.3083 -0.2339
 6638TIP3    H241550   2.300   0.239   7.436 -1.0973  0.6870  1.0583
 6639TIP3   OH241551   3.438   2.471   7.463  0.0044  0.0538 -0.7117
 6639TIP3    H141552   3.449   2.550   7.516 -1.3172 -0.2004 -0.0152
 6639TIP3    H241553   3.431   2.400   7.526  3.1482 -0.9965 -1.3387
 6640TIP3   OH241554   5.562   6.232   7.990 -0.1404 -0.2736 -0.4345
 6640TIP3    H141555   5.625   6.200   8.055 -0.7566  0.5262  0.5972
 6640TIP3    H241556   5.610   6.233   7.908  1.0439 -0.1392  0.2453
 6641TIP3   OH241557   0.971   4.329   0.722 -0.2752 -0.0265  0.3217
 6641TIP3    H141558   0.984   4.357   0.632 -2.4082  1.0219  0.2776
 6641TIP3    H241559   0.989   4.407   0.775 -1.2367  0.0224  0.6006
 6642TIP3   OH241560   1.655   4.680   6.847 -0.4052  0.1932 -0.3872
 6642TIP3    H141561   1.599   4.745   6.889 -0.4010 -1.4508  2.4810
 6642TIP3    H241562   1.604   4.599   6.848  1.1479 -0.8365  0.2440
 6643TIP3   OH241563   6.299   0.932   7.271 -0.0563 -0.2896  0.2625
 6643TIP3    H141564   6.273   0.840   7.269 -0.2354 -0.3510  2.6633
 6643TIP3    H241565   6.239   0.973   7.333  1.3946  0.9582  0.9287
 6644TIP3   OH241566   1.870   2.561   0.829 -0.1992  0.5345  0.0417
 6644TIP3    H141567   1.831   2.599   0.908  1.0484 -0.3866  1.1591
 6644TIP3    H241568   1.808   2.493   0.802  0.1884 -0.3694  1.3215
 6645TIP3   OH241569   6.813   1.538   0.568  0.5511  0.1909  0.3411
 6645TIP3    H141570   6.736   1.572   0.523  0.9210  1.0854  0.3683
 6645TIP3    H241571   6.868   1.615   0.583  1.5628 -0.4729  0.0946
 6646TIP3   OH241572   6.613   2.959   6.070 -0.5554 -0.1025  0.7676
 6646TIP3    H141573   6.622   2.866   6.046 -0.8857 -0.1362  0.7674
 6646TIP3    H241574   6.615   3.006   5.987  2.6078  0.1797  0.8729
 6647TIP3   OH241575   4.732   4.630   0.596  0.4833 -0.6049  0.8181
 6647TIP3    H141576   4.762   4.670   0.678 -0.6159 -1.9739  1.9294
 6647TIP3    H241577   4.757   4.538   0.604 -2.9221 -1.6321  1.3851
 6648TIP3   OH241578   1.486   3.062   0.337 -0.1863 -0.3626  0.4552
 6648TIP3    H141579   1.544   3.034   0.266  0.2963  0.9540  0.3061
 6648TIP3    H241580   1.516   3.011   0.413  1.3378  0.4457  0.4356
 6649TIP3   OH241581   0.306   5.737   0.256 -0.1478  0.0900 -0.2783
 6649TIP3    H141582   0.229   5.752   0.309  1.2982  0.2933  1.8904
 6649TIP3    H241583   0.302   5.643   0.234  0.1433 -0.4631  1.8299
 6650TIP3   OH241584   7.103   3.863   0.025  0.5155 -1.3450 -0.3203
 6650TIP3    H141585   7.082   3.830  -0.062  2.0809 -1.5963 -0.6303
 6650TIP3    H241586   7.033   3.925   0.045  0.0249 -1.4479 -1.6580
 6651TIP3   OH241587   5.173   5.696   0.840 -0.0365 -0.6322  0.2105
 6651TIP3    H141588   5.181   5.743   0.757  1.2145  0.3699  0.8698
 6651TIP3    H241589   5.210   5.609   0.823 -0.8202 -0.8357 -0.5547
 6652TIP3   OH241590   0.273   6.473   2.181 -0.4791 -0.1765  0.2971
 6652TIP3    H141591   0.235   6.398   2.227 -0.5309 -2.3425 -2.9986
 6652TIP3    H241592   0.204   6.503   2.122  0.7735 -0.0248 -1.1561
 6653TIP3   OH241593   1.445   2.491   1.345 -0.1528  0.0950 -0.1873
 6653TIP3    H141594   1.395   2.438   1.406 -1.2264  0.7297 -0.4804
 6653TIP3    H241595   1.518   2.527   1.397 -0.2313 -0.5090  0.3469
 6654TIP3   OH241596   3.823   3.159   0.218  0.5519 -0.8102 -0.2614
 6654TIP3    H141597   3.727   3.159   0.216  0.4550  1.0895  0.9705
 6654TIP3    H241598   3.849   3.178   0.128 -0.3814  1.3541 -0.1445
 6655TIP3   OH241599   5.594   6.357   6.832  0.8978 -0.6476  0.1786
 6655TIP3    H141600   5.617   6.401   6.914  2.3616 -0.0454 -0.5267
 6655TIP3    H241601   5.580   6.427   6.769 -0.1311 -1.1103 -0.1348
 6656TIP3   OH241602   3.297   1.038   7.828 -0.2111 -0.2882 -0.6012
 6656TIP3    H141603   3.203   1.051   7.812 -0.0184  1.0335 -0.8022
 6656TIP3    H241604   3.338   1.052   7.743  0.2114 -0.2818 -0.3971
 6657TIP3   OH241605   3.538   0.394   0.687 -0.2626  0.5371  0.5052
 6657TIP3    H141606   3.572   0.346   0.612  0.5553  0.0456  1.1723
 6657TIP3    H241607   3.455   0.432   0.656 -0.0087  0.2313 -0.5892
 6658TIP3   OH241608   2.042   2.604   6.840 -0.3540 -0.5687 -0.8299
 6658TIP3    H141609   2.078   2.547   6.773 -1.3575 -1.1532 -0.9029
 6658TIP3    H241610   1.950   2.615   6.815 -0.2141  1.0236 -0.7689
 6659TIP3   OH241611   3.753   4.781   7.051 -0.3057  0.2601 -0.0553
 6659TIP3    H141612   3.757   4.813   7.141  0.3876 -0.5194  0.2043
 6659TIP3    H241613   3.665   4.743   7.044  0.1383 -0.9914  0.7777
 6660TIP3   OH241614   2.555   3.904   0.724 -0.1332 -0.1467 -0.1448
 6660TIP3    H141615   2.591   3.942   0.804  0.3096  0.2105 -0.5123
 6660TIP3    H241616   2.629   3.862   0.681 -0.4264 -0.5801 -0.2310
 6661TIP3   OH241617   0.071   1.108   6.922  0.1886 -0.4632  0.0335
 6661TIP3    H141618  -0.008   1.072   6.964  0.5867 -1.4202 -0.0280
 6661TIP3    H241619   0.037   1.165   6.853 -0.4579 -0.0141  0.7071
 6662TIP3   OH241620   2.464   1.569   2.121  0.6803 -0.2413  0.1840
 6662TIP3    H141621   2.504   1.619   2.050  1.6125  1.0754  1.5819
 6662TIP3    H241622   2.392   1.624   2.152  1.3833  0.0228  1.3947
 6663TIP3   OH241623   1.773   3.046   7.933  0.7159  0.1753  0.1197
 6663TIP3    H141624   1.788   3.106   7.860  2.5966  1.4667  1.4577
 6663TIP3    H241625   1.679   3.032   7.934  0.2832  2.5399 -0.7300
 6664TIP3   OH241626   2.393   4.937   1.278 -0.2089  0.0114 -0.5227
 6664TIP3    H141627   2.446   4.948   1.199 -0.5924 -1.8604 -1.1050
 6664TIP3    H241628   2.336   5.014   1.280  0.7579  0.7765 -1.2855
 6665TIP3   OH241629   4.068   6.037   6.584 -0.0423 -0.4231  0.2450
 6665TIP3    H141630   4.028   5.962   6.629 -3.7888 -0.3831 -2.5894
 6665TIP3    H241631   4.136   5.999   6.529 -0.3832 -1.4049  0.4891
 6666TIP3   OH241632   3.696   1.384   7.829 -0.9222  0.2055  0.3939
 6666TIP3    H141633   3.717   1.317   7.765  2.9777 -0.0729  1.7367
 6666TIP3    H241634   3.758   1.455   7.811 -2.3776  1.8214  1.4367
 6667TIP3   OH241635   3.622   4.778   6.585 -0.0777  0.0491 -0.2586
 6667TIP3    H141636   3.596   4.697   6.541 -1.9977 -0.3310  1.3822
 6667TIP3    H241637   3.593   4.848   6.526 -1.0672 -0.4556 -0.3995
 6668TIP3   OH241638   0.690   7.186   0.706  0.1312  0.6378  0.1451
 6668TIP3    H141639   0.779   7.191   0.671  0.6155  0.1359  1.2338
 6668TIP3    H241640   0.694   7.237   0.787 -0.2651 -0.3202  0.7787
 6669TIP3   OH241641   5.945   2.013   7.498  0.2330  0.1085 -0.6463
 6669TIP3    H141642   5.937   2.102   7.462 -0.4681  0.1051 -0.5222
 6669TIP3    H241643   5.910   1.956   7.429  0.6602 -0.0687 -0.7156
 6670TIP3   OH241644   0.736   1.315   0.375 -0.5972  0.4442 -0.5737
 6670TIP3    H141645   0.715   1.392   0.323  1.5447  3.1858  2.2682
 6670TIP3    H241646   0.828   1.296   0.356  0.3196  1.6517  2.0791
 6671TIP3   OH241647   3.033   1.892   0.360  0.3622 -0.6742 -0.1122
 6671TIP3    H141648   2.953   1.843   0.343  0.3850 -1.1701  1.1315
 6671TIP3    H241649   3.077   1.843   0.429  0.8352  0.6067  0.5245
 6672TIP3   OH241650   3.244   4.723   7.625 -0.0925  0.1779 -0.0858
 6672TIP3    H141651   3.222   4.648   7.569 -0.4817 -0.2082  0.5740
 6672TIP3    H241652   3.318   4.691   7.678 -0.7683 -0.0215  0.7545
 6673TIP3   OH241653   3.021   6.369   6.713  0.5047  0.1396 -0.5783
 6673TIP3    H141654   3.077   6.298   6.745  0.5601  0.6271  0.4403
 6673TIP3    H241655   2.992   6.339   6.627  0.6941 -1.0263 -0.2572
 6674TIP3   OH241656   2.410   2.092   1.457 -0.5997 -0.0413 -0.1858
 6674TIP3    H141657   2.498   2.127   1.473 -0.5222 -0.7288  1.0670
 6674TIP3    H241658   2.424   2.001   1.434 -1.0129 -0.5141  1.2836
 6675TIP3   OH241659   2.152   0.874   6.779  0.5758  0.7898 -0.6119
 6675TIP3    H141660   2.089   0.836   6.718 -0.0022  1.7308 -0.6305
 6675TIP3    H241661   2.113   0.958   6.804  0.2670 -0.0188  1.8997
 6676TIP3   OH241662   1.778   5.958   1.844  0.3413 -0.4769  0.2933
 6676TIP3    H141663   1.841   5.901   1.888  2.9368  1.8476 -0.1561
 6676TIP3    H241664   1.828   6.001   1.774 -1.8554  1.1917 -0.3915
 6677TIP3   OH241665   1.027   6.195   1.091  0.7825 -0.6635  0.1361
 6677TIP3    H141666   0.975   6.217   1.169  1.5258  0.0321  0.4514
 6677TIP3    H241667   1.072   6.276   1.069 -1.5448  0.0092 -2.7592
 6678TIP3   OH241668   6.718   6.083   0.404  0.6489 -0.1944  0.6695
 6678TIP3    H141669   6.717   5.993   0.371  2.9885 -0.5387  1.3573
 6678TIP3    H241670   6.746   6.136   0.329  1.5987 -0.3857  0.8735
 6679TIP3   OH241671   4.382   3.857   6.766 -0.7983  0.2448  0.1821
 6679TIP3    H141672   4.405   3.950   6.767 -0.2503  0.1181  1.1482
 6679TIP3    H241673   4.316   3.848   6.835  0.4964 -0.3668  1.4081
 6680TIP3   OH241674   0.696   1.820   0.120 -0.1806 -0.1011 -0.2660
 6680TIP3    H141675   0.626   1.755   0.117  0.8086 -1.3432  1.5628
 6680TIP3    H241676   0.752   1.798   0.045  0.0636 -1.2996  0.2427
 6681TIP3   OH241677   1.933   2.310   0.643 -0.2614 -0.2459  0.1197
 6681TIP3    H141678   1.977   2.287   0.725 -0.6476  0.6699  0.5983
 6681TIP3    H241679   1.849   2.346   0.670 -0.5847 -0.3614 -0.7056
 6682TIP3   OH241680   5.879   5.150   6.968 -1.5181 -0.1356 -0.0727
 6682TIP3    H141681   5.921   5.092   6.905 -2.9990  0.5279 -1.8045
 6682TIP3    H241682   5.806   5.188   6.919 -1.4194  2.1386  1.3795
 6683TIP3   OH241683   0.286   2.189   7.369  0.0708 -0.3418 -0.1715
 6683TIP3    H141684   0.275   2.251   7.297  0.8911  0.0525  0.0219
 6683TIP3    H241685   0.197   2.167   7.396 -0.2431  0.8979 -0.1371
 6684TIP3   OH241686   6.888   5.988   6.152  0.2012 -1.2139  0.2038
 6684TIP3    H141687   6.809   6.010   6.202  0.5791 -1.6703  1.0132
 6684TIP3    H241688   6.909   6.069   6.105 -0.7705 -1.1016 -0.0594
 6685TIP3   OH241689   4.684   5.632   6.040 -1.3438  0.6554  0.2358
 6685TIP3    H141690   4.749   5.685   5.995 -1.6181  2.6489  2.0180
 6685TIP3    H241691   4.614   5.619   5.976  0.5306 -1.2462 -1.6104
 6686TIP3   OH241692   0.058   4.072   1.121  0.3253  0.1497  0.3613
 6686TIP3    H141693   0.127   4.037   1.065 -0.8328  0.2584 -1.1874
 6686TIP3    H241694   0.105   4.109   1.196  1.9803  0.5362 -0.7974
 6687TIP3   OH241695   5.396   0.331   2.069  0.2344  0.1083  0.6811
 6687TIP3    H141696   5.444   0.361   1.992  2.3717 -3.0707  0.5869
 6687TIP3    H241697   5.441   0.373   2.143  1.3252 -0.5508  0.4155
 6688TIP3   OH241698   5.604   1.819   1.044 -0.3042  0.1650 -0.6675
 6688TIP3    H141699   5.574   1.801   1.133 -0.8440 -0.6616 -1.0091
 6688TIP3    H241700   5.532   1.870   1.005 -0.6822 -0.6525 -1.0573
 6689TIP3   OH241701   0.995   0.583   7.301  0.0123 -0.1097  0.1115
 6689TIP3    H141702   0.913   0.534   7.300  0.6089 -1.1956 -2.1207
 6689TIP3    H241703   0.972   0.670   7.333 -1.6051 -0.9785  1.4477
 6690TIP3   OH241704   1.649   3.063   1.075 -0.2760  0.1755  0.7451
 6690TIP3    H141705   1.632   3.126   1.005 -0.2485 -2.1998 -1.5602
 6690TIP3    H241706   1.738   3.032   1.059 -0.2621 -0.4170  1.8673
 6691TIP3   OH241707   5.732   7.097   1.549  0.5738 -0.0237  0.1016
 6691TIP3    H141708   5.709   7.028   1.611 -1.1981 -1.0967 -1.6445
 6691TIP3    H241709   5.648   7.134   1.521  1.2854  0.2301 -1.8364
 6692TIP3   OH241710   4.833   3.415   7.061  0.0280 -0.4831 -0.3732
 6692TIP3    H141711   4.928   3.414   7.071  0.0386 -0.1758 -0.4391
 6692TIP3    H241712   4.816   3.487   7.001 -0.3217  0.1475  0.4686
 6693TIP3   OH241713   6.321   5.901   1.290  0.3101 -0.4589 -0.4003
 6693TIP3    H141714   6.292   5.946   1.211  1.3634  1.9828  0.5107
 6693TIP3    H241715   6.240   5.881   1.337 -0.2130  0.1357 -1.0219
 6694TIP3   OH241716   5.410   0.108   1.239  0.0376 -0.1144 -0.3506
 6694TIP3    H141717   5.419   0.160   1.319 -0.4894 -1.7728  0.8373
 6694TIP3    H241718   5.395   0.019   1.270  3.5226 -1.5725 -2.2135
 6695TIP3   OH241719   6.394   2.567   1.098  0.3595 -0.1809 -0.1265
 6695TIP3    H141720   6.486   2.546   1.109  0.8694  1.7218 -0.4051
 6695TIP3    H241721   6.355   2.549   1.183  1.6798  2.0850  1.0494
 6696TIP3   OH241722   3.139   6.572   1.335  0.1714  1.0897 -0.8906
 6696TIP3    H141723   3.225   6.577   1.293  1.1705 -0.4151  0.8546
 6696TIP3    H241724   3.157   6.581   1.428 -1.6789  1.6061 -0.5523
 6697TIP3   OH241725   3.465   3.746   0.900  0.0835 -0.9008 -0.1298
 6697TIP3    H141726   3.404   3.783   0.836 -1.7406  0.6011  2.2643
 6697TIP3    H241727   3.452   3.651   0.894  1.1764 -0.9640 -2.9828
 6698TIP3   OH241728   4.045   5.900   0.899 -0.3235 -0.3084  0.8303
 6698TIP3    H141729   4.054   5.816   0.854  1.7660 -0.6509  1.7987
 6698TIP3    H241730   3.952   5.922   0.889 -0.9313 -2.7092  0.5540
 6699TIP3   OH241731   0.465   5.742   7.088 -0.6936  0.0459  0.0569
 6699TIP3    H141732   0.388   5.744   7.031  0.6100  0.1927 -1.8013
 6699TIP3    H241733   0.523   5.678   7.046  0.2800  0.0656  1.3218
 6700TIP3   OH241734   1.092   2.149   7.645 -0.3380 -0.6310  0.3055
 6700TIP3    H141735   1.095   2.059   7.679 -1.2093 -0.4519  0.9082
 6700TIP3    H241736   1.042   2.197   7.711 -0.8666  0.0502 -0.5769
 6701TIP3   OH241737   4.145   0.908   2.063  0.0047  0.5031 -0.0069
 6701TIP3    H141738   4.233   0.905   2.024 -0.6668  0.9977 -1.6755
 6701TIP3    H241739   4.098   0.837   2.020 -1.4850  2.6100 -2.0902
 6702TIP3   OH241740   0.909   6.393   7.592 -0.1906  0.4101  0.0413
 6702TIP3    H141741   0.975   6.375   7.658 -0.2984  2.0558  0.6318
 6702TIP3    H241742   0.855   6.314   7.590  1.4392 -0.7442 -0.0703
 6703TIP3   OH241743   5.935   1.339   7.462 -0.2457 -0.5461 -0.6046
 6703TIP3    H141744   6.011   1.284   7.444  0.9560  0.2809  1.5710
 6703TIP3    H241745   5.973   1.426   7.480 -1.9117  0.4747 -1.7836
 6704TIP3   OH241746   4.669   7.053   6.675 -0.0893 -0.2740  0.0488
 6704TIP3    H141747   4.746   7.010   6.639  1.2517  1.2160  1.0031
 6704TIP3    H241748   4.654   7.010   6.759 -1.4986 -1.8287 -0.9324
 6705TIP3   OH241749   1.605   3.854   1.706 -0.3905 -0.3950  0.0198
 6705TIP3    H141750   1.589   3.847   1.800 -0.5009 -1.4740 -0.0603
 6705TIP3    H241751   1.569   3.939   1.681  1.1733  0.6900  1.2438
 6706TIP3   OH241752   6.075   1.302   1.266 -0.5251  0.3177  0.3375
 6706TIP3    H141753   6.122   1.280   1.346  0.8148 -0.4454 -0.6177
 6706TIP3    H241754   6.030   1.385   1.286  1.9694  1.6120  1.0372
 6707TIP3   OH241755   1.391   6.945   6.403  0.1305  0.2658  0.3344
 6707TIP3    H141756   1.451   7.004   6.450  1.1615  0.3277 -1.0159
 6707TIP3    H241757   1.368   6.993   6.323 -0.7542 -0.2919  0.2364
 6708TIP3   OH241758   7.085   6.477   6.689  0.4361  0.4958  0.5209
 6708TIP3    H141759   7.061   6.464   6.597  1.6222  0.1668  0.2427
 6708TIP3    H241760   7.003   6.469   6.736 -0.0716 -0.1355 -0.4399
 6709TIP3   OH241761   3.756   0.006   6.612 -0.2176 -0.5406  0.2707
 6709TIP3    H141762   3.781  -0.068   6.558  1.7852 -0.4900  1.0377
 6709TIP3    H241763   3.838   0.051   6.632 -1.0421  0.2794  2.1296
 6710TIP3   OH241764   5.842   5.031   1.204  0.0617  0.1641 -0.8267
 6710TIP3    H141765   5.817   4.956   1.150 -1.5117  1.5240 -2.0862
 6710TIP3    H241766   5.890   5.089   1.145 -1.2098  1.4291 -0.6696
 6711TIP3   OH241767   3.868   1.272   0.141  0.4063  0.3654  0.1013
 6711TIP3    H141768   3.878   1.232   0.227 -0.4051  1.4129  0.7161
 6711TIP3    H241769   3.825   1.205   0.088  0.8237 -0.2574  0.5374
 6712TIP3   OH241770   6.342   5.408   7.274 -0.8507 -0.4242 -0.6052
 6712TIP3    H141771   6.353   5.417   7.179 -1.0718  1.2254 -0.5044
 6712TIP3    H241772   6.401   5.337   7.298  0.1723 -0.0219 -1.8152
 6713TIP3   OH241773   6.869   6.898   6.306 -0.4543  0.3082 -0.0622
 6713TIP3    H141774   6.777   6.912   6.326  0.1149  2.2462  1.5420
 6713TIP3    H241775   6.900   6.838   6.374 -0.0849  1.3100  0.6646
 6714TIP3   OH241776   3.808   6.599   5.969 -0.5613 -0.9633 -0.2996
 6714TIP3    H141777   3.862   6.542   6.024  0.6092 -1.7577 -2.1573
 6714TIP3    H241778   3.797   6.549   5.888 -0.2886  1.0592 -1.6449
 6715TIP3   OH241779   3.602   3.977   0.848 -0.0794  0.2788  0.0296
 6715TIP3    H141780   3.574   3.887   0.866 -1.2100  0.0535 -2.4417
 6715TIP3    H241781   3.536   4.011   0.788  1.9207  1.6970 -1.5317
 6716TIP3   OH241782   0.806   0.221   1.192 -0.1418 -0.2542 -0.5114
 6716TIP3    H141783   0.757   0.249   1.269  0.6124  0.4322 -0.2620
 6716TIP3    H241784   0.836   0.133   1.213 -1.7851 -0.9531 -0.9363
 6717TIP3   OH241785   6.453   4.095   7.946 -0.2070 -0.0434  0.3442
 6717TIP3    H141786   6.397   4.150   7.892  0.9079  1.1854  0.3791
 6717TIP3    H241787   6.539   4.136   7.941  0.2946 -0.8371  1.7415
 6718TIP3   OH241788   6.607   2.220   7.119 -0.4010  0.5142 -0.2849
 6718TIP3    H141789   6.562   2.172   7.189 -0.9113  0.9029 -0.3492
 6718TIP3    H241790   6.670   2.156   7.084  1.0253  0.7833  1.5900
 6719TIP3   OH241791   2.803   0.499   2.156  0.1599 -0.2778 -0.3311
 6719TIP3    H141792   2.833   0.449   2.080 -2.2948 -0.9884 -0.9240
 6719TIP3    H241793   2.744   0.439   2.202  0.7667  0.5108  1.5776
 6720TIP3   OH241794   3.900   5.101   0.874  0.6746  0.0434 -0.0291
 6720TIP3    H141795   3.873   5.069   0.788  0.5484  1.3870 -0.5086
 6720TIP3    H241796   3.928   5.022   0.921 -1.9192 -1.1268 -0.2826
 6721TIP3   OH241797   1.858   2.698   6.661 -0.0520 -0.4254  0.4872
 6721TIP3    H141798   1.807   2.623   6.633  0.5776 -0.8821  0.5323
 6721TIP3    H241799   1.797   2.772   6.658 -0.4243 -0.7574 -0.5025
 6722TIP3   OH241800   1.420   2.945   7.996  0.0740  0.0893  0.4754
 6722TIP3    H141801   1.454   3.034   8.005 -0.3236  0.0909  2.2778
 6722TIP3    H241802   1.498   2.890   7.991  0.3184  0.4196  0.5764
 6723TIP3   OH241803   4.576   1.976   1.730 -0.0340  0.7313  0.0612
 6723TIP3    H141804   4.558   1.977   1.824 -0.5483  1.9512 -0.0268
 6723TIP3    H241805   4.502   2.023   1.692 -1.1753 -1.9164 -1.2394
 6724TIP3   OH241806   6.637   4.683   6.225  0.3389  0.6661 -0.5297
 6724TIP3    H141807   6.597   4.763   6.259 -2.1501 -0.4064 -0.7563
 6724TIP3    H241808   6.639   4.624   6.300 -0.9568 -0.1587 -1.1114
 6725TIP3   OH241809   7.084   0.342   7.078 -0.6218  0.0304  0.7652
 6725TIP3    H141810   7.138   0.270   7.045  0.3333  0.8608  0.4576
 6725TIP3    H241811   7.093   0.338   7.173  1.0412  0.9050  0.6852
 6726TIP3   OH241812   4.549   0.067   7.988  0.9876  0.8251  0.1020
 6726TIP3    H141813   4.539  -0.020   8.026 -4.4216 -0.1321 -2.4121
 6726TIP3    H241814   4.590   0.051   7.902 -0.4412  0.5617 -0.5629
 6727TIP3   OH241815   4.524   0.906   0.270  0.1238 -0.1659  0.1474
 6727TIP3    H141816   4.470   0.976   0.233 -0.7681 -1.8468 -2.0171
 6727TIP3    H241817   4.462   0.849   0.315  0.2576 -1.3184 -1.0604
 6728TIP3   OH241818   2.008   6.597   1.671  0.4059  0.7811  0.0849
 6728TIP3    H141819   1.984   6.628   1.759  0.4309  1.2668 -0.0756
 6728TIP3    H241820   2.065   6.666   1.637  0.0434  0.8003 -0.4850
 6729TIP3   OH241821   1.297   0.810   7.764  0.2541 -0.3701  0.0057
 6729TIP3    H141822   1.350   0.755   7.822  1.3598  0.4747 -0.1773
 6729TIP3    H241823   1.357   0.836   7.694  0.1246  2.0214  0.6968
 6730TIP3   OH241824   3.832   5.061   0.306 -0.3790 -0.1290 -0.4789
 6730TIP3    H141825   3.779   4.991   0.344 -2.3621  0.9544 -1.1292
 6730TIP3    H241826   3.912   5.017   0.276 -0.7007 -1.7457  0.9004
 6731TIP3   OH241827   6.143   1.580   1.161  0.5607  0.4093  0.3351
 6731TIP3    H141828   6.128   1.594   1.254 -1.4086 -2.6859  0.6427
 6731TIP3    H241829   6.085   1.643   1.118 -0.0507  0.4842  1.2435
 6732TIP3   OH241830   1.873   5.458   6.609 -0.4634  0.0278 -0.0323
 6732TIP3    H141831   1.820   5.422   6.679  0.7334  0.0275  0.9140
 6732TIP3    H241832   1.923   5.383   6.575 -0.6120  0.1355 -0.4993
 6733TIP3   OH241833   4.884   5.265   1.236  0.4493  0.2030  0.0825
 6733TIP3    H141834   4.914   5.250   1.325  1.2697 -1.0011 -0.3597
 6733TIP3    H241835   4.960   5.300   1.190  0.6734 -1.0665 -0.5897
 6734TIP3   OH241836   6.863   0.553   6.785  0.0483  0.8516 -0.4703
 6734TIP3    H141837   6.918   0.604   6.726 -0.9314  0.3362 -1.8907
 6734TIP3    H241838   6.782   0.603   6.791 -0.0589  0.6257  0.0053
 6735TIP3   OH241839   4.426   3.784   6.314 -0.2517  0.2868  0.4710
 6735TIP3    H141840   4.499   3.723   6.320 -0.7452 -0.3351  0.2705
 6735TIP3    H241841   4.366   3.757   6.383 -1.2790 -0.5672 -0.7135
 6736TIP3   OH241842   3.072   4.264   2.007  0.0258  0.2328 -0.3558
 6736TIP3    H141843   3.119   4.193   1.964 -1.4018 -0.8812 -0.1411
 6736TIP3    H241844   2.988   4.226   2.032 -0.0486  1.4527  1.4649
 6737TIP3   OH241845   0.783   3.230   7.415 -0.0776 -0.0662 -0.3884
 6737TIP3    H141846   0.820   3.306   7.460 -0.7768 -0.8234  1.6077
 6737TIP3    H241847   0.799   3.246   7.322  2.5751  1.0014  0.1808
 6738TIP3   OH241848   0.906   1.061   1.365 -0.6162 -0.5390  0.0374
 6738TIP3    H141849   0.905   1.151   1.332 -0.5141 -0.4008  0.4066
 6738TIP3    H241850   0.959   1.065   1.444 -0.5841 -0.9330  0.0364
 6739TIP3   OH241851   6.518   5.404   1.399 -0.8370  0.7330  0.6642
 6739TIP3    H141852   6.439   5.361   1.431 -0.0121 -1.9632 -0.6241
 6739TIP3    H241853   6.512   5.398   1.304 -0.1152  2.5640  0.4578
 6740TIP3   OH241854   4.253   1.348   1.186 -0.3329  0.4057 -0.5010
 6740TIP3    H141855   4.243   1.421   1.126 -0.2759  0.4687 -0.4341
 6740TIP3    H241856   4.251   1.270   1.130 -0.5986  0.4473 -0.5499
 6741TIP3   OH241857   6.797   5.187   1.095  0.3032 -0.0065 -0.1755
 6741TIP3    H141858   6.811   5.099   1.130  0.1102 -0.3067 -0.8532
 6741TIP3    H241859   6.706   5.187   1.064  0.6591  0.0697 -1.2324
 6742TIP3   OH241860   2.555   0.322   0.953 -0.5235 -0.4197  0.3724
 6742TIP3    H141861   2.618   0.259   0.920 -0.9385 -0.7990  0.2906
 6742TIP3    H241862   2.566   0.399   0.897  1.3336  0.3453  1.6733
 6743TIP3   OH241863   7.028   3.417   7.456  0.6571 -0.1131 -0.2405
 6743TIP3    H141864   7.069   3.439   7.372 -1.7957 -0.5366 -1.6476
 6743TIP3    H241865   7.061   3.330   7.477  0.7286 -0.3252 -1.1933
 6744TIP3   OH241866   1.757   3.175   7.702  0.3844 -0.0719  0.7486
 6744TIP3    H141867   1.825   3.242   7.708 -0.4611  0.9606 -0.5630
 6744TIP3    H241868   1.676   3.224   7.688 -0.3169 -1.3511  0.1582
 6745TIP3   OH241869   3.817   5.694   0.260 -0.2460  0.2362  0.5083
 6745TIP3    H141870   3.861   5.609   0.250 -0.1358  0.2066  1.2309
 6745TIP3    H241871   3.781   5.692   0.348  0.5745  1.3214  0.8860
 6746TIP3   OH241872   3.417   4.112   0.697 -0.0497  0.4676  1.2598
 6746TIP3    H141873   3.385   4.199   0.673  1.5659  0.1728 -2.7978
 6746TIP3    H241874   3.337   4.060   0.706 -1.0460  1.3145 -1.4929
 6747TIP3   OH241875   1.848   1.570   7.460 -0.3676  0.7092  0.1037
 6747TIP3    H141876   1.914   1.622   7.413 -0.0794  0.3194  0.0733
 6747TIP3    H241877   1.880   1.567   7.550  0.1850 -0.3048 -0.1053
 6748TIP3   OH241878   4.325   6.295   2.222 -0.0540  0.0572 -0.3936
 6748TIP3    H141879   4.368   6.344   2.152  1.2572 -0.7236 -0.1491
 6748TIP3    H241880   4.327   6.354   2.298 -0.9252  0.6605 -0.8137
 6749TIP3   OH241881   6.333   1.647   6.643 -0.0305  0.7124 -0.0017
 6749TIP3    H141882   6.386   1.609   6.713 -2.1015 -1.0770  0.7030
 6749TIP3    H241883   6.348   1.741   6.650  2.1834  0.3644  0.8141
 6750TIP3   OH241884   2.172   0.901   2.016  0.3065 -0.3977 -0.0548
 6750TIP3    H141885   2.105   0.943   2.070 -0.4989  2.6064 -3.0351
 6750TIP3    H241886   2.253   0.944   2.040  0.3705 -0.7641  0.3897
 6751TIP3   OH241887   3.885   7.190   0.256  0.2247  0.0464  0.2179
 6751TIP3    H141888   3.885   7.155   0.167 -2.0213  0.3326  0.0480
 6751TIP3    H241889   3.913   7.281   0.246 -1.4418  0.5255 -0.4509
 6752TIP3   OH241890   4.293   1.825   6.488 -0.2027  0.1439 -0.1372
 6752TIP3    H141891   4.358   1.858   6.549  0.0890 -1.6853  0.6259
 6752TIP3    H241892   4.336   1.750   6.446 -0.9625  0.4040 -1.4438
 6753TIP3   OH241893   3.542   3.329   1.593 -0.1175 -0.2756  0.4858
 6753TIP3    H141894   3.500   3.405   1.634 -0.3077 -0.2868  0.3143
 6753TIP3    H241895   3.479   3.300   1.527  0.8043  0.6190 -0.8236
 6754TIP3   OH241896   7.214   5.203   1.281 -0.1301  0.3947 -0.1151
 6754TIP3    H141897   7.156   5.267   1.322 -0.0362  0.4947 -0.1415
 6754TIP3    H241898   7.277   5.180   1.349 -0.9185 -0.6016  0.3032
 6755TIP3   OH241899   6.546   0.519   0.582 -0.3984 -0.7675 -0.0818
 6755TIP3    H141900   6.632   0.478   0.588  0.0577 -0.0781 -1.4952
 6755TIP3    H241901   6.496   0.462   0.523  0.3060  0.7141 -2.2267
 6756TIP3   OH241902   3.189   5.512   6.592  0.4947  0.6408  0.1904
 6756TIP3    H141903   3.282   5.522   6.569  0.0400  1.0213 -1.6674
 6756TIP3    H241904   3.142   5.551   6.518 -1.1496  1.8224  1.7950
 6757TIP3   OH241905   0.041   2.164   0.640 -0.1011  0.2249 -0.3748
 6757TIP3    H141906   0.019   2.075   0.613  0.5175  1.1009 -4.4064
 6757TIP3    H241907  -0.037   2.197   0.684 -1.8260 -1.0770 -2.3169
 6758TIP3   OH241908   2.484   6.000   0.441  0.4636 -0.6847 -0.4486
 6758TIP3    H141909   2.444   5.919   0.472 -0.0971 -0.2567 -0.0241
 6758TIP3    H241910   2.538   6.030   0.515  0.3610 -0.4714 -0.4605
 6759TIP3   OH241911   1.477   6.690   7.339  0.1088 -0.8135  0.3646
 6759TIP3    H141912   1.542   6.658   7.402 -0.0572 -1.2191  0.3350
 6759TIP3    H241913   1.407   6.625   7.343 -0.0516 -0.6616  0.0031
 6760TIP3   OH241914   2.189   5.553   7.514  0.1408 -1.0600  0.1912
 6760TIP3    H141915   2.095   5.541   7.523  0.1824 -2.2317 -0.7708
 6760TIP3    H241916   2.220   5.567   7.604 -1.1739  1.3796  0.3208
 6761TIP3   OH241917   0.804   3.878   0.776  0.7117 -0.2226  0.3215
 6761TIP3    H141918   0.755   3.798   0.795 -3.5243  2.3200  1.4623
 6761TIP3    H241919   0.832   3.910   0.861  1.6829 -0.0383 -0.0511
 6762TIP3   OH241920   2.794   3.909   7.596  0.2656 -0.1689  0.6878
 6762TIP3    H141921   2.758   3.968   7.663  1.8258  0.0226  1.4053
 6762TIP3    H241922   2.888   3.914   7.609  0.5913 -0.3551 -1.3733
 6763TIP3   OH241923   6.104   5.611   7.030 -0.2021  0.2244  0.2579
 6763TIP3    H141924   6.057   5.565   6.961  3.5003 -2.1646 -1.0420
 6763TIP3    H241925   6.059   5.586   7.111  0.1837 -4.1553 -0.6132
 6764TIP3   OH241926   6.755   4.896   7.979 -0.1937  0.2590  0.3740
 6764TIP3    H141927   6.681   4.951   8.005 -0.9615  0.1384 -1.4194
 6764TIP3    H241928   6.784   4.933   7.895  1.8536  0.3469  1.0637
 6765TIP3   OH241929   4.566   6.278   0.802  0.1109 -0.9275 -0.5462
 6765TIP3    H141930   4.491   6.228   0.835 -0.0260 -0.3425  0.0327
 6765TIP3    H241931   4.615   6.302   0.880  0.3636 -0.4523 -0.8511
 6766TIP3   OH241932   0.271   3.056   6.553 -0.0158 -0.7396  0.0239
 6766TIP3    H141933   0.180   3.050   6.582  0.2389 -0.3756  0.9249
 6766TIP3    H241934   0.288   3.149   6.545 -0.5666 -0.7987 -2.9772
 6767TIP3   OH241935   1.290   1.695   7.750  0.2967  0.2650  0.0722
 6767TIP3    H141936   1.267   1.621   7.694 -0.6879  0.8974 -0.3880
 6767TIP3    H241937   1.384   1.688   7.761  0.1089 -1.6234  0.8618
 6768TIP3   OH241938   0.183   6.362   1.496  0.0758 -0.3480 -0.0163
 6768TIP3    H141939   0.142   6.417   1.562  0.2973 -0.2259  0.0196
 6768TIP3    H241940   0.160   6.272   1.521 -0.9503 -0.2388 -0.5193
 6769TIP3   OH241941   1.824   1.059   6.578 -0.4266 -0.2190 -0.6944
 6769TIP3    H141942   1.748   1.029   6.627 -1.0243 -0.1876 -1.5804
 6769TIP3    H241943   1.788   1.105   6.502  0.4614 -0.8846 -1.5497
 6770TIP3   OH241944   5.931   5.776   1.889 -0.0104  0.0889 -0.0817
 6770TIP3    H141945   5.864   5.713   1.915  0.0619 -0.0656 -0.2637
 6770TIP3    H241946   6.011   5.745   1.931  0.1795 -0.3515 -0.7370
 6771TIP3   OH241947   7.057   3.816   1.802  0.5226 -0.0393 -0.1742
 6771TIP3    H141948   7.146   3.829   1.770  0.5486 -0.0805 -0.1194
 6771TIP3    H241949   7.036   3.726   1.777  0.7883 -0.2955  0.5201
 6772TIP3   OH241950   3.812   5.794   7.513  0.3541 -0.4643 -0.2242
 6772TIP3    H141951   3.877   5.857   7.480 -0.1621 -0.3335 -1.0163
 6772TIP3    H241952   3.756   5.776   7.437  0.3128 -1.6566  0.0729
 6773TIP3   OH241953   0.821   6.142   1.756  0.2179 -0.0675 -0.1529
 6773TIP3    H141954   0.885   6.150   1.685 -1.2933  0.0899 -1.5385
 6773TIP3    H241955   0.791   6.231   1.772 -1.6436 -0.4234 -1.4341
 6774TIP3   OH241956   3.968   0.303   0.722  0.1972  0.0906 -0.8615
 6774TIP3    H141957   3.903   0.332   0.657  1.8056  3.5469 -1.1386
 6774TIP3    H241958   3.951   0.359   0.798  0.6495 -1.4299  0.4007
 6775TIP3   OH241959   1.973   6.690   6.927  0.5770  0.2018  0.2455
 6775TIP3    H141960   2.032   6.688   6.852 -0.1145  1.0320 -0.3288
 6775TIP3    H241961   2.002   6.765   6.979  0.1114  0.5345  0.0276
 6776TIP3   OH241962   1.143   6.454   1.248  0.7993  0.5022  0.0333
 6776TIP3    H141963   1.195   6.533   1.233 -0.8496  1.5017 -0.7887
 6776TIP3    H241964   1.056   6.476   1.215 -0.0944 -1.1847  1.0792
 6777TIP3   OH241965   0.871   6.499   1.148  0.0760  0.2740  0.1939
 6777TIP3    H141966   0.859   6.438   1.075  0.1808  0.2092  0.2304
 6777TIP3    H241967   0.793   6.489   1.202  0.8122 -0.9989  1.0661
 6778TIP3   OH241968   0.987   0.783   1.347 -0.3438 -0.0115 -0.4583
 6778TIP3    H141969   1.002   0.874   1.321  0.6971 -0.0110  0.0838
 6778TIP3    H241970   0.979   0.787   1.443 -1.8664 -0.3009 -0.5446
 6779TIP3   OH241971   3.331   1.549   1.354  0.2352 -0.0952  0.7263
 6779TIP3    H141972   3.403   1.498   1.316  0.2912 -0.4524  1.2997
 6779TIP3    H241973   3.350   1.550   1.447 -2.0162 -2.6880  1.3548
 6780TIP3   OH241974   1.339   1.563   0.420  0.7723  0.1706  0.3030
 6780TIP3    H141975   1.322   1.654   0.398 -2.3594 -0.6326 -1.2694
 6780TIP3    H241976   1.331   1.558   0.515 -0.8913  1.2725  0.2540
 6781TIP3   OH241977   6.390   6.450   6.169 -0.5003  0.8557  0.1050
 6781TIP3    H141978   6.349   6.368   6.199 -0.8356  0.9351 -0.1217
 6781TIP3    H241979   6.327   6.486   6.107 -0.2484  1.1743  0.0328
 6782TIP3   OH241980   5.196   1.918   7.154  0.5950  0.0941 -0.2797
 6782TIP3    H141981   5.259   1.874   7.211  0.2000 -0.2026 -0.0614
 6782TIP3    H241982   5.110   1.888   7.186  0.3127  1.0481 -0.1086
 6783TIP3   OH241983   0.404   5.090   1.595 -0.9391 -0.5018 -0.3162
 6783TIP3    H141984   0.427   5.182   1.584  1.9055 -1.1107 -0.2441
 6783TIP3    H241985   0.327   5.078   1.539 -0.4599  1.5816 -1.5358
 6784TIP3   OH241986   4.326   7.141   0.354  0.0220  0.5983 -0.0822
 6784TIP3    H141987   4.368   7.064   0.316 -1.1762 -0.3437  0.4444
 6784TIP3    H241988   4.237   7.112   0.376 -0.1194  1.8287  1.0981
 6785TIP3   OH241989   0.740   5.101   7.730 -0.6381  0.5496 -0.1074
 6785TIP3    H141990   0.791   5.181   7.741 -0.6674  0.3360  2.1485
 6785TIP3    H241991   0.806   5.032   7.724 -0.6165  0.5246  0.3473
 6786TIP3   OH241992   0.645   0.284   0.061 -0.3031  0.6074 -0.0810
 6786TIP3    H141993   0.720   0.339   0.085  0.0743  1.3306 -2.5720
 6786TIP3    H241994   0.618   0.242   0.143  3.4508 -0.4907  0.7826
 6787TIP3   OH241995   2.334   4.106   6.716  0.8345  0.5563 -0.1943
 6787TIP3    H141996   2.278   4.037   6.750  2.2515 -0.4505  0.2167
 6787TIP3    H241997   2.274   4.174   6.686 -0.5578 -0.2503  0.6739
 6788TIP3   OH241998   1.281   6.978   1.281 -0.4727 -0.0759  0.2500
 6788TIP3    H141999   1.275   7.071   1.263  1.5371  0.1098  0.2835
 6788TIP3    H242000   1.374   6.963   1.299 -0.2712 -2.4871 -2.1031
 6789TIP3   OH242001   5.170   0.048   6.078  0.0365  0.1749  0.0687
 6789TIP3    H142002   5.124  -0.036   6.076 -0.3936  0.4063  0.3806
 6789TIP3    H242003   5.116   0.107   6.026  0.8481  0.0072 -1.0134
 6790TIP3   OH242004   5.429   0.064   6.741 -0.1312  0.0408  0.1366
 6790TIP3    H142005   5.366   0.128   6.709  1.6479  1.7848 -0.0684
 6790TIP3    H242006   5.443   0.005   6.667 -2.7024 -1.4333  0.7195
 6791TIP3   OH242007   1.246   2.912   1.584  0.2137  0.3373 -0.5889
 6791TIP3    H142008   1.182   2.959   1.638  0.2668  1.1607 -1.2204
 6791TIP3    H242009   1.322   2.970   1.583  0.7980 -0.4230 -0.2259
 6792TIP3   OH242010   1.604   5.257   6.660  0.1845  0.3269 -0.3171
 6792TIP3    H142011   1.690   5.260   6.702  1.4354  0.1832 -2.6812
 6792TIP3    H242012   1.541   5.261   6.733  2.1528  1.4266  1.4278
 6793TIP3   OH242013   4.077   5.770   0.650  0.0035  0.6089 -0.8756
 6793TIP3    H142014   4.059   5.862   0.631 -1.1056  0.5563 -0.1847
 6793TIP3    H242015   4.058   5.725   0.568 -1.2065  0.8055 -0.7285
 6794TIP3   OH242016   5.388   0.708   6.487 -0.8962  0.1468  0.7539
 6794TIP3    H142017   5.375   0.768   6.414  1.1194  1.6526  1.5320
 6794TIP3    H242018   5.300   0.693   6.522 -1.6485  1.2067 -0.5896
 6795TIP3   OH242019   6.767   4.873   1.446  0.3282 -0.0434  0.4301
 6795TIP3    H142020   6.711   4.928   1.501  2.4313  0.5494  2.0936
 6795TIP3    H242021   6.736   4.784   1.461 -2.5307  0.4601 -1.5975
 6796TIP3   OH242022   2.918   2.952   1.282 -0.4455 -0.0920 -0.4459
 6796TIP3    H142023   2.958   2.877   1.236 -1.1497 -0.8236  0.1126
 6796TIP3    H242024   2.828   2.955   1.250  0.7461  3.8467 -4.6097
 6797TIP3   OH242025   6.496   4.071   0.237 -0.9131  0.5474  0.2807
 6797TIP3    H142026   6.497   4.087   0.143 -1.4358  0.4233  0.2461
 6797TIP3    H242027   6.543   4.145   0.275  0.1424  0.1042 -0.1402
 6798TIP3   OH242028   1.977   1.479   7.885  0.9523 -0.2638 -0.4158
 6798TIP3    H142029   2.061   1.524   7.900  1.4924 -0.8300 -1.5877
 6798TIP3    H242030   1.994   1.388   7.911  0.5082 -0.2473 -0.0649
 6799TIP3   OH242031   6.715   1.974   0.040  0.3769  0.6149  0.1650
 6799TIP3    H142032   6.705   1.986  -0.055 -0.6697 -0.3592  0.1376
 6799TIP3    H242033   6.628   1.988   0.075  0.0836 -1.9613  0.6433
 6800TIP3   OH242034   0.701   4.451   1.434  0.2993 -0.0691  0.6085
 6800TIP3    H142035   0.788   4.469   1.469  0.5132  0.2031 -0.0513
 6800TIP3    H242036   0.655   4.535   1.439 -0.0088 -0.2623  1.1636
 6801TIP3   OH242037   6.640   1.789   6.770 -1.2985 -0.6107 -0.0057
 6801TIP3    H142038   6.558   1.750   6.803 -1.6219 -0.7998 -0.9952
 6801TIP3    H242039   6.611   1.865   6.721 -0.6603  0.9958  1.9830
 6802TIP3   OH242040   5.375   0.936   6.020 -1.1787  0.0983 -0.6103
 6802TIP3    H142041   5.453   0.908   6.068 -2.4281 -1.2108  0.7631
 6802TIP3    H242042   5.395   0.916   5.929  0.4778  0.7508 -0.4207
 6803TIP3   OH242043   6.013   2.275   7.129  0.4130  0.4255 -0.0483
 6803TIP3    H142044   6.033   2.349   7.072  0.3735  0.7207  0.3183
 6803TIP3    H242045   5.920   2.284   7.148 -0.0549 -0.7804 -1.5161
 6804TIP3   OH242046   6.894   5.778   5.989  0.1878  0.1092  0.3781
 6804TIP3    H142047   6.804   5.786   5.957  0.8772 -1.7878 -2.4987
 6804TIP3    H242048   6.909   5.856   6.042 -3.0687  0.5653  0.7770
 6805TIP3   OH242049   6.649   5.844   6.653  0.3850  0.5953  0.2966
 6805TIP3    H142050   6.577   5.906   6.669  0.6604  0.6951  1.1882
 6805TIP3    H242051   6.611   5.778   6.596 -0.8368 -0.1056  1.8569
 6806TIP3   OH242052   0.524   1.755   1.381 -0.1308 -0.3780 -0.0278
 6806TIP3    H142053   0.525   1.662   1.359 -2.7335 -0.2075 -1.1795
 6806TIP3    H242054   0.566   1.798   1.307  1.5833 -0.6086  0.7544
 6807TIP3   OH242055   4.222   2.845   7.197  0.3203  0.0994 -0.0072
 6807TIP3    H142056   4.220   2.893   7.114  0.3105  1.2459  0.6274
 6807TIP3    H242057   4.180   2.904   7.260  0.1509 -0.8253  0.7766
 6808TIP3   OH242058   2.312   6.448   0.119 -0.3930 -0.2728  0.1321
 6808TIP3    H142059   2.352   6.394   0.051 -1.5704 -0.0468 -0.7837
 6808TIP3    H242060   2.218   6.427   0.114 -0.2549 -2.7353  3.9330
 6809TIP3   OH242061   2.069   4.580   0.874 -0.3087 -0.0429 -0.0401
 6809TIP3    H142062   2.091   4.574   0.782  1.9740 -1.6747  0.5309
 6809TIP3    H242063   2.106   4.663   0.903 -2.4451  1.2705 -0.8624
 6810TIP3   OH242064   6.623   3.548   6.804 -0.1205 -0.6706  0.5292
 6810TIP3    H142065   6.675   3.518   6.730  0.2818  1.9484 -0.3683
 6810TIP3    H242066   6.685   3.549   6.877  1.0263  1.6240 -0.3475
 6811TIP3   OH242067   0.064   2.922   1.183 -0.8708  0.1297 -0.1390
 6811TIP3    H142068   0.089   2.863   1.111 -0.8490 -0.1316  0.0802
 6811TIP3    H242069   0.099   2.880   1.262  1.8681  1.9299 -0.2622
 6812TIP3   OH242070   0.763   7.016   0.391  0.1179 -0.2205  0.0590
 6812TIP3    H142071   0.813   7.036   0.312  1.2970 -0.6388  0.6755
 6812TIP3    H242072   0.676   7.053   0.374 -0.3515 -2.1566 -2.3149
 6813TIP3   OH242073   4.839   2.627   0.557  0.3403 -0.5517 -0.4026
 6813TIP3    H142074   4.764   2.619   0.617 -0.5583 -0.0483 -1.4114
 6813TIP3    H242075   4.909   2.663   0.610 -0.2447 -0.7251  0.5012
 6814TIP3   OH242076   7.203   7.141   0.298 -0.8140  0.8171  0.2482
 6814TIP3    H142077   7.198   7.226   0.252 -0.9570  0.6561 -0.0352
 6814TIP3    H242078   7.175   7.161   0.387 -2.6529  0.7185 -0.2671
 6815TIP3   OH242079   6.224   5.292   0.184 -0.1810  0.7691  0.1578
 6815TIP3    H142080   6.139   5.286   0.139  1.3957 -1.5514 -2.9142
 6815TIP3    H242081   6.227   5.214   0.239  0.1071  0.6383 -0.0433
 6816TIP3   OH242082   5.367   5.491   1.590 -0.5441 -0.2872  0.0176
 6816TIP3    H142083   5.384   5.548   1.665  1.2687 -0.7015 -0.0369
 6816TIP3    H242084   5.378   5.547   1.514 -2.9920  0.2873  0.0059
 6817TIP3   OH242085   1.368   6.423   7.629 -0.3438  0.2012 -0.2173
 6817TIP3    H142086   1.442   6.363   7.643 -1.2914 -0.6446  1.5997
 6817TIP3    H242087   1.357   6.425   7.534  1.8444  0.1726 -0.5328
 6818TIP3   OH242088   2.272   1.461   1.491  0.2728 -0.1200 -0.5309
 6818TIP3    H142089   2.286   1.527   1.559 -0.0235  1.0788 -1.6077
 6818TIP3    H242090   2.228   1.389   1.537 -0.9932  1.1403  0.3265
 6819TIP3   OH242091   6.678   4.263   0.021  0.2280  0.1140 -0.3650
 6819TIP3    H142092   6.767   4.291   0.003 -0.6632  4.0956  0.4926
 6819TIP3    H242093   6.661   4.294   0.110 -1.6269 -1.7573  0.0061
 6820TIP3   OH242094   6.260   6.235   0.106  0.2221  0.5315  0.0862
 6820TIP3    H142095   6.193   6.187   0.056  0.9287  0.3488 -0.6959
 6820TIP3    H242096   6.264   6.188   0.189  2.7990 -2.6093 -1.5759
 6821TIP3   OH242097   0.060   0.566   6.834 -0.0043  0.5310 -0.1095
 6821TIP3    H142098  -0.006   0.497   6.845 -0.8389  1.2973 -0.2465
 6821TIP3    H242099   0.057   0.587   6.741  0.8638  0.1619 -0.2290
 6822TIP3   OH242100   6.534   7.180   0.694 -0.6145 -0.3609  0.0277
 6822TIP3    H142101   6.560   7.161   0.784 -0.7247  0.4562  0.2401
 6822TIP3    H242102   6.445   7.146   0.687 -1.3917  1.3653  0.8739
 6823TIP3   OH242103   3.880   1.546   6.665  0.6087 -0.8743  0.5006
 6823TIP3    H142104   3.957   1.510   6.709 -0.4590 -2.1743  1.3716
 6823TIP3    H242105   3.811   1.543   6.732 -0.8155 -1.9863 -0.9679
 6824TIP3   OH242106   4.962   6.849   1.863  0.2387  0.1075  0.1923
 6824TIP3    H142107   4.925   6.892   1.940 -0.9853 -1.0420  0.2858
 6824TIP3    H242108   5.002   6.769   1.897  1.4865  0.5733 -0.1247
 6825TIP3   OH242109   1.279   3.340   6.129  0.2406 -0.0063 -0.8944
 6825TIP3    H142110   1.219   3.412   6.107 -1.0244 -0.3597  1.1424
 6825TIP3    H242111   1.350   3.382   6.177  0.2887  0.0695 -1.0299
 6826TIP3   OH242112   6.042   5.476   7.739  0.4873  0.2540  0.3196
 6826TIP3    H142113   6.036   5.562   7.697 -1.9515 -0.9310 -2.0890
 6826TIP3    H242114   5.975   5.424   7.695  0.7531 -2.4365  2.8365
 6827TIP3   OH242115   3.051   4.281   0.226  0.6531  0.1555 -0.4964
 6827TIP3    H142116   3.134   4.330   0.224  0.8300 -0.1043  0.1196
 6827TIP3    H242117   3.053   4.227   0.147  1.5141 -0.5498 -0.0100
 6828TIP3   OH242118   6.135   6.759   5.574 -0.3153  0.5674 -0.0140
 6828TIP3    H142119   6.123   6.814   5.496  0.8910  0.9768  0.0761
 6828TIP3    H242120   6.066   6.787   5.634 -4.1559 -2.5958 -2.3774
 6829TIP3   OH242121   1.353   0.995   1.263 -0.1533  0.1572 -0.0383
 6829TIP3    H142122   1.295   0.989   1.339 -0.6397 -0.5228 -0.4575
 6829TIP3    H242123   1.376   1.088   1.259  0.5917  0.0696  1.4601
 6830TIP3   OH242124   7.153   6.933   6.275  0.0975 -0.2383 -0.5499
 6830TIP3    H142125   7.065   6.919   6.311  0.5969 -0.0793  0.7972
 6830TIP3    H242126   7.139   6.948   6.181 -1.3578  0.3232 -0.2637
 6831TIP3   OH242127   5.591   4.314   7.721  0.2443 -0.3926 -0.4726
 6831TIP3    H142128   5.618   4.404   7.701 -0.6217  0.1530  0.6714
 6831TIP3    H242129   5.583   4.312   7.816  0.9057 -1.8901 -0.4251
 6832TIP3   OH242130   7.030   3.120   7.443 -0.3865  0.3798 -0.2103
 6832TIP3    H142131   7.046   3.113   7.349 -1.3184 -1.0241 -0.3024
 6832TIP3    H242132   6.934   3.128   7.450 -0.1840  3.0016  0.5310
 6833TIP3   OH242133   1.114   2.470   7.745  0.0276 -0.4532  0.0631
 6833TIP3    H142134   1.159   2.552   7.725  1.7135 -1.3598 -0.0522
 6833TIP3    H242135   1.021   2.492   7.740  0.4296  1.3155 -0.4808
 6834TIP3   OH242136   1.823   6.776   7.947 -0.9091 -0.7805 -0.2903
 6834TIP3    H142137   1.845   6.721   7.871  0.1516 -1.8789  0.7513
 6834TIP3    H242138   1.840   6.719   8.022  0.1879  0.9668  0.8490
 6835TIP3   OH242139   1.979   0.585   0.591 -0.0747  0.2570 -0.3409
 6835TIP3    H142140   1.894   0.542   0.603  0.5847 -1.2616 -0.8130
 6835TIP3    H242141   1.957   0.677   0.580 -1.6692 -0.0831 -0.3824
 6836TIP3   OH242142   5.080   1.208   7.710 -0.2308 -0.0216 -0.0578
 6836TIP3    H142143   5.175   1.215   7.722 -0.3075  0.9256  0.0771
 6836TIP3    H242144   5.065   1.115   7.693  0.6894 -0.2249  0.1763
 6837TIP3   OH242145   0.854   6.787   5.913 -0.2682  0.4784 -0.1976
 6837TIP3    H142146   0.880   6.811   5.824 -1.2617  0.7458 -0.4391
 6837TIP3    H242147   0.865   6.868   5.964  1.0995  0.1064  0.1281
 6838TIP3   OH242148   4.840   3.870   0.164 -0.2584  0.0590 -0.0611
 6838TIP3    H142149   4.814   3.838   0.078  2.1563 -1.3848 -0.3497
 6838TIP3    H242150   4.906   3.937   0.146 -1.2648  1.3053  0.6737
 6839TIP3   OH242151   6.224   2.444   1.929  0.3976  0.1676 -0.0647
 6839TIP3    H142152   6.304   2.490   1.952  1.6846 -1.9167 -0.0996
 6839TIP3    H242153   6.155   2.510   1.935  2.2378  2.3032 -1.0710
 6840TIP3   OH242154   6.548   0.307   6.162 -0.3592 -0.2539  0.7280
 6840TIP3    H142155   6.505   0.340   6.083 -0.1279 -2.3422 -0.3590
 6840TIP3    H242156   6.549   0.212   6.150  2.8508 -0.4340  1.5962
 6841TIP3   OH242157   6.986   4.714   0.178  0.0963 -0.3206  0.7567
 6841TIP3    H142158   7.037   4.633   0.186  1.0180  0.0046 -1.1937
 6841TIP3    H242159   7.039   4.770   0.121 -0.1400  1.9930  2.6828
 6842TIP3   OH242160   7.064   0.299   7.347  0.1616 -0.2584  0.2522
 6842TIP3    H142161   7.076   0.295   7.442 -0.5205 -1.5890  0.3116
 6842TIP3    H242162   6.969   0.290   7.335  0.1294  0.9392 -0.5271
 6843TIP3   OH242163   5.673   2.876   0.197  0.3455 -0.5741 -0.1870
 6843TIP3    H142164   5.624   2.859   0.277  0.9871 -0.3453  0.2662
 6843TIP3    H242165   5.762   2.895   0.227  0.3427  0.5985 -0.8682
 6844TIP3   OH242166   3.373   2.673   7.674  0.6089  0.6626  0.3646
 6844TIP3    H142167   3.290   2.710   7.707  0.6124  1.8504 -0.8915
 6844TIP3    H242168   3.399   2.732   7.604  1.5382 -0.7943 -0.5497
 6845TIP3   OH242169   5.352   7.093   0.010 -0.0252 -0.3409 -0.3905
 6845TIP3    H142170   5.301   7.016  -0.015  0.5231 -0.7813 -0.1752
 6845TIP3    H242171   5.408   7.062   0.081 -0.3908  0.4655  0.2776
 6846TIP3   OH242172   2.052   2.223   6.412  0.5813  0.0475  0.0165
 6846TIP3    H142173   2.011   2.232   6.326 -0.3957  1.3953  0.5876
 6846TIP3    H242174   2.076   2.130   6.418  0.3022 -0.1429 -1.5319
 6847TIP3   OH242175   2.088   4.892   0.114  0.5563  0.7255 -0.2392
 6847TIP3    H142176   2.091   4.957   0.043  0.3790  0.2488 -0.6855
 6847TIP3    H242177   2.180   4.870   0.129  0.7749  2.3476  1.1098
 6848TIP3   OH242178   5.841   2.544   6.167 -0.3765  0.0492  0.5348
 6848TIP3    H142179   5.852   2.457   6.129  0.4929  0.5358 -0.3809
 6848TIP3    H242180   5.746   2.556   6.172 -0.5108 -0.5832 -0.2344
 6849TIP3   OH242181   0.177   3.091   0.120  0.1415 -0.4909 -0.1014
 6849TIP3    H142182   0.201   3.079   0.211  1.2304 -0.0962 -0.3197
 6849TIP3    H242183   0.140   3.179   0.116 -1.1850 -1.0194  0.1971
 6850TIP3   OH242184   5.851   1.231   0.429  0.0155 -0.2720 -0.6531
 6850TIP3    H142185   5.871   1.206   0.339  2.4706  1.0612 -0.5690
 6850TIP3    H242186   5.898   1.167   0.483 -1.3625 -1.0069 -0.2827
 6851TIP3   OH242187   6.265   5.405   1.766 -0.2487 -0.0748  0.1553
 6851TIP3    H142188   6.262   5.398   1.671  0.6950 -0.3824  0.1441
 6851TIP3    H242189   6.250   5.315   1.797 -1.8931  0.2289  0.3483
 6852TIP3   OH242190   0.635   7.218   7.723  0.1134  0.1208 -0.3143
 6852TIP3    H142191   0.576   7.206   7.649 -0.0809  0.5545 -0.2359
 6852TIP3    H242192   0.686   7.296   7.700  0.5600 -0.1702 -0.3188
 6853TIP3   OH242193   2.767   0.114   1.027 -0.8030 -0.0965  0.2407
 6853TIP3    H142194   2.819   0.117   0.946 -1.3763 -0.3968 -0.1450
 6853TIP3    H242195   2.829   0.090   1.095 -0.6704 -1.7221 -0.4190
 6854TIP3   OH242196   5.618   4.520   1.769 -0.0805 -0.1440 -0.3881
 6854TIP3    H142197   5.548   4.455   1.773  0.9980 -1.2777  1.4521
 6854TIP3    H242198   5.579   4.599   1.804 -0.7024 -0.4947 -0.2623
 6855TIP3   OH242199   4.162   6.706   6.550 -0.5752 -0.0430 -0.0441
 6855TIP3    H142200   4.109   6.722   6.473 -0.2887 -0.6748 -0.3852
 6855TIP3    H242201   4.245   6.672   6.516 -0.0159  0.7519  0.4850
 6856TIP3   OH242202   6.477   2.030   1.557  0.6821 -0.4520 -0.1764
 6856TIP3    H142203   6.407   2.093   1.573  0.1393 -0.6051 -1.7488
 6856TIP3    H242204   6.498   1.995   1.643  0.2759  1.0989  0.6025
 6857TIP3   OH242205   5.962   4.775   0.799  0.1262 -0.5454  0.3684
 6857TIP3    H142206   5.976   4.869   0.807 -1.4136 -0.3762  1.5032
 6857TIP3    H242207   5.981   4.741   0.887  1.1712 -1.3844 -0.1594
 6858TIP3   OH242208   0.939   0.805   6.476  0.0941 -0.3857  0.0122
 6858TIP3    H142209   1.034   0.804   6.479  0.1360  1.4965  1.6994
 6858TIP3    H242210   0.914   0.713   6.473  1.9515 -0.8995 -0.9408
 6859TIP3   OH242211   2.848   0.551   6.944  0.5821 -0.0297 -0.0282
 6859TIP3    H142212   2.942   0.541   6.929  0.7407 -0.3128  1.0632
 6859TIP3    H242213   2.809   0.472   6.905  1.2114 -1.9367  2.9150
 6860TIP3   OH242214   1.155   6.947   1.579  0.0259 -0.7139 -0.2532
 6860TIP3    H142215   1.178   6.934   1.487 -1.8665  0.1541 -0.9125
 6860TIP3    H242216   1.143   6.859   1.614  0.7885 -1.0541 -0.8228
 6861TIP3   OH242217   4.673   4.725   0.334 -0.6466 -1.1898 -0.5065
 6861TIP3    H142218   4.579   4.713   0.319 -1.6002  1.0854  2.5490
 6861TIP3    H242219   4.690   4.682   0.418  0.2886  0.9274  0.4808
 6862TIP3   OH242220   4.228   1.061   7.424  0.3905 -0.1582 -0.2375
 6862TIP3    H142221   4.232   1.078   7.518 -1.8814 -1.3452  0.1524
 6862TIP3    H242222   4.282   0.982   7.411 -0.8676 -1.1711  0.4583
 6863TIP3   OH242223   4.288   4.991   6.920 -0.0345 -0.5429  0.4733
 6863TIP3    H142224   4.304   5.081   6.894 -0.7156 -0.5464  0.0099
 6863TIP3    H242225   4.207   4.967   6.875  0.2346 -1.4436  0.4436
 6864TIP3   OH242226   3.876   0.478   6.490 -0.1448  0.1753 -0.0329
 6864TIP3    H142227   3.957   0.517   6.457 -0.3493 -0.8009 -1.7627
 6864TIP3    H242228   3.814   0.485   6.418 -1.1411 -0.4753  0.7351
 6865TIP3   OH242229   3.346   0.283   7.914  0.5787  0.1479  0.1532
 6865TIP3    H142230   3.371   0.262   8.004  0.9659 -0.5105 -0.0989
 6865TIP3    H242231   3.407   0.233   7.860  0.8208  1.1047 -0.4807
 6866TIP3   OH242232   2.726   6.659   0.917  0.2857 -0.4055  0.0026
 6866TIP3    H142233   2.813   6.634   0.949  0.6754  1.1137  0.2284
 6866TIP3    H242234   2.737   6.670   0.822  0.7913  1.3129  0.2146
 6867TIP3   OH242235   1.629   0.412   0.132 -0.1394  0.2742  0.4089
 6867TIP3    H142236   1.651   0.324   0.163 -0.2027  0.2216  0.3046
 6867TIP3    H242237   1.636   0.407   0.037 -0.0832  0.3988  0.4057
 6868TIP3   OH242238   3.345   5.969   7.615 -0.0490  0.2185 -0.1400
 6868TIP3    H142239   3.362   5.983   7.708 -0.4125  1.9591 -0.2988
 6868TIP3    H242240   3.379   5.881   7.597  2.9773  1.0671  0.9197
 6869TIP3   OH242241   3.009   5.575   6.770 -0.6438 -0.0336  0.3023
 6869TIP3    H142242   3.022   5.668   6.750 -3.5184  0.6404  1.1916
 6869TIP3    H242243   3.056   5.529   6.700  3.9516  1.8915  1.7197
 6870TIP3   OH242244   7.015   3.823   7.321  0.3970 -0.5314 -0.3961
 6870TIP3    H142245   6.925   3.837   7.352  0.8061  0.5896  0.3704
 6870TIP3    H242246   7.053   3.764   7.386  0.3955 -0.5022 -0.3684
 6871TIP3   OH242247   5.744   3.667   1.521  0.5365  0.0493 -0.1887
 6871TIP3    H142248   5.769   3.635   1.434  2.0858  0.3008  0.1385
 6871TIP3    H242249   5.707   3.590   1.565  1.3344 -0.5177 -0.4868
 6872TIP3   OH242250   5.886   6.668   0.535 -0.1012  0.2081  0.1738
 6872TIP3    H142251   5.865   6.641   0.624  3.4426 -1.5573  0.6156
 6872TIP3    H242252   5.907   6.587   0.490  1.8826  1.3950 -1.1660
 6873TIP3   OH242253   5.186   0.102   1.062 -0.0048  0.3890 -0.5585
 6873TIP3    H142254   5.255   0.107   1.129  0.3620 -0.9119 -0.8096
 6873TIP3    H242255   5.143   0.187   1.066 -0.2243  0.2427  1.5859
 6874TIP3   OH242256   6.074   1.894   1.326  0.1615 -0.3499 -0.0648
 6874TIP3    H142257   6.168   1.879   1.313 -0.2414 -3.4424 -0.3024
 6874TIP3    H242258   6.034   1.875   1.241 -0.8209 -0.9123  0.4986
 6875TIP3   OH242259   1.338   4.547   0.754  0.1583  0.2581 -0.4347
 6875TIP3    H142260   1.333   4.622   0.812 -0.6934  1.4333 -1.9265
 6875TIP3    H242261   1.253   4.547   0.708  0.8031 -0.5643 -1.6935
 6876TIP3   OH242262   0.485   1.724   7.551  0.3042 -0.5512  0.2357
 6876TIP3    H142263   0.453   1.801   7.504 -0.4451  0.2767  2.0095
 6876TIP3    H242264   0.406   1.674   7.572  0.7947 -1.9154 -1.0156
 6877TIP3   OH242265   6.764   3.899   7.008 -0.3991  0.2413 -0.3632
 6877TIP3    H142266   6.719   3.939   6.934 -4.0318 -2.3331  0.2160
 6877TIP3    H242267   6.713   3.925   7.085 -0.2233 -1.8202  0.5129
 6878TIP3   OH242268   2.649   0.261   1.966 -0.1196  0.2054 -0.0444
 6878TIP3    H142269   2.592   0.306   1.904  1.2988  0.1471 -1.4608
 6878TIP3    H242270   2.734   0.304   1.956  0.4592 -0.6369  0.9702
 6879TIP3   OH242271   0.440   4.494   7.882 -0.2713 -0.3985  0.6719
 6879TIP3    H142272   0.384   4.545   7.823  0.6709 -0.7143 -0.5425
 6879TIP3    H242273   0.515   4.551   7.899 -0.2717 -0.5271  1.1220
 6880TIP3   OH242274   4.656   6.907   1.510  0.3662 -0.0721  0.1945
 6880TIP3    H142275   4.718   6.929   1.440  0.8327 -0.2905  0.5333
 6880TIP3    H242276   4.588   6.856   1.467  0.6255 -0.1612 -0.1113
 6881TIP3   OH242277   4.840   4.976   0.564 -0.4732  0.2401 -0.0104
 6881TIP3    H142278   4.776   4.926   0.514 -2.5129 -0.0959  2.7237
 6881TIP3    H242279   4.821   5.067   0.544 -1.4382  0.1197  0.3495
 6882TIP3   OH242280   4.520   1.193   0.482 -0.2799 -0.0409 -0.0850
 6882TIP3    H142281   4.600   1.221   0.436  0.4101 -0.5963  0.7315
 6882TIP3    H242282   4.485   1.273   0.521  0.5072  0.0512  0.4698
 6883TIP3   OH242283   4.699   4.661   0.876  0.2527  0.7795 -0.0034
 6883TIP3    H142284   4.637   4.681   0.946 -1.7815 -2.8023 -0.5394
 6883TIP3    H242285   4.705   4.565   0.876  2.0212  0.7603 -3.1909
 6884TIP3   OH242286   6.715   2.806   1.317 -0.1987  0.5357 -0.0787
 6884TIP3    H142287   6.767   2.796   1.237  2.2072 -0.6842  1.5574
 6884TIP3    H242288   6.697   2.900   1.322 -3.7687  0.3799 -3.9365
 6885TIP3   OH242289   6.255   5.512   0.330  0.4751 -0.1019  0.4363
 6885TIP3    H142290   6.316   5.488   0.400  0.4958 -0.8820  0.1538
 6885TIP3    H242291   6.229   5.429   0.291 -0.0103  0.2917 -0.0904
 6886TIP3   OH242292   0.009   6.396   2.542  0.0574 -0.1528 -0.4814
 6886TIP3    H142293  -0.034   6.454   2.605  2.5746  0.7992  0.5005
 6886TIP3    H242294  -0.040   6.408   2.460 -1.6846  0.5788  0.6281
 6887TIP3   OH242295   2.296   0.245   0.994 -0.0618  0.1769  0.2302
 6887TIP3    H142296   2.295   0.274   1.086 -0.1146  1.4166 -0.1534
 6887TIP3    H242297   2.385   0.260   0.965 -0.5959  2.0196 -0.5907
 6888TIP3   OH242298   6.757   5.344   7.074  0.1967  0.0329 -0.1948
 6888TIP3    H142299   6.783   5.402   7.145  0.9317 -1.9715  1.2595
 6888TIP3    H242300   6.703   5.277   7.117 -0.8458 -0.2522 -1.8549
 6889TIP3   OH242301   5.901   7.077   7.077  0.8816  0.2178 -0.2948
 6889TIP3    H142302   5.862   7.047   6.994 -1.2087 -1.0690  1.0625
 6889TIP3    H242303   5.930   7.166   7.059 -0.6057  0.3984 -2.0891
 6890TIP3   OH242304   5.013   6.253   0.141 -0.6800 -0.0845 -0.0184
 6890TIP3    H142305   4.918   6.255   0.131 -0.5955 -1.2446 -1.2162
 6890TIP3    H242306   5.035   6.160   0.147  0.4099  0.1581 -0.0798
 6891TIP3   OH242307   3.639   6.313   2.124 -0.5575  0.4828 -0.4188
 6891TIP3    H142308   3.603   6.309   2.035  0.2304 -2.7007 -0.7058
 6891TIP3    H242309   3.564   6.300   2.181 -0.6540 -0.7295 -0.7932
 6892TIP3   OH242310   5.446   4.918   7.790  0.7668 -0.3938  0.6979
 6892TIP3    H142311   5.373   4.951   7.842  1.9806  0.9266  1.6224
 6892TIP3    H242312   5.407   4.851   7.734 -0.7263 -1.4660  2.8690
 6893TIP3   OH242313   6.781   6.119   0.060 -0.1190  0.0935  0.5900
 6893TIP3    H142314   6.803   6.138  -0.031  1.6110  1.6107  1.2762
 6893TIP3    H242315   6.833   6.041   0.081  0.3744  0.4112  0.5812
 6894TIP3   OH242316   6.116   4.576   7.702 -0.0838  0.1719  0.1798
 6894TIP3    H142317   6.079   4.594   7.789 -2.4564  0.1176 -0.7536
 6894TIP3    H242318   6.108   4.481   7.692  0.5365  0.1307  0.0433
 6895TIP3   OH242319   2.525   5.461   1.136 -0.4003 -0.4245  0.4289
 6895TIP3    H142320   2.544   5.404   1.211 -1.9924 -0.0054  1.1799
 6895TIP3    H242321   2.531   5.550   1.171 -0.8496 -0.2171 -0.0127
 6896TIP3   OH242322   4.979   1.145   0.244 -0.2056  0.1716  0.2739
 6896TIP3    H142323   4.978   1.154   0.149 -0.7069  0.2517  0.2820
 6896TIP3    H242324   4.913   1.078   0.262 -0.2586  0.3051  0.5791
 6897TIP3   OH242325   5.361   4.386   0.597  1.0608  0.2605  0.2664
 6897TIP3    H142326   5.350   4.445   0.672  1.1791  1.2562 -0.4729
 6897TIP3    H242327   5.451   4.401   0.568  1.5252 -1.2400  0.8335
 6898TIP3   OH242328   2.194   4.626   7.477  0.1649 -0.2313  0.0567
 6898TIP3    H142329   2.213   4.685   7.550 -0.7768  0.6194 -0.3665
 6898TIP3    H242330   2.181   4.540   7.517  1.6526 -0.1914  0.6697
 6899TIP3   OH242331   1.904   1.710   6.689  0.2632 -0.5116  0.5510
 6899TIP3    H142332   1.980   1.726   6.745  0.3229 -0.4273  0.4441
 6899TIP3    H242333   1.884   1.617   6.704 -0.0675 -0.3515  1.1446
 6900TIP3   OH242334   1.144   5.034   0.860  0.1905 -0.5166 -0.0562
 6900TIP3    H142335   1.132   4.959   0.802 -0.6706  0.5219 -1.3001
 6900TIP3    H242336   1.238   5.035   0.880 -0.0426 -2.9151  1.4613
 6901TIP3   OH242337   2.451   6.752   7.839 -0.2131 -0.8195  0.1589
 6901TIP3    H142338   2.441   6.661   7.814  0.2260 -0.7429 -0.3135
 6901TIP3    H242339   2.540   6.758   7.875  0.3426 -0.2840 -1.2178
 6902TIP3   OH242340   4.493   0.475   0.036  0.7637 -0.1361 -0.4292
 6902TIP3    H142341   4.499   0.410   0.105 -1.0187  0.6436  0.5348
 6902TIP3    H242342   4.526   0.556   0.076 -1.1861  0.5469 -0.1160
 6903TIP3   OH242343   6.801   2.272   0.713  0.3807 -0.4526 -0.2525
 6903TIP3    H142344   6.818   2.317   0.796 -4.5670  0.6799  0.4911
 6903TIP3    H242345   6.800   2.179   0.736 -0.1213 -0.2047  0.8252
 6904TIP3   OH242346   5.798   2.267   1.063  0.2027 -0.3423 -0.3348
 6904TIP3    H142347   5.883   2.310   1.058  0.8971 -1.6626 -0.4378
 6904TIP3    H242348   5.799   2.220   1.146 -0.4891 -0.2608 -0.2716
 6905TIP3   OH242349   1.409   4.593   6.592 -0.3235  0.0891 -0.2139
 6905TIP3    H142350   1.373   4.540   6.520 -0.7590 -0.1452  0.1720
 6905TIP3    H242351   1.427   4.530   6.662  1.1318  0.1631 -0.4996
 6906TIP3   OH242352   5.735   6.843   1.369 -0.3547  0.2189  0.0459
 6906TIP3    H142353   5.647   6.864   1.403 -0.1511  1.1806 -0.0129
 6906TIP3    H242354   5.784   6.816   1.447 -0.6341 -0.1193  0.1107
 6907TIP3   OH242355   1.876   0.702   7.256 -0.0830 -0.2731  0.3558
 6907TIP3    H142356   1.911   0.704   7.345 -0.5704 -0.2071  0.5484
 6907TIP3    H242357   1.821   0.780   7.250  0.2861 -0.0492 -0.1445
 6908TIP3   OH242358   0.549   0.682   6.895 -0.1123 -0.0709 -0.0301
 6908TIP3    H142359   0.486   0.612   6.884  0.0220 -0.3264  0.7349
 6908TIP3    H242360   0.538   0.710   6.986 -0.3312  1.0630 -0.3954
 6909TIP3   OH242361   4.871   0.525   5.783 -0.7530 -0.3320 -0.0908
 6909TIP3    H142362   4.786   0.486   5.804 -0.8544  0.4259  1.0105
 6909TIP3    H242363   4.851   0.617   5.763 -0.0968  0.1937  1.4483
 6910TIP3   OH242364   1.523   3.167   6.234 -0.4000 -0.1876 -0.2562
 6910TIP3    H142365   1.435   3.138   6.209 -0.2986  0.5020 -1.4815
 6910TIP3    H242366   1.511   3.205   6.322 -0.7062 -2.9465  1.0010
 6911TIP3   OH242367   5.011   2.459   6.886  0.1872  0.2398  0.0141
 6911TIP3    H142368   5.057   2.383   6.921 -0.5014  0.3518  1.2094
 6911TIP3    H242369   4.996   2.516   6.961  4.1720  3.5740 -1.3835
 6912TIP3   OH242370   7.063   4.227   0.725  0.0597  0.1143 -0.1193
 6912TIP3    H142371   6.986   4.209   0.671 -0.9061  1.2723  0.8214
 6912TIP3    H242372   7.111   4.144   0.727 -0.7357 -0.4043 -1.3795
 6913TIP3   OH242373   3.818   6.215   0.960 -0.1688 -0.3144  0.0379
 6913TIP3    H142374   3.885   6.231   0.894 -0.5010 -0.5610 -0.3651
 6913TIP3    H242375   3.770   6.298   0.966  0.4744  0.0221  0.6862
 6914TIP3   OH242376   0.037   4.323   5.856 -0.7100 -0.0020  0.1893
 6914TIP3    H142377   0.100   4.392   5.837 -1.2658  0.4499 -0.0120
 6914TIP3    H242378  -0.040   4.369   5.888 -0.5498 -0.6188  1.5225
 6915TIP3   OH242379   7.016   4.039   1.066  0.1240  0.5438  0.0869
 6915TIP3    H142380   7.108   4.034   1.040  0.3246  1.3431  0.5906
 6915TIP3    H242381   7.017   4.095   1.144 -0.9047  1.4642 -0.5356
 6916TIP3   OH242382   4.341   2.224   0.766 -0.0332  0.4056 -0.2473
 6916TIP3    H142383   4.337   2.308   0.720 -2.8721  0.8646  0.6179
 6916TIP3    H242384   4.364   2.248   0.856 -0.6781  0.2429 -0.0379
 6917TIP3   OH242385   3.728   4.631   0.546 -0.1721  0.3825 -0.2304
 6917TIP3    H142386   3.783   4.686   0.602 -0.1348  0.7238 -0.5982
 6917TIP3    H242387   3.666   4.692   0.506  0.1479  0.2262 -0.9841
 6918TIP3   OH242388   7.027   4.236   6.164 -0.2881 -0.2218 -0.1544
 6918TIP3    H142389   7.071   4.317   6.138 -3.7782  1.6243 -1.0112
 6918TIP3    H242390   7.045   4.175   6.093  1.2034  0.2704 -0.2266
 6919TIP3   OH242391   1.372   3.654   5.937 -0.5983  0.5849 -0.8043
 6919TIP3    H142392   1.291   3.615   5.904 -2.4999  3.2556  0.2638
 6919TIP3    H242393   1.343   3.711   6.009  2.0184  2.7387 -1.2795
 6920TIP3   OH242394   0.147   1.898   1.070 -0.5010 -0.0229  0.3111
 6920TIP3    H142395   0.151   1.872   0.979  1.5438 -1.7937  0.8252
 6920TIP3    H242396   0.064   1.945   1.079 -0.3698  0.9231 -2.5916
 6921TIP3   OH242397   0.436   3.145   7.679  0.3247  0.3387  0.1430
 6921TIP3    H142398   0.512   3.111   7.724  0.4901 -0.9501 -1.0444
 6921TIP3    H242399   0.368   3.152   7.746  0.8981 -0.4264  0.8103
 6922TIP3   OH242400   0.797   7.145   0.149  0.0718 -0.6441  0.0862
 6922TIP3    H142401   0.754   7.109   0.071 -2.0218 -0.7647  1.1994
 6922TIP3    H242402   0.750   7.227   0.166  2.0691  0.5870 -0.0864
 6923TIP3   OH242403   6.617   3.252   0.131  0.5851  0.3270 -0.1697
 6923TIP3    H142404   6.622   3.341   0.098 -0.4022 -0.7528 -3.5900
 6923TIP3    H242405   6.707   3.232   0.158  0.8634  2.2271  0.4988
 6924TIP3   OH242406   1.520   4.934   7.303 -0.0145  0.2518  0.5319
 6924TIP3    H142407   1.474   4.851   7.310  0.5823  0.0756  3.7139
 6924TIP3    H242408   1.610   4.910   7.280 -0.3529  0.2406 -0.8639
 6925TIP3   OH242409   0.065   1.535   2.131 -0.4505 -0.0369 -0.2671
 6925TIP3    H142410   0.079   1.467   2.197 -2.3984 -1.2265 -1.0234
 6925TIP3    H242411   0.153   1.550   2.094  0.3387 -0.7219  1.2319
 6926TIP3   OH242412   1.276   3.576   1.413  0.1007 -0.0296 -0.6253
 6926TIP3    H142413   1.247   3.499   1.463  0.7045  1.1654  1.7396
 6926TIP3    H242414   1.371   3.565   1.406  0.1380  0.2943 -0.6309
 6927TIP3   OH242415   4.101   4.469   7.771 -0.5225  0.4121  0.1501
 6927TIP3    H142416   4.031   4.404   7.776 -1.5350  1.5217  1.0767
 6927TIP3    H242417   4.069   4.533   7.708  0.4178  0.0887 -0.6728
 6928TIP3   OH242418   0.726   4.684   1.191  0.2584 -0.4266  0.2307
 6928TIP3    H142419   0.648   4.717   1.236  0.6234  0.6155  0.1201
 6928TIP3    H242420   0.720   4.720   1.103  0.1805 -1.4586 -0.2028
 6929TIP3   OH242421   5.576   1.452   6.085 -0.0277 -0.3411 -0.1513
 6929TIP3    H142422   5.490   1.410   6.087 -0.0544 -0.5478 -2.5587
 6929TIP3    H242423   5.638   1.380   6.072  0.1928  0.0660 -1.4634
 6930TIP3   OH242424   2.930   0.513   1.588 -0.6603  0.4598 -0.0777
 6930TIP3    H142425   2.973   0.507   1.502 -1.8621  2.5072 -0.8842
 6930TIP3    H242426   2.996   0.550   1.646 -1.2274  3.8754 -1.3768
 6931TIP3   OH242427   7.179   4.700   0.693  0.0591 -0.3116 -0.0365
 6931TIP3    H142428   7.092   4.736   0.708  0.3867  0.5696 -0.2163
 6931TIP3    H242429   7.200   4.653   0.774 -0.1915  0.2725  0.3700
 6932TIP3   OH242430   0.323   2.955   6.945  0.4438 -0.5419  0.3151
 6932TIP3    H142431   0.404   2.962   6.995  1.8015 -1.3357 -1.6429
 6932TIP3    H242432   0.335   2.878   6.890 -1.5642 -0.5403 -0.2290
 6933TIP3   OH242433   5.147   1.897   0.166 -0.1469  0.0677  0.1407
 6933TIP3    H142434   5.235   1.913   0.132 -0.9004  2.2287 -0.9925
 6933TIP3    H242435   5.090   1.907   0.090 -1.3541 -2.2303  0.6584
 6934TIP3   OH242436   1.927   1.690   7.692 -0.2448 -0.1145  0.3180
 6934TIP3    H142437   1.942   1.632   7.766 -0.8352 -0.6283  0.0465
 6934TIP3    H242438   2.007   1.743   7.686  0.6227 -1.4053  0.1091
 6935TIP3   OH242439   5.400   2.931   7.605 -0.1935 -0.1139  0.3319
 6935TIP3    H142440   5.325   2.878   7.577  0.1739 -0.1302 -0.6634
 6935TIP3    H242441   5.455   2.871   7.654  0.3436 -0.7490 -0.9988
 6936TIP3   OH242442   6.153   7.087   1.288 -0.2815 -0.2518 -0.3832
 6936TIP3    H142443   6.247   7.095   1.307 -0.6559  1.9892  0.9104
 6936TIP3    H242444   6.115   7.049   1.367 -0.7981  1.6520  0.3447
 6937TIP3   OH242445   0.895   3.001   1.194  0.3221  0.4837  0.4413
 6937TIP3    H142446   0.979   3.002   1.240  0.1870 -1.9824  0.8819
 6937TIP3    H242447   0.845   2.932   1.238 -0.7779 -0.1991 -1.7580
 6938TIP3   OH242448   6.201   4.854   1.425 -0.2169  0.3314  0.4969
 6938TIP3    H142449   6.113   4.822   1.405 -0.7088  2.4565 -1.0131
 6938TIP3    H242450   6.194   4.949   1.420  2.0589  0.5709  0.8720
 6939TIP3   OH242451   2.043   1.796   0.981  0.0296 -0.6361  0.2745
 6939TIP3    H142452   2.034   1.848   0.902 -0.1169 -1.2095 -0.0965
 6939TIP3    H242453   2.002   1.849   1.050 -2.8926 -1.5094 -0.6375
 6940TIP3   OH242454   4.861   1.018   6.600 -0.4999  0.2941  0.1074
 6940TIP3    H142455   4.902   1.050   6.681  1.0210  0.6028 -0.7442
 6940TIP3    H242456   4.931   0.970   6.556 -1.6416 -0.8668 -0.4975
 6941TIP3   OH242457   1.596   1.220   2.157  0.0475 -0.4500  0.1650
 6941TIP3    H142458   1.601   1.305   2.202 -1.5686 -0.4177  0.3524
 6941TIP3    H242459   1.588   1.243   2.064 -1.5500 -0.3309  0.3114
 6942TIP3   OH242460   6.582   1.791   7.597  0.1020 -0.1991  0.1557
 6942TIP3    H142461   6.495   1.802   7.637 -0.0421 -0.0121 -0.2075
 6942TIP3    H242462   6.568   1.731   7.525 -0.0104  0.9384 -0.8038
 6943TIP3   OH242463   1.992   4.110   0.295  0.0001  0.3800  0.0570
 6943TIP3    H142464   1.910   4.107   0.247 -0.1450  2.7401  0.0772
 6943TIP3    H242465   1.973   4.161   0.374  0.9812 -0.8485  1.1507
 6944TIP3   OH242466   3.579   3.068   0.169  0.0379  0.4314  0.1583
 6944TIP3    H142467   3.580   3.009   0.094 -1.0878  1.7838 -0.9707
 6944TIP3    H242468   3.495   3.112   0.164  0.1898  1.0035  1.8938
 6945TIP3   OH242469   1.293   0.793   1.088  0.1754 -0.4888 -0.5823
 6945TIP3    H142470   1.329   0.854   1.153 -1.2027  1.4580 -1.5597
 6945TIP3    H242471   1.296   0.708   1.132 -1.2310  0.7959  2.3568
 6946TIP3   OH242472   6.183   1.692   6.281 -0.3591 -0.2602  0.3970
 6946TIP3    H142473   6.141   1.629   6.222 -0.8347 -0.6529  1.1326
 6946TIP3    H242474   6.127   1.693   6.359 -0.0307  0.6385  0.6333
 6947TIP3   OH242475   0.787   0.922   1.162 -0.0815 -0.6715  0.2529
 6947TIP3    H142476   0.782   0.935   1.257 -0.5494 -0.9693  0.2753
 6947TIP3    H242477   0.872   0.957   1.137  1.6517 -3.7788  1.2927
 6948TIP3   OH242478   0.617   0.821   7.906  0.4245  0.0297 -0.3182
 6948TIP3    H142479   0.563   0.743   7.920 -0.0242  0.4136  0.1512
 6948TIP3    H242480   0.692   0.809   7.964  1.5546 -1.1287 -1.9288
 6949TIP3   OH242481   0.367   2.559   1.022  0.3689  0.0084 -0.3666
 6949TIP3    H142482   0.419   2.582   1.099  2.4970  1.2625 -2.0594
 6949TIP3    H242483   0.315   2.483   1.050  2.1019 -0.4763  1.8742
 6950TIP3   OH242484   5.522   4.759   0.417  0.3024  0.2209  0.2956
 6950TIP3    H142485   5.427   4.771   0.419  0.2294 -0.2955  0.2439
 6950TIP3    H242486   5.534   4.664   0.424  0.8232  0.3007  0.5280
 6951TIP3   OH242487   5.385   5.326   1.336  0.0743  0.2955  0.5208
 6951TIP3    H142488   5.423   5.347   1.421  2.6110  0.9772 -0.6803
 6951TIP3    H242489   5.376   5.411   1.293  0.9805 -0.1981 -0.7013
 6952TIP3   OH242490   6.570   1.032   1.238 -0.3009 -0.5108  0.0035
 6952TIP3    H142491   6.527   0.972   1.177  0.5755  0.3796 -1.5327
 6952TIP3    H242492   6.663   1.016   1.227 -0.0218  1.2647 -0.6470
 6953TIP3   OH242493   1.946   0.320   1.942 -0.3501 -0.0918 -0.1051
 6953TIP3    H142494   1.952   0.224   1.942 -1.4019 -0.1743 -1.0964
 6953TIP3    H242495   2.037   0.349   1.930 -0.0239 -0.9556  0.1742
 6954TIP3   OH242496   5.949   1.151   7.145  0.1669  0.3720  0.4842
 6954TIP3    H142497   5.855   1.140   7.134  0.1360  2.2675 -1.7356
 6954TIP3    H242498   5.983   1.163   7.057  2.7448 -1.5900  1.0746
 6955TIP3   OH242499   7.128   4.639   1.716  0.4164  0.4611  0.1740
 6955TIP3    H142500   7.074   4.717   1.724  2.7453  2.3089 -0.8662
 6955TIP3    H242501   7.177   4.635   1.798  1.1171  0.7790 -0.2208
 6956TIP3   OH242502   6.177   0.365   0.678 -0.3358 -0.0647  0.3580
 6956TIP3    H142503   6.114   0.418   0.726 -0.5214 -0.7365  0.8565
 6956TIP3    H242504   6.187   0.411   0.594  1.0164  1.8811  1.4876
 6957TIP3   OH242505   0.137   3.536   7.770 -0.5902 -0.1959  0.0038
 6957TIP3    H142506   0.148   3.616   7.821 -0.9656 -1.4681  2.1849
 6957TIP3    H242507   0.058   3.496   7.804 -0.0495 -1.8409 -0.5828
 6958TIP3   OH242508   0.878   1.517   1.403  0.4107 -0.3476  0.2553
 6958TIP3    H142509   0.832   1.559   1.330  2.4952  0.2733 -0.7987
 6958TIP3    H242510   0.935   1.586   1.438  0.4979 -1.0455  1.5304
 6959TIP3   OH242511   3.725   1.166   1.289 -0.3916 -0.2382  0.7647
 6959TIP3    H142512   3.770   1.084   1.309 -0.6237 -0.4491  0.4177
 6959TIP3    H242513   3.634   1.141   1.276 -0.1554 -0.2069 -1.2135
 6960TIP3   OH242514   2.582   4.318   0.898 -0.2914 -0.5153 -0.1993
 6960TIP3    H142515   2.524   4.385   0.860 -0.5911 -0.5769  0.1441
 6960TIP3    H242516   2.653   4.309   0.834 -0.7265 -0.5329 -0.6900
 6961TIP3   OH242517   3.862   6.987   6.480  0.3556 -0.1215  0.0564
 6961TIP3    H142518   3.848   6.908   6.532 -1.0091  0.3978  0.5173
 6961TIP3    H242519   3.856   6.958   6.389  0.1536 -0.5922  0.2175
 6962TIP3   OH242520   4.877   2.207   6.969  0.3995 -0.1821  0.6246
 6962TIP3    H142521   4.968   2.237   6.975  1.0971 -2.0079 -0.1702
 6962TIP3    H242522   4.875   2.153   6.890 -1.5048  0.1728  0.3810
 6963TIP3   OH242523   4.576   5.775   1.650 -0.2795 -0.1308 -0.0974
 6963TIP3    H142524   4.630   5.844   1.687  0.0650  0.4999 -1.6814
 6963TIP3    H242525   4.620   5.751   1.568  0.7577 -3.6829  1.3054
 6964TIP3   OH242526   6.558   4.008   7.184 -0.2372 -0.1245  0.1316
 6964TIP3    H142527   6.526   4.024   7.273 -1.3831  2.3020 -0.6191
 6964TIP3    H242528   6.607   4.088   7.162 -1.5392  0.1595 -2.0270
 6965TIP3   OH242529   4.774   5.438   7.663 -0.5326 -0.1408  0.5878
 6965TIP3    H142530   4.689   5.398   7.647 -1.2175  1.9976 -1.8014
 6965TIP3    H242531   4.834   5.389   7.607 -0.5681 -0.3322  0.7137
 6966TIP3   OH242532   2.747   0.423   1.118  0.0870 -0.3469 -0.1858
 6966TIP3    H142533   2.739   0.385   1.206  1.0944  0.9733  0.4997
 6966TIP3    H242534   2.670   0.390   1.071 -1.0062 -0.3000  1.4822
 6967TIP3   OH242535   4.015   4.871   0.230 -0.2071 -0.3505  0.0469
 6967TIP3    H142536   4.033   4.927   0.154 -0.8075  1.0033  0.8782
 6967TIP3    H242537   4.036   4.782   0.199 -3.8082 -0.4180 -2.8946
 6968TIP3   OH242538   2.489   4.447   6.992 -0.3225  0.5592 -0.6078
 6968TIP3    H142539   2.433   4.502   6.938 -1.3401  0.7512  0.5780
 6968TIP3    H242540   2.428   4.387   7.036  0.4670  0.3198  0.1912
 6969TIP3   OH242541   5.048   2.830   6.184 -0.2819  0.4328 -0.3203
 6969TIP3    H142542   5.031   2.897   6.118 -0.3561 -0.5318 -1.3079
 6969TIP3    H242543   5.120   2.779   6.148 -0.1871  0.0058  0.4515
 6970TIP3   OH242544   7.205   3.672   6.703  0.6322  0.1454 -0.5277
 6970TIP3    H142545   7.273   3.639   6.761 -0.9999  1.0408  2.0816
 6970TIP3    H242546   7.146   3.598   6.689  0.4157  0.2365 -0.0895
 6971TIP3   OH242547   1.482   0.455   1.693 -0.3187  0.7284  0.0850
 6971TIP3    H142548   1.413   0.468   1.758  1.8841 -0.0101  2.7554
 6971TIP3    H242549   1.520   0.543   1.682  0.4903  0.5598  1.3046
 6972TIP3   OH242550   5.407   0.416   1.624 -0.1249 -0.2933  0.0571
 6972TIP3    H142551   5.441   0.437   1.711 -0.5116 -0.6182  0.2879
 6972TIP3    H242552   5.481   0.374   1.579 -0.5639 -2.1751  0.9900
 6973TIP3   OH242553   3.523   5.282   6.666  0.5018  0.2581  0.1952
 6973TIP3    H142554   3.551   5.198   6.701 -0.3224 -0.4522 -0.7643
 6973TIP3    H242555   3.517   5.340   6.742  1.4063 -0.4503  0.8208
 6974TIP3   OH242556   4.747   1.408   0.021  0.6090  0.7172 -0.5896
 6974TIP3    H142557   4.691   1.450  -0.044 -0.4550  0.1053 -0.0843
 6974TIP3    H242558   4.818   1.471   0.035 -1.1990  2.6164  0.5350
 6975TIP3   OH242559   4.640   0.321   6.517 -0.3382  0.3728  0.3998
 6975TIP3    H142560   4.649   0.244   6.574 -3.6001 -0.5428 -0.1015
 6975TIP3    H242561   4.585   0.291   6.445 -1.7931  3.1932  0.2140
 6976TIP3   OH242562   2.633   3.230   1.716  0.0611 -0.0587 -0.0441
 6976TIP3    H142563   2.652   3.323   1.724  2.2104 -0.4541  0.1020
 6976TIP3    H242564   2.685   3.201   1.641 -0.8722 -1.0881 -0.3253
 6977TIP3   OH242565   0.236   7.125   1.099  0.0830  0.1764 -0.3989
 6977TIP3    H142566   0.241   7.150   1.007 -0.6208  2.3175  0.0747
 6977TIP3    H242567   0.142   7.128   1.120  0.2138 -0.4989  0.3315
 6978TIP3   OH242568   1.344   4.678   7.382  0.4061 -0.0529 -0.1664
 6978TIP3    H142569   1.422   4.623   7.370  0.6117 -0.1608  1.3685
 6978TIP3    H242570   1.272   4.627   7.346  1.0224  0.0357 -1.5921
 6979TIP3   OH242571   6.238   4.854   7.087 -0.3487  0.4581 -0.0516
 6979TIP3    H142572   6.313   4.839   7.145  0.0025 -1.7797 -0.9961
 6979TIP3    H242573   6.238   4.779   7.028 -2.2162  1.3876 -1.3162
 6980TIP3   OH242574   0.922   3.467   0.561 -0.5336 -0.2225  0.1310
 6980TIP3    H142575   0.835   3.438   0.535  0.2749 -2.4919 -0.3609
 6980TIP3    H242576   0.979   3.443   0.487  0.6692  0.1078  0.9102
 6981TIP3   OH242577   0.229   2.338   1.170  0.0339  0.0792  0.0824
 6981TIP3    H142578   0.196   2.353   1.258 -2.3249 -0.3452 -0.6447
 6981TIP3    H242579   0.259   2.247   1.171 -0.6725 -0.1584  0.2772
 6982TIP3   OH242580   3.259   4.467   0.288 -0.2019  0.0228  0.2036
 6982TIP3    H142581   3.246   4.550   0.334  0.0285  0.7361 -0.9659
 6982TIP3    H242582   3.335   4.427   0.331  0.0268  0.6842  0.4312
 6983TIP3   OH242583   7.115   2.521   2.086  0.2204  0.7813 -0.1871
 6983TIP3    H142584   7.047   2.461   2.055  0.5913  0.1517  0.1870
 6983TIP3    H242585   7.083   2.608   2.063 -0.5837  0.4740 -0.2520
 6984TIP3   OH242586   3.818   2.047   1.003 -0.2844 -0.1740 -0.2107
 6984TIP3    H142587   3.906   2.014   1.023 -0.2004  0.4523  0.4930
 6984TIP3    H242588   3.788   1.992   0.931  1.1174  0.2931 -1.2117
 6985TIP3   OH242589   0.396   6.176   0.159 -0.3877 -0.0583  0.4336
 6985TIP3    H142590   0.466   6.112   0.168  0.4057  0.9713  2.1221
 6985TIP3    H242591   0.405   6.211   0.070  2.0659  0.9115  0.9901
 6986TIP3   OH242592   2.019   3.613   7.317 -0.1921  0.4567 -0.2480
 6986TIP3    H142593   2.078   3.645   7.385 -0.3591 -0.3119  0.2647
 6986TIP3    H242594   2.070   3.621   7.236  0.6699 -0.3242  0.2057
 6987TIP3   OH242595   1.677   1.250   0.825 -0.1932 -0.0463  0.0725
 6987TIP3    H142596   1.674   1.160   0.793 -1.9758  0.1406 -0.3926
 6987TIP3    H242597   1.728   1.298   0.759 -2.2681 -0.0290 -1.6023
 6988TIP3   OH242598   0.039   1.167   1.793 -0.3539 -0.0522 -0.3451
 6988TIP3    H142599   0.087   1.201   1.868 -1.2131  0.1020  0.1567
 6988TIP3    H242600   0.098   1.103   1.754 -0.2907 -0.9257  1.1009
 6989TIP3   OH242601   0.455   2.019   6.735 -0.2732  0.8128  0.2012
 6989TIP3    H142602   0.416   2.101   6.706 -0.7953  0.1706 -0.9904
 6989TIP3    H242603   0.407   1.996   6.815 -0.7969  1.1582 -0.0129
 6990TIP3   OH242604   2.529   1.030   7.606  0.3024 -0.3502 -0.4484
 6990TIP3    H142605   2.480   0.947   7.602  0.0197 -0.2208  0.1707
 6990TIP3    H242606   2.463   1.096   7.585  0.1173 -0.1443  0.7339
 6991TIP3   OH242607   6.282   1.199   0.341 -0.3605  0.0714 -0.3324
 6991TIP3    H142608   6.367   1.162   0.318  0.7319  0.5294  2.5303
 6991TIP3    H242609   6.290   1.292   0.321  0.0089  0.1901  0.3247
 6992TIP3   OH242610   5.417   2.203   6.662 -0.0240 -0.5559 -0.6671
 6992TIP3    H142611   5.400   2.143   6.590 -0.9336  0.1792 -1.0903
 6992TIP3    H242612   5.331   2.236   6.687  0.1656 -1.4956  1.4113
 6993TIP3   OH242613   5.972   1.569   6.799  0.0799  0.1831  0.0577
 6993TIP3    H142614   5.988   1.550   6.891 -0.7539  2.7826  0.8126
 6993TIP3    H242615   5.878   1.557   6.787 -0.2677  2.2675  0.2646
 6994TIP3   OH242616   0.105   2.440   0.967  0.3608 -0.3646  0.1336
 6994TIP3    H142617   0.142   2.395   1.043 -2.2861 -0.0224  1.7596
 6994TIP3    H242618   0.011   2.422   0.972 -0.2109  1.6840 -1.6841
 6995TIP3   OH242619   3.721   2.847   0.031 -0.1147  0.3071  0.3759
 6995TIP3    H142620   3.695   2.769   0.079 -0.3284  0.9904  1.4186
 6995TIP3    H242621   3.795   2.882   0.081  0.3956  0.4306 -0.4384
 6996TIP3   OH242622   5.733   3.738   7.598  0.2320  0.1526  0.0673
 6996TIP3    H142623   5.764   3.827   7.616  1.2366 -0.2283  0.2735
 6996TIP3    H242624   5.798   3.681   7.639 -1.1841 -0.6870  1.2632
 6997TIP3   OH242625   1.215   2.770   7.979  0.0213  0.1021 -0.1593
 6997TIP3    H142626   1.281   2.720   8.027  0.7569 -1.1882 -2.4001
 6997TIP3    H242627   1.245   2.861   7.984  1.3902 -0.3305 -0.2479
 6998TIP3   OH242628   3.235   0.964   7.397 -0.3385 -0.4492  0.3712
 6998TIP3    H142629   3.241   0.869   7.397  0.0947 -0.4254  0.6905
 6998TIP3    H242630   3.298   0.993   7.332 -1.7291 -0.4370 -1.0284
 6999TIP3   OH242631   2.263   0.811   0.478 -0.4169  0.1680 -0.3292
 6999TIP3    H142632   2.265   0.880   0.545  0.9039  2.1726 -2.2847
 6999TIP3    H242633   2.237   0.732   0.526 -1.0701  1.7887  2.2188
 7000TIP3   OH242634   2.830   2.982   1.870 -0.1057  0.0458 -0.4388
 7000TIP3    H142635   2.812   3.073   1.894 -0.1553 -0.2565  0.7283
 7000TIP3    H242636   2.880   2.947   1.944 -3.1907 -1.9176  0.9225
 7001TIP3   OH242637   5.381   3.803   6.324 -0.2120  0.2410  0.0363
 7001TIP3    H142638   5.359   3.711   6.306  0.0077  0.1938  0.0057
 7001TIP3    H242639   5.319   3.853   6.270 -0.0370  0.1050 -0.2944
 7002TIP3   OH242640   2.706   6.515   2.013  0.1340  0.2442 -0.1420
 7002TIP3    H142641   2.719   6.576   2.086  0.1716 -1.2591  1.1600
 7002TIP3    H242642   2.646   6.560   1.954  0.8836  1.9069  0.3057
 7003TIP3   OH242643   2.875   0.222   7.015  0.0687 -0.2062  0.1920
 7003TIP3    H142644   2.802   0.195   7.070  0.1352 -0.3802  0.1957
 7003TIP3    H242645   2.923   0.287   7.068 -1.1289  1.3146 -0.5215
 7004TIP3   OH242646   3.341   2.729   7.280  0.0374 -0.3628 -0.0651
 7004TIP3    H142647   3.379   2.644   7.304 -0.2883 -0.3003  0.7324
 7004TIP3    H242648   3.362   2.740   7.188  1.0074 -0.8209  0.0891
 7005TIP3   OH242649   4.024   0.924   0.351  0.3021 -0.4287  0.2108
 7005TIP3    H142650   3.980   0.999   0.391  0.9204 -0.5938  1.2470
 7005TIP3    H242651   4.114   0.929   0.383  1.4536  0.6154 -2.8551
 7006TIP3   OH242652   4.276   7.064   0.015 -0.1493 -0.2021  0.3092
 7006TIP3    H142653   4.337   7.026   0.078  0.7376  1.3809  0.4508
 7006TIP3    H242654   4.207   6.998   0.006  2.6417 -3.1193 -1.6181
 7007TIP3   OH242655   3.465   7.087   0.997 -0.3362 -0.1941 -0.4965
 7007TIP3    H142656   3.438   6.995   1.001  1.6790 -0.8292 -0.5323
 7007TIP3    H242657   3.561   7.084   0.995 -0.1698  1.9732  1.0849
 7008TIP3   OH242658   3.284   3.670   6.870 -0.2525 -0.3481 -0.0143
 7008TIP3    H142659   3.255   3.713   6.790  1.1310  1.0719  0.2011
 7008TIP3    H242660   3.374   3.700   6.883 -0.2496 -0.9697  1.7818
 7009TIP3   OH242661   2.968   4.148   0.923 -0.3264  0.2032 -0.1955
 7009TIP3    H142662   3.029   4.116   0.990 -1.7335 -1.3364  0.4249
 7009TIP3    H242663   2.929   4.068   0.886 -1.9230  1.1284 -0.5881
 7010TIP3   OH242664   1.494   1.360   0.045 -0.3047  0.7622  0.2118
 7010TIP3    H142665   1.428   1.293   0.062  0.0591 -0.1042 -1.5689
 7010TIP3    H242666   1.516   1.350  -0.047  0.8768  2.3537  0.2667
 7011TIP3   OH242667   1.828   0.409   6.741  0.2607 -0.2133 -0.3025
 7011TIP3    H142668   1.867   0.384   6.824 -2.2304 -2.3202  0.3960
 7011TIP3    H242669   1.761   0.473   6.764  0.6660  0.4436 -0.9187
 7012TIP3   OH242670   2.073   6.141   6.309  0.3791 -0.2832  0.3714
 7012TIP3    H142671   2.044   6.181   6.227 -1.7773 -3.0196 -0.3794
 7012TIP3    H242672   2.000   6.156   6.370  0.5472 -0.9971  0.7617
 7013TIP3   OH242673   6.607   5.400   0.262 -0.2854  0.1278 -0.0399
 7013TIP3    H142674   6.667   5.325   0.264  0.7963  0.9463 -0.7010
 7013TIP3    H242675   6.557   5.388   0.182 -0.8419 -0.4336  0.3898
 7014TIP3   OH242676   6.880   1.926   7.525 -0.2073  0.3404  0.3040
 7014TIP3    H142677   6.856   1.970   7.606 -1.6201  0.7781 -0.3186
 7014TIP3    H242678   6.906   1.997   7.466 -0.7330  0.1798 -0.1281
 7015TIP3   OH242679   5.427   6.457   0.914 -0.1872 -0.2027 -0.4163
 7015TIP3    H142680   5.459   6.382   0.863 -0.5632 -0.7007  0.0706
 7015TIP3    H242681   5.407   6.421   1.000  0.0575  0.5528 -0.0296
 7016TIP3   OH242682   1.947   3.356   7.752 -0.1972  0.2660 -0.4341
 7016TIP3    H142683   1.988   3.354   7.665 -0.0140 -1.3379 -0.3480
 7016TIP3    H242684   2.012   3.398   7.808  0.7205 -0.8496 -0.6144
 7017TIP3   OH242685   7.201   4.807   2.291 -0.1775 -0.1284  0.2208
 7017TIP3    H142686   7.290   4.804   2.256 -0.2626 -2.3306  0.0828
 7017TIP3    H242687   7.145   4.812   2.214 -0.2979 -3.3682 -0.0164
 7018TIP3   OH242688   0.508   0.097   0.533  0.1937  0.3100 -0.2960
 7018TIP3    H142689   0.460   0.165   0.579  0.1994  1.1778 -1.5355
 7018TIP3    H242690   0.564   0.057   0.600 -1.2708  0.1500  0.8835
 7019TIP3   OH242691   4.975   1.553   0.498 -0.5754 -0.6130 -0.4760
 7019TIP3    H142692   4.910   1.595   0.442 -0.4119 -1.0065 -0.9695
 7019TIP3    H242693   5.059   1.574   0.457 -0.3009  0.6731  0.6647
 7020TIP3   OH242694   3.319   2.382   7.960  0.5110  0.0361  0.0734
 7020TIP3    H142695   3.350   2.329   8.033  0.7948  1.7472  1.2664
 7020TIP3    H242696   3.392   2.381   7.897  0.7754 -0.4184  0.3835
 7021TIP3   OH242697   2.494   4.813   7.142 -0.1228 -0.2227 -0.3806
 7021TIP3    H142698   2.420   4.844   7.091  0.3945  0.5646 -0.6758
 7021TIP3    H242699   2.457   4.747   7.201 -1.0798  0.2670 -0.4138
 7022TIP3   OH242700   0.642   5.677   0.638  0.5591 -0.4326  0.2819
 7022TIP3    H142701   0.648   5.668   0.733  1.2592 -0.7604  0.2120
 7022TIP3    H242702   0.676   5.764   0.619 -1.5001  0.4655  0.5038
 7023TIP3   OH242703   4.554   4.761   7.970 -0.0067  0.4473  0.2026
 7023TIP3    H142704   4.499   4.683   7.971 -1.0705  1.1851  0.4181
 7023TIP3    H242705   4.611   4.748   7.894 -0.8746 -0.0605 -0.3787
 7024TIP3   OH242706   5.377   6.776   1.129 -0.4486 -0.1196 -0.6834
 7024TIP3    H142707   5.432   6.759   1.053 -0.6428 -0.1640 -0.8141
 7024TIP3    H242708   5.307   6.831   1.096 -0.8397 -0.5946 -0.6606
 7025TIP3   OH242709   4.235   5.895   0.367  0.1797  0.1615  0.4492
 7025TIP3    H142710   4.326   5.874   0.388  0.9478  1.2976 -1.5222
 7025TIP3    H242711   4.191   5.809   0.364  1.1575 -0.3941  1.4433
 7026TIP3   OH242712   2.350   0.674   1.065  0.1787  0.4766  0.4227
 7026TIP3    H142713   2.381   0.709   1.149 -0.0392  0.1973  0.6221
 7026TIP3    H242714   2.324   0.584   1.085  1.6628 -0.1511 -0.2871
 7027TIP3   OH242715   5.854   3.603   7.814 -0.3545 -0.4010 -1.0198
 7027TIP3    H142716   5.873   3.514   7.784 -2.1949 -1.4675  0.6680
 7027TIP3    H242717   5.931   3.628   7.864 -1.2245 -2.7189  1.7791
 7028TIP3   OH242718   1.774   0.902   7.607  0.4267  0.2504  0.2572
 7028TIP3    H142719   1.832   0.835   7.570  0.3103  0.0796  0.3817
 7028TIP3    H242720   1.804   0.984   7.569  0.9706  0.2062  0.5825
 7029TIP3   OH242721   0.831   0.726   0.148  0.0198  0.1490 -0.4056
 7029TIP3    H142722   0.854   0.702   0.238  2.1035 -0.7610 -1.1301
 7029TIP3    H242723   0.900   0.786   0.121 -0.0265 -0.3640 -1.7243
 7030TIP3   OH242724   1.477   4.475   2.032 -0.3160  0.2866  0.1440
 7030TIP3    H142725   1.571   4.470   2.019 -0.0574  0.5202  1.7657
 7030TIP3    H242726   1.445   4.387   2.013  0.0746  0.4299 -1.3230
 7031TIP3   OH242727   3.309   2.681   0.026 -0.1084  0.3688  0.6187
 7031TIP3    H142728   3.287   2.673  -0.067 -1.4302  1.2127  0.8218
 7031TIP3    H242729   3.356   2.600   0.047 -1.4561 -0.7097 -0.3352
 7032TIP3   OH242730   6.086   2.336   1.085  0.3099 -0.2261 -0.1474
 7032TIP3    H142731   6.087   2.353   1.179  1.1529  1.5092 -0.4281
 7032TIP3    H242732   6.148   2.264   1.074  0.0477 -0.5864  0.6438
 7033TIP3   OH242733   3.697   6.018   6.323  0.2337  0.2762  0.0786
 7033TIP3    H142734   3.764   5.952   6.342  1.5578  1.5691  0.1176
 7033TIP3    H242735   3.646   5.981   6.252  0.3177 -1.1944  0.7544
 7034TIP3   OH242736   3.342   5.302   7.366 -0.0378 -0.0260  0.1411
 7034TIP3    H142737   3.334   5.358   7.289  0.8444 -1.3938 -1.0099
 7034TIP3    H242738   3.435   5.277   7.367  0.3071  1.1168  2.5180
 7035TIP3   OH242739   6.233   5.491   1.127  0.1773  0.0864 -0.1906
 7035TIP3    H142740   6.204   5.481   1.217 -0.5225 -0.6804 -0.4809
 7035TIP3    H242741   6.246   5.585   1.116  1.4364  0.0832  1.0363
 7036TIP3   OH242742   3.682   4.374   1.164 -0.1680 -0.1705 -0.0251
 7036TIP3    H142743   3.663   4.357   1.072  2.5130 -0.6607 -0.5929
 7036TIP3    H242744   3.719   4.291   1.197 -0.5607  0.1664  1.3626
 7037TIP3   OH242745   6.166   3.059   2.013 -0.3014  0.5166 -0.5974
 7037TIP3    H142746   6.169   3.030   2.104  1.1929 -0.9379 -1.0651
 7037TIP3    H242747   6.072   3.063   1.993 -0.6728 -2.2166  0.1205
 7038TIP3   OH242748   0.676   2.825   7.093  0.1423  0.4179  0.4229
 7038TIP3    H142749   0.603   2.881   7.118 -0.5635 -0.1543 -0.2642
 7038TIP3    H242750   0.697   2.776   7.172 -0.2650  0.5453  0.6145
 7039TIP3   OH242751   2.635   2.619   1.611 -0.4587 -0.3604 -0.6262
 7039TIP3    H142752   2.707   2.678   1.634  0.1496 -0.7206 -1.5434
 7039TIP3    H242753   2.581   2.615   1.690  1.1949 -1.0678  0.5493
 7040TIP3   OH242754   6.329   1.576   1.431  0.4916  0.1622 -0.1409
 7040TIP3    H142755   6.381   1.607   1.357  0.6483 -0.6305 -0.3831
 7040TIP3    H242756   6.384   1.509   1.472 -0.1823 -0.4289 -0.1778
 7041TIP3   OH242757   1.490   1.150   0.382 -0.0357 -0.3842  0.3915
 7041TIP3    H142758   1.556   1.198   0.333 -0.1193  0.1837  0.8247
 7041TIP3    H242759   1.539   1.097   0.444  0.0431 -0.5440  0.1916
 7042TIP3   OH242760   3.348   4.706   6.108 -0.0475 -0.4054  0.3259
 7042TIP3    H142761   3.295   4.769   6.059  1.4142 -0.1373 -0.9928
 7042TIP3    H242762   3.328   4.621   6.067  0.8641 -0.2379 -0.4978
 7043TIP3   OH242763   4.323   5.732   1.517 -0.2553 -0.3679 -0.3343
 7043TIP3    H142764   4.407   5.750   1.558 -1.5501 -0.1433  2.5374
 7043TIP3    H242765   4.285   5.819   1.501 -0.3421 -0.4694 -0.6845
 7044TIP3   OH242766   7.185   2.291   7.964 -0.0969 -0.3106 -0.1416
 7044TIP3    H142767   7.231   2.354   8.020  1.4431 -1.6216  0.1337
 7044TIP3    H242768   7.104   2.336   7.940 -0.3033  0.7682  2.2079
 7045TIP3   OH242769   6.490   1.499   2.241  0.5815 -0.4988 -0.2501
 7045TIP3    H142770   6.579   1.466   2.240  0.0414 -2.0159 -0.3829
 7045TIP3    H242771   6.435   1.422   2.228 -0.6778  0.6517 -2.2761
 7046TIP3   OH242772   3.979   3.064   7.605 -0.2429  0.4073 -0.5354
 7046TIP3    H142773   4.011   3.149   7.636 -0.3091  0.3115 -0.2017
 7046TIP3    H242774   3.925   3.031   7.676  0.1297 -0.1079 -0.4873
 7047TIP3   OH242775   0.862   2.124   7.221  0.6141  0.0529  0.4505
 7047TIP3    H142776   0.839   2.035   7.195 -0.3384  0.9671 -2.1216
 7047TIP3    H242777   0.803   2.143   7.295  1.3590 -1.6579  1.5311
 7048TIP3   OH242778   0.517   2.854   1.547  0.1328 -0.1000  0.1355
 7048TIP3    H142779   0.434   2.810   1.566  1.0130 -1.1194  1.7956
 7048TIP3    H242780   0.550   2.882   1.632  0.8340  1.5808 -0.6372
 7049TIP3   OH242781   6.617   5.229   2.372 -0.3618 -0.2304  0.0777
 7049TIP3    H142782   6.689   5.200   2.428  0.5616  0.0981 -0.8963
 7049TIP3    H242783   6.570   5.294   2.424 -0.0888 -0.6082  0.8020
 7050TIP3   OH242784   0.837   6.782   1.962 -0.1755  0.4778  0.1843
 7050TIP3    H142785   0.810   6.691   1.957  2.5873 -0.4029 -0.1897
 7050TIP3    H242786   0.780   6.820   2.029 -2.1644 -1.1694 -0.4825
 7051TIP3   OH242787   1.779   7.037   0.724 -0.4760 -0.3875  0.7822
 7051TIP3    H142788   1.801   6.949   0.755  0.8946 -0.3727 -0.0495
 7051TIP3    H242789   1.749   7.084   0.801 -0.8404 -1.4608  1.3128
 7052TIP3   OH242790   5.283   5.223   0.393 -0.1128 -0.0325 -0.0223
 7052TIP3    H142791   5.201   5.251   0.433 -0.1250  0.7928 -0.5924
 7052TIP3    H242792   5.260   5.143   0.345 -0.0280 -1.2191  1.8087
 7053TIP3   OH242793   4.786   0.121   0.776  0.3088  0.7142 -0.3157
 7053TIP3    H142794   4.751   0.142   0.690 -1.5762  1.6141  0.6160
 7053TIP3    H242795   4.816   0.031   0.769 -1.7507  0.0547 -1.3688
 7054TIP3   OH242796   4.662   6.735   7.928  0.3675  0.5573 -0.5327
 7054TIP3    H142797   4.684   6.649   7.893  2.3029  0.7594  0.0693
 7054TIP3    H242798   4.747   6.775   7.948 -0.5454  1.8559  0.9835
 7055TIP3   OH242799   1.279   5.236   0.010 -0.0881  0.7305 -0.1597
 7055TIP3    H142800   1.278   5.317   0.062  0.9706  0.4502  0.3197
 7055TIP3    H242801   1.368   5.232  -0.025  0.8554 -1.6775  2.1829
 7056TIP3   OH242802   0.005   2.055   7.391 -0.4510 -0.3577  0.3590
 7056TIP3    H142803  -0.052   1.980   7.376 -0.2730 -0.3458 -0.4444
 7056TIP3    H242804   0.059   2.030   7.465 -1.0313 -0.6422  0.6924
 7057TIP3   OH242805   1.383   0.241   7.160 -0.0770 -0.2900 -0.5233
 7057TIP3    H142806   1.312   0.230   7.097 -1.4552 -1.6801  1.1712
 7057TIP3    H242807   1.360   0.319   7.209  0.3636  0.1025 -0.9327
 7058TIP3   OH242808   4.661   3.257   7.317 -1.0160  0.1156  0.0388
 7058TIP3    H142809   4.746   3.302   7.318  0.4056 -2.3616  0.5213
 7058TIP3    H242810   4.617   3.287   7.397 -1.0593  2.1247 -0.6749
 7059TIP3   OH242811   0.999   3.539   1.231 -0.3190  0.5562  0.0754
 7059TIP3    H142812   0.976   3.449   1.209  0.7455  0.3928 -0.4380
 7059TIP3    H242813   1.091   3.535   1.258 -0.2204  1.4985 -0.0702
 7060TIP3   OH242814   3.780   2.314   1.093  0.1766  0.8712  0.5760
 7060TIP3    H142815   3.797   2.222   1.073 -0.9033  0.8498 -0.3603
 7060TIP3    H242816   3.855   2.341   1.145  0.5876 -0.4979  0.7473
 7061TIP3   OH242817   4.660   1.137   0.137 -0.2338 -0.8108  0.0643
 7061TIP3    H142818   4.723   1.207   0.122  0.1257 -0.8451  1.3084
 7061TIP3    H242819   4.651   1.132   0.232 -0.3148 -2.3758  0.0110
 7062TIP3   OH242820   0.620   6.784   6.105  0.3866  0.2114  0.2669
 7062TIP3    H142821   0.672   6.818   6.178 -0.0902  0.5413  0.4515
 7062TIP3    H242822   0.642   6.690   6.103 -0.4925 -0.0508  1.5917
 7063TIP3   OH242823   6.864   1.191   0.131 -0.1369 -0.2127 -0.0097
 7063TIP3    H142824   6.790   1.209   0.074 -0.1798  2.1988  0.7002
 7063TIP3    H242825   6.924   1.265   0.118  1.0136 -0.8699  1.2250
 7064TIP3   OH242826   1.306   1.502   1.393 -0.5947 -0.1818 -0.0123
 7064TIP3    H142827   1.327   1.587   1.353  0.0518 -0.7339 -0.9079
 7064TIP3    H242828   1.385   1.479   1.441  0.0437 -1.1885 -1.4534
 7065TIP3   OH242829   1.815   0.473   7.644 -0.4546  0.2637  0.1696
 7065TIP3    H142830   1.723   0.454   7.660 -0.1414 -3.0359 -0.9968
 7065TIP3    H242831   1.853   0.488   7.731 -1.4851 -2.0952  1.1210
 7066TIP3   OH242832   3.507   3.251   2.076 -0.0593  0.0828  0.2772
 7066TIP3    H142833   3.571   3.194   2.034  0.6084 -0.1708  1.5680
 7066TIP3    H242834   3.554   3.332   2.094 -1.3233  1.6081 -2.6306
 7067TIP3   OH242835   3.346   3.821   1.132  0.3438 -0.7263  0.2643
 7067TIP3    H142836   3.388   3.798   1.049  1.3137  1.4814  0.0868
 7067TIP3    H242837   3.419   3.827   1.194  0.0175  0.7410  0.5264
 7068TIP3   OH242838   6.788   2.831   5.523 -0.1878  0.0578  0.1117
 7068TIP3    H142839   6.712   2.876   5.487  0.2891  2.1791  1.5518
 7068TIP3    H242840   6.755   2.787   5.602  0.0301  1.0325  0.7737
 7069TIP3   OH242841   5.095   0.391   0.218 -0.0630 -1.2578  0.6507
 7069TIP3    H142842   5.168   0.342   0.180  0.0381  0.0504 -0.9882
 7069TIP3    H242843   5.133   0.475   0.243 -1.0823 -0.2985 -0.8480
 7070TIP3   OH242844   0.643   0.965   0.502  0.4714 -0.0286  0.4479
 7070TIP3    H142845   0.727   0.927   0.526  0.5184  0.6746  1.4658
 7070TIP3    H242846   0.666   1.038   0.444  0.6590  0.8436  1.5886
 7071TIP3   OH242847   6.270   4.122   1.233  0.7241  0.6320 -0.1246
 7071TIP3    H142848   6.300   4.210   1.210  1.7768  0.2965 -0.0750
 7071TIP3    H242849   6.344   4.065   1.212  0.5746 -0.0684  1.1638
 7072TIP3   OH242850   2.645   6.250   7.662  0.5539  0.5266  0.0239
 7072TIP3    H142851   2.658   6.286   7.575  2.5013  0.4956  0.2559
 7072TIP3    H242852   2.612   6.161   7.647 -0.0938  0.8761 -0.6451
 7073TIP3   OH242853   0.795   5.932   6.447 -0.2009 -0.1693 -0.2442
 7073TIP3    H142854   0.722   5.980   6.486 -0.1973 -1.7937  1.9626
 7073TIP3    H242855   0.768   5.840   6.451  1.1615 -0.6375 -1.2149
 7074TIP3   OH242856   4.981   4.885   6.508  0.2525 -0.1699  0.1379
 7074TIP3    H142857   5.016   4.974   6.510  0.8932 -0.4302  0.8020
 7074TIP3    H242858   4.951   4.873   6.417  0.0460  0.7581  0.0729
 7075TIP3   OH242859   1.354   5.611   7.955  0.0850  0.4439 -0.4834
 7075TIP3    H142860   1.298   5.685   7.982 -0.3649 -0.3240  0.7696
 7075TIP3    H242861   1.346   5.548   8.027  0.0770 -1.0439 -1.7551
 7076TIP3   OH242862   7.003   2.973   1.008 -0.1004  0.0899 -0.0951
 7076TIP3    H142863   6.986   2.930   1.092  0.2587 -2.4342 -1.1997
 7076TIP3    H242864   7.071   3.037   1.027 -0.1585 -0.2847  1.5661
 7077TIP3   OH242865   5.708   5.750   5.957  0.0373 -0.1711  0.3147
 7077TIP3    H142866   5.716   5.834   6.004 -1.7855  0.2961 -0.1557
 7077TIP3    H242867   5.724   5.772   5.866 -1.9730  0.0083 -0.0397
 7078TIP3   OH242868   1.076   6.320   1.857  0.0294 -0.0643 -0.2153
 7078TIP3    H142869   1.147   6.379   1.880  0.1296 -0.0653 -0.5150
 7078TIP3    H242870   1.115   6.232   1.864 -0.4716 -0.1797  1.4959
 7079TIP3   OH242871   3.604   1.210   5.703  0.1768  0.1338  0.1326
 7079TIP3    H142872   3.697   1.232   5.692  0.5225 -0.1324  2.0344
 7079TIP3    H242873   3.559   1.260   5.636  1.3526  3.0923  1.3510
 7080TIP3   OH242874   4.451   0.388   1.599  0.3431 -0.0292 -0.4496
 7080TIP3    H142875   4.509   0.332   1.548  0.0890 -1.0578  0.3593
 7080TIP3    H242876   4.498   0.404   1.681 -0.2426 -0.3703 -0.0394
 7081TIP3   OH242877   1.524   3.478   6.843 -0.0227 -0.0433  0.1441
 7081TIP3    H142878   1.582   3.522   6.781 -1.6271  0.7177 -0.8889
 7081TIP3    H242879   1.579   3.412   6.885  1.5936  0.6970 -0.7079
 7082TIP3   OH242880   3.512   6.650   1.613  0.1866 -0.1850  0.7625
 7082TIP3    H142881   3.514   6.555   1.600  0.1180  0.0590 -1.3534
 7082TIP3    H242882   3.501   6.686   1.525  0.2974  1.8010  1.5144
 7083TIP3   OH242883   2.779   4.421   7.588 -0.2599  0.1594  0.0017
 7083TIP3    H142884   2.716   4.402   7.658 -0.0365 -1.1770 -0.1193
 7083TIP3    H242885   2.747   4.370   7.513 -1.7350  3.2316 -1.6491
 7084TIP3   OH242886   2.048   6.353   7.529  0.3028  0.0188 -0.0151
 7084TIP3    H142887   2.136   6.317   7.526  1.4672  2.1919  2.8513
 7084TIP3    H242888   2.051   6.429   7.471 -1.2421 -2.4455 -3.6388
 7085TIP3   OH242889   2.263   6.111   7.717 -0.1927  0.5447  0.1154
 7085TIP3    H142890   2.277   6.022   7.685 -0.9790  0.5602 -0.2941
 7085TIP3    H242891   2.280   6.106   7.811 -2.0638 -0.4647  0.4369
 7086TIP3   OH242892   1.241   6.181   6.283 -0.6353 -0.1692  0.1605
 7086TIP3    H142893   1.253   6.086   6.282  2.5882  0.1290 -0.2374
 7086TIP3    H242894   1.247   6.204   6.376 -1.6535 -0.3536  0.2798
 7087TIP3   OH242895   1.748   1.949   7.127 -0.0940  0.4183  0.5121
 7087TIP3    H142896   1.672   1.933   7.071 -0.5648  2.6234  0.4098
 7087TIP3    H242897   1.726   2.029   7.175  2.0405  0.9521  0.7101
 7088TIP3   OH242898   2.482   5.537   6.952 -0.1586 -0.0042  0.1970
 7088TIP3    H142899   2.534   5.582   6.886  0.2129 -2.0336 -0.9919
 7088TIP3    H242900   2.538   5.465   6.982 -1.1727 -0.4685  1.0554
 7089TIP3   OH242901   3.399   2.860   7.495 -0.0669  0.1377 -0.3475
 7089TIP3    H142902   3.405   2.955   7.483 -0.1350  0.4266  1.6178
 7089TIP3    H242903   3.379   2.826   7.408  2.9779  1.6068 -1.7746
 7090TIP3   OH242904   4.350   2.282   0.230 -0.1436  0.1593 -0.5949
 7090TIP3    H142905   4.425   2.304   0.285 -0.8490  0.2864  0.3314
 7090TIP3    H242906   4.284   2.348   0.250 -0.4864  0.1054 -1.4705
 7091TIP3   OH242907   3.617   6.552   5.503 -0.1760  0.1857  0.1646
 7091TIP3    H142908   3.552   6.538   5.435  2.0347 -1.4567 -1.7625
 7091TIP3    H242909   3.587   6.500   5.577 -0.5270 -1.4160 -1.0751
 7092TIP3   OH242910   2.699   4.920   6.513  0.4884  0.5093 -0.2739
 7092TIP3    H142911   2.633   4.870   6.465 -2.1911  0.7427  2.8063
 7092TIP3    H242912   2.658   5.005   6.529  0.1847 -0.2345  4.0597
 7093TIP3   OH242913   0.406   5.223   6.847  0.2465 -0.2842 -0.0801
 7093TIP3    H142914   0.485   5.189   6.889  1.5579 -0.6543 -2.6678
 7093TIP3    H242915   0.433   5.306   6.807 -0.3690 -0.8833 -1.8380
 7094TIP3   OH242916   4.697   2.562   1.834 -1.3124 -0.6174  0.0071
 7094TIP3    H142917   4.718   2.534   1.745  1.0691 -0.5270  0.4842
 7094TIP3    H242918   4.757   2.513   1.889 -0.3464  1.8122  1.2603
 7095TIP3   OH242919   0.077   4.465   1.343 -0.2662 -0.2864  0.0935
 7095TIP3    H142920   0.078   4.559   1.361 -0.5528 -0.2024 -0.3175
 7095TIP3    H242921   0.007   4.453   1.278  0.8114 -0.5566 -1.0592
 7096TIP3   OH242922   6.197   4.391   0.015 -0.4203 -0.4671  0.0641
 7096TIP3    H142923   6.257   4.373  -0.057 -0.0673  0.5427  0.0864
 7096TIP3    H242924   6.253   4.403   0.092 -0.8034 -1.6709  0.5466
 7097TIP3   OH242925   5.456   4.373   0.108  0.3245  0.5190  0.1108
 7097TIP3    H142926   5.494   4.450   0.067 -0.5219  1.1648  0.5003
 7097TIP3    H242927   5.425   4.319   0.035 -0.3016  1.2010 -0.1394
 7098TIP3   OH242928   4.592   2.724   1.540  0.1094  0.1622  0.3413
 7098TIP3    H142929   4.498   2.709   1.527  0.3066 -1.5458  0.6161
 7098TIP3    H242930   4.597   2.799   1.599 -1.1449 -0.6095  1.4915
 7099TIP3   OH242931   4.290   1.500   0.245  0.1222 -0.7091 -0.2740
 7099TIP3    H142932   4.290   1.578   0.301 -0.3892 -1.2164  0.4477
 7099TIP3    H242933   4.214   1.511   0.188  0.3757 -0.4174 -0.5641
 7100TIP3   OH242934   1.142   5.710   6.042  0.0552  0.6519  0.3435
 7100TIP3    H142935   1.122   5.690   5.950  0.1133 -0.0876  0.4826
 7100TIP3    H242936   1.058   5.701   6.087  0.1551  0.3417  0.4706
 7101TIP3   OH242937   2.388   3.375   7.062 -0.2530  0.0982  0.6887
 7101TIP3    H142938   2.438   3.296   7.085 -1.4759 -0.9813 -0.1768
 7101TIP3    H242939   2.441   3.447   7.095  2.2279 -0.9082 -0.7710
 7102TIP3   OH242940   4.509   4.307   6.849  0.2275 -0.5327 -0.0431
 7102TIP3    H142941   4.508   4.362   6.928 -0.0541  0.1549 -0.5183
 7102TIP3    H242942   4.421   4.316   6.813  0.0752 -1.5686  0.0513
 7103TIP3   OH242943   5.353   2.625   0.191  0.0525  0.0351 -0.5350
 7103TIP3    H142944   5.357   2.551   0.130 -2.3293 -0.0326 -0.7264
 7103TIP3    H242945   5.379   2.701   0.139 -0.9092 -0.1868 -1.3796
 7104TIP3   OH242946   3.476   2.868   1.939  0.3245 -0.2356  0.2583
 7104TIP3    H142947   3.429   2.846   1.858 -0.5260 -1.8118  1.1337
 7104TIP3    H242948   3.568   2.854   1.917 -0.0175 -2.9664  0.1499
 7105TIP3   OH242949   2.198   5.124   1.313  0.0845 -0.4029 -0.0622
 7105TIP3    H142950   2.209   5.195   1.249  0.1657 -1.8431 -1.7194
 7105TIP3    H242951   2.103   5.114   1.320  0.0797 -0.8833 -0.7256
 7106TIP3   OH242952   3.666   6.292   6.320 -0.1208 -0.2349  0.5464
 7106TIP3    H142953   3.687   6.201   6.337  1.4715  0.2139  1.1875
 7106TIP3    H242954   3.751   6.335   6.310 -0.8401  0.9436 -1.0653
 7107TIP3   OH242955   4.497   2.574   0.603  0.1035  0.1314 -0.2871
 7107TIP3    H142956   4.557   2.570   0.677  0.3079 -0.4568 -0.4722
 7107TIP3    H242957   4.475   2.666   0.594  1.0712  0.3740 -0.2854
 7108TIP3   OH242958   5.561   5.555   0.365 -0.1481 -0.4044 -0.4535
 7108TIP3    H142959   5.545   5.485   0.428 -0.8404  1.9966  2.2444
 7108TIP3    H242960   5.484   5.554   0.308 -0.1164 -1.8090 -0.5065
 7109TIP3   OH242961   5.815   4.465   7.243  0.0503  0.2516  0.1766
 7109TIP3    H142962   5.873   4.500   7.311 -0.5439  1.7388 -0.0674
 7109TIP3    H242963   5.732   4.450   7.288 -0.1293  0.5414 -0.0619
 7110TIP3   OH242964   1.891   2.929   6.874  0.5258 -0.9270 -0.1069
 7110TIP3    H142965   1.942   2.868   6.821  0.6287 -0.2212 -0.8360
 7110TIP3    H242966   1.835   2.873   6.928  2.6348 -1.7458  1.3393
 7111TIP3   OH242967   5.896   5.583   0.691  0.1775  0.3477 -0.3546
 7111TIP3    H142968   5.956   5.550   0.758  0.7767  0.7800 -0.6683
 7111TIP3    H242969   5.836   5.640   0.740  1.1635  1.3749 -0.2989
 7112TIP3   OH242970   0.127   1.738   7.402  0.2705 -0.3118 -0.0519
 7112TIP3    H142971   0.034   1.742   7.381  0.1876 -0.7253  0.2222
 7112TIP3    H242972   0.129   1.723   7.497  0.6217  0.3363  0.0449
 7113TIP3   OH242973   2.459   3.510   1.440 -0.2477 -0.4478  0.2947
 7113TIP3    H142974   2.426   3.560   1.365  0.8339 -1.7621 -1.1510
 7113TIP3    H242975   2.537   3.557   1.468  0.7215 -1.1817 -1.0104
 7114TIP3   OH242976   3.812   2.897   7.106 -0.0862 -0.6069  0.7181
 7114TIP3    H142977   3.843   2.982   7.075  0.0923 -0.6728  0.7087
 7114TIP3    H242978   3.811   2.905   7.201  0.2277 -0.6910  0.7320
 7115TIP3   OH242979   6.924   0.794   0.352  0.1752  0.4516 -0.1093
 7115TIP3    H142980   6.845   0.741   0.349  0.9879 -0.9772  1.6665
 7115TIP3    H242981   6.892   0.884   0.366 -1.1854 -0.3459  2.7409
 7116TIP3   OH242982   0.628   0.409   0.445  0.7062 -0.4139 -0.0256
 7116TIP3    H142983   0.656   0.487   0.396 -1.5506 -0.6939 -1.9513
 7116TIP3    H242984   0.710   0.366   0.470  1.9902  1.6708 -0.4070
 7117TIP3   OH242985   4.451   2.930   2.074  0.4110  0.4076 -0.4817
 7117TIP3    H142986   4.441   3.020   2.043  0.0751  0.2683 -0.7904
 7117TIP3    H242987   4.523   2.895   2.022 -0.1226  0.1886 -1.0914
 7118TIP3   OH242988   4.815   6.206   6.197  0.0667  0.1620  0.5518
 7118TIP3    H142989   4.879   6.245   6.139  0.4844 -0.1137  0.8211
 7118TIP3    H242990   4.758   6.155   6.139 -0.1002  0.6563  0.2782
 7119TIP3   OH242991   0.004   0.091   7.112  0.0192  0.1901  0.7804
 7119TIP3    H142992   0.015   0.080   7.207 -1.1905 -0.2172  0.8905
 7119TIP3    H242993   0.072   0.036   7.074  0.3557  0.1544  1.4063
 7120TIP3   OH242994   0.377   5.460   0.834  0.0156 -0.1144 -0.6124
 7120TIP3    H142995   0.415   5.396   0.773  0.6424 -1.5897  1.2204
 7120TIP3    H242996   0.283   5.446   0.828  0.0144  0.2491 -1.7165
 7121TIP3   OH242997   3.019   1.170   6.471 -0.1393 -1.1092  0.3269
 7121TIP3    H142998   3.074   1.246   6.453 -1.1977 -0.4334 -0.1748
 7121TIP3    H242999   3.059   1.128   6.547  0.4305 -0.0210  0.6394
 7122TIP3   OH243000   6.836   4.538   0.400  0.6311  0.1907  0.3605
 7122TIP3    H143001   6.788   4.544   0.317 -3.3591 -1.8604  2.2457
 7122TIP3    H243002   6.878   4.624   0.409 -2.0580  1.9643 -1.9728
 7123TIP3   OH243003   3.538   6.352   0.848 -0.1459 -0.3545  0.0532
 7123TIP3    H143004   3.497   6.417   0.790 -2.1398 -0.5321  1.1866
 7123TIP3    H243005   3.546   6.274   0.794 -3.4168 -1.0027  0.3199
 7124TIP3   OH243006   1.888   4.713   0.003  0.3367 -0.8040  0.5815
 7124TIP3    H143007   1.923   4.625  -0.007  0.3988 -0.7311  0.1287
 7124TIP3    H243008   1.956   4.760   0.052  1.3891 -0.3851 -1.1566
 7125TIP3   OH243009   4.687   5.664   7.531  0.0700  0.2102  0.5935
 7125TIP3    H143010   4.767   5.697   7.488 -1.3001  0.6677 -1.8084
 7125TIP3    H243011   4.714   5.583   7.573  2.1083  1.0730  1.0696
 7126TIP3   OH243012   3.478   4.560   7.645 -0.2081  0.0470 -0.1088
 7126TIP3    H143013   3.466   4.465   7.642 -1.1499  0.1197  0.8777
 7126TIP3    H243014   3.551   4.577   7.585  1.0767 -1.4724  0.9503
 7127TIP3   OH243015   5.917   0.978   1.708 -0.4190  0.3104 -0.0162
 7127TIP3    H143016   5.894   0.896   1.665  1.2781  0.9153 -2.2829
 7127TIP3    H243017   5.929   1.040   1.636  3.2902  1.2452  1.2024
 7128TIP3   OH243018   0.620   3.569   7.086  0.0858 -0.6816  0.9853
 7128TIP3    H143019   0.623   3.476   7.063 -0.6985 -1.0931  2.4054
 7128TIP3    H243020   0.593   3.613   7.006  0.2345 -1.7038  0.3546
 7129TIP3   OH243021   4.792   4.945   0.173 -0.7735 -0.6908  0.4938
 7129TIP3    H143022   4.789   4.951   0.077 -0.1743 -0.6984  0.4767
 7129TIP3    H243023   4.745   4.864   0.193 -1.1635 -0.5331  0.2254
 7130TIP3   OH243024   7.055   2.173   7.586 -0.5510 -0.7400 -0.1061
 7130TIP3    H143025   7.104   2.131   7.657 -0.6377  0.8277  0.9492
 7130TIP3    H243026   7.123   2.204   7.526 -0.4240 -1.3010 -0.2548
 7131TIP3   OH243027   7.071   2.578   0.714  0.1487  0.2939 -0.6494
 7131TIP3    H143028   7.040   2.619   0.634  0.6137 -1.4003 -1.7545
 7131TIP3    H243029   7.163   2.556   0.695  0.0681 -0.7257  0.0827
 7132TIP3   OH243030   5.861   0.177   0.519  0.3767 -0.2990  0.1181
 7132TIP3    H143031   5.933   0.147   0.574 -0.5199  2.1287  2.9113
 7132TIP3    H243032   5.785   0.128   0.549 -0.1253  1.0617  1.1775
 7133TIP3   OH243033   0.120   1.592   0.954  0.0408 -0.2582  0.4282
 7133TIP3    H143034   0.180   1.554   0.890  0.7187  0.0524  0.8668
 7133TIP3    H243035   0.042   1.614   0.904  1.1242  1.3731 -0.6191
 7134TIP3   OH243036   1.663   6.189   6.894  0.3404 -0.0781  0.5757
 7134TIP3    H143037   1.713   6.117   6.854 -0.1158 -0.4812  0.7164
 7134TIP3    H243038   1.586   6.198   6.838  0.7547  0.8020  0.1336
 7135TIP3   OH243039   3.009   1.528   6.993  0.1915 -0.6437  0.3513
 7135TIP3    H143040   3.046   1.440   6.987  2.3879  0.1060  1.8242
 7135TIP3    H243041   3.074   1.584   6.952  0.4283  0.6395  2.3405
 7136TIP3   OH243042   0.614   4.372   6.395  0.0862  0.2811 -0.0881
 7136TIP3    H143043   0.615   4.308   6.466  0.8107 -0.6633 -0.9193
 7136TIP3    H243044   0.536   4.349   6.343  0.8097 -0.5003 -0.8638
 7137TIP3   OH243045   0.880   0.133   2.055 -0.4705 -0.2748  0.6297
 7137TIP3    H143046   0.815   0.065   2.072  1.0815 -1.7655  0.7882
 7137TIP3    H243047   0.863   0.199   2.122 -1.2833 -1.0331  1.1869
 7138TIP3   OH243048   6.498   6.263   0.507  0.3216  0.5013 -0.2155
 7138TIP3    H143049   6.429   6.212   0.550 -0.4035 -1.6001 -3.5694
 7138TIP3    H243050   6.568   6.200   0.490  0.6277  1.2651 -1.9619
 7139TIP3   OH243051   1.967   6.074   1.650  0.3775  0.1729  0.3843
 7139TIP3    H143052   1.988   6.167   1.654  2.4220 -0.2290  0.2552
 7139TIP3    H243053   2.045   6.034   1.613 -1.0066 -1.4478 -0.9235
 7140TIP3   OH243054   7.023   1.497   1.694  0.4215  0.1059  0.4962
 7140TIP3    H143055   7.104   1.498   1.642 -0.7139 -0.3553 -1.3697
 7140TIP3    H243056   7.004   1.404   1.706 -1.4103  0.0765 -1.7990
 7141TIP3   OH243057   7.023   5.832   7.114 -0.3941  0.1495  0.3107
 7141TIP3    H143058   7.088   5.887   7.071 -0.0769  0.2322  0.8863
 7141TIP3    H243059   7.054   5.743   7.100  1.6946  0.2401  3.3409
 7142TIP3   OH243060   0.171   4.742   1.412  0.2035 -0.1805 -0.0891
 7142TIP3    H143061   0.165   4.776   1.501 -2.0298  0.2078 -0.3243
 7142TIP3    H243062   0.191   4.819   1.358 -2.3805  0.3902 -0.3328
 7143TIP3   OH243063   6.086   6.896   1.081 -0.2998 -0.9324 -0.4448
 7143TIP3    H143064   5.995   6.914   1.108 -0.0495 -1.3366  0.7207
 7143TIP3    H243065   6.139   6.952   1.137  0.1578 -0.1034 -1.6717
 7144TIP3   OH243066   6.614   6.581   0.106  0.7121  0.0261  0.8675
 7144TIP3    H143067   6.550   6.538   0.163  1.4710 -1.6143  0.5397
 7144TIP3    H243068   6.649   6.510   0.051  1.1887  1.2729 -0.5124
 7145TIP3   OH243069   3.871   0.533   7.842  0.4178 -0.1229  0.2744
 7145TIP3    H143070   3.801   0.495   7.895  0.1157 -0.0665 -0.0768
 7145TIP3    H243071   3.852   0.503   7.753 -0.1310  1.2827 -0.1002
 7146TIP3   OH243072   6.761   4.431   1.264 -0.6815 -0.3874  0.7828
 7146TIP3    H143073   6.792   4.343   1.287 -0.1397 -0.1507  0.9720
 7146TIP3    H243074   6.830   4.490   1.294  0.6407 -0.1122 -2.4191
 7147TIP3   OH243075   4.762   6.345   7.488 -0.1166 -0.1982 -0.0514
 7147TIP3    H143076   4.737   6.387   7.406  0.0448  0.4180  0.2092
 7147TIP3    H243077   4.687   6.291   7.511 -0.7177  0.6737  0.0874
 7148TIP3   OH243078   2.051   6.400   0.058  0.1491  0.3445 -0.1280
 7148TIP3    H143079   1.988   6.331   0.035 -1.0534  1.7426 -1.2109
 7148TIP3    H243080   1.997   6.469   0.095  1.4385  0.4259  1.7029
 7149TIP3   OH243081   4.250   0.043   7.738 -1.0252 -0.4831 -0.4161
 7149TIP3    H143082   4.241   0.121   7.793 -0.3308  0.0999 -1.1030
 7149TIP3    H243083   4.250  -0.030   7.800 -2.1093  0.0188  0.2064
 7150TIP3   OH243084   5.947   4.152   1.639 -0.0541  0.1035  0.5434
 7150TIP3    H143085   5.967   4.081   1.701  1.2093 -2.1310 -2.2058
 7150TIP3    H243086   5.996   4.129   1.560 -2.8131  1.9123 -1.8947
 7151TIP3   OH243087   0.145   0.512   0.736  0.6329  0.1269 -0.0807
 7151TIP3    H143088   0.054   0.540   0.734  0.3494 -0.6733  0.9292
 7151TIP3    H243089   0.193   0.589   0.767  0.2776  0.4838 -0.4120
 7152TIP3   OH243090   4.739   2.438   6.995  0.3067  0.0000 -0.6598
 7152TIP3    H143091   4.659   2.403   7.033  0.3278  0.4874 -0.1487
 7152TIP3    H243092   4.799   2.363   6.990  0.4567  0.0045  0.6993
 7153TIP3   OH243093   3.505   4.381   7.322  0.3365 -0.0734 -0.4378
 7153TIP3    H143094   3.421   4.426   7.322  0.5117  0.3076  1.1429
 7153TIP3    H243095   3.509   4.337   7.237 -1.9040 -0.9521 -0.1483
 7154TIP3   OH243096   0.127   0.933   1.198 -0.0656  0.2134 -0.2250
 7154TIP3    H143097   0.067   0.878   1.147  2.6285 -1.0930 -2.2782
 7154TIP3    H243098   0.139   1.011   1.144  1.9220 -0.6676 -1.1778
 7155TIP3   OH243099   1.113   4.248   6.776  0.1474 -0.6906 -0.3898
 7155TIP3    H143100   1.130   4.304   6.852  0.7307  0.2968 -1.2261
 7155TIP3    H243101   1.088   4.164   6.814  0.7275 -0.3086  0.9032
 7156TIP3   OH243102   6.444   5.457   0.883  0.1662 -0.6748 -0.6018
 7156TIP3    H143103   6.371   5.435   0.824  0.8656 -1.4420 -1.2108
 7156TIP3    H243104   6.522   5.448   0.828  0.6915  0.8870 -0.1731
 7157TIP3   OH243105   4.391   6.126   6.423  0.2944 -0.4868  0.2927
 7157TIP3    H143106   4.457   6.174   6.373 -1.9571  0.1055 -2.3731
 7157TIP3    H243107   4.366   6.185   6.493  1.1696  0.0891  0.1372
 7158TIP3   OH243108   2.980   6.519   7.556 -0.3068  0.0092 -0.8832
 7158TIP3    H143109   3.060   6.484   7.596 -0.4251  0.0066 -0.6454
 7158TIP3    H243110   2.947   6.582   7.620  0.3448  1.1825 -1.6660
 7159TIP3   OH243111   2.319   3.351   0.082  0.1589 -0.2059 -0.3673
 7159TIP3    H143112   2.318   3.420   0.148 -0.6774 -0.2991 -0.2635
 7159TIP3    H243113   2.264   3.282   0.120  0.5446 -0.7011 -0.7020
 7160TIP3   OH243114   2.909   0.991   6.263 -0.1599 -0.5293 -0.4719
 7160TIP3    H143115   2.950   1.022   6.182 -1.5297  0.4210 -0.8411
 7160TIP3    H243116   2.943   1.049   6.331 -0.2272 -0.2889 -0.6396
 7161TIP3   OH243117   5.019   1.011   6.835 -0.1281 -0.3508 -0.2773
 7161TIP3    H143118   4.982   0.926   6.860 -1.3640 -0.2184 -1.5766
 7161TIP3    H243119   5.112   1.003   6.855 -0.2082 -2.0482 -0.4577
 7162TIP3   OH243120   0.543   3.121   7.430  1.4260 -0.4931  0.3840
 7162TIP3    H143121   0.517   3.132   7.522  1.1779 -2.8591  0.6503
 7162TIP3    H243122   0.626   3.169   7.423  0.4971  1.3846  1.2881
 7163TIP3   OH243123   5.452   7.010   0.463 -0.0477  0.2155 -0.2521
 7163TIP3    H143124   5.445   7.102   0.487  0.8443  0.2333 -0.0566
 7163TIP3    H243125   5.397   7.002   0.385 -3.9141 -0.0644  2.2154
 7164TIP3   OH243126   6.372   4.236   7.500 -0.1819  0.1503 -0.2634
 7164TIP3    H143127   6.424   4.315   7.489 -2.6877  2.0110  0.2230
 7164TIP3    H243128   6.319   4.231   7.420 -0.5644 -0.6336  0.0234
 7165TIP3   OH243129   1.897   6.906   6.099 -0.5426 -0.1863 -0.2245
 7165TIP3    H143130   1.954   6.983   6.101 -0.9579  0.3308 -3.2030
 7165TIP3    H243131   1.943   6.844   6.042 -1.0352 -1.4523  0.7176
 7166TIP3   OH243132   7.105   6.120   5.470 -0.0475 -0.3174 -0.0310
 7166TIP3    H143133   7.187   6.071   5.469  0.9327  1.2438 -0.1657
 7166TIP3    H243134   7.040   6.059   5.435  1.2237 -1.3002 -0.7832
 7167TIP3   OH243135   1.918   0.583   6.990  0.0430  0.1983 -0.5485
 7167TIP3    H143136   2.010   0.556   6.991 -0.0773 -0.2149  0.3617
 7167TIP3    H243137   1.904   0.624   7.075 -0.9252 -0.8490 -0.1695
 7168TIP3   OH243138   3.031   1.185   1.492 -0.3969  0.1367  0.2861
 7168TIP3    H143139   3.109   1.223   1.532  0.9141 -1.7980 -0.2549
 7168TIP3    H243140   2.957   1.224   1.539  0.8698  2.1562  0.6883
 7169TIP3   OH243141   5.346   4.714   1.708  0.3036  0.2870 -0.3864
 7169TIP3    H143142   5.368   4.801   1.741  0.5365  1.5168 -3.4203
 7169TIP3    H243143   5.250   4.711   1.708  0.3023  0.1781  0.5280
 7170TIP3   OH243144   0.426   6.550   6.941  0.2605  0.1938  0.6352
 7170TIP3    H143145   0.364   6.617   6.913 -0.2284  0.3500  2.0241
 7170TIP3    H243146   0.443   6.499   6.861 -2.0422 -0.1641  0.3065
 7171TIP3   OH243147   6.531   5.261   6.786 -0.6125 -0.3701  0.6028
 7171TIP3    H143148   6.624   5.251   6.762 -0.4463  0.5674  0.7992
 7171TIP3    H243149   6.505   5.175   6.820 -0.0181 -0.8504 -0.1249
 7172TIP3   OH243150   2.032   5.033   7.664  0.0518 -0.6037  0.3259
 7172TIP3    H143151   2.021   5.128   7.658 -0.6044 -0.7494 -1.9694
 7172TIP3    H243152   1.959   5.003   7.718 -0.2886  0.1178  0.2759
 7173TIP3   OH243153   5.823   5.759   6.404 -0.6436  0.2019 -0.0521
 7173TIP3    H143154   5.828   5.788   6.495 -0.0269  0.4411 -0.1566
 7173TIP3    H243155   5.779   5.831   6.358 -2.0763 -0.4408  0.2635
 7174TIP3   OH243156   0.567   4.798   7.301 -0.0077 -0.5125 -0.4563
 7174TIP3    H143157   0.593   4.888   7.320  0.7375 -0.1655 -2.7684
 7174TIP3    H243158   0.473   4.796   7.315  0.2746 -0.0483  1.8937
 7175TIP3   OH243159   4.675   6.585   0.639  0.1864  0.1091  0.3051
 7175TIP3    H143160   4.619   6.517   0.602  1.6498 -0.3355 -1.2253
 7175TIP3    H243161   4.697   6.554   0.727 -0.0487 -0.8726  0.0224
 7176TIP3   OH243162   4.555   6.376   7.184  0.1495 -0.2498  0.4040
 7176TIP3    H143163   4.631   6.432   7.203 -0.1976  0.3345  0.0990
 7176TIP3    H243164   4.582   6.324   7.109 -0.2617  0.9876 -0.6252
 7177TIP3   OH243165   4.025   1.407   1.371  0.3814  0.2670  0.4130
 7177TIP3    H143166   4.053   1.427   1.461 -0.7340  1.3258  0.5506
 7177TIP3    H243167   4.107   1.396   1.323  1.0032 -0.1188  1.5119
 7178TIP3   OH243168   0.995   4.939   7.315 -0.3699  0.2237 -0.2355
 7178TIP3    H143169   0.926   4.992   7.275 -0.5190 -0.2670 -0.6443
 7178TIP3    H243170   1.010   4.868   7.252  0.0730 -0.0192  0.1369
 7179TIP3   OH243171   4.589   1.452   0.237  0.1255  0.0387 -0.3801
 7179TIP3    H143172   4.500   1.483   0.228 -0.3330 -1.1697 -0.2419
 7179TIP3    H243173   4.620   1.441   0.147 -0.3369 -0.8024 -0.4429
 7180TIP3   OH243174   3.486   0.418   0.371  0.5420 -0.1077  0.1549
 7180TIP3    H143175   3.399   0.454   0.386  0.0561 -0.6319 -1.2656
 7180TIP3    H243176   3.542   0.496   0.363  0.0340  0.2640  0.1452
 7181TIP3   OH243177   0.632   6.448   1.262 -0.1632 -0.7388 -0.1218
 7181TIP3    H143178   0.613   6.485   1.176  1.7445  0.3473 -0.1258
 7181TIP3    H243179   0.572   6.494   1.322 -1.1437 -1.1387 -0.7708
 7182TIP3   OH243180   4.240   2.781   6.095  0.1502  0.2217 -0.1186
 7182TIP3    H143181   4.225   2.868   6.060  0.1631  0.7410  1.1140
 7182TIP3    H243182   4.153   2.745   6.108  0.1369  0.1884 -0.3010
 7183TIP3   OH243183   0.140   2.692   6.414  0.3350 -0.0682 -0.2672
 7183TIP3    H143184   0.063   2.749   6.410  0.3278  0.0591  1.0792
 7183TIP3    H243185   0.206   2.736   6.362  0.7603  1.8881  1.7867
 7184TIP3   OH243186   6.430   5.835   2.052  0.2158  0.4481 -0.3184
 7184TIP3    H143187   6.343   5.818   2.087 -0.1048  1.5523 -0.5478
 7184TIP3    H243188   6.444   5.766   1.987 -0.3405  0.0616 -0.0336
 7185TIP3   OH243189   0.265   3.119   6.296 -0.4608 -0.4643  0.1968
 7185TIP3    H143190   0.347   3.147   6.254 -0.6819  1.1521  0.7724
 7185TIP3    H243191   0.293   3.057   6.363  0.1524 -1.0034 -0.5459
 7186TIP3   OH243192   0.754   5.503   0.243  0.0946  0.0023 -0.7388
 7186TIP3    H143193   0.717   5.436   0.185  0.9860 -2.2405  1.1616
 7186TIP3    H243194   0.684   5.522   0.306  0.4004 -0.3387 -0.2976
 7187TIP3   OH243195   5.381   0.420   6.686  0.3803 -0.3890  0.1213
 7187TIP3    H143196   5.302   0.372   6.662  0.1724  0.2722 -0.5741
 7187TIP3    H243197   5.400   0.393   6.775 -0.9962 -0.0943  0.5239
 7188TIP3   OH243198   6.366   5.546   1.987 -0.1881  0.1685 -0.5087
 7188TIP3    H143199   6.435   5.568   1.925  0.3215 -0.9858 -0.3819
 7188TIP3    H243200   6.303   5.495   1.936  0.7016 -1.6182  0.0696
 7189TIP3   OH243201   2.616   7.216   1.923 -0.0278 -0.1061 -0.2528
 7189TIP3    H143202   2.669   7.181   1.995 -2.3753 -1.5089  0.9195
 7189TIP3    H243203   2.611   7.310   1.940 -1.4188 -0.5269  2.1563
 7190TIP3   OH243204   1.901   1.068   0.454  0.1839 -0.2385  0.2760
 7190TIP3    H143205   1.854   1.145   0.423  0.7363 -0.1855 -0.4757
 7190TIP3    H243206   1.834   1.000   0.464 -0.2722  0.2720  0.7406
   7.22098   7.22098   7.99657
