Title
82301
    1SAPS     N    1   4.368   4.336  10.885  0.9204 -1.0893  0.2674
    1SAPS   HN1    2   4.333   4.347  10.982  0.4248  0.3001 -0.0448
    1SAPS   HN2    3   4.368   4.431  10.842  1.0680 -1.0424  0.3730
    1SAPS   HN3    4   4.300   4.293  10.819 -0.4264  0.9461  0.2094
    1SAPS   C12    5   4.496   4.277  10.869  0.0451  0.2180 -0.2953
    1SAPS  H12A    6   4.530   4.278  10.766  2.8248 -0.8720  0.5226
    1SAPS   C13    7   4.609   4.329  10.962  0.8650  0.0728 -0.0219
    1SAPS  O13A    8   4.587   4.406  11.060  0.4343  0.0331  0.4575
    1SAPS  O13B    9   4.723   4.276  10.951 -0.0022  0.3229  0.3630
    1SAPS   C11   10   4.473   4.126  10.903 -0.3513  0.2131 -0.4919
    1SAPS  H11A   11   4.429   4.111  11.004  0.1936  1.2997 -0.0756
    1SAPS  H11B   12   4.573   4.076  10.909 -0.8493 -0.7959 -0.3458
    1SAPS     P   13   4.370   3.908  10.833 -0.2921  0.0414  0.2423
    1SAPS   O13   14   4.500   3.841  10.835 -0.3630  0.0571  0.1896
    1SAPS   O14   15   4.281   3.895  10.950 -0.1363 -0.2918  0.2112
    1SAPS   O12   16   4.394   4.062  10.811  0.0938 -0.5548 -0.8107
    1SAPS   O11   17   4.308   3.864  10.699  0.1512  0.0923 -0.1418
    1SAPS    C1   18   4.208   3.946  10.633 -0.4453  0.0696  0.6673
    1SAPS    HA   19   4.113   3.889  10.641 -0.6850  0.4787  0.6983
    1SAPS    HB   20   4.187   4.041  10.686  1.1886  1.5461 -1.1823
    1SAPS    C2   21   4.251   3.972  10.483  0.9276  1.1884 -0.0129
    1SAPS    HS   22   4.182   4.050  10.445  0.2800  1.7661  2.1565
    1SAPS   O21   23   4.255   3.853  10.405 -0.0758  0.2082 -0.2416
    1SAPS   C21   24   4.137   3.795  10.378  0.0824  0.2366 -0.3200
    1SAPS   O22   25   4.024   3.843  10.400 -0.2943  0.5202 -0.5058
    1SAPS   C22   26   4.166   3.663  10.315  0.4772  0.1907  0.1674
    1SAPS   H2R   27   4.234   3.679  10.229 -0.3453  0.3313 -0.4738
    1SAPS   H2S   28   4.219   3.605  10.393  0.6614 -2.0228 -1.5152
    1SAPS    C3   29   4.385   4.042  10.479  0.3186 -0.1251  0.6686
    1SAPS    HX   30   4.462   3.969  10.511 -0.3020 -1.7107 -1.2550
    1SAPS    HY   31   4.402   4.132  10.543  0.5439  1.6660 -1.7959
    1SAPS   O31   32   4.422   4.068  10.337  0.4455  0.0308 -0.2881
    1SAPS   C31   33   4.362   4.185  10.298  0.4404  0.2024 -0.1091
    1SAPS   O32   34   4.285   4.252  10.366  0.4430  0.1941  0.1343
    1SAPS   C32   35   4.410   4.215  10.163 -0.2568 -0.4351  1.0532
    1SAPS   H2X   36   4.457   4.126  10.115  0.5750  0.4268  0.2315
    1SAPS   H2Y   37   4.475   4.304  10.176 -1.7001  0.5406  1.8066
    1SAPS   C23   38   4.042   3.602  10.257  0.9703  0.6568 -0.3904
    1SAPS   H3R   39   4.000   3.679  10.188  0.3653  0.6978  0.0079
    1SAPS   H3S   40   3.952   3.574  10.317  0.5337  0.3278 -1.1811
    1SAPS   C24   41   4.083   3.486  10.160  0.0240  0.0236 -0.2478
    1SAPS   H4R   42   4.142   3.401  10.201 -1.6971 -0.3244  1.6880
    1SAPS   H4S   43   4.141   3.529  10.076 -0.1164 -1.7280 -1.2806
    1SAPS   C25   44   3.953   3.429  10.104 -0.4035 -0.5857 -0.5827
    1SAPS   H5R   45   3.879   3.405  10.182 -0.2566  0.7633 -0.0032
    1SAPS   C26   46   3.914   3.424   9.976  0.1908 -0.5049  0.0122
    1SAPS   H6R   47   3.813   3.393   9.945  0.2880 -0.9953  0.1814
    1SAPS   C27   48   3.995   3.452   9.847 -0.0388  0.4867 -0.1765
    1SAPS   H7R   49   4.103   3.433   9.861  0.1098  2.5088  1.9961
    1SAPS   H7S   50   3.988   3.559   9.818  0.1623 -0.0220 -2.3046
    1SAPS   C28   51   3.944   3.359   9.729 -0.1693  0.0173 -0.2259
    1SAPS   H8R   52   3.916   3.256   9.755  0.9931 -0.6530 -1.5093
    1SAPS   C29   53   3.931   3.383   9.604  0.9784 -0.3045 -0.4164
    1SAPS   H9R   54   3.884   3.305   9.542 -0.5509 -0.3948  0.7848
    1SAPS  C210   55   3.955   3.510   9.535 -0.4385  0.0010 -0.2360
    1SAPS  H10R   56   4.034   3.495   9.459  0.0974  1.0463  0.0949
    1SAPS  H10S   57   4.016   3.569   9.607  2.7887  0.6793 -3.2751
    1SAPS  C211   58   3.840   3.592   9.486  0.4648  0.1601  0.5228
    1SAPS  H11R   59   3.739   3.551   9.502  1.6725 -2.5602  1.7987
    1SAPS  C212   60   3.856   3.713   9.422  0.0219  0.0481 -0.0967
    1SAPS  H12R   61   3.765   3.769   9.399  0.3432  0.0494 -1.4770
    1SAPS  C213   62   3.986   3.789   9.394  0.8527 -0.4282 -0.1644
    1SAPS  H13R   63   4.010   3.786   9.286  1.3427  0.6452 -0.1039
    1SAPS  H13S   64   4.077   3.742   9.438  0.2047 -2.0348 -0.4786
    1SAPS  C214   65   3.988   3.928   9.442 -0.0077  0.0945 -0.7577
    1SAPS  H14R   66   3.892   3.977   9.417 -1.0541 -2.6884 -2.6275
    1SAPS  C215   67   4.087   4.002   9.500 -0.0421 -0.4059  0.0826
    1SAPS  H15R   68   4.065   4.099   9.547  1.9220 -0.2685  0.7929
    1SAPS  C216   69   4.231   3.946   9.513  0.3109  0.1154 -0.1631
    1SAPS  H16R   70   4.308   4.022   9.488  0.1729  1.5370  3.2303
    1SAPS  H16S   71   4.242   3.845   9.467  1.3320 -0.3283  1.0169
    1SAPS  C217   72   4.258   3.932   9.668  0.5613 -0.1850  0.3902
    1SAPS  H17R   73   4.270   4.038   9.700  1.7021  0.0660 -0.8166
    1SAPS  H17S   74   4.361   3.895   9.681  1.3932  1.9127  0.2032
    1SAPS  C218   75   4.155   3.852   9.753  0.2890 -0.0760 -0.6056
    1SAPS  H18R   76   4.120   3.767   9.690 -4.4537  0.6239  0.7356
    1SAPS  H18S   77   4.075   3.926   9.773  0.3412  0.4175 -2.1052
    1SAPS  C219   78   4.214   3.808   9.886  0.4761  0.6102  0.0012
    1SAPS  H19R   79   4.316   3.768   9.866  0.5155  1.7443 -2.3524
    1SAPS  H19S   80   4.165   3.717   9.926 -0.0082  0.7053 -0.3684
    1SAPS  C220   81   4.224   3.914   9.992 -0.3746  0.3194 -0.0485
    1SAPS  H20R   82   4.117   3.932  10.016 -1.4196 -3.7924 -0.8464
    1SAPS  H20S   83   4.274   4.008   9.962  2.4293 -1.3043 -0.8672
    1SAPS  H20T   84   4.268   3.878  10.088 -1.3730  1.8053  1.0223
    1SAPS   C33   85   4.298   4.269  10.067  0.0046 -0.3503  0.4964
    1SAPS   H3X   86   4.239   4.357  10.101 -3.5348 -2.2343 -0.3194
    1SAPS   H3Y   87   4.215   4.196  10.056 -0.1264 -0.2706  0.9178
    1SAPS   C34   88   4.349   4.305   9.927 -1.0362 -0.0004 -0.2878
    1SAPS   H4X   89   4.269   4.285   9.853  0.6648 -3.0941 -1.4477
    1SAPS   H4Y   90   4.426   4.240   9.881 -2.7734 -2.9424  0.6855
    1SAPS   C35   91   4.396   4.449   9.914  0.1601  0.4808  0.7154
    1SAPS   H5X   92   4.455   4.483  10.002 -1.3851  1.2588  1.5046
    1SAPS   H5Y   93   4.309   4.518   9.922 -0.1598 -0.0848  2.8677
    1SAPS   C36   94   4.467   4.490   9.779 -0.4550 -0.0559 -0.6342
    1SAPS   H6X   95   4.573   4.458   9.783 -0.8106 -1.2025  0.2665
    1SAPS   H6Y   96   4.460   4.599   9.759  0.2248  0.2418  0.6950
    1SAPS   C37   97   4.400   4.412   9.661  0.4388 -0.5672  0.0274
    1SAPS   H7X   98   4.293   4.439   9.664  0.3224 -1.0290  0.1244
    1SAPS   H7Y   99   4.423   4.304   9.674  2.6850 -0.1755 -0.2316
    1SAPS   C38  100   4.454   4.451   9.521  0.2673 -0.3178  0.5509
    1SAPS   H8X  101   4.465   4.562   9.512 -0.4243 -0.2742  0.1611
    1SAPS   H8Y  102   4.381   4.410   9.448  1.4259 -2.6143  0.5980
    1SAPS   C39  103   4.595   4.386   9.488  0.4477  0.4327  0.3955
    1SAPS   H9X  104   4.565   4.279   9.480  1.1729  0.3352 -1.5980
    1SAPS   H9Y  105   4.659   4.428   9.568  0.0671  1.0986  0.3594
    1SAPS  C310  106   4.647   4.412   9.344  0.3676  0.0114 -0.0810
    1SAPS  H10X  107   4.709   4.504   9.339  2.1848 -1.1232  0.5493
    1SAPS  H10Y  108   4.565   4.427   9.270  0.5259 -0.2012 -0.2991
    1SAPS  C311  109   4.740   4.291   9.300  0.1624  0.7853  0.1192
    1SAPS  H11X  110   4.697   4.191   9.321  0.5773  0.3291 -1.0935
    1SAPS  H11Y  111   4.836   4.297   9.356  0.5180  1.3707 -0.5294
    1SAPS  C312  112   4.765   4.302   9.145 -0.2200 -0.6936 -0.4436
    1SAPS  H12X  113   4.786   4.406   9.114 -0.9731 -0.6881 -0.9482
    1SAPS  H12Y  114   4.670   4.277   9.094 -0.9238 -0.9216  0.9422
    1SAPS  C313  115   4.884   4.217   9.092  0.2385  0.2345 -0.5912
    1SAPS  H13X  116   4.881   4.113   9.131  3.1259  0.2734 -0.0754
    1SAPS  H13Y  117   4.972   4.257   9.146 -1.0109  1.0692  0.9008
    1SAPS  C314  118   4.910   4.214   8.941  0.5113  0.6199  0.4433
    1SAPS  H14X  119   5.020   4.198   8.934  0.5972  1.7052 -1.9913
    1SAPS  H14Y  120   4.878   4.309   8.893  0.6979 -0.1767 -1.3532
    1SAPS  C315  121   4.839   4.095   8.864 -0.3082  0.5156  0.3296
    1SAPS  H15X  122   4.729   4.099   8.847 -0.0287 -0.5627 -2.0028
    1SAPS  H15Y  123   4.844   4.012   8.938 -1.2163  1.4326  1.4641
    1SAPS  C316  124   4.899   4.057   8.727  0.8669  0.2337  0.3851
    1SAPS  H16X  125   4.840   3.972   8.687  1.5780  0.7388 -1.8842
    1SAPS  H16Y  126   5.003   4.019   8.732  0.8040 -0.8105 -3.4083
    1SAPS  C317  127   4.899   4.173   8.625  0.4732  0.6563  0.3504
    1SAPS  H17X  128   4.976   4.249   8.652  0.3799  0.6399  0.6599
    1SAPS  H17Y  129   4.801   4.224   8.620 -0.0080 -0.3119 -0.2801
    1SAPS  C318  130   4.939   4.121   8.486 -0.1472 -0.2071 -0.1685
    1SAPS  H18X  131   4.875   4.033   8.464 -1.0413  0.3492  0.1565
    1SAPS  H18Y  132   5.044   4.083   8.486  0.4395  1.3271  0.3462
    1SAPS  H18Z  133   4.928   4.202   8.411  1.6245  1.0833  0.8804
    2SAPS     N  134   3.800   3.867  10.556 -0.9117  0.6831  0.1379
    2SAPS   HN1  135   3.750   3.882  10.466 -2.5862 -0.7030  0.7768
    2SAPS   HN2  136   3.753   3.929  10.624 -2.0942 -0.1813  0.1404
    2SAPS   HN3  137   3.899   3.897  10.541 -1.4496  2.0416 -0.8983
    2SAPS   C12  138   3.786   3.721  10.579 -0.0403 -0.5013  0.6820
    2SAPS  H12A  139   3.795   3.682  10.479 -2.7292 -0.0033  0.1573
    2SAPS   C13  140   3.874   3.643  10.679 -0.8902  1.2636  1.0312
    2SAPS  O13A  141   3.935   3.718  10.756  0.0717  0.2372 -0.3254
    2SAPS  O13B  142   3.866   3.520  10.696 -0.3196 -0.0181 -0.2369
    2SAPS   C11  143   3.644   3.701  10.639  0.2286 -0.1446 -0.8932
    2SAPS  H11A  144   3.651   3.761  10.732 -0.2342 -1.6842  0.1541
    2SAPS  H11B  145   3.630   3.596  10.671 -1.0294  1.1355  3.3580
    2SAPS     P  146   3.387   3.715  10.592  0.2263  0.3388  0.1533
    2SAPS   O13  147   3.369   3.658  10.725  0.2610 -0.1053  0.4487
    2SAPS   O14  148   3.306   3.833  10.548  0.2189 -0.7727 -0.1028
    2SAPS   O12  149   3.541   3.752  10.559  0.4734 -0.1463 -0.4249
    2SAPS   O11  150   3.354   3.583  10.493  0.4749 -0.2473 -0.3456
    2SAPS    C1  151   3.459   3.536  10.407  0.5307 -0.4208  0.0785
    2SAPS    HA  152   3.563   3.554  10.441  0.7657  2.4634 -1.7350
    2SAPS    HB  153   3.443   3.428  10.387 -0.3911 -0.3147  0.2076
    2SAPS    C2  154   3.463   3.617  10.266 -0.8630  0.0779  0.3046
    2SAPS    HS  155   3.501   3.718  10.294  3.9964 -1.4595  0.1661
    2SAPS   O21  156   3.331   3.606  10.203  0.0447  0.0120 -0.1016
    2SAPS   C21  157   3.285   3.727  10.161  0.3437 -0.3226 -0.6702
    2SAPS   O22  158   3.332   3.839  10.184 -0.6471  0.1331 -0.8198
    2SAPS   C22  159   3.166   3.701  10.071  0.4224  0.1480 -0.0079
    2SAPS   H2R  160   3.196   3.651   9.977 -2.3478 -1.5639 -0.1080
    2SAPS   H2S  161   3.083   3.637  10.110 -0.7398  0.6826 -1.4969
    2SAPS    C3  162   3.578   3.561  10.172 -0.2924  1.0322 -0.2031
    2SAPS    HX  163   3.551   3.453  10.170 -1.4861  1.2587  1.4802
    2SAPS    HY  164   3.679   3.559  10.218  0.0128  1.5386 -0.8288
    2SAPS   O31  165   3.581   3.603  10.031  0.4080 -0.2860 -0.0057
    2SAPS   C31  166   3.647   3.710   9.994 -0.2778  0.1708  0.7319
    2SAPS   O32  167   3.712   3.782  10.067 -0.1672  0.6958 -0.3507
    2SAPS   C32  168   3.609   3.742   9.845 -0.3308 -0.1013 -0.4072
    2SAPS   H2X  169   3.665   3.676   9.776  0.7535 -0.7813  1.0737
    2SAPS   H2Y  170   3.647   3.846   9.833  0.5798 -0.2209  1.2672
    2SAPS   C23  171   3.094   3.824  10.007  0.4807  0.2478  0.3860
    2SAPS   H3R  172   3.168   3.897   9.968  1.5829 -0.6234  0.8026
    2SAPS   H3S  173   3.057   3.881  10.095  2.8985 -1.1863  2.4923
    2SAPS   C24  174   2.992   3.802   9.897 -0.5243  0.0574  0.2616
    2SAPS   H4R  175   3.033   3.734   9.818  0.9080  2.1914 -0.9315
    2SAPS   H4S  176   2.966   3.897   9.845  2.6058  0.7314 -0.3001
    2SAPS   C25  177   2.872   3.740   9.963 -0.1063 -0.0077 -0.7101
    2SAPS   H5R  178   2.851   3.778  10.064 -0.7744  0.5832 -1.0605
    2SAPS   C26  179   2.805   3.633   9.915  0.3548 -0.2252  0.5604
    2SAPS   H6R  180   2.722   3.591   9.974  0.5079 -1.5266 -0.1130
    2SAPS   C27  181   2.833   3.563   9.779  0.0970  0.6580  0.1188
    2SAPS   H7R  182   2.938   3.527   9.787 -0.7175 -1.8061  0.6954
    2SAPS   H7S  183   2.829   3.629   9.691 -1.2942 -0.3048 -0.5900
    2SAPS   C28  184   2.755   3.440   9.766  0.0310  0.2892 -0.2178
    2SAPS   H8R  185   2.754   3.374   9.853  0.1649  0.3884 -0.1404
    2SAPS   C29  186   2.683   3.387   9.662 -0.8006  0.4621 -0.8071
    2SAPS   H9R  187   2.669   3.279   9.674  2.2096  0.0181 -0.5156
    2SAPS  C210  188   2.660   3.448   9.529  0.0416  0.2278 -1.0087
    2SAPS  H10R  189   2.631   3.554   9.545  2.2121  0.8683 -0.9135
    2SAPS  H10S  190   2.578   3.391   9.480 -0.6985 -0.2369  0.6920
    2SAPS  C211  191   2.775   3.451   9.439 -0.6829 -0.3677  1.1415
    2SAPS  H11R  192   2.873   3.465   9.486  0.4092  0.5017 -1.2035
    2SAPS  C212  193   2.776   3.421   9.307  0.2567  0.0415 -0.5779
    2SAPS  H12R  194   2.874   3.424   9.257  1.0257 -2.1364  0.6416
    2SAPS  C213  195   2.663   3.390   9.217  0.0134 -0.8123  0.2673
    2SAPS  H13R  196   2.650   3.479   9.152 -1.4972 -3.2062 -2.9518
    2SAPS  H13S  197   2.565   3.382   9.268 -0.1155  0.7013  0.2850
    2SAPS  C214  198   2.685   3.269   9.135  0.4595 -0.1116 -0.5505
    2SAPS  H14R  199   2.646   3.181   9.188 -0.2523  0.3183 -0.3501
    2SAPS  C215  200   2.731   3.265   9.014  0.3009  0.4541 -0.0252
    2SAPS  H15R  201   2.746   3.168   8.964 -0.0794 -0.3724  1.4163
    2SAPS  C216  202   2.771   3.377   8.920  1.3755 -0.7341  0.1037
    2SAPS  H16R  203   2.879   3.362   8.900  2.1907 -0.0077  3.3665
    2SAPS  H16S  204   2.778   3.474   8.974  0.9241 -1.9747  2.5257
    2SAPS  C217  205   2.693   3.385   8.787 -0.0609 -0.3019  0.8331
    2SAPS  H17R  206   2.676   3.284   8.746 -2.6981 -0.1848  1.4466
    2SAPS  H17S  207   2.755   3.444   8.716  1.2621 -1.3318  1.0997
    2SAPS  C218  208   2.560   3.459   8.804  0.5345 -0.3114 -0.1975
    2SAPS  H18R  209   2.533   3.458   8.912  0.0738  0.3341 -0.3022
    2SAPS  H18S  210   2.482   3.411   8.742 -1.5228  3.0541 -0.4683
    2SAPS  C219  211   2.564   3.602   8.752 -0.4681 -0.4070  0.2252
    2SAPS  H19R  212   2.467   3.655   8.760 -0.1660  0.0453  1.0171
    2SAPS  H19S  213   2.607   3.591   8.650 -0.0126  1.6314  0.1420
    2SAPS  C220  214   2.668   3.693   8.824  0.6717 -1.1491 -0.1613
    2SAPS  H20R  215   2.773   3.657   8.836  0.9595 -0.7280 -1.2180
    2SAPS  H20S  216   2.630   3.702   8.928 -1.6118  0.4368 -1.0498
    2SAPS  H20T  217   2.672   3.791   8.770  0.0084 -0.7418  0.5140
    2SAPS   C33  218   3.458   3.740   9.803 -0.3092 -0.0140  0.3050
    2SAPS   H3X  219   3.399   3.774   9.891 -1.2222 -1.4207  0.2641
    2SAPS   H3Y  220   3.421   3.638   9.778 -0.1348 -0.0912  0.3557
    2SAPS   C34  221   3.426   3.832   9.687 -0.0141 -0.2865  0.7006
    2SAPS   H4X  222   3.492   3.922   9.689 -0.3710  0.0181 -0.5188
    2SAPS   H4Y  223   3.322   3.870   9.691 -0.5205 -0.6705 -3.7828
    2SAPS   C35  224   3.430   3.749   9.550 -0.1583 -0.0915  0.3532
    2SAPS   H5X  225   3.348   3.678   9.570 -0.9348  0.4910 -0.6737
    2SAPS   H5Y  226   3.529   3.704   9.525  1.0955  2.1157  1.0169
    2SAPS   C36  227   3.384   3.834   9.432  0.1526  0.4850  0.1018
    2SAPS   H6X  228   3.466   3.906   9.412  1.3265 -0.4777  1.2454
    2SAPS   H6Y  229   3.290   3.884   9.463 -0.0243 -1.1788  2.5489
    2SAPS   C37  230   3.357   3.754   9.307  1.1105  0.0056  0.3238
    2SAPS   H7X  231   3.294   3.823   9.247  1.1044 -0.6739 -0.4684
    2SAPS   H7Y  232   3.295   3.664   9.330  0.1983  0.6203  0.3370
    2SAPS   C38  233   3.476   3.716   9.228 -0.1238  0.7673  1.0215
    2SAPS   H8X  234   3.531   3.637   9.283 -0.6361 -0.4167 -0.0941
    2SAPS   H8Y  235   3.545   3.799   9.201  1.5942 -1.0026 -0.3610
    2SAPS   C39  236   3.448   3.657   9.086 -0.0205  0.8529 -0.4456
    2SAPS   H9X  237   3.386   3.724   9.022 -1.0334 -2.0754 -2.8040
    2SAPS   H9Y  238   3.390   3.564   9.104 -1.2185  1.9215  1.7475
    2SAPS  C310  239   3.568   3.631   9.008 -0.2420 -0.3928  0.2404
    2SAPS  H10X  240   3.636   3.571   9.072  1.5967 -2.0778 -2.9862
    2SAPS  H10Y  241   3.611   3.733   9.005 -0.0936 -0.4706 -1.6962
    2SAPS  C311  242   3.545   3.565   8.874 -0.6518 -0.0044  0.3917
    2SAPS  H11X  243   3.459   3.623   8.834  0.2167  1.1834  0.1859
    2SAPS  H11Y  244   3.522   3.457   8.880  0.2079 -0.3679 -1.8436
    2SAPS  C312  245   3.668   3.577   8.774  0.0210 -0.4724  1.0552
    2SAPS  H12X  246   3.754   3.531   8.827  0.3438 -0.7647  0.2840
    2SAPS  H12Y  247   3.698   3.684   8.772 -0.4551 -0.3337  1.2052
    2SAPS  C313  248   3.645   3.533   8.635  0.3059  0.6989 -0.5450
    2SAPS  H13X  249   3.553   3.577   8.593 -0.2228  2.0130  1.8055
    2SAPS  H13Y  250   3.619   3.425   8.632  0.9412  0.5341 -0.2916
    2SAPS  C314  251   3.773   3.550   8.548  0.2124 -1.8231  0.6056
    2SAPS  H14X  252   3.856   3.554   8.622  0.7597 -1.7917  0.0009
    2SAPS  H14Y  253   3.769   3.655   8.512  1.7846 -1.9478 -0.0172
    2SAPS  C315  254   3.785   3.457   8.432  1.2956  0.0554  1.1067
    2SAPS  H15X  255   3.759   3.352   8.456  2.0731 -0.3936  0.0802
    2SAPS  H15Y  256   3.890   3.437   8.400  0.4061 -1.4793 -1.1052
    2SAPS  C316  257   3.707   3.498   8.302  0.1861 -0.2194  0.2126
    2SAPS  H16X  258   3.745   3.602   8.291 -1.5620  0.6831  2.0588
    2SAPS  H16Y  259   3.600   3.508   8.331  0.7496 -0.4837  2.6383
    2SAPS  C317  260   3.729   3.414   8.175 -0.5975  0.7323 -0.2408
    2SAPS  H17X  261   3.702   3.312   8.209 -2.0159  1.8150  2.2312
    2SAPS  H17Y  262   3.835   3.414   8.143 -0.5445  2.0196 -0.1064
    2SAPS  C318  263   3.631   3.449   8.062  0.0050  0.6199  0.2896
    2SAPS  H18X  264   3.528   3.475   8.096 -0.3629 -0.0457 -0.2873
    2SAPS  H18Y  265   3.611   3.362   7.996  2.8548  0.6656 -0.7614
    2SAPS  H18Z  266   3.671   3.516   7.983  0.8696  0.4110  0.5388
    3SAPS     N  267   3.191   6.482  11.278  0.4904 -0.7781  0.0999
    3SAPS   HN1  268   3.174   6.466  11.177  0.0168 -1.8265  0.3330
    3SAPS   HN2  269   3.175   6.395  11.332 -2.4926  0.1865  0.9441
    3SAPS   HN3  270   3.115   6.540  11.318  0.7603 -0.1234 -0.3201
    3SAPS   C12  271   3.327   6.538  11.301  0.6435  0.2427 -0.1128
    3SAPS  H12A  272   3.337   6.627  11.242 -1.0541 -0.2790 -1.2765
    3SAPS   C13  273   3.358   6.588  11.451 -0.1067  0.6047  0.2207
    3SAPS  O13A  274   3.265   6.588  11.533 -0.2345 -0.1849 -0.2987
    3SAPS  O13B  275   3.476   6.625  11.478  0.2437  0.4736 -0.7054
    3SAPS   C11  276   3.421   6.423  11.258  0.0027 -0.3731  0.3622
    3SAPS  H11A  277   3.403   6.337  11.325  1.0408 -0.0544  1.0650
    3SAPS  H11B  278   3.522   6.466  11.274 -0.0701  0.2817 -0.7963
    3SAPS     P  279   3.484   6.446  11.005 -0.1715 -0.0517 -0.0238
    3SAPS   O13  280   3.554   6.564  11.052 -0.4025 -0.0310 -0.0232
    3SAPS   O14  281   3.555   6.339  10.928 -0.0578  0.6907  0.1523
    3SAPS   O12  282   3.408   6.371  11.122  0.1817 -0.4072 -0.1580
    3SAPS   O11  283   3.360   6.494  10.924  0.3870 -0.0629 -0.2502
    3SAPS    C1  284   3.272   6.394  10.869  0.9986 -0.1446  0.3973
    3SAPS    HA  285   3.310   6.290  10.860  0.3652 -0.2702 -1.3560
    3SAPS    HB  286   3.174   6.390  10.920  0.2850  0.4280 -0.8633
    3SAPS    C2  287   3.220   6.430  10.725  0.0832 -0.1138  0.3875
    3SAPS    HS  288   3.141   6.356  10.702  0.1267  0.1866 -0.7979
    3SAPS   O21  289   3.316   6.410  10.620 -0.0657 -0.5936 -0.0253
    3SAPS   C21  290   3.349   6.292  10.575 -0.2492 -0.3808 -0.8089
    3SAPS   O22  291   3.308   6.190  10.623 -0.1444 -0.2013 -0.0829
    3SAPS   C22  292   3.453   6.299  10.456  0.0902  0.7647  0.2470
    3SAPS   H2R  293   3.552   6.338  10.485  1.8549 -1.5653 -2.1581
    3SAPS   H2S  294   3.478   6.194  10.430  1.4245  1.1994 -0.3097
    3SAPS    C3  295   3.152   6.574  10.721 -0.0901  0.0313  0.3165
    3SAPS    HX  296   3.232   6.646  10.751  0.4608 -0.0306 -0.9455
    3SAPS    HY  297   3.076   6.576  10.802 -0.9036  1.5013 -0.4327
    3SAPS   O31  298   3.094   6.616  10.592  0.7404  0.1885  0.5662
    3SAPS   C31  299   2.975   6.572  10.572  0.3014 -0.0135  0.3375
    3SAPS   O32  300   2.913   6.502  10.651 -0.0154 -0.1103  0.0168
    3SAPS   C32  301   2.913   6.639  10.445 -0.9111 -0.1094  0.9708
    3SAPS   H2X  302   2.987   6.623  10.364  0.3779  0.5247  1.9819
    3SAPS   H2Y  303   2.897   6.749  10.457  1.0403  0.3166 -0.0213
    3SAPS   C23  304   3.391   6.382  10.337 -0.3965  0.3727 -0.2372
    3SAPS   H3R  305   3.387   6.489  10.369 -2.4682  0.7515 -1.5512
    3SAPS   H3S  306   3.288   6.352  10.311  0.3787 -2.5626 -0.2156
    3SAPS   C24  307   3.471   6.364  10.211  0.4089  0.2308 -0.0946
    3SAPS   H4R  308   3.409   6.394  10.124  0.4757 -1.2115 -0.6640
    3SAPS   H4S  309   3.487   6.254  10.201 -0.8297  0.1645 -1.7636
    3SAPS   C25  310   3.605   6.430  10.207  0.6870 -0.7171  0.3300
    3SAPS   H5R  311   3.632   6.459  10.309  1.3495 -1.2712  0.3210
    3SAPS   C26  312   3.691   6.442  10.105 -0.7653 -0.4307 -0.5518
    3SAPS   H6R  313   3.792   6.483  10.122 -0.9847  0.0746 -0.4631
    3SAPS   C27  314   3.682   6.384   9.967 -0.1328 -0.6716  0.2271
    3SAPS   H7R  315   3.581   6.415   9.933  0.9678  0.8866 -1.8676
    3SAPS   H7S  316   3.687   6.273   9.966 -1.0090 -0.7144 -0.4497
    3SAPS   C28  317   3.784   6.422   9.869  0.2346 -0.2018  0.1962
    3SAPS   H8R  318   3.864   6.482   9.914 -1.9348  2.5567  0.6362
    3SAPS   C29  319   3.790   6.409   9.735 -0.1825 -0.5466 -0.2505
    3SAPS   H9R  320   3.877   6.452   9.682  1.0987 -1.7328  0.8150
    3SAPS  C210  321   3.686   6.338   9.651  0.5889 -0.1798 -0.5342
    3SAPS  H10R  322   3.618   6.286   9.721  0.5137  1.3178  0.5400
    3SAPS  H10S  323   3.742   6.265   9.588  0.8152  0.5173 -1.1558
    3SAPS  C211  324   3.597   6.424   9.566  0.1971 -0.0429  0.0629
    3SAPS  H11R  325   3.535   6.499   9.618 -0.4152  0.0836 -0.8129
    3SAPS  C212  326   3.585   6.426   9.431 -0.4920  0.3408  0.9083
    3SAPS  H12R  327   3.518   6.495   9.378  0.2040 -1.1074 -2.0540
    3SAPS  C213  328   3.657   6.333   9.334  0.4252  0.3079 -0.3546
    3SAPS  H13R  329   3.766   6.326   9.352  0.5759 -1.5341 -1.7335
    3SAPS  H13S  330   3.651   6.369   9.229  1.9099 -2.3530 -1.4425
    3SAPS  C214  331   3.594   6.195   9.343 -0.9324 -0.1779 -0.4537
    3SAPS  H14R  332   3.547   6.170   9.440 -1.9120  1.5768 -0.4342
    3SAPS  C215  333   3.574   6.108   9.245 -0.2891 -0.3314 -0.3528
    3SAPS  H15R  334   3.525   6.012   9.268 -0.7649  0.1136  0.5223
    3SAPS  C216  335   3.620   6.129   9.107 -0.0404 -0.4391 -0.4450
    3SAPS  H16R  336   3.683   6.045   9.072 -1.3247 -2.0840  0.9857
    3SAPS  H16S  337   3.681   6.221   9.094 -2.0984  0.9058 -1.1648
    3SAPS  C217  338   3.515   6.137   8.996 -0.2182 -0.4679  0.1018
    3SAPS  H17R  339   3.443   6.219   9.013 -1.2500 -1.4343  0.5393
    3SAPS  H17S  340   3.457   6.042   9.005  1.8676 -1.6437  2.5130
    3SAPS  C218  341   3.594   6.158   8.858 -0.0042  0.5939  0.0406
    3SAPS  H18R  342   3.657   6.067   8.851 -0.3531 -0.0890  3.5131
    3SAPS  H18S  343   3.664   6.243   8.865  1.3673 -0.5674  1.2667
    3SAPS  C219  344   3.495   6.174   8.741  0.3061 -0.1444 -0.0598
    3SAPS  H19R  345   3.564   6.201   8.658 -0.5432 -0.0995 -0.7552
    3SAPS  H19S  346   3.419   6.253   8.759 -1.5144 -1.9146  0.3314
    3SAPS  C220  347   3.426   6.042   8.712  0.2402 -0.6453 -0.5828
    3SAPS  H20R  348   3.365   6.046   8.620  0.4697 -2.3115 -0.8387
    3SAPS  H20S  349   3.360   6.029   8.800  1.2807 -2.3106  0.0136
    3SAPS  H20T  350   3.505   5.964   8.709 -0.8667 -1.7746 -1.1709
    3SAPS   C33  351   2.783   6.569  10.408  0.2939 -0.0913  0.8627
    3SAPS   H3X  352   2.708   6.590  10.488  0.2174 -1.4270  1.1648
    3SAPS   H3Y  353   2.789   6.460  10.388  2.4619 -0.0796  1.2402
    3SAPS   C34  354   2.710   6.629  10.280 -0.3380  0.7555 -0.5407
    3SAPS   H4X  355   2.743   6.735  10.267 -2.7950  1.4713 -1.6260
    3SAPS   H4Y  356   2.600   6.639  10.295 -1.2601 -0.7953 -4.8971
    3SAPS   C35  357   2.753   6.552  10.156 -0.1146 -0.2925  0.6073
    3SAPS   H5X  358   2.727   6.447  10.178  0.0630 -0.9066 -1.8414
    3SAPS   H5Y  359   2.860   6.569  10.133  0.0017 -0.8802  0.7271
    3SAPS   C36  360   2.671   6.603  10.027  0.6336 -0.4631 -0.1907
    3SAPS   H6X  361   2.562   6.612  10.050  0.5686  2.0408 -1.2749
    3SAPS   H6Y  362   2.673   6.525   9.948  0.7873  0.6834 -1.3498
    3SAPS   C37  363   2.719   6.735   9.975  0.0728  0.2655 -0.0764
    3SAPS   H7X  364   2.814   6.701   9.928 -0.3293 -1.5182  0.3508
    3SAPS   H7Y  365   2.736   6.811  10.054  1.1590 -0.8939  0.8413
    3SAPS   C38  366   2.622   6.785   9.867 -0.4853 -0.2494 -0.1676
    3SAPS   H8X  367   2.533   6.834   9.913 -0.4023  2.0625 -2.2308
    3SAPS   H8Y  368   2.590   6.693   9.812 -1.7028  0.2902 -0.3973
    3SAPS   C39  369   2.676   6.879   9.763 -0.0751  0.4905 -0.5582
    3SAPS   H9X  370   2.764   6.829   9.718 -0.2829  0.0333 -0.4635
    3SAPS   H9Y  371   2.704   6.980   9.799 -3.5205  1.8989 -1.3936
    3SAPS  C310  372   2.569   6.910   9.655  0.9803 -0.1454  0.7376
    3SAPS  H10X  373   2.495   6.984   9.694 -1.2685 -1.7414 -0.2742
    3SAPS  H10Y  374   2.523   6.810   9.639  0.4334  0.3853 -1.2159
    3SAPS  C311  375   2.626   6.972   9.522 -0.2916  0.4241 -0.0868
    3SAPS  H11X  376   2.684   6.893   9.470  0.1090 -0.0342  1.0295
    3SAPS  H11Y  377   2.691   7.058   9.548  0.4161 -0.2966  0.5589
    3SAPS  C312  378   2.523   7.013   9.423 -0.4762 -0.1466  0.4310
    3SAPS  H12X  379   2.477   7.110   9.449  0.2980  0.6536 -1.0741
    3SAPS  H12Y  380   2.436   6.944   9.430  0.6200 -1.6723 -0.3197
    3SAPS  C313  381   2.570   7.009   9.277  0.2408 -0.0643  0.2202
    3SAPS  H13X  382   2.483   6.986   9.212  0.0590 -1.7126  0.9778
    3SAPS  H13Y  383   2.639   6.923   9.267  3.2057  2.2045 -0.1393
    3SAPS  C314  384   2.640   7.144   9.239 -0.1019  0.6013  0.1437
    3SAPS  H14X  385   2.716   7.163   9.318 -1.0280 -0.5520  1.3662
    3SAPS  H14Y  386   2.566   7.227   9.234 -0.1852  0.4694 -1.3515
    3SAPS  C315  387   2.704   7.144   9.096 -0.6293  0.1546  0.1854
    3SAPS  H15X  388   2.781   7.065   9.110 -1.3163 -0.4258  0.7272
    3SAPS  H15Y  389   2.752   7.242   9.074 -1.0803  0.0285 -1.4349
    3SAPS  C316  390   2.604   7.100   8.986 -0.4426 -0.6677 -0.1143
    3SAPS  H16X  391   2.517   7.170   8.989 -0.0455 -0.1231 -0.8317
    3SAPS  H16Y  392   2.577   6.993   8.999  0.0685 -1.0186 -1.6522
    3SAPS  C317  393   2.672   7.125   8.853 -0.3594  0.2978  0.0104
    3SAPS  H17X  394   2.765   7.066   8.836  0.2953  1.5693 -1.0631
    3SAPS  H17Y  395   2.699   7.233   8.850 -1.6463  0.6179 -1.8056
    3SAPS  C318  396   2.571   7.086   8.749  0.1184 -0.2094  0.0938
    3SAPS  H18X  397   2.491   7.161   8.728 -0.2262 -0.0503  1.7685
    3SAPS  H18Y  398   2.512   6.995   8.772 -1.0799 -0.4222 -3.2996
    3SAPS  H18Z  399   2.614   7.056   8.652 -1.4470 -0.1438 -0.6576
    4SAPS     N  400   5.244   6.485  10.557  0.1683  0.2160  0.1664
    4SAPS   HN1  401   5.166   6.553  10.571 -1.2914 -1.1600 -0.8185
    4SAPS   HN2  402   5.339   6.526  10.557  0.4747 -0.4814 -0.3001
    4SAPS   HN3  403   5.223   6.446  10.463 -0.1583 -1.3309  0.8497
    4SAPS   C12  404   5.226   6.378  10.660 -1.2753 -0.0479  0.0111
    4SAPS  H12A  405   5.313   6.315  10.644  0.2302  2.2740 -1.4860
    4SAPS   C13  406   5.211   6.426  10.807  0.0473 -0.3959  0.5776
    4SAPS  O13A  407   5.169   6.541  10.825  0.0116 -0.1074 -0.4943
    4SAPS  O13B  408   5.285   6.372  10.890  0.0960 -0.1953 -0.4081
    4SAPS   C11  409   5.112   6.283  10.613 -0.0530 -0.5388 -0.0935
    4SAPS  H11A  410   5.012   6.330  10.619 -0.6927 -1.8918  0.3912
    4SAPS  H11B  411   5.095   6.206  10.692  2.8482  2.2616  3.6562
    4SAPS     P  412   5.165   6.073  10.461  0.1479  0.0683 -0.4215
    4SAPS   O13  413   5.239   6.019  10.578 -0.2425 -0.6486  0.8215
    4SAPS   O14  414   5.036   6.011  10.415 -0.4503  0.3944 -0.1923
    4SAPS   O12  415   5.138   6.225  10.489 -0.3992  0.2861  0.1597
    4SAPS   O11  416   5.267   6.082  10.343 -0.7931  0.1504  0.2586
    4SAPS    C1  417   5.327   6.196  10.287  0.0066 -0.0349 -0.3380
    4SAPS    HA  418   5.311   6.290  10.343 -2.0412  1.0564 -2.5524
    4SAPS    HB  419   5.437   6.181  10.291  0.1292  1.0861  2.0303
    4SAPS    C2  420   5.278   6.209  10.136 -0.3424  0.5944  0.2180
    4SAPS    HS  421   5.360   6.269  10.093  1.5555 -0.7529  1.7652
    4SAPS   O21  422   5.152   6.269  10.135 -0.7635 -0.1351  0.4211
    4SAPS   C21  423   5.130   6.321  10.013 -0.3513  0.7199 -0.3558
    4SAPS   O22  424   5.204   6.318   9.914 -0.3939 -0.0228  0.0442
    4SAPS   C22  425   4.982   6.367  10.006  0.2776  0.4116  0.7920
    4SAPS   H2R  426   4.913   6.280  10.014 -0.9034  1.1912 -0.5910
    4SAPS   H2S  427   4.970   6.443  10.086 -1.0683  0.5566  0.4656
    4SAPS    C3  428   5.280   6.065  10.062 -0.4628 -0.8815  0.3215
    4SAPS    HX  429   5.172   6.038  10.074 -0.3048 -1.3927  0.6238
    4SAPS    HY  430   5.346   5.997  10.119 -0.0469 -1.5139 -0.8802
    4SAPS   O31  431   5.312   6.064   9.915 -0.0293 -0.0354 -0.1383
    4SAPS   C31  432   5.436   6.076   9.877 -0.4275  0.2000  0.0722
    4SAPS   O32  433   5.535   6.069   9.950 -0.1928 -0.2564  0.6719
    4SAPS   C32  434   5.435   6.124   9.721 -0.1200  0.2306 -0.3569
    4SAPS   H2X  435   5.540   6.154   9.700 -0.2610  0.4309 -0.7768
    4SAPS   H2Y  436   5.365   6.210   9.733  1.1487  1.4237 -1.1721
    4SAPS   C23  437   4.937   6.437   9.876 -0.0764 -0.4120 -0.5808
    4SAPS   H3R  438   5.010   6.511   9.840 -1.1292  0.4998 -0.8948
    4SAPS   H3S  439   4.839   6.490   9.882  0.8410  1.3559 -0.5868
    4SAPS   C24  440   4.920   6.331   9.756  0.4657 -0.1622 -0.1433
    4SAPS   H4R  441   4.844   6.252   9.778  0.8194 -1.1640 -2.2299
    4SAPS   H4S  442   5.012   6.271   9.742  0.3487 -0.0615 -1.5679
    4SAPS   C25  443   4.883   6.404   9.631  0.2300 -0.7304  0.3810
    4SAPS   H5R  444   4.775   6.420   9.625 -0.1227 -2.9300  0.0031
    4SAPS   C26  445   4.954   6.445   9.525  0.2559  0.5283 -0.3441
    4SAPS   H6R  446   4.909   6.498   9.441  1.1275  2.5644  0.4090
    4SAPS   C27  447   5.106   6.425   9.521  1.3306  1.0229  0.4322
    4SAPS   H7R  448   5.128   6.341   9.452 -1.6006 -2.0965  2.9674
    4SAPS   H7S  449   5.151   6.388   9.615  1.8404  0.2204 -0.1200
    4SAPS   C28  450   5.187   6.546   9.482 -0.2544  0.2003 -0.3839
    4SAPS   H8R  451   5.254   6.589   9.557 -1.5664 -0.0381  0.9888
    4SAPS   C29  452   5.188   6.599   9.352  0.1274  0.4523  0.1665
    4SAPS   H9R  453   5.261   6.680   9.336 -0.2839  0.9223  0.6050
    4SAPS  C210  454   5.127   6.566   9.217  0.4250 -0.5044  0.5768
    4SAPS  H10R  455   5.049   6.644   9.198  0.3876  0.0294  2.7226
    4SAPS  H10S  456   5.073   6.470   9.228  0.8546 -0.7559  0.5245
    4SAPS  C211  457   5.226   6.566   9.099  0.6185 -0.3121 -0.1302
    4SAPS  H11R  458   5.280   6.471   9.087  0.3222 -0.3033 -1.7778
    4SAPS  C212  459   5.248   6.665   9.011 -0.1938 -0.5388  0.2354
    4SAPS  H12R  460   5.318   6.652   8.927 -3.0677 -0.4180 -2.3522
    4SAPS  C213  461   5.192   6.807   9.014 -0.4542 -0.0868 -0.4884
    4SAPS  H13R  462   5.248   6.874   9.082  2.9641 -0.1478 -2.9981
    4SAPS  H13S  463   5.085   6.802   9.044  0.2928  0.4115  2.5642
    4SAPS  C214  464   5.204   6.854   8.871 -0.4688 -0.0624  0.3049
    4SAPS  H14R  465   5.167   6.790   8.789 -0.5652  0.3183  0.0524
    4SAPS  C215  466   5.267   6.970   8.843  0.2091 -0.5208 -0.1324
    4SAPS  H15R  467   5.271   7.003   8.739 -2.4009  0.7567  0.0939
    4SAPS  C216  468   5.324   7.076   8.935 -0.0976 -0.3124 -0.0220
    4SAPS  H16R  469   5.416   7.105   8.881  0.7700 -1.0782  0.9835
    4SAPS  H16S  470   5.360   7.032   9.031 -1.3048  1.5328  1.3272
    4SAPS  C217  471   5.240   7.206   8.969 -0.3043 -0.0884  0.4539
    4SAPS  H17R  472   5.217   7.261   8.875  0.8593 -0.2985  0.0202
    4SAPS  H17S  473   5.314   7.261   9.031  1.1311 -0.7335 -0.6131
    4SAPS  C218  474   5.113   7.180   9.045 -0.3164 -0.0543  0.1371
    4SAPS  H18R  475   5.136   7.128   9.141 -0.8353 -0.5499  0.0046
    4SAPS  H18S  476   5.062   7.106   8.980  1.7580 -2.9280  1.5560
    4SAPS  C219  477   5.028   7.307   9.063 -0.0380 -0.6417 -0.5489
    4SAPS  H19R  478   5.072   7.385   8.998  0.8519 -0.6920 -0.0280
    4SAPS  H19S  479   5.048   7.352   9.163 -1.3985 -0.1911 -0.4626
    4SAPS  C220  480   4.878   7.290   9.023  0.0956 -0.0375  0.3085
    4SAPS  H20R  481   4.879   7.238   8.925  2.5509  0.5692 -0.0755
    4SAPS  H20S  482   4.827   7.386   9.001 -0.9859 -1.0821 -2.0671
    4SAPS  H20T  483   4.833   7.220   9.096 -1.1756 -0.7579 -1.1147
    4SAPS   C33  484   5.390   6.018   9.628 -0.2707  0.7575  0.5537
    4SAPS   H3X  485   5.293   5.969   9.652 -0.7878  0.7796 -1.3238
    4SAPS   H3Y  486   5.467   5.940   9.646  0.9203  2.1182  1.6653
    4SAPS   C34  487   5.389   6.056   9.478  0.0877 -0.5097 -0.5278
    4SAPS   H4X  488   5.496   6.070   9.451  0.4606  0.0386  1.1501
    4SAPS   H4Y  489   5.331   6.150   9.477 -1.1852 -1.2751 -1.4882
    4SAPS   C35  490   5.315   5.945   9.391 -0.5267  0.6170  0.2389
    4SAPS   H5X  491   5.274   5.864   9.456 -1.0260 -0.1877 -1.0493
    4SAPS   H5Y  492   5.393   5.892   9.332 -0.7588  1.8649 -1.2523
    4SAPS   C36  493   5.200   6.008   9.314  0.1603  0.2483 -0.1661
    4SAPS   H6X  494   5.165   6.101   9.364  1.6395 -0.5302  2.5105
    4SAPS   H6Y  495   5.112   5.939   9.315 -0.6558  1.2691 -0.1837
    4SAPS   C37  496   5.249   6.025   9.168  0.0277  0.1226  0.0858
    4SAPS   H7X  497   5.285   5.931   9.120  0.6338  0.8541 -0.9373
    4SAPS   H7Y  498   5.344   6.082   9.164  0.7858 -1.1739 -0.9143
    4SAPS   C38  499   5.131   6.086   9.078 -0.3391  0.6080 -0.2967
    4SAPS   H8X  500   5.099   6.187   9.110 -2.5178 -0.7229  2.0841
    4SAPS   H8Y  501   5.046   6.014   9.081  0.7911 -0.7440  0.4607
    4SAPS   C39  502   5.165   6.104   8.926 -0.0082  0.4286  0.0248
    4SAPS   H9X  503   5.086   6.163   8.876 -2.1500 -0.5148  2.1319
    4SAPS   H9Y  504   5.173   6.001   8.886  1.6618  1.0052 -1.2606
    4SAPS  C310  505   5.292   6.186   8.904 -0.0361  0.5931  0.2223
    4SAPS  H10X  506   5.377   6.131   8.950  1.5411  2.5157 -0.2538
    4SAPS  H10Y  507   5.294   6.277   8.968 -0.8824  0.7450  0.0333
    4SAPS  C311  508   5.319   6.224   8.757  0.1900  0.6255 -0.7114
    4SAPS  H11X  509   5.322   6.134   8.692  0.5247 -2.8889  3.6746
    4SAPS  H11Y  510   5.422   6.267   8.760  0.3455  0.2675 -0.8481
    4SAPS  C312  511   5.232   6.327   8.701 -0.1972  0.1249  0.0722
    4SAPS  H12X  512   5.233   6.427   8.748 -0.9735 -0.0108  0.4014
    4SAPS  H12Y  513   5.132   6.282   8.724 -0.8912  1.9918  0.8688
    4SAPS  C313  514   5.241   6.332   8.548  0.2420  0.1450  0.4061
    4SAPS  H13X  515   5.223   6.230   8.509  0.4835  0.2313  0.0609
    4SAPS  H13Y  516   5.347   6.343   8.516  0.0464 -0.6151 -0.5605
    4SAPS  C314  517   5.155   6.434   8.478  0.1733 -0.0518  0.0280
    4SAPS  H14X  518   5.047   6.427   8.504 -0.6044  3.2889 -1.6493
    4SAPS  H14Y  519   5.154   6.418   8.368 -0.0648 -0.5152  0.0966
    4SAPS  C315  520   5.186   6.582   8.508 -0.3500  0.2439  0.2332
    4SAPS  H15X  521   5.295   6.601   8.503 -0.0427 -1.4605  0.0991
    4SAPS  H15Y  522   5.156   6.607   8.612  1.8647 -1.4813  1.3882
    4SAPS  C316  523   5.121   6.681   8.416 -0.5497  0.5262  0.0071
    4SAPS  H16X  524   5.013   6.656   8.424 -0.4539  0.4196  1.2376
    4SAPS  H16Y  525   5.156   6.645   8.317 -0.2838 -2.4837  1.0865
    4SAPS  C317  526   5.143   6.828   8.447  0.0197  0.2077  0.3605
    4SAPS  H17X  527   5.104   6.852   8.548 -1.9735 -0.7238 -0.1191
    4SAPS  H17Y  528   5.082   6.885   8.373 -0.9369 -1.2938 -0.0483
    4SAPS  C318  529   5.295   6.867   8.445 -0.1672  0.0795  0.3734
    4SAPS  H18X  530   5.330   6.845   8.342 -1.0761  1.5224 -0.2830
    4SAPS  H18Y  531   5.345   6.817   8.530 -0.9872  1.1190  1.4975
    4SAPS  H18Z  532   5.293   6.976   8.465  1.3303 -0.0747  1.5314
    5SAPS     N  533   2.429   6.329  10.868 -0.1911 -0.1595 -0.3908
    5SAPS   HN1  534   2.443   6.430  10.889 -2.4960  0.5579 -1.9039
    5SAPS   HN2  535   2.493   6.311  10.789  2.0265  0.9567  1.0625
    5SAPS   HN3  536   2.334   6.323  10.825 -1.8542  0.8318  2.8014
    5SAPS   C12  537   2.435   6.236  10.985 -0.4093 -0.1052 -0.1083
    5SAPS  H12A  538   2.525   6.264  11.038 -1.1383  0.8789  0.6399
    5SAPS   C13  539   2.314   6.249  11.078  0.0518 -0.1346 -0.6783
    5SAPS  O13A  540   2.228   6.338  11.059  0.1498  0.2205  0.5205
    5SAPS  O13B  541   2.307   6.176  11.182 -0.3499  0.1852  0.1807
    5SAPS   C11  542   2.437   6.090  10.923 -0.1498  0.0846  0.6066
    5SAPS  H11A  543   2.334   6.075  10.884  0.5379  0.2742 -1.3593
    5SAPS  H11B  544   2.436   6.020  11.010  1.1263 -1.1298 -0.3180
    5SAPS     P  545   2.547   5.927  10.764  0.4307  0.0468 -0.2076
    5SAPS   O13  546   2.654   5.851  10.823 -0.0762  0.3717  0.7342
    5SAPS   O14  547   2.414   5.860  10.763  0.4421  0.3931  0.1808
    5SAPS   O12  548   2.548   6.070  10.835 -0.0134  0.0611  0.1171
    5SAPS   O11  549   2.579   5.962  10.612 -0.7710 -0.1179  0.0644
    5SAPS    C1  550   2.705   5.992  10.553  0.5659 -0.4695  0.2312
    5SAPS    HA  551   2.789   5.943  10.607  1.4157  1.5853  0.8610
    5SAPS    HB  552   2.704   5.956  10.448 -0.8202  0.8116 -0.2299
    5SAPS    C2  553   2.746   6.143  10.561  0.0407  0.0880 -1.0219
    5SAPS    HS  554   2.722   6.180  10.663 -2.0643 -0.6864 -1.1625
    5SAPS   O21  555   2.665   6.219  10.467 -0.6432  0.0635 -0.0095
    5SAPS   C21  556   2.566   6.293  10.513 -0.1707  0.7405 -0.4106
    5SAPS   O22  557   2.553   6.328  10.630  0.6062  0.6900 -0.1514
    5SAPS   C22  558   2.479   6.347  10.401 -0.7462  0.0214  0.0490
    5SAPS   H2R  559   2.546   6.389  10.323 -1.7829  1.7917  0.0607
    5SAPS   H2S  560   2.424   6.260  10.361 -0.8172 -0.3673  0.9651
    5SAPS    C3  561   2.901   6.168  10.546  0.4516 -0.2839  0.4431
    5SAPS    HX  562   2.955   6.118  10.629  1.4204  0.4399  0.2748
    5SAPS    HY  563   2.908   6.277  10.569  0.8028 -0.8207  3.3107
    5SAPS   O31  564   2.955   6.127  10.419 -0.0806  0.0317 -0.1871
    5SAPS   C31  565   3.021   6.229  10.356 -0.6678  0.6393  0.3302
    5SAPS   O32  566   3.049   6.337  10.400  0.4520 -0.0413 -0.6202
    5SAPS   C32  567   3.068   6.179  10.219  0.3588  0.3403  0.0600
    5SAPS   H2X  568   2.997   6.100  10.187  2.0459 -0.4809 -1.8737
    5SAPS   H2Y  569   3.171   6.138  10.213  0.7709  1.4496 -0.7154
    5SAPS   C23  570   2.387   6.457  10.442  0.2044  0.0497 -0.3195
    5SAPS   H3R  571   2.447   6.537  10.489  2.2083 -1.5317 -0.0712
    5SAPS   H3S  572   2.315   6.419  10.518 -1.4132  0.9964 -1.3134
    5SAPS   C24  573   2.302   6.509  10.317  0.3079  0.1243  0.2040
    5SAPS   H4R  574   2.369   6.544  10.236  2.0095 -0.9378  1.1101
    5SAPS   H4S  575   2.243   6.595  10.357  1.0925  1.5820 -1.6099
    5SAPS   C25  576   2.208   6.407  10.257 -0.1332  0.1067 -0.7516
    5SAPS   H5R  577   2.142   6.355  10.328 -0.2289 -0.4494 -1.2336
    5SAPS   C26  578   2.198   6.364  10.128 -0.7730 -0.3122  0.8917
    5SAPS   H6R  579   2.118   6.294  10.100 -1.9896  2.1118 -2.1905
    5SAPS   C27  580   2.283   6.406  10.005  0.1417  0.6260 -0.4887
    5SAPS   H7R  581   2.387   6.417  10.044 -0.3889  0.2125  1.1327
    5SAPS   H7S  582   2.249   6.508   9.980 -1.9239  0.0798 -0.0714
    5SAPS   C28  583   2.280   6.310   9.893  0.4102 -0.0329 -0.0567
    5SAPS   H8R  584   2.270   6.203   9.917 -0.3321  0.0990  0.2585
    5SAPS   C29  585   2.291   6.341   9.763  0.0714  0.0514 -0.0862
    5SAPS   H9R  586   2.287   6.267   9.682 -2.4279 -0.0928  0.0827
    5SAPS  C210  587   2.313   6.481   9.705  0.6975 -0.0274 -0.6825
    5SAPS  H10R  588   2.423   6.491   9.691  0.6300 -0.0630 -1.2725
    5SAPS  H10S  589   2.279   6.556   9.779  0.3143 -1.3277  0.5054
    5SAPS  C211  590   2.233   6.500   9.582 -0.0101  0.3946  0.5495
    5SAPS  H11R  591   2.125   6.485   9.598  0.1097  0.6145  1.6575
    5SAPS  C212  592   2.261   6.534   9.452 -0.5092 -0.4634  0.3026
    5SAPS  H12R  593   2.186   6.530   9.372 -0.5247  1.8541  0.1513
    5SAPS  C213  594   2.404   6.564   9.412  0.6618 -0.1319 -0.4463
    5SAPS  H13R  595   2.474   6.564   9.498  1.2927  1.2266 -0.9208
    5SAPS  H13S  596   2.413   6.669   9.376 -0.4202 -0.0206 -0.4115
    5SAPS  C214  597   2.446   6.465   9.308  0.5136 -0.5195  0.1490
    5SAPS  H14R  598   2.370   6.411   9.250  1.0628 -0.4458 -0.6628
    5SAPS  C215  599   2.567   6.470   9.243 -0.3807  0.0955 -0.4783
    5SAPS  H15R  600   2.581   6.407   9.154  2.7601 -0.1598  0.1065
    5SAPS  C216  601   2.678   6.569   9.269  0.5476 -0.0888 -0.1345
    5SAPS  H16R  602   2.773   6.521   9.298 -0.4861  0.0794  4.1651
    5SAPS  H16S  603   2.661   6.616   9.368  3.3389 -0.2573  0.4929
    5SAPS  C217  604   2.683   6.678   9.174 -0.7624 -0.2825  0.8010
    5SAPS  H17R  605   2.742   6.758   9.223 -1.0242  0.3489  0.1161
    5SAPS  H17S  606   2.579   6.710   9.148 -0.1582 -0.0951 -1.5887
    5SAPS  C218  607   2.748   6.625   9.041  0.4523 -0.1375 -0.6007
    5SAPS  H18R  608   2.852   6.602   9.075  1.3354 -0.4331 -3.2613
    5SAPS  H18S  609   2.694   6.534   9.006  0.4167 -1.4627  2.5445
    5SAPS  C219  610   2.748   6.735   8.932  0.1594  0.2854 -0.0083
    5SAPS  H19R  611   2.838   6.725   8.868  0.0326 -1.3896  0.0354
    5SAPS  H19S  612   2.750   6.829   8.991 -1.0638  0.2565  0.0976
    5SAPS  C220  613   2.626   6.733   8.851  1.0377  0.1074  0.1246
    5SAPS  H20R  614   2.529   6.753   8.901  0.0597  0.9042 -1.9960
    5SAPS  H20S  615   2.614   6.647   8.782  1.1622  1.5385 -1.7667
    5SAPS  H20T  616   2.627   6.822   8.785 -0.8444  0.9886  1.2064
    5SAPS   C33  617   3.057   6.299  10.120 -0.9951 -0.0856  0.4119
    5SAPS   H3X  618   3.114   6.385  10.161  1.5455 -1.3390 -0.2811
    5SAPS   H3Y  619   2.952   6.332  10.110 -0.2131  1.9692 -1.7588
    5SAPS   C34  620   3.099   6.260   9.975  0.6854 -1.0344 -0.3144
    5SAPS   H4X  621   3.031   6.185   9.930  0.2340 -0.0926 -1.2514
    5SAPS   H4Y  622   3.205   6.226   9.973  1.5238  1.1812  1.7040
    5SAPS   C35  623   3.099   6.385   9.884  0.0951 -0.3057  1.0978
    5SAPS   H5X  624   3.179   6.457   9.912 -0.4284  0.1624  1.4132
    5SAPS   H5Y  625   3.004   6.442   9.894  0.0550  0.0352 -0.9622
    5SAPS   C36  626   3.115   6.351   9.732 -0.3902  0.6091  0.2063
    5SAPS   H6X  627   3.031   6.287   9.697  0.9145 -0.2359 -1.4967
    5SAPS   H6Y  628   3.207   6.290   9.730 -0.5132  0.1990  3.1510
    5SAPS   C37  629   3.120   6.471   9.637  0.3626  0.1853 -0.1392
    5SAPS   H7X  630   3.171   6.555   9.688  0.4005  0.7979 -1.1840
    5SAPS   H7Y  631   3.019   6.515   9.626 -0.2106 -1.1657 -0.6091
    5SAPS   C38  632   3.189   6.446   9.507  0.5282  0.2464  0.1099
    5SAPS   H8X  633   3.297   6.427   9.526  0.0062 -2.1639  1.1506
    5SAPS   H8Y  634   3.185   6.545   9.457 -1.4682  0.3315  0.3545
    5SAPS   C39  635   3.129   6.343   9.412 -0.9077 -0.5158  0.0832
    5SAPS   H9X  636   3.026   6.376   9.386 -0.3728 -1.0728 -3.0522
    5SAPS   H9Y  637   3.114   6.248   9.468  0.5517  0.2612  1.9167
    5SAPS  C310  638   3.204   6.322   9.276  0.0159  0.3249  0.2862
    5SAPS  H10X  639   3.160   6.235   9.223  1.2059  0.3430 -0.7609
    5SAPS  H10Y  640   3.313   6.308   9.290 -0.1102 -1.2594 -0.1302
    5SAPS  C311  641   3.174   6.435   9.179  0.8625  0.5310 -0.4105
    5SAPS  H11X  642   3.207   6.527   9.232  2.1432 -0.3239  0.3239
    5SAPS  H11Y  643   3.071   6.457   9.144  1.2489  1.3661 -1.0407
    5SAPS  C312  644   3.258   6.424   9.049  0.6839  0.2208  0.9824
    5SAPS  H12X  645   3.264   6.319   9.012  0.1834  1.4500 -3.0685
    5SAPS  H12Y  646   3.359   6.470   9.051  0.8274  0.2360 -2.2701
    5SAPS  C313  647   3.181   6.503   8.934  0.7501  0.3722  0.1827
    5SAPS  H13X  648   3.194   6.610   8.958 -1.8774  0.9449 -0.6551
    5SAPS  H13Y  649   3.072   6.485   8.941  0.4612  2.3897  1.8215
    5SAPS  C314  650   3.227   6.439   8.796  0.2660 -0.3755 -0.3124
    5SAPS  H14X  651   3.211   6.329   8.795  0.3160 -0.5476 -5.0658
    5SAPS  H14Y  652   3.333   6.458   8.767 -0.0890 -0.5299 -1.8152
    5SAPS  C315  653   3.156   6.504   8.669 -0.0011 -0.5891 -1.0151
    5SAPS  H15X  654   3.211   6.473   8.577  1.1296 -1.4415 -0.1023
    5SAPS  H15Y  655   3.166   6.614   8.678  1.6320 -0.5454 -2.7144
    5SAPS  C316  656   3.009   6.454   8.657 -0.1217 -0.0160 -0.3662
    5SAPS  H16X  657   2.952   6.474   8.751  1.6096 -0.5521  0.8518
    5SAPS  H16Y  658   3.010   6.346   8.630  0.0271  0.2197 -1.3356
    5SAPS  C317  659   2.921   6.522   8.553  0.1155 -0.4415  0.0695
    5SAPS  H17X  660   2.832   6.459   8.532 -0.5135  1.0146 -2.0153
    5SAPS  H17Y  661   2.985   6.512   8.463 -0.3642 -1.9304 -0.1364
    5SAPS  C318  662   2.870   6.665   8.578  0.3552  0.3671 -0.2011
    5SAPS  H18X  663   2.947   6.735   8.618  0.9555  0.7726 -1.9735
    5SAPS  H18Y  664   2.782   6.663   8.646 -0.6333 -2.8892 -1.4259
    5SAPS  H18Z  665   2.839   6.712   8.482  1.6239  1.5551 -0.0761
    6SAPS     N  666   3.282   4.894  10.671  0.6038 -0.3664 -0.0927
    6SAPS   HN1  667   3.230   4.877  10.582  0.0326  1.3408 -0.1341
    6SAPS   HN2  668   3.320   4.990  10.662  1.8372 -0.9494 -1.3595
    6SAPS   HN3  669   3.359   4.828  10.690  1.7732  1.1464  0.6638
    6SAPS   C12  670   3.174   4.874  10.764 -0.5700  0.4583 -0.2377
    6SAPS  H12A  671   3.144   4.770  10.768  0.6198  0.1030  2.8579
    6SAPS   C13  672   3.222   4.898  10.907 -0.0330  0.1757  0.0194
    6SAPS  O13A  673   3.345   4.912  10.934 -0.8557 -0.2579  0.0621
    6SAPS  O13B  674   3.144   4.869  11.008  0.5864 -0.4759  0.3220
    6SAPS   C11  675   3.054   4.966  10.728  1.1672 -0.7254  0.4089
    6SAPS  H11A  676   3.081   5.068  10.762  0.2542 -0.8208  1.4673
    6SAPS  H11B  677   2.971   4.931  10.794 -0.3046 -2.2518 -2.0960
    6SAPS     P  678   2.888   4.877  10.549  0.2322  0.1820 -0.0301
    6SAPS   O13  679   2.917   4.737  10.525 -0.3640  0.0993 -0.1767
    6SAPS   O14  680   2.779   4.927  10.640 -0.3098  0.4853 -0.2156
    6SAPS   O12  681   3.021   4.956  10.581  0.6165 -0.4549 -1.0882
    6SAPS   O11  682   2.865   4.940  10.412  0.4614  0.6723  0.3104
    6SAPS    C1  683   2.749   5.015  10.379 -0.6180  0.2180  0.8537
    6SAPS    HA  684   2.729   5.102  10.445 -1.4008  1.8787 -1.4502
    6SAPS    HB  685   2.765   5.058  10.278  1.6117  0.3835  1.2187
    6SAPS    C2  686   2.627   4.923  10.354  0.5020  0.1104  0.0776
    6SAPS    HS  687   2.611   4.884  10.457 -0.9603 -0.7155 -0.4470
    6SAPS   O21  688   2.652   4.820  10.261  0.1188 -0.3725  0.1467
    6SAPS   C21  689   2.572   4.715  10.250 -0.5340 -0.9272 -0.1988
    6SAPS   O22  690   2.474   4.691  10.320 -0.2977 -0.3295 -0.4844
    6SAPS   C22  691   2.614   4.622  10.130 -0.3643  0.0558  0.3520
    6SAPS   H2R  692   2.649   4.529  10.178  0.4789  0.6378  0.9027
    6SAPS   H2S  693   2.520   4.598  10.076  0.1099  1.2086 -1.0670
    6SAPS    C3  694   2.505   5.012  10.313  0.7011  0.1544 -0.4842
    6SAPS    HX  695   2.493   5.094  10.386  0.0598 -0.7828  0.4943
    6SAPS    HY  696   2.409   4.957  10.324 -0.4474  2.2664  0.4405
    6SAPS   O31  697   2.519   5.068  10.176 -0.3273  0.3235 -0.6607
    6SAPS   C31  698   2.457   4.997  10.084  0.0630 -0.2587  0.6213
    6SAPS   O32  699   2.395   4.891  10.100 -0.3174 -0.4696 -0.0378
    6SAPS   C32  700   2.481   5.065   9.945 -0.5132  0.0965  0.2225
    6SAPS   H2X  701   2.583   5.034   9.915 -0.3466  0.5993  0.2508
    6SAPS   H2Y  702   2.453   5.173   9.954 -2.4722 -0.4514  1.3342
    6SAPS   C23  703   2.729   4.677  10.047  0.6658  0.6838  0.4432
    6SAPS   H3R  704   2.819   4.693  10.110  0.2962 -0.4708  1.3089
    6SAPS   H3S  705   2.701   4.779  10.015 -3.2606 -0.1086  0.9015
    6SAPS   C24  706   2.774   4.587   9.935  0.0662  0.2909  0.5037
    6SAPS   H4R  707   2.797   4.492   9.989 -1.7076  0.0059  0.8483
    6SAPS   H4S  708   2.862   4.631   9.884 -0.1709  0.5480  0.3131
    6SAPS   C25  709   2.672   4.555   9.839  0.4699 -0.4234  0.3829
    6SAPS   H5R  710   2.587   4.504   9.887  1.3239 -0.1057  2.3441
    6SAPS   C26  711   2.674   4.573   9.702  0.7230  0.5799 -0.2239
    6SAPS   H6R  712   2.584   4.544   9.645 -0.5758  2.3531  0.8227
    6SAPS   C27  713   2.786   4.629   9.627  0.3783 -0.8329 -0.0756
    6SAPS   H7R  714   2.874   4.562   9.640  0.1572 -1.0294  0.4538
    6SAPS   H7S  715   2.820   4.725   9.671  0.0182  0.0527 -1.6786
    6SAPS   C28  716   2.737   4.662   9.482 -0.6594 -0.5363 -0.2407
    6SAPS   H8R  717   2.643   4.719   9.481  1.3229  3.1182 -3.4592
    6SAPS   C29  718   2.792   4.632   9.365 -0.1700 -0.3045 -0.0630
    6SAPS   H9R  719   2.746   4.674   9.275  0.5269  0.3293 -0.1292
    6SAPS  C210  720   2.926   4.558   9.351  0.4577  0.1783  0.6204
    6SAPS  H10R  721   2.958   4.508   9.445  0.5213  2.2681  1.7798
    6SAPS  H10S  722   3.009   4.625   9.321  0.4131 -0.1403 -0.2494
    6SAPS  C211  723   2.910   4.457   9.239 -0.1532  0.1230  0.6463
    6SAPS  H11R  724   2.889   4.354   9.274  1.7600 -0.1565  1.0466
    6SAPS  C212  725   2.933   4.482   9.106 -0.2213  0.2816  0.2788
    6SAPS  H12R  726   2.932   4.402   9.032 -0.5579  2.0513 -1.7184
    6SAPS  C213  727   2.979   4.613   9.044 -0.1391  0.8686 -0.4681
    6SAPS  H13R  728   3.074   4.586   8.993 -1.1405 -2.0558 -0.9566
    6SAPS  H13S  729   3.003   4.691   9.119  0.4421  0.5799 -0.3473
    6SAPS  C214  730   2.873   4.663   8.946 -0.2460  1.0041 -0.3265
    6SAPS  H14R  731   2.788   4.597   8.922  0.3186 -0.1406  0.7108
    6SAPS  C215  732   2.883   4.787   8.893  1.0940 -0.3650 -0.3498
    6SAPS  H15R  733   2.824   4.811   8.803  0.3908  0.6799  0.3710
    6SAPS  C216  734   2.988   4.893   8.925  0.9800  0.1421 -0.6517
    6SAPS  H16R  735   3.048   4.870   9.015  2.0295  1.5400 -0.9646
    6SAPS  H16S  736   2.925   4.982   8.946 -1.4411 -1.2267 -1.5748
    6SAPS  C217  737   3.076   4.938   8.807  0.5673  0.0704 -0.2563
    6SAPS  H17R  738   3.140   4.853   8.777  0.5537  0.5660 -1.7521
    6SAPS  H17S  739   3.148   5.020   8.829 -0.7787  0.7159  2.2147
    6SAPS  C218  740   2.984   4.984   8.680 -0.2713  0.1905  0.3198
    6SAPS  H18R  741   2.896   5.047   8.704 -0.9026 -0.5442 -0.0417
    6SAPS  H18S  742   2.948   4.885   8.646  1.2789 -0.7338  1.2183
    6SAPS  C219  743   3.058   5.048   8.564  0.6186 -0.2052  0.2158
    6SAPS  H19R  744   3.125   4.977   8.511 -0.7504 -0.1960 -1.6164
    6SAPS  H19S  745   3.136   5.115   8.606 -0.4113  0.8282  0.5232
    6SAPS  C220  746   2.974   5.140   8.467  0.3411  0.0335 -0.6620
    6SAPS  H20R  747   2.890   5.195   8.515  1.7485  1.6328  0.0778
    6SAPS  H20S  748   2.933   5.079   8.384  0.1719 -0.4983 -0.1976
    6SAPS  H20T  749   3.035   5.216   8.413  0.6192 -0.3636 -0.9116
    6SAPS   C33  750   2.386   5.006   9.843  0.9733 -1.1090  0.6441
    6SAPS   H3X  751   2.280   5.031   9.864  1.1354  1.0467 -0.8556
    6SAPS   H3Y  752   2.388   4.895   9.834 -0.4924 -1.0291 -0.9952
    6SAPS   C34  753   2.406   5.056   9.697 -0.4805  0.1844 -0.4045
    6SAPS   H4X  754   2.422   5.166   9.691  1.2189 -0.0022  0.1852
    6SAPS   H4Y  755   2.321   5.026   9.632  0.2199  0.2211 -1.3491
    6SAPS   C35  756   2.534   4.998   9.630 -0.2121 -0.1312 -0.1464
    6SAPS   H5X  757   2.539   4.887   9.638  0.9947 -0.1602 -0.9475
    6SAPS   H5Y  758   2.619   5.039   9.690  0.2281 -1.2687  0.0465
    6SAPS   C36  759   2.554   5.040   9.486 -0.0495  0.2291 -0.2601
    6SAPS   H6X  760   2.662   5.015   9.479 -0.0885  0.2181 -0.8273
    6SAPS   H6Y  761   2.553   5.148   9.462  0.1495  0.3064  0.0665
    6SAPS   C37  762   2.482   4.955   9.373 -0.9193 -0.2002 -0.3213
    6SAPS   H7X  763   2.374   4.960   9.400 -1.6382  1.5111 -3.0766
    6SAPS   H7Y  764   2.519   4.851   9.371  3.9233  1.2174  1.6248
    6SAPS   C38  765   2.488   5.019   9.231 -0.6795  0.6182 -0.4032
    6SAPS   H8X  766   2.465   5.128   9.233 -0.8557  0.6481 -2.2268
    6SAPS   H8Y  767   2.407   4.976   9.169  0.8139 -3.0292 -0.0527
    6SAPS   C39  768   2.617   4.997   9.155  0.1453  0.3078  0.0741
    6SAPS   H9X  769   2.658   4.894   9.159  0.6258  0.4535 -0.7778
    6SAPS   H9Y  770   2.697   5.057   9.202 -0.9568  1.3895  0.6216
    6SAPS  C310  771   2.600   5.039   9.006 -0.1955 -0.1048  0.3406
    6SAPS  H10X  772   2.695   5.060   8.953 -0.7316  1.7619  0.0417
    6SAPS  H10Y  773   2.532   5.127   9.004  1.0435  1.1784  4.2544
    6SAPS  C311  774   2.546   4.916   8.930 -0.3113  0.3230 -0.7558
    6SAPS  H11X  775   2.454   4.865   8.965  1.6213 -2.9695 -0.0597
    6SAPS  H11Y  776   2.616   4.833   8.952 -0.2426  0.1061 -1.7227
    6SAPS  C312  777   2.544   4.936   8.782  0.1949 -0.3793 -0.2000
    6SAPS  H12X  778   2.639   4.935   8.725 -0.1727  1.2788 -0.8690
    6SAPS  H12Y  779   2.507   5.036   8.754  1.2478 -0.0864 -0.5925
    6SAPS  C313  780   2.452   4.827   8.703  0.1984  0.5536 -0.4882
    6SAPS  H13X  781   2.454   4.860   8.597  0.7731  0.9327 -0.3600
    6SAPS  H13Y  782   2.343   4.847   8.716 -0.5914 -0.5026 -4.1505
    6SAPS  C314  783   2.489   4.676   8.712 -0.1235  0.0094 -0.5564
    6SAPS  H14X  784   2.457   4.632   8.809  1.0837 -1.3969 -0.7656
    6SAPS  H14Y  785   2.599   4.687   8.713 -0.1129 -0.0240  0.5585
    6SAPS  C315  786   2.453   4.588   8.598  0.7173  0.5673  0.0428
    6SAPS  H15X  787   2.521   4.584   8.510  0.0926  0.1039 -0.4262
    6SAPS  H15Y  788   2.353   4.628   8.569 -0.4326 -1.2525  1.2982
    6SAPS  C316  789   2.423   4.443   8.639 -0.2713 -0.7774 -0.1555
    6SAPS  H16X  790   2.356   4.436   8.727 -1.2544  2.4161 -0.5130
    6SAPS  H16Y  791   2.519   4.398   8.671  0.0600  0.9553  1.4606
    6SAPS  C317  792   2.348   4.369   8.526  0.0546  0.2177 -0.6426
    6SAPS  H17X  793   2.413   4.362   8.437  2.1575  0.0030  0.8435
    6SAPS  H17Y  794   2.260   4.434   8.504 -1.1052 -1.0763  0.0568
    6SAPS  C318  795   2.297   4.236   8.554 -0.6862  0.4323 -0.3987
    6SAPS  H18X  796   2.225   4.198   8.478 -1.3332 -0.6437  0.7180
    6SAPS  H18Y  797   2.239   4.239   8.648 -1.5274 -1.5132 -0.8111
    6SAPS  H18Z  798   2.385   4.170   8.566 -2.0852 -1.6181 -0.8182
    7SAPS     N  799   4.325   4.519  10.399 -0.1307 -0.1773  0.0187
    7SAPS   HN1  800   4.303   4.417  10.399  0.3714 -0.2971 -1.0901
    7SAPS   HN2  801   4.263   4.558  10.326 -2.1850 -1.5145  0.9396
    7SAPS   HN3  802   4.420   4.544  10.366 -0.3112  1.0782  0.4075
    7SAPS   C12  803   4.312   4.568  10.538  0.0772 -0.5267 -0.9764
    7SAPS  H12A  804   4.221   4.523  10.575  0.2009 -0.1160 -0.1366
    7SAPS   C13  805   4.425   4.532  10.634  0.2496  0.3873  0.1238
    7SAPS  O13A  806   4.521   4.468  10.589  0.0953 -0.2722 -0.0423
    7SAPS  O13B  807   4.433   4.558  10.754 -0.6571  0.5176 -0.2365
    7SAPS   C11  808   4.297   4.723  10.548 -0.8421 -0.6967 -0.0787
    7SAPS  H11A  809   4.391   4.782  10.535 -0.2496 -1.4049  0.8491
    7SAPS  H11B  810   4.270   4.742  10.654 -0.8369  0.3283 -0.2473
    7SAPS     P  811   4.168   4.926  10.419 -0.2545 -0.2813  0.1669
    7SAPS   O13  812   4.051   4.935  10.336  0.2459 -0.6975 -0.6913
    7SAPS   O14  813   4.181   5.003  10.544  0.3252  0.0782  0.5519
    7SAPS   O12  814   4.184   4.771  10.467  0.1746  0.3326 -0.3191
    7SAPS   O11  815   4.298   4.957  10.332  0.1466  0.1676  0.3209
    7SAPS    C1  816   4.297   4.894  10.199 -0.2677 -0.7771 -0.1042
    7SAPS    HA  817   4.275   4.787  10.215 -0.4481 -0.7428 -0.1248
    7SAPS    HB  818   4.213   4.939  10.141  0.4416 -0.1269 -0.6497
    7SAPS    C2  819   4.423   4.920  10.122  0.0942 -0.3430 -0.4814
    7SAPS    HS  820   4.508   4.897  10.190  0.3882 -1.0152 -1.0525
    7SAPS   O21  821   4.424   5.057  10.091  0.2498  0.7357 -0.8409
    7SAPS   C21  822   4.539   5.103  10.072  0.2186 -0.5407  0.1292
    7SAPS   O22  823   4.640   5.041  10.059  0.0422  0.3631  0.2134
    7SAPS   C22  824   4.520   5.256  10.053  0.2112  0.2779  0.2973
    7SAPS   H2R  825   4.432   5.270   9.988 -1.0600 -0.6084  1.7698
    7SAPS   H2S  826   4.488   5.299  10.151 -0.4367  3.5156 -1.1908
    7SAPS    C3  827   4.422   4.834   9.991 -0.6184  0.1582  0.3846
    7SAPS    HX  828   4.336   4.872   9.932 -0.1551 -0.1957 -0.5497
    7SAPS    HY  829   4.394   4.729  10.013 -0.4847  0.4115  1.8499
    7SAPS   O31  830   4.548   4.848   9.918  0.4829  0.6068  0.9552
    7SAPS   C31  831   4.643   4.766   9.961  0.2716  0.3137  0.1153
    7SAPS   O32  832   4.620   4.683  10.048 -0.1121  0.6346 -0.3415
    7SAPS   C32  833   4.782   4.805   9.898  0.2685  0.4613 -0.2788
    7SAPS   H2X  834   4.848   4.780   9.984  0.5166  2.5563  0.1986
    7SAPS   H2Y  835   4.793   4.915   9.892  1.0507  0.3751 -0.5508
    7SAPS   C23  836   4.647   5.329   9.994 -0.2880  0.2646  0.2911
    7SAPS   H3R  837   4.693   5.277   9.907 -1.5070 -1.4180  0.6054
    7SAPS   H3S  838   4.723   5.329  10.074  0.5469 -1.8108 -0.4391
    7SAPS   C24  839   4.616   5.478   9.957  0.1947 -0.3474 -0.1654
    7SAPS   H4R  840   4.583   5.533  10.048 -0.1315  2.4070 -1.8290
    7SAPS   H4S  841   4.521   5.473   9.901 -0.5560  1.0135  0.9143
    7SAPS   C25  842   4.725   5.551   9.900 -0.4247 -0.4040  0.8126
    7SAPS   H5R  843   4.785   5.591   9.983  0.0546 -2.0238  1.2903
    7SAPS   C26  844   4.759   5.572   9.771  0.4321  0.2932 -1.0283
    7SAPS   H6R  845   4.849   5.628   9.744  0.4544  0.5981 -0.3216
    7SAPS   C27  846   4.675   5.526   9.652  0.8072  0.0617  0.2098
    7SAPS   H7R  847   4.653   5.614   9.588 -4.4690  0.1389  1.6689
    7SAPS   H7S  848   4.569   5.502   9.677  0.3835 -0.2716 -1.7492
    7SAPS   C28  849   4.737   5.409   9.571  0.2200  0.3984  0.1219
    7SAPS   H8R  850   4.831   5.370   9.613  0.4643 -0.4955 -1.1849
    7SAPS   C29  851   4.696   5.373   9.446  0.9468  0.5558 -0.4553
    7SAPS   H9R  852   4.761   5.301   9.394  1.2070  1.2645 -1.1264
    7SAPS  C210  853   4.578   5.419   9.364 -0.4152  0.1207  0.0878
    7SAPS  H10R  854   4.615   5.508   9.308 -1.5650  0.5183 -0.0714
    7SAPS  H10S  855   4.498   5.465   9.427  1.1860  0.8970  1.6260
    7SAPS  C211  856   4.511   5.313   9.272 -0.6767  0.0951 -0.8809
    7SAPS  H11R  857   4.423   5.264   9.316 -0.0016  0.4378  0.9418
    7SAPS  C212  858   4.539   5.288   9.141  0.2856 -0.1538 -0.3102
    7SAPS  H12R  859   4.471   5.221   9.086 -0.1636  0.8435 -0.9917
    7SAPS  C213  860   4.642   5.373   9.060 -0.9283 -0.1751 -0.5290
    7SAPS  H13R  861   4.641   5.475   9.102 -1.1428 -0.0467 -0.8391
    7SAPS  H13S  862   4.606   5.394   8.957 -1.3037  2.6828  0.0912
    7SAPS  C214  863   4.776   5.318   9.051 -0.3761 -0.4668  0.4923
    7SAPS  H14R  864   4.799   5.245   9.130  0.1767 -0.4795  0.3262
    7SAPS  C215  865   4.863   5.338   8.950  0.0500 -1.1303  1.2048
    7SAPS  H15R  866   4.961   5.288   8.951 -0.5777 -2.5844 -1.2754
    7SAPS  C216  867   4.845   5.426   8.831  0.5713  0.4567 -0.3696
    7SAPS  H16R  868   4.938   5.460   8.781  0.2417 -1.7884 -2.7075
    7SAPS  H16S  869   4.791   5.520   8.856 -1.3510 -0.1827 -1.9776
    7SAPS  C217  870   4.772   5.352   8.715 -0.2735  0.6755 -0.7272
    7SAPS  H17R  871   4.718   5.426   8.652  0.9674  1.7134 -0.6162
    7SAPS  H17S  872   4.699   5.275   8.746  0.2169  0.2923 -0.5155
    7SAPS  C218  873   4.877   5.277   8.632 -0.5932  0.5239  0.0442
    7SAPS  H18R  874   4.931   5.214   8.706 -3.0947  1.1954  2.5950
    7SAPS  H18S  875   4.948   5.353   8.595 -1.2096  0.5979 -1.0387
    7SAPS  C219  876   4.831   5.188   8.516 -0.0647  0.1009  0.7366
    7SAPS  H19R  877   4.805   5.246   8.425  0.2037 -1.8868 -0.6744
    7SAPS  H19S  878   4.735   5.141   8.547  0.4575 -0.5101  1.4678
    7SAPS  C220  879   4.925   5.080   8.479  0.2771  0.4266  0.0738
    7SAPS  H20R  880   4.863   4.989   8.492 -0.1360  0.4726 -1.3830
    7SAPS  H20S  881   5.006   5.080   8.555 -2.1745  0.7196  2.8445
    7SAPS  H20T  882   4.969   5.078   8.377  1.7059  0.4829  0.6593
    7SAPS   C33  883   4.813   4.740   9.763 -0.1008 -1.9202 -0.0963
    7SAPS   H3X  884   4.828   4.630   9.770  0.7223 -1.8120 -0.0445
    7SAPS   H3Y  885   4.911   4.781   9.731 -2.0373  2.1045 -1.6114
    7SAPS   C34  886   4.714   4.773   9.644  0.1934 -0.1109  0.2718
    7SAPS   H4X  887   4.620   4.716   9.662 -0.9416  1.7388  0.3903
    7SAPS   H4Y  888   4.768   4.730   9.557  3.0217 -0.7285  2.1922
    7SAPS   C35  889   4.670   4.920   9.622  0.4039 -0.2429 -0.3245
    7SAPS   H5X  890   4.759   4.977   9.589 -0.8299  1.4260 -0.9023
    7SAPS   H5Y  891   4.621   4.961   9.713  2.4070  2.1623 -0.2295
    7SAPS   C36  892   4.566   4.942   9.517  0.7340 -0.4808  0.2972
    7SAPS   H6X  893   4.570   5.052   9.497  2.4887 -0.3755  1.0238
    7SAPS   H6Y  894   4.457   4.933   9.539  0.7297  2.4537  2.1132
    7SAPS   C37  895   4.597   4.870   9.382 -0.1047  0.1309 -0.1926
    7SAPS   H7X  896   4.581   4.763   9.408  3.5879  0.1255  2.8286
    7SAPS   H7Y  897   4.703   4.865   9.351  0.3825  0.0207  1.3800
    7SAPS   C38  898   4.517   4.921   9.260 -0.7327 -0.2723  0.1810
    7SAPS   H8X  899   4.525   5.031   9.271 -1.5668 -0.2453  0.6363
    7SAPS   H8Y  900   4.413   4.881   9.264 -0.0170 -2.4635 -1.2005
    7SAPS   C39  901   4.567   4.883   9.126 -0.5101 -0.4289  0.0620
    7SAPS   H9X  902   4.670   4.920   9.111 -0.8718  0.8290  0.5499
    7SAPS   H9Y  903   4.505   4.929   9.046  2.4769  0.0352 -2.1466
    7SAPS  C310  904   4.567   4.728   9.106 -0.4002 -0.6581  0.1924
    7SAPS  H10X  905   4.460   4.703   9.118 -0.2797 -1.0383  0.5033
    7SAPS  H10Y  906   4.614   4.681   9.195 -0.3476  0.9565  1.0544
    7SAPS  C311  907   4.620   4.679   8.972  0.2920  0.2051  0.0071
    7SAPS  H11X  908   4.728   4.651   8.968  0.4867  1.0100 -0.3934
    7SAPS  H11Y  909   4.602   4.761   8.900  2.5699 -0.7091 -1.7485
    7SAPS  C312  910   4.535   4.563   8.902 -0.4097 -0.1496  0.1993
    7SAPS  H12X  911   4.425   4.582   8.904 -0.3478  0.1764  1.2336
    7SAPS  H12Y  912   4.550   4.469   8.959 -2.9135 -0.7585 -0.0311
    7SAPS  C313  913   4.588   4.529   8.759 -0.0753 -0.3236  0.2145
    7SAPS  H13X  914   4.699   4.525   8.750 -0.0657  1.4576 -0.7332
    7SAPS  H13Y  915   4.545   4.605   8.690 -1.7989 -1.0036  0.4891
    7SAPS  C314  916   4.540   4.387   8.716 -0.2054  0.3391  0.0136
    7SAPS  H14X  917   4.560   4.313   8.796  0.0947  1.1160  0.6758
    7SAPS  H14Y  918   4.587   4.367   8.617 -1.3464  0.7564 -0.6408
    7SAPS  C315  919   4.392   4.389   8.676  0.4754  1.0083 -0.7691
    7SAPS  H15X  920   4.383   4.387   8.565 -0.6964 -1.7998 -0.7248
    7SAPS  H15Y  921   4.344   4.480   8.717  0.8777 -0.5418  3.6653
    7SAPS  C316  922   4.301   4.278   8.728  0.3632  0.1203  0.4050
    7SAPS  H16X  923   4.276   4.309   8.831  2.4395 -1.5897  1.4970
    7SAPS  H16Y  924   4.346   4.177   8.721 -1.4678 -0.6303 -1.6144
    7SAPS  C317  925   4.159   4.277   8.669  0.5413 -0.2787  0.3895
    7SAPS  H17X  926   4.078   4.217   8.715 -1.2866  2.1107  0.4553
    7SAPS  H17Y  927   4.166   4.241   8.564 -1.2576 -0.7148  0.3847
    7SAPS  C318  928   4.096   4.418   8.658  0.2591 -0.6702 -0.2050
    7SAPS  H18X  929   4.149   4.489   8.591 -0.0163 -0.8014 -0.5666
    7SAPS  H18Y  930   4.090   4.463   8.759  0.6385 -0.1714 -0.3987
    7SAPS  H18Z  931   3.990   4.409   8.625  0.5899 -0.7209 -1.3000
    8SAPS     N  932   1.154   0.784  10.854  0.4862 -0.0522 -0.3167
    8SAPS   HN1  933   1.173   0.875  10.807  0.5819 -0.2084 -0.5854
    8SAPS   HN2  934   1.109   0.717  10.788  1.1010  1.1929 -2.1017
    8SAPS   HN3  935   1.082   0.813  10.922 -0.9135 -0.6541 -1.4776
    8SAPS   C12  936   1.272   0.728  10.915 -0.1206  0.3739 -1.0131
    8SAPS  H12A  937   1.344   0.697  10.840  1.1002  0.6423  0.0195
    8SAPS   C13  938   1.355   0.828  11.001  0.4805  0.1191 -0.3763
    8SAPS  O13A  939   1.310   0.945  11.026  0.2394 -0.2766 -0.0232
    8SAPS  O13B  940   1.462   0.784  11.050 -0.0092  0.6801  0.8569
    8SAPS   C11  941   1.231   0.598  10.992  0.5933  0.6427 -0.6115
    8SAPS  H11A  942   1.166   0.634  11.075 -4.2568  1.2486 -4.2573
    8SAPS  H11B  943   1.316   0.550  11.046 -1.2394 -2.1031  0.0572
    8SAPS     P  944   1.232   0.381  10.856 -0.3560 -0.0773  0.3446
    8SAPS   O13  945   1.272   0.299  10.971  0.1648 -0.3469  0.6959
    8SAPS   O14  946   1.168   0.310  10.743  0.3524 -0.4388  0.0254
    8SAPS   O12  947   1.154   0.504  10.912 -0.0262 -0.0851 -0.4105
    8SAPS   O11  948   1.351   0.455  10.785 -0.3347  0.2268 -0.1176
    8SAPS    C1  949   1.466   0.373  10.753 -0.0711  0.0219  0.1157
    8SAPS    HA  950   1.453   0.266  10.778 -0.7554 -0.4896 -2.1702
    8SAPS    HB  951   1.471   0.372  10.642 -1.1066  2.7220 -0.0344
    8SAPS    C2  952   1.593   0.436  10.805 -0.8774 -1.2010  0.2141
    8SAPS    HS  953   1.596   0.425  10.915 -0.6740  0.1917  0.3657
    8SAPS   O21  954   1.592   0.572  10.767 -0.0088  0.2163 -0.3555
    8SAPS   C21  955   1.674   0.651  10.836 -1.3480  0.1383  0.7121
    8SAPS   O22  956   1.743   0.629  10.936 -0.3702  0.4630  0.2347
    8SAPS   C22  957   1.670   0.790  10.772 -0.3332  0.0711 -0.0253
    8SAPS   H2R  958   1.656   0.764  10.665  2.3056 -3.8612  0.3738
    8SAPS   H2S  959   1.578   0.847  10.800 -1.0469 -0.1174 -1.8474
    8SAPS    C3  960   1.727   0.362  10.759  0.5509  0.0820 -0.0603
    8SAPS    HX  961   1.714   0.256  10.788 -0.0789  0.3521  0.6723
    8SAPS    HY  962   1.816   0.402  10.814 -0.2345  1.9642 -0.0748
    8SAPS   O31  963   1.746   0.370  10.611 -0.1041  0.3456  0.1775
    8SAPS   C31  964   1.832   0.457  10.574  0.0089  0.4031  0.0481
    8SAPS   O32  965   1.900   0.528  10.649 -0.7279 -0.0560  0.0626
    8SAPS   C32  966   1.829   0.451  10.426 -0.5942 -0.7696  0.0503
    8SAPS   H2X  967   1.729   0.477  10.386 -0.9365  2.0687  2.3715
    8SAPS   H2Y  968   1.861   0.347  10.406 -0.2499 -1.1486  2.2857
    8SAPS   C23  969   1.806   0.871  10.791 -0.4891 -0.1775  0.0241
    8SAPS   H3R  970   1.893   0.802  10.788 -2.0671 -2.2409 -0.5976
    8SAPS   H3S  971   1.803   0.928  10.886 -1.5428 -0.7406  0.3460
    8SAPS   C24  972   1.814   0.977  10.679 -0.2213 -0.3294  0.2610
    8SAPS   H4R  973   1.905   1.038  10.697 -0.2325 -0.4684  0.8189
    8SAPS   H4S  974   1.734   1.052  10.694  1.5361  1.8180 -0.5296
    8SAPS   C25  975   1.819   0.929  10.536  0.1030 -0.6770  0.4645
    8SAPS   H5R  976   1.921   0.890  10.519  1.5261  2.2936  1.4784
    8SAPS   C26  977   1.723   0.935  10.436  0.7078 -0.3585  0.1601
    8SAPS   H6R  978   1.750   0.899  10.336 -2.3232  1.8711 -1.6441
    8SAPS   C27  979   1.578   0.987  10.446 -0.6356 -0.3793  0.4406
    8SAPS   H7R  980   1.578   1.093  10.414  2.1759 -0.5077 -0.2435
    8SAPS   H7S  981   1.561   0.994  10.556 -2.3935 -0.1802  0.1724
    8SAPS   C28  982   1.464   0.917  10.379 -0.2114 -0.6737 -0.0079
    8SAPS   H8R  983   1.364   0.946  10.415  0.7680  2.8218  0.2033
    8SAPS   C29  984   1.468   0.804  10.308  0.4501 -0.4105  0.9163
    8SAPS   H9R  985   1.367   0.779  10.272 -0.4120  2.2807  1.2832
    8SAPS  C210  986   1.572   0.710  10.250  0.3025  0.1589 -0.0884
    8SAPS  H10R  987   1.639   0.673  10.331  0.3080 -2.2996 -1.1503
    8SAPS  H10S  988   1.639   0.760  10.178  0.4946  1.4093  0.9205
    8SAPS  C211  989   1.495   0.592  10.201 -0.5084 -0.4367  0.9500
    8SAPS  H11R  990   1.436   0.540  10.278 -0.5774  0.4245  1.4836
    8SAPS  C212  991   1.498   0.543  10.075 -0.5142 -0.3681  0.2567
    8SAPS  H12R  992   1.433   0.458  10.048 -1.7427  0.6629 -0.1226
    8SAPS  C213  993   1.572   0.613   9.963  0.4063  0.4923 -0.2334
    8SAPS  H13R  994   1.572   0.541   9.878  0.2244 -0.2402  0.3772
    8SAPS  H13S  995   1.674   0.621  10.005  0.0978  2.3239  0.2443
    8SAPS  C214  996   1.523   0.754   9.927  0.0295 -0.4858 -0.1733
    8SAPS  H14R  997   1.417   0.778   9.942  0.0445  1.1424 -2.1482
    8SAPS  C215  998   1.596   0.865   9.892 -0.4156  0.3792 -0.6779
    8SAPS  H15R  999   1.548   0.962   9.868  0.0277  0.7871  0.0471
    8SAPS  C216 1000   1.742   0.885   9.879  0.0327 -0.0842  0.4937
    8SAPS  H16R 1001   1.787   0.785   9.898 -0.6289 -0.4914 -0.0450
    8SAPS  H16S 1002   1.794   0.959   9.944  1.2347  0.9320 -1.5368
    8SAPS  C217 1003   1.782   0.915   9.736  0.0543  0.0351 -0.3815
    8SAPS  H17R 1004   1.889   0.941   9.756 -0.2921  0.5757  0.8555
    8SAPS  H17S 1005   1.722   1.001   9.699  0.3644  0.2541 -0.3798
    8SAPS  C218 1006   1.760   0.802   9.633  0.2872  0.1114 -0.0494
    8SAPS  H18R 1007   1.658   0.821   9.594  0.4802  3.2968  0.7312
    8SAPS  H18S 1008   1.781   0.700   9.671  0.6064  0.4890  0.8097
    8SAPS  C219 1009   1.864   0.811   9.520  0.9773  0.3100  0.0924
    8SAPS  H19R 1010   1.966   0.805   9.564  0.7850  1.6108  0.7722
    8SAPS  H19S 1011   1.849   0.907   9.465  0.5949  0.3116  0.1958
    8SAPS  C220 1012   1.858   0.695   9.422  0.7012  0.6246  0.4257
    8SAPS  H20R 1013   1.925   0.725   9.338 -1.7269  2.0134 -1.1210
    8SAPS  H20S 1014   1.756   0.692   9.378  1.1745  1.0666 -0.7570
    8SAPS  H20T 1015   1.880   0.598   9.470  1.1846  1.4385  1.9368
    8SAPS   C33 1016   1.930   0.551  10.361  0.1230 -1.0201  0.0181
    8SAPS   H3X 1017   2.035   0.526  10.389  0.6141  0.8908  0.0760
    8SAPS   H3Y 1018   1.898   0.650  10.400 -0.3803 -1.0843 -0.2323
    8SAPS   C34 1019   1.940   0.557  10.210  0.3121  0.0404 -0.3757
    8SAPS   H4X 1020   2.017   0.628  10.174  0.4827  0.0473 -0.0035
    8SAPS   H4Y 1021   1.850   0.604  10.164  0.7838 -0.6818 -2.1336
    8SAPS   C35 1022   1.958   0.416  10.151  0.1616  0.1772  0.1174
    8SAPS   H5X 1023   1.871   0.360  10.192 -0.1935  0.1997 -0.5992
    8SAPS   H5Y 1024   2.048   0.368  10.196 -0.7945  0.1018  2.0769
    8SAPS   C36 1025   1.955   0.413  10.003  0.2756 -0.1177 -0.4559
    8SAPS   H6X 1026   1.854   0.445   9.968 -0.6981 -1.3405  1.1196
    8SAPS   H6Y 1027   1.959   0.309   9.964  0.0067 -0.0722 -0.6134
    8SAPS   C37 1028   2.060   0.490   9.931  0.4036  0.1640  0.1115
    8SAPS   H7X 1029   2.164   0.474   9.967  0.2802  0.1445  0.4586
    8SAPS   H7Y 1030   2.026   0.593   9.954 -1.4411 -0.6026  0.9510
    8SAPS   C38 1031   2.075   0.448   9.787  0.9019 -0.2902  0.3585
    8SAPS   H8X 1032   1.977   0.443   9.735  0.9558  0.4848  0.1733
    8SAPS   H8Y 1033   2.094   0.338   9.793  0.1533 -0.3982  0.8190
    8SAPS   C39 1034   2.173   0.533   9.698  0.3558 -0.0414 -0.3302
    8SAPS   H9X 1035   2.273   0.525   9.745 -0.2178 -1.8893  0.6990
    8SAPS   H9Y 1036   2.152   0.642   9.699  0.4583  0.0033 -1.6219
    8SAPS  C310 1037   2.185   0.484   9.550  0.4941  0.1873  0.0504
    8SAPS  H10X 1038   2.081   0.477   9.512  0.6687 -0.0558 -0.3928
    8SAPS  H10Y 1039   2.228   0.381   9.558  0.8412  0.3510  0.3092
    8SAPS  C311 1040   2.277   0.574   9.475  0.1554 -0.1757 -0.2633
    8SAPS  H11X 1041   2.372   0.573   9.532 -0.4234 -2.3980  0.7563
    8SAPS  H11Y 1042   2.239   0.679   9.471 -0.2826 -0.3457 -0.8323
    8SAPS  C312 1043   2.312   0.535   9.329  0.1359  0.0499  0.2143
    8SAPS  H12X 1044   2.354   0.433   9.315  1.7749  0.9801 -2.3885
    8SAPS  H12Y 1045   2.394   0.605   9.300  0.5652 -0.9654 -1.1304
    8SAPS  C313 1046   2.188   0.558   9.237  0.7721 -0.4744 -0.0465
    8SAPS  H13X 1047   2.143   0.656   9.268 -1.3196 -1.4246  0.1112
    8SAPS  H13Y 1048   2.112   0.486   9.276 -1.3646  1.4195 -0.4623
    8SAPS  C314 1049   2.207   0.544   9.084  0.7468  0.3638 -0.0493
    8SAPS  H14X 1050   2.240   0.439   9.068  0.0682  0.1362 -0.0203
    8SAPS  H14Y 1051   2.294   0.606   9.058 -1.1487  3.6770  0.8925
    8SAPS  C315 1052   2.083   0.584   8.996 -0.4743 -0.2690  0.1829
    8SAPS  H15X 1053   2.048   0.678   9.044  1.5098 -0.9457  3.2735
    8SAPS  H15Y 1054   1.999   0.512   9.004 -1.3223  0.7958  1.3582
    8SAPS  C316 1055   2.122   0.611   8.852 -0.4879 -0.6675 -0.7875
    8SAPS  H16X 1056   2.203   0.542   8.820 -0.0113  0.3995 -1.9433
    8SAPS  H16Y 1057   2.165   0.713   8.844  0.6619 -1.1392 -0.7987
    8SAPS  C317 1058   2.001   0.601   8.757 -0.6456 -0.4214 -0.0415
    8SAPS  H17X 1059   1.972   0.702   8.723 -2.6514 -1.5962 -2.1057
    8SAPS  H17Y 1060   1.912   0.561   8.811 -0.3729 -1.4897 -0.3441
    8SAPS  C318 1061   2.031   0.508   8.634  0.2434 -0.8103 -0.5312
    8SAPS  H18X 1062   2.116   0.544   8.572 -0.3891  1.4818 -0.1839
    8SAPS  H18Y 1063   1.942   0.507   8.567  0.1213  2.3350 -0.5771
    8SAPS  H18Z 1064   2.048   0.403   8.665  0.8625 -0.7601 -0.6755
    9SAPS     N 1065   3.312   1.354   5.854 -0.1349 -0.6583  0.0182
    9SAPS   HN1 1066   3.387   1.291   5.820  1.7033  0.6982  1.3663
    9SAPS   HN2 1067   3.265   1.397   5.772  0.5827 -0.5810 -0.3580
    9SAPS   HN3 1068   3.365   1.419   5.915  1.2633 -0.5484 -1.2830
    9SAPS   C12 1069   3.222   1.290   5.960 -0.0376 -0.1039  0.5873
    9SAPS  H12A 1070   3.167   1.377   5.991  0.1495  0.3646 -0.3346
    9SAPS   C13 1071   3.127   1.186   5.896 -0.6789 -0.0538 -0.1763
    9SAPS  O13A 1072   3.132   1.166   5.768 -0.4554  0.0285 -0.2013
    9SAPS  O13B 1073   3.036   1.130   5.964  0.1852  0.1670  0.1684
    9SAPS   C11 1074   3.315   1.221   6.064 -0.4634  0.3475 -0.6128
    9SAPS  H11A 1075   3.360   1.126   6.028  0.1642  0.1998  0.5023
    9SAPS  H11B 1076   3.248   1.198   6.150  1.3361  0.0731  0.7665
    9SAPS     P 1077   3.540   1.291   6.189  0.1542 -0.2480 -0.4405
    9SAPS   O13 1078   3.597   1.155   6.180  0.7055  0.2846 -0.3760
    9SAPS   O14 1079   3.636   1.402   6.158 -0.5885  0.1359  0.1218
    9SAPS   O12 1080   3.419   1.316   6.102 -0.1060  0.0152 -0.3333
    9SAPS   O11 1081   3.476   1.306   6.334 -0.0929  0.2157 -0.1029
    9SAPS    C1 1082   3.377   1.405   6.358  0.3438  0.0010  0.2613
    9SAPS    HA 1083   3.388   1.491   6.289  0.9925 -0.0847  0.2482
    9SAPS    HB 1084   3.277   1.359   6.344  0.1901  0.0800  1.0454
    9SAPS    C2 1085   3.368   1.457   6.505 -0.0558 -0.2539  0.7012
    9SAPS    HS 1086   3.458   1.522   6.512  0.8499 -1.5225  1.3941
    9SAPS   O21 1087   3.369   1.345   6.603  0.0741 -0.0047  0.7390
    9SAPS   C21 1088   3.447   1.367   6.706  0.2703  0.2685  0.4722
    9SAPS   O22 1089   3.527   1.459   6.714  0.1984 -0.0315 -1.0109
    9SAPS   C22 1090   3.427   1.256   6.814  0.8550  0.1718  0.4427
    9SAPS   H2R 1091   3.317   1.248   6.822  0.6700  0.9621 -0.9620
    9SAPS   H2S 1092   3.456   1.161   6.764  0.7185  0.5869 -0.4444
    9SAPS    C3 1093   3.241   1.552   6.517  0.2057 -0.4928 -0.0241
    9SAPS    HX 1094   3.154   1.486   6.498  0.8015 -2.0482  2.3585
    9SAPS    HY 1095   3.231   1.633   6.441 -1.7241  0.9048  1.6186
    9SAPS   O31 1096   3.236   1.595   6.653 -0.5626 -0.2128 -0.6318
    9SAPS   C31 1097   3.142   1.548   6.739  0.6029 -0.1200 -0.1644
    9SAPS   O32 1098   3.050   1.471   6.711  0.2987  0.5388  0.0474
    9SAPS   C32 1099   3.175   1.610   6.879 -0.6358  0.2184  0.7241
    9SAPS   H2X 1100   3.131   1.712   6.881 -0.9549  0.0761  1.0989
    9SAPS   H2Y 1101   3.285   1.624   6.880 -0.7600  1.4256 -0.2995
    9SAPS   C23 1102   3.491   1.283   6.954 -0.8841 -0.1791 -0.5584
    9SAPS   H3R 1103   3.440   1.372   6.996 -0.7701 -0.3293 -0.0901
    9SAPS   H3S 1104   3.598   1.309   6.939 -1.1118  0.8047 -0.5042
    9SAPS   C24 1105   3.498   1.163   7.043 -0.4625 -0.2042  0.1705
    9SAPS   H4R 1106   3.569   1.182   7.127  0.2169 -1.6675 -0.0471
    9SAPS   H4S 1107   3.529   1.074   6.985  1.4651  0.2810  0.3989
    9SAPS   C25 1108   3.364   1.163   7.111 -0.8757  0.1004 -0.7025
    9SAPS   H5R 1109   3.282   1.193   7.044  0.3234  1.9271 -1.4093
    9SAPS   C26 1110   3.334   1.118   7.237  0.8051  0.3849  0.4768
    9SAPS   H6R 1111   3.227   1.124   7.263  0.4387 -0.1724 -0.8643
    9SAPS   C27 1112   3.430   1.047   7.334 -0.7387  0.2198 -0.2277
    9SAPS   H7R 1113   3.474   1.121   7.405  1.0672  0.3071 -1.3767
    9SAPS   H7S 1114   3.522   1.010   7.285 -0.3865 -0.1630  0.6917
    9SAPS   C28 1115   3.379   0.930   7.410 -1.0320 -0.1256 -0.5140
    9SAPS   H8R 1116   3.353   0.841   7.352 -1.2001 -0.2401 -0.2654
    9SAPS   C29 1117   3.370   0.915   7.545 -0.1819  0.4228  0.6131
    9SAPS   H9R 1118   3.343   0.813   7.576  1.0726 -0.2750 -0.5066
    9SAPS  C210 1119   3.399   1.020   7.653  0.6875 -0.8284 -0.0837
    9SAPS  H10R 1120   3.436   1.108   7.595 -1.1570 -0.3840 -0.6738
    9SAPS  H10S 1121   3.477   1.003   7.731  0.4456  1.0194  0.6184
    9SAPS  C211 1122   3.273   1.067   7.724  0.2714 -0.1505 -1.6870
    9SAPS  H11R 1123   3.200   1.121   7.661 -0.5122 -0.3888 -1.0119
    9SAPS  C212 1124   3.251   1.072   7.858  0.5653 -0.2418  0.2985
    9SAPS  H12R 1125   3.153   1.114   7.886 -0.5789 -1.2398 -1.9599
    9SAPS  C213 1126   3.336   1.025   7.972  0.2180  0.7788  0.3027
    9SAPS  H13R 1127   3.369   1.114   8.030 -1.1036  0.8127  1.0335
    9SAPS  H13S 1128   3.433   0.978   7.943  0.8824 -0.1349  3.5628
    9SAPS  C214 1129   3.271   0.926   8.061  0.4689  0.6806  0.3447
    9SAPS  H14R 1130   3.164   0.903   8.044  0.0293  1.8065  1.4067
    9SAPS  C215 1131   3.338   0.868   8.162  0.3766 -1.0246 -0.0080
    9SAPS  H15R 1132   3.290   0.802   8.236 -0.6224  2.4222  2.7002
    9SAPS  C216 1133   3.481   0.893   8.201 -0.5715 -0.1219  0.1908
    9SAPS  H16R 1134   3.533   0.972   8.142 -0.3728  0.1920  0.7712
    9SAPS  H16S 1135   3.531   0.795   8.187  3.0410  1.7399 -1.5095
    9SAPS  C217 1136   3.506   0.946   8.340  0.1362 -0.0641  0.2168
    9SAPS  H17R 1137   3.613   0.965   8.363 -0.0346 -0.2928  1.2077
    9SAPS  H17S 1138   3.473   0.865   8.408  2.0328 -2.0220 -1.0370
    9SAPS  C218 1139   3.423   1.069   8.375 -0.1707  0.8216  0.4636
    9SAPS  H18R 1140   3.315   1.046   8.364  0.1588 -0.3604 -0.5053
    9SAPS  H18S 1141   3.450   1.154   8.308  1.3650  0.7069  0.9172
    9SAPS  C219 1142   3.430   1.124   8.518  0.3021 -0.1587 -0.1305
    9SAPS  H19R 1143   3.335   1.182   8.526 -1.3760 -2.7846  0.0828
    9SAPS  H19S 1144   3.520   1.179   8.553 -0.2608 -0.6483  2.2732
    9SAPS  C220 1145   3.403   1.013   8.620 -1.2458 -0.3812  1.1681
    9SAPS  H20R 1146   3.397   1.057   8.722 -1.6214 -0.0038  0.9815
    9SAPS  H20S 1147   3.495   0.950   8.626 -0.7740  0.2856  1.0609
    9SAPS  H20T 1148   3.318   0.944   8.603 -1.3361 -0.2729  1.1816
    9SAPS   C33 1149   3.119   1.530   6.998  0.3429 -0.1201 -0.4348
    9SAPS   H3X 1150   3.170   1.431   6.993 -0.9672 -0.8618  0.0797
    9SAPS   H3Y 1151   3.011   1.502   6.994  0.5212 -0.8526 -0.2703
    9SAPS   C34 1152   3.129   1.593   7.133 -0.0990  0.0047 -0.4306
    9SAPS   H4X 1153   3.087   1.696   7.137  1.3545  0.5956  0.0546
    9SAPS   H4Y 1154   3.238   1.613   7.134  0.1988 -1.5038  1.0086
    9SAPS   C35 1155   3.084   1.498   7.248  0.0714  0.3024  0.2551
    9SAPS   H5X 1156   3.117   1.395   7.226  3.3917  0.6470  2.8729
    9SAPS   H5Y 1157   2.973   1.503   7.253 -0.0159 -0.0308 -0.9979
    9SAPS   C36 1158   3.141   1.543   7.381 -0.2896 -0.6168 -0.0999
    9SAPS   H6X 1159   3.116   1.648   7.405 -2.7711 -0.6455 -2.0927
    9SAPS   H6Y 1160   3.250   1.532   7.365 -0.3434 -2.1422  0.3688
    9SAPS   C37 1161   3.099   1.454   7.497 -0.0469 -0.3501 -0.1000
    9SAPS   H7X 1162   3.123   1.349   7.468  0.4157  0.0391 -1.1766
    9SAPS   H7Y 1163   2.989   1.467   7.499  0.0795  1.1388 -1.2773
    9SAPS   C38 1164   3.161   1.491   7.639  0.0610 -0.0697 -0.4969
    9SAPS   H8X 1165   3.271   1.504   7.633 -0.0058  1.7617  1.1299
    9SAPS   H8Y 1166   3.138   1.401   7.700 -0.4786  1.2008  1.2731
    9SAPS   C39 1167   3.101   1.610   7.714  0.1373 -0.2309 -0.0793
    9SAPS   H9X 1168   2.991   1.612   7.731  0.3571  0.7505  1.4395
    9SAPS   H9Y 1169   3.121   1.694   7.644 -2.0116 -1.4830 -2.3778
    9SAPS  C310 1170   3.164   1.646   7.851  0.6018  0.7577  0.5608
    9SAPS  H10X 1171   3.120   1.746   7.874 -1.6759 -0.2252  0.8055
    9SAPS  H10Y 1172   3.274   1.647   7.841  0.4561 -1.0105 -2.2678
    9SAPS  C311 1173   3.123   1.547   7.963 -0.0493  0.0950  0.0136
    9SAPS  H11X 1174   3.170   1.448   7.944  0.0269 -0.5065  2.9105
    9SAPS  H11Y 1175   3.013   1.530   7.963  0.2766 -2.6959 -1.5874
    9SAPS  C312 1176   3.167   1.609   8.095  0.2061  0.0646 -1.0262
    9SAPS  H12X 1177   3.107   1.700   8.117  1.7956  0.9734 -0.2350
    9SAPS  H12Y 1178   3.271   1.645   8.080 -0.0853  1.1703 -0.5336
    9SAPS  C313 1179   3.160   1.514   8.218  0.8227  0.5167  0.4844
    9SAPS  H13X 1180   3.194   1.412   8.188  0.4261 -0.3448  2.7278
    9SAPS  H13Y 1181   3.056   1.504   8.256  0.1703 -2.0048 -1.6494
    9SAPS  C314 1182   3.260   1.560   8.334  0.5329 -0.0624 -0.3651
    9SAPS  H14X 1183   3.232   1.664   8.362  0.4033 -0.0710 -0.4583
    9SAPS  H14Y 1184   3.364   1.557   8.295  0.5705  1.3740 -0.4259
    9SAPS  C315 1185   3.230   1.476   8.463 -1.1478  0.4237  0.5058
    9SAPS  H15X 1186   3.277   1.377   8.445  1.5890  1.8644 -1.0060
    9SAPS  H15Y 1187   3.120   1.466   8.472 -1.6857  1.8376 -2.8124
    9SAPS  C316 1188   3.297   1.526   8.592 -0.1014 -0.4223 -0.3765
    9SAPS  H16X 1189   3.394   1.576   8.569 -0.2423  0.5402  1.0191
    9SAPS  H16Y 1190   3.316   1.437   8.656  2.1707 -1.4145 -2.2872
    9SAPS  C317 1191   3.207   1.625   8.674  0.2278  0.0777  0.0196
    9SAPS  H17X 1192   3.158   1.689   8.597 -1.1185  1.3674  1.8532
    9SAPS  H17Y 1193   3.270   1.695   8.732  1.2708 -3.1920  3.2402
    9SAPS  C318 1194   3.087   1.570   8.759  0.1469 -0.8974  0.1020
    9SAPS  H18X 1195   3.012   1.543   8.681  1.1667  1.0389 -1.6842
    9SAPS  H18Y 1196   3.038   1.648   8.821 -1.0622  0.8629 -2.8340
    9SAPS  H18Z 1197   3.122   1.480   8.814 -1.2033 -1.4964  0.0294
   10SAPS     N 1198   3.031   0.853   5.875  0.0752  0.7503 -0.1984
   10SAPS   HN1 1199   2.965   0.879   5.799  0.0188  0.5299 -0.2271
   10SAPS   HN2 1200   3.057   0.942   5.921  1.4259  0.3972 -0.2277
   10SAPS   HN3 1201   3.120   0.817   5.834  0.1523  0.6959  0.0144
   10SAPS   C12 1202   2.963   0.758   5.970  0.2173 -0.5228 -0.0402
   10SAPS  H12A 1203   2.867   0.800   5.995  1.0182  0.7159  1.0521
   10SAPS   C13 1204   2.938   0.611   5.909  0.2368 -0.0654 -0.4842
   10SAPS  O13A 1205   2.990   0.589   5.796  0.3406 -0.0729  0.0907
   10SAPS  O13B 1206   2.879   0.524   5.973  0.2160  0.9784 -0.1048
   10SAPS   C11 1207   3.051   0.729   6.092 -0.2033 -0.8691 -0.6621
   10SAPS  H11A 1208   3.145   0.683   6.054  0.8613  1.9032 -1.6719
   10SAPS  H11B 1209   2.999   0.669   6.169 -1.2034  2.0416  1.0886
   10SAPS     P 1210   3.190   0.850   6.262 -0.3143 -0.0249  0.3405
   10SAPS   O13 1211   3.317   0.797   6.202 -0.1745 -0.7140 -0.5163
   10SAPS   O14 1212   3.202   0.981   6.326  0.0020 -0.2040 -0.6266
   10SAPS   O12 1213   3.067   0.856   6.157  0.0437  0.5681 -0.7607
   10SAPS   O11 1214   3.148   0.747   6.367  0.6009  0.2926  0.3731
   10SAPS    C1 1215   3.025   0.765   6.442 -0.5518  0.1650  0.2816
   10SAPS    HA 1216   2.957   0.842   6.400 -2.1124 -0.0954  2.2166
   10SAPS    HB 1217   2.970   0.669   6.442  1.1334 -0.8439  0.5072
   10SAPS    C2 1218   3.053   0.806   6.589  0.0644 -0.3415  0.8029
   10SAPS    HS 1219   3.052   0.917   6.596 -2.5536 -0.3300  1.6476
   10SAPS   O21 1220   3.177   0.754   6.643 -0.0533  0.3689 -0.1029
   10SAPS   C21 1221   3.258   0.852   6.693 -1.0809  0.5040  0.1551
   10SAPS   O22 1222   3.237   0.969   6.713  0.3229  0.5125  0.2688
   10SAPS   C22 1223   3.384   0.787   6.739  0.1840  0.1692 -0.2994
   10SAPS   H2R 1224   3.392   0.684   6.698  0.9583  0.1857 -0.2031
   10SAPS   H2S 1225   3.475   0.845   6.713 -0.4996  2.2281  1.5317
   10SAPS    C3 1226   2.943   0.776   6.698  0.4055 -0.7346  0.3976
   10SAPS    HX 1227   2.939   0.666   6.685  0.3829 -0.5888 -0.9550
   10SAPS    HY 1228   2.851   0.829   6.666  1.7953  0.6627 -1.5215
   10SAPS   O31 1229   2.979   0.817   6.832 -0.0360 -0.0502 -0.1466
   10SAPS   C31 1230   2.962   0.726   6.930 -0.5385  0.1189 -0.3003
   10SAPS   O32 1231   2.916   0.614   6.920  0.0503 -0.1415 -0.0533
   10SAPS   C32 1232   3.006   0.801   7.051  0.1097  0.2964  0.7050
   10SAPS   H2X 1233   2.931   0.881   7.064 -1.1500 -0.1815 -2.5282
   10SAPS   H2Y 1234   3.105   0.845   7.026  0.5182 -1.6571 -1.5258
   10SAPS   C23 1235   3.392   0.787   6.895  0.7281  0.1074 -0.4436
   10SAPS   H3R 1236   3.315   0.720   6.938  0.2089  0.5287 -0.6869
   10SAPS   H3S 1237   3.365   0.887   6.935 -0.3625  0.1258 -1.1689
   10SAPS   C24 1238   3.530   0.750   6.944  0.1318  0.2283  0.5007
   10SAPS   H4R 1239   3.610   0.807   6.892  1.0471 -0.5767  0.9828
   10SAPS   H4S 1240   3.539   0.644   6.914 -1.7979  0.3832 -0.8265
   10SAPS   C25 1241   3.547   0.790   7.092  0.4224 -0.7370 -0.2112
   10SAPS   H5R 1242   3.545   0.897   7.115 -0.4482 -0.9040  0.5335
   10SAPS   C26 1243   3.542   0.696   7.188 -0.5361  0.2718  0.4607
   10SAPS   H6R 1244   3.571   0.730   7.288  2.9896 -0.8421 -0.0269
   10SAPS   C27 1245   3.534   0.550   7.176 -0.1601 -0.1309  0.5216
   10SAPS   H7R 1246   3.586   0.498   7.259 -0.8725  0.0997  1.1264
   10SAPS   H7S 1247   3.592   0.522   7.085 -2.2063 -0.7447 -0.6589
   10SAPS   C28 1248   3.392   0.495   7.147  0.1813  0.8629 -0.1208
   10SAPS   H8R 1249   3.358   0.499   7.043 -0.2385  0.3673 -0.0111
   10SAPS   C29 1250   3.300   0.468   7.245 -0.1841  0.0575 -0.4821
   10SAPS   H9R 1251   3.202   0.432   7.211  0.2840 -0.3364 -1.4410
   10SAPS  C210 1252   3.327   0.469   7.394 -0.9446 -0.4241 -0.5353
   10SAPS  H10R 1253   3.385   0.561   7.420 -2.8151  0.7875 -0.4613
   10SAPS  H10S 1254   3.396   0.385   7.418 -2.0537 -1.3510 -0.4932
   10SAPS  C211 1255   3.214   0.475   7.494 -0.1453 -0.0662 -0.2750
   10SAPS  H11R 1256   3.119   0.448   7.444 -0.0923 -1.3181  0.2701
   10SAPS  C212 1257   3.230   0.479   7.628  0.5934 -0.3227  0.2587
   10SAPS  H12R 1258   3.139   0.483   7.689  0.3842 -1.6429  0.0640
   10SAPS  C213 1259   3.358   0.494   7.706  0.4916  0.2287 -0.4951
   10SAPS  H13R 1260   3.443   0.466   7.640 -1.2517 -0.3086 -2.6406
   10SAPS  H13S 1261   3.352   0.414   7.783  0.4561  2.4651  1.9683
   10SAPS  C214 1262   3.384   0.627   7.771  0.2719 -0.2702 -0.4541
   10SAPS  H14R 1263   3.326   0.715   7.737  0.1376 -0.3221 -0.3635
   10SAPS  C215 1264   3.469   0.647   7.873 -0.3928  0.3196 -0.0050
   10SAPS  H15R 1265   3.474   0.748   7.916 -1.4658  0.4880 -0.2537
   10SAPS  C216 1266   3.553   0.534   7.928 -0.1806 -0.6240  0.6843
   10SAPS  H16R 1267   3.658   0.561   7.904 -0.3366 -0.9587 -0.4107
   10SAPS  H16S 1268   3.536   0.438   7.875  1.8083  0.0663 -1.3560
   10SAPS  C217 1269   3.544   0.488   8.079 -0.1808  0.4591 -0.5798
   10SAPS  H17R 1270   3.554   0.566   8.157  1.0930  0.2671 -0.5326
   10SAPS  H17S 1271   3.634   0.424   8.093 -0.0788  0.9140  1.0932
   10SAPS  C218 1272   3.410   0.421   8.107  0.2959  0.0674  0.2219
   10SAPS  H18R 1273   3.404   0.332   8.041  1.8495  1.3118 -1.6817
   10SAPS  H18S 1274   3.315   0.476   8.085  0.2866 -0.7972 -2.2138
   10SAPS  C219 1275   3.395   0.367   8.245 -0.6704  0.0914  0.0098
   10SAPS  H19R 1276   3.489   0.323   8.283 -1.4207 -0.8626  0.8148
   10SAPS  H19S 1277   3.335   0.275   8.232  1.1048 -1.1861  0.5618
   10SAPS  C220 1278   3.353   0.471   8.345  0.0293 -0.3398  0.5145
   10SAPS  H20R 1279   3.320   0.422   8.439 -0.6009 -1.0011 -0.0340
   10SAPS  H20S 1280   3.265   0.532   8.315  0.4364 -0.5708 -1.2584
   10SAPS  H20T 1281   3.441   0.533   8.373  0.8317  0.6031 -3.5193
   10SAPS   C33 1282   3.020   0.723   7.180 -0.1549 -0.4007  0.5975
   10SAPS   H3X 1283   3.097   0.643   7.181  1.7287  1.3213 -0.0044
   10SAPS   H3Y 1284   2.924   0.674   7.210 -2.1853  1.2622 -2.5633
   10SAPS   C34 1285   3.056   0.813   7.290  0.1602 -0.5388  0.0075
   10SAPS   H4X 1286   3.009   0.911   7.267 -0.6911 -0.6145  1.3578
   10SAPS   H4Y 1287   3.163   0.828   7.262 -0.3034  0.3501 -1.3617
   10SAPS   C35 1288   3.046   0.779   7.436 -0.1980 -0.5954  0.8052
   10SAPS   H5X 1289   3.129   0.832   7.487  2.3055 -3.2269 -0.2420
   10SAPS   H5Y 1290   3.065   0.670   7.448 -0.4895 -0.7854 -0.3396
   10SAPS   C36 1291   2.908   0.810   7.491 -0.6090  0.3826 -0.5762
   10SAPS   H6X 1292   2.841   0.729   7.454 -0.4640 -0.7470  1.5098
   10SAPS   H6Y 1293   2.874   0.909   7.454  1.7627  1.4893  0.0546
   10SAPS   C37 1294   2.900   0.800   7.644 -0.3971  0.0310 -0.0005
   10SAPS   H7X 1295   2.994   0.831   7.696  1.3306 -3.2569 -0.9071
   10SAPS   H7Y 1296   2.899   0.690   7.656  0.7366 -0.2157 -1.7106
   10SAPS   C38 1297   2.781   0.864   7.698  0.1329 -0.1902  0.3722
   10SAPS   H8X 1298   2.714   0.794   7.752 -1.1998  0.4759 -0.3622
   10SAPS   H8Y 1299   2.721   0.897   7.610  0.1766 -0.3880  0.2681
   10SAPS   C39 1300   2.812   0.994   7.765 -0.2077 -0.2469 -0.2192
   10SAPS   H9X 1301   2.723   1.058   7.782  0.8778  1.4416 -0.7106
   10SAPS   H9Y 1302   2.875   1.056   7.698 -0.1933  0.1970  0.2036
   10SAPS  C310 1303   2.870   0.971   7.906 -0.5091  0.0359  0.0052
   10SAPS  H10X 1304   2.969   0.926   7.885 -1.3247 -1.1825 -1.3713
   10SAPS  H10Y 1305   2.818   0.889   7.959  1.5930 -1.5525 -0.2478
   10SAPS  C311 1306   2.873   1.104   7.987  0.0981 -0.7291  0.2603
   10SAPS  H11X 1307   2.764   1.122   7.999 -0.1463 -1.7997 -0.2632
   10SAPS  H11Y 1308   2.911   1.182   7.918 -0.8534 -0.5769 -0.1013
   10SAPS  C312 1309   2.957   1.091   8.114  0.1250 -0.4274  0.2834
   10SAPS  H12X 1310   3.056   1.111   8.069 -1.2388  2.7741 -1.6613
   10SAPS  H12Y 1311   2.948   0.990   8.160  0.3687 -0.0706  1.1260
   10SAPS  C313 1312   2.944   1.205   8.216  0.0300  0.3497 -0.1548
   10SAPS  H13X 1313   2.943   1.300   8.159 -0.7051  0.0621 -0.6237
   10SAPS  H13Y 1314   3.034   1.207   8.281 -0.2856 -0.1887  0.3139
   10SAPS  C314 1315   2.819   1.199   8.308 -0.5025 -0.7282  0.4026
   10SAPS  H14X 1316   2.819   1.097   8.351 -2.7947 -0.4775  1.1234
   10SAPS  H14Y 1317   2.725   1.204   8.249 -0.6814  1.1868  0.7921
   10SAPS  C315 1318   2.828   1.298   8.422 -1.0624  0.6890  0.6530
   10SAPS  H15X 1319   2.887   1.379   8.373 -0.8750 -0.6791 -1.5424
   10SAPS  H15Y 1320   2.889   1.251   8.502  0.2687 -2.2612 -1.9147
   10SAPS  C316 1321   2.689   1.337   8.459 -0.8139  0.7923  0.0395
   10SAPS  H16X 1322   2.628   1.342   8.366 -0.9631 -0.2359  0.0635
   10SAPS  H16Y 1323   2.683   1.436   8.508  3.6206  2.3674 -2.0339
   10SAPS  C317 1324   2.629   1.238   8.549 -0.2814 -0.7604  0.2580
   10SAPS  H17X 1325   2.662   1.261   8.653 -2.4608 -2.1867  1.3653
   10SAPS  H17Y 1326   2.655   1.134   8.520  0.5740 -1.5982  3.5450
   10SAPS  C318 1327   2.477   1.248   8.554 -0.1076 -0.0551 -0.1619
   10SAPS  H18X 1328   2.448   1.271   8.449  0.8206  0.4945 -0.3146
   10SAPS  H18Y 1329   2.453   1.336   8.618  1.2088  1.0104 -1.0535
   10SAPS  H18Z 1330   2.425   1.156   8.588  0.7176  0.0759  1.6082
   11SAPS     N 1331   0.381   3.254   5.890 -0.4299 -0.1570 -0.3183
   11SAPS   HN1 1332   0.468   3.279   5.839  0.8499 -0.4026  1.6298
   11SAPS   HN2 1333   0.316   3.324   5.848 -0.2084 -0.2225 -0.7714
   11SAPS   HN3 1334   0.397   3.286   5.988 -0.1225 -1.2787  0.0118
   11SAPS   C12 1335   0.317   3.126   5.875  0.1912 -0.7815 -0.3431
   11SAPS  H12A 1336   0.301   3.115   5.769  1.7402  0.2718 -0.7149
   11SAPS   C13 1337   0.406   3.007   5.920 -0.3401 -0.7975 -0.3057
   11SAPS  O13A 1338   0.530   3.015   5.923  0.5689  0.2150 -0.3334
   11SAPS  O13B 1339   0.352   2.894   5.907  0.4281  0.5177 -0.2561
   11SAPS   C11 1340   0.192   3.119   5.964  0.8539  0.0696 -0.4708
   11SAPS  H11A 1341   0.211   3.117   6.073 -2.8817 -0.4353  0.3054
   11SAPS  H11B 1342   0.161   3.014   5.946  1.3406 -0.3334  0.9139
   11SAPS     P 1343  -0.047   3.151   5.853 -0.0927  0.2457 -0.3382
   11SAPS   O13 1344  -0.150   3.259   5.830  0.0085 -0.3285  0.2401
   11SAPS   O14 1345  -0.017   3.069   5.734 -0.3235 -0.6382 -0.1652
   11SAPS   O12 1346   0.085   3.214   5.922 -0.2078  0.1531 -0.4397
   11SAPS   O11 1347  -0.093   3.061   5.974 -0.1805 -0.4655 -0.2436
   11SAPS    C1 1348  -0.198   3.083   6.066  0.3374  0.0078  0.0538
   11SAPS    HA 1349  -0.285   3.123   6.009  0.0013 -3.0761 -1.8324
   11SAPS    HB 1350  -0.218   2.984   6.111  2.9065  0.2185  1.9184
   11SAPS    C2 1351  -0.156   3.185   6.175  0.8754  0.0099  0.2191
   11SAPS    HS 1352  -0.127   3.276   6.119 -1.3792 -0.6616 -2.2212
   11SAPS   O21 1353  -0.038   3.141   6.250  0.3833  0.0765  0.0438
   11SAPS   C21 1354   0.019   3.233   6.328 -0.2959  0.3572 -0.0658
   11SAPS   O22 1355  -0.024   3.347   6.345  0.5209 -0.7404 -0.6907
   11SAPS   C22 1356   0.141   3.166   6.396 -0.1035  0.0631 -0.5158
   11SAPS   H2R 1357   0.118   3.064   6.434  2.5347 -0.5894 -0.4750
   11SAPS   H2S 1358   0.211   3.157   6.310  0.7965  1.9260 -0.0264
   11SAPS    C3 1359  -0.281   3.200   6.277  0.6455 -0.0725  0.9920
   11SAPS    HX 1360  -0.313   3.096   6.297 -1.4404  0.4114  0.3339
   11SAPS    HY 1361  -0.361   3.243   6.214 -0.4270  2.0421  3.5819
   11SAPS   O31 1362  -0.265   3.266   6.408 -0.2231 -0.3304  0.2366
   11SAPS   C31 1363  -0.297   3.396   6.410 -0.9772  0.6556  0.3568
   11SAPS   O32 1364  -0.359   3.452   6.323 -0.5025 -0.6178 -0.0203
   11SAPS   C32 1365  -0.238   3.453   6.534  0.3133  0.1131  0.2431
   11SAPS   H2X 1366  -0.130   3.474   6.514  0.5919 -0.8205  0.7383
   11SAPS   H2Y 1367  -0.252   3.375   6.612 -1.2452 -1.0374 -1.1310
   11SAPS   C23 1368   0.214   3.260   6.487  0.1309 -0.4305 -0.2494
   11SAPS   H3R 1369   0.162   3.255   6.585 -0.5889  0.7773 -0.5534
   11SAPS   H3S 1370   0.191   3.363   6.451  1.1566 -1.1126 -3.0382
   11SAPS   C24 1371   0.358   3.214   6.515 -0.4142  0.3002 -0.5752
   11SAPS   H4R 1372   0.410   3.222   6.417 -0.6299  0.8676 -0.6476
   11SAPS   H4S 1373   0.357   3.107   6.542 -1.1919  0.7317  1.2309
   11SAPS   C25 1374   0.431   3.292   6.628  0.4413  0.4430  0.1146
   11SAPS   H5R 1375   0.449   3.399   6.610 -3.4082  1.0302 -1.0986
   11SAPS   C26 1376   0.455   3.250   6.753 -0.2305  0.3236  0.0556
   11SAPS   H6R 1377   0.496   3.315   6.832  0.8887 -1.9419  1.4472
   11SAPS   C27 1378   0.427   3.110   6.811 -0.2553 -0.5089 -0.3334
   11SAPS   H7R 1379   0.512   3.042   6.789  0.5828  0.3705  0.0954
   11SAPS   H7S 1380   0.348   3.067   6.746  0.4515 -0.9890 -0.8975
   11SAPS   C28 1381   0.395   3.098   6.960 -0.2675 -0.7474  0.3916
   11SAPS   H8R 1382   0.367   3.197   6.999  0.4485 -0.1658 -0.5232
   11SAPS   C29 1383   0.381   2.988   7.035 -0.2021  0.1828  0.8268
   11SAPS   H9R 1384   0.348   2.994   7.140 -1.5687 -2.2048  0.6068
   11SAPS  C210 1385   0.388   2.853   6.974 -0.4434  0.1336  0.5415
   11SAPS  H10R 1386   0.473   2.803   7.025  0.1684  0.1918 -0.3993
   11SAPS  H10S 1387   0.424   2.863   6.870  0.0753  0.9175  0.7905
   11SAPS  C211 1388   0.274   2.762   6.981  0.0008  0.7488 -0.6888
   11SAPS  H11R 1389   0.198   2.767   6.902 -2.0875  1.2768  1.2214
   11SAPS  C212 1390   0.239   2.679   7.089  0.4462  0.5550 -0.9357
   11SAPS  H12R 1391   0.148   2.620   7.071 -0.9893  2.8546 -1.6622
   11SAPS  C213 1392   0.308   2.653   7.222 -0.8143 -0.5722  0.9243
   11SAPS  H13R 1393   0.415   2.674   7.202 -1.4653  0.0927 -2.5488
   11SAPS  H13S 1394   0.312   2.547   7.254 -0.9494 -0.3101  1.8537
   11SAPS  C214 1395   0.272   2.747   7.336 -0.5553 -0.0671  0.0724
   11SAPS  H14R 1396   0.239   2.849   7.312 -2.2213 -0.7694 -0.8552
   11SAPS  C215 1397   0.278   2.708   7.463  0.3613 -0.9115 -0.2841
   11SAPS  H15R 1398   0.249   2.775   7.545  0.9286  0.4234 -1.1444
   11SAPS  C216 1399   0.318   2.578   7.518  0.1719 -0.1552 -0.3465
   11SAPS  H16R 1400   0.428   2.565   7.511 -0.1440 -2.4530 -2.3353
   11SAPS  H16S 1401   0.280   2.492   7.459  3.2043 -0.4723 -2.0299
   11SAPS  C217 1402   0.276   2.570   7.669 -0.0646 -0.3782 -0.4530
   11SAPS  H17R 1403   0.297   2.463   7.691 -1.1670 -0.1358  2.1312
   11SAPS  H17S 1404   0.166   2.587   7.677  0.2391  1.6176 -0.0487
   11SAPS  C218 1405   0.365   2.644   7.764  0.1662  0.0209 -0.1013
   11SAPS  H18R 1406   0.338   2.751   7.770 -0.2213 -0.0041 -1.1449
   11SAPS  H18S 1407   0.465   2.647   7.715 -0.9611  1.8722 -2.5130
   11SAPS  C219 1408   0.391   2.580   7.901  0.2320  0.2522  0.2548
   11SAPS  H19R 1409   0.469   2.634   7.959 -0.0941  1.4456 -0.3780
   11SAPS  H19S 1410   0.427   2.475   7.902  1.2529  0.5891  1.4821
   11SAPS  C220 1411   0.269   2.580   7.999  0.2223  0.2297  0.1461
   11SAPS  H20R 1412   0.260   2.678   8.050 -2.6174  0.5998 -0.8577
   11SAPS  H20S 1413   0.282   2.501   8.075  1.9134  0.8133  0.4987
   11SAPS  H20T 1414   0.170   2.561   7.952 -0.8296  1.8015  1.6139
   11SAPS   C33 1415  -0.305   3.590   6.566  0.1567  1.0361  0.0285
   11SAPS   H3X 1416  -0.415   3.581   6.568  0.1877  0.3615  2.7965
   11SAPS   H3Y 1417  -0.294   3.659   6.479 -0.4241 -0.7786 -1.5506
   11SAPS   C34 1418  -0.281   3.642   6.707  0.0281  0.1792 -0.1975
   11SAPS   H4X 1419  -0.319   3.746   6.707 -2.5390 -0.5989  2.7036
   11SAPS   H4Y 1420  -0.173   3.650   6.730 -0.4434 -0.6474  2.6995
   11SAPS   C35 1421  -0.356   3.565   6.819 -0.3540 -0.2239 -0.8550
   11SAPS   H5X 1422  -0.316   3.461   6.821  0.3277  0.0466  0.5973
   11SAPS   H5Y 1423  -0.461   3.568   6.783 -0.1197  0.5632 -1.4969
   11SAPS   C36 1424  -0.355   3.631   6.957 -0.3452 -0.2486  0.1821
   11SAPS   H6X 1425  -0.422   3.719   6.950  0.0727  0.0373 -0.3290
   11SAPS   H6Y 1426  -0.250   3.659   6.982  0.8066 -3.2989 -0.7525
   11SAPS   C37 1427  -0.393   3.539   7.065  0.2902 -0.0843  0.0781
   11SAPS   H7X 1428  -0.344   3.439   7.060 -1.4171 -0.9091 -2.6705
   11SAPS   H7Y 1429  -0.502   3.520   7.064  0.6189 -2.5164  1.2188
   11SAPS   C38 1430  -0.337   3.580   7.202 -0.0758 -0.0881  0.6011
   11SAPS   H8X 1431  -0.368   3.684   7.226  3.0732  1.5605 -1.7488
   11SAPS   H8Y 1432  -0.227   3.590   7.190 -0.5483  5.2326 -2.1304
   11SAPS   C39 1433  -0.384   3.482   7.316  0.5831  0.2721  0.2196
   11SAPS   H9X 1434  -0.365   3.377   7.287 -0.3073  0.0961  0.2609
   11SAPS   H9Y 1435  -0.491   3.500   7.339  1.4910  1.8893  3.9495
   11SAPS  C310 1436  -0.315   3.525   7.448 -0.0376 -0.4828  0.3584
   11SAPS  H10X 1437  -0.356   3.625   7.472  1.2080  0.5950 -1.7801
   11SAPS  H10Y 1438  -0.207   3.549   7.439  0.0534 -1.2056 -0.5889
   11SAPS  C311 1439  -0.320   3.423   7.562  0.5483  0.0920 -0.2297
   11SAPS  H11X 1440  -0.284   3.326   7.521 -0.0103 -0.4744  0.5991
   11SAPS  H11Y 1441  -0.424   3.419   7.602  0.9865  1.7254  1.2049
   11SAPS  C312 1442  -0.224   3.451   7.680  0.1246 -0.2039  0.2890
   11SAPS  H12X 1443  -0.270   3.535   7.736 -1.3110 -1.6121  1.3388
   11SAPS  H12Y 1444  -0.117   3.467   7.655  0.1000 -1.1250 -0.4590
   11SAPS  C313 1445  -0.227   3.338   7.786  0.1434 -0.7951  0.1635
   11SAPS  H13X 1446  -0.139   3.367   7.846  0.3531 -0.6131 -0.2292
   11SAPS  H13Y 1447  -0.213   3.234   7.748 -1.9397 -2.1002  2.6164
   11SAPS  C314 1448  -0.362   3.325   7.864  0.2855 -0.1079  0.3304
   11SAPS  H14X 1449  -0.447   3.298   7.798  0.6400 -0.9222  0.1967
   11SAPS  H14Y 1450  -0.390   3.417   7.920 -2.3338 -1.7841  1.9599
   11SAPS  C315 1451  -0.351   3.210   7.967  0.7869  0.4559  0.0818
   11SAPS  H15X 1452  -0.334   3.110   7.921 -0.6652  0.1828  0.0952
   11SAPS  H15Y 1453  -0.448   3.194   8.018  1.6864  0.3753  1.8202
   11SAPS  C316 1454  -0.265   3.245   8.089 -0.0066  0.2763 -0.3367
   11SAPS  H16X 1455  -0.304   3.341   8.130 -4.7443 -1.4671 -0.1213
   11SAPS  H16Y 1456  -0.161   3.247   8.050 -0.0999  2.6718 -0.5959
   11SAPS  C317 1457  -0.265   3.137   8.193  0.7459  0.7195 -0.2958
   11SAPS  H17X 1458  -0.231   3.038   8.155 -1.9159 -1.5563  2.6703
   11SAPS  H17Y 1459  -0.364   3.125   8.241  0.2925 -0.2256 -1.4350
   11SAPS  C318 1460  -0.167   3.159   8.314  0.6594 -0.4904  0.3607
   11SAPS  H18X 1461  -0.174   3.262   8.355  3.0836 -0.0428 -0.1965
   11SAPS  H18Y 1462  -0.062   3.154   8.278 -0.0795 -0.2352 -2.0720
   11SAPS  H18Z 1463  -0.176   3.080   8.391  1.7746 -0.1258  0.8805
   12SAPS     N 1464   4.649   5.411   6.124  0.5183 -0.7613 -0.3863
   12SAPS   HN1 1465   4.571   5.421   6.193  0.9204  1.9546 -0.2007
   12SAPS   HN2 1466   4.728   5.476   6.142  0.9717 -1.4811  0.3494
   12SAPS   HN3 1467   4.611   5.430   6.030  1.2638  0.3276 -0.4861
   12SAPS   C12 1468   4.732   5.294   6.132  0.5592 -0.1728 -0.1769
   12SAPS  H12A 1469   4.770   5.276   6.231  1.2282 -1.5243 -0.6485
   12SAPS   C13 1470   4.662   5.162   6.086 -0.3641 -0.1101  0.3258
   12SAPS  O13A 1471   4.544   5.166   6.034 -0.4940 -0.4154 -0.9110
   12SAPS  O13B 1472   4.707   5.059   6.135  0.3820  0.1027 -0.2235
   12SAPS   C11 1473   4.855   5.310   6.036 -1.0446  0.4445 -0.0223
   12SAPS  H11A 1474   4.809   5.307   5.935 -0.9469  0.6908 -0.0757
   12SAPS  H11B 1475   4.929   5.228   6.041  1.3544  2.3049 -2.1849
   12SAPS     P 1476   5.072   5.457   6.064  0.4046 -0.7563  0.0861
   12SAPS   O13 1477   5.136   5.380   5.961  0.7579 -0.6743  0.0458
   12SAPS   O14 1478   5.100   5.605   6.067 -0.0563 -0.2241 -1.0245
   12SAPS   O12 1479   4.914   5.436   6.060 -0.0484  0.4117  0.1430
   12SAPS   O11 1480   5.101   5.387   6.202 -0.4692  0.2814 -0.5383
   12SAPS    C1 1481   5.179   5.455   6.301  0.6381 -0.1006 -0.0942
   12SAPS    HA 1482   5.140   5.558   6.314 -0.7071 -0.5897 -0.1687
   12SAPS    HB 1483   5.162   5.394   6.392  0.7400  0.5022  0.3322
   12SAPS    C2 1484   5.331   5.446   6.280 -0.6337  0.0809  0.6353
   12SAPS    HS 1485   5.368   5.533   6.221 -1.0977 -0.1735 -0.0324
   12SAPS   O21 1486   5.362   5.328   6.210 -0.3136 -0.2979 -0.7970
   12SAPS   C21 1487   5.438   5.340   6.103 -0.0469  0.0248 -0.0044
   12SAPS   O22 1488   5.477   5.445   6.052 -0.2983 -0.1697  0.0821
   12SAPS   C22 1489   5.452   5.201   6.053 -0.4477  0.4074  0.4402
   12SAPS   H2R 1490   5.351   5.158   6.034 -1.3529  1.6893  2.0234
   12SAPS   H2S 1491   5.505   5.217   5.957 -1.9248  0.0806 -0.4630
   12SAPS    C3 1492   5.414   5.431   6.414 -0.2836 -0.4388  0.0958
   12SAPS    HX 1493   5.523   5.427   6.393 -0.9280 -1.7421 -3.7739
   12SAPS    HY 1494   5.390   5.331   6.459 -0.7951 -2.0423 -3.4249
   12SAPS   O31 1495   5.372   5.538   6.504 -0.5454  0.5246  0.6182
   12SAPS   C31 1496   5.430   5.653   6.497  0.0269  0.6413 -0.0994
   12SAPS   O32 1497   5.524   5.687   6.424 -0.3615  0.1133  0.3593
   12SAPS   C32 1498   5.370   5.746   6.602  0.1655  0.6914 -0.2149
   12SAPS   H2X 1499   5.261   5.749   6.579  0.6903 -0.6473 -3.3816
   12SAPS   H2Y 1500   5.399   5.853   6.587  1.2738  0.1461 -2.3853
   12SAPS   C23 1501   5.542   5.114   6.134 -0.1759 -0.1746 -0.9091
   12SAPS   H3R 1502   5.637   5.167   6.159  0.3948 -0.9683 -1.3400
   12SAPS   H3S 1503   5.559   5.018   6.080 -1.4940 -1.7927  1.3846
   12SAPS   C24 1504   5.485   5.070   6.262  0.8281 -0.2487 -0.1335
   12SAPS   H4R 1505   5.378   5.042   6.250  0.4025 -0.3757  3.1009
   12SAPS   H4S 1506   5.466   5.154   6.333 -1.8984  0.2509 -1.3154
   12SAPS   C25 1507   5.557   4.960   6.330  0.5816 -0.5354 -0.0397
   12SAPS   H5R 1508   5.564   4.863   6.278 -0.1904 -0.5074 -0.2058
   12SAPS   C26 1509   5.613   4.975   6.454  0.2111 -0.0473  0.3247
   12SAPS   H6R 1510   5.655   4.884   6.499  0.1537 -0.3031 -0.1385
   12SAPS   C27 1511   5.616   5.089   6.553  0.2613 -0.2283  0.5552
   12SAPS   H7R 1512   5.538   5.077   6.631 -1.5847 -0.4113 -1.2330
   12SAPS   H7S 1513   5.593   5.183   6.498  1.9394 -0.0461  0.0988
   12SAPS   C28 1514   5.758   5.090   6.615 -0.1263  0.0063 -0.0959
   12SAPS   H8R 1515   5.837   5.121   6.546  0.2124  0.8346  0.6390
   12SAPS   C29 1516   5.793   5.056   6.734  0.1922 -0.0794 -0.4386
   12SAPS   H9R 1517   5.899   5.054   6.764 -0.1952  0.9059  1.0462
   12SAPS  C210 1518   5.712   5.003   6.850 -0.2446 -0.2181 -0.2124
   12SAPS  H10R 1519   5.604   5.029   6.845 -0.1438 -0.0361 -2.5344
   12SAPS  H10S 1520   5.750   5.053   6.942 -0.1187  2.0420 -1.4123
   12SAPS  C211 1521   5.739   4.857   6.876  0.2238  0.8067 -0.1456
   12SAPS  H11R 1522   5.660   4.789   6.840 -0.6126  0.1052  2.7490
   12SAPS  C212 1523   5.836   4.807   6.946 -0.0507 -0.0846 -0.4146
   12SAPS  H12R 1524   5.859   4.700   6.937  1.3233  0.0577  0.9277
   12SAPS  C213 1525   5.946   4.884   7.014  0.1613  0.1752  0.0242
   12SAPS  H13R 1526   5.958   4.989   6.979 -0.2954  0.4494  0.6501
   12SAPS  H13S 1527   6.043   4.838   6.988  0.4139  0.3933  0.5537
   12SAPS  C214 1528   5.933   4.887   7.166 -0.5638  0.2881  0.6989
   12SAPS  H14R 1529   5.845   4.948   7.194 -0.6019  0.2652  0.6278
   12SAPS  C215 1530   6.021   4.831   7.255  0.3001 -0.2823 -0.1551
   12SAPS  H15R 1531   6.000   4.834   7.362  0.5843  0.5870 -0.1120
   12SAPS  C216 1532   6.131   4.739   7.212 -0.0463 -1.1993  0.1429
   12SAPS  H16R 1533   6.218   4.755   7.280  1.5855  0.6323 -2.1621
   12SAPS  H16S 1534   6.184   4.765   7.118  0.8014 -0.7722  0.7158
   12SAPS  C217 1535   6.089   4.597   7.201 -0.0515 -0.4104  0.2640
   12SAPS  H17R 1536   6.147   4.550   7.119 -0.6756 -0.2758 -0.2589
   12SAPS  H17S 1537   5.986   4.588   7.161  1.1990  0.1162 -3.4913
   12SAPS  C218 1538   6.080   4.501   7.327 -0.2619 -0.0495 -0.1457
   12SAPS  H18R 1539   6.045   4.405   7.284  2.1883 -1.7183  1.3279
   12SAPS  H18S 1540   5.997   4.538   7.392 -0.7016  1.4979 -1.5286
   12SAPS  C219 1541   6.217   4.480   7.402 -0.2024  0.3156 -0.0094
   12SAPS  H19R 1542   6.258   4.579   7.431 -0.4922  0.2696  0.5803
   12SAPS  H19S 1543   6.283   4.436   7.324 -1.8955 -0.2875 -1.1590
   12SAPS  C220 1544   6.196   4.377   7.517  0.1161  0.7332 -0.7943
   12SAPS  H20R 1545   6.172   4.280   7.469  0.0810 -0.0784  0.7794
   12SAPS  H20S 1546   6.113   4.399   7.587 -0.9931  0.5815 -2.0430
   12SAPS  H20T 1547   6.288   4.359   7.577  0.2593 -1.3415 -1.5467
   12SAPS   C33 1548   5.401   5.691   6.745 -0.1731 -0.6673  0.2624
   12SAPS   H3X 1549   5.512   5.699   6.754 -0.2654 -0.7617  1.7270
   12SAPS   H3Y 1550   5.372   5.585   6.757  0.3409 -0.7138  1.1922
   12SAPS   C34 1551   5.349   5.774   6.868  0.1584 -0.0851 -0.2697
   12SAPS   H4X 1552   5.239   5.783   6.859 -0.1496 -1.5251  1.5267
   12SAPS   H4Y 1553   5.396   5.875   6.879 -1.6898  0.7936 -0.1400
   12SAPS   C35 1554   5.361   5.703   7.003 -0.2202  0.1115  0.3163
   12SAPS   H5X 1555   5.469   5.685   7.024 -0.5089 -1.6032  0.4446
   12SAPS   H5Y 1556   5.313   5.603   7.000  0.0391  0.0071 -1.7003
   12SAPS   C36 1557   5.304   5.784   7.115  0.2375  0.2341 -0.4081
   12SAPS   H6X 1558   5.199   5.816   7.100  0.4450  0.4088 -1.5966
   12SAPS   H6Y 1559   5.363   5.878   7.111 -1.5937  1.3880 -1.8888
   12SAPS   C37 1560   5.317   5.709   7.252 -0.8091  0.3669  0.1059
   12SAPS   H7X 1561   5.414   5.656   7.252 -1.9377 -1.8126  1.5474
   12SAPS   H7Y 1562   5.245   5.624   7.259 -2.2857  1.7254  3.7238
   12SAPS   C38 1563   5.297   5.788   7.379 -0.2201 -0.1845 -0.0438
   12SAPS   H8X 1564   5.219   5.865   7.363  1.6223  1.6695 -0.5343
   12SAPS   H8Y 1565   5.385   5.846   7.414 -1.5094  0.2033  2.8487
   12SAPS   C39 1566   5.261   5.704   7.503  0.3337  0.4290 -0.4146
   12SAPS   H9X 1567   5.337   5.627   7.528 -0.9054 -0.1354  1.9756
   12SAPS   H9Y 1568   5.165   5.655   7.477 -0.0772  0.7746  0.3954
   12SAPS  C310 1569   5.248   5.788   7.628 -0.9380  0.7487 -0.5697
   12SAPS  H10X 1570   5.170   5.867   7.621 -0.8705  0.8348 -0.3451
   12SAPS  H10Y 1571   5.347   5.823   7.662 -0.2369 -1.2925 -0.3833
   12SAPS  C311 1572   5.186   5.706   7.747  0.0160  0.1000  0.2905
   12SAPS  H11X 1573   5.231   5.604   7.746 -0.8709 -0.3368 -2.7536
   12SAPS  H11Y 1574   5.077   5.688   7.733  0.2090  0.1135 -1.4058
   12SAPS  C312 1575   5.211   5.783   7.882  0.6890  0.1698  0.1631
   12SAPS  H12X 1576   5.130   5.859   7.889 -0.4025 -1.0363  1.2420
   12SAPS  H12Y 1577   5.314   5.824   7.887  0.0410  2.0631 -1.0263
   12SAPS  C313 1578   5.186   5.689   8.000  0.0186 -0.3101 -0.0106
   12SAPS  H13X 1579   5.265   5.612   7.994  1.2699  0.9664 -0.5664
   12SAPS  H13Y 1580   5.090   5.636   7.981 -0.0508  0.0223 -0.6259
   12SAPS  C314 1581   5.169   5.769   8.128 -0.4471 -0.7228 -0.4065
   12SAPS  H14X 1582   5.086   5.836   8.099  0.9272  0.4769 -1.7308
   12SAPS  H14Y 1583   5.257   5.835   8.142  0.8945 -2.6640  0.9005
   12SAPS  C315 1584   5.139   5.699   8.256 -0.2421  0.1824 -0.0874
   12SAPS  H15X 1585   5.071   5.613   8.239 -0.3214  0.3806 -0.8271
   12SAPS  H15Y 1586   5.081   5.761   8.327  1.3816 -0.3036  1.7372
   12SAPS  C316 1587   5.259   5.635   8.334 -0.6838 -0.8390  0.6428
   12SAPS  H16X 1588   5.343   5.700   8.367  0.8396 -3.2622  1.8433
   12SAPS  H16Y 1589   5.300   5.563   8.259  0.3304  1.4991 -1.1948
   12SAPS  C317 1590   5.230   5.548   8.459 -0.2985  0.0586  0.5132
   12SAPS  H17X 1591   5.161   5.463   8.439  1.4971 -0.8059 -2.6651
   12SAPS  H17Y 1592   5.194   5.613   8.542 -0.4430  0.9663 -0.2515
   12SAPS  C318 1593   5.359   5.480   8.506 -0.3955  0.6511 -0.0320
   12SAPS  H18X 1594   5.430   5.557   8.543 -0.8804  0.0837  2.2784
   12SAPS  H18Y 1595   5.419   5.437   8.423 -1.0067  0.7039 -0.5092
   12SAPS  H18Z 1596   5.355   5.403   8.586  1.5195 -1.0349 -1.4816
   13SAPS     N 1597   4.947   3.813   5.818 -0.1669  0.0304  0.3516
   13SAPS   HN1 1598   4.949   3.909   5.858  1.4695 -0.8576  2.6479
   13SAPS   HN2 1599   4.914   3.799   5.721  1.9158  0.1702 -0.4367
   13SAPS   HN3 1600   4.889   3.764   5.889  1.3647  0.4019  1.9528
   13SAPS   C12 1601   5.089   3.760   5.832  0.1424 -0.2341 -0.0462
   13SAPS  H12A 1602   5.099   3.668   5.777 -2.4602 -1.3834  1.2385
   13SAPS   C13 1603   5.198   3.856   5.784 -0.4778  0.1116  0.0068
   13SAPS  O13A 1604   5.181   3.971   5.738 -0.3407  0.0333  0.2697
   13SAPS  O13B 1605   5.316   3.817   5.812 -0.3934 -0.3242  0.2782
   13SAPS   C11 1606   5.114   3.711   5.975  0.8675 -0.3818  0.4677
   13SAPS  H11A 1607   5.115   3.807   6.030  1.5019 -0.3190  0.3500
   13SAPS  H11B 1608   5.213   3.662   5.987  1.4926  1.1212  1.8385
   13SAPS     P 1609   4.999   3.479   6.017  0.4206  0.0999 -0.5785
   13SAPS   O13 1610   4.870   3.436   6.077  0.3746  1.3073  0.0190
   13SAPS   O14 1611   5.032   3.428   5.883 -0.3450  0.0169 -0.0194
   13SAPS   O12 1612   5.002   3.633   6.013 -0.4392 -0.4394 -0.2767
   13SAPS   O11 1613   5.119   3.446   6.116  0.1246 -0.2353  0.2122
   13SAPS    C1 1614   5.143   3.527   6.235 -0.4752 -0.2565 -0.4618
   13SAPS    HA 1615   5.247   3.566   6.238  0.3138 -2.2226 -0.8395
   13SAPS    HB 1616   5.067   3.606   6.252  0.7110  0.9276 -0.5054
   13SAPS    C2 1617   5.145   3.438   6.363 -0.4419 -0.3372  0.4589
   13SAPS    HS 1618   5.232   3.370   6.360  0.3267  0.6283  0.1248
   13SAPS   O21 1619   5.010   3.397   6.386 -0.2323  0.1206  0.4966
   13SAPS   C21 1620   4.995   3.268   6.401 -0.1296  0.3135  0.4041
   13SAPS   O22 1621   5.084   3.187   6.417 -0.0133 -0.4426 -0.4208
   13SAPS   C22 1622   4.847   3.244   6.395 -0.1973  0.4804 -0.0813
   13SAPS   H2R 1623   4.795   3.307   6.471 -0.6391 -1.4333  1.2905
   13SAPS   H2S 1624   4.812   3.278   6.296 -2.2905 -0.7842  0.1778
   13SAPS    C3 1625   5.183   3.530   6.475 -0.0600  0.2296  1.1248
   13SAPS    HX 1626   5.089   3.586   6.493 -0.7449 -0.3468 -0.5279
   13SAPS    HY 1627   5.252   3.613   6.449  1.6404 -1.7986 -1.3290
   13SAPS   O31 1628   5.218   3.459   6.598  0.7901  0.2674 -0.2212
   13SAPS   C31 1629   5.342   3.411   6.605 -0.7267 -0.0858  0.4064
   13SAPS   O32 1630   5.428   3.429   6.518  0.1162  0.1557 -0.0229
   13SAPS   C32 1631   5.377   3.345   6.736 -0.3244 -0.4583 -0.1976
   13SAPS   H2X 1632   5.313   3.254   6.742  0.7837 -1.5254 -2.9182
   13SAPS   H2Y 1633   5.367   3.424   6.814 -0.9264  0.0751 -0.8038
   13SAPS   C23 1634   4.806   3.100   6.433  0.3756 -0.6318 -0.7088
   13SAPS   H3R 1635   4.868   3.018   6.391 -1.0149 -2.8856  1.3500
   13SAPS   H3S 1636   4.706   3.079   6.389  0.7499  0.8611 -2.3986
   13SAPS   C24 1637   4.805   3.080   6.591 -0.2442  0.3030  0.0619
   13SAPS   H4R 1638   4.906   3.110   6.625  0.8394 -1.6395 -1.2873
   13SAPS   H4S 1639   4.803   2.973   6.618  0.0253  0.2368 -0.1757
   13SAPS   C25 1640   4.699   3.148   6.670  0.3228 -0.3691  0.4394
   13SAPS   H5R 1641   4.596   3.113   6.654 -0.2463 -0.0435  3.0525
   13SAPS   C26 1642   4.713   3.250   6.754 -0.1405 -0.4693 -0.5760
   13SAPS   H6R 1643   4.626   3.302   6.797  0.4613 -0.1232  0.2607
   13SAPS   C27 1644   4.846   3.316   6.796 -0.7899 -0.0174 -0.0262
   13SAPS   H7R 1645   4.907   3.308   6.703 -2.9593 -0.9130 -1.4638
   13SAPS   H7S 1646   4.868   3.240   6.874  0.4786 -0.2154 -0.5558
   13SAPS   C28 1647   4.850   3.464   6.845  0.1856 -0.1646  0.4412
   13SAPS   H8R 1648   4.871   3.549   6.778  0.6826 -0.3665  0.3368
   13SAPS   C29 1649   4.831   3.497   6.969  0.9970 -0.1821 -0.0791
   13SAPS   H9R 1650   4.834   3.604   6.996 -0.7315 -0.4619  1.4130
   13SAPS  C210 1651   4.801   3.415   7.096  0.2278  0.3549  0.4390
   13SAPS  H10R 1652   4.808   3.305   7.081  1.9120  0.6348 -1.2532
   13SAPS  H10S 1653   4.696   3.437   7.125 -1.0540 -2.4287 -1.6186
   13SAPS  C211 1654   4.886   3.440   7.217 -0.3585  0.6716  0.0183
   13SAPS  H11R 1655   4.973   3.507   7.212 -0.5954  0.9691 -0.1140
   13SAPS  C212 1656   4.862   3.390   7.340  0.3427  1.1412 -0.2204
   13SAPS  H12R 1657   4.942   3.397   7.415  1.5651 -0.9895 -1.2312
   13SAPS  C213 1658   4.741   3.299   7.369 -0.0463 -0.0689 -0.3134
   13SAPS  H13R 1659   4.702   3.251   7.277 -0.5740  0.3073 -0.2893
   13SAPS  H13S 1660   4.663   3.375   7.392 -1.9690 -1.0575 -3.0862
   13SAPS  C214 1661   4.756   3.211   7.491 -0.9288  0.5572 -0.6789
   13SAPS  H14R 1662   4.801   3.112   7.476 -0.8571 -0.0708  2.8435
   13SAPS  C215 1663   4.736   3.238   7.623  0.2749 -0.3303 -0.0306
   13SAPS  H15R 1664   4.768   3.158   7.692  1.5499 -0.4782 -0.7640
   13SAPS  C216 1665   4.679   3.360   7.679 -0.3732  0.7051 -0.8602
   13SAPS  H16R 1666   4.680   3.435   7.597 -0.1994 -1.1252 -2.6020
   13SAPS  H16S 1667   4.746   3.383   7.764  0.9929 -2.1954 -1.0326
   13SAPS  C217 1668   4.536   3.339   7.734  0.0874  0.4039 -0.6630
   13SAPS  H17R 1669   4.540   3.308   7.840  1.1277 -0.5629 -0.9726
   13SAPS  H17S 1670   4.478   3.265   7.675 -0.8620  0.3166  0.3413
   13SAPS  C218 1671   4.455   3.473   7.733  0.0415 -0.4970 -0.2850
   13SAPS  H18R 1672   4.352   3.459   7.771  0.4025  0.9808  1.3542
   13SAPS  H18S 1673   4.453   3.512   7.629  0.9062 -1.3198 -0.6220
   13SAPS  C219 1674   4.523   3.570   7.833 -0.4252 -0.6055 -0.2327
   13SAPS  H19R 1675   4.624   3.581   7.786 -0.2453  0.9300  0.4603
   13SAPS  H19S 1676   4.535   3.522   7.933 -0.3933  1.6464  0.9061
   13SAPS  C220 1677   4.466   3.710   7.850 -0.8303  0.0003  0.2253
   13SAPS  H20R 1678   4.457   3.759   7.751  1.3928  0.5385  0.2323
   13SAPS  H20S 1679   4.550   3.770   7.892  2.2908 -1.1204 -3.7617
   13SAPS  H20T 1680   4.370   3.732   7.901 -1.0142 -1.1176  0.3861
   13SAPS   C33 1681   5.528   3.313   6.725 -0.5079 -0.6551  0.3033
   13SAPS   H3X 1682   5.582   3.410   6.725 -0.6385 -0.5588 -1.7507
   13SAPS   H3Y 1683   5.542   3.243   6.641  0.0701  0.1491 -0.2770
   13SAPS   C34 1684   5.577   3.237   6.853  0.2612  0.5141  0.6364
   13SAPS   H4X 1685   5.683   3.211   6.835  0.8497  1.6106  2.3780
   13SAPS   H4Y 1686   5.524   3.139   6.864  2.5011 -0.6708  1.4587
   13SAPS   C35 1687   5.560   3.320   6.981 -0.0248 -0.1046  0.1973
   13SAPS   H5X 1688   5.452   3.323   7.008 -0.0229  0.3207  0.1627
   13SAPS   H5Y 1689   5.607   3.421   6.975 -0.8433  0.4329  2.1752
   13SAPS   C36 1690   5.633   3.254   7.101  0.3277  0.1572 -0.6118
   13SAPS   H6X 1691   5.743   3.245   7.087  0.8665  1.4972  2.0478
   13SAPS   H6Y 1692   5.588   3.157   7.132 -0.2142  0.9027  1.0639
   13SAPS   C37 1693   5.615   3.343   7.225 -0.2614 -0.2952 -0.2736
   13SAPS   H7X 1694   5.513   3.387   7.229 -0.4130 -0.7709  2.0466
   13SAPS   H7Y 1695   5.697   3.416   7.209  0.5660 -1.4049 -1.2639
   13SAPS   C38 1696   5.612   3.266   7.360  0.5630 -1.1237 -0.1205
   13SAPS   H8X 1697   5.710   3.214   7.364  1.1608  0.0295  1.7026
   13SAPS   H8Y 1698   5.530   3.193   7.346  0.3449 -0.8783 -0.1462
   13SAPS   C39 1699   5.617   3.345   7.489 -0.2668 -0.3106  0.7845
   13SAPS   H9X 1700   5.531   3.415   7.489 -2.3790 -2.7661 -0.5939
   13SAPS   H9Y 1701   5.711   3.404   7.482 -0.1279 -0.5912  0.2565
   13SAPS  C310 1702   5.605   3.255   7.616  0.1588 -0.3827  0.9306
   13SAPS  H10X 1703   5.689   3.182   7.612 -0.2231 -0.7836 -2.0183
   13SAPS  H10Y 1704   5.513   3.193   7.602 -0.0882  0.5721 -2.2920
   13SAPS  C311 1705   5.591   3.328   7.753  0.7648  0.0992 -0.3591
   13SAPS  H11X 1706   5.485   3.354   7.776  0.2062 -2.0885 -0.1516
   13SAPS  H11Y 1707   5.651   3.420   7.743  0.8829  0.0596 -0.0178
   13SAPS  C312 1708   5.657   3.250   7.863 -0.1387 -0.2769  0.1941
   13SAPS  H12X 1709   5.765   3.234   7.843  0.0589  1.3592 -0.2077
   13SAPS  H12Y 1710   5.605   3.152   7.858  0.1360 -0.3542 -1.8493
   13SAPS  C313 1711   5.642   3.317   7.997  0.5136 -0.5304  0.1622
   13SAPS  H13X 1712   5.680   3.236   8.063 -1.8553 -1.5934  0.3447
   13SAPS  H13Y 1713   5.535   3.331   8.024  0.1638 -0.7670 -1.0229
   13SAPS  C314 1714   5.712   3.449   8.027  0.3308  0.1288  0.3168
   13SAPS  H14X 1715   5.690   3.463   8.135  0.0380 -1.5867  0.5083
   13SAPS  H14Y 1716   5.657   3.536   7.985  0.4991 -0.1957 -0.6027
   13SAPS  C315 1717   5.865   3.449   8.001  0.2036  0.2635  0.1128
   13SAPS  H15X 1718   5.906   3.552   8.008 -0.0447  0.2334  3.0078
   13SAPS  H15Y 1719   5.884   3.410   7.899 -1.5852 -0.4800  0.0199
   13SAPS  C316 1720   5.937   3.358   8.101  0.3767 -0.7636  0.1466
   13SAPS  H16X 1721   5.947   3.255   8.061 -1.7630 -1.5504  1.5178
   13SAPS  H16Y 1722   5.868   3.346   8.187 -0.8315 -0.0219 -0.6815
   13SAPS  C317 1723   6.082   3.407   8.135 -0.5063  0.7324  0.2064
   13SAPS  H17X 1724   6.120   3.331   8.207  0.2684 -1.4631 -2.3407
   13SAPS  H17Y 1725   6.072   3.499   8.196 -1.2890  1.2532 -0.6897
   13SAPS  C318 1726   6.179   3.425   8.016  1.0300  0.1468  0.5595
   13SAPS  H18X 1727   6.174   3.329   7.960  2.4183 -0.6300  1.7106
   13SAPS  H18Y 1728   6.286   3.424   8.046  1.6354  3.8975 -0.9195
   13SAPS  H18Z 1729   6.142   3.514   7.961  0.3847 -0.9502 -0.8557
   14SAPS     N 1730   6.239   5.526   5.803 -0.0803 -0.0400 -0.8414
   14SAPS   HN1 1731   6.277   5.619   5.828  4.1875 -1.2381 -1.9595
   14SAPS   HN2 1732   6.237   5.457   5.881 -0.3421  0.3583 -0.4934
   14SAPS   HN3 1733   6.310   5.488   5.737  1.6796  0.9735  0.3814
   14SAPS   C12 1734   6.114   5.536   5.733  0.3802  0.0883 -0.2761
   14SAPS  H12A 1735   6.040   5.587   5.793 -1.6899 -1.9645 -0.9392
   14SAPS   C13 1736   6.108   5.615   5.600 -1.0065 -0.3499  0.3143
   14SAPS  O13A 1737   6.222   5.664   5.564  0.1145  0.5759  0.7074
   14SAPS  O13B 1738   6.005   5.637   5.535 -0.3560 -0.8391 -0.9470
   14SAPS   C11 1739   6.055   5.394   5.700 -0.0464  0.7621 -0.3451
   14SAPS  H11A 1740   6.101   5.357   5.606  1.0410  1.3443 -0.0575
   14SAPS  H11B 1741   5.947   5.412   5.684 -0.5691 -0.7320  1.1789
   14SAPS     P 1742   6.055   5.152   5.810  0.0286  0.4485 -0.0237
   14SAPS   O13 1743   5.941   5.108   5.721  0.2963  0.1170  0.0632
   14SAPS   O14 1744   6.189   5.092   5.784 -0.0673  0.6958 -0.0071
   14SAPS   O12 1745   6.075   5.305   5.811 -0.7925 -0.6635 -0.3150
   14SAPS   O11 1746   6.023   5.117   5.959  0.5561  0.6637  0.4314
   14SAPS    C1 1747   6.051   5.205   6.063  0.2934 -0.4296 -0.5129
   14SAPS    HA 1748   6.159   5.219   6.081  0.2823 -1.2034  0.2408
   14SAPS    HB 1749   6.000   5.303   6.047 -0.3617 -0.8308 -0.9690
   14SAPS    C2 1750   5.987   5.152   6.199 -0.5598  0.3381  0.9386
   14SAPS    HS 1751   5.887   5.116   6.166 -0.1754  1.1415 -1.3250
   14SAPS   O21 1752   5.986   5.248   6.304  0.3464 -0.2748 -0.2926
   14SAPS   C21 1753   5.877   5.324   6.306  0.3155  0.1859 -0.4961
   14SAPS   O22 1754   5.788   5.333   6.220 -0.2414 -0.0991  0.2671
   14SAPS   C22 1755   5.902   5.408   6.433 -0.7546 -0.3488  0.0594
   14SAPS   H2R 1756   5.958   5.350   6.510 -0.2092 -1.3514 -1.0662
   14SAPS   H2S 1757   5.957   5.500   6.403 -0.0272 -0.7779  0.0443
   14SAPS    C3 1758   6.065   5.035   6.266  0.2738  0.8320 -0.3077
   14SAPS    HX 1759   6.168   5.072   6.288  0.5870 -1.1138  1.8134
   14SAPS    HY 1760   6.058   4.954   6.191  0.8697 -1.1036  1.6314
   14SAPS   O31 1761   6.007   4.982   6.389  0.3759 -0.1943  0.0975
   14SAPS   C31 1762   6.076   4.878   6.435  0.3888 -0.5149 -0.4652
   14SAPS   O32 1763   6.181   4.838   6.393 -0.0284 -0.2950 -0.2054
   14SAPS   C32 1764   6.014   4.823   6.562 -0.1404  0.1636 -1.1433
   14SAPS   H2X 1765   5.907   4.801   6.541 -1.3485  1.4689  2.6653
   14SAPS   H2Y 1766   6.005   4.900   6.642 -2.8111  0.1251 -1.3186
   14SAPS   C23 1767   5.778   5.464   6.494 -0.5775 -0.3455 -0.3697
   14SAPS   H3R 1768   5.709   5.387   6.537 -1.3589 -1.0352 -2.6921
   14SAPS   H3S 1769   5.711   5.511   6.419  0.3417  0.7340 -0.5324
   14SAPS   C24 1770   5.804   5.568   6.609  0.1810 -0.3280  0.1813
   14SAPS   H4R 1771   5.712   5.597   6.664  1.2713  0.5669  1.6077
   14SAPS   H4S 1772   5.836   5.666   6.568 -1.0830  0.4818  1.0715
   14SAPS   C25 1773   5.887   5.521   6.726 -0.5017  0.1362  0.9889
   14SAPS   H5R 1774   5.988   5.486   6.703 -0.7256 -0.1192  0.3568
   14SAPS   C26 1775   5.845   5.494   6.852  0.1770 -0.3899  0.5761
   14SAPS   H6R 1776   5.929   5.468   6.919  4.6194 -0.1672 -4.2598
   14SAPS   C27 1777   5.703   5.515   6.902 -0.2141 -0.1703  0.5045
   14SAPS   H7R 1778   5.658   5.614   6.876 -0.6874 -0.1884  1.2276
   14SAPS   H7S 1779   5.720   5.524   7.011  2.3626  1.2261  0.0669
   14SAPS   C28 1780   5.608   5.406   6.864 -0.4400 -0.1646 -0.2723
   14SAPS   H8R 1781   5.573   5.421   6.761  0.7978  0.1752 -0.6697
   14SAPS   C29 1782   5.561   5.308   6.943 -0.7781 -0.2674  0.0146
   14SAPS   H9R 1783   5.493   5.231   6.904 -1.1018  0.6953 -1.3798
   14SAPS  C210 1784   5.596   5.298   7.091  0.1333  0.5227  0.7498
   14SAPS  H10R 1785   5.705   5.276   7.101  0.0836 -0.5494 -0.6220
   14SAPS  H10S 1786   5.543   5.210   7.133 -0.1735  0.0414 -0.5893
   14SAPS  C211 1787   5.556   5.414   7.176 -0.6536  0.3955 -0.1632
   14SAPS  H11R 1788   5.501   5.494   7.124  0.5533  0.9548 -0.6188
   14SAPS  C212 1789   5.572   5.417   7.309 -0.0442 -0.1280  0.5708
   14SAPS  H12R 1790   5.527   5.502   7.364  0.1349 -0.6174  1.5021
   14SAPS  C213 1791   5.641   5.307   7.393 -0.5068 -0.3104  0.0102
   14SAPS  H13R 1792   5.636   5.211   7.338  0.4835 -0.5249  0.2727
   14SAPS  H13S 1793   5.586   5.297   7.490  0.1549 -1.1398  0.3126
   14SAPS  C214 1794   5.788   5.336   7.415  0.2714  0.0038  0.1932
   14SAPS  H14R 1795   5.828   5.431   7.378  0.3364  1.0927  2.8289
   14SAPS  C215 1796   5.880   5.252   7.466 -0.4583 -0.4477 -0.2425
   14SAPS  H15R 1797   5.985   5.283   7.470 -0.5633 -0.0766 -0.3417
   14SAPS  C216 1798   5.842   5.116   7.520 -0.3788 -0.1865 -0.3883
   14SAPS  H16R 1799   5.916   5.039   7.492  0.6164  0.7268 -0.3309
   14SAPS  H16S 1800   5.742   5.081   7.486 -0.1030 -1.9201  0.4722
   14SAPS  C217 1801   5.841   5.110   7.680 -0.4724  0.1368  0.3976
   14SAPS  H17R 1802   5.937   5.133   7.732  0.4436 -1.6720 -0.3721
   14SAPS  H17S 1803   5.822   5.001   7.695  2.3488 -0.7961 -1.7874
   14SAPS  C218 1804   5.731   5.189   7.747 -0.4807  0.4900 -0.7620
   14SAPS  H18R 1805   5.634   5.184   7.693  1.1578 -0.1549 -3.8275
   14SAPS  H18S 1806   5.772   5.292   7.756  2.9174 -0.8759  1.2623
   14SAPS  C219 1807   5.705   5.144   7.893 -0.9326  0.5934 -0.6199
   14SAPS  H19R 1808   5.674   5.037   7.884 -3.1849  1.1501 -0.1140
   14SAPS  H19S 1809   5.613   5.199   7.923 -0.7479  0.0923  0.9037
   14SAPS  C220 1810   5.819   5.168   7.991  0.0566  0.3286  0.3965
   14SAPS  H20R 1811   5.844   5.276   7.990  1.5260  0.0153  0.5182
   14SAPS  H20S 1812   5.915   5.113   7.974 -1.0394 -2.1551  1.7394
   14SAPS  H20T 1813   5.803   5.133   8.095  2.0499 -1.7523  0.0753
   14SAPS   C33 1814   6.079   4.697   6.623  0.2854 -0.1626 -0.3837
   14SAPS   H3X 1815   6.086   4.612   6.551  0.9839 -0.2080 -0.2728
   14SAPS   H3Y 1816   6.006   4.662   6.699 -1.0421 -0.8337 -1.8965
   14SAPS   C34 1817   6.211   4.729   6.695 -0.2293  0.5134  0.2654
   14SAPS   H4X 1818   6.207   4.822   6.756  3.2192 -0.4967  2.3343
   14SAPS   H4Y 1819   6.295   4.743   6.624  0.2745 -3.4481 -0.1296
   14SAPS   C35 1820   6.266   4.609   6.789  0.1883 -0.3104  0.3413
   14SAPS   H5X 1821   6.263   4.513   6.733 -0.9723  0.8949 -1.7703
   14SAPS   H5Y 1822   6.198   4.609   6.877  1.8200  2.0039  1.7207
   14SAPS   C36 1823   6.411   4.625   6.833  0.1214 -0.4649  0.0248
   14SAPS   H6X 1824   6.409   4.718   6.894  0.0851 -1.3634  1.4646
   14SAPS   H6Y 1825   6.495   4.619   6.760 -0.3352  0.3066 -0.5720
   14SAPS   C37 1826   6.451   4.509   6.933  0.5424  0.8904 -0.3757
   14SAPS   H7X 1827   6.362   4.489   6.997  0.6240  0.9136 -0.2547
   14SAPS   H7Y 1828   6.525   4.560   6.998  2.1643  0.8069 -2.0724
   14SAPS   C38 1829   6.479   4.374   6.862  0.6693 -0.1622  0.3423
   14SAPS   H8X 1830   6.555   4.384   6.782 -0.3932 -1.4437 -0.8748
   14SAPS   H8Y 1831   6.382   4.342   6.819 -0.1009 -0.1853  1.9991
   14SAPS   C39 1832   6.534   4.282   6.972  0.1434  0.2673  0.1304
   14SAPS   H9X 1833   6.458   4.251   7.046  1.1968  1.8313  1.9859
   14SAPS   H9Y 1834   6.620   4.322   7.030  1.0515 -3.1193  1.3451
   14SAPS  C310 1835   6.600   4.164   6.903 -0.1609  0.5146 -0.2249
   14SAPS  H10X 1836   6.692   4.199   6.852 -0.0064  1.6489  0.8017
   14SAPS  H10Y 1837   6.520   4.120   6.839  0.7268  1.4448 -2.0305
   14SAPS  C311 1838   6.633   4.055   7.010  0.6447  0.1877  0.5525
   14SAPS  H11X 1839   6.665   3.960   6.962 -4.5060 -1.3311 -0.4241
   14SAPS  H11Y 1840   6.547   4.044   7.079 -0.3493  1.2537 -0.4678
   14SAPS  C312 1841   6.748   4.105   7.102 -0.0560  0.1499 -0.1579
   14SAPS  H12X 1842   6.719   4.189   7.168  1.3009 -1.1291  2.1869
   14SAPS  H12Y 1843   6.826   4.144   7.033 -0.1560  1.0948  0.2394
   14SAPS  C313 1844   6.822   3.988   7.172 -0.1919  0.1078 -0.1760
   14SAPS  H13X 1845   6.899   4.035   7.237  1.3583 -0.7559 -1.3268
   14SAPS  H13Y 1846   6.880   3.924   7.103  0.4139 -1.4261  1.6612
   14SAPS  C314 1847   6.730   3.906   7.267 -0.9604  0.3366 -0.1641
   14SAPS  H14X 1848   6.788   3.828   7.320 -1.1258  0.1727 -0.2261
   14SAPS  H14Y 1849   6.654   3.847   7.211  0.6648 -0.5775 -1.4757
   14SAPS  C315 1850   6.666   3.997   7.379 -0.2840 -0.4761 -0.0869
   14SAPS  H15X 1851   6.612   4.076   7.322  0.7498  0.3048 -0.0066
   14SAPS  H15Y 1852   6.743   4.054   7.436 -1.9873 -1.1196  3.0875
   14SAPS  C316 1853   6.569   3.927   7.475  0.0306  0.2509  0.3654
   14SAPS  H16X 1854   6.519   3.836   7.435  1.8279 -0.1748 -1.0286
   14SAPS  H16Y 1855   6.482   3.996   7.479  0.9605  1.4239  0.7208
   14SAPS  C317 1856   6.624   3.911   7.617  0.5025 -0.0666  0.2949
   14SAPS  H17X 1857   6.653   4.016   7.638  1.4871 -0.1016 -0.7874
   14SAPS  H17Y 1858   6.711   3.842   7.616 -1.0571 -2.1345  0.4135
   14SAPS  C318 1859   6.512   3.868   7.711 -0.6263  0.0056  0.2939
   14SAPS  H18X 1860   6.487   3.760   7.698 -2.9829  0.8032 -3.0306
   14SAPS  H18Y 1861   6.419   3.919   7.679 -1.7982 -3.0880 -1.6798
   14SAPS  H18Z 1862   6.531   3.892   7.818 -1.0445  1.8943 -0.0285
   15SAPS     N 1863   0.606   4.309   5.771  0.0812  0.2362 -0.4760
   15SAPS   HN1 1864   0.676   4.334   5.843 -0.6398 -0.8308  0.6163
   15SAPS   HN2 1865   0.646   4.313   5.675 -1.1996 -0.0033 -1.0525
   15SAPS   HN3 1866   0.535   4.385   5.779 -1.5030 -1.3362  1.0750
   15SAPS   C12 1867   0.557   4.171   5.811 -0.2861  0.0362 -0.5005
   15SAPS  H12A 1868   0.491   4.142   5.731 -0.2343 -1.0898 -0.1410
   15SAPS   C13 1869   0.680   4.072   5.829 -0.1090 -0.5563 -0.2192
   15SAPS  O13A 1870   0.797   4.111   5.836 -0.0106 -0.3939 -0.3540
   15SAPS  O13B 1871   0.652   3.952   5.838 -0.2387 -0.4224 -0.1367
   15SAPS   C11 1872   0.472   4.186   5.943 -0.0282 -0.5770  0.0881
   15SAPS  H11A 1873   0.532   4.227   6.027  0.1963  0.5516 -0.5943
   15SAPS  H11B 1874   0.422   4.091   5.972 -1.6906  0.8430  2.2093
   15SAPS     P 1875   0.219   4.263   5.963 -0.5094  0.3781  0.1632
   15SAPS   O13 1876   0.137   4.379   5.925 -0.0860  0.1221  0.7542
   15SAPS   O14 1877   0.163   4.131   5.923  0.5707  0.4316  0.3183
   15SAPS   O12 1878   0.368   4.281   5.910  0.3872 -1.1620  0.0774
   15SAPS   O11 1879   0.250   4.267   6.117 -0.4477  0.7352 -0.1861
   15SAPS    C1 1880   0.319   4.384   6.162  0.0402 -0.1498 -0.8011
   15SAPS    HA 1881   0.428   4.379   6.139 -0.1175 -0.3682 -1.5447
   15SAPS    HB 1882   0.271   4.470   6.111 -0.6131 -1.2363 -2.0900
   15SAPS    C2 1883   0.302   4.405   6.318  0.0637 -0.1095 -0.4098
   15SAPS    HS 1884   0.331   4.507   6.351  0.8434 -0.8047  1.1558
   15SAPS   O21 1885   0.378   4.309   6.389 -0.3583 -0.2986  0.0387
   15SAPS   C21 1886   0.507   4.340   6.396  0.1178 -0.2123  0.9263
   15SAPS   O22 1887   0.556   4.443   6.358 -0.2126  0.2053 -1.0949
   15SAPS   C22 1888   0.574   4.218   6.463  1.2112 -0.1235  0.2541
   15SAPS   H2R 1889   0.535   4.125   6.418 -1.0066  0.2484  1.2966
   15SAPS   H2S 1890   0.681   4.235   6.437  1.4836 -2.4993 -0.3402
   15SAPS    C3 1891   0.155   4.383   6.359 -0.2624  0.1083  0.4468
   15SAPS    HX 1892   0.127   4.277   6.340  1.7505 -0.1312 -1.5753
   15SAPS    HY 1893   0.099   4.442   6.283  0.4954 -0.2947 -0.4526
   15SAPS   O31 1894   0.118   4.434   6.488  0.3378 -0.4219 -0.2030
   15SAPS   C31 1895   0.096   4.348   6.588 -0.2331  0.8312  0.0928
   15SAPS   O32 1896   0.080   4.225   6.574 -0.7670 -0.5003  0.4316
   15SAPS   C32 1897   0.065   4.435   6.711 -0.4566  0.4055  0.5380
   15SAPS   H2X 1898  -0.043   4.463   6.705 -0.5392  0.7137  2.6899
   15SAPS   H2Y 1899   0.123   4.529   6.712 -0.2127  0.2649 -0.1601
   15SAPS   C23 1900   0.553   4.205   6.613  0.0154 -0.5053  0.6514
   15SAPS   H3R 1901   0.585   4.105   6.648 -0.8357 -0.6068  1.1522
   15SAPS   H3S 1902   0.446   4.212   6.640  0.5203 -0.3748  2.7421
   15SAPS   C24 1903   0.633   4.318   6.680 -0.4566  0.0415 -0.0901
   15SAPS   H4R 1904   0.584   4.331   6.779 -0.2572 -0.2730  0.0519
   15SAPS   H4S 1905   0.616   4.418   6.637  0.1568  0.8177  1.4048
   15SAPS   C25 1906   0.779   4.284   6.699 -0.8699  0.5730 -0.5212
   15SAPS   H5R 1907   0.834   4.264   6.606 -0.1127  0.9956 -0.1723
   15SAPS   C26 1908   0.849   4.287   6.815  0.2825 -0.4197  0.2730
   15SAPS   H6R 1909   0.955   4.258   6.817  0.6902  0.2688 -3.7060
   15SAPS   C27 1910   0.799   4.332   6.953  0.9270  0.6458 -0.0309
   15SAPS   H7R 1911   0.744   4.241   6.985  1.0659  0.0438 -1.4144
   15SAPS   H7S 1912   0.715   4.404   6.943 -0.0610 -0.6462 -1.6067
   15SAPS   C28 1913   0.912   4.368   7.043 -0.6585 -0.1085 -0.4027
   15SAPS   H8R 1914   1.008   4.394   6.995  0.1865 -2.7990 -0.3478
   15SAPS   C29 1915   0.906   4.367   7.177 -1.1797  0.2466 -0.4332
   15SAPS   H9R 1916   0.993   4.414   7.226 -0.4216  0.5717 -2.0129
   15SAPS  C210 1917   0.794   4.339   7.269  0.0023 -0.2395  0.3503
   15SAPS  H10R 1918   0.841   4.318   7.368 -0.5283 -2.8878  0.1213
   15SAPS  H10S 1919   0.753   4.237   7.249  2.7822 -1.1929 -1.0350
   15SAPS  C211 1920   0.676   4.439   7.272  0.0868  1.3246  0.1146
   15SAPS  H11R 1921   0.617   4.448   7.180 -1.3640 -2.2020  0.5392
   15SAPS  C212 1922   0.628   4.492   7.390  0.2693 -0.9420 -0.1856
   15SAPS  H12R 1923   0.535   4.549   7.404  0.2970 -1.4416  2.6341
   15SAPS  C213 1924   0.687   4.465   7.527 -0.2208 -0.6105  0.0121
   15SAPS  H13R 1925   0.670   4.556   7.589  0.9771 -0.3886  0.0437
   15SAPS  H13S 1926   0.798   4.464   7.535 -0.1641 -0.8838 -0.7087
   15SAPS  C214 1927   0.642   4.338   7.591 -0.4273 -0.2366  0.3043
   15SAPS  H14R 1928   0.641   4.245   7.533 -1.6303 -0.3336  0.4632
   15SAPS  C215 1929   0.585   4.315   7.705 -0.5543  0.1382  0.3327
   15SAPS  H15R 1930   0.556   4.217   7.746 -2.5481  1.1474  1.5061
   15SAPS  C216 1931   0.557   4.420   7.810  0.4410  0.4742  0.8241
   15SAPS  H16R 1932   0.459   4.401   7.859  0.7073 -2.5539  0.3479
   15SAPS  H16S 1933   0.560   4.525   7.774  1.5637  0.0636 -0.3902
   15SAPS  C217 1934   0.641   4.414   7.940  0.3633 -0.5268  0.1772
   15SAPS  H17R 1935   0.594   4.343   8.011 -4.1494  2.6152  0.7648
   15SAPS  H17S 1936   0.606   4.503   7.996 -1.5316 -1.2266  0.1843
   15SAPS  C218 1937   0.792   4.394   7.930 -0.5459 -0.2019  0.5513
   15SAPS  H18R 1938   0.828   4.469   7.857  1.7694 -0.4126  1.4130
   15SAPS  H18S 1939   0.814   4.294   7.886 -1.1311 -2.5055  4.9564
   15SAPS  C219 1940   0.875   4.407   8.057 -0.9754  0.0029 -0.1925
   15SAPS  H19R 1941   0.847   4.322   8.124  0.3564 -0.0646  0.2983
   15SAPS  H19S 1942   0.832   4.495   8.110 -3.4185  1.1090 -3.6102
   15SAPS  C220 1943   1.030   4.435   8.054 -0.3526 -0.1390  0.2330
   15SAPS  H20R 1944   1.071   4.353   7.991 -0.9804 -0.1643 -0.1476
   15SAPS  H20S 1945   1.073   4.426   8.156  1.6928  1.1462 -0.4503
   15SAPS  H20T 1946   1.046   4.534   8.005 -0.6896 -0.0383  0.3263
   15SAPS   C33 1947   0.091   4.353   6.834  0.5278  0.0949  0.0811
   15SAPS   H3X 1948   0.025   4.264   6.835 -0.7168  0.9945  0.4268
   15SAPS   H3Y 1949   0.060   4.425   6.913  0.4266  0.5362 -0.3619
   15SAPS   C34 1950   0.241   4.308   6.865  0.5257  0.0729  0.6108
   15SAPS   H4X 1951   0.296   4.404   6.877 -0.0846  1.2354 -3.9007
   15SAPS   H4Y 1952   0.274   4.272   6.765  0.3432  1.3296  0.0695
   15SAPS   C35 1953   0.269   4.196   6.961 -0.2086  0.6108 -1.0947
   15SAPS   H5X 1954   0.194   4.116   6.941 -1.0089  1.2182 -0.6056
   15SAPS   H5Y 1955   0.234   4.233   7.060 -0.4968 -1.3628 -0.4118
   15SAPS   C36 1956   0.411   4.151   6.939 -0.2102 -0.4749 -0.3540
   15SAPS   H6X 1957   0.483   4.236   6.932  1.1620 -1.5998 -0.4578
   15SAPS   H6Y 1958   0.423   4.100   6.841 -1.5122  1.4412 -1.5815
   15SAPS   C37 1959   0.454   4.059   7.060  0.2828 -0.0696  0.4836
   15SAPS   H7X 1960   0.559   4.029   7.043  0.6725  0.9894  0.9400
   15SAPS   H7Y 1961   0.378   3.978   7.060 -0.7055  0.8237 -0.1470
   15SAPS   C38 1962   0.471   4.118   7.202  0.5624 -0.4848  0.2878
   15SAPS   H8X 1963   0.388   4.183   7.237 -1.5186 -1.8289 -1.8703
   15SAPS   H8Y 1964   0.553   4.190   7.183 -1.3792  1.9629  0.5480
   15SAPS   C39 1965   0.521   4.026   7.312 -0.7897  0.4902 -0.1312
   15SAPS   H9X 1966   0.596   4.080   7.374  0.4350 -1.5475  0.2528
   15SAPS   H9Y 1967   0.569   3.935   7.270 -2.1419 -0.1138 -0.4302
   15SAPS  C310 1968   0.416   3.969   7.408  0.4260 -0.2593  0.8092
   15SAPS  H10X 1969   0.352   4.053   7.441  1.8406  0.4720  1.7910
   15SAPS  H10Y 1970   0.473   3.933   7.496  0.0232 -1.7944  0.4749
   15SAPS  C311 1971   0.336   3.858   7.340  0.3299  0.5813  0.2450
   15SAPS  H11X 1972   0.390   3.761   7.339 -1.3968 -0.4194 -0.5225
   15SAPS  H11Y 1973   0.309   3.884   7.235 -0.4978 -0.6678  0.1257
   15SAPS  C312 1974   0.208   3.825   7.413  0.4924  0.1309 -0.6860
   15SAPS  H12X 1975   0.142   3.760   7.353  0.2028 -1.8553  1.6206
   15SAPS  H12Y 1976   0.148   3.915   7.441 -1.5834 -1.5409  0.5320
   15SAPS  C313 1977   0.235   3.753   7.545 -0.5082  0.0368  0.3667
   15SAPS  H13X 1978   0.310   3.810   7.603 -2.7341  0.8411  2.6686
   15SAPS  H13Y 1979   0.280   3.655   7.516 -1.5414 -0.4142  0.2277
   15SAPS  C314 1980   0.106   3.753   7.629  0.1372  0.4494 -0.1053
   15SAPS  H14X 1981   0.027   3.703   7.569  1.8632 -1.1673 -1.1582
   15SAPS  H14Y 1982   0.083   3.857   7.660  4.9814  1.2866  1.4943
   15SAPS  C315 1983   0.126   3.693   7.766 -0.5656  0.5561  0.5582
   15SAPS  H15X 1984   0.225   3.721   7.807 -0.1720 -2.2293  1.7112
   15SAPS  H15Y 1985   0.131   3.582   7.762 -2.5786  0.4150  0.9778
   15SAPS  C316 1986   0.024   3.732   7.868 -0.2125  0.2811  0.2696
   15SAPS  H16X 1987  -0.077   3.694   7.840 -0.5207  1.3739 -0.1604
   15SAPS  H16Y 1988   0.009   3.843   7.869  1.2606  0.5032  2.4954
   15SAPS  C317 1989   0.062   3.684   8.004  0.0836  0.2318  0.2724
   15SAPS  H17X 1990   0.162   3.727   8.024 -0.9705  3.0605 -0.0059
   15SAPS  H17Y 1991   0.072   3.575   8.019  0.4792  0.1622 -0.4598
   15SAPS  C318 1992  -0.026   3.732   8.122 -0.4226 -0.4226 -0.6612
   15SAPS  H18X 1993  -0.030   3.843   8.117 -0.1675 -0.4672 -3.6977
   15SAPS  H18Y 1994   0.029   3.712   8.216  0.3180 -1.3714 -1.2886
   15SAPS  H18Z 1995  -0.126   3.683   8.134  0.3756 -1.4607  3.2974
   16SAPS     N 1996   1.972   5.949   6.455  0.4624  0.1432 -0.3216
   16SAPS   HN1 1997   1.871   5.960   6.477 -0.1926 -1.6856 -2.0617
   16SAPS   HN2 1998   1.975   5.914   6.357  1.2360  2.3618 -1.1598
   16SAPS   HN3 1999   2.009   5.879   6.523  2.5486  1.3646 -0.1255
   16SAPS   C12 2000   2.045   6.082   6.444 -0.5279 -0.1316 -0.7645
   16SAPS  H12A 2001   2.093   6.096   6.540 -1.4511 -1.3469 -0.1062
   16SAPS   C13 2002   2.148   6.087   6.330 -0.4972 -0.5187 -0.2571
   16SAPS  O13A 2003   2.187   5.974   6.276  0.0631 -0.5476 -0.2329
   16SAPS  O13B 2004   2.228   6.184   6.330  0.2605 -0.2269  0.3960
   16SAPS   C11 2005   1.951   6.199   6.437 -0.7860 -0.1494  0.2219
   16SAPS  H11A 2006   1.896   6.198   6.341 -0.6046  1.6066  0.0699
   16SAPS  H11B 2007   2.018   6.288   6.439 -1.5702  0.4472  0.6166
   16SAPS     P 2008   1.824   6.316   6.634  0.0553  0.5224  0.4224
   16SAPS   O13 2009   1.832   6.439   6.558  0.1437 -0.3172 -0.3589
   16SAPS   O14 2010   1.700   6.289   6.704  0.1151 -0.4488  0.2414
   16SAPS   O12 2011   1.852   6.200   6.539 -0.6382  0.0896 -0.1075
   16SAPS   O11 2012   1.952   6.308   6.725 -0.3604  0.0143 -0.4676
   16SAPS    C1 2013   1.944   6.251   6.852 -0.1334  0.1426 -0.7595
   16SAPS    HA 2014   1.852   6.277   6.909  1.5956 -2.3228  3.7224
   16SAPS    HB 2015   1.958   6.141   6.846  2.1771  0.3833 -0.9238
   16SAPS    C2 2016   2.059   6.292   6.960  1.0803  0.4856  0.0865
   16SAPS    HS 2017   2.034   6.243   7.057 -2.4703 -1.2661 -1.5117
   16SAPS   O21 2018   2.059   6.439   6.965 -0.3938 -0.2996 -0.7209
   16SAPS   C21 2019   1.975   6.484   7.057 -0.1935  0.3739 -0.0837
   16SAPS   O22 2020   1.890   6.416   7.116 -0.1385  0.1265  0.2909
   16SAPS   C22 2021   2.004   6.627   7.073  0.5436 -0.5996 -0.3665
   16SAPS   H2R 2022   2.056   6.666   6.983 -3.5767 -0.2441 -2.8402
   16SAPS   H2S 2023   1.915   6.692   7.080  1.1338  0.0620  1.5988
   16SAPS    C3 2024   2.192   6.239   6.919  0.1550 -0.9040  0.1687
   16SAPS    HX 2025   2.269   6.298   6.973 -1.6216  0.4893  1.2888
   16SAPS    HY 2026   2.202   6.267   6.812 -1.3514  0.0963  0.2664
   16SAPS   O31 2027   2.199   6.093   6.927  0.5336 -0.1981 -0.6470
   16SAPS   C31 2028   2.301   6.043   6.998 -0.0794 -0.5745 -0.2398
   16SAPS   O32 2029   2.381   6.112   7.055 -0.0914 -0.1466 -0.1448
   16SAPS   C32 2030   2.311   5.891   6.983  0.0907  0.1514 -0.1030
   16SAPS   H2X 2031   2.323   5.877   6.873 -0.1864  0.7895 -0.2167
   16SAPS   H2Y 2032   2.213   5.847   7.010 -0.4109  1.2614 -0.0585
   16SAPS   C23 2033   2.091   6.646   7.195  0.5836 -0.2428 -0.2611
   16SAPS   H3R 2034   2.156   6.733   7.177 -1.0773  0.9312 -0.8006
   16SAPS   H3S 2035   2.157   6.561   7.223  0.7937 -0.6153 -1.8216
   16SAPS   C24 2036   2.017   6.679   7.323 -0.0960  1.3817  0.4578
   16SAPS   H4R 2037   2.094   6.671   7.403  1.1416  0.5202 -0.7596
   16SAPS   H4S 2038   1.946   6.595   7.338 -0.0047  1.0473 -0.8362
   16SAPS   C25 2039   1.942   6.807   7.331 -0.1920 -0.1697  0.0753
   16SAPS   H5R 2040   1.942   6.874   7.243  0.8277  2.1706  1.7668
   16SAPS   C26 2041   1.897   6.877   7.434 -0.0380  0.6964 -0.0922
   16SAPS   H6R 2042   1.838   6.968   7.418 -0.6267  0.0832 -1.6307
   16SAPS   C27 2043   1.907   6.834   7.582  0.5635  0.6090  0.5954
   16SAPS   H7R 2044   1.848   6.742   7.600  3.2348 -1.0415  1.5176
   16SAPS   H7S 2045   1.854   6.917   7.632 -1.4913 -0.5555  0.4282
   16SAPS   C28 2046   2.039   6.791   7.644 -0.0788  0.5855  0.3746
   16SAPS   H8R 2047   2.124   6.786   7.574 -0.3562  3.3370 -0.3119
   16SAPS   C29 2048   2.057   6.753   7.771 -0.2509 -0.1028 -0.4145
   16SAPS   H9R 2049   2.153   6.709   7.802 -0.0344  0.0874 -0.8106
   16SAPS  C210 2050   1.949   6.750   7.872  0.0540 -0.2722 -0.3236
   16SAPS  H10R 2051   1.987   6.679   7.948  0.5183 -1.0826 -1.2999
   16SAPS  H10S 2052   1.858   6.702   7.830  2.0199 -2.2277 -2.6093
   16SAPS  C211 2053   1.935   6.885   7.931  0.0900 -0.6566 -0.3076
   16SAPS  H11R 2054   1.943   6.961   7.851  1.2109  0.4024  0.7699
   16SAPS  C212 2055   1.927   6.926   8.063  1.3108  0.3997 -0.3094
   16SAPS  H12R 2056   1.921   7.035   8.075  1.1600  0.6043 -1.9580
   16SAPS  C213 2057   1.905   6.833   8.185 -0.1110 -0.1826  0.1244
   16SAPS  H13R 2058   1.970   6.744   8.172 -0.6932 -0.5050 -0.6525
   16SAPS  H13S 2059   1.798   6.802   8.196  0.0121 -0.9546 -0.7233
   16SAPS  C214 2060   1.939   6.889   8.317 -0.7517 -0.6087  0.3371
   16SAPS  H14R 2061   2.029   6.841   8.360 -1.7913 -0.7093  2.5006
   16SAPS  C215 2062   1.864   6.960   8.402  0.6678 -0.5475  0.5370
   16SAPS  H15R 2063   1.898   6.990   8.502  0.2508  1.1321  0.2064
   16SAPS  C216 2064   1.739   7.025   8.358  0.0128 -0.3909 -0.6293
   16SAPS  H16R 2065   1.652   6.960   8.337 -1.0013  0.6777  0.1273
   16SAPS  H16S 2066   1.750   7.077   8.261  3.4438  0.4789  0.0803
   16SAPS  C217 2067   1.684   7.130   8.456 -0.1185  0.8200  0.0846
   16SAPS  H17R 2068   1.595   7.185   8.419 -2.0796 -0.9918  1.8102
   16SAPS  H17S 2069   1.763   7.206   8.473  1.5001 -0.4891 -1.1845
   16SAPS  C218 2070   1.651   7.073   8.594  0.2867  0.0832 -0.3612
   16SAPS  H18R 2071   1.745   7.030   8.635 -0.0951 -1.2471 -0.8322
   16SAPS  H18S 2072   1.579   6.992   8.569  1.5929 -1.6122  1.0535
   16SAPS  C219 2073   1.603   7.194   8.682 -0.1638  0.5529 -0.2420
   16SAPS  H19R 2074   1.515   7.242   8.633  0.3713  2.3465  0.4506
   16SAPS  H19S 2075   1.679   7.273   8.698 -0.6632  1.3583 -1.6460
   16SAPS  C220 2076   1.554   7.144   8.816  0.1075  0.6677 -0.5767
   16SAPS  H20R 2077   1.467   7.082   8.790 -1.1388  2.4280 -0.7698
   16SAPS  H20S 2078   1.506   7.221   8.880 -0.7204 -0.8976  0.7530
   16SAPS  H20T 2079   1.631   7.081   8.866 -0.6601 -1.8907 -2.4229
   16SAPS   C33 2080   2.432   5.826   7.048 -0.5728 -0.0085 -0.0510
   16SAPS   H3X 2081   2.515   5.900   7.042  0.2387 -1.0175 -1.9316
   16SAPS   H3Y 2082   2.447   5.732   6.991 -2.9611 -0.7221  0.3833
   16SAPS   C34 2083   2.402   5.802   7.193 -0.0750 -0.2497 -0.2925
   16SAPS   H4X 2084   2.340   5.710   7.207  0.4039 -0.8268 -1.8069
   16SAPS   H4Y 2085   2.337   5.882   7.234 -0.2536  0.1194 -1.2949
   16SAPS   C35 2086   2.519   5.799   7.285  0.2251  0.2512 -1.2634
   16SAPS   H5X 2087   2.591   5.883   7.271  0.3661  1.1504  3.3355
   16SAPS   H5Y 2088   2.567   5.702   7.264 -1.2116 -1.1236  1.3086
   16SAPS   C36 2089   2.476   5.799   7.427  0.1618  0.1964  0.8943
   16SAPS   H6X 2090   2.404   5.717   7.449 -1.0266  0.5194 -1.5203
   16SAPS   H6Y 2091   2.429   5.894   7.460  0.2220  0.5773 -0.0985
   16SAPS   C37 2092   2.588   5.769   7.522 -0.1385  0.2936  0.0598
   16SAPS   H7X 2093   2.667   5.846   7.528  2.0004 -1.6326 -1.5085
   16SAPS   H7Y 2094   2.635   5.678   7.479 -2.6379  0.0600 -2.5060
   16SAPS   C38 2095   2.550   5.728   7.660  0.1740  0.5584 -0.0130
   16SAPS   H8X 2096   2.494   5.632   7.659 -0.7253  1.0719  0.2909
   16SAPS   H8Y 2097   2.482   5.809   7.694 -1.8933 -0.7733 -0.7295
   16SAPS   C39 2098   2.675   5.722   7.744 -0.4398 -1.1597  0.0769
   16SAPS   H9X 2099   2.735   5.814   7.728 -2.5720  0.4163  0.6243
   16SAPS   H9Y 2100   2.734   5.631   7.718  0.5343 -1.4642  2.9529
   16SAPS  C310 2101   2.642   5.711   7.895  0.0755 -0.7174 -0.2335
   16SAPS  H10X 2102   2.562   5.636   7.910 -1.8477  1.3105  0.2005
   16SAPS  H10Y 2103   2.596   5.806   7.930 -0.5505 -0.9816 -0.3385
   16SAPS  C311 2104   2.770   5.680   7.971 -1.3167  0.5690 -0.4219
   16SAPS  H11X 2105   2.846   5.760   7.958  1.1011 -1.7255 -1.3524
   16SAPS  H11Y 2106   2.808   5.579   7.945 -1.8308 -0.0772  1.2160
   16SAPS  C312 2107   2.726   5.663   8.113  0.2655  0.4480  0.5434
   16SAPS  H12X 2108   2.674   5.566   8.131  2.8028 -0.8100  1.7572
   16SAPS  H12Y 2109   2.652   5.743   8.136 -0.0207  0.8693 -1.6664
   16SAPS  C313 2110   2.840   5.668   8.216  0.5579  0.5062 -0.4054
   16SAPS  H13X 2111   2.797   5.681   8.318  1.2659  3.4368 -0.4027
   16SAPS  H13Y 2112   2.901   5.760   8.209  0.5819  0.4446 -1.0011
   16SAPS  C314 2113   2.927   5.536   8.213 -0.6779 -0.8923 -0.1215
   16SAPS  H14X 2114   2.977   5.522   8.115  0.6368  2.1164 -0.0054
   16SAPS  H14Y 2115   2.859   5.452   8.239 -1.5203 -0.3337 -0.4984
   16SAPS  C315 2116   3.041   5.563   8.310  0.4287 -0.6407 -0.2732
   16SAPS  H15X 2117   2.994   5.548   8.410 -1.3336  1.0238 -0.7905
   16SAPS  H15Y 2118   3.078   5.668   8.304  0.6072 -0.7786 -2.3273
   16SAPS  C316 2119   3.162   5.474   8.300 -0.0963 -0.1275  0.4596
   16SAPS  H16X 2120   3.222   5.492   8.209 -0.6088 -2.7287 -0.4671
   16SAPS  H16Y 2121   3.116   5.374   8.285  2.0322 -0.9553 -1.0409
   16SAPS  C317 2122   3.238   5.483   8.431  0.1396  0.0736 -0.4049
   16SAPS  H17X 2123   3.180   5.462   8.524  0.0602 -2.4660 -0.9660
   16SAPS  H17Y 2124   3.278   5.586   8.439  0.2033  0.1139 -1.1936
   16SAPS  C318 2125   3.364   5.393   8.434 -0.2533  0.1478  0.6422
   16SAPS  H18X 2126   3.422   5.409   8.528 -0.1770 -0.9226  0.7845
   16SAPS  H18Y 2127   3.433   5.421   8.352 -1.5779  0.7680 -0.2885
   16SAPS  H18Z 2128   3.346   5.285   8.415  0.7959  0.0947 -0.1011
   17SAPC     N 2129   6.457   4.849  10.385  0.6211 -0.6690 -0.3877
   17SAPC   C12 2130   6.311   4.875  10.353  0.0748  0.3325  0.3018
   17SAPC  H12A 2131   6.309   4.912  10.251  0.7620 -0.0713  0.1311
   17SAPC  H12B 2132   6.279   4.951  10.423 -0.7225  0.6381 -0.3736
   17SAPC   C13 2133   6.467   4.804  10.528  0.0949  0.1157  0.1734
   17SAPC  H13A 2134   6.445   4.699  10.532  1.7779 -0.3085 -0.7100
   17SAPC  H13B 2135   6.563   4.823  10.573 -0.1201  2.7423 -0.2920
   17SAPC  H13C 2136   6.386   4.853  10.581  0.4924  0.6175  0.3244
   17SAPC   C14 2137   6.500   4.749  10.283 -0.5976 -0.2364  0.7777
   17SAPC  H14A 2138   6.604   4.722  10.294 -0.5562 -1.3340 -1.5839
   17SAPC  H14B 2139   6.442   4.659  10.295  0.1966 -1.2322 -2.0973
   17SAPC  H14C 2140   6.478   4.784  10.183 -0.9244 -1.1010  0.5369
   17SAPC   C15 2141   6.517   4.983  10.372  0.6130  0.1944 -0.2384
   17SAPC  H15A 2142   6.481   5.040  10.457  1.0569  1.0345 -0.5973
   17SAPC  H15B 2143   6.621   4.964  10.395  0.8577 -2.2862 -2.8732
   17SAPC  H15C 2144   6.494   5.020  10.273  0.5390  0.0026 -0.2933
   17SAPC   C11 2145   6.212   4.759  10.356 -0.1746 -0.0523 -0.7198
   17SAPC  H11A 2146   6.109   4.800  10.352 -0.6653 -1.2082 -0.3301
   17SAPC  H11B 2147   6.225   4.713  10.456  0.4669  0.8379 -0.3690
   17SAPC     P 2148   6.197   4.515  10.256  0.1448 -0.0012  0.3453
   17SAPC   O13 2149   6.337   4.459  10.256  0.5375 -0.1923 -0.1251
   17SAPC   O14 2150   6.115   4.494  10.379 -0.7377 -0.1720 -0.4684
   17SAPC   O12 2151   6.227   4.676  10.241  0.3003 -0.0034  0.2865
   17SAPC   O11 2152   6.128   4.481  10.119  0.6513 -0.1549  0.5166
   17SAPC    C1 2153   6.159   4.540   9.996  0.5315  0.4185 -0.2300
   17SAPC    HA 2154   6.083   4.512   9.920  1.8709 -0.4588 -1.2919
   17SAPC    HB 2155   6.167   4.651   9.998  1.6541  0.3661 -0.7751
   17SAPC    C2 2156   6.293   4.492   9.935 -0.1034 -0.6601 -0.4713
   17SAPC    HS 2157   6.379   4.537   9.989  1.3187  0.2034 -3.2575
   17SAPC   O21 2158   6.297   4.530   9.791  0.0468  0.4201 -0.1150
   17SAPC   C21 2159   6.320   4.659   9.776 -1.1801 -0.2451 -0.9176
   17SAPC   O22 2160   6.345   4.733   9.872 -0.1550 -0.2918 -0.3380
   17SAPC   C22 2161   6.297   4.707   9.632  0.5592 -0.1910 -0.1890
   17SAPC   H2R 2162   6.254   4.809   9.639 -2.8875 -1.4973 -0.3577
   17SAPC   H2S 2163   6.392   4.714   9.575  0.2172 -0.4670 -0.8136
   17SAPC    C3 2164   6.309   4.344   9.946 -0.2689  0.8501 -0.2482
   17SAPC    HX 2165   6.207   4.300   9.942 -1.1621  2.4476  2.3946
   17SAPC    HY 2166   6.338   4.318  10.050  0.6857  0.7127 -0.5395
   17SAPC   O31 2167   6.387   4.272   9.845 -0.0761 -0.0934 -0.6217
   17SAPC   C31 2168   6.514   4.278   9.863 -0.3182  0.4280 -0.0327
   17SAPC   O32 2169   6.568   4.346   9.955 -0.2578 -0.1938  0.0274
   17SAPC   C32 2170   6.588   4.177   9.775  0.8324 -0.5454 -0.5848
   17SAPC   H2X 2171   6.530   4.084   9.759  1.2905 -0.5905 -2.1190
   17SAPC   H2Y 2172   6.687   4.158   9.822  1.0197  1.5723 -0.0355
   17SAPC   C23 2173   6.198   4.625   9.549  0.3037  0.8119 -0.7365
   17SAPC   H3R 2174   6.100   4.626   9.602  0.3528 -2.1838 -0.4201
   17SAPC   H3S 2175   6.228   4.518   9.560  2.9303  1.5062 -0.5858
   17SAPC   C24 2176   6.190   4.670   9.408  0.5718 -0.1240  0.3946
   17SAPC   H4R 2177   6.150   4.773   9.405  0.2406 -0.1920  1.7458
   17SAPC   H4S 2178   6.109   4.608   9.364 -0.4124  0.0275  1.9017
   17SAPC   C25 2179   6.315   4.657   9.325 -0.4559  1.0806  0.0562
   17SAPC   H5R 2180   6.409   4.697   9.365  0.2765 -0.2210 -0.2976
   17SAPC   C26 2181   6.322   4.581   9.214 -0.0072  0.2821  0.1305
   17SAPC   H6R 2182   6.425   4.562   9.178  0.3144 -1.0912  1.6319
   17SAPC   C27 2183   6.214   4.501   9.150 -0.1759  0.3525  0.1889
   17SAPC   H7R 2184   6.124   4.565   9.152 -2.1698 -2.2695  0.3338
   17SAPC   H7S 2185   6.184   4.419   9.220  2.3318 -0.0123  0.9572
   17SAPC   C28 2186   6.260   4.455   9.009 -0.3101  0.0096 -0.7108
   17SAPC   H8R 2187   6.308   4.357   9.019 -1.9170 -0.6302  1.5596
   17SAPC   C29 2188   6.240   4.517   8.891 -1.1408 -0.6113  0.2523
   17SAPC   H9R 2189   6.282   4.469   8.802 -1.2503  0.1619 -0.2267
   17SAPC  C210 2190   6.177   4.650   8.869 -0.6486  0.3021 -0.4880
   17SAPC  H10R 2191   6.163   4.714   8.958 -1.6812 -0.2593 -0.2286
   17SAPC  H10S 2192   6.074   4.649   8.827 -0.3092  0.8472 -1.3758
   17SAPC  C211 2193   6.270   4.724   8.771 -0.4910  0.3323  0.0128
   17SAPC  H11R 2194   6.377   4.721   8.793 -0.5710  4.4084  1.6552
   17SAPC  C212 2195   6.228   4.799   8.663 -0.4792  0.1687 -0.7098
   17SAPC  H12R 2196   6.302   4.830   8.588 -0.6035 -1.1713 -1.4223
   17SAPC  C213 2197   6.083   4.820   8.629  0.1102 -0.3987  1.0206
   17SAPC  H13R 2198   6.076   4.917   8.576 -0.1276 -0.8552  0.1932
   17SAPC  H13S 2199   6.021   4.825   8.721 -1.7356  1.1077 -0.2106
   17SAPC  C214 2200   6.028   4.713   8.539 -0.0041 -0.1455  0.0345
   17SAPC  H14R 2201   5.963   4.637   8.585  0.8216 -0.4487  0.7520
   17SAPC  C215 2202   6.057   4.703   8.411  0.1111 -0.0503 -0.0647
   17SAPC  H15R 2203   6.008   4.624   8.351 -0.9776  1.0193 -0.6463
   17SAPC  C216 2204   6.150   4.785   8.327 -0.1369  0.1186  0.8839
   17SAPC  H16R 2205   6.203   4.866   8.380 -0.8333  2.9886 -2.4036
   17SAPC  H16S 2206   6.085   4.835   8.251 -0.6897 -0.5077  0.9314
   17SAPC  C217 2207   6.259   4.692   8.259  0.4620  0.1165 -0.2325
   17SAPC  H17R 2208   6.202   4.638   8.181  0.9557 -0.1889 -0.3894
   17SAPC  H17S 2209   6.301   4.628   8.340  0.7290  1.0081  0.3543
   17SAPC  C218 2210   6.369   4.762   8.192  0.3864 -0.2120  0.1617
   17SAPC  H18R 2211   6.415   4.847   8.245  1.6867  0.9760 -2.6402
   17SAPC  H18S 2212   6.324   4.813   8.103 -0.6952 -2.4043 -0.6284
   17SAPC  C219 2213   6.482   4.668   8.134 -0.2856 -0.2253 -0.3571
   17SAPC  H19R 2214   6.557   4.716   8.067  1.8419 -4.0946 -1.0562
   17SAPC  H19S 2215   6.427   4.597   8.068 -1.0198  0.1360 -0.1414
   17SAPC  C220 2216   6.571   4.604   8.236 -0.2861 -0.1031  0.1470
   17SAPC  H20R 2217   6.626   4.673   8.303  1.0897 -0.4724 -0.5721
   17SAPC  H20S 2218   6.643   4.527   8.203 -1.1496 -1.6535  1.7048
   17SAPC  H20T 2219   6.506   4.537   8.297  0.1298 -0.8214 -0.1863
   17SAPC   C33 2220   6.597   4.243   9.637  0.4997 -0.6511  0.8487
   17SAPC   H3X 2221   6.626   4.159   9.570 -0.1214 -2.3210  2.5930
   17SAPC   H3Y 2222   6.677   4.321   9.639 -0.3835  0.3070 -0.0321
   17SAPC   C34 2223   6.470   4.297   9.568 -0.1770  1.5084  0.1861
   17SAPC   H4X 2224   6.432   4.385   9.625 -1.2724  0.9514  0.3370
   17SAPC   H4Y 2225   6.393   4.218   9.562  2.4342 -1.2476  0.6535
   17SAPC   C35 2226   6.505   4.343   9.427  0.0418  0.1063  0.2971
   17SAPC   H5X 2227   6.595   4.407   9.423 -0.5399  0.8999 -0.4203
   17SAPC   H5Y 2228   6.421   4.402   9.384 -0.3088 -0.7588 -0.2578
   17SAPC   C36 2229   6.517   4.232   9.322  0.6468  0.0915 -0.6219
   17SAPC   H6X 2230   6.427   4.168   9.314  0.9624 -0.6421  1.2809
   17SAPC   H6Y 2231   6.597   4.166   9.361 -2.0267 -2.0644  1.6584
   17SAPC   C37 2232   6.563   4.291   9.193  0.6815  0.4553  0.6223
   17SAPC   H7X 2233   6.666   4.333   9.207  0.9962 -0.4012  0.9366
   17SAPC   H7Y 2234   6.497   4.368   9.147 -0.8539 -0.5319  1.1045
   17SAPC   C38 2235   6.586   4.173   9.090 -0.4670 -0.0796 -0.3872
   17SAPC   H8X 2236   6.497   4.108   9.075  0.7211 -1.8232 -0.2731
   17SAPC   H8Y 2237   6.668   4.107   9.126 -0.7737  0.1217  0.7142
   17SAPC   C39 2238   6.649   4.222   8.955  0.1815 -0.0881 -0.6074
   17SAPC   H9X 2239   6.710   4.140   8.913 -0.5074  0.2664 -2.3855
   17SAPC   H9Y 2240   6.710   4.312   8.978 -0.1472  0.0115 -0.1014
   17SAPC  C310 2241   6.545   4.260   8.849  0.4369  0.3642  0.2499
   17SAPC  H10X 2242   6.478   4.343   8.883 -1.4834 -0.4297 -1.3606
   17SAPC  H10Y 2243   6.474   4.175   8.837  0.7609  0.2927 -1.3393
   17SAPC  C311 2244   6.610   4.300   8.716 -0.1506 -0.3862  0.4465
   17SAPC  H11X 2245   6.681   4.221   8.683 -0.9760 -0.7480 -0.5083
   17SAPC  H11Y 2246   6.674   4.390   8.728  1.1601 -1.4429  1.8156
   17SAPC  C312 2247   6.514   4.303   8.602  0.4630 -0.3081 -0.4481
   17SAPC  H12X 2248   6.568   4.340   8.513 -0.0283  1.2918 -0.1130
   17SAPC  H12Y 2249   6.438   4.383   8.613  1.3917  0.5367  0.0157
   17SAPC  C313 2250   6.447   4.171   8.566  0.2104  0.5088 -0.3358
   17SAPC  H13X 2251   6.380   4.151   8.652 -2.8207  1.2874 -2.3598
   17SAPC  H13Y 2252   6.531   4.100   8.548  1.2990  1.6103  0.3213
   17SAPC  C314 2253   6.358   4.181   8.435  0.2988 -0.4292 -0.5136
   17SAPC  H14X 2254   6.268   4.241   8.464 -0.0036 -0.7443 -0.7989
   17SAPC  H14Y 2255   6.318   4.078   8.427 -2.2887  0.5459 -1.3882
   17SAPC  C315 2256   6.415   4.226   8.305 -0.5015  0.3901  0.0791
   17SAPC  H15X 2257   6.432   4.336   8.294 -2.2229  0.6408 -0.3733
   17SAPC  H15Y 2258   6.333   4.205   8.232 -0.3342  0.8871 -0.2611
   17SAPC  C316 2259   6.550   4.163   8.262 -0.0571 -0.1354  0.0392
   17SAPC  H16X 2260   6.530   4.055   8.279 -2.6949  0.3504  0.6159
   17SAPC  H16Y 2261   6.642   4.199   8.314 -1.1134 -0.8548  2.5907
   17SAPC  C317 2262   6.567   4.196   8.116  0.1939 -0.4529  0.1586
   17SAPC  H17X 2263   6.587   4.305   8.122 -0.0200 -0.4542  1.1658
   17SAPC  H17Y 2264   6.470   4.191   8.063  0.3994 -2.5301 -0.1130
   17SAPC  C318 2265   6.662   4.109   8.036  1.0585 -0.4322  0.2194
   17SAPC  H18X 2266   6.765   4.121   8.074  1.4017 -1.7233 -0.2468
   17SAPC  H18Y 2267   6.627   4.004   8.045 -1.7229  0.2693 -1.0901
   17SAPC  H18Z 2268   6.666   4.128   7.926 -2.1645  0.0321  0.0887
   18SAPC     N 2269   0.240   3.992  10.540 -0.0710  0.9301 -0.1801
   18SAPC   C12 2270   0.148   3.955  10.421  0.7143  1.1054  0.5333
   18SAPC  H12A 2271   0.157   4.036  10.350  0.0216  0.6876 -0.0427
   18SAPC  H12B 2272   0.042   3.957  10.445  0.3752  1.0534 -0.8792
   18SAPC   C13 2273   0.229   3.890  10.653 -0.8246 -0.1283  0.1697
   18SAPC  H13A 2274   0.309   3.905  10.724 -0.7853  3.2867 -0.3939
   18SAPC  H13B 2275   0.136   3.907  10.706  0.0162  0.3705  1.5486
   18SAPC  H13C 2276   0.225   3.788  10.619  1.6058  0.4231 -2.0382
   18SAPC   C14 2277   0.383   3.989  10.499  0.3489 -0.5402 -0.1110
   18SAPC  H14A 2278   0.391   4.054  10.413 -0.0284 -0.0599  0.2191
   18SAPC  H14B 2279   0.449   4.031  10.573 -2.3258  1.2529  1.3980
   18SAPC  H14C 2280   0.411   3.890  10.465  1.5052 -1.0171  2.0501
   18SAPC   C15 2281   0.203   4.121  10.587 -0.1778 -0.5406 -0.7691
   18SAPC  H15A 2282   0.270   4.145  10.669  0.2632  1.3944 -1.6284
   18SAPC  H15B 2283   0.210   4.202  10.516 -0.8802  0.2513  0.0420
   18SAPC  H15C 2284   0.101   4.123  10.620 -0.2817  2.9950 -0.9047
   18SAPC   C11 2285   0.156   3.807  10.359 -0.2995 -0.0428  0.4223
   18SAPC  H11A 2286   0.262   3.790  10.329 -0.6633 -0.5335 -0.6414
   18SAPC  H11B 2287   0.093   3.811  10.267 -0.8781 -0.9395  0.7715
   18SAPC     P 2288  -0.043   3.668  10.450 -0.4175 -0.2471  0.2760
   18SAPC   O13 2289  -0.081   3.570  10.559  0.2099 -0.1056  0.5731
   18SAPC   O14 2290  -0.130   3.787  10.444 -0.0719  0.0183  0.2950
   18SAPC   O12 2291   0.115   3.709  10.453 -0.2076  0.3095 -0.6407
   18SAPC   O11 2292  -0.063   3.599  10.307  0.7433 -0.5187 -0.1670
   18SAPC    C1 2293   0.034   3.517  10.243  0.1241  0.2102  1.0487
   18SAPC    HA 2294   0.139   3.550  10.262  1.1547 -1.5071 -1.1736
   18SAPC    HB 2295   0.015   3.411  10.271  0.9749 -0.6927 -1.4582
   18SAPC    C2 2296   0.019   3.526  10.084 -0.5371 -0.2991 -0.0668
   18SAPC    HS 2297   0.086   3.454  10.032  2.5219  1.9522  0.4910
   18SAPC   O21 2298   0.046   3.662  10.036  0.0526  0.5355  0.8006
   18SAPC   C21 2299   0.181   3.680  10.030 -0.1461 -0.1075 -0.3114
   18SAPC   O22 2300   0.260   3.593  10.058 -0.2007  0.3465  0.2484
   18SAPC   C22 2301   0.216   3.822   9.998 -0.1218  0.5717 -0.7869
   18SAPC   H2R 2302   0.198   3.885  10.087 -0.7603 -1.0320  0.2667
   18SAPC   H2S 2303   0.326   3.826   9.983  0.0032  0.6458  0.0873
   18SAPC    C3 2304  -0.129   3.492  10.043  0.2280  0.0507  0.0472
   18SAPC    HX 2305  -0.186   3.584  10.069 -0.3509 -0.1943 -0.3258
   18SAPC    HY 2306  -0.153   3.406  10.109  3.2038  1.2370  2.9548
   18SAPC   O31 2307  -0.140   3.457   9.905 -0.1537 -0.8988 -0.1747
   18SAPC   C31 2308  -0.261   3.419   9.867 -0.3070 -0.4843  0.0756
   18SAPC   O32 2309  -0.357   3.401   9.936 -0.2285  0.5346 -0.7009
   18SAPC   C32 2310  -0.256   3.408   9.714  0.4766  0.0644  0.1608
   18SAPC   H2X 2311  -0.244   3.299   9.695  1.1600  0.0831  0.4663
   18SAPC   H2Y 2312  -0.164   3.460   9.680  0.3318  0.3498  0.2045
   18SAPC   C23 2313   0.142   3.883   9.874  0.0366  0.4989 -0.4372
   18SAPC   H3R 2314   0.175   3.989   9.872  2.9059 -0.1305  2.8042
   18SAPC   H3S 2315   0.033   3.880   9.896  0.6094  0.5246  2.9176
   18SAPC   C24 2316   0.165   3.808   9.744 -0.2036  0.1862 -0.2596
   18SAPC   H4R 2317   0.127   3.704   9.753  0.0549  0.1583  0.5757
   18SAPC   H4S 2318   0.273   3.803   9.721  0.2785 -0.8881  1.9628
   18SAPC   C25 2319   0.087   3.882   9.643  0.3484  0.5657  0.1480
   18SAPC   H5R 2320   0.145   3.966   9.601  2.7898 -1.3594 -0.6090
   18SAPC   C26 2321  -0.029   3.845   9.598 -0.3380 -0.5162 -0.7543
   18SAPC   H6R 2322  -0.073   3.913   9.523 -0.6864 -0.1702 -0.2382
   18SAPC   C27 2323  -0.122   3.736   9.639 -0.0685 -0.1113 -0.1386
   18SAPC   H7R 2324  -0.068   3.657   9.694 -0.5336 -1.1106 -1.0948
   18SAPC   H7S 2325  -0.162   3.683   9.550 -1.4459  1.5469 -0.5849
   18SAPC   C28 2326  -0.231   3.774   9.738  1.1107  0.7854 -0.6317
   18SAPC   H8R 2327  -0.208   3.777   9.845 -0.7891  1.6430 -0.2044
   18SAPC   C29 2328  -0.360   3.812   9.700 -0.0751  0.0310  0.0258
   18SAPC   H9R 2329  -0.433   3.824   9.782  0.8498 -0.9859  1.0345
   18SAPC  C210 2330  -0.414   3.832   9.562  0.1952 -0.1097  0.3338
   18SAPC  H10R 2331  -0.364   3.765   9.488  1.5343 -0.7543  1.7828
   18SAPC  H10S 2332  -0.383   3.932   9.526 -0.6046  0.5143  1.3564
   18SAPC  C211 2333  -0.561   3.829   9.554  0.0626  0.3227 -0.0878
   18SAPC  H11R 2334  -0.607   3.826   9.653  2.0422  0.0698  0.8644
   18SAPC  C212 2335  -0.637   3.850   9.445 -0.5613 -0.0217 -0.5003
   18SAPC  H12R 2336  -0.745   3.835   9.457 -0.2107 -1.4144  1.3456
   18SAPC  C213 2337  -0.580   3.874   9.308  0.3392 -0.5587 -0.2034
   18SAPC  H13R 2338  -0.592   3.780   9.250 -1.0502 -1.4641  1.4749
   18SAPC  H13S 2339  -0.470   3.889   9.315  0.2896  0.7516 -1.6796
   18SAPC  C214 2340  -0.645   3.992   9.241  0.0893 -0.3634  0.2092
   18SAPC  H14R 2341  -0.595   4.090   9.244  2.0721 -1.1823 -2.1547
   18SAPC  C215 2342  -0.759   3.983   9.176  0.1722 -0.6868  0.4857
   18SAPC  H15R 2343  -0.788   4.064   9.107  0.3472 -0.0871  1.1050
   18SAPC  C216 2344  -0.858   3.865   9.174 -0.4396  0.5591 -0.3812
   18SAPC  H16R 2345  -0.938   3.875   9.251 -0.5560 -2.1079 -0.0610
   18SAPC  H16S 2346  -0.793   3.777   9.191  1.8261  1.6288 -2.7863
   18SAPC  C217 2347  -0.932   3.837   9.043  0.3629 -0.2701 -0.0689
   18SAPC  H17R 2348  -1.007   3.917   9.026 -3.4340 -3.7533 -1.2983
   18SAPC  H17S 2349  -0.987   3.741   9.042 -1.1374  0.4868 -3.1506
   18SAPC  C218 2350  -0.833   3.831   8.925  0.7089 -0.0581  0.2162
   18SAPC  H18R 2351  -0.793   3.727   8.925  0.3139 -0.2344 -1.2308
   18SAPC  H18S 2352  -0.742   3.893   8.941  0.9811 -1.0220  3.0296
   18SAPC  C219 2353  -0.900   3.856   8.793  0.4543  0.3949  0.1573
   18SAPC  H19R 2354  -0.968   3.942   8.807  1.9837  1.1749  3.9807
   18SAPC  H19S 2355  -0.970   3.775   8.763 -0.1107  1.3465 -1.1897
   18SAPC  C220 2356  -0.794   3.872   8.680  0.5614  0.8220  0.5835
   18SAPC  H20R 2357  -0.731   3.781   8.678  0.6058  0.8721 -1.2166
   18SAPC  H20S 2358  -0.732   3.963   8.694 -0.4977  1.3670  1.9409
   18SAPC  H20T 2359  -0.841   3.873   8.580 -1.8436 -0.7696  1.5949
   18SAPC   C33 2360  -0.387   3.435   9.634 -0.2439 -0.1332 -0.0771
   18SAPC   H3X 2361  -0.437   3.526   9.674  0.1912 -0.2276  0.7023
   18SAPC   H3Y 2362  -0.455   3.350   9.658 -0.9171  0.0006 -1.4265
   18SAPC   C34 2363  -0.366   3.456   9.481  0.0677 -0.1442  0.9787
   18SAPC   H4X 2364  -0.340   3.563   9.469 -1.5247  0.2511  0.8519
   18SAPC   H4Y 2365  -0.460   3.442   9.422  0.6396  0.9844 -0.2505
   18SAPC   C35 2366  -0.260   3.360   9.410  0.2071 -0.3067 -0.3497
   18SAPC   H5X 2367  -0.298   3.256   9.421 -0.8500  0.1364  0.3117
   18SAPC   H5Y 2368  -0.152   3.364   9.437  0.3954 -0.1567 -1.0787
   18SAPC   C36 2369  -0.267   3.383   9.253  0.2818 -0.9301 -0.8699
   18SAPC   H6X 2370  -0.185   3.326   9.205  2.3323  0.9743  0.2083
   18SAPC   H6Y 2371  -0.243   3.490   9.235  0.1036 -0.3463  1.8762
   18SAPC   C37 2372  -0.397   3.355   9.176 -0.3975 -0.4702 -0.0683
   18SAPC   H7X 2373  -0.480   3.427   9.192  2.8393  3.2463  1.7062
   18SAPC   H7Y 2374  -0.427   3.248   9.187  1.1130 -0.8679  0.4279
   18SAPC   C38 2375  -0.365   3.369   9.026 -0.1529  0.9834  0.2277
   18SAPC   H8X 2376  -0.282   3.299   9.001  0.0071  1.2019  0.1468
   18SAPC   H8Y 2377  -0.317   3.465   9.000 -1.6769  2.3958  2.3001
   18SAPC   C39 2378  -0.474   3.336   8.928 -1.4148 -0.7928 -0.1868
   18SAPC   H9X 2379  -0.530   3.432   8.918 -0.5843 -0.4345 -1.8366
   18SAPC   H9Y 2380  -0.540   3.252   8.956 -1.1546 -1.4069 -1.3580
   18SAPC  C310 2381  -0.414   3.306   8.789  0.3419 -0.4684 -1.2461
   18SAPC  H10X 2382  -0.367   3.206   8.802 -0.6100 -0.8272 -0.5279
   18SAPC  H10Y 2383  -0.332   3.380   8.774  2.4125 -2.2484  0.6119
   18SAPC  C311 2384  -0.524   3.294   8.679  0.3106 -0.1357 -0.7016
   18SAPC  H11X 2385  -0.585   3.386   8.667  0.2697 -0.0838 -0.0945
   18SAPC  H11Y 2386  -0.600   3.222   8.717  1.4686 -1.6842 -1.2053
   18SAPC  C312 2387  -0.463   3.247   8.548 -0.0001  0.0513  0.1872
   18SAPC  H12X 2388  -0.416   3.149   8.573  0.4681  0.3014  0.3122
   18SAPC  H12Y 2389  -0.390   3.322   8.511  1.1984 -1.3654 -0.4167
   18SAPC  C313 2390  -0.565   3.217   8.441 -0.0273  0.6917 -0.3371
   18SAPC  H13X 2391  -0.512   3.244   8.347 -0.3702  0.3051 -0.6439
   18SAPC  H13Y 2392  -0.655   3.282   8.437  0.8946  2.0236 -0.0769
   18SAPC  C314 2393  -0.623   3.078   8.442 -0.1465 -0.2215 -0.2659
   18SAPC  H14X 2394  -0.691   3.069   8.529  0.1249  1.2905  0.1383
   18SAPC  H14Y 2395  -0.541   3.005   8.458 -0.0408  0.4656  3.0201
   18SAPC  C315 2396  -0.697   3.050   8.314 -0.0145  0.3476  0.3839
   18SAPC  H15X 2397  -0.626   3.047   8.229 -0.8870 -0.4963 -0.3386
   18SAPC  H15Y 2398  -0.776   3.127   8.300  1.6580  1.6123 -3.3000
   18SAPC  C316 2399  -0.758   2.906   8.321 -0.1442 -0.3670 -0.3166
   18SAPC  H16X 2400  -0.826   2.882   8.405  1.3944 -1.4901  0.6427
   18SAPC  H16Y 2401  -0.672   2.840   8.342 -1.3411 -1.4631  1.3117
   18SAPC  C317 2402  -0.811   2.855   8.184 -0.5453  0.3017  0.1680
   18SAPC  H17X 2403  -0.818   2.744   8.182 -1.4844  0.2452  3.0087
   18SAPC  H17Y 2404  -0.734   2.886   8.110 -1.1726  2.2162  0.2649
   18SAPC  C318 2405  -0.946   2.911   8.124 -1.1175  0.1065 -0.1146
   18SAPC  H18X 2406  -0.946   2.897   8.014  1.4666  2.6061 -0.5671
   18SAPC  H18Y 2407  -0.960   3.018   8.151  0.7179  0.6014 -0.9704
   18SAPC  H18Z 2408  -1.030   2.856   8.171  1.2085 -2.3505  1.4448
   19SAPC     N 2409   4.747   4.990  10.726 -0.8115  0.5242 -0.0958
   19SAPC   C12 2410   4.824   4.863  10.751  0.0752 -0.4290 -0.5343
   19SAPC  H12A 2411   4.787   4.806  10.835  0.5300  0.1081  0.0458
   19SAPC  H12B 2412   4.925   4.891  10.779 -0.1918  0.3562 -0.3319
   19SAPC   C13 2413   4.760   5.070  10.852 -0.1912 -0.0311 -0.2893
   19SAPC  H13A 2414   4.725   5.012  10.937 -1.1331  0.4107 -0.3695
   19SAPC  H13B 2415   4.858   5.102  10.884 -0.2511 -1.4186  1.4602
   19SAPC  H13C 2416   4.697   5.157  10.855  1.6044  1.3201 -0.0914
   19SAPC   C14 2417   4.796   5.065  10.610  0.5624  0.4624 -0.3379
   19SAPC  H14A 2418   4.901   5.087  10.622  1.5512 -2.6164 -1.9999
   19SAPC  H14B 2419   4.792   4.996  10.527 -1.9206 -0.8977  0.7953
   19SAPC  H14C 2420   4.737   5.153  10.590  0.7721  0.6940  0.0692
   19SAPC   C15 2421   4.602   4.965  10.698  0.5532  0.6022 -0.2788
   19SAPC  H15A 2422   4.606   4.915  10.603 -1.1345  1.0577 -0.6187
   19SAPC  H15B 2423   4.547   4.896  10.761 -0.0539  1.7589  0.4878
   19SAPC  H15C 2424   4.544   5.056  10.688 -4.6322 -2.2926 -0.1826
   19SAPC   C11 2425   4.836   4.759  10.639 -0.4190  0.1321  0.7162
   19SAPC  H11A 2426   4.740   4.703  10.642 -0.9006  0.8597 -0.2705
   19SAPC  H11B 2427   4.913   4.689  10.677  0.6283  0.1725 -1.2396
   19SAPC     P 2428   4.794   4.787  10.382 -0.3971  0.1152  0.0525
   19SAPC   O13 2429   4.788   4.637  10.366  0.5397 -0.1781  0.1547
   19SAPC   O14 2430   4.667   4.859  10.378  0.2946 -0.0893 -0.3793
   19SAPC   O12 2431   4.877   4.813  10.512  0.3126 -0.0027 -0.5352
   19SAPC   O11 2432   4.886   4.845  10.269 -0.2541 -0.1021  0.1100
   19SAPC    C1 2433   5.011   4.777  10.239  0.1823  0.5638 -0.4734
   19SAPC    HA 2434   5.058   4.745  10.334 -0.9008  0.6948  0.1150
   19SAPC    HB 2435   5.001   4.689  10.172  0.7895 -0.1160  0.3137
   19SAPC    C2 2436   5.113   4.877  10.189  1.0767  0.3914 -0.4390
   19SAPC    HS 2437   5.127   4.952  10.269 -0.0700  2.5723 -2.1708
   19SAPC   O21 2438   5.057   4.944  10.081 -0.4010 -0.1709 -0.1532
   19SAPC   C21 2439   5.093   5.073  10.071  0.2361  0.2753 -0.0590
   19SAPC   O22 2440   5.168   5.127  10.150  0.0290  0.0127  0.0172
   19SAPC   C22 2441   5.014   5.135   9.965  0.0269 -0.4532 -0.0446
   19SAPC   H2R 2442   4.947   5.062   9.915  0.5867 -1.0052 -0.0025
   19SAPC   H2S 2443   4.967   5.219  10.020  2.0089 -0.7265  2.2019
   19SAPC    C3 2444   5.242   4.801  10.158  0.0473  0.2370 -0.5308
   19SAPC    HX 2445   5.207   4.716  10.095 -1.7820  0.2726  0.3799
   19SAPC    HY 2446   5.279   4.749  10.249 -3.5871 -1.8930 -0.0678
   19SAPC   O31 2447   5.339   4.875  10.089  0.3001  0.4385 -0.3435
   19SAPC   C31 2448   5.410   4.964  10.165 -1.1125 -0.4610 -0.2477
   19SAPC   O32 2449   5.391   4.978  10.286  0.2730 -0.3214  0.0391
   19SAPC   C32 2450   5.521   5.035  10.091 -0.1165  0.1809 -0.1242
   19SAPC   H2X 2451   5.483   5.035   9.986 -1.7235 -2.3467  0.3813
   19SAPC   H2Y 2452   5.615   4.976  10.096 -0.6525 -0.6467  0.3904
   19SAPC   C23 2453   5.106   5.214   9.854 -0.4485 -0.0160  0.7379
   19SAPC   H3R 2454   5.172   5.282   9.911 -1.1030 -0.8539  2.5822
   19SAPC   H3S 2455   5.040   5.275   9.789  0.8134 -0.8139 -1.4017
   19SAPC   C24 2456   5.195   5.118   9.761 -0.6072 -0.1342  0.3577
   19SAPC   H4R 2457   5.289   5.089   9.813 -0.0613 -0.4414 -0.7771
   19SAPC   H4S 2458   5.226   5.186   9.679 -3.1317  0.9650  0.2293
   19SAPC   C25 2459   5.126   4.991   9.708  0.7341  0.0753  0.0595
   19SAPC   H5R 2460   5.100   4.919   9.787 -0.2604  0.3461 -0.0188
   19SAPC   C26 2461   5.110   4.951   9.578  0.5801  0.0419  0.1413
   19SAPC   H6R 2462   5.060   4.854   9.563  0.0484  0.4401 -0.6443
   19SAPC   C27 2463   5.143   5.027   9.451 -0.2596  0.0370 -0.5714
   19SAPC   H7R 2464   5.166   4.952   9.373 -0.2739  0.2879 -0.8205
   19SAPC   H7S 2465   5.241   5.080   9.459 -1.5059  2.5074 -0.5359
   19SAPC   C28 2466   5.040   5.131   9.407 -0.7571  0.5582 -0.4752
   19SAPC   H8R 2467   4.952   5.134   9.472 -1.5105 -1.7077 -1.2918
   19SAPC   C29 2468   5.049   5.213   9.301 -0.5014  0.0542  0.2165
   19SAPC   H9R 2469   4.971   5.290   9.287 -0.2940  0.9311  3.1232
   19SAPC  C210 2470   5.157   5.221   9.190 -0.3511 -0.1580  0.4840
   19SAPC  H10R 2471   5.262   5.234   9.225 -0.1639 -0.3655  0.0029
   19SAPC  H10S 2472   5.149   5.312   9.127  2.8403 -0.3508 -0.4033
   19SAPC  C211 2473   5.151   5.098   9.103 -0.1727  0.4198 -0.6695
   19SAPC  H11R 2474   5.080   5.020   9.133  1.3091 -0.3172  1.1349
   19SAPC  C212 2475   5.211   5.076   8.984 -0.1368 -0.0317  0.3350
   19SAPC  H12R 2476   5.200   4.978   8.934  1.8938 -0.1657  0.0534
   19SAPC  C213 2477   5.311   5.167   8.915  0.5526  0.4251 -0.2689
   19SAPC  H13R 2478   5.406   5.110   8.904 -0.6053 -1.8385  0.6672
   19SAPC  H13S 2479   5.320   5.268   8.960 -1.0209  0.0463  0.9678
   19SAPC  C214 2480   5.265   5.204   8.773  0.2561  0.5406 -0.5533
   19SAPC  H14R 2481   5.239   5.310   8.758 -2.5179 -0.0117 -0.2335
   19SAPC  C215 2482   5.274   5.129   8.661  0.4887  0.3711  0.1095
   19SAPC  H15R 2483   5.247   5.176   8.565  2.5475 -0.3988 -0.9105
   19SAPC  C216 2484   5.334   4.991   8.655 -0.1593 -0.0888  0.2820
   19SAPC  H16R 2485   5.249   4.922   8.636  0.1585 -0.3674 -0.1474
   19SAPC  H16S 2486   5.385   4.951   8.745 -0.8359 -1.5175  0.0512
   19SAPC  C217 2487   5.435   4.951   8.542 -0.3360 -0.2879 -0.2607
   19SAPC  H17R 2488   5.372   4.949   8.450  0.7176 -0.2871 -0.9974
   19SAPC  H17S 2489   5.456   4.842   8.549  1.1228  0.0347  0.7978
   19SAPC  C218 2490   5.565   5.021   8.546 -0.3793  0.8171  0.4803
   19SAPC  H18R 2491   5.595   5.032   8.652 -0.4533 -0.3923  0.6439
   19SAPC  H18S 2492   5.564   5.126   8.509 -0.6408  1.2360  1.6565
   19SAPC  C219 2493   5.690   4.953   8.484 -0.1876  0.0491 -0.6255
   19SAPC  H19R 2494   5.701   4.849   8.519 -2.3030  0.6359  2.0804
   19SAPC  H19S 2495   5.770   5.020   8.525 -0.6760  0.4757 -0.3568
   19SAPC  C220 2496   5.713   4.952   8.327 -0.6457  0.5248  0.4091
   19SAPC  H20R 2497   5.640   4.880   8.285 -2.3414  0.8445  2.5798
   19SAPC  H20S 2498   5.819   4.929   8.306  0.1331  2.9406  1.2738
   19SAPC  H20T 2499   5.679   5.050   8.287 -1.3620  0.1413  0.0666
   19SAPC   C33 2500   5.541   5.187  10.128 -0.7616  0.7151  0.3617
   19SAPC   H3X 2501   5.559   5.208  10.236  2.1862 -0.6146  0.2139
   19SAPC   H3Y 2502   5.456   5.244  10.084 -0.7909 -0.2612 -0.8971
   19SAPC   C34 2503   5.658   5.244  10.050 -0.4643  0.5900 -0.7722
   19SAPC   H4X 2504   5.744   5.173  10.049 -2.0025 -1.4565  1.4595
   19SAPC   H4Y 2505   5.690   5.340  10.096  0.4228  0.1118 -0.3654
   19SAPC   C35 2506   5.613   5.280   9.911 -0.0138  0.1708  0.4078
   19SAPC   H5X 2507   5.625   5.389   9.899 -1.1629  0.3210  0.5035
   19SAPC   H5Y 2508   5.508   5.249   9.895  0.3862 -2.0723  1.6912
   19SAPC   C36 2509   5.686   5.202   9.800 -0.2145 -0.0954 -0.4604
   19SAPC   H6X 2510   5.702   5.096   9.831  0.2094  0.3199  0.8008
   19SAPC   H6Y 2511   5.782   5.258   9.788 -0.1682  0.1620  0.9194
   19SAPC   C37 2512   5.616   5.216   9.667  0.6237 -0.1483 -0.2352
   19SAPC   H7X 2513   5.572   5.316   9.648  2.5965  0.2748 -3.2560
   19SAPC   H7Y 2514   5.531   5.145   9.675 -1.9805  2.7801 -0.2489
   19SAPC   C38 2515   5.711   5.188   9.551 -0.8583  0.2345  0.3579
   19SAPC   H8X 2516   5.742   5.082   9.542  0.0363  0.5963 -1.5073
   19SAPC   H8Y 2517   5.804   5.249   9.546 -0.3305 -0.6248 -0.9122
   19SAPC   C39 2518   5.630   5.210   9.419  0.3979  0.1365  0.1110
   19SAPC   H9X 2519   5.578   5.308   9.419 -0.5969 -0.3619 -0.5219
   19SAPC   H9Y 2520   5.549   5.135   9.431  2.2839 -1.6555  2.6526
   19SAPC  C310 2521   5.714   5.195   9.289 -0.0633  0.2066  0.0363
   19SAPC  H10X 2522   5.732   5.086   9.280 -1.3496 -0.1259  1.1320
   19SAPC  H10Y 2523   5.810   5.248   9.306 -0.7420  0.7965  2.4861
   19SAPC  C311 2524   5.659   5.258   9.159 -0.1961  0.4257  0.2149
   19SAPC  H11X 2525   5.640   5.365   9.180  3.0469  1.4511 -1.4790
   19SAPC  H11Y 2526   5.567   5.199   9.138 -1.6890  3.0857 -1.2613
   19SAPC  C312 2527   5.755   5.256   9.041 -0.4286 -0.2011 -0.0904
   19SAPC  H12X 2528   5.776   5.149   9.021  1.6813 -0.4863  2.9428
   19SAPC  H12Y 2529   5.850   5.310   9.061 -0.9165 -0.2575  2.7379
   19SAPC  C313 2530   5.678   5.315   8.917 -0.2186 -0.1614  0.4616
   19SAPC  H13X 2531   5.661   5.424   8.932  0.1767 -0.0520  0.1204
   19SAPC  H13Y 2532   5.585   5.261   8.886 -0.2462  0.3336 -0.3301
   19SAPC  C314 2533   5.758   5.289   8.784 -0.5014 -0.5229  0.1045
   19SAPC  H14X 2534   5.769   5.184   8.749 -1.6790 -0.2926 -1.0522
   19SAPC  H14Y 2535   5.859   5.323   8.813 -0.8861 -0.1085  0.9893
   19SAPC  C315 2536   5.716   5.373   8.664  0.2257 -0.4920  0.4183
   19SAPC  H15X 2537   5.701   5.482   8.681  2.2262  0.2633 -2.0530
   19SAPC  H15Y 2538   5.622   5.326   8.627  1.4676 -2.5949 -0.2318
   19SAPC  C316 2539   5.829   5.369   8.562  0.0232  0.1758 -0.2932
   19SAPC  H16X 2540   5.851   5.261   8.550 -0.3830 -0.5026  3.6193
   19SAPC  H16Y 2541   5.913   5.421   8.613 -0.2927 -0.4879  0.9462
   19SAPC  C317 2542   5.814   5.433   8.429 -0.6306 -0.3074  0.8835
   19SAPC  H17X 2543   5.914   5.437   8.381  0.2903 -1.4536  2.6387
   19SAPC  H17Y 2544   5.783   5.537   8.453 -0.7884  0.0208 -0.6342
   19SAPC  C318 2545   5.721   5.352   8.338  0.1770 -0.3033 -0.5416
   19SAPC  H18X 2546   5.756   5.248   8.354 -0.6903 -0.2707  2.0355
   19SAPC  H18Y 2547   5.725   5.376   8.230 -0.0730  2.3689 -0.0420
   19SAPC  H18Z 2548   5.618   5.369   8.375  0.3245  1.7398 -0.9415
   20SAPC     N 2549   4.968   3.493  10.840  0.0466 -0.2555 -0.1977
   20SAPC   C12 2550   4.918   3.371  10.764  0.3801 -0.2902  0.1747
   20SAPC  H12A 2551   4.849   3.401  10.686 -1.9863 -4.1432  0.5563
   20SAPC  H12B 2552   4.864   3.311  10.835  0.3424 -0.6243 -0.1341
   20SAPC   C13 2553   5.066   3.471  10.949 -0.7729 -0.6485  0.1567
   20SAPC  H13A 2554   5.014   3.424  11.031 -1.9695  0.7941  0.2745
   20SAPC  H13B 2555   5.152   3.420  10.909  1.5861  2.5044  0.8127
   20SAPC  H13C 2556   5.108   3.559  10.996  0.1638 -0.1345 -1.5537
   20SAPC   C14 2557   5.022   3.594  10.744  0.7289  0.1080  0.0617
   20SAPC  H14A 2558   4.939   3.632  10.686  0.4645  1.7683  1.4630
   20SAPC  H14B 2559   5.055   3.682  10.795  2.7497  0.7118 -2.1121
   20SAPC  H14C 2560   5.097   3.563  10.672  2.3084 -0.4266  1.8554
   20SAPC   C15 2561   4.865   3.561  10.911 -0.0610 -0.3391  0.0228
   20SAPC  H15A 2562   4.798   3.611  10.842 -0.2473 -1.2777 -0.4888
   20SAPC  H15B 2563   4.805   3.501  10.978 -2.1488  0.4506 -1.0343
   20SAPC  H15C 2564   4.903   3.647  10.964 -0.0757  0.6472 -1.4798
   20SAPC   C11 2565   5.034   3.290  10.700  0.7342  0.1487  0.0931
   20SAPC  H11A 2566   5.099   3.360  10.642  0.0309  0.8925  0.1807
   20SAPC  H11B 2567   4.997   3.217  10.625 -0.2812  0.0220  0.6997
   20SAPC     P 2568   5.068   3.084  10.851 -0.3064 -0.3113 -0.3367
   20SAPC   O13 2569   5.181   3.042  10.939 -0.4926  0.1834  0.9593
   20SAPC   O14 2570   4.937   3.104  10.918  0.3548 -0.0094 -0.4020
   20SAPC   O12 2571   5.114   3.223  10.792  0.2920  0.3480  0.0252
   20SAPC   O11 2572   5.063   2.978  10.729  0.2621 -0.5063  0.2906
   20SAPC    C1 2573   5.168   2.928  10.655 -0.3790  0.7527  0.1677
   20SAPC    HA 2574   5.265   2.928  10.709 -0.1936 -2.0305 -0.0437
   20SAPC    HB 2575   5.146   2.821  10.635 -2.6734  1.1048  0.4822
   20SAPC    C2 2576   5.186   3.009  10.522 -0.2749  0.1830 -0.0703
   20SAPC    HS 2577   5.190   3.114  10.560 -0.1468  0.9229 -2.0382
   20SAPC   O21 2578   5.074   2.980  10.448 -0.7259 -0.0474  0.4626
   20SAPC   C21 2579   5.033   3.067  10.367 -0.3818 -0.5393  0.3520
   20SAPC   O22 2580   5.077   3.187  10.356 -0.3474 -0.2625 -0.7920
   20SAPC   C22 2581   4.924   3.001  10.282  0.2364 -0.1484 -0.3743
   20SAPC   H2R 2582   4.955   2.902  10.242 -3.6050 -1.8342  0.3832
   20SAPC   H2S 2583   4.852   2.969  10.361 -0.3862  1.7018 -0.1492
   20SAPC    C3 2584   5.319   2.965  10.450 -0.4806  0.5104 -0.0341
   20SAPC    HX 2585   5.305   2.860  10.414  2.5934  0.1028 -0.2801
   20SAPC    HY 2586   5.400   2.963  10.525 -1.6312 -1.4891  1.2630
   20SAPC   O31 2587   5.354   3.046  10.335 -0.7064  0.0242  0.5762
   20SAPC   C31 2588   5.469   3.037  10.273  0.7457  0.8729  0.8065
   20SAPC   O32 2589   5.568   2.971  10.313  0.3443  0.2162  0.4945
   20SAPC   C32 2590   5.464   3.125  10.153  0.4766 -0.4580  0.2080
   20SAPC   H2X 2591   5.562   3.141  10.104  0.1713  4.1131  0.6089
   20SAPC   H2Y 2592   5.430   3.227  10.181 -0.5262 -0.6646 -0.2180
   20SAPC   C23 2593   4.847   3.079  10.180 -1.0618 -0.0009  0.2863
   20SAPC   H3R 2594   4.817   3.171  10.234 -2.0623 -0.1539  0.0118
   20SAPC   H3S 2595   4.757   3.031  10.137 -1.4067 -0.1473  1.1552
   20SAPC   C24 2596   4.933   3.112  10.056 -0.9960  0.0013 -0.1517
   20SAPC   H4R 2597   4.966   3.018  10.007 -1.1207  1.1715 -2.6293
   20SAPC   H4S 2598   5.029   3.155  10.090 -0.1062  1.3667 -3.9129
   20SAPC   C25 2599   4.861   3.197   9.959  0.2406  0.4544  0.1878
   20SAPC   H5R 2600   4.849   3.300   9.995 -0.7621  0.1657  0.7351
   20SAPC   C26 2601   4.819   3.170   9.840 -0.5699  0.8425  0.7605
   20SAPC   H6R 2602   4.763   3.251   9.792  0.4988  1.3797  0.3997
   20SAPC   C27 2603   4.847   3.045   9.761  0.3221  0.9035 -0.5739
   20SAPC   H7R 2604   4.818   2.952   9.816  0.8425  1.0540 -0.0287
   20SAPC   H7S 2605   4.954   3.021   9.745  1.1501  1.4402  3.2044
   20SAPC   C28 2606   4.765   3.047   9.638  0.1814 -0.7704 -0.7643
   20SAPC   H8R 2607   4.656   3.051   9.652  0.3992 -1.5334  1.6302
   20SAPC   C29 2608   4.815   3.039   9.513 -0.9130  0.6477  0.6159
   20SAPC   H9R 2609   4.744   3.041   9.429  0.2279 -1.1672 -0.4541
   20SAPC  C210 2610   4.956   3.012   9.483  0.3552  0.0860 -0.3166
   20SAPC  H10R 2611   5.001   2.957   9.569 -0.7509 -0.4642 -0.0632
   20SAPC  H10S 2612   5.016   3.105   9.470 -0.0827  0.2622 -1.1668
   20SAPC  C211 2613   4.966   2.940   9.349 -0.7160 -0.1667 -0.1041
   20SAPC  H11R 2614   5.002   2.838   9.368  2.2977  1.0474  1.3397
   20SAPC  C212 2615   4.941   2.988   9.225  0.4496 -0.2628 -0.4911
   20SAPC  H12R 2616   4.951   2.930   9.132 -0.9148  1.0723 -1.5214
   20SAPC  C213 2617   4.887   3.127   9.196 -0.2192 -0.2559  0.6146
   20SAPC  H13R 2618   4.961   3.183   9.134 -1.5057  0.6524 -0.1431
   20SAPC  H13S 2619   4.857   3.179   9.289 -0.7853  1.1779 -0.3266
   20SAPC  C214 2620   4.763   3.123   9.110 -0.1181  0.2164 -0.0514
   20SAPC  H14R 2621   4.672   3.131   9.172  1.8914  1.2922  3.0526
   20SAPC  C215 2622   4.761   3.115   8.977  0.4911 -0.0893 -0.1721
   20SAPC  H15R 2623   4.664   3.114   8.925  0.6825  1.6879 -0.6255
   20SAPC  C216 2624   4.873   3.093   8.882  0.0635 -0.3100  0.1991
   20SAPC  H16R 2625   4.951   3.025   8.923 -1.1216 -1.4015  0.6745
   20SAPC  H16S 2626   4.918   3.191   8.854 -2.5778  1.0734  0.4834
   20SAPC  C217 2627   4.809   3.048   8.746 -0.3474  1.2066 -0.5053
   20SAPC  H17R 2628   4.895   3.042   8.676  0.1277  1.6422  0.0312
   20SAPC  H17S 2629   4.742   3.123   8.697  0.1508  3.8776  2.6135
   20SAPC  C218 2630   4.743   2.904   8.742 -0.1326  0.6316  0.2111
   20SAPC  H18R 2631   4.658   2.910   8.813  1.0728  0.3089  1.7441
   20SAPC  H18S 2632   4.820   2.828   8.768  1.1731  1.3608 -1.3706
   20SAPC  C219 2633   4.678   2.881   8.607  0.5851  0.0436 -0.4133
   20SAPC  H19R 2634   4.616   2.960   8.560  1.1371 -0.2201 -1.5954
   20SAPC  H19S 2635   4.613   2.795   8.633  1.1749 -0.2772  0.0421
   20SAPC  C220 2636   4.783   2.840   8.507  0.2143  0.1195 -0.6994
   20SAPC  H20R 2637   4.736   2.816   8.410  3.2741 -0.2502 -2.2014
   20SAPC  H20S 2638   4.835   2.751   8.548  1.9763  1.6123  0.4948
   20SAPC  H20T 2639   4.861   2.918   8.500  1.6285 -1.3995 -2.7565
   20SAPC   C33 2640   5.383   3.070  10.030 -0.4979  0.1202 -0.1491
   20SAPC   H3X 2641   5.276   3.058  10.058 -0.4150  0.2296  0.2173
   20SAPC   H3Y 2642   5.436   2.981   9.991  1.5968  1.8141 -1.3785
   20SAPC   C34 2643   5.387   3.163   9.899 -0.1448  0.1511 -0.3551
   20SAPC   H4X 2644   5.492   3.176   9.866 -0.7285  0.8829 -2.0644
   20SAPC   H4Y 2645   5.343   3.261   9.928 -2.0841 -1.1253  1.2964
   20SAPC   C35 2646   5.302   3.106   9.778 -0.3363 -0.3440  0.4605
   20SAPC   H5X 2647   5.289   3.188   9.704  0.5096 -1.7901 -1.3868
   20SAPC   H5Y 2648   5.202   3.063   9.799 -0.1400 -0.3039  1.5210
   20SAPC   C36 2649   5.376   2.993   9.725  0.1730  0.3710 -0.3454
   20SAPC   H6X 2650   5.382   2.912   9.802  0.2174 -0.4974 -1.2355
   20SAPC   H6Y 2651   5.479   3.016   9.690  0.4111 -0.1515 -0.0048
   20SAPC   C37 2652   5.298   2.917   9.611 -0.1808 -0.4071  0.3975
   20SAPC   H7X 2653   5.273   2.985   9.526  0.3687 -0.0969  0.4744
   20SAPC   H7Y 2654   5.209   2.873   9.659  0.3543  0.6425  2.4453
   20SAPC   C38 2655   5.377   2.806   9.543 -0.0695  0.1127  0.3179
   20SAPC   H8X 2656   5.430   2.740   9.616  1.2070 -0.5797 -1.1798
   20SAPC   H8Y 2657   5.451   2.866   9.486  0.4887  0.7022  1.6106
   20SAPC   C39 2658   5.299   2.709   9.457 -0.8990 -0.3424 -0.2438
   20SAPC   H9X 2659   5.193   2.709   9.488 -0.5067  1.0274  1.2448
   20SAPC   H9Y 2660   5.337   2.609   9.486 -1.4789 -0.1876  1.0889
   20SAPC  C310 2661   5.330   2.727   9.309  0.5483  0.3572 -0.0631
   20SAPC  H10X 2662   5.437   2.699   9.304 -0.0387 -2.5912  1.5579
   20SAPC  H10Y 2663   5.304   2.829   9.273  0.7160  0.0391 -1.1221
   20SAPC  C311 2664   5.250   2.638   9.219 -0.2230 -0.4280 -0.1072
   20SAPC  H11X 2665   5.143   2.666   9.229  0.0046  0.4630 -0.1690
   20SAPC  H11Y 2666   5.254   2.532   9.253  0.1973 -0.3224  0.1862
   20SAPC  C312 2667   5.296   2.642   9.076  0.3850  0.5868 -0.0917
   20SAPC  H12X 2668   5.256   2.549   9.030  1.1401 -0.4505  1.2939
   20SAPC  H12Y 2669   5.404   2.624   9.058  0.4790  1.0277  0.0174
   20SAPC  C313 2670   5.253   2.769   9.000 -0.7267  0.1575  0.2210
   20SAPC  H13X 2671   5.323   2.855   9.012 -1.7751  0.7309  2.7374
   20SAPC  H13Y 2672   5.148   2.798   9.022 -1.2038 -0.5866 -0.9590
   20SAPC  C314 2673   5.278   2.745   8.849 -0.0779 -0.1304 -0.8171
   20SAPC  H14X 2674   5.365   2.678   8.836  0.7268  0.8160 -0.4297
   20SAPC  H14Y 2675   5.311   2.831   8.786  4.1905 -0.4888  0.6209
   20SAPC  C315 2676   5.148   2.684   8.790 -0.3702  0.0695 -0.3068
   20SAPC  H15X 2677   5.066   2.757   8.809  1.0700  1.6418  0.1965
   20SAPC  H15Y 2678   5.121   2.593   8.846 -1.8482 -0.2473 -1.4812
   20SAPC  C316 2679   5.165   2.645   8.648 -0.8691  0.7181 -0.7457
   20SAPC  H16X 2680   5.075   2.588   8.616 -0.8286 -0.0559  0.4344
   20SAPC  H16Y 2681   5.255   2.582   8.634 -1.2673 -0.6361  2.0573
   20SAPC  C317 2682   5.179   2.766   8.551 -0.2300  0.1032 -0.3034
   20SAPC  H17X 2683   5.284   2.800   8.555  0.4804 -1.9662 -0.2302
   20SAPC  H17Y 2684   5.118   2.854   8.581  2.2124  1.6434  0.4570
   20SAPC  C318 2685   5.150   2.718   8.401 -0.5793 -0.3715  0.2310
   20SAPC  H18X 2686   5.178   2.796   8.327  0.7899 -0.3534  0.7217
   20SAPC  H18Y 2687   5.050   2.672   8.389 -1.0243  0.6329 -0.0194
   20SAPC  H18Z 2688   5.227   2.641   8.375  0.3296  0.6268 -0.1403
   21SAPC     N 2689   5.607   1.670  10.740  0.0021  0.6845  0.0260
   21SAPC   C12 2690   5.621   1.661  10.592 -0.1218  0.3980  0.1275
   21SAPC  H12A 2691   5.543   1.716  10.541  1.9244  1.6914 -1.8478
   21SAPC  H12B 2692   5.610   1.558  10.562  0.5630  0.5750 -0.7999
   21SAPC   C13 2693   5.737   1.633  10.809 -0.3174  0.2472  0.2394
   21SAPC  H13A 2694   5.814   1.705  10.789  0.1332 -0.0792  0.7877
   21SAPC  H13B 2695   5.722   1.630  10.916 -1.3667 -0.6019  0.0888
   21SAPC  H13C 2696   5.769   1.535  10.776 -2.0903 -0.2606 -0.0915
   21SAPC   C14 2697   5.579   1.808  10.785 -0.8490 -0.5103 -0.4084
   21SAPC  H14A 2698   5.493   1.849  10.736  0.1526  0.2157 -1.6110
   21SAPC  H14B 2699   5.557   1.821  10.890 -1.8728  1.0056 -0.7938
   21SAPC  H14C 2700   5.658   1.877  10.761 -0.4403 -1.0888 -0.7643
   21SAPC   C15 2701   5.502   1.572  10.791 -0.3640 -0.2775 -0.1484
   21SAPC  H15A 2702   5.519   1.480  10.738  0.1979 -0.3758  0.1833
   21SAPC  H15B 2703   5.522   1.559  10.897  1.8167  0.0661 -0.4672
   21SAPC  H15C 2704   5.401   1.603  10.770 -0.3985 -0.3250 -0.0516
   21SAPC   C11 2705   5.748   1.721  10.525  0.2303  0.2247 -0.0239
   21SAPC  H11A 2706   5.749   1.698  10.417 -0.8057 -0.1114  0.0292
   21SAPC  H11B 2707   5.846   1.690  10.567  0.1048  1.0317  0.9282
   21SAPC     P 2708   5.685   1.968  10.468 -0.6123 -0.3104 -0.3455
   21SAPC   O13 2709   5.542   1.927  10.463  0.5119 -0.0085  0.0570
   21SAPC   O14 2710   5.716   2.104  10.525  0.1964  0.4164  0.2574
   21SAPC   O12 2711   5.758   1.860  10.545 -0.4118  0.1469  0.5914
   21SAPC   O11 2712   5.758   1.958  10.329  0.2839 -0.7933 -0.4841
   21SAPC    C1 2713   5.897   1.978  10.319  0.0385 -0.7397 -0.3307
   21SAPC    HA 2714   5.926   2.063  10.384 -1.8978 -1.4144  1.5459
   21SAPC    HB 2715   5.956   1.887  10.341  1.0828 -0.0612 -0.2759
   21SAPC    C2 2716   5.934   2.002  10.169  0.6300 -0.3632  0.1347
   21SAPC    HS 2717   6.045   2.000  10.162  0.7654 -0.3032  1.9180
   21SAPC   O21 2718   5.878   2.128  10.142  0.2246 -0.5956 -0.3119
   21SAPC   C21 2719   5.957   2.229  10.159  0.2478  0.0896 -0.5488
   21SAPC   O22 2720   6.063   2.228  10.222  0.0899 -0.1150 -0.0904
   21SAPC   C22 2721   5.894   2.359  10.096 -0.3316  0.2731 -0.1193
   21SAPC   H2R 2722   5.785   2.348  10.110  0.0029 -2.4316  0.9445
   21SAPC   H2S 2723   5.934   2.443  10.156  1.8687  0.0788 -1.1722
   21SAPC    C3 2724   5.882   1.898  10.072  0.3503  0.1003 -0.2715
   21SAPC    HX 2725   5.772   1.911  10.080  0.2614 -1.1661  0.8224
   21SAPC    HY 2726   5.905   1.794  10.101  0.7180  0.6040  1.3665
   21SAPC   O31 2727   5.926   1.922   9.937  0.2005  0.2614  0.4549
   21SAPC   C31 2728   5.822   1.936   9.852  0.3350  0.3910  0.2273
   21SAPC   O32 2729   5.703   1.930   9.876 -0.1347  0.4858 -0.1367
   21SAPC   C32 2730   5.877   1.975   9.716 -0.2070  0.0354 -0.6318
   21SAPC   H2X 2731   5.953   1.899   9.687  0.8593  1.4454 -1.6952
   21SAPC   H2Y 2732   5.926   2.073   9.729  0.7938 -0.3853 -1.1004
   21SAPC   C23 2733   5.933   2.382   9.949  0.3213 -0.5526 -0.0552
   21SAPC   H3R 2734   5.913   2.286   9.896  1.1631  0.0344 -1.4981
   21SAPC   H3S 2735   6.043   2.392   9.934  0.3199 -0.7694 -0.2222
   21SAPC   C24 2736   5.859   2.502   9.883  0.3063 -0.6206 -0.4168
   21SAPC   H4R 2737   5.750   2.494   9.901 -0.5810  1.1916 -4.0424
   21SAPC   H4S 2738   5.876   2.502   9.773  1.1082  0.7890 -0.3261
   21SAPC   C25 2739   5.915   2.633   9.940 -0.0600 -0.6385 -0.3189
   21SAPC   H5R 2740   5.867   2.685  10.024  2.0707  0.4509  0.2926
   21SAPC   C26 2741   6.030   2.692   9.899 -1.1440  0.7681 -0.3615
   21SAPC   H6R 2742   6.074   2.775   9.957  0.8954 -0.8436  0.5366
   21SAPC   C27 2743   6.120   2.637   9.788  0.0598  0.4787  0.2022
   21SAPC   H7R 2744   6.103   2.692   9.693  2.3992 -3.0587 -2.5183
   21SAPC   H7S 2745   6.100   2.531   9.761  3.4244 -0.3986  0.6436
   21SAPC   C28 2746   6.268   2.664   9.805  0.0902  0.0330  0.0374
   21SAPC   H8R 2747   6.296   2.732   9.887 -0.8231  4.7745 -3.2266
   21SAPC   C29 2748   6.364   2.625   9.729  0.0966 -0.5795 -0.0399
   21SAPC   H9R 2749   6.465   2.644   9.767  0.0915  0.1113 -0.3520
   21SAPC  C210 2750   6.345   2.548   9.604  0.1566  0.1294 -0.3443
   21SAPC  H10R 2751   6.238   2.565   9.579 -0.3867 -1.1532  0.9760
   21SAPC  H10S 2752   6.341   2.442   9.638  0.5153  0.4618  0.7953
   21SAPC  C211 2753   6.418   2.568   9.477  1.2268  0.2661 -0.3169
   21SAPC  H11R 2754   6.512   2.625   9.487  0.5427  1.2473  0.7503
   21SAPC  C212 2755   6.388   2.521   9.353  0.2461 -0.5720 -0.7686
   21SAPC  H12R 2756   6.448   2.555   9.268 -0.5019  2.6127 -0.1433
   21SAPC  C213 2757   6.279   2.435   9.307 -0.5824 -0.2437  0.8716
   21SAPC  H13R 2758   6.207   2.441   9.391 -0.7095  0.0034  0.7471
   21SAPC  H13S 2759   6.317   2.331   9.313  1.5505  0.3581 -0.8752
   21SAPC  C214 2760   6.207   2.457   9.167 -0.8627  0.8328 -0.7982
   21SAPC  H14R 2761   6.262   2.427   9.077 -0.2464  1.4175 -0.6250
   21SAPC  C215 2762   6.090   2.525   9.147  0.2208 -0.3362  0.0395
   21SAPC  H15R 2763   6.042   2.551   9.052 -0.1803 -1.8010 -0.1839
   21SAPC  C216 2764   6.021   2.583   9.267 -0.3137  0.7534  0.4403
   21SAPC  H16R 2765   6.037   2.693   9.270 -0.5981  0.8135 -0.1452
   21SAPC  H16S 2766   6.040   2.538   9.367 -0.7325  0.8543  0.5702
   21SAPC  C217 2767   5.861   2.583   9.246 -0.4492  0.0736  0.3463
   21SAPC  H17R 2768   5.822   2.480   9.235  1.1356 -0.7340  1.7323
   21SAPC  H17S 2769   5.864   2.646   9.154 -0.3153  1.8417  1.5076
   21SAPC  C218 2770   5.792   2.668   9.351  0.4256  0.4241 -0.6277
   21SAPC  H18R 2771   5.695   2.704   9.311 -0.3042 -0.6839  0.0893
   21SAPC  H18S 2772   5.858   2.755   9.370  0.1119  0.3851  0.7550
   21SAPC  C219 2773   5.777   2.595   9.486  0.4396  0.1185  0.4132
   21SAPC  H19R 2774   5.858   2.623   9.557  0.3184 -0.7982  0.9306
   21SAPC  H19S 2775   5.784   2.487   9.462  1.2578  0.5340 -1.4051
   21SAPC  C220 2776   5.642   2.619   9.568 -0.2884  0.1968  0.4794
   21SAPC  H20R 2777   5.617   2.566   9.662  0.2562  0.1613  0.6123
   21SAPC  H20S 2778   5.557   2.601   9.499 -0.6817 -0.6414  1.1767
   21SAPC  H20T 2779   5.637   2.726   9.597  2.0718  1.2832 -2.5096
   21SAPC   C33 2780   5.767   1.980   9.605 -0.2314  0.1992 -0.3968
   21SAPC   H3X 2781   5.712   2.074   9.629 -0.8332 -0.4922  1.0176
   21SAPC   H3Y 2782   5.697   1.894   9.609  0.2116 -0.1319  0.1696
   21SAPC   C34 2783   5.825   1.982   9.466  0.2371 -0.2483 -0.3662
   21SAPC   H4X 2784   5.875   1.885   9.448 -0.5816 -1.0135  1.2655
   21SAPC   H4Y 2785   5.907   2.057   9.470 -0.4946  0.5291  0.5678
   21SAPC   C35 2786   5.723   2.014   9.358  0.7781 -0.3759 -0.8831
   21SAPC   H5X 2787   5.666   2.108   9.375 -0.9357 -1.4037 -0.7416
   21SAPC   H5Y 2788   5.637   1.943   9.356 -0.8204  1.4552 -0.6153
   21SAPC   C36 2789   5.778   2.008   9.210  0.4883  0.1898  0.3656
   21SAPC   H6X 2790   5.699   2.035   9.137  1.7891 -3.2293 -2.6051
   21SAPC   H6Y 2791   5.795   1.900   9.192  1.6193 -0.0970  2.7801
   21SAPC   C37 2792   5.907   2.089   9.194  0.2994  0.7510 -0.3017
   21SAPC   H7X 2793   5.999   2.035   9.223 -0.9841 -1.1033  0.5053
   21SAPC   H7Y 2794   5.891   2.183   9.251  1.5748  0.9724 -0.2749
   21SAPC   C38 2795   5.919   2.125   9.048 -0.7138 -0.2664  0.5206
   21SAPC   H8X 2796   5.915   2.035   8.984 -0.7750  0.3230 -0.3221
   21SAPC   H8Y 2797   6.023   2.164   9.047 -1.4870  1.9724  0.8774
   21SAPC   C39 2798   5.823   2.241   9.010 -0.1965  0.2719 -0.4450
   21SAPC   H9X 2799   5.868   2.331   9.055 -2.2648  0.4095  1.5371
   21SAPC   H9Y 2800   5.726   2.230   9.063 -0.4270 -2.4215 -1.2727
   21SAPC  C310 2801   5.810   2.245   8.858  0.3831  0.8434 -0.2929
   21SAPC  H10X 2802   5.737   2.166   8.834  1.0022  0.6441 -1.5715
   21SAPC  H10Y 2803   5.907   2.217   8.811  0.2131 -0.3647  0.0505
   21SAPC  C311 2804   5.759   2.385   8.819  0.4266 -0.8334 -0.3261
   21SAPC  H11X 2805   5.838   2.453   8.857 -0.5818  1.0623 -1.4500
   21SAPC  H11Y 2806   5.663   2.407   8.871  0.2782 -2.2761  0.0533
   21SAPC  C312 2807   5.767   2.423   8.667  0.7066  0.5400  0.2248
   21SAPC  H12X 2808   5.717   2.343   8.607 -1.1150  0.9744  1.0877
   21SAPC  H12Y 2809   5.872   2.400   8.639  0.8639  1.6369 -0.1417
   21SAPC  C313 2810   5.722   2.563   8.630 -0.6750 -0.1381 -0.3737
   21SAPC  H13X 2811   5.771   2.626   8.708 -1.9944  0.0160  0.3460
   21SAPC  H13Y 2812   5.611   2.567   8.633 -0.6761  0.1697 -0.7979
   21SAPC  C314 2813   5.786   2.605   8.493 -0.0962 -0.3037  0.4194
   21SAPC  H14X 2814   5.895   2.626   8.497 -0.0787 -0.4049  0.5109
   21SAPC  H14Y 2815   5.758   2.710   8.472  2.4266  0.8932  2.3698
   21SAPC  C315 2816   5.760   2.508   8.378  0.7173 -1.0027 -0.2637
   21SAPC  H15X 2817   5.810   2.410   8.394  4.9011  1.0242  0.3994
   21SAPC  H15Y 2818   5.801   2.551   8.284  0.6724  1.7066  0.8714
   21SAPC  C316 2819   5.612   2.488   8.342 -0.3691 -0.3460  0.1595
   21SAPC  H16X 2820   5.557   2.462   8.435 -1.7875  0.6124 -0.3894
   21SAPC  H16Y 2821   5.603   2.403   8.271 -1.5257  1.0888 -1.4831
   21SAPC  C317 2822   5.552   2.608   8.261 -0.6216  0.2004  0.1606
   21SAPC  H17X 2823   5.570   2.704   8.313 -1.9741  1.1500 -1.0121
   21SAPC  H17Y 2824   5.443   2.585   8.257 -0.8798  1.2279  0.8476
   21SAPC  C318 2825   5.607   2.620   8.117 -0.2781 -0.0029  0.2283
   21SAPC  H18X 2826   5.560   2.710   8.071  0.3873 -0.2604 -0.9761
   21SAPC  H18Y 2827   5.580   2.531   8.057 -2.0153 -0.0471  1.0197
   21SAPC  H18Z 2828   5.718   2.621   8.116 -0.1831 -2.6991  0.1571
   22SAPC     N 2829   5.303   5.636  10.727  0.1375  0.5021  0.5084
   22SAPC   C12 2830   5.391   5.508  10.747  0.0227  0.5463  0.0444
   22SAPC  H12A 2831   5.331   5.424  10.779 -0.9726 -0.1212 -3.2050
   22SAPC  H12B 2832   5.462   5.523  10.827 -0.0054 -0.9465  0.3852
   22SAPC   C13 2833   5.386   5.747  10.679  0.1412  0.1148 -0.3005
   22SAPC  H13A 2834   5.334   5.826  10.628 -0.3458 -0.0140 -0.0009
   22SAPC  H13B 2835   5.453   5.795  10.749 -0.2681 -0.6437  0.6384
   22SAPC  H13C 2836   5.457   5.700  10.611  0.9658  0.9778 -0.0566
   22SAPC   C14 2837   5.211   5.609  10.613  0.1710  0.3540  0.0414
   22SAPC  H14A 2838   5.264   5.585  10.521 -2.3203 -2.5984 -0.8240
   22SAPC  H14B 2839   5.146   5.526  10.635  1.4766 -0.7790 -0.2034
   22SAPC  H14C 2840   5.158   5.698  10.584 -0.9924 -1.0570 -2.5396
   22SAPC   C15 2841   5.227   5.668  10.850 -0.0222 -0.2547  0.8209
   22SAPC  H15A 2842   5.161   5.586  10.872  0.5327 -0.5226  1.4987
   22SAPC  H15B 2843   5.293   5.675  10.935  2.3360 -1.5957 -0.7805
   22SAPC  H15C 2844   5.175   5.760  10.828 -0.0729 -0.8016 -1.7098
   22SAPC   C11 2845   5.465   5.456  10.622  0.0845  0.0537 -0.8115
   22SAPC  H11A 2846   5.393   5.426  10.542 -1.7209 -2.2365  1.4939
   22SAPC  H11B 2847   5.507   5.356  10.647 -1.1400 -0.3905 -0.4599
   22SAPC     P 2848   5.720   5.528  10.627 -0.4100 -0.2372 -0.1527
   22SAPC   O13 2849   5.728   5.583  10.763 -0.0588 -0.2252 -0.3748
   22SAPC   O14 2850   5.765   5.389  10.602 -0.1423  0.4505 -0.1320
   22SAPC   O12 2851   5.570   5.548  10.584  0.5593  0.4822 -0.0435
   22SAPC   O11 2852   5.813   5.621  10.528 -0.3585  0.0458  0.4475
   22SAPC    C1 2853   5.794   5.753  10.489  1.3133 -0.0807  0.4855
   22SAPC    HA 2854   5.806   5.813  10.581 -1.2082 -0.1859  0.9532
   22SAPC    HB 2855   5.869   5.770  10.408 -1.8591  1.4167 -2.4059
   22SAPC    C2 2856   5.655   5.786  10.431 -0.2118 -0.0252  0.1194
   22SAPC    HS 2857   5.581   5.783  10.513  0.2625  1.2838  0.6221
   22SAPC   O21 2858   5.627   5.696  10.321 -0.3002 -0.3478 -0.3452
   22SAPC   C21 2859   5.495   5.668  10.307 -0.3123  0.6521 -0.2337
   22SAPC   O22 2860   5.408   5.718  10.371  0.1299  0.3795 -0.1657
   22SAPC   C22 2861   5.483   5.570  10.189 -0.4829 -0.5716  0.4489
   22SAPC   H2R 2862   5.559   5.575  10.107  0.2799 -2.2352  1.0069
   22SAPC   H2S 2863   5.513   5.472  10.230 -0.0930 -0.7731 -0.2901
   22SAPC    C3 2864   5.657   5.934  10.382  0.1586 -0.5707 -0.0473
   22SAPC    HX 2865   5.675   5.999  10.470  0.7855 -0.8136  0.0158
   22SAPC    HY 2866   5.561   5.957  10.332  1.2200 -0.7930 -2.2926
   22SAPC   O31 2867   5.764   5.944  10.282 -0.3480  0.4898  0.3112
   22SAPC   C31 2868   5.775   6.070  10.238  0.0666  0.5414 -0.2008
   22SAPC   O32 2869   5.702   6.159  10.287 -0.4438  0.0132  0.2788
   22SAPC   C32 2870   5.884   6.087  10.133  0.2069 -0.2561 -0.0176
   22SAPC   H2X 2871   5.833   6.102  10.036 -0.9606  2.4885  0.9405
   22SAPC   H2Y 2872   5.939   5.992  10.117  0.0082 -0.2930 -0.4895
   22SAPC   C23 2873   5.345   5.568  10.130  0.1585  0.4111  0.8984
   22SAPC   H3R 2874   5.262   5.581  10.203 -0.8385 -0.4905 -0.0459
   22SAPC   H3S 2875   5.334   5.476  10.069  0.5916  1.3894 -0.7207
   22SAPC   C24 2876   5.324   5.680  10.022 -0.4367  0.2833 -0.3031
   22SAPC   H4R 2877   5.414   5.679   9.957 -0.9247 -0.2718 -0.9898
   22SAPC   H4S 2878   5.336   5.779  10.071  1.6059 -0.2855  0.4455
   22SAPC   C25 2879   5.195   5.666   9.945 -0.4299  0.4023 -0.2408
   22SAPC   H5R 2880   5.100   5.685   9.999 -0.5819 -0.6280 -0.1246
   22SAPC   C26 2881   5.180   5.640   9.816 -0.1034 -0.2550 -0.2177
   22SAPC   H6R 2882   5.082   5.664   9.771 -0.1053 -1.0826 -0.6753
   22SAPC   C27 2883   5.281   5.607   9.708 -0.5390  0.2432 -0.0844
   22SAPC   H7R 2884   5.386   5.610   9.745 -0.4911  1.2195 -0.2649
   22SAPC   H7S 2885   5.281   5.693   9.637  1.0873  0.3231 -0.0237
   22SAPC   C28 2886   5.253   5.484   9.626 -0.5686  0.1213  0.0424
   22SAPC   H8R 2887   5.220   5.403   9.694 -1.9835  0.3963 -0.2784
   22SAPC   C29 2888   5.263   5.451   9.497 -0.2718  0.0506 -0.0705
   22SAPC   H9R 2889   5.246   5.348   9.463 -0.2105 -0.3879  1.1922
   22SAPC  C210 2890   5.300   5.544   9.379 -0.1696  0.1911  0.1828
   22SAPC  H10R 2891   5.374   5.488   9.318  1.1614  0.0220  1.8816
   22SAPC  H10S 2892   5.346   5.640   9.409 -1.7737  0.5006  1.8942
   22SAPC  C211 2893   5.179   5.579   9.298 -0.5395  1.3665  0.1025
   22SAPC  H11R 2894   5.081   5.596   9.345 -1.2469 -1.7204 -0.0393
   22SAPC  C212 2895   5.189   5.582   9.161  0.0016 -0.4466 -0.5063
   22SAPC  H12R 2896   5.094   5.596   9.107 -1.2211 -2.2142  1.0408
   22SAPC  C213 2897   5.305   5.563   9.073  0.1814  0.0409  0.4987
   22SAPC  H13R 2898   5.324   5.453   9.067 -2.0129 -0.3678  0.2589
   22SAPC  H13S 2899   5.397   5.613   9.110  1.3294 -1.0913 -0.6879
   22SAPC  C214 2900   5.269   5.601   8.927  0.1343 -0.0028 -0.1964
   22SAPC  H14R 2901   5.179   5.554   8.884  1.3288 -0.5461 -2.1969
   22SAPC  C215 2902   5.322   5.702   8.850 -0.7531 -0.1706  0.4007
   22SAPC  H15R 2903   5.267   5.725   8.758  1.9968 -0.9083 -1.5685
   22SAPC  C216 2904   5.429   5.800   8.886  0.0460  0.3154 -0.2041
   22SAPC  H16R 2905   5.471   5.778   8.986  1.3287  0.7627 -0.6298
   22SAPC  H16S 2906   5.388   5.903   8.889 -1.6367 -0.3295  0.8378
   22SAPC  C217 2907   5.557   5.791   8.792  0.0659  0.1552  0.0556
   22SAPC  H17R 2908   5.581   5.687   8.761  3.5432  1.0773 -0.7724
   22SAPC  H17S 2909   5.644   5.828   8.850  0.5108 -1.2666  0.3384
   22SAPC  C218 2910   5.528   5.865   8.662  0.6045  0.2696  0.3569
   22SAPC  H18R 2911   5.504   5.973   8.671 -0.0833  0.4463 -2.5785
   22SAPC  H18S 2912   5.444   5.815   8.609  0.2584  1.3815 -0.1701
   22SAPC  C219 2913   5.640   5.863   8.561 -0.0931  0.6666  0.9117
   22SAPC  H19R 2914   5.665   5.756   8.540  1.2170  0.9213  1.0554
   22SAPC  H19S 2915   5.731   5.913   8.602  1.0181 -1.0268  0.6245
   22SAPC  C220 2916   5.614   5.935   8.427  0.4043  0.1222 -0.0129
   22SAPC  H20R 2917   5.510   5.910   8.397  0.1266  0.4231  0.6677
   22SAPC  H20S 2918   5.694   5.925   8.351  0.6757 -0.5696  0.3520
   22SAPC  H20T 2919   5.608   6.043   8.452 -1.1708  0.4648 -1.6578
   22SAPC   C33 2920   5.972   6.216  10.130  0.5520 -0.7707  0.2087
   22SAPC   H3X 2921   6.015   6.240  10.230 -0.4019 -0.2515  0.5086
   22SAPC   H3Y 2922   5.906   6.300  10.102  0.0586 -0.2473  2.6801
   22SAPC   C34 2923   6.095   6.207  10.038  0.2512  0.6145  0.3167
   22SAPC   H4X 2924   6.167   6.136  10.085 -1.4504 -1.4348  0.0034
   22SAPC   H4Y 2925   6.153   6.301  10.034  2.6449 -0.7870  0.1955
   22SAPC   C35 2926   6.057   6.173   9.897 -0.0718 -0.0562  0.5543
   22SAPC   H5X 2927   5.957   6.220   9.886 -0.8216 -1.6139  0.3864
   22SAPC   H5Y 2928   6.053   6.065   9.869  2.9684 -0.1489  0.0928
   22SAPC   C36 2929   6.151   6.225   9.792  0.9966  0.0826 -0.3844
   22SAPC   H6X 2930   6.245   6.169   9.807  1.0687  0.1902 -0.4352
   22SAPC   H6Y 2931   6.170   6.333   9.812 -2.2922  0.5069  1.1099
   22SAPC   C37 2932   6.090   6.199   9.653 -0.2024 -0.3358  1.1316
   22SAPC   H7X 2933   5.983   6.228   9.660 -0.2220 -0.6550  2.3202
   22SAPC   H7Y 2934   6.098   6.090   9.632 -1.8441 -0.2776 -0.0130
   22SAPC   C38 2935   6.168   6.260   9.533  0.1442 -0.2904  0.2146
   22SAPC   H8X 2936   6.274   6.229   9.532  0.5297  0.9284 -1.4865
   22SAPC   H8Y 2937   6.158   6.370   9.547  1.3335 -0.1126 -0.2016
   22SAPC   C39 2938   6.105   6.223   9.394  0.4226  0.1387 -0.2129
   22SAPC   H9X 2939   5.997   6.252   9.394  0.1715 -0.7327 -0.9188
   22SAPC   H9Y 2940   6.108   6.112   9.392 -0.1335 -0.0768  3.6343
   22SAPC  C310 2941   6.170   6.296   9.277  0.2309  0.5770 -0.1646
   22SAPC  H10X 2942   6.277   6.269   9.271  0.7235  2.3329  0.0646
   22SAPC  H10Y 2943   6.165   6.406   9.291 -0.2084  0.6511 -0.8167
   22SAPC  C311 2944   6.095   6.259   9.147 -0.9751  0.1720  0.4990
   22SAPC  H11X 2945   6.002   6.319   9.137 -1.6804 -1.2348 -3.4617
   22SAPC  H11Y 2946   6.063   6.153   9.155 -2.3599  0.6343  1.4486
   22SAPC  C312 2947   6.178   6.260   9.020 -0.0355 -0.0684 -0.0390
   22SAPC  H12X 2948   6.125   6.199   8.944  1.5485 -2.2356  0.5015
   22SAPC  H12Y 2949   6.276   6.212   9.041 -0.5649 -1.6081 -0.9846
   22SAPC  C313 2950   6.217   6.403   8.972 -0.1271 -0.6996  0.0709
   22SAPC  H13X 2951   6.273   6.455   9.053 -1.0732 -0.0927  0.3614
   22SAPC  H13Y 2952   6.128   6.466   8.948  0.1340 -0.1063  0.6152
   22SAPC  C314 2953   6.309   6.405   8.853  0.5351  0.0243  0.3228
   22SAPC  H14X 2954   6.307   6.511   8.819 -1.6299  0.3403  1.2711
   22SAPC  H14Y 2955   6.278   6.353   8.760 -0.1814  3.2507 -1.4209
   22SAPC  C315 2956   6.448   6.364   8.893  0.7464 -0.4852 -0.4150
   22SAPC  H15X 2957   6.448   6.257   8.922  2.2675 -0.1073  1.1169
   22SAPC  H15Y 2958   6.482   6.433   8.973 -0.0775  1.8326 -1.9683
   22SAPC  C316 2959   6.550   6.388   8.777  0.5757  0.6437  0.0541
   22SAPC  H16X 2960   6.564   6.496   8.757  1.9556  0.7066  1.2076
   22SAPC  H16Y 2961   6.503   6.356   8.682  0.5739  1.1178 -0.1062
   22SAPC  C317 2962   6.680   6.315   8.789  0.1627 -0.1792 -0.2118
   22SAPC  H17X 2963   6.665   6.205   8.783  1.5247 -0.3571 -0.8146
   22SAPC  H17Y 2964   6.738   6.340   8.881  1.8589  2.8130 -1.9525
   22SAPC  C318 2965   6.773   6.338   8.673 -0.8131  0.0177  0.4871
   22SAPC  H18X 2966   6.878   6.313   8.699 -0.4625 -1.5826 -2.1773
   22SAPC  H18Y 2967   6.783   6.446   8.649 -1.3532  0.1074  0.6595
   22SAPC  H18Z 2968   6.742   6.290   8.578  0.2187 -0.8806  0.5844
   23SAPC     N 2969   5.849   0.182  10.787 -0.3748 -0.0432  1.0522
   23SAPC   C12 2970   5.837   0.236  10.645  0.2478  0.0903  0.6701
   23SAPC  H12A 2971   5.816   0.152  10.580 -2.0145  0.6647  0.5738
   23SAPC  H12B 2972   5.936   0.266  10.616  1.0252 -3.6901 -1.2908
   23SAPC   C13 2973   5.965   0.087  10.794  0.1919 -0.0565 -0.2757
   23SAPC  H13A 2974   5.981   0.067  10.899 -1.3403 -3.5576 -0.5739
   23SAPC  H13B 2975   5.949  -0.010  10.750  2.5512 -0.7339  0.1826
   23SAPC  H13C 2976   6.056   0.132  10.758 -0.4742  0.4681 -1.3187
   23SAPC   C14 2977   5.879   0.295  10.883  0.5541 -0.0413 -0.5122
   23SAPC  H14A 2978   5.975   0.332  10.851  0.3136 -0.4273 -1.7338
   23SAPC  H14B 2979   5.808   0.376  10.884 -0.2179 -0.6885  0.9801
   23SAPC  H14C 2980   5.877   0.267  10.987 -0.3498  0.6403 -0.3395
   23SAPC   C15 2981   5.723   0.116  10.824 -0.1205 -0.1372  0.2486
   23SAPC  H15A 2982   5.707   0.033  10.757  3.0577 -0.4556 -0.2911
   23SAPC  H15B 2983   5.730   0.078  10.925 -0.2759  0.1829  0.3796
   23SAPC  H15C 2984   5.632   0.170  10.804 -1.4665 -2.9941 -2.1421
   23SAPC   C11 2985   5.744   0.357  10.617  0.1032 -0.1265 -0.3988
   23SAPC  H11A 2986   5.657   0.335  10.682  0.1852 -0.0842 -0.2735
   23SAPC  H11B 2987   5.717   0.363  10.509  0.6148  1.1429 -0.4632
   23SAPC     P 2988   5.911   0.553  10.561 -0.2564 -0.0874  0.4199
   23SAPC   O13 2989   5.951   0.678  10.624 -0.9646  0.3409  0.2299
   23SAPC   O14 2990   6.020   0.463  10.518 -1.2361  0.1570  0.7195
   23SAPC   O12 2991   5.814   0.478  10.660 -0.4469  0.1421  0.5110
   23SAPC   O11 2992   5.813   0.572  10.432 -0.3635 -0.2315 -0.1805
   23SAPC    C1 2993   5.706   0.662  10.430 -0.7509 -0.1506  0.0227
   23SAPC    HA 2994   5.607   0.616  10.450 -0.4227 -0.2689  1.5259
   23SAPC    HB 2995   5.715   0.736  10.513  0.7300 -2.4244  2.0335
   23SAPC    C2 2996   5.706   0.745  10.297  0.0027 -0.1900  0.5678
   23SAPC    HS 2997   5.636   0.830  10.315 -1.1242 -1.4035  2.2314
   23SAPC   O21 2998   5.666   0.665  10.183 -0.9830 -0.2168 -0.5263
   23SAPC   C21 2999   5.537   0.635  10.169  0.4153 -0.1450  0.6547
   23SAPC   O22 3000   5.445   0.674  10.235  0.6178 -0.3018  0.0846
   23SAPC   C22 3001   5.516   0.554  10.038 -0.3352  0.0659 -0.9399
   23SAPC   H2R 3002   5.606   0.551   9.973  0.9292 -0.7883  0.7921
   23SAPC   H2S 3003   5.500   0.449  10.071  1.8248  0.6841  2.6396
   23SAPC    C3 3004   5.846   0.806  10.263  0.4276  0.3235 -0.0272
   23SAPC    HX 3005   5.898   0.711  10.239  0.1847  0.3586 -0.7258
   23SAPC    HY 3006   5.891   0.853  10.354 -2.6514  0.3190  1.6321
   23SAPC   O31 3007   5.848   0.889  10.148  0.6311 -0.2350  0.2379
   23SAPC   C31 3008   5.824   1.018  10.162 -0.8598 -0.8326  0.3515
   23SAPC   O32 3009   5.807   1.072  10.272 -0.0879 -0.2743 -0.3060
   23SAPC   C32 3010   5.813   1.097  10.032 -0.3414  0.0067  0.3487
   23SAPC   H2X 3011   5.874   1.189  10.043 -0.4374 -0.1231  2.2837
   23SAPC   H2Y 3012   5.709   1.124  10.005 -0.1289  0.3073 -0.1809
   23SAPC   C23 3013   5.386   0.599   9.963 -0.7900  0.4180  0.5568
   23SAPC   H3R 3014   5.404   0.706   9.936  1.0758  0.0811  0.3064
   23SAPC   H3S 3015   5.292   0.581  10.018 -1.3115  0.5189 -0.2912
   23SAPC   C24 3016   5.360   0.526   9.822  0.1272 -0.4920  0.8204
   23SAPC   H4R 3017   5.317   0.426   9.846  2.2281 -1.4734  0.7327
   23SAPC   H4S 3018   5.464   0.508   9.785  1.0899  1.9582  2.1562
   23SAPC   C25 3019   5.264   0.603   9.730 -0.4506 -0.3578  0.3555
   23SAPC   H5R 3020   5.176   0.645   9.781 -1.2494 -0.4290 -0.9005
   23SAPC   C26 3021   5.293   0.651   9.606  0.4829 -0.5047 -0.0408
   23SAPC   H6R 3022   5.218   0.718   9.562  0.9783 -0.8326 -1.4616
   23SAPC   C27 3023   5.414   0.629   9.523 -0.6691  0.4957 -0.4350
   23SAPC   H7R 3024   5.494   0.594   9.592 -0.9163  0.8916  0.0552
   23SAPC   H7S 3025   5.441   0.728   9.480  0.4263 -0.7284 -2.7691
   23SAPC   C28 3026   5.380   0.533   9.411 -0.1546  0.4347 -0.5923
   23SAPC   H8R 3027   5.353   0.429   9.436  2.1977 -0.4539 -1.4036
   23SAPC   C29 3028   5.381   0.559   9.281  0.2791 -0.2450  0.6782
   23SAPC   H9R 3029   5.360   0.478   9.210  0.6069 -0.9469  1.3601
   23SAPC  C210 3030   5.419   0.693   9.219  0.0834  0.2984 -0.6937
   23SAPC  H10R 3031   5.508   0.727   9.277  0.3133 -1.2639 -0.1021
   23SAPC  H10S 3032   5.334   0.763   9.234  2.6899  3.7497 -0.7050
   23SAPC  C211 3033   5.453   0.679   9.069 -0.5067 -1.5079  0.1214
   23SAPC  H11R 3034   5.548   0.636   9.036 -0.6372 -0.4012 -1.7994
   23SAPC  C212 3035   5.379   0.720   8.965 -0.4271 -0.0133  1.2819
   23SAPC  H12R 3036   5.426   0.722   8.865  0.5883  2.8857  1.7385
   23SAPC  C213 3037   5.253   0.804   8.963 -0.0958  0.2263 -0.0895
   23SAPC  H13R 3038   5.244   0.855   9.061  1.2925 -0.4983  0.4433
   23SAPC  H13S 3039   5.171   0.729   8.965 -0.6076  0.7720 -0.5349
   23SAPC  C214 3040   5.238   0.903   8.854  0.4754 -1.0974 -0.5891
   23SAPC  H14R 3041   5.277   1.002   8.884 -0.8313 -0.6229 -0.3539
   23SAPC  C215 3042   5.192   0.886   8.727  0.4710  0.7801  0.2983
   23SAPC  H15R 3043   5.192   0.972   8.658 -1.0081  0.8673  0.3721
   23SAPC  C216 3044   5.135   0.761   8.673 -0.2850 -0.4929 -0.3781
   23SAPC  H16R 3045   5.040   0.788   8.621 -1.2863 -1.2737  0.9856
   23SAPC  H16S 3046   5.116   0.691   8.757 -0.9927  0.6821  0.4788
   23SAPC  C217 3047   5.235   0.700   8.567 -1.0018  0.3502 -0.4956
   23SAPC  H17R 3048   5.210   0.596   8.537 -1.2001  0.2405  0.0420
   23SAPC  H17S 3049   5.334   0.696   8.617 -0.4050 -1.5540 -1.7517
   23SAPC  C218 3050   5.238   0.777   8.430 -0.4515 -0.3089 -0.1788
   23SAPC  H18R 3051   5.281   0.876   8.455 -0.8116  0.3943 -2.1076
   23SAPC  H18S 3052   5.135   0.798   8.392 -1.3014 -0.4828  1.9001
   23SAPC  C219 3053   5.320   0.707   8.320  0.3515 -0.6028 -0.0614
   23SAPC  H19R 3054   5.337   0.780   8.238  0.1875 -0.6504 -0.1382
   23SAPC  H19S 3055   5.271   0.616   8.280 -0.4904 -0.3293  0.3076
   23SAPC  C220 3056   5.459   0.667   8.361  0.1728  0.2638 -0.1368
   23SAPC  H20R 3057   5.521   0.749   8.403  0.5331 -0.1768  0.2002
   23SAPC  H20S 3058   5.509   0.612   8.278  0.0319  0.3584 -0.2858
   23SAPC  H20T 3059   5.456   0.589   8.440 -1.4771 -0.6100 -1.0206
   23SAPC   C33 3060   5.870   1.022   9.912  0.9480 -0.2100  0.0491
   23SAPC   H3X 3061   5.849   0.913   9.920 -0.8962  0.0101 -1.0824
   23SAPC   H3Y 3062   5.980   1.028   9.904  0.9466  1.0617  0.7127
   23SAPC   C34 3063   5.800   1.053   9.780  0.2000  0.2883  0.3615
   23SAPC   H4X 3064   5.792   1.164   9.767 -0.5402  0.4020  1.5962
   23SAPC   H4Y 3065   5.695   1.018   9.787  0.3953 -1.2971 -2.9150
   23SAPC   C35 3066   5.883   1.010   9.654  0.2816  0.6374  0.1346
   23SAPC   H5X 3067   5.915   0.905   9.669 -2.2354 -0.5809 -2.1751
   23SAPC   H5Y 3068   5.973   1.075   9.651  1.3360 -0.6729  1.3922
   23SAPC   C36 3069   5.812   1.011   9.523  0.7011 -0.5348 -0.0219
   23SAPC   H6X 3070   5.774   1.111   9.496  2.6346  0.3457  0.3219
   23SAPC   H6Y 3071   5.731   0.936   9.515  1.1702 -0.7968 -3.5149
   23SAPC   C37 3072   5.910   0.982   9.416 -0.2057  0.4248 -0.4951
   23SAPC   H7X 3073   5.952   0.879   9.423 -1.1130  0.0159 -0.8854
   23SAPC   H7Y 3074   5.998   1.049   9.422  1.1645 -1.2738 -0.8242
   23SAPC   C38 3075   5.837   1.002   9.277  0.0769  0.0698 -0.7459
   23SAPC   H8X 3076   5.826   1.113   9.280  0.7197  0.2635  4.5322
   23SAPC   H8Y 3077   5.734   0.961   9.280  0.5807 -1.1984  1.6674
   23SAPC   C39 3078   5.912   0.937   9.165 -0.6482 -0.2230 -0.0695
   23SAPC   H9X 3079   5.908   0.828   9.185  4.1136 -0.0563  3.6616
   23SAPC   H9Y 3080   6.017   0.971   9.173 -0.6556 -0.4311  1.1738
   23SAPC  C310 3081   5.863   0.968   9.020  0.0154  0.1479  0.0755
   23SAPC  H10X 3082   5.932   0.909   8.955 -0.7527 -1.3587  0.5674
   23SAPC  H10Y 3083   5.869   1.077   9.000 -1.4482 -0.1686 -2.6554
   23SAPC  C311 3084   5.724   0.916   8.990  0.0620 -0.6032  0.7039
   23SAPC  H11X 3085   5.644   0.977   9.037 -1.5507 -1.5837 -0.6379
   23SAPC  H11Y 3086   5.719   0.810   9.024 -2.8479 -1.4302 -1.8070
   23SAPC  C312 3087   5.683   0.908   8.837 -0.3465 -0.1270  0.3491
   23SAPC  H12X 3088   5.590   0.848   8.836  0.0990 -0.9760  3.2338
   23SAPC  H12Y 3089   5.755   0.841   8.785 -0.3347 -0.3694  0.6780
   23SAPC  C313 3090   5.674   1.039   8.760 -0.3381 -0.8922 -0.6064
   23SAPC  H13X 3091   5.781   1.068   8.751  0.1354 -2.4705 -0.4746
   23SAPC  H13Y 3092   5.631   1.111   8.833  2.1687 -1.6644  1.8208
   23SAPC  C314 3093   5.589   1.030   8.632  0.2928  0.3248 -0.0078
   23SAPC  H14X 3094   5.486   0.994   8.651  0.4894 -0.9056 -1.0753
   23SAPC  H14Y 3095   5.644   0.962   8.563  1.0942 -0.5623  1.4490
   23SAPC  C315 3096   5.580   1.166   8.557  0.4272  0.4041 -0.5125
   23SAPC  H15X 3097   5.684   1.202   8.539  0.8261  0.0066  0.8790
   23SAPC  H15Y 3098   5.538   1.240   8.629 -3.8847 -0.9638 -1.3452
   23SAPC  C316 3099   5.493   1.171   8.430 -0.5545 -0.6784  0.1960
   23SAPC  H16X 3100   5.468   1.273   8.394 -0.9455 -0.6245  0.6051
   23SAPC  H16Y 3101   5.394   1.128   8.458 -2.4064  0.3332 -3.9130
   23SAPC  C317 3102   5.555   1.088   8.314  0.0927 -0.4297 -0.0054
   23SAPC  H17X 3103   5.556   0.978   8.334  0.7931 -0.1362  1.7477
   23SAPC  H17Y 3104   5.654   1.132   8.291 -0.3671  0.9954  0.6526
   23SAPC  C318 3105   5.475   1.103   8.185 -0.2283  0.4557 -0.2764
   23SAPC  H18X 3106   5.379   1.049   8.197 -0.4980  0.7856 -0.9102
   23SAPC  H18Y 3107   5.529   1.059   8.099 -2.4469 -1.2896 -0.8773
   23SAPC  H18Z 3108   5.460   1.211   8.164  0.7592  0.4099 -1.3058
   24SAPC     N 3109   2.317   2.228  11.167  0.4435 -0.3978 -0.0807
   24SAPC   C12 3110   2.211   2.336  11.142 -0.7243  0.0312 -0.5330
   24SAPC  H12A 3111   2.273   2.423  11.125  2.3736 -2.3546 -2.6693
   24SAPC  H12B 3112   2.159   2.359  11.233 -1.6719  0.6313 -1.2116
   24SAPC   C13 3113   2.406   2.278  11.270 -0.2320  0.0615 -0.8212
   24SAPC  H13A 3114   2.467   2.362  11.241 -0.3589  0.4997  0.1394
   24SAPC  H13B 3115   2.361   2.303  11.365  2.2602  0.6645  0.2960
   24SAPC  H13C 3116   2.467   2.195  11.301 -0.8003 -0.2040 -0.4009
   24SAPC   C14 3117   2.262   2.095  11.216 -0.2843 -0.0457 -0.2442
   24SAPC  H14A 3118   2.332   2.018  11.242 -0.6003 -0.3331 -0.2294
   24SAPC  H14B 3119   2.206   2.124  11.304  0.6084  0.8085  0.0568
   24SAPC  H14C 3120   2.186   2.061  11.146 -1.5763 -2.5080  2.1827
   24SAPC   C15 3121   2.389   2.215  11.037 -0.0645 -0.3969 -0.8181
   24SAPC  H15A 3122   2.320   2.232  10.955 -0.6242 -1.4872 -0.5947
   24SAPC  H15B 3123   2.448   2.305  11.026 -1.0323  0.2060 -1.2612
   24SAPC  H15C 3124   2.451   2.129  11.019  1.6649  0.5230  0.4488
   24SAPC   C11 3125   2.093   2.308  11.050 -0.2499  0.0468  0.0804
   24SAPC  H11A 3126   2.022   2.393  11.044  1.8844  1.8497 -0.8187
   24SAPC  H11B 3127   2.044   2.230  11.113  3.4238  0.1680  3.5294
   24SAPC     P 3128   2.076   2.124  10.858 -0.0081  0.1928  0.2945
   24SAPC   O13 3129   2.168   2.013  10.881 -0.1358  0.9196  0.4876
   24SAPC   O14 3130   1.940   2.109  10.910 -0.3897  0.2242  0.2769
   24SAPC   O12 3131   2.133   2.267  10.919  0.0544  0.5604 -0.5044
   24SAPC   O11 3132   2.066   2.159  10.700  0.3476 -0.1266  0.1186
   24SAPC    C1 3133   1.983   2.257  10.643 -0.5501 -0.4802 -0.2132
   24SAPC    HA 3134   1.886   2.262  10.697  0.5094  1.5076  1.7170
   24SAPC    HB 3135   2.031   2.357  10.646 -2.2390  0.3986 -0.9458
   24SAPC    C2 3136   1.949   2.241  10.489 -0.1298  0.3199  0.2647
   24SAPC    HS 3137   1.915   2.339  10.450 -1.5246 -0.8832 -1.7042
   24SAPC   O21 3138   1.843   2.134  10.467 -0.3371 -0.6811 -0.1376
   24SAPC   C21 3139   1.722   2.176  10.500 -0.2504 -0.5226  0.0830
   24SAPC   O22 3140   1.685   2.289  10.527 -0.7046  0.0734 -0.5180
   24SAPC   C22 3141   1.628   2.053  10.512  0.5813 -1.1994  0.1885
   24SAPC   H2R 3142   1.670   1.994  10.597  0.3473 -0.3885  0.8811
   24SAPC   H2S 3143   1.537   2.110  10.540  1.0444 -0.9352  1.2095
   24SAPC    C3 3144   2.083   2.201  10.422 -0.4151  0.3688  0.7116
   24SAPC    HX 3145   2.063   2.182  10.315  1.6645  2.3868 -0.1078
   24SAPC    HY 3146   2.119   2.103  10.458 -0.5295 -1.6971 -4.0640
   24SAPC   O31 3147   2.182   2.313  10.430 -0.1250  0.6362  0.2254
   24SAPC   C31 3148   2.286   2.289  10.348 -0.0318 -0.0848 -0.1805
   24SAPC   O32 3149   2.306   2.188  10.279 -0.0557 -0.4327 -0.2287
   24SAPC   C32 3150   2.392   2.399  10.364  0.0226  0.1304 -0.4892
   24SAPC   H2X 3151   2.470   2.385  10.286 -1.3222 -4.6241 -1.2877
   24SAPC   H2Y 3152   2.446   2.371  10.456  0.2288  0.4954 -0.4968
   24SAPC   C23 3153   1.625   1.966  10.384 -1.1059  0.3569  0.0741
   24SAPC   H3R 3154   1.582   1.867  10.411 -0.9103  0.6612  1.5854
   24SAPC   H3S 3155   1.732   1.945  10.360 -1.0668 -1.7325  1.7161
   24SAPC   C24 3156   1.557   2.024  10.252  0.1054 -0.1004  0.6239
   24SAPC   H4R 3157   1.595   1.950  10.178  3.0105  2.3118 -0.4585
   24SAPC   H4S 3158   1.618   2.115  10.241  0.2796 -0.4668 -2.2929
   24SAPC   C25 3159   1.405   2.043  10.243  0.6334  0.4941 -1.0261
   24SAPC   H5R 3160   1.344   2.053  10.333 -1.3537  3.0209 -2.4946
   24SAPC   C26 3161   1.336   2.026  10.134 -0.2465  0.3155  0.7610
   24SAPC   H6R 3162   1.227   2.031  10.141 -0.3467  1.3556 -0.8985
   24SAPC   C27 3163   1.379   1.985   9.998 -0.3554 -0.3201  0.3951
   24SAPC   H7R 3164   1.426   1.884   9.999 -0.4312 -0.3699 -0.3622
   24SAPC   H7S 3165   1.451   2.062   9.963 -0.2106 -0.2235  0.8980
   24SAPC   C28 3166   1.261   1.966   9.909  0.5850 -0.5188  0.0843
   24SAPC   H8R 3167   1.170   1.931   9.960 -1.1377  1.3553 -1.5035
   24SAPC   C29 3168   1.256   1.977   9.768 -0.9921 -0.5196  0.6980
   24SAPC   H9R 3169   1.165   1.955   9.711 -0.1758 -2.6934  0.1540
   24SAPC  C210 3170   1.370   2.007   9.674  0.2624 -0.0674 -0.1255
   24SAPC  H10R 3171   1.460   2.035   9.733  0.2533  1.3946 -0.7657
   24SAPC  H10S 3172   1.344   2.089   9.603 -0.4113  0.4179  0.6630
   24SAPC  C211 3173   1.398   1.875   9.610  0.1106  0.5302  0.0877
   24SAPC  H11R 3174   1.445   1.799   9.675 -1.0411  0.7953  1.2771
   24SAPC  C212 3175   1.372   1.830   9.484  0.8059 -0.8689 -0.1330
   24SAPC  H12R 3176   1.410   1.732   9.451 -1.1133 -1.4633 -0.6718
   24SAPC  C213 3177   1.304   1.914   9.374 -0.2787 -0.0271 -0.2424
   24SAPC  H13R 3178   1.275   2.016   9.407 -0.5080  0.8707 -3.0161
   24SAPC  H13S 3179   1.204   1.876   9.344  0.4746 -2.1259 -0.2847
   24SAPC  C214 3180   1.403   1.930   9.257  0.2671  0.9995  0.1225
   24SAPC  H14R 3181   1.498   1.983   9.277  0.9768 -0.4416  0.6907
   24SAPC  C215 3182   1.377   1.898   9.129 -0.0508  0.3979  0.6227
   24SAPC  H15R 3183   1.456   1.918   9.055 -0.4939 -3.2297 -1.0107
   24SAPC  C216 3184   1.251   1.847   9.068  0.1895  0.2626 -0.0582
   24SAPC  H16R 3185   1.164   1.871   9.133 -1.8261 -0.5186 -2.3079
   24SAPC  H16S 3186   1.256   1.737   9.058 -0.4242  0.1846  0.4352
   24SAPC  C217 3187   1.205   1.906   8.931 -0.0979  0.5052 -1.0856
   24SAPC  H17R 3188   1.189   2.015   8.945 -0.3125  0.3784 -0.3009
   24SAPC  H17S 3189   1.104   1.870   8.905  0.2130 -0.8119 -0.5380
   24SAPC  C218 3190   1.299   1.860   8.828 -0.4517  0.2144 -0.2854
   24SAPC  H18R 3191   1.296   1.749   8.830  0.5274  0.1777  1.1353
   24SAPC  H18S 3192   1.404   1.888   8.851  0.3017 -2.7074  0.3193
   24SAPC  C219 3193   1.258   1.896   8.686 -0.2433 -0.3551 -0.1339
   24SAPC  H19R 3194   1.250   2.006   8.678 -1.1095 -0.1483  2.4765
   24SAPC  H19S 3195   1.158   1.858   8.655 -0.0953 -0.1600 -0.8492
   24SAPC  C220 3196   1.364   1.855   8.590 -0.5344 -0.0368  0.2172
   24SAPC  H20R 3197   1.321   1.872   8.489  2.4952  2.0520 -0.8399
   24SAPC  H20S 3198   1.380   1.745   8.593 -1.8692 -0.3035 -1.3493
   24SAPC  H20T 3199   1.454   1.919   8.597 -1.2547  0.9868  0.4081
   24SAPC   C33 3200   2.344   2.547  10.348  0.3502  0.1297 -0.1562
   24SAPC   H3X 3201   2.437   2.608  10.347  0.5432 -0.1593 -0.9333
   24SAPC   H3Y 3202   2.272   2.581  10.426  0.1725  1.0032 -0.6796
   24SAPC   C34 3203   2.269   2.585  10.218  0.1452  0.0402  0.1924
   24SAPC   H4X 3204   2.253   2.695  10.224  2.0545  0.2852  2.0547
   24SAPC   H4Y 3205   2.168   2.540  10.213  0.2583 -0.0789 -1.1993
   24SAPC   C35 3206   2.349   2.550  10.093 -0.2361 -0.5952 -0.1050
   24SAPC   H5X 3207   2.452   2.517  10.121 -0.3361  0.0208  1.0527
   24SAPC   H5Y 3208   2.362   2.638  10.026 -1.5306 -0.4711 -0.2168
   24SAPC   C36 3209   2.290   2.445  10.003 -0.0353  0.1695  0.1001
   24SAPC   H6X 3210   2.200   2.479   9.947 -1.1137 -2.6601 -0.0343
   24SAPC   H6Y 3211   2.248   2.359  10.059 -1.2078 -0.7639 -2.0716
   24SAPC   C37 3212   2.392   2.388   9.896  0.1886 -0.5971 -0.4788
   24SAPC   H7X 3213   2.479   2.341   9.948 -0.0171 -0.2799  0.1625
   24SAPC   H7Y 3214   2.435   2.469   9.835 -0.7703 -1.9285 -3.0809
   24SAPC   C38 3215   2.322   2.286   9.811 -0.3458 -0.2708  0.1258
   24SAPC   H8X 3216   2.243   2.339   9.753  1.0395  0.2732 -1.3379
   24SAPC   H8Y 3217   2.270   2.210   9.873  1.0865 -0.9740  0.5048
   24SAPC   C39 3218   2.414   2.221   9.706 -0.1348  1.1204  0.4937
   24SAPC   H9X 3219   2.484   2.154   9.761  2.0001  1.8172 -1.1894
   24SAPC   H9Y 3220   2.481   2.299   9.662  1.5196  0.6039  1.9707
   24SAPC  C310 3221   2.340   2.136   9.604  0.2771  0.4042 -0.2752
   24SAPC  H10X 3222   2.241   2.107   9.644 -0.1845  0.7184 -1.1493
   24SAPC  H10Y 3223   2.409   2.051   9.587 -1.7153 -1.1763 -0.7852
   24SAPC  C311 3224   2.314   2.215   9.475 -0.5242  0.4853  0.3707
   24SAPC  H11X 3225   2.404   2.271   9.442 -1.1706  1.6043  0.4676
   24SAPC  H11Y 3226   2.243   2.295   9.505 -3.1204 -0.8002 -1.9514
   24SAPC  C312 3227   2.243   2.135   9.370  0.4720 -0.1164  0.0968
   24SAPC  H12X 3228   2.166   2.069   9.416 -0.7975  2.6048  2.1357
   24SAPC  H12Y 3229   2.311   2.051   9.344 -0.3242 -1.6204  2.5031
   24SAPC  C313 3230   2.182   2.217   9.246 -0.1293  0.2778 -0.4145
   24SAPC  H13X 3231   2.256   2.287   9.203 -0.4910  0.2237 -1.1253
   24SAPC  H13Y 3232   2.093   2.271   9.285 -0.4218 -0.4328 -0.0831
   24SAPC  C314 3233   2.150   2.124   9.125  0.2348 -0.1725 -0.0188
   24SAPC  H14X 3234   2.241   2.102   9.064  0.9507 -0.4181  1.1020
   24SAPC  H14Y 3235   2.077   2.172   9.057  0.2089 -0.5345 -0.2543
   24SAPC  C315 3236   2.081   1.989   9.166 -0.5544 -0.1239 -0.7931
   24SAPC  H15X 3237   1.998   2.015   9.235  1.1373  0.9579  0.9306
   24SAPC  H15Y 3238   2.154   1.928   9.223 -1.0747  2.1066  2.5240
   24SAPC  C316 3239   2.022   1.906   9.057  0.3460  0.5053 -0.0299
   24SAPC  H16X 3240   1.979   1.962   8.971  1.6613  1.6167 -0.0151
   24SAPC  H16Y 3241   1.948   1.832   9.092  2.1120 -1.2395  0.2176
   24SAPC  C317 3242   2.126   1.806   8.990  0.6478 -0.6603  0.2855
   24SAPC  H17X 3243   2.176   1.753   9.074  0.2438  0.2177  1.1024
   24SAPC  H17Y 3244   2.202   1.870   8.942 -0.4339 -1.6654 -3.0262
   24SAPC  C318 3245   2.065   1.706   8.888  0.2492 -0.1410  1.2299
   24SAPC  H18X 3246   2.046   1.758   8.792  0.1583  0.4101  1.5437
   24SAPC  H18Y 3247   1.963   1.676   8.921  0.0674  1.2902  2.0354
   24SAPC  H18Z 3248   2.128   1.615   8.875 -0.4417 -0.4910  0.1283
   25SAPC     N 3249   5.124   4.517   5.977  0.5575  0.1279  0.6111
   25SAPC   C12 3250   5.166   4.371   5.971  0.3878 -0.1779  0.1848
   25SAPC  H12A 3251   5.172   4.330   6.070  3.3923 -1.4457 -0.3979
   25SAPC  H12B 3252   5.255   4.377   5.910 -0.0778  2.6224 -0.3578
   25SAPC   C13 3253   4.996   4.538   6.056  0.4877 -0.0821  0.2476
   25SAPC  H13A 3254   4.923   4.497   5.989  2.0411 -0.1667 -1.4804
   25SAPC  H13B 3255   5.000   4.486   6.151  0.4839 -0.1109  0.2320
   25SAPC  H13C 3256   4.975   4.643   6.067  0.6940 -0.0055 -0.0908
   25SAPC   C14 3257   5.230   4.588   6.052  0.7023  0.2916  0.0459
   25SAPC  H14A 3258   5.258   4.526   6.136 -0.7743 -0.2086  0.1881
   25SAPC  H14B 3259   5.317   4.596   5.987 -0.1667 -2.1185 -1.5906
   25SAPC  H14C 3260   5.204   4.687   6.084  1.9642  1.1657 -1.5084
   25SAPC   C15 3261   5.117   4.590   5.850 -0.5896  0.2708 -0.1881
   25SAPC  H15A 3262   5.042   4.551   5.784 -0.6341  1.3574 -0.8073
   25SAPC  H15B 3263   5.101   4.697   5.855  0.2800  0.3775  0.8784
   25SAPC  H15C 3264   5.212   4.583   5.798 -0.4422 -0.9957  0.2147
   25SAPC   C11 3265   5.080   4.278   5.888  0.0961 -0.0218  0.2275
   25SAPC  H11A 3266   5.123   4.178   5.867 -1.2042 -0.2969 -1.2651
   25SAPC  H11B 3267   5.091   4.319   5.786  2.6050  1.5082  1.0382
   25SAPC     P 3268   4.904   4.157   6.038  0.2644 -0.0110 -0.4487
   25SAPC   O13 3269   4.784   4.211   6.104 -0.3891  0.3613 -0.2921
   25SAPC   O14 3270   4.896   4.026   5.971 -0.2046  0.2733 -0.0236
   25SAPC   O12 3271   4.944   4.269   5.932 -0.8774 -0.8347 -0.3126
   25SAPC   O11 3272   5.021   4.146   6.142 -0.0220 -0.5466  0.1702
   25SAPC    C1 3273   5.014   4.186   6.277 -0.4431 -0.6252  0.3228
   25SAPC    HA 3274   5.106   4.246   6.295 -0.3117 -0.8683  0.4675
   25SAPC    HB 3275   4.922   4.243   6.301 -0.6688 -1.3221  1.1820
   25SAPC    C2 3276   5.015   4.064   6.372 -0.3916 -0.6090 -0.0101
   25SAPC    HS 3277   5.115   4.020   6.351  0.8205  2.6952 -1.9095
   25SAPC   O21 3278   4.918   3.965   6.332 -0.2261  0.5919 -0.5739
   25SAPC   C21 3279   4.938   3.841   6.367 -0.1511 -0.7607 -0.0295
   25SAPC   O22 3280   5.044   3.800   6.413  0.0293 -0.2876  0.5016
   25SAPC   C22 3281   4.821   3.758   6.313 -0.5099  0.2449  0.1153
   25SAPC   H2R 3282   4.735   3.826   6.294 -1.3918 -1.0082 -0.5088
   25SAPC   H2S 3283   4.849   3.695   6.226  0.1962 -0.4293  0.8237
   25SAPC    C3 3284   4.990   4.123   6.513 -0.3554 -0.4417 -0.0741
   25SAPC    HX 3285   4.885   4.157   6.509 -0.4933  0.0290  3.6597
   25SAPC    HY 3286   5.069   4.199   6.530 -0.6109  0.2994 -1.9481
   25SAPC   O31 3287   4.997   4.013   6.605  0.1978  0.4725  0.2273
   25SAPC   C31 3288   5.117   3.983   6.651  0.4365 -0.0731  0.0460
   25SAPC   O32 3289   5.225   4.037   6.624 -0.4745  0.8172 -0.3616
   25SAPC   C32 3290   5.097   3.858   6.741  0.1444  0.2504 -0.0331
   25SAPC   H2X 3291   5.081   3.764   6.686  0.9370 -1.2019  2.0589
   25SAPC   H2Y 3292   5.012   3.875   6.810 -0.8067  0.0249 -1.1393
   25SAPC   C23 3293   4.756   3.662   6.414  0.2038  0.2479  0.2512
   25SAPC   H3R 3294   4.832   3.592   6.453  0.8261  1.0678  0.5396
   25SAPC   H3S 3295   4.679   3.602   6.359  2.0575 -2.2902  0.2485
   25SAPC   C24 3296   4.683   3.726   6.535 -0.2463  0.0405  0.0278
   25SAPC   H4R 3297   4.622   3.650   6.589  1.7539 -1.4786  0.2792
   25SAPC   H4S 3298   4.617   3.805   6.494  0.0795 -0.2605 -1.1233
   25SAPC   C25 3299   4.765   3.788   6.647 -0.0635 -0.6493  0.5495
   25SAPC   H5R 3300   4.869   3.758   6.666 -0.4722 -2.2968  0.2642
   25SAPC   C26 3301   4.721   3.885   6.733  0.6883  0.2531 -0.1756
   25SAPC   H6R 3302   4.788   3.918   6.813  1.5497  0.4481 -0.9583
   25SAPC   C27 3303   4.582   3.950   6.739 -0.0985  0.7363  0.0713
   25SAPC   H7R 3304   4.525   3.935   6.833 -0.3104  2.5886  0.2821
   25SAPC   H7S 3305   4.519   3.896   6.664  1.3307 -0.6137 -0.2131
   25SAPC   C28 3306   4.574   4.094   6.697  0.0861 -0.0202  0.0624
   25SAPC   H8R 3307   4.504   4.115   6.614  0.7397  3.1633  0.1858
   25SAPC   C29 3308   4.628   4.198   6.765  0.6378  0.2331  0.0680
   25SAPC   H9R 3309   4.601   4.299   6.731 -2.0889  0.2563  2.0249
   25SAPC  C210 3310   4.704   4.182   6.888 -0.9254 -0.2466 -0.8203
   25SAPC  H10R 3311   4.691   4.082   6.935  0.7425 -0.1863 -0.1509
   25SAPC  H10S 3312   4.654   4.235   6.972  0.3970 -0.5725  0.2117
   25SAPC  C211 3313   4.858   4.218   6.891  0.1804 -1.0041  0.7336
   25SAPC  H11R 3314   4.894   4.241   6.789  0.3388 -4.5405 -0.1280
   25SAPC  C212 3315   4.944   4.216   6.995 -0.1989  0.0185 -0.2440
   25SAPC  H12R 3316   5.045   4.257   6.978 -0.6340  0.4020 -2.1412
   25SAPC  C213 3317   4.907   4.168   7.137 -0.1987 -0.1909  0.2829
   25SAPC  H13R 3318   4.816   4.219   7.175  1.2752  0.2890  3.4204
   25SAPC  H13S 3319   4.977   4.216   7.208 -1.9410  1.4855  0.9529
   25SAPC  C214 3320   4.900   4.024   7.171 -0.0612  0.1895  0.4504
   25SAPC  H14R 3321   4.800   3.978   7.166 -0.3464  0.7562  0.8271
   25SAPC  C215 3322   5.004   3.945   7.207  0.1750 -0.3208 -0.4521
   25SAPC  H15R 3323   4.998   3.839   7.237  1.1366  0.0394  1.1364
   25SAPC  C216 3324   5.147   3.991   7.225  0.3828 -0.3131 -0.4636
   25SAPC  H16R 3325   5.162   4.074   7.153  0.9734  0.0998  0.1233
   25SAPC  H16S 3326   5.217   3.913   7.191  0.6793  1.1322 -3.4529
   25SAPC  C217 3327   5.181   4.042   7.367  0.3629 -0.4226 -0.0899
   25SAPC  H17R 3328   5.108   4.116   7.405  1.0805  0.7843 -0.9753
   25SAPC  H17S 3329   5.276   4.098   7.379 -0.0399  0.5354 -1.2400
   25SAPC  C218 3330   5.187   3.919   7.471 -0.1453  0.5772 -0.3058
   25SAPC  H18R 3331   5.289   3.877   7.463 -0.0183  0.7517  0.3317
   25SAPC  H18S 3332   5.117   3.839   7.439  1.0688 -1.3544  1.5743
   25SAPC  C219 3333   5.150   3.967   7.618  0.0416  0.4272  0.2426
   25SAPC  H19R 3334   5.144   3.875   7.680  0.2077 -0.1775 -0.6220
   25SAPC  H19S 3335   5.045   4.004   7.621 -1.0374 -2.4441  0.5665
   25SAPC  C220 3336   5.250   4.064   7.676  0.5361 -0.2456 -0.2420
   25SAPC  H20R 3337   5.268   4.160   7.623  1.8891  1.8549  3.6561
   25SAPC  H20S 3338   5.347   4.014   7.694  0.0497 -1.3314 -0.4993
   25SAPC  H20T 3339   5.212   4.094   7.776  0.7331 -0.8345  0.0185
   25SAPC   C33 3340   5.217   3.823   6.835  0.5896  0.8242  0.3122
   25SAPC   H3X 3341   5.254   3.917   6.881 -2.3696  2.3107 -0.0775
   25SAPC   H3Y 3342   5.299   3.797   6.765  0.7218  2.3645 -0.1553
   25SAPC   C34 3343   5.182   3.712   6.942 -0.2561  0.0140  0.6184
   25SAPC   H4X 3344   5.118   3.634   6.895 -1.4995  2.3827 -1.8979
   25SAPC   H4Y 3345   5.115   3.771   7.009  0.8445  0.0571  1.7121
   25SAPC   C35 3346   5.309   3.654   7.012 -0.8409  0.1531 -0.2097
   25SAPC   H5X 3347   5.352   3.744   7.061  0.6759 -0.5062 -0.2889
   25SAPC   H5Y 3348   5.381   3.619   6.934  0.4158 -0.6415  1.2526
   25SAPC   C36 3349   5.276   3.547   7.114 -0.3473 -0.2110 -0.4080
   25SAPC   H6X 3350   5.352   3.466   7.120  0.5303  0.6039 -0.3107
   25SAPC   H6Y 3351   5.179   3.500   7.088 -0.6542 -0.9909  1.8910
   25SAPC   C37 3352   5.263   3.591   7.266 -0.3526 -0.2006 -0.0693
   25SAPC   H7X 3353   5.185   3.669   7.283 -0.3954 -0.0430 -0.9502
   25SAPC   H7Y 3354   5.355   3.647   7.292 -1.3670  1.3540  0.3309
   25SAPC   C38 3355   5.248   3.471   7.358  0.4328  0.4227  0.3397
   25SAPC   H8X 3356   5.349   3.424   7.363 -0.0044 -0.7825 -1.2729
   25SAPC   H8Y 3357   5.184   3.407   7.294  0.5829  0.7111 -0.1047
   25SAPC   C39 3358   5.211   3.520   7.501 -0.3117  0.4053  0.1889
   25SAPC   H9X 3359   5.119   3.582   7.497  0.7116  1.9492 -0.5529
   25SAPC   H9Y 3360   5.287   3.592   7.539 -0.5876  1.1897 -0.7212
   25SAPC  C310 3361   5.214   3.410   7.607  0.1645 -0.1343 -0.0480
   25SAPC  H10X 3362   5.312   3.359   7.613 -0.0253 -0.6545 -1.1033
   25SAPC  H10Y 3363   5.145   3.331   7.571 -1.1427  0.7936  0.3389
   25SAPC  C311 3364   5.182   3.457   7.752  0.6873 -0.1911 -0.0695
   25SAPC  H11X 3365   5.085   3.508   7.732 -0.0598 -1.6456 -0.2653
   25SAPC  H11Y 3366   5.259   3.533   7.781  0.6208  0.8660 -2.3987
   25SAPC  C312 3367   5.157   3.346   7.857  0.8876  0.0653  1.0304
   25SAPC  H12X 3368   5.150   3.408   7.948 -1.0166  0.8216  0.4187
   25SAPC  H12Y 3369   5.239   3.271   7.869  0.1310 -0.9197  0.2832
   25SAPC  C313 3370   5.016   3.282   7.862 -0.1517  0.2132  0.6230
   25SAPC  H13X 3371   5.002   3.219   7.772 -1.7682  1.3662  0.0315
   25SAPC  H13Y 3372   4.941   3.363   7.851 -0.3752  0.0823  1.1078
   25SAPC  C314 3373   4.982   3.208   7.990 -0.3220  1.3360 -0.2283
   25SAPC  H14X 3374   4.950   3.281   8.067 -2.0906  1.3261 -0.9034
   25SAPC  H14Y 3375   5.073   3.147   8.010 -0.3496  0.6900 -1.9136
   25SAPC  C315 3376   4.865   3.101   7.967  0.3884  0.7212 -0.0416
   25SAPC  H15X 3377   4.891   3.035   7.882 -0.4427 -1.1927  1.1205
   25SAPC  H15Y 3378   4.772   3.160   7.953 -0.2646 -0.7009 -2.1376
   25SAPC  C316 3379   4.840   3.019   8.095  0.2306  0.0928 -0.4236
   25SAPC  H16X 3380   4.853   3.084   8.184 -2.3819 -0.8243  0.7510
   25SAPC  H16Y 3381   4.917   2.939   8.097  1.6281  1.2551 -3.0992
   25SAPC  C317 3382   4.700   2.965   8.102  0.1112  0.3941  0.3126
   25SAPC  H17X 3383   4.703   2.865   8.150 -0.0298 -0.9180 -2.2539
   25SAPC  H17Y 3384   4.668   2.937   8.000 -3.0310 -1.0377  1.5736
   25SAPC  C318 3385   4.602   3.063   8.161  0.5971  0.6766 -0.4944
   25SAPC  H18X 3386   4.583   3.159   8.108 -0.1746  1.8215  1.7179
   25SAPC  H18Y 3387   4.638   3.080   8.264 -0.5145 -1.4434  0.2963
   25SAPC  H18Z 3388   4.504   3.010   8.165  1.0434 -0.1340 -0.1429
   26SAPC     N 3389   5.502   6.074   5.911  0.0251 -0.2520  1.1674
   26SAPC   C12 3390   5.589   6.195   5.950  0.4644  0.7033  0.2561
   26SAPC  H12A 3391   5.550   6.272   5.884 -2.0199 -0.2139  0.5542
   26SAPC  H12B 3392   5.693   6.173   5.928  0.3349 -0.8145  1.0717
   26SAPC   C13 3393   5.561   6.009   5.788  0.4130 -0.1223  0.9555
   26SAPC  H13A 3394   5.546   6.075   5.704  0.1182 -4.0897 -2.4257
   26SAPC  H13B 3395   5.664   5.977   5.789  0.7995  0.7848 -1.4793
   26SAPC  H13C 3396   5.501   5.925   5.757  1.0433 -0.6724  1.2094
   26SAPC   C14 3397   5.495   5.965   6.010 -0.5881  0.2516 -0.3338
   26SAPC  H14A 3398   5.424   5.888   5.983 -0.3771 -1.2029  2.7769
   26SAPC  H14B 3399   5.595   5.926   6.027  0.5336  2.7142 -0.8175
   26SAPC  H14C 3400   5.451   5.996   6.104  1.9653  1.7808  0.4663
   26SAPC   C15 3401   5.359   6.118   5.875 -0.3182  0.1796 -0.1979
   26SAPC  H15A 3402   5.351   6.171   5.781 -1.3203 -1.7754 -1.2685
   26SAPC  H15B 3403   5.295   6.031   5.876 -3.4101  2.2973  0.8906
   26SAPC  H15C 3404   5.326   6.184   5.954  0.2406  1.0429 -0.6627
   26SAPC   C11 3405   5.575   6.248   6.092 -0.5035 -0.0980 -0.1998
   26SAPC  H11A 3406   5.652   6.327   6.098 -0.8661  0.2296  0.1911
   26SAPC  H11B 3407   5.623   6.169   6.154  2.8399  1.0395 -1.1340
   26SAPC     P 3408   5.385   6.418   6.096 -0.4038 -0.0454  0.7688
   26SAPC   O13 3409   5.468   6.539   6.138 -0.4404  0.1367  0.4205
   26SAPC   O14 3410   5.342   6.406   5.954 -0.5077  0.1747 -0.4180
   26SAPC   O12 3411   5.448   6.285   6.141 -0.4853  0.1264 -0.3476
   26SAPC   O11 3412   5.253   6.425   6.170  0.3934  0.4767  0.6025
   26SAPC    C1 3413   5.198   6.319   6.250 -0.6228  0.4150 -0.1084
   26SAPC    HA 3414   5.087   6.326   6.241 -0.5187  1.5102 -0.6810
   26SAPC    HB 3415   5.216   6.217   6.209  0.8766  1.0329 -1.0604
   26SAPC    C2 3416   5.219   6.325   6.405 -0.1051  0.6435  0.0095
   26SAPC    HS 3417   5.326   6.312   6.432  0.2438  0.9347 -1.1931
   26SAPC   O21 3418   5.134   6.228   6.470  0.4816  0.1392  0.4207
   26SAPC   C21 3419   5.166   6.173   6.582 -0.1315 -0.1308  0.0070
   26SAPC   O22 3420   5.266   6.194   6.649  0.0390 -0.4603  0.5263
   26SAPC   C22 3421   5.040   6.089   6.615 -0.3038  0.3551 -0.2143
   26SAPC   H2R 3422   5.041   6.012   6.535 -1.4036  1.7033 -1.5691
   26SAPC   H2S 3423   5.068   6.039   6.710  0.3419  1.6057  0.2860
   26SAPC    C3 3424   5.175   6.470   6.447 -0.4551  1.2990  0.6750
   26SAPC    HX 3425   5.070   6.475   6.411 -0.4379 -0.1582  0.3809
   26SAPC    HY 3426   5.221   6.542   6.376 -0.1251  0.3142 -0.1341
   26SAPC   O31 3427   5.196   6.504   6.582 -0.2590 -0.2725  0.2873
   26SAPC   C31 3428   5.326   6.530   6.620 -0.3414  0.4162  0.8066
   26SAPC   O32 3429   5.419   6.542   6.542  0.0002  0.1186 -0.1775
   26SAPC   C32 3430   5.332   6.546   6.773 -0.0980  0.4291  0.8286
   26SAPC   H2X 3431   5.351   6.449   6.824  0.7433  0.9932  1.6216
   26SAPC   H2Y 3432   5.232   6.581   6.807  0.0749  0.5292  1.2330
   26SAPC   C23 3433   4.906   6.160   6.632  0.5238  0.7091  0.0005
   26SAPC   H3R 3434   4.826   6.083   6.641  0.6805  0.6572  1.0528
   26SAPC   H3S 3435   4.881   6.217   6.540 -1.7523 -0.9532 -0.4977
   26SAPC   C24 3436   4.907   6.250   6.745 -0.2248  0.1100 -1.0236
   26SAPC   H4R 3437   4.816   6.315   6.743  1.2923  2.7534  3.1221
   26SAPC   H4S 3438   4.996   6.317   6.739 -1.2328  1.6406  0.1838
   26SAPC   C25 3439   4.893   6.185   6.880 -0.2997  0.4128  0.0502
   26SAPC   H5R 3440   4.789   6.169   6.910  0.5420 -2.1686  2.0616
   26SAPC   C26 3441   4.995   6.166   6.964  0.2237 -0.3105  0.2060
   26SAPC   H6R 3442   4.967   6.107   7.053 -0.6287 -0.9474 -0.4567
   26SAPC   C27 3443   5.137   6.197   6.944 -0.1010 -0.6670 -0.6498
   26SAPC   H7R 3444   5.162   6.258   6.855  1.7286  0.1397  0.3677
   26SAPC   H7S 3445   5.205   6.110   6.930  0.2221 -0.3567 -1.0189
   26SAPC   C28 3446   5.192   6.279   7.060 -0.1670 -0.3758 -0.0790
   26SAPC   H8R 3447   5.209   6.385   7.036 -1.2288 -0.1207  0.2442
   26SAPC   C29 3448   5.224   6.250   7.186 -0.0959  0.1812  0.3148
   26SAPC   H9R 3449   5.251   6.331   7.256  0.5971 -0.3665  0.6881
   26SAPC  C210 3450   5.224   6.119   7.258  0.7630  0.0057 -0.1104
   26SAPC  H10R 3451   5.327   6.101   7.296  0.3612 -0.6356  0.7248
   26SAPC  H10S 3452   5.187   6.044   7.184 -0.0063  1.0016 -0.7593
   26SAPC  C211 3453   5.113   6.123   7.355  0.5801  0.8680 -0.2743
   26SAPC  H11R 3454   5.014   6.090   7.319  1.0271  1.7243 -2.4246
   26SAPC  C212 3455   5.133   6.127   7.489 -0.5629  0.3882 -0.0892
   26SAPC  H12R 3456   5.049   6.103   7.557  0.3556 -2.1793  0.2717
   26SAPC  C213 3457   5.267   6.155   7.553 -0.7814 -0.4623  0.7818
   26SAPC  H13R 3458   5.340   6.197   7.481 -1.9559  1.8676  0.8375
   26SAPC  H13S 3459   5.314   6.062   7.591  0.5773  0.3304  1.1311
   26SAPC  C214 3460   5.257   6.261   7.660 -0.0797 -0.0720  0.8123
   26SAPC  H14R 3461   5.197   6.346   7.626  0.9238  0.3792  0.1171
   26SAPC  C215 3462   5.307   6.271   7.784 -0.1531 -0.6213 -0.0275
   26SAPC  H15R 3463   5.290   6.364   7.841 -2.8858 -0.6226 -0.6914
   26SAPC  C216 3464   5.390   6.169   7.859  0.3059  0.7608  1.0829
   26SAPC  H16R 3465   5.493   6.212   7.864  0.7443 -0.0079 -0.6119
   26SAPC  H16S 3466   5.415   6.089   7.786  0.5600  0.1495  1.8316
   26SAPC  C217 3467   5.324   6.121   7.992  0.3874 -0.4271 -0.8162
   26SAPC  H17R 3468   5.381   6.036   8.035  0.2726  0.4952  1.3260
   26SAPC  H17S 3469   5.221   6.085   7.975 -0.8204  3.0305 -1.6039
   26SAPC  C218 3470   5.323   6.222   8.112  0.1696 -0.1710  0.5180
   26SAPC  H18R 3471   5.277   6.174   8.201  1.2823 -2.4279 -0.0319
   26SAPC  H18S 3472   5.249   6.298   8.078  1.3822  1.3588  1.2165
   26SAPC  C219 3473   5.457   6.274   8.156  0.5624  0.0054  0.5018
   26SAPC  H19R 3474   5.545   6.222   8.112  0.1812  1.5637 -2.3635
   26SAPC  H19S 3475   5.472   6.274   8.266  0.8018 -0.3997  0.4696
   26SAPC  C220 3476   5.471   6.427   8.113  0.4777  0.2286  0.4651
   26SAPC  H20R 3477   5.571   6.474   8.115  1.2013 -1.2515  0.3638
   26SAPC  H20S 3478   5.394   6.475   8.176 -1.6700 -1.6119 -0.5964
   26SAPC  H20T 3479   5.444   6.441   8.006 -0.2225 -1.9913  0.3048
   26SAPC   C33 3480   5.447   6.635   6.811 -0.3101 -1.1173  0.3143
   26SAPC   H3X 3481   5.454   6.728   6.750 -0.5951 -1.1127  0.2862
   26SAPC   H3Y 3482   5.546   6.587   6.793  0.1753 -0.7563  1.8882
   26SAPC   C34 3483   5.438   6.690   6.957  0.4276 -0.5613  0.6469
   26SAPC   H4X 3484   5.333   6.723   6.963  0.1327 -1.3259 -0.1498
   26SAPC   H4Y 3485   5.500   6.782   6.961  0.0352 -0.3056  0.9483
   26SAPC   C35 3486   5.471   6.586   7.064  0.0613 -0.8302  0.6394
   26SAPC   H5X 3487   5.569   6.535   7.052 -0.2452 -1.8700  2.2411
   26SAPC   H5Y 3488   5.402   6.500   7.065  0.7260 -1.3674  1.0985
   26SAPC   C36 3489   5.485   6.656   7.201 -0.1088 -0.1380 -0.0217
   26SAPC   H6X 3490   5.388   6.696   7.237  1.2879  2.3484  1.1995
   26SAPC   H6Y 3491   5.556   6.740   7.188  0.4998 -0.6905 -0.3430
   26SAPC   C37 3492   5.525   6.561   7.308  0.6917 -0.2991 -0.4738
   26SAPC   H7X 3493   5.633   6.542   7.289  0.1787 -1.2828 -2.7966
   26SAPC   H7Y 3494   5.458   6.473   7.296 -2.7628  2.2454 -1.6234
   26SAPC   C38 3495   5.504   6.616   7.450 -0.0813  0.2699 -0.7374
   26SAPC   H8X 3496   5.400   6.653   7.464  0.3056  0.7951  1.0328
   26SAPC   H8Y 3497   5.574   6.700   7.468  0.3237  0.0972 -1.4742
   26SAPC   C39 3498   5.516   6.506   7.567 -0.1063 -0.0549  1.7235
   26SAPC   H9X 3499   5.460   6.415   7.535  1.7794 -0.5251 -0.5599
   26SAPC   H9Y 3500   5.476   6.555   7.658  2.0638  2.2657  1.5472
   26SAPC  C310 3501   5.661   6.470   7.591 -0.0077 -0.1175 -0.6909
   26SAPC  H10X 3502   5.717   6.565   7.601  1.1675 -0.7051 -1.4768
   26SAPC  H10Y 3503   5.702   6.412   7.506 -1.1815 -0.7803 -0.8217
   26SAPC  C311 3504   5.683   6.385   7.723  0.5888 -0.3410 -1.1102
   26SAPC  H11X 3505   5.635   6.287   7.701  0.2724 -0.5039  0.2419
   26SAPC  H11Y 3506   5.630   6.432   7.809  1.8018  0.3188 -0.6899
   26SAPC  C312 3507   5.830   6.357   7.751 -0.3654 -0.1878 -1.1290
   26SAPC  H12X 3508   5.881   6.339   7.654  3.6780 -0.1983  0.7844
   26SAPC  H12Y 3509   5.844   6.269   7.817  1.5761  1.0979  0.2880
   26SAPC  C313 3510   5.909   6.473   7.813  1.0351 -0.0014  0.4541
   26SAPC  H13X 3511   5.864   6.566   7.773  0.6166 -0.4070 -0.0242
   26SAPC  H13Y 3512   6.014   6.488   7.781  0.3315  2.2608 -1.0324
   26SAPC  C314 3513   5.894   6.477   7.969 -0.9382  0.4344  0.0278
   26SAPC  H14X 3514   5.795   6.431   7.991 -0.3055 -0.3972  1.2056
   26SAPC  H14Y 3515   5.887   6.584   7.996  0.6678  0.0241  2.3205
   26SAPC  C315 3516   6.005   6.407   8.045 -0.3794  0.3227  0.3193
   26SAPC  H15X 3517   6.005   6.445   8.150 -2.4119  1.1191  0.0741
   26SAPC  H15Y 3518   6.100   6.441   7.998 -0.0262  1.2305  1.6134
   26SAPC  C316 3519   5.987   6.251   8.048 -0.1005 -0.5775  0.3001
   26SAPC  H16X 3520   6.005   6.213   7.945 -2.0963  1.0213 -0.7110
   26SAPC  H16Y 3521   5.881   6.228   8.068 -0.0307 -1.6525 -0.4735
   26SAPC  C317 3522   6.080   6.179   8.150  0.2681 -0.8577 -0.0974
   26SAPC  H17X 3523   6.046   6.218   8.248 -2.1953 -0.3869 -1.0591
   26SAPC  H17Y 3524   6.185   6.204   8.125 -0.2541  1.5009 -0.2016
   26SAPC  C318 3525   6.058   6.027   8.143 -0.4819 -0.3944 -0.1268
   26SAPC  H18X 3526   6.130   5.979   8.213  1.2032  0.8004 -0.9689
   26SAPC  H18Y 3527   6.072   5.987   8.040  3.6341 -0.4049  0.2641
   26SAPC  H18Z 3528   5.954   6.004   8.175 -0.9519  1.0001 -0.5986
   27SAPC     N 3529   3.056   6.277   6.336  0.2995 -0.0355 -0.6750
   27SAPC   C12 3530   3.112   6.307   6.469 -1.0134  0.6661  0.2596
   27SAPC  H12A 3531   3.138   6.411   6.464  0.6937  0.2451 -0.3981
   27SAPC  H12B 3532   3.191   6.236   6.487 -3.2175 -2.0863 -0.1596
   27SAPC   C13 3533   3.157   6.300   6.227 -0.2908 -0.0666 -0.1201
   27SAPC  H13A 3534   3.224   6.381   6.252  0.7777 -1.3543  1.4137
   27SAPC  H13B 3535   3.208   6.206   6.211  0.7376  0.3521  0.5849
   27SAPC  H13C 3536   3.102   6.316   6.136 -0.5517 -0.2112  0.0101
   27SAPC   C14 3537   2.997   6.145   6.319  0.4132  0.6384 -0.5322
   27SAPC  H14A 3538   3.067   6.066   6.339  2.3641  2.0858 -1.3034
   27SAPC  H14B 3539   2.912   6.134   6.385  1.6547  1.6171  1.2958
   27SAPC  H14C 3540   2.958   6.136   6.218 -1.0920 -0.3636  0.0973
   27SAPC   C15 3541   2.945   6.382   6.311  0.0261 -0.7557 -0.0664
   27SAPC  H15A 3542   2.874   6.377   6.392  0.1659  2.5565  0.3970
   27SAPC  H15B 3543   2.991   6.478   6.296  1.0356 -1.7085 -4.3170
   27SAPC  H15C 3544   2.900   6.362   6.215 -0.6263  0.9530 -0.1470
   27SAPC   C11 3545   3.016   6.298   6.590 -0.0267  0.4726 -0.2321
   27SAPC  H11A 3546   2.948   6.385   6.578 -0.5311  0.0770 -0.3077
   27SAPC  H11B 3547   3.061   6.326   6.688 -2.5041  1.3440  0.7236
   27SAPC     P 3548   3.038   6.047   6.663  0.0182 -0.2433  0.0229
   27SAPC   O13 3549   2.971   5.923   6.612  0.2049 -0.3965 -0.5696
   27SAPC   O14 3550   3.181   6.068   6.638  0.2056  0.7713 -0.3465
   27SAPC   O12 3551   2.948   6.171   6.599 -0.1707  0.3679 -0.7302
   27SAPC   O11 3552   3.019   6.050   6.817  0.0162 -0.4523  0.6205
   27SAPC    C1 3553   2.930   6.123   6.897  0.2586  0.0629  0.2266
   27SAPC    HA 3554   2.907   6.227   6.865 -1.0319  0.3232  1.8901
   27SAPC    HB 3555   2.831   6.072   6.902 -0.6513  1.8268  1.0055
   27SAPC    C2 3556   2.990   6.121   7.040  0.5156 -0.5781  0.0159
   27SAPC    HS 3557   3.015   6.018   7.071 -0.7170 -1.3747 -1.5338
   27SAPC   O21 3558   2.903   6.184   7.136 -0.4651 -0.0803  0.4382
   27SAPC   C21 3559   2.796   6.108   7.165  0.2758 -0.4282  0.6582
   27SAPC   O22 3560   2.779   5.989   7.134 -0.5557 -0.1718  0.5657
   27SAPC   C22 3561   2.703   6.190   7.252 -0.8590  0.0192  0.3252
   27SAPC   H2R 3562   2.654   6.270   7.192 -1.7039  1.9665  3.3675
   27SAPC   H2S 3563   2.618   6.125   7.283 -1.6602  1.6453  1.7542
   27SAPC    C3 3564   3.126   6.197   7.041 -0.4425  0.0785  0.9458
   27SAPC    HX 3565   3.113   6.302   7.008  3.2229 -0.0021 -1.3624
   27SAPC    HY 3566   3.186   6.140   6.967 -0.2852  0.8867  0.4432
   27SAPC   O31 3567   3.185   6.206   7.172  0.1390  0.2270  0.3571
   27SAPC   C31 3568   3.268   6.104   7.195  0.1952  0.1569  0.0927
   27SAPC   O32 3569   3.299   6.023   7.117  0.0942  0.3847 -0.1109
   27SAPC   C32 3570   3.309   6.115   7.343  0.5050 -0.5709  0.3852
   27SAPC   H2X 3571   3.220   6.116   7.409 -1.2828  0.8003 -1.8872
   27SAPC   H2Y 3572   3.360   6.214   7.349 -3.6129  1.8140 -0.3601
   27SAPC   C23 3573   2.778   6.265   7.369 -0.0202  0.4319  0.6966
   27SAPC   H3R 3574   2.697   6.336   7.395 -0.8527 -0.9127  1.9752
   27SAPC   H3S 3575   2.870   6.322   7.348 -0.9087  1.0222 -1.9221
   27SAPC   C24 3576   2.798   6.185   7.501  0.4002  0.6097  0.1122
   27SAPC   H4R 3577   2.854   6.257   7.564 -0.8839  0.8098  1.0682
   27SAPC   H4S 3578   2.859   6.095   7.482 -0.3470  0.0467  0.3212
   27SAPC   C25 3579   2.666   6.140   7.559 -0.2470 -0.0874  0.2492
   27SAPC   H5R 3580   2.601   6.083   7.490 -0.0414  0.4498 -0.4034
   27SAPC   C26 3581   2.631   6.154   7.689  0.3317 -0.1018 -0.3278
   27SAPC   H6R 3582   2.541   6.100   7.720  0.4193  0.7341  1.5113
   27SAPC   C27 3583   2.702   6.226   7.799 -0.0094  0.0802  0.7198
   27SAPC   H7R 3584   2.625   6.264   7.871 -0.3238  0.3614  0.2443
   27SAPC   H7S 3585   2.740   6.321   7.757 -1.1343 -0.3153 -1.3193
   27SAPC   C28 3586   2.813   6.136   7.845  0.3069 -0.3298 -0.0163
   27SAPC   H8R 3587   2.893   6.129   7.770  1.2277  2.3149  0.6161
   27SAPC   C29 3588   2.833   6.074   7.961  0.0035 -0.2594  0.3323
   27SAPC   H9R 3589   2.924   6.013   7.973 -0.4910 -1.6490 -2.2465
   27SAPC  C210 3590   2.736   6.067   8.074  0.2258  0.9788 -0.6104
   27SAPC  H10R 3591   2.745   5.963   8.112  0.8057  0.4245 -2.1738
   27SAPC  H10S 3592   2.633   6.076   8.033 -0.5776 -1.3122  0.6986
   27SAPC  C211 3593   2.773   6.170   8.173 -0.0975 -0.5113  0.2583
   27SAPC  H11R 3594   2.881   6.193   8.171  0.3164 -2.2139  0.8495
   27SAPC  C212 3595   2.700   6.232   8.257  0.1051 -0.1735  0.9706
   27SAPC  H12R 3596   2.744   6.308   8.323  0.8713  1.2352 -1.0671
   27SAPC  C213 3597   2.550   6.207   8.268 -0.7324  0.3357 -0.4020
   27SAPC  H13R 3598   2.507   6.241   8.172 -0.8784  0.2571 -0.3652
   27SAPC  H13S 3599   2.511   6.282   8.341 -1.5372  0.0170 -0.5001
   27SAPC  C214 3600   2.483   6.072   8.294 -0.3232 -0.7576 -0.7110
   27SAPC  H14R 3601   2.420   6.044   8.208 -0.9264 -0.7508 -0.2722
   27SAPC  C215 3602   2.511   5.995   8.394 -0.2745  1.1454 -0.5676
   27SAPC  H15R 3603   2.462   5.897   8.401 -3.0284  2.4772  0.0357
   27SAPC  C216 3604   2.612   6.022   8.503  0.3380  0.4747  0.3343
   27SAPC  H16R 3605   2.555   6.041   8.597  2.6560  0.4330  1.8223
   27SAPC  H16S 3606   2.664   6.120   8.504 -1.4561  1.4756  1.5547
   27SAPC  C217 3607   2.716   5.907   8.510  0.1197 -0.5533 -0.3855
   27SAPC  H17R 3608   2.766   5.909   8.411 -0.5421  0.4906 -0.7155
   27SAPC  H17S 3609   2.673   5.804   8.515  1.3911 -1.1544 -1.2225
   27SAPC  C218 3610   2.828   5.948   8.610 -0.2888  0.4732  0.3700
   27SAPC  H18R 3611   2.774   5.946   8.708 -2.6517 -0.4128 -0.8626
   27SAPC  H18S 3612   2.859   6.054   8.602  0.6224  0.2056  0.2980
   27SAPC  C219 3613   2.958   5.865   8.600 -0.3587  0.4087 -0.4581
   27SAPC  H19R 3614   2.999   5.870   8.497 -2.5285 -0.5252 -1.4214
   27SAPC  H19S 3615   2.932   5.757   8.609  1.8778 -0.3190 -1.8575
   27SAPC  C220 3616   3.063   5.893   8.706  1.3408 -0.3313 -0.6453
   27SAPC  H20R 3617   3.102   5.996   8.694 -1.3208  0.6143 -2.0341
   27SAPC  H20S 3618   3.146   5.820   8.715  1.8709  0.3927  0.5291
   27SAPC  H20T 3619   3.026   5.897   8.811  2.1992  1.8444 -0.3641
   27SAPC   C33 3620   3.430   6.028   7.381  0.0024  0.0398  0.1874
   27SAPC   H3X 3621   3.512   6.038   7.307  0.3940 -0.8250  0.4886
   27SAPC   H3Y 3622   3.406   5.920   7.375  2.5915 -0.5192 -1.4263
   27SAPC   C34 3623   3.474   6.058   7.525  0.4687 -0.5200  0.9417
   27SAPC   H4X 3624   3.392   6.008   7.581 -0.1919 -0.1185  0.3640
   27SAPC   H4Y 3625   3.461   6.166   7.549 -3.0335 -0.1184 -1.8251
   27SAPC   C35 3626   3.611   5.996   7.568  0.2202  0.3475  0.6636
   27SAPC   H5X 3627   3.691   6.068   7.540 -1.0937  1.9892  1.0100
   27SAPC   H5Y 3628   3.619   5.901   7.512 -2.4398  1.2682 -1.4945
   27SAPC   C36 3629   3.610   5.957   7.716 -0.7041  0.1214  0.3648
   27SAPC   H6X 3630   3.548   5.866   7.730 -3.5059  1.5258 -1.8449
   27SAPC   H6Y 3631   3.550   6.038   7.763 -1.4045 -0.6856  0.8898
   27SAPC   C37 3632   3.750   5.943   7.768  0.6760 -0.2518 -0.1152
   27SAPC   H7X 3633   3.819   6.021   7.730 -0.7378  0.4931 -1.2630
   27SAPC   H7Y 3634   3.792   5.845   7.737  0.1213  0.2060 -2.5497
   27SAPC   C38 3635   3.762   5.961   7.921  0.4014  0.3392 -0.8005
   27SAPC   H8X 3636   3.702   5.882   7.972 -0.0649  0.7947 -0.6340
   27SAPC   H8Y 3637   3.701   6.051   7.945 -1.0361 -0.6267 -0.6578
   27SAPC   C39 3638   3.905   5.958   7.972 -1.3393  0.0213 -0.0718
   27SAPC   H9X 3639   3.954   6.040   7.916 -0.3332  0.6591  1.6919
   27SAPC   H9Y 3640   3.956   5.866   7.936  0.9420  2.0234 -2.3920
   27SAPC  C310 3641   3.923   5.976   8.122  0.4276  0.0347  0.7085
   27SAPC  H10X 3642   3.870   5.896   8.176 -1.8796  0.2554 -1.0544
   27SAPC  H10Y 3643   3.851   6.057   8.148  0.9456  1.2123 -1.3150
   27SAPC  C311 3644   4.063   6.009   8.170  0.3698  1.0311 -0.2758
   27SAPC  H11X 3645   4.051   6.067   8.264 -0.3428 -0.7373  0.7780
   27SAPC  H11Y 3646   4.120   6.069   8.095  1.1334  0.6127 -0.0377
   27SAPC  C312 3647   4.136   5.890   8.233 -0.1829  1.0743 -0.0457
   27SAPC  H12X 3648   4.129   5.807   8.160  2.9228  0.2069  0.4867
   27SAPC  H12Y 3649   4.083   5.847   8.321 -0.6295  1.7208  0.0109
   27SAPC  C313 3650   4.287   5.927   8.264  0.2208 -0.8347  0.3333
   27SAPC  H13X 3651   4.285   6.020   8.325 -0.2237 -0.1367 -0.7089
   27SAPC  H13Y 3652   4.318   5.955   8.161  0.3334 -1.4240  0.2025
   27SAPC  C314 3653   4.379   5.824   8.330  0.1348 -0.6848  0.2951
   27SAPC  H14X 3654   4.485   5.858   8.336  0.1156 -0.6661  0.5550
   27SAPC  H14Y 3655   4.377   5.735   8.263  1.2408 -0.1033 -0.5507
   27SAPC  C315 3656   4.336   5.794   8.475  0.6065  0.3012 -1.0929
   27SAPC  H15X 3657   4.228   5.774   8.489  0.9853 -0.1497  1.7706
   27SAPC  H15Y 3658   4.353   5.885   8.537  0.5660  0.7098 -1.6700
   27SAPC  C316 3659   4.405   5.669   8.534  0.3229 -0.6350 -0.1854
   27SAPC  H16X 3660   4.515   5.685   8.543  0.1762 -0.0506  0.6204
   27SAPC  H16Y 3661   4.391   5.578   8.472 -0.6186 -1.0973  0.6753
   27SAPC  C317 3662   4.358   5.634   8.674 -0.3456  0.0393 -0.5813
   27SAPC  H17X 3663   4.252   5.606   8.692 -0.1281 -0.3670  0.1220
   27SAPC  H17Y 3664   4.362   5.730   8.729  1.8511  0.0758 -0.7510
   27SAPC  C318 3665   4.447   5.544   8.761  0.0290  0.0551 -0.4075
   27SAPC  H18X 3666   4.457   5.439   8.728 -1.1826 -0.6125  1.1855
   27SAPC  H18Y 3667   4.401   5.537   8.862 -0.6332  0.3476 -0.6846
   27SAPC  H18Z 3668   4.546   5.595   8.768 -1.6078  3.3904  0.4534
   28SAPC     N 3669   1.670   1.854   5.836 -0.2979  0.0272  0.4813
   28SAPC   C12 3670   1.678   1.934   5.963  0.4465 -0.0333  0.2782
   28SAPC  H12A 3671   1.747   1.890   6.034 -0.5582 -0.8064  0.7988
   28SAPC  H12B 3672   1.581   1.920   6.009 -0.2363  1.2063 -0.7191
   28SAPC   C13 3673   1.632   1.713   5.867  0.5123 -0.2847 -0.2453
   28SAPC  H13A 3674   1.696   1.675   5.946 -2.7739 -1.9292  1.8357
   28SAPC  H13B 3675   1.541   1.707   5.924  0.9648 -1.8132  0.3806
   28SAPC  H13C 3676   1.637   1.647   5.782  0.6247 -1.3720  0.5807
   28SAPC   C14 3677   1.562   1.922   5.756  0.9890 -0.7069 -0.0297
   28SAPC  H14A 3678   1.553   1.873   5.660  0.7040 -1.1547  0.2229
   28SAPC  H14B 3679   1.466   1.927   5.805  0.6034  1.6484 -0.9208
   28SAPC  H14C 3680   1.598   2.022   5.740  1.9201 -0.9994  0.1236
   28SAPC   C15 3681   1.800   1.853   5.761  0.5743 -0.4185 -0.1884
   28SAPC  H15A 3682   1.877   1.808   5.822  1.0376  0.8336  0.1851
   28SAPC  H15B 3683   1.778   1.797   5.671 -0.3264 -1.8416  0.8747
   28SAPC  H15C 3684   1.833   1.954   5.744 -0.5886  0.0022 -0.0523
   28SAPC   C11 3685   1.698   2.083   5.951  0.3801 -0.1750 -0.5084
   28SAPC  H11A 3686   1.605   2.130   5.914  1.3349  2.6282  0.3747
   28SAPC  H11B 3687   1.768   2.119   5.873  1.3194  1.3479  0.9720
   28SAPC     P 3688   1.866   2.153   6.138  0.3536  0.4661 -0.2870
   28SAPC   O13 3689   1.960   2.168   6.024 -0.2944 -0.6171  0.2101
   28SAPC   O14 3690   1.858   2.260   6.239  0.3480  0.0711  0.1045
   28SAPC   O12 3691   1.719   2.129   6.083 -0.4751 -0.0530 -0.1721
   28SAPC   O11 3692   1.901   2.012   6.205  0.8000  0.4158 -0.0383
   28SAPC    C1 3693   1.808   1.934   6.284  0.3910  0.5464 -0.7010
   28SAPC    HA 3694   1.708   1.922   6.237  0.8709  0.4620 -1.7205
   28SAPC    HB 3695   1.855   1.835   6.300  0.2165  0.6040  0.1919
   28SAPC    C2 3696   1.775   1.995   6.424  0.7635 -0.4511  0.8743
   28SAPC    HS 3697   1.723   2.093   6.411 -0.1723 -1.0844 -0.3440
   28SAPC   O21 3698   1.901   2.016   6.497 -0.1543 -0.2563  0.1556
   28SAPC   C21 3699   1.896   2.106   6.594  0.9599  0.3155  0.5747
   28SAPC   O22 3700   1.797   2.166   6.631  0.0675 -0.2812  0.6131
   28SAPC   C22 3701   2.022   2.112   6.666  0.3291  0.5721  0.5255
   28SAPC   H2R 3702   2.037   2.026   6.735  1.2030 -0.4106 -0.8206
   28SAPC   H2S 3703   2.109   2.120   6.597  0.7765  3.0365  1.2746
   28SAPC    C3 3704   1.689   1.889   6.506  0.2903 -0.7025  0.2029
   28SAPC    HX 3705   1.749   1.796   6.492  0.8629 -0.1287 -1.4096
   28SAPC    HY 3706   1.588   1.870   6.465  0.4060 -0.8774 -0.0005
   28SAPC   O31 3707   1.687   1.909   6.649  0.1486 -0.6373 -0.4975
   28SAPC   C31 3708   1.570   1.962   6.699 -1.0343 -0.4041  0.5105
   28SAPC   O32 3709   1.472   1.987   6.634 -0.1603 -0.4808  0.0982
   28SAPC   C32 3710   1.584   1.993   6.848  0.5103 -0.2412 -1.2064
   28SAPC   H2X 3711   1.683   2.038   6.867  0.3995 -0.9999  1.6225
   28SAPC   H2Y 3712   1.574   1.896   6.902 -2.2072  1.1598  1.0621
   28SAPC   C23 3713   2.029   2.239   6.757  1.0275  0.1595  0.0484
   28SAPC   H3R 3714   1.971   2.220   6.850  1.7786  0.7969  0.6656
   28SAPC   H3S 3715   2.004   2.329   6.697  0.4228 -0.6150 -0.8957
   28SAPC   C24 3716   2.171   2.263   6.817  0.5405  0.0190 -0.2811
   28SAPC   H4R 3717   2.257   2.256   6.747  1.7015 -0.5335  1.1306
   28SAPC   H4S 3718   2.174   2.363   6.865  1.2609  0.6573 -1.5955
   28SAPC   C25 3719   2.197   2.159   6.928 -0.2567  0.3166 -0.0450
   28SAPC   H5R 3720   2.251   2.070   6.892 -0.5047 -0.9706  2.5460
   28SAPC   C26 3721   2.174   2.169   7.060  0.0320  0.3671 -0.2428
   28SAPC   H6R 3722   2.184   2.078   7.122 -1.4382  0.3767  0.0354
   28SAPC   C27 3723   2.111   2.287   7.130 -0.3652 -0.3759  0.7965
   28SAPC   H7R 3724   2.043   2.341   7.061 -0.3637 -3.1846 -1.6187
   28SAPC   H7S 3725   2.195   2.357   7.152  0.6777 -1.8523  1.6985
   28SAPC   C28 3726   2.028   2.249   7.241  0.4302  0.0377 -0.2580
   28SAPC   H8R 3727   1.920   2.240   7.220  0.4312  2.0244 -1.2561
   28SAPC   C29 3728   2.068   2.242   7.371  0.0062  0.1338  0.1678
   28SAPC   H9R 3729   1.995   2.227   7.452  1.2183 -2.9293  0.8264
   28SAPC  C210 3730   2.207   2.272   7.420  0.6059 -0.9324  0.7149
   28SAPC  H10R 3731   2.209   2.378   7.455 -0.9587 -0.6835  0.1559
   28SAPC  H10S 3732   2.273   2.278   7.331  0.4092  0.3861  0.6236
   28SAPC  C211 3733   2.271   2.180   7.525  0.7875 -0.1986  0.0766
   28SAPC  H11R 3734   2.301   2.077   7.498 -1.9751 -1.2253  0.6230
   28SAPC  C212 3735   2.273   2.209   7.660  0.2397 -0.2961  0.3517
   28SAPC  H12R 3736   2.316   2.130   7.724  0.6039 -1.1486 -0.9105
   28SAPC  C213 3737   2.226   2.332   7.733 -0.3172 -0.0339  0.2608
   28SAPC  H13R 3738   2.224   2.408   7.652  0.2547  0.7811  0.9941
   28SAPC  H13S 3739   2.301   2.375   7.803 -2.4939  1.7353  1.6487
   28SAPC  C214 3740   2.095   2.345   7.808  0.5620 -0.0386  0.1005
   28SAPC  H14R 3741   2.004   2.338   7.746 -0.0437  0.9187  0.8693
   28SAPC  C215 3742   2.091   2.386   7.938  0.3059 -0.0384 -0.0043
   28SAPC  H15R 3743   1.991   2.368   7.979  1.4401 -0.5605  2.7204
   28SAPC  C216 3744   2.194   2.409   8.039 -0.2439  0.1404 -0.1663
   28SAPC  H16R 3745   2.190   2.516   8.067  2.8840  0.2334  0.3020
   28SAPC  H16S 3746   2.298   2.389   8.005  0.5879  2.8964  0.5267
   28SAPC  C217 3747   2.168   2.317   8.163  0.0144 -0.3665  0.4069
   28SAPC  H17R 3748   2.261   2.319   8.224 -1.6091  2.1867  3.0878
   28SAPC  H17S 3749   2.151   2.213   8.127  1.0150 -0.7357  0.9759
   28SAPC  C218 3750   2.046   2.357   8.246 -0.0050  0.2196 -0.4858
   28SAPC  H18R 3751   2.037   2.279   8.325 -0.8992  0.9656  0.1755
   28SAPC  H18S 3752   1.958   2.343   8.180  0.3852 -1.9890 -0.6297
   28SAPC  C219 3753   2.047   2.507   8.294  0.2906  0.7191  0.1802
   28SAPC  H19R 3754   2.041   2.580   8.210  2.0746 -0.7832 -1.3302
   28SAPC  H19S 3755   2.138   2.524   8.356 -0.7925 -0.1977  2.0816
   28SAPC  C220 3756   1.932   2.538   8.394 -0.3846  0.8103 -0.0956
   28SAPC  H20R 3757   1.941   2.473   8.483  1.9941  1.8901  0.5343
   28SAPC  H20S 3758   1.839   2.518   8.337 -0.4704  0.6186  0.1085
   28SAPC  H20T 3759   1.923   2.640   8.437  0.6684  0.5028  0.8867
   28SAPC   C33 3760   1.479   2.102   6.910  0.5783  0.3302  0.0587
   28SAPC   H3X 3761   1.379   2.076   6.868  1.1580 -2.5233  0.2857
   28SAPC   H3Y 3762   1.500   2.200   6.862  0.6577  0.6043  0.6440
   28SAPC   C34 3763   1.469   2.099   7.059  0.9817 -0.8128 -0.0472
   28SAPC   H4X 3764   1.441   2.002   7.103 -0.4680  0.3023  1.6178
   28SAPC   H4Y 3765   1.392   2.176   7.085 -0.6751 -1.0357 -3.6101
   28SAPC   C35 3766   1.599   2.140   7.126  0.4964  0.3750  0.0725
   28SAPC   H5X 3767   1.623   2.236   7.076  1.6955 -0.8422 -1.8843
   28SAPC   H5Y 3768   1.672   2.058   7.103 -1.3887 -1.9180  1.7458
   28SAPC   C36 3769   1.612   2.163   7.277 -0.1619  0.2817 -0.4048
   28SAPC   H6X 3770   1.562   2.260   7.296  0.0967  0.3880 -0.2526
   28SAPC   H6Y 3771   1.722   2.180   7.289  0.1921 -2.4855  1.2417
   28SAPC   C37 3772   1.570   2.055   7.373  0.0738 -0.0268 -0.3525
   28SAPC   H7X 3773   1.627   1.961   7.357 -1.0705 -0.9692  0.8428
   28SAPC   H7Y 3774   1.464   2.032   7.349  0.0449  0.3458 -0.5797
   28SAPC   C38 3775   1.573   2.099   7.521 -0.1968  0.0527 -0.2302
   28SAPC   H8X 3776   1.497   2.036   7.573 -1.4339  2.6344  1.3280
   28SAPC   H8Y 3777   1.544   2.206   7.532 -0.3085  0.0096 -0.0970
   28SAPC   C39 3778   1.708   2.071   7.590  0.1375 -0.1650  0.1111
   28SAPC   H9X 3779   1.782   2.144   7.552 -1.2962  1.0172 -0.4936
   28SAPC   H9Y 3780   1.741   1.966   7.576  0.6376  0.0133 -0.0745
   28SAPC  C310 3781   1.716   2.107   7.734  0.1590  0.3518  0.2561
   28SAPC  H10X 3782   1.643   2.041   7.786  1.0193 -1.0178 -0.2250
   28SAPC  H10Y 3783   1.694   2.213   7.759  1.1100  0.9887 -1.4122
   28SAPC  C311 3784   1.850   2.058   7.789  0.2214 -0.5974  0.5683
   28SAPC  H11X 3785   1.929   2.111   7.733 -0.8218  0.4536  0.0453
   28SAPC  H11Y 3786   1.856   1.951   7.762  0.2629 -0.2584 -0.8276
   28SAPC  C312 3787   1.872   2.072   7.940 -0.3790  0.1923  0.1992
   28SAPC  H12X 3788   1.845   2.177   7.965  1.4644  0.6006  0.6010
   28SAPC  H12Y 3789   1.978   2.057   7.966  0.2865 -0.8229 -2.6753
   28SAPC  C313 3790   1.787   1.980   8.024 -0.0780 -0.5487 -0.3650
   28SAPC  H13X 3791   1.815   1.880   7.985 -1.3389 -0.3017 -2.0347
   28SAPC  H13Y 3792   1.679   1.991   8.001 -0.6572 -2.4881  1.1166
   28SAPC  C314 3793   1.817   1.998   8.176  0.0967  0.5542  0.1090
   28SAPC  H14X 3794   1.769   2.090   8.217  0.8416  0.7835  0.4860
   28SAPC  H14Y 3795   1.924   2.016   8.199 -0.0853  3.6020 -0.9118
   28SAPC  C315 3796   1.772   1.873   8.260 -0.3680 -0.6999  0.2499
   28SAPC  H15X 3797   1.850   1.795   8.247  2.9137  2.5767 -1.7379
   28SAPC  H15Y 3798   1.677   1.826   8.227  0.0917 -0.2850 -1.8131
   28SAPC  C316 3799   1.762   1.895   8.409  0.7676 -0.1203 -0.4909
   28SAPC  H16X 3800   1.736   1.797   8.455  0.5262 -0.4505 -1.3066
   28SAPC  H16Y 3801   1.671   1.957   8.424  1.0545  0.2612 -0.3338
   28SAPC  C317 3802   1.889   1.943   8.481  0.6753 -0.2800  0.4667
   28SAPC  H17X 3803   1.894   2.052   8.464  0.4381 -0.2900  0.3243
   28SAPC  H17Y 3804   1.974   1.894   8.429  1.1460  0.3050  0.6690
   28SAPC  C318 3805   1.898   1.909   8.632  0.2722 -0.7864 -0.2407
   28SAPC  H18X 3806   1.991   1.944   8.683  0.2339  0.2009 -0.8220
   28SAPC  H18Y 3807   1.888   1.798   8.639  0.2717 -0.7524  0.3248
   28SAPC  H18Z 3808   1.817   1.962   8.686  0.6752  0.4607 -0.8220
   29SAPC     N 3809   4.896   5.784   5.732 -0.1164 -0.2798  0.2944
   29SAPC   C12 3810   4.925   5.762   5.880 -1.2470 -0.0686 -0.2178
   29SAPC  H12A 3811   5.022   5.802   5.908 -1.1408  0.2131 -0.9672
   29SAPC  H12B 3812   4.934   5.655   5.890 -0.9011 -0.1412 -1.1933
   29SAPC   C13 3813   4.998   5.705   5.652 -0.7161 -0.0764  0.3163
   29SAPC  H13A 3814   4.994   5.598   5.662 -0.6058  0.1422  4.1765
   29SAPC  H13B 3815   4.995   5.720   5.545  0.6076  0.9415  0.3862
   29SAPC  H13C 3816   5.101   5.725   5.679 -0.2325  1.4043 -2.2763
   29SAPC   C14 3817   4.755   5.741   5.694 -0.6515  0.5170 -0.6309
   29SAPC  H14A 3818   4.733   5.636   5.696 -1.1497  0.6121  1.5982
   29SAPC  H14B 3819   4.694   5.785   5.771  0.4201 -1.9986  1.8101
   29SAPC  H14C 3820   4.741   5.773   5.592  1.5154  1.0789 -0.8066
   29SAPC   C15 3821   4.917   5.930   5.713  0.1605  0.0479  0.2499
   29SAPC  H15A 3822   5.024   5.949   5.708  0.1881 -0.3076 -0.6328
   29SAPC  H15B 3823   4.884   5.964   5.616  2.7408  1.2759 -0.3085
   29SAPC  H15C 3824   4.869   5.991   5.789 -0.5476 -0.2635  0.0584
   29SAPC   C11 3825   4.826   5.814   5.989 -0.0609 -0.2022 -0.3889
   29SAPC  H11A 3826   4.872   5.792   6.087 -1.3117  0.7565  0.4477
   29SAPC  H11B 3827   4.725   5.767   5.986 -1.1192  1.8475  0.6467
   29SAPC     P 3828   4.685   6.036   6.013  0.1107  0.4062  0.2074
   29SAPC   O13 3829   4.701   6.180   6.007  1.0352  0.0377 -0.3160
   29SAPC   O14 3830   4.586   5.979   5.918 -0.2415  0.2346 -0.1333
   29SAPC   O12 3831   4.819   5.961   5.985  0.1220  0.4726 -0.4241
   29SAPC   O11 3832   4.655   5.984   6.163 -0.2685 -0.3892 -0.1667
   29SAPC    C1 3833   4.719   6.042   6.282 -0.2086  0.5396  0.4193
   29SAPC    HA 3834   4.780   5.960   6.325 -2.3812 -2.0517 -1.0679
   29SAPC    HB 3835   4.783   6.130   6.261 -1.5012  1.0669 -1.6186
   29SAPC    C2 3836   4.618   6.074   6.395  0.3143 -0.1867  0.0024
   29SAPC    HS 3837   4.687   6.088   6.481 -0.1894  0.4790  0.3056
   29SAPC   O21 3838   4.517   5.974   6.411  0.2889 -0.3843 -0.2336
   29SAPC   C21 3839   4.553   5.866   6.477 -0.1931  0.4770 -0.1366
   29SAPC   O22 3840   4.657   5.843   6.532 -0.2330  0.1805 -0.0760
   29SAPC   C22 3841   4.435   5.769   6.500  0.2467  0.0413  0.0762
   29SAPC   H2R 3842   4.395   5.726   6.405 -0.5786  0.2471  0.3225
   29SAPC   H2S 3843   4.471   5.676   6.550  0.5636  0.1381  0.0323
   29SAPC    C3 3844   4.547   6.203   6.359 -0.4157  0.3950  0.2425
   29SAPC    HX 3845   4.483   6.184   6.270  1.1357 -2.7540 -0.3429
   29SAPC    HY 3846   4.622   6.282   6.338  0.6280 -0.6940 -0.2081
   29SAPC   O31 3847   4.455   6.248   6.458 -0.3026 -0.4505 -0.0545
   29SAPC   C31 3848   4.506   6.305   6.568 -0.4719  0.1287  0.7243
   29SAPC   O32 3849   4.623   6.328   6.588 -0.1561 -0.1395  0.0966
   29SAPC   C32 3850   4.395   6.336   6.660  0.1782 -0.7826  0.2714
   29SAPC   H2X 3851   4.350   6.240   6.694 -0.0353 -0.4817  0.8617
   29SAPC   H2Y 3852   4.318   6.393   6.603  1.2825 -0.3588 -0.8402
   29SAPC   C23 3853   4.330   5.833   6.590  0.5627 -0.2692  0.0449
   29SAPC   H3R 3854   4.250   5.759   6.612 -0.3166  0.9888  1.2287
   29SAPC   H3S 3855   4.272   5.911   6.537 -1.2942 -1.3356  0.4184
   29SAPC   C24 3856   4.392   5.889   6.719  0.2308  0.2560  0.2961
   29SAPC   H4R 3857   4.460   5.969   6.683 -1.6759  0.8406 -2.3298
   29SAPC   H4S 3858   4.454   5.803   6.754 -0.1562 -0.3702 -0.5405
   29SAPC   C25 3859   4.293   5.947   6.829 -0.3604 -0.0472  1.1848
   29SAPC   H5R 3860   4.234   6.031   6.790 -1.3439 -1.2509  0.0075
   29SAPC   C26 3861   4.259   5.886   6.944  0.4615 -0.0514 -0.0051
   29SAPC   H6R 3862   4.190   5.928   7.020 -1.5270 -1.8469 -0.7148
   29SAPC   C27 3863   4.325   5.759   6.986 -0.1520 -0.5894 -0.4601
   29SAPC   H7R 3864   4.334   5.687   6.902  0.9628 -0.4143 -0.5004
   29SAPC   H7S 3865   4.250   5.713   7.054  0.1010 -0.4073 -0.0565
   29SAPC   C28 3866   4.464   5.773   7.043  0.1011  0.4970 -0.4886
   29SAPC   H8R 3867   4.549   5.752   6.976  0.5036 -1.2081  0.5082
   29SAPC   C29 3868   4.497   5.804   7.173  0.9331 -0.2731 -0.0005
   29SAPC   H9R 3869   4.604   5.817   7.190  0.6891  0.4342  1.0807
   29SAPC  C210 3870   4.404   5.835   7.293  0.1584  0.2125 -0.2573
   29SAPC  H10R 3871   4.405   5.742   7.355 -1.9587  1.5871  2.0180
   29SAPC  H10S 3872   4.300   5.851   7.257 -0.1623 -1.7715 -0.3535
   29SAPC  C211 3873   4.446   5.952   7.379  0.3059 -0.5945 -0.8421
   29SAPC  H11R 3874   4.401   6.048   7.351  1.3217  0.0966 -0.1764
   29SAPC  C212 3875   4.549   5.957   7.470  0.3054  0.8550  0.3683
   29SAPC  H12R 3876   4.564   6.057   7.514  1.6041  1.4702 -1.3507
   29SAPC  C213 3877   4.641   5.844   7.506  0.9525  0.0818 -0.5584
   29SAPC  H13R 3878   4.622   5.757   7.439  0.1767  2.0178 -3.0299
   29SAPC  H13S 3879   4.610   5.820   7.610  0.9914  0.1404 -0.5337
   29SAPC  C214 3880   4.786   5.881   7.510 -0.0761 -0.1448  0.0022
   29SAPC  H14R 3881   4.809   5.945   7.597 -0.3371 -1.2046  0.8706
   29SAPC  C215 3882   4.878   5.833   7.425  1.0098  0.4133 -0.1865
   29SAPC  H15R 3883   4.981   5.870   7.425  0.7015  1.3278 -0.3709
   29SAPC  C216 3884   4.855   5.746   7.303  0.1648 -0.6520 -0.1393
   29SAPC  H16R 3885   4.752   5.704   7.294 -0.3594  0.7116 -0.6602
   29SAPC  H16S 3886   4.918   5.654   7.299 -1.0512 -1.5359  0.3559
   29SAPC  C217 3887   4.895   5.823   7.181 -0.4669 -0.0488  0.1002
   29SAPC  H17R 3888   4.997   5.869   7.183 -0.8885  0.9289  1.9915
   29SAPC  H17S 3889   4.827   5.910   7.176 -0.4921 -0.1367 -2.2423
   29SAPC  C218 3890   4.878   5.743   7.052 -0.0196 -0.2412  0.1550
   29SAPC  H18R 3891   4.773   5.708   7.044 -0.0413  0.1456 -1.5996
   29SAPC  H18S 3892   4.942   5.652   7.059  2.0111  1.2458  4.6543
   29SAPC  C219 3893   4.910   5.830   6.933  0.1832  0.1848  0.2785
   29SAPC  H19R 3894   5.016   5.864   6.932  0.1832  0.2424  0.9959
   29SAPC  H19S 3895   4.853   5.925   6.935  0.4880  0.4774 -2.2431
   29SAPC  C220 3896   4.896   5.768   6.793  0.4793  0.6763  0.3420
   29SAPC  H20R 3897   4.791   5.736   6.775  0.0325  1.9319  0.6605
   29SAPC  H20S 3898   4.958   5.676   6.783 -3.0435 -1.7478 -1.1095
   29SAPC  H20T 3899   4.943   5.838   6.721 -0.2061  0.7207 -0.0745
   29SAPC   C33 3900   4.444   6.441   6.769 -0.6242  0.4666 -0.1323
   29SAPC   H3X 3901   4.354   6.475   6.826 -0.9445  0.8080 -0.8312
   29SAPC   H3Y 3902   4.478   6.530   6.711 -0.2121 -1.1168 -2.4370
   29SAPC   C34 3903   4.526   6.386   6.886  1.0824 -0.5982 -0.1495
   29SAPC   H4X 3904   4.550   6.464   6.962 -2.1757  1.8148 -1.3943
   29SAPC   H4Y 3905   4.624   6.352   6.845  0.9680  0.3357 -1.2430
   29SAPC   C35 3906   4.453   6.272   6.957  0.0873 -0.0397  0.1763
   29SAPC   H5X 3907   4.427   6.190   6.887 -0.4108  2.9532 -3.4674
   29SAPC   H5Y 3908   4.360   6.324   6.988 -1.5960  0.3882 -4.7439
   29SAPC   C36 3909   4.532   6.193   7.072  0.1997 -0.3614 -0.7618
   29SAPC   H6X 3910   4.614   6.139   7.021  0.9921  1.3678 -1.3888
   29SAPC   H6Y 3911   4.469   6.121   7.129 -1.6691  1.2961 -0.5921
   29SAPC   C37 3912   4.599   6.283   7.174  0.2642 -0.5855 -0.1988
   29SAPC   H7X 3913   4.523   6.328   7.241  0.5537 -0.1961 -0.1298
   29SAPC   H7Y 3914   4.656   6.361   7.118  1.4135 -1.7865 -0.7685
   29SAPC   C38 3915   4.708   6.203   7.253 -0.2978 -0.4625 -0.2614
   29SAPC   H8X 3916   4.754   6.132   7.181  0.2644 -0.9996  0.6206
   29SAPC   H8Y 3917   4.661   6.134   7.326 -0.4689 -2.5466 -2.2430
   29SAPC   C39 3918   4.798   6.310   7.314  0.8715 -0.4387 -0.4006
   29SAPC   H9X 3919   4.811   6.397   7.246  3.6214 -1.1525 -0.8821
   29SAPC   H9Y 3920   4.899   6.278   7.347  0.8099 -2.5477 -2.0920
   29SAPC  C310 3921   4.750   6.370   7.451 -0.0113 -0.4926  0.1996
   29SAPC  H10X 3922   4.639   6.377   7.450 -0.0125  0.6003  2.2138
   29SAPC  H10Y 3923   4.786   6.474   7.466 -1.8048  0.5753 -2.3031
   29SAPC  C311 3924   4.800   6.281   7.566  0.8671 -0.1259 -0.5115
   29SAPC  H11X 3925   4.907   6.303   7.589  0.5078  0.5716  0.5357
   29SAPC  H11Y 3926   4.788   6.172   7.544  0.0279  0.0762 -1.0974
   29SAPC  C312 3927   4.745   6.321   7.707 -1.7642  0.0285  0.1488
   29SAPC  H12X 3928   4.635   6.314   7.698 -2.1129  3.8294 -0.3775
   29SAPC  H12Y 3929   4.780   6.426   7.722 -0.5116  0.0434 -2.3928
   29SAPC  C313 3930   4.813   6.243   7.819  0.1706 -0.7910  0.0524
   29SAPC  H13X 3931   4.921   6.272   7.821  0.4037 -1.4567 -1.4355
   29SAPC  H13Y 3932   4.816   6.132   7.808  0.2715 -0.7667 -0.1933
   29SAPC  C314 3933   4.749   6.279   7.957  0.4335 -0.2881 -0.2678
   29SAPC  H14X 3934   4.650   6.230   7.962  1.4868 -2.8744 -2.4445
   29SAPC  H14Y 3935   4.735   6.388   7.975 -2.5722 -1.0980  3.7347
   29SAPC  C315 3936   4.828   6.210   8.066 -0.4406  0.0314  0.2285
   29SAPC  H15X 3937   4.927   6.259   8.076 -1.0367  1.4083 -0.2902
   29SAPC  H15Y 3938   4.844   6.102   8.047  1.9234  0.4932 -0.8292
   29SAPC  C316 3939   4.768   6.217   8.206 -0.1865  0.0996 -0.4088
   29SAPC  H16X 3940   4.803   6.304   8.264  2.2625 -2.1128  1.6989
   29SAPC  H16Y 3941   4.795   6.128   8.267 -2.2429  0.2820  0.8608
   29SAPC  C317 3942   4.610   6.206   8.218 -0.0299  0.3114  0.4286
   29SAPC  H17X 3943   4.577   6.115   8.165  0.5579 -1.0061  2.2306
   29SAPC  H17Y 3944   4.554   6.297   8.188 -0.9150 -0.3773 -0.0434
   29SAPC  C318 3945   4.577   6.179   8.372  0.8562  1.0949  0.3235
   29SAPC  H18X 3946   4.645   6.240   8.435 -0.2504  1.4263  1.2279
   29SAPC  H18Y 3947   4.602   6.072   8.387 -0.5722  0.1765 -2.8007
   29SAPC  H18Z 3948   4.470   6.191   8.400  0.2944 -1.2512 -0.5876
   30SAPC     N 3949   4.425   0.236   5.941 -0.3946 -0.5664 -0.1693
   30SAPC   C12 3950   4.556   0.165   5.965 -0.0570  0.2554  0.1215
   30SAPC  H12A 3951   4.615   0.169   5.875 -0.0370  3.4096  0.1334
   30SAPC  H12B 3952   4.530   0.063   5.989  0.1040  0.0503 -0.5791
   30SAPC   C13 3953   4.439   0.366   5.884  0.4069  0.2860  0.0925
   30SAPC  H13A 3954   4.510   0.419   5.947  0.8180 -1.1097  0.8460
   30SAPC  H13B 3955   4.487   0.357   5.788  1.8698  0.7375  0.7401
   30SAPC  H13C 3956   4.345   0.417   5.875 -0.3310 -0.9515  0.5911
   30SAPC   C14 3957   4.348   0.147   5.843 -0.4695  0.1354 -0.3482
   30SAPC  H14A 3958   4.411   0.104   5.766 -1.0766  0.8919 -1.2988
   30SAPC  H14B 3959   4.299   0.066   5.895 -0.4468  0.0383 -0.4751
   30SAPC  H14C 3960   4.277   0.215   5.798 -0.7918 -0.5826 -0.9425
   30SAPC   C15 3961   4.345   0.242   6.057 -0.0277  0.0386  0.0196
   30SAPC  H15A 3962   4.334   0.144   6.103 -1.9789 -0.1269 -0.6807
   30SAPC  H15B 3963   4.386   0.305   6.134  0.0643  0.5893 -0.4698
   30SAPC  H15C 3964   4.245   0.270   6.027  0.5338  0.8424 -1.2215
   30SAPC   C11 3965   4.652   0.215   6.076 -0.5808 -0.3052 -0.0012
   30SAPC  H11A 3966   4.740   0.148   6.089 -0.2019  0.0858 -0.4944
   30SAPC  H11B 3967   4.596   0.208   6.172 -0.2746 -2.2811  0.0790
   30SAPC     P 3968   4.830   0.403   6.002 -0.1926 -0.0634 -0.0956
   30SAPC   O13 3969   4.871   0.356   5.866  0.1501 -0.3078  0.1802
   30SAPC   O14 3970   4.811   0.549   6.015  0.0853  0.3427  0.3331
   30SAPC   O12 3971   4.688   0.346   6.033 -0.5440  0.2890  0.1785
   30SAPC   O11 3972   4.912   0.345   6.126  0.0994  0.3511 -0.2076
   30SAPC    C1 3973   4.938   0.405   6.255 -0.0226  0.0398  0.3985
   30SAPC    HA 3974   5.046   0.390   6.276  0.1516  1.0793  0.2903
   30SAPC    HB 3975   4.908   0.512   6.253  0.6855  0.2428 -1.2326
   30SAPC    C2 3976   4.855   0.337   6.360 -0.1874 -0.1972 -0.2235
   30SAPC    HS 3977   4.749   0.341   6.326 -0.2155  2.2828 -0.0484
   30SAPC   O21 3978   4.855   0.424   6.477  0.2293  0.2772 -0.0741
   30SAPC   C21 3979   4.804   0.392   6.597 -0.2281  0.1888 -0.2987
   30SAPC   O22 3980   4.721   0.309   6.623  0.1018 -0.4567 -0.5199
   30SAPC   C22 3981   4.870   0.476   6.702 -0.1350  0.2143 -0.0521
   30SAPC   H2R 3982   4.951   0.534   6.653 -1.3400  0.4794 -1.8173
   30SAPC   H2S 3983   4.795   0.543   6.749 -0.9397 -0.6013 -0.1516
   30SAPC    C3 3984   4.896   0.188   6.396 -0.1476 -0.7727  0.0176
   30SAPC    HX 3985   4.883   0.128   6.303  1.9502 -1.0121 -0.1756
   30SAPC    HY 3986   4.824   0.146   6.470 -2.7829 -3.1085 -3.5134
   30SAPC   O31 3987   5.030   0.182   6.443 -0.4731 -0.0517  0.1418
   30SAPC   C31 3988   5.081   0.062   6.446  0.7720  0.4238  0.0622
   30SAPC   O32 3989   5.031  -0.040   6.398  0.1269  0.0551 -0.3919
   30SAPC   C32 3990   5.225   0.060   6.520 -0.2335 -0.5610  0.1116
   30SAPC   H2X 3991   5.287   0.120   6.451 -0.2592 -0.5528  0.0954
   30SAPC   H2Y 3992   5.261  -0.044   6.504  1.5632  0.2039 -1.1755
   30SAPC   C23 3993   4.946   0.390   6.802 -0.3202 -0.0706 -0.1195
   30SAPC   H3R 3994   5.029   0.455   6.838 -0.6638  1.8638 -2.5485
   30SAPC   H3S 3995   5.000   0.306   6.753  0.9507  0.9879 -0.6139
   30SAPC   C24 3996   4.870   0.331   6.921 -0.0603  0.4587  0.6200
   30SAPC   H4R 3997   4.916   0.245   6.974 -0.9895  0.4713  1.4705
   30SAPC   H4S 3998   4.773   0.289   6.885  0.3819  0.0213 -0.1014
   30SAPC   C25 3999   4.836   0.437   7.026  0.1238 -0.0288  0.5546
   30SAPC   H5R 4000   4.753   0.508   7.011 -1.0059 -1.5769 -0.8790
   30SAPC   C26 4001   4.921   0.456   7.124  0.1052 -0.7313 -0.3930
   30SAPC   H6R 4002   4.900   0.538   7.195 -1.8985 -0.2362 -1.4854
   30SAPC   C27 4003   5.055   0.388   7.154  0.6511 -0.6318  0.9082
   30SAPC   H7R 4004   5.136   0.461   7.133 -0.3311 -0.3110 -2.2219
   30SAPC   H7S 4005   5.073   0.290   7.103  0.1295  0.0296 -0.5829
   30SAPC   C28 4006   5.045   0.339   7.297 -0.1988 -0.2100 -0.5283
   30SAPC   H8R 4007   5.023   0.231   7.309  0.3533 -0.0772  2.1724
   30SAPC   C29 4008   5.075   0.413   7.407  0.0563  0.1249 -0.1826
   30SAPC   H9R 4009   5.064   0.375   7.509 -1.6017  1.7375  0.2912
   30SAPC  C210 4010   5.110   0.561   7.414  0.1518  0.4494 -0.3340
   30SAPC  H10R 4011   5.049   0.624   7.482  2.9439  0.0854  2.8036
   30SAPC  H10S 4012   5.105   0.601   7.311 -1.5038 -2.2521 -1.4158
   30SAPC  C211 4013   5.250   0.580   7.463 -0.0044  1.0271 -0.3707
   30SAPC  H11R 4014   5.315   0.606   7.378  0.4833  3.3850  0.6424
   30SAPC  C212 4015   5.291   0.561   7.589  0.3737  0.1813 -0.0289
   30SAPC  H12R 4016   5.395   0.576   7.620  0.6757 -3.0157  0.9201
   30SAPC  C213 4017   5.219   0.503   7.713 -0.1160 -0.2067 -0.4641
   30SAPC  H13R 4018   5.111   0.483   7.694 -0.4959  1.9689 -0.8474
   30SAPC  H13S 4019   5.225   0.588   7.784  1.0051  1.2047 -2.1798
   30SAPC  C214 4020   5.273   0.376   7.770 -0.3535 -0.1935  0.2285
   30SAPC  H14R 4021   5.331   0.319   7.695  0.4776  0.3058  0.4742
   30SAPC  C215 4022   5.252   0.337   7.894 -0.0315  0.3221 -0.1520
   30SAPC  H15R 4023   5.288   0.238   7.926  0.5037  1.0477  1.6227
   30SAPC  C216 4024   5.178   0.403   8.002 -0.3243 -0.5532 -0.2034
   30SAPC  H16R 4025   5.139   0.501   7.966  4.7178  1.2909 -1.4449
   30SAPC  H16S 4026   5.258   0.423   8.076 -1.2277  2.3918  0.1312
   30SAPC  C217 4027   5.075   0.309   8.049  0.1142  0.0510 -0.1956
   30SAPC  H17R 4028   5.093   0.201   8.070 -1.6959 -0.4091 -0.7605
   30SAPC  H17S 4029   4.989   0.300   7.979  1.0438 -2.5789 -1.1130
   30SAPC  C218 4030   5.015   0.354   8.186  0.3318 -0.7290 -0.2337
   30SAPC  H18R 4031   4.932   0.281   8.198 -0.6952  0.4646  0.1465
   30SAPC  H18S 4032   4.967   0.453   8.174 -0.1584 -0.5875  2.4631
   30SAPC  C219 4033   5.112   0.351   8.309 -0.2669  0.0738  0.4742
   30SAPC  H19R 4034   5.202   0.413   8.289  0.1187 -0.9150 -1.0439
   30SAPC  H19S 4035   5.149   0.247   8.315  3.8765  1.1426 -2.4562
   30SAPC  C220 4036   5.039   0.401   8.433  0.4422 -0.2172 -0.0651
   30SAPC  H20R 4037   5.000   0.503   8.414 -1.5593 -0.8260  0.6047
   30SAPC  H20S 4038   5.097   0.399   8.528 -0.7343 -2.8717  0.6901
   30SAPC  H20T 4039   4.946   0.346   8.456 -0.7437  2.0613  0.9124
   30SAPC   C33 4040   5.224   0.106   6.669  0.5324  0.9880 -0.1741
   30SAPC   H3X 4041   5.188   0.020   6.728 -1.3158  3.2672  2.2459
   30SAPC   H3Y 4042   5.154   0.191   6.681  0.3644  0.7847  0.2918
   30SAPC   C34 4043   5.347   0.178   6.722  0.5210  0.1622  0.3803
   30SAPC   H4X 4044   5.372   0.256   6.647 -1.8744 -0.9681 -1.7550
   30SAPC   H4Y 4045   5.433   0.107   6.719  1.7951  1.6439 -2.2155
   30SAPC   C35 4046   5.329   0.243   6.857  0.0786 -0.0728 -0.2742
   30SAPC   H5X 4047   5.309   0.160   6.929  1.8006  0.4069  0.7988
   30SAPC   H5Y 4048   5.245   0.316   6.862  0.0298 -0.1878  0.9023
   30SAPC   C36 4049   5.453   0.320   6.891 -0.4180 -0.2698 -0.5555
   30SAPC   H6X 4050   5.475   0.408   6.826  1.1960  1.0255  1.6203
   30SAPC   H6Y 4051   5.540   0.253   6.874  0.5563  0.7459  0.2915
   30SAPC   C37 4052   5.461   0.367   7.041  0.6796  0.5634  0.5021
   30SAPC   H7X 4053   5.363   0.414   7.064 -0.2910 -1.5635  0.9387
   30SAPC   H7Y 4054   5.556   0.424   7.054  1.4102 -0.5806  0.3272
   30SAPC   C38 4055   5.469   0.258   7.144 -0.4066  0.1089 -0.6561
   30SAPC   H8X 4056   5.539   0.179   7.109 -0.6841 -0.3818 -0.1316
   30SAPC   H8Y 4057   5.367   0.213   7.149  0.8291 -2.8353  0.3601
   30SAPC   C39 4058   5.527   0.298   7.281 -0.0811 -0.5389 -0.4873
   30SAPC   H9X 4059   5.471   0.378   7.334  2.7346  0.5089  1.1208
   30SAPC   H9Y 4060   5.631   0.335   7.269 -0.3311 -0.3599 -2.2975
   30SAPC  C310 4061   5.531   0.188   7.395  0.5174  0.4952  0.3255
   30SAPC  H10X 4062   5.598   0.105   7.367  0.0682  0.0775  0.4647
   30SAPC  H10Y 4063   5.429   0.145   7.409 -0.2717  1.6601 -1.4289
   30SAPC  C311 4064   5.576   0.245   7.532  0.2954 -0.4092  0.2048
   30SAPC  H11X 4065   5.534   0.186   7.616  0.5058 -2.0181 -0.7979
   30SAPC  H11Y 4066   5.544   0.352   7.532  1.5800 -0.0050  0.4004
   30SAPC  C312 4067   5.733   0.254   7.542 -0.9983 -0.0514 -0.3520
   30SAPC  H12X 4068   5.790   0.293   7.456  1.3127 -1.3517  0.5230
   30SAPC  H12Y 4069   5.780   0.155   7.557 -0.0015  0.2180 -1.5948
   30SAPC  C313 4070   5.777   0.338   7.663  0.0314 -0.2845 -0.6994
   30SAPC  H13X 4071   5.882   0.331   7.698 -0.4552 -2.1275  0.5136
   30SAPC  H13Y 4072   5.719   0.298   7.749 -1.7583 -1.2314 -2.2407
   30SAPC  C314 4073   5.746   0.491   7.636  0.1027  0.6479  0.0577
   30SAPC  H14X 4074   5.679   0.498   7.547 -0.3375 -2.1180  0.1029
   30SAPC  H14Y 4075   5.831   0.560   7.618  0.4631  0.4660  1.0447
   30SAPC  C315 4076   5.667   0.550   7.756 -0.1815 -0.4380  0.2512
   30SAPC  H15X 4077   5.726   0.534   7.848 -0.2818 -1.9863  0.0667
   30SAPC  H15Y 4078   5.573   0.492   7.767 -0.6036  0.4470  1.5908
   30SAPC  C316 4079   5.650   0.699   7.734 -0.1147  0.1835 -0.2519
   30SAPC  H16X 4080   5.584   0.725   7.649 -3.2216 -1.0824  1.6186
   30SAPC  H16Y 4081   5.748   0.751   7.728  0.0503  0.1493  1.6247
   30SAPC  C317 4082   5.597   0.761   7.860 -0.4319  0.4159 -0.1846
   30SAPC  H17X 4083   5.589   0.870   7.839  0.1730  0.3707 -0.6841
   30SAPC  H17Y 4084   5.672   0.748   7.941  3.2604 -1.0267 -3.5050
   30SAPC  C318 4085   5.458   0.724   7.910  0.0600 -0.3010  0.2663
   30SAPC  H18X 4086   5.382   0.728   7.828  1.0927 -0.0383 -0.7085
   30SAPC  H18Y 4087   5.430   0.791   7.994 -0.1520  0.2423 -0.2267
   30SAPC  H18Z 4088   5.449   0.621   7.950 -0.9881 -1.5394 -2.7856
   31SAPC     N 4089   4.802   1.324   5.941 -0.2151 -0.1518 -0.2629
   31SAPC   C12 4090   4.739   1.464   5.968 -0.0690 -0.0234  0.0085
   31SAPC  H12A 4091   4.646   1.439   6.017  0.3291 -0.8218  0.3812
   31SAPC  H12B 4092   4.708   1.504   5.873 -1.9702 -0.9245  0.2075
   31SAPC   C13 4093   4.749   1.253   5.827 -0.1920 -0.1049  0.2570
   31SAPC  H13A 4094   4.802   1.160   5.814  0.7856  0.4603  0.0584
   31SAPC  H13B 4095   4.644   1.231   5.835 -0.6388  1.4380 -0.8906
   31SAPC  H13C 4096   4.762   1.312   5.737  3.9489 -1.0943 -0.0162
   31SAPC   C14 4097   4.952   1.339   5.926 -0.0114  0.1064 -0.6000
   31SAPC  H14A 4098   5.011   1.249   5.926 -1.3576 -0.9005 -3.2619
   31SAPC  H14B 4099   4.987   1.410   5.852  1.3131  0.7024  0.5546
   31SAPC  H14C 4100   4.984   1.385   6.018  1.0293  2.2251 -1.9318
   31SAPC   C15 4101   4.774   1.233   6.060  0.2309  0.3934 -0.1365
   31SAPC  H15A 4102   4.839   1.147   6.063  0.3491  0.4973  0.5591
   31SAPC  H15B 4103   4.787   1.277   6.158 -2.0389 -2.8151  1.8206
   31SAPC  H15C 4104   4.673   1.197   6.046 -0.0756  0.9521  0.5298
   31SAPC   C11 4105   4.826   1.577   6.042 -0.2007  0.1898  0.2820
   31SAPC  H11A 4106   4.765   1.670   6.040 -0.2543  0.1572 -2.0394
   31SAPC  H11B 4107   4.914   1.598   5.978 -0.8507  2.0564 -0.0743
   31SAPC     P 4108   4.765   1.544   6.295  0.2925 -0.3794 -0.2521
   31SAPC   O13 4109   4.736   1.682   6.326  0.1511  0.2739  0.1062
   31SAPC   O14 4110   4.658   1.450   6.261 -0.0121  0.2361 -0.3111
   31SAPC   O12 4111   4.864   1.534   6.172 -0.2191 -0.4567 -0.2285
   31SAPC   O11 4112   4.845   1.494   6.422  0.0370 -0.1790  0.1022
   31SAPC    C1 4113   4.839   1.355   6.458 -0.0884  0.2466  0.1971
   31SAPC    HA 4114   4.811   1.283   6.378 -1.9854  1.7438 -0.5591
   31SAPC    HB 4115   4.939   1.322   6.495 -1.2496 -4.3550 -0.0880
   31SAPC    C2 4116   4.759   1.331   6.588 -0.1858  0.4757  0.1772
   31SAPC    HS 4117   4.755   1.223   6.613 -2.9246  0.4852  0.0225
   31SAPC   O21 4118   4.631   1.381   6.569  0.1417 -0.0499  0.0361
   31SAPC   C21 4119   4.541   1.307   6.505  0.0628 -0.2249  0.1966
   31SAPC   O22 4120   4.553   1.197   6.453 -0.4490 -0.0487 -0.0629
   31SAPC   C22 4121   4.414   1.389   6.488  0.0411 -0.5411  0.0427
   31SAPC   H2R 4122   4.388   1.428   6.589 -2.3502 -2.2512  0.1852
   31SAPC   H2S 4123   4.433   1.470   6.414 -3.3074  0.2417 -0.1428
   31SAPC    C3 4124   4.834   1.408   6.700 -0.9439  0.5213  0.0888
   31SAPC    HX 4125   4.831   1.518   6.686 -0.0665  0.4974 -0.4387
   31SAPC    HY 4126   4.944   1.392   6.688 -1.4234 -3.1337 -0.6192
   31SAPC   O31 4127   4.797   1.361   6.833 -0.2062 -0.0406  0.2374
   31SAPC   C31 4128   4.702   1.425   6.884 -0.3778  0.1569 -0.6131
   31SAPC   O32 4129   4.645   1.523   6.846  0.0530  0.0924  0.3901
   31SAPC   C32 4130   4.669   1.353   7.023  0.4665 -0.3075 -0.0615
   31SAPC   H2X 4131   4.751   1.280   7.037  1.5934  1.3179  2.7917
   31SAPC   H2Y 4132   4.575   1.296   7.004  1.2171 -2.0643  1.2375
   31SAPC   C23 4133   4.281   1.311   6.447 -0.1689 -0.8677 -0.1897
   31SAPC   H3R 4134   4.285   1.240   6.361 -0.8206 -0.3718 -0.6436
   31SAPC   H3S 4135   4.216   1.387   6.398 -0.1454 -1.2947 -0.8918
   31SAPC   C24 4136   4.203   1.240   6.550  0.5721  0.6552 -0.0255
   31SAPC   H4R 4137   4.103   1.210   6.512  1.2353  0.3013 -1.5684
   31SAPC   H4S 4138   4.174   1.312   6.630  1.7995  0.7203  0.3835
   31SAPC   C25 4139   4.274   1.124   6.610  0.3441 -0.1477  0.0787
   31SAPC   H5R 4140   4.271   1.028   6.558 -2.2451 -1.4355  2.3832
   31SAPC   C26 4141   4.345   1.128   6.722 -0.2749  0.1007  0.8270
   31SAPC   H6R 4142   4.395   1.036   6.757  2.6433  1.1181 -0.3783
   31SAPC   C27 4143   4.363   1.247   6.818 -0.6095  0.1153  0.5445
   31SAPC   H7R 4144   4.319   1.339   6.773 -0.8035  0.1592  0.8241
   31SAPC   H7S 4145   4.471   1.270   6.814 -0.3117 -1.3318 -0.4735
   31SAPC   C28 4146   4.299   1.239   6.954  0.4611  0.1342  0.7247
   31SAPC   H8R 4147   4.213   1.306   6.969  1.0748  0.9665  0.5542
   31SAPC   C29 4148   4.340   1.143   7.043  0.2527 -0.4938 -0.2774
   31SAPC   H9R 4149   4.284   1.122   7.135 -0.9287  0.1522 -0.8347
   31SAPC  C210 4150   4.444   1.033   7.027 -0.6751  0.2923 -0.2399
   31SAPC  H10R 4151   4.518   1.052   7.107 -1.5352 -0.5410  0.7635
   31SAPC  H10S 4152   4.506   1.039   6.935 -0.3604 -0.0719 -0.0527
   31SAPC  C211 4153   4.385   0.891   7.020  0.4848 -0.4321  0.6367
   31SAPC  H11R 4154   4.313   0.879   6.939  0.3916  0.8739  0.5049
   31SAPC  C212 4155   4.411   0.783   7.094 -0.7397  0.2468 -0.5359
   31SAPC  H12R 4156   4.347   0.694   7.086 -1.4769  0.8220 -1.1431
   31SAPC  C213 4157   4.504   0.776   7.218  0.1516  0.2785  0.4552
   31SAPC  H13R 4158   4.553   0.875   7.223  0.7980  0.3302 -3.5034
   31SAPC  H13S 4159   4.576   0.692   7.217  0.7524  0.7620  1.4954
   31SAPC  C214 4160   4.433   0.756   7.354 -0.3475 -0.2732  0.7599
   31SAPC  H14R 4161   4.413   0.651   7.383  0.5958 -0.8549 -0.5709
   31SAPC  C215 4162   4.400   0.857   7.431 -0.0050 -0.4424 -0.0834
   31SAPC  H15R 4163   4.344   0.841   7.524 -0.5371  0.5277 -0.2233
   31SAPC  C216 4164   4.432   1.005   7.401 -0.1694  0.2273 -0.2376
   31SAPC  H16R 4165   4.425   1.030   7.293  3.3584  0.3924 -0.5284
   31SAPC  H16S 4166   4.537   1.028   7.427 -0.0480 -0.3903 -0.1621
   31SAPC  C217 4167   4.342   1.114   7.462  0.3607 -0.3420 -0.1264
   31SAPC  H17R 4168   4.242   1.115   7.413  0.2576 -0.9301  0.0641
   31SAPC  H17S 4169   4.375   1.217   7.437 -0.2791 -0.4054 -1.3130
   31SAPC  C218 4170   4.316   1.119   7.613  0.5715 -0.3640 -1.3461
   31SAPC  H18R 4171   4.402   1.168   7.662 -0.4337 -0.4787  0.6458
   31SAPC  H18S 4172   4.318   1.017   7.657  3.1662  0.1520 -0.0990
   31SAPC  C219 4173   4.188   1.196   7.648 -0.6284  0.3725 -0.1341
   31SAPC  H19R 4174   4.102   1.130   7.622 -0.2535 -0.7482  1.3384
   31SAPC  H19S 4175   4.192   1.293   7.593  0.2540  0.8258  0.7142
   31SAPC  C220 4176   4.180   1.231   7.797 -0.4547  0.4728 -0.1034
   31SAPC  H20R 4177   4.174   1.130   7.843 -2.0972  1.4074  1.9353
   31SAPC  H20S 4178   4.093   1.295   7.823 -0.5845 -0.8537  3.3956
   31SAPC  H20T 4179   4.265   1.290   7.836 -0.0768  0.4172 -0.8358
   31SAPC   C33 4180   4.661   1.455   7.142 -0.2635  0.1271 -0.4867
   31SAPC   H3X 4181   4.589   1.538   7.129  1.2069  1.3027 -1.6066
   31SAPC   H3Y 4182   4.760   1.506   7.148 -0.3930  0.3723 -0.4256
   31SAPC   C34 4183   4.635   1.382   7.280 -0.8513 -0.3865  1.1161
   31SAPC   H4X 4184   4.713   1.303   7.288 -1.2109 -0.5836  3.4235
   31SAPC   H4Y 4185   4.531   1.345   7.276 -1.2503  0.7671  0.0994
   31SAPC   C35 4186   4.653   1.480   7.398 -0.9326  0.2961  0.0231
   31SAPC   H5X 4187   4.567   1.550   7.394 -2.4119 -1.4827 -0.4778
   31SAPC   H5Y 4188   4.751   1.532   7.411 -0.2125 -1.3805  1.9163
   31SAPC   C36 4189   4.623   1.395   7.526  0.1119 -0.8931  0.1726
   31SAPC   H6X 4190   4.711   1.331   7.547  1.0086  0.2148 -0.1404
   31SAPC   H6Y 4191   4.532   1.331   7.528 -0.3644 -0.3272 -1.9051
   31SAPC   C37 4192   4.623   1.490   7.645  0.1146 -0.0813  0.1448
   31SAPC   H7X 4193   4.555   1.573   7.618  0.4840 -0.9559 -4.2962
   31SAPC   H7Y 4194   4.722   1.541   7.647 -0.3785  0.8672  1.3100
   31SAPC   C38 4195   4.595   1.411   7.774  0.0445 -0.3073  0.0579
   31SAPC   H8X 4196   4.655   1.317   7.775 -2.4439 -1.9856  0.1522
   31SAPC   H8Y 4197   4.487   1.386   7.773  0.5710 -3.0763 -1.7128
   31SAPC   C39 4198   4.621   1.489   7.901  0.1855  0.3619  0.3868
   31SAPC   H9X 4199   4.550   1.571   7.922 -0.5300 -0.5134  1.5124
   31SAPC   H9Y 4200   4.721   1.534   7.884  0.0480  1.0821  1.3844
   31SAPC  C310 4201   4.628   1.398   8.030  0.4284  0.0995 -0.8478
   31SAPC  H10X 4202   4.721   1.338   8.032  1.3546  1.4389 -2.1466
   31SAPC  H10Y 4203   4.542   1.330   8.052  1.8418 -1.7405 -0.8041
   31SAPC  C311 4204   4.637   1.486   8.149  0.2417  0.4956 -0.2496
   31SAPC  H11X 4205   4.537   1.535   8.158  0.6315  0.9915  1.8951
   31SAPC  H11Y 4206   4.718   1.556   8.120 -0.7721  0.6471 -3.0749
   31SAPC  C312 4207   4.667   1.425   8.287  0.5580 -0.4260  0.5817
   31SAPC  H12X 4208   4.777   1.416   8.289  0.8724  1.9793 -1.1474
   31SAPC  H12Y 4209   4.619   1.326   8.296 -1.9468  0.5821 -0.5837
   31SAPC  C313 4210   4.613   1.506   8.408 -0.2316 -0.1019 -0.2112
   31SAPC  H13X 4211   4.504   1.490   8.391 -0.1730 -0.2798 -0.4193
   31SAPC  H13Y 4212   4.624   1.615   8.394 -1.4575 -0.1472 -1.8888
   31SAPC  C314 4213   4.648   1.445   8.542 -0.4853  0.7239 -0.1701
   31SAPC  H14X 4214   4.748   1.487   8.566  0.5136 -1.5593 -0.1054
   31SAPC  H14Y 4215   4.640   1.335   8.539 -1.7724  0.8131 -0.5605
   31SAPC  C315 4216   4.564   1.495   8.657  0.7276 -0.6119 -0.0758
   31SAPC  H15X 4217   4.463   1.453   8.638  1.2846 -0.9521 -2.7171
   31SAPC  H15Y 4218   4.568   1.606   8.656  0.0108 -0.5687  0.8153
   31SAPC  C316 4219   4.608   1.448   8.799  0.0285  0.0104  0.9489
   31SAPC  H16X 4220   4.717   1.427   8.795  0.7206  2.5587  3.2833
   31SAPC  H16Y 4221   4.570   1.345   8.816 -1.3050  0.5331  1.2263
   31SAPC  C317 4222   4.584   1.542   8.913 -0.6690 -0.1903 -0.5543
   31SAPC  H17X 4223   4.474   1.558   8.906 -0.5414  0.5920 -0.9352
   31SAPC  H17Y 4224   4.631   1.640   8.888  1.8711 -0.5050  2.3103
   31SAPC  C318 4225   4.621   1.478   9.052 -0.5100  0.2882 -0.2570
   31SAPC  H18X 4226   4.600   1.550   9.134  1.5181 -0.8976  1.4022
   31SAPC  H18Y 4227   4.730   1.456   9.054 -0.0673  2.1751 -1.0458
   31SAPC  H18Z 4228   4.552   1.391   9.058 -1.2756  0.8301 -1.0035
   32SAPC     N 4229   0.682   0.532   5.940  0.0308  0.1915 -0.0873
   32SAPC   C12 4230   0.603   0.503   6.065  0.3935  0.3479 -0.5804
   32SAPC  H12A 4231   0.679   0.473   6.135  0.8335  1.5226 -0.5319
   32SAPC  H12B 4232   0.529   0.425   6.050 -1.4311  2.0025 -0.6120
   32SAPC   C13 4233   0.777   0.413   5.920  0.3229 -0.4131 -0.7176
   32SAPC  H13A 4234   0.816   0.397   6.019 -0.7769 -0.0467 -0.2087
   32SAPC  H13B 4235   0.734   0.317   5.894  0.0830 -0.5538  0.1571
   32SAPC  H13C 4236   0.850   0.441   5.846  1.3736  0.0485  0.4697
   32SAPC   C14 4237   0.604   0.554   5.814 -0.0248 -0.2728  0.9488
   32SAPC  H14A 4238   0.676   0.588   5.741  1.0092  0.4658  2.2784
   32SAPC  H14B 4239   0.553   0.462   5.787 -2.1732  1.0715  0.1518
   32SAPC  H14C 4240   0.529   0.630   5.830  1.5231  0.8950  2.9938
   32SAPC   C15 4241   0.771   0.652   5.968  0.0756  0.3923  0.1363
   32SAPC  H15A 4242   0.817   0.643   6.065 -0.3941  1.5254  0.4785
   32SAPC  H15B 4243   0.844   0.671   5.891 -1.1020 -0.5784 -1.2742
   32SAPC  H15C 4244   0.698   0.731   5.967 -2.2850 -1.6919 -0.5600
   32SAPC   C11 4245   0.528   0.621   6.128  0.4361  0.0146  0.1940
   32SAPC  H11A 4246   0.600   0.703   6.148 -1.0447  1.7597 -1.2182
   32SAPC  H11B 4247   0.483   0.577   6.219 -2.9970 -1.0897 -1.8318
   32SAPC     P 4248   0.271   0.651   6.057  0.0369  0.0967 -0.4418
   32SAPC   O13 4249   0.206   0.734   5.957 -0.0111  0.1203 -0.2828
   32SAPC   O14 4250   0.248   0.505   6.052 -0.4916 -0.7060 -0.3019
   32SAPC   O12 4251   0.425   0.676   6.040 -1.2452 -0.1658 -0.7743
   32SAPC   O11 4252   0.250   0.702   6.204 -0.2956 -0.3185 -0.3106
   32SAPC    C1 4253   0.255   0.837   6.231 -0.2014 -0.6607  0.6653
   32SAPC    HA 4254   0.242   0.902   6.142  0.0493 -0.4562  0.7773
   32SAPC    HB 4255   0.167   0.862   6.295  0.5499 -1.4016  2.0372
   32SAPC    C2 4256   0.382   0.875   6.308  0.2913 -0.2100  0.7367
   32SAPC    HS 4257   0.465   0.867   6.235  0.3048  0.5866  0.6545
   32SAPC   O21 4258   0.404   0.788   6.418  0.2284  0.1402  0.1235
   32SAPC   C21 4259   0.520   0.789   6.469 -0.1790  0.4502  0.4869
   32SAPC   O22 4260   0.618   0.852   6.424 -0.0126  0.0425  0.0488
   32SAPC   C22 4261   0.534   0.686   6.580  0.1419  0.2546 -0.6294
   32SAPC   H2R 4262   0.434   0.673   6.628 -0.1280  0.4838 -1.1288
   32SAPC   H2S 4263   0.556   0.585   6.541 -0.4459  0.6596 -2.0728
   32SAPC    C3 4264   0.386   1.023   6.355 -1.4048 -0.2745 -0.1794
   32SAPC    HX 4265   0.364   1.076   6.260  0.8764  1.0697 -0.0255
   32SAPC    HY 4266   0.492   1.049   6.378 -0.1830 -2.6527 -2.5767
   32SAPC   O31 4267   0.291   1.067   6.451 -0.0868  0.0006 -0.2881
   32SAPC   C31 4268   0.333   1.085   6.577 -0.1401  0.7158  0.8523
   32SAPC   O32 4269   0.450   1.078   6.618  0.1267  0.1356 -0.4287
   32SAPC   C32 4270   0.211   1.080   6.665 -0.2078 -0.0922  0.1258
   32SAPC   H2X 4271   0.139   1.003   6.631 -0.4525 -0.6847  1.9094
   32SAPC   H2Y 4272   0.145   1.169   6.648 -1.0950 -1.0040 -1.5204
   32SAPC   C23 4273   0.644   0.712   6.686  0.2881 -0.6417 -0.4399
   32SAPC   H3R 4274   0.729   0.769   6.644  0.2507  0.7187  1.2150
   32SAPC   H3S 4275   0.692   0.620   6.728  1.1148 -0.0780 -0.1186
   32SAPC   C24 4276   0.596   0.798   6.810 -0.0621  0.7716 -0.3997
   32SAPC   H4R 4277   0.531   0.735   6.874 -1.4247  2.5278  0.0523
   32SAPC   H4S 4278   0.529   0.874   6.763  0.2943  0.2534 -1.7749
   32SAPC   C25 4279   0.705   0.874   6.886 -0.0178 -0.2303 -0.0951
   32SAPC   H5R 4280   0.731   0.971   6.840  1.4172 -1.3070 -1.6548
   32SAPC   C26 4281   0.772   0.834   6.998 -0.4467 -0.6435  0.2268
   32SAPC   H6R 4282   0.836   0.902   7.056  0.5675  0.3822 -1.9742
   32SAPC   C27 4283   0.754   0.695   7.051 -0.1222 -0.0299 -0.4408
   32SAPC   H7R 4284   0.793   0.625   6.975  0.4079  0.4764 -0.6377
   32SAPC   H7S 4285   0.645   0.675   7.058  0.0223 -0.7080  0.0603
   32SAPC   C28 4286   0.810   0.666   7.189  0.7943  0.0777  0.1931
   32SAPC   H8R 4287   0.882   0.582   7.193  0.1823 -0.4547  0.1386
   32SAPC   C29 4288   0.771   0.723   7.304  0.0851 -0.0740 -0.0529
   32SAPC   H9R 4289   0.821   0.702   7.400 -0.5556 -1.7227 -0.0423
   32SAPC  C210 4290   0.663   0.827   7.313  0.0149  0.7147 -0.7367
   32SAPC  H10R 4291   0.595   0.797   7.396 -0.1803 -2.2244 -1.8130
   32SAPC  H10S 4292   0.606   0.833   7.218  1.4080  0.4250 -1.6123
   32SAPC  C211 4293   0.704   0.967   7.350  0.3161  0.8127  0.6540
   32SAPC  H11R 4294   0.720   1.027   7.259 -1.2499 -0.1541 -0.2889
   32SAPC  C212 4295   0.732   1.010   7.474  1.0863 -0.6335  0.4126
   32SAPC  H12R 4296   0.768   1.114   7.485 -1.9986  0.5572  0.2993
   32SAPC  C213 4297   0.719   0.932   7.598 -0.2669 -0.0534 -0.3643
   32SAPC  H13R 4298   0.745   0.825   7.584  1.5016  0.1623  0.8759
   32SAPC  H13S 4299   0.619   0.925   7.647 -1.6072 -2.5843 -3.1165
   32SAPC  C214 4300   0.823   0.984   7.695 -0.5619 -0.2062 -0.3938
   32SAPC  H14R 4301   0.921   0.933   7.687 -0.4181 -0.1150  0.7384
   32SAPC  C215 4302   0.818   1.085   7.785  0.2142 -0.0095 -0.2658
   32SAPC  H15R 4303   0.907   1.097   7.848  0.4639 -1.8715 -0.1898
   32SAPC  C216 4304   0.695   1.160   7.830  0.4053 -0.0129 -0.5958
   32SAPC  H16R 4305   0.612   1.133   7.760  0.6573 -1.6648 -0.3082
   32SAPC  H16S 4306   0.708   1.268   7.853 -1.2456 -0.2243  1.6345
   32SAPC  C217 4307   0.662   1.110   7.982  0.4467 -0.3958 -0.1900
   32SAPC  H17R 4308   0.650   0.999   7.983 -1.5160 -0.2665 -1.7960
   32SAPC  H17S 4309   0.570   1.159   8.021  1.1309  1.2763 -0.5784
   32SAPC  C218 4310   0.779   1.158   8.078 -0.1676  0.1541  0.0745
   32SAPC  H18R 4311   0.806   1.261   8.048  1.9712 -0.4982 -0.4473
   32SAPC  H18S 4312   0.864   1.092   8.050  2.7929  3.5838  0.2007
   32SAPC  C219 4313   0.745   1.128   8.227  0.2906 -0.2731  0.5049
   32SAPC  H19R 4314   0.840   1.112   8.282 -0.0823 -2.9712  0.5083
   32SAPC  H19S 4315   0.694   1.030   8.219  1.9816 -1.1599  0.0518
   32SAPC  C220 4316   0.646   1.221   8.301 -0.0216  0.2267 -0.5173
   32SAPC  H20R 4317   0.560   1.234   8.232  1.7395  2.9702 -2.3785
   32SAPC  H20S 4318   0.694   1.318   8.326 -0.3579  0.8874 -2.2973
   32SAPC  H20T 4319   0.610   1.179   8.398  2.7846  2.0821  1.4685
   32SAPC   C33 4320   0.252   1.054   6.808 -0.1672  0.1048  1.1297
   32SAPC   H3X 4321   0.349   1.002   6.825  1.1105  1.6175 -1.1277
   32SAPC   H3Y 4322   0.172   0.984   6.841 -0.0238 -0.2055  0.8252
   32SAPC   C34 4323   0.215   1.165   6.902 -0.2896 -0.4321 -0.0657
   32SAPC   H4X 4324   0.117   1.213   6.879  1.4445  2.2597 -2.4839
   32SAPC   H4Y 4325   0.286   1.250   6.894  0.4259 -0.2574  4.8501
   32SAPC   C35 4326   0.211   1.116   7.047  0.2241  0.1560  0.1656
   32SAPC   H5X 4327   0.315   1.092   7.078 -0.7774 -1.9539  2.2038
   32SAPC   H5Y 4328   0.158   1.019   7.040  2.4552 -1.0713 -0.8034
   32SAPC   C36 4329   0.149   1.216   7.144 -1.1803  0.0958  0.2791
   32SAPC   H6X 4330   0.040   1.232   7.132 -1.1958 -0.2168 -0.0250
   32SAPC   H6Y 4331   0.198   1.313   7.123  0.5702 -0.2795  2.3046
   32SAPC   C37 4332   0.185   1.188   7.289 -0.0236 -0.4456 -0.8185
   32SAPC   H7X 4333   0.150   1.086   7.317 -2.4004 -0.1373 -2.3848
   32SAPC   H7Y 4334   0.116   1.254   7.345 -1.6396 -3.0108  0.4291
   32SAPC   C38 4335   0.325   1.224   7.333 -0.0263 -0.1329 -0.3698
   32SAPC   H8X 4336   0.350   1.332   7.338  0.0194 -0.1021 -1.0894
   32SAPC   H8Y 4337   0.392   1.181   7.256 -0.4953 -2.3433  0.3966
   32SAPC   C39 4338   0.357   1.142   7.459 -0.6528  0.1137 -0.6008
   32SAPC   H9X 4339   0.464   1.159   7.483 -0.1871 -0.5380 -2.0956
   32SAPC   H9Y 4340   0.350   1.035   7.430  0.5917 -0.2108  0.2339
   32SAPC  C310 4341   0.282   1.187   7.578  0.8915  0.9964 -0.0895
   32SAPC  H10X 4342   0.322   1.140   7.670  2.6789  0.0370 -1.2995
   32SAPC  H10Y 4343   0.178   1.149   7.574  1.0976  0.5231 -2.2814
   32SAPC  C311 4344   0.265   1.334   7.615 -0.2478  1.1918  0.1638
   32SAPC  H11X 4345   0.233   1.406   7.538  0.1904  0.5258 -0.6566
   32SAPC  H11Y 4346   0.366   1.373   7.638 -1.4664  3.2079  2.6670
   32SAPC  C312 4347   0.182   1.343   7.745 -0.5807 -0.2161  0.1490
   32SAPC  H12X 4348   0.199   1.251   7.805 -1.6073 -0.3579  0.2471
   32SAPC  H12Y 4349   0.077   1.326   7.711 -0.1821  0.7643 -1.6797
   32SAPC  C313 4350   0.207   1.479   7.808 -0.0809 -1.1547  0.0390
   32SAPC  H13X 4351   0.193   1.557   7.731  1.9965  1.2166  1.8830
   32SAPC  H13Y 4352   0.313   1.484   7.841 -0.7487  2.7131  2.1119
   32SAPC  C314 4353   0.115   1.498   7.934 -0.4123 -0.8595  1.1982
   32SAPC  H14X 4354   0.016   1.470   7.891  0.2245 -0.9699 -0.2414
   32SAPC  H14Y 4355   0.120   1.605   7.963 -0.6330 -0.8924  1.3631
   32SAPC  C315 4356   0.156   1.409   8.051 -0.9541 -0.3039 -0.0981
   32SAPC  H15X 4357   0.242   1.453   8.106 -0.7756 -1.2517  0.3881
   32SAPC  H15Y 4358   0.178   1.308   8.011  2.7974  0.8784 -1.4291
   32SAPC  C316 4359   0.053   1.390   8.158 -0.4710  0.2239 -0.6087
   32SAPC  H16X 4360  -0.042   1.371   8.103  0.8434 -3.4719 -1.8655
   32SAPC  H16Y 4361   0.049   1.480   8.224  0.4515  0.1946 -0.5075
   32SAPC  C317 4362   0.076   1.261   8.249  0.4542  0.3943  0.3867
   32SAPC  H17X 4363   0.080   1.178   8.176 -0.4268  0.1407  0.6070
   32SAPC  H17Y 4364  -0.011   1.252   8.318 -0.0821  2.6075  0.0952
   32SAPC  C318 4365   0.208   1.261   8.330 -0.1339  0.0279  0.2841
   32SAPC  H18X 4366   0.202   1.316   8.427  2.6784 -0.0003  0.5499
   32SAPC  H18Y 4367   0.292   1.311   8.277  0.7126  0.7417  2.2032
   32SAPC  H18Z 4368   0.238   1.156   8.348 -0.7944 -0.3973 -1.0300
   33POPC     N 4369   5.719   3.590  10.773  0.6952  0.0557 -0.7908
   33POPC   C12 4370   5.697   3.440  10.757  0.2374  0.6623  0.4418
   33POPC  H12A 4371   5.681   3.419  10.652  2.2564 -0.0052  0.2282
   33POPC  H12B 4372   5.610   3.406  10.811  0.7532  1.6099  1.9417
   33POPC   C13 4373   5.583   3.662  10.760 -0.4457  0.3135  0.2146
   33POPC  H13A 4374   5.555   3.643  10.657  0.1677 -2.3011  0.4619
   33POPC  H13B 4375   5.516   3.616  10.832  1.4009 -0.3426  1.6008
   33POPC  H13C 4376   5.593   3.767  10.781 -1.1751 -0.0170  2.5777
   33POPC   C14 4377   5.778   3.634  10.903 -0.2360  0.7698 -0.5299
   33POPC  H14A 4378   5.880   3.600  10.909  0.5036  2.2935 -3.1152
   33POPC  H14B 4379   5.768   3.738  10.931 -3.1799  0.2169  0.8942
   33POPC  H14C 4380   5.725   3.583  10.983 -0.7953  1.0280 -0.7288
   33POPC   C15 4381   5.789   3.630  10.653  0.1754 -0.3025  0.3850
   33POPC  H15A 4382   5.741   3.618  10.557  0.5774 -1.3334  0.3074
   33POPC  H15B 4383   5.875   3.567  10.641 -1.1197 -1.9113 -0.9033
   33POPC  H15C 4384   5.819   3.734  10.662  1.7268 -0.6713 -0.1978
   33POPC   C11 4385   5.816   3.350  10.794  0.6595 -0.5295 -0.1441
   33POPC  H11A 4386   5.781   3.248  10.767  0.9489  0.0369 -2.9712
   33POPC  H11B 4387   5.824   3.353  10.905  1.0588  0.6389 -0.1948
   33POPC     P 4388   5.988   3.324  10.605  0.0874  0.0418 -0.2142
   33POPC   O13 4389   6.138   3.312  10.610 -0.9351 -0.0120  0.8211
   33POPC   O14 4390   5.925   3.399  10.498  0.2474 -0.3415  0.0792
   33POPC   O12 4391   5.944   3.392  10.740 -0.3538  0.2701  0.1757
   33POPC   O11 4392   5.922   3.178  10.606 -0.0700 -0.5652  0.2472
   33POPC    C1 4393   5.859   3.130  10.488  0.0492 -0.4575  0.3043
   33POPC    HA 4394   5.794   3.042  10.511 -1.0861  0.1653 -0.4299
   33POPC    HB 4395   5.791   3.205  10.443  0.6645 -0.5102 -0.7578
   33POPC    C2 4396   5.953   3.074  10.377  0.1114 -0.1619  0.0957
   33POPC    HS 4397   6.009   3.160  10.336 -2.2707  1.8222  0.7470
   33POPC   O21 4398   5.876   2.999  10.281  0.4226  0.2980  0.1002
   33POPC   C21 4399   5.836   3.064  10.171  0.0198 -0.0985 -0.6054
   33POPC   O22 4400   5.835   3.188  10.160 -0.5729 -0.0900 -0.0458
   33POPC   C22 4401   5.806   2.964  10.069 -0.0081  0.8077  0.1451
   33POPC   H2R 4402   5.717   2.906  10.102  0.3585 -0.3133 -0.7668
   33POPC   H2S 4403   5.888   2.889  10.056 -1.5882 -0.8917 -0.5515
   33POPC    C3 4404   6.052   2.966  10.437  0.3354  0.1111  0.1689
   33POPC    HX 4405   6.001   2.881  10.487 -1.5687  0.2844 -1.3573
   33POPC    HY 4406   6.111   3.021  10.513 -1.0203  1.2455  0.4371
   33POPC   O31 4407   6.129   2.911  10.329 -0.3679 -0.1430  0.0428
   33POPC   C31 4408   6.248   2.964  10.299 -0.3040 -0.3399 -0.2286
   33POPC   O32 4409   6.301   3.061  10.355 -0.2149 -0.1829  0.1584
   33POPC   C32 4410   6.313   2.890  10.187 -0.3736  0.0793  0.0210
   33POPC   H2X 4411   6.248   2.816  10.137 -0.2081  1.7214 -2.8481
   33POPC   H2Y 4412   6.397   2.828  10.224  1.1670  1.7762 -0.5069
   33POPC   C23 4413   5.780   3.042   9.936 -0.4737  0.0615 -1.3156
   33POPC   H3R 4414   5.708   3.125   9.954 -0.1238  0.1092 -0.0623
   33POPC   H3S 4415   5.728   2.977   9.863 -0.3830  0.8237 -2.0757
   33POPC   C24 4416   5.903   3.096   9.868 -0.1503 -0.1437  0.9317
   33POPC   H4R 4417   5.994   3.035   9.884  1.8817  2.8795  1.6919
   33POPC   H4S 4418   5.927   3.192   9.919  1.8544 -0.0817 -0.0664
   33POPC   C25 4419   5.879   3.139   9.722 -0.1286  0.8357  0.6970
   33POPC   H5R 4420   5.955   3.218   9.702 -0.3146  0.4291 -2.1429
   33POPC   H5S 4421   5.778   3.184   9.710 -1.2019 -1.5198  0.3387
   33POPC   C26 4422   5.900   3.024   9.623  0.4425 -0.9835  0.1724
   33POPC   H6R 4423   5.820   2.947   9.625 -0.3918 -0.1876 -0.9465
   33POPC   H6S 4424   5.995   2.975   9.654  0.8438 -0.2508  0.1321
   33POPC   C27 4425   5.923   3.061   9.471  0.0004 -0.1091  0.1953
   33POPC   H7R 4426   5.956   2.965   9.426  0.4976 -0.7193  1.7726
   33POPC   H7S 4427   5.999   3.143   9.471 -0.7672  0.6151 -0.3706
   33POPC   C28 4428   5.800   3.117   9.401 -0.0176  0.9103 -0.1812
   33POPC   H8R 4429   5.841   3.144   9.301  0.9800 -2.6311 -0.8509
   33POPC   H8S 4430   5.775   3.216   9.446  0.2500  1.1923 -0.6323
   33POPC   C29 4431   5.682   3.019   9.382  0.1288 -0.6398 -0.2346
   33POPC   H91 4432   5.676   2.941   9.459  1.3400  1.1000  1.7107
   33POPC  C210 4433   5.585   3.032   9.293 -0.1528 -0.1141 -0.3837
   33POPC  H101 4434   5.512   2.950   9.291 -2.1336  1.3360  3.4333
   33POPC  C211 4435   5.580   3.139   9.184  1.0548 -0.0529 -0.9198
   33POPC  H11R 4436   5.529   3.112   9.089 -0.6493 -1.5249  0.3402
   33POPC  H11S 4437   5.681   3.176   9.159  0.7982  0.7492 -0.7961
   33POPC  C212 4438   5.498   3.259   9.228  0.2000  0.3464 -0.7922
   33POPC  H12R 4439   5.509   3.347   9.161  2.7616  1.3072  0.7370
   33POPC  H12S 4440   5.554   3.296   9.317  0.4874 -1.9509  0.0795
   33POPC  C213 4441   5.348   3.234   9.260 -0.8808 -0.0353  0.1024
   33POPC  H13R 4442   5.345   3.161   9.343 -1.5646  0.5375  0.6005
   33POPC  H13S 4443   5.284   3.195   9.178 -1.1118 -1.0674  0.7523
   33POPC  C214 4444   5.293   3.362   9.316 -0.0362 -0.1301  0.0178
   33POPC  H14R 4445   5.301   3.447   9.244  0.4355 -0.5915 -0.4923
   33POPC  H14S 4446   5.350   3.397   9.405  0.0313  3.5971 -1.3208
   33POPC  C215 4447   5.149   3.354   9.354 -0.0868 -0.3952 -0.5283
   33POPC  H15R 4448   5.123   3.294   9.444 -0.5862 -1.5435 -1.4145
   33POPC  H15S 4449   5.094   3.305   9.271 -1.4759  1.0633 -0.5285
   33POPC  C216 4450   5.081   3.493   9.369 -0.6532  0.1662 -0.0465
   33POPC  H16R 4451   5.101   3.548   9.275 -3.1466 -0.0440 -0.7499
   33POPC  H16S 4452   5.124   3.544   9.458  1.3070 -0.2054 -0.7311
   33POPC  C217 4453   4.928   3.492   9.379  0.0293  0.5678  0.6083
   33POPC  H17R 4454   4.890   3.455   9.282  2.0969 -2.9860  0.9808
   33POPC  H17S 4455   4.892   3.597   9.391 -0.8897  0.2313  0.9436
   33POPC  C218 4456   4.880   3.408   9.502 -0.5208  0.3982 -0.1479
   33POPC  H18R 4457   4.907   3.303   9.477 -3.3148 -0.1450 -1.2550
   33POPC  H18S 4458   4.770   3.421   9.509 -0.0774  4.5344  1.4542
   33POPC  H18T 4459   4.907   3.436   9.606 -1.7327  1.6514 -0.1448
   33POPC   C33 4460   6.371   2.981  10.072  0.3395 -0.0465 -0.2223
   33POPC   H3X 4461   6.440   2.931  10.001  1.7981  3.3610 -1.4187
   33POPC   H3Y 4462   6.438   3.061  10.109  0.9243 -0.4400 -0.4276
   33POPC   C34 4463   6.252   3.059  10.013  0.1425  0.2709 -0.1015
   33POPC   H4X 4464   6.211   3.144  10.072 -1.7153 -0.0951 -0.8080
   33POPC   H4Y 4465   6.165   2.990  10.013 -0.1366  0.6092  0.6768
   33POPC   C35 4466   6.287   3.112   9.879  0.1667 -0.2306  0.0198
   33POPC   H5X 4467   6.385   3.162   9.862 -0.1819 -0.1053 -1.7838
   33POPC   H5Y 4468   6.219   3.197   9.858  1.6101  0.5024 -2.1092
   33POPC   C36 4469   6.271   3.013   9.761 -0.6148  0.2722 -0.4813
   33POPC   H6X 4470   6.169   2.969   9.756 -0.4266 -0.0163 -2.6928
   33POPC   H6Y 4471   6.343   2.931   9.783 -1.3979 -0.3601 -0.2137
   33POPC   C37 4472   6.297   3.071   9.625  0.5353 -0.3675 -0.4304
   33POPC   H7X 4473   6.403   3.103   9.621  0.6387 -0.7245 -0.5826
   33POPC   H7Y 4474   6.230   3.160   9.623  0.8417 -0.1404 -1.8029
   33POPC   C38 4475   6.265   2.981   9.505 -0.4205 -0.1051 -0.1609
   33POPC   H8X 4476   6.167   2.933   9.527  0.4491 -1.7713  0.2560
   33POPC   H8Y 4477   6.334   2.895   9.508 -1.4582 -0.9455  0.5709
   33POPC   C39 4478   6.269   3.060   9.375  0.3417 -0.3488 -0.1509
   33POPC   H9X 4479   6.375   3.092   9.363  0.9633 -2.3888 -0.4717
   33POPC   H9Y 4480   6.206   3.151   9.382  1.3746  0.6250 -2.4036
   33POPC  C310 4481   6.225   2.978   9.250  0.0140 -0.6508  0.2242
   33POPC  H10X 4482   6.122   2.945   9.277 -1.0356  2.2700  0.1669
   33POPC  H10Y 4483   6.292   2.891   9.241 -1.4462 -1.6534 -2.1055
   33POPC  C311 4484   6.213   3.064   9.123  0.3006  0.0862  0.6943
   33POPC  H11X 4485   6.319   3.078   9.091 -0.2151 -2.6728 -2.8318
   33POPC  H11Y 4486   6.173   3.166   9.140 -0.6121 -0.0513 -0.4777
   33POPC  C312 4487   6.130   2.997   9.009 -0.2613 -0.5163 -0.1329
   33POPC  H12X 4488   6.172   2.895   8.997 -1.3465 -1.0378  0.2855
   33POPC  H12Y 4489   6.150   3.046   8.912  2.0293 -1.9356 -0.4370
   33POPC  C313 4490   5.981   2.991   9.045  0.6222 -0.0102  0.4339
   33POPC  H13X 4491   5.930   3.090   9.047 -1.5724 -1.0249 -1.3324
   33POPC  H13Y 4492   5.967   2.950   9.148 -0.4968  0.8986  0.6685
   33POPC  C314 4493   5.900   2.899   8.947 -0.0320  0.2694  0.0345
   33POPC  H14X 4494   5.925   2.792   8.958 -4.9510 -1.0192  1.0719
   33POPC  H14Y 4495   5.920   2.928   8.842 -0.6994  1.1528  0.1390
   33POPC  C315 4496   5.752   2.910   8.972  0.0371 -0.0558 -0.4460
   33POPC  H15X 4497   5.704   3.010   8.961 -0.4651  0.0421  2.0287
   33POPC  H15Y 4498   5.732   2.894   9.080 -1.7619  2.1406 -0.3811
   33POPC  C316 4499   5.680   2.814   8.884  0.5931 -0.2826 -0.3048
   33POPC  H16X 4500   5.693   2.706   8.903 -0.3303 -0.3692 -0.1255
   33POPC  H16Y 4501   5.696   2.841   8.777 -0.1444 -1.7606 -0.8104
   33POPC  H16Z 4502   5.574   2.843   8.900  1.3773  1.9002  1.4701
   34POPC     N 4503   5.608   4.277  10.672  0.2207  0.0130 -0.0596
   34POPC   C12 4504   5.557   4.288  10.528 -1.1244  0.0972 -0.6214
   34POPC  H12A 4505   5.631   4.242  10.464 -0.0019 -3.1835  2.6720
   34POPC  H12B 4506   5.549   4.392  10.499 -0.7476 -0.0241 -1.1702
   34POPC   C13 4507   5.485   4.261  10.763  0.2183  0.1481 -0.0143
   34POPC  H13A 4508   5.430   4.168  10.753  0.4522 -0.0357  0.3832
   34POPC  H13B 4509   5.524   4.284  10.861 -0.5034  0.5400  0.1910
   34POPC  H13C 4510   5.416   4.342  10.747  1.9619  1.3767 -1.7398
   34POPC   C14 4511   5.688   4.152  10.693 -0.4364 -0.2606 -0.5781
   34POPC  H14A 4512   5.787   4.151  10.649  0.3226  0.8030  1.0402
   34POPC  H14B 4513   5.696   4.135  10.799 -0.2638 -0.7165 -0.6635
   34POPC  H14C 4514   5.630   4.069  10.654  1.0238 -2.1941  1.2168
   34POPC   C15 4515   5.677   4.399  10.723 -0.1672 -0.1934 -0.6260
   34POPC  H15A 4516   5.609   4.483  10.730  1.0735  0.9422 -1.5563
   34POPC  H15B 4517   5.760   4.431  10.660 -1.3403 -0.2947 -2.2991
   34POPC  H15C 4518   5.714   4.377  10.822  1.0076  0.9652 -0.7781
   34POPC   C11 4519   5.411   4.242  10.500 -0.2129  0.5765 -0.0963
   34POPC  H11A 4520   5.388   4.144  10.546  0.3200  0.5356  0.0868
   34POPC  H11B 4521   5.400   4.232  10.390  3.8875 -1.0759 -0.5322
   34POPC     P 4522   5.282   4.483  10.489  0.2037 -0.3670 -0.0994
   34POPC   O13 4523   5.408   4.560  10.493 -0.2060 -0.1751 -0.3506
   34POPC   O14 4524   5.174   4.534  10.574  0.2083 -0.3785 -0.0165
   34POPC   O12 4525   5.311   4.334  10.542 -0.6809 -0.5450  0.3291
   34POPC   O11 4526   5.231   4.468  10.345 -0.8776  0.1327 -0.1263
   34POPC    C1 4527   5.122   4.381  10.311  0.2925  0.1717 -0.1281
   34POPC    HA 4528   5.050   4.434  10.244  0.0506 -0.2228 -0.1846
   34POPC    HB 4529   5.065   4.349  10.401 -0.2849 -0.0791 -0.5748
   34POPC    C2 4530   5.159   4.252  10.234 -0.4819  0.2272  0.3166
   34POPC    HS 4531   5.233   4.199  10.298 -0.5276 -0.3138 -0.0666
   34POPC   O21 4532   5.214   4.287  10.101 -1.0183 -0.2843 -0.3321
   34POPC   C21 4533   5.292   4.187  10.052 -0.3287  0.1785  0.3408
   34POPC   O22 4534   5.306   4.081  10.108 -1.1425  0.7437 -0.5195
   34POPC   C22 4535   5.353   4.224   9.919 -1.1731 -0.1581 -0.4733
   34POPC   H2R 4536   5.416   4.314   9.933 -1.7623  0.7722 -3.1679
   34POPC   H2S 4537   5.272   4.250   9.848  0.0629 -0.5718 -2.0808
   34POPC    C3 4538   5.041   4.155  10.210  0.4824  0.5878 -0.1130
   34POPC    HX 4539   4.991   4.143  10.309  0.4250 -4.1914 -0.4759
   34POPC    HY 4540   5.072   4.050  10.193  3.5979  1.5292 -0.8064
   34POPC   O31 4541   4.944   4.201  10.105  0.2077  0.0255  0.7232
   34POPC   C31 4542   4.825   4.249  10.132  0.5383 -0.1954 -0.1818
   34POPC   O32 4543   4.775   4.266  10.240 -0.3027  0.0414  0.0094
   34POPC   C32 4544   4.766   4.311  10.006  0.4375  0.1213 -0.0401
   34POPC   H2X 4545   4.702   4.394  10.043  2.2384  1.0514  1.1607
   34POPC   H2Y 4546   4.716   4.236   9.941  0.6033  2.2363 -2.8111
   34POPC   C23 4547   5.425   4.102   9.858  0.6914 -0.5472  0.7333
   34POPC   H3R 4548   5.358   4.014   9.849  0.3266 -0.3729  1.6822
   34POPC   H3S 4549   5.502   4.073   9.932  3.8928 -3.7271 -3.3618
   34POPC   C24 4550   5.501   4.133   9.723  0.4676  0.1134 -0.3647
   34POPC   H4R 4551   5.576   4.051   9.718  1.4569  0.9871 -0.1381
   34POPC   H4S 4552   5.560   4.227   9.732 -0.6628  0.8611 -0.5438
   34POPC   C25 4553   5.399   4.136   9.606  0.0379  0.0757 -0.4934
   34POPC   H5R 4554   5.317   4.207   9.633  0.4848 -0.1471  1.5711
   34POPC   H5S 4555   5.353   4.036   9.592 -0.2517 -0.2257  2.2158
   34POPC   C26 4556   5.459   4.177   9.473 -0.1566  0.5798  0.3607
   34POPC   H6R 4557   5.541   4.112   9.437  0.4342  1.5059 -0.0074
   34POPC   H6S 4558   5.505   4.277   9.488  0.4556  0.1473  1.4536
   34POPC   C27 4559   5.361   4.185   9.349  0.8704  0.4617 -0.2573
   34POPC   H7R 4560   5.279   4.255   9.375  1.5574  0.8830  0.9053
   34POPC   H7S 4561   5.316   4.087   9.323  1.9816 -0.0380 -0.3674
   34POPC   C28 4562   5.431   4.226   9.218 -0.1080  0.4881 -1.2305
   34POPC   H8R 4563   5.513   4.153   9.204  0.7328  1.1287  0.1991
   34POPC   H8S 4564   5.493   4.317   9.230  0.6776 -0.3251  1.4351
   34POPC   C29 4565   5.342   4.248   9.100 -0.4933  0.3110 -0.4694
   34POPC   H91 4566   5.244   4.279   9.138 -1.3786 -4.0262  1.3277
   34POPC  C210 4567   5.358   4.211   8.974  0.1250 -0.0296  0.0153
   34POPC  H101 4568   5.292   4.254   8.897  1.0056  1.0976 -0.1279
   34POPC  C211 4569   5.477   4.140   8.921  0.3537  0.2690  0.5145
   34POPC  H11R 4570   5.538   4.085   8.996 -0.8914  0.6995  1.8921
   34POPC  H11S 4571   5.546   4.206   8.865 -1.2127  0.8336 -0.8306
   34POPC  C212 4572   5.427   4.040   8.812 -0.2126 -0.0746  0.1076
   34POPC  H12R 4573   5.355   4.102   8.754  1.4948  0.6097 -1.3699
   34POPC  H12S 4574   5.392   3.943   8.854 -1.3098 -0.5857 -1.8496
   34POPC  C213 4575   5.540   3.994   8.714 -0.4188  0.5033  0.1399
   34POPC  H13R 4576   5.605   3.919   8.764 -0.4839 -0.7220 -1.5096
   34POPC  H13S 4577   5.602   4.083   8.688 -3.9978  3.4345  0.7881
   34POPC  C214 4578   5.490   3.925   8.583  0.0689  0.2533 -0.1873
   34POPC  H14R 4579   5.415   3.997   8.545  0.1746  0.8659  0.7229
   34POPC  H14S 4580   5.433   3.834   8.610 -1.1939  0.2983 -2.4391
   34POPC  C215 4581   5.604   3.900   8.487  0.1999  0.5190 -0.1014
   34POPC  H15R 4582   5.697   3.958   8.502  2.6821 -3.0985 -0.3303
   34POPC  H15S 4583   5.565   3.929   8.387 -2.6045  0.2348  0.8125
   34POPC  C216 4584   5.646   3.753   8.485 -0.1878 -0.4302 -0.4018
   34POPC  H16R 4585   5.571   3.681   8.445  1.4293 -1.3563 -1.9129
   34POPC  H16S 4586   5.679   3.711   8.583  0.9533  1.0153 -0.1220
   34POPC  C217 4587   5.771   3.724   8.405 -0.5789  0.2398 -0.1375
   34POPC  H17R 4588   5.787   3.615   8.417 -0.9570 -0.5385 -4.9207
   34POPC  H17S 4589   5.857   3.782   8.445  0.5229  0.2341 -2.3851
   34POPC  C218 4590   5.757   3.756   8.253  0.0689 -0.1539  0.1563
   34POPC  H18R 4591   5.682   3.686   8.210 -0.5314  1.0687 -0.8422
   34POPC  H18S 4592   5.851   3.746   8.194  0.1456  1.3082 -0.0009
   34POPC  H18T 4593   5.718   3.859   8.237  0.5314 -0.0124 -0.0691
   34POPC   C33 4594   4.876   4.370   9.910  0.0521 -0.6552  0.1324
   34POPC   H3X 4595   4.936   4.447   9.963 -0.8413  0.7805 -0.8663
   34POPC   H3Y 4596   4.823   4.414   9.823 -0.5218  1.4710  1.4916
   34POPC   C34 4597   4.977   4.269   9.843  0.4542  0.1285 -0.5341
   34POPC   H4X 4598   4.916   4.181   9.810 -1.1760  0.1568  2.0951
   34POPC   H4Y 4599   5.058   4.235   9.910 -0.9291 -1.4420  0.4347
   34POPC   C35 4600   5.030   4.313   9.704 -0.5488  0.1391 -0.0869
   34POPC   H5X 4601   4.944   4.349   9.642 -1.5107 -0.9893  0.5452
   34POPC   H5Y 4602   5.080   4.235   9.643 -1.6344  0.7120 -1.8020
   34POPC   C36 4603   5.119   4.439   9.719  0.6934  0.3612 -0.8178
   34POPC   H6X 4604   5.212   4.426   9.778  0.3525 -0.7678 -0.5088
   34POPC   H6Y 4605   5.074   4.533   9.759 -2.4082 -0.7704 -1.3313
   34POPC   C37 4606   5.173   4.487   9.584 -0.0556  0.1376 -0.7406
   34POPC   H7X 4607   5.246   4.423   9.530 -0.9312  0.6525 -2.6335
   34POPC   H7Y 4608   5.222   4.580   9.621 -2.2983  0.6084  1.3464
   34POPC   C38 4609   5.072   4.522   9.474  0.2861  0.2027 -0.3442
   34POPC   H8X 4610   4.991   4.585   9.515  0.7125  0.5990 -0.1093
   34POPC   H8Y 4611   5.029   4.430   9.427 -0.8713  2.1480 -3.4040
   34POPC   C39 4612   5.130   4.604   9.361 -0.1221  0.5879 -0.1679
   34POPC   H9X 4613   5.236   4.578   9.339  0.1297  1.5389 -0.1145
   34POPC   H9Y 4614   5.137   4.713   9.376 -2.8076  0.8117 -0.0682
   34POPC  C310 4615   5.059   4.574   9.232 -0.2201  0.9142  1.1028
   34POPC  H10X 4616   4.976   4.647   9.242 -1.2061 -0.4200  3.2221
   34POPC  H10Y 4617   5.013   4.476   9.208  0.8222  0.9708 -1.5083
   34POPC  C311 4618   5.141   4.617   9.111  0.0653  0.7347  0.3845
   34POPC  H11X 4619   5.226   4.546   9.102 -0.6164  0.0589 -1.0058
   34POPC  H11Y 4620   5.180   4.720   9.117 -2.2020  1.5935  1.8012
   34POPC  C312 4621   5.062   4.595   8.984  0.2958  0.2000 -0.0558
   34POPC  H12X 4622   4.956   4.628   8.999  0.1923 -1.2278  3.4589
   34POPC  H12Y 4623   5.039   4.488   8.965  1.0813 -0.3634  1.9119
   34POPC  C313 4624   5.131   4.650   8.856 -0.7926 -0.0039  0.6982
   34POPC  H13X 4625   5.235   4.612   8.863 -1.1211 -0.8699  0.9695
   34POPC  H13Y 4626   5.144   4.760   8.860 -0.6670  0.0741 -1.0295
   34POPC  C314 4627   5.051   4.606   8.734  1.2823  0.1768  0.2114
   34POPC  H14X 4628   4.983   4.526   8.770 -0.4557  1.2840 -0.4681
   34POPC  H14Y 4629   5.114   4.561   8.655 -1.4664 -3.0918 -0.3638
   34POPC  C315 4630   4.981   4.718   8.659  0.0472  0.9750 -0.5197
   34POPC  H15X 4631   4.938   4.670   8.569  0.2576  0.0350 -0.1419
   34POPC  H15Y 4632   5.065   4.783   8.627  0.9537  0.1085  0.0079
   34POPC  C316 4633   4.880   4.808   8.728  0.1301  0.0630  0.0854
   34POPC  H16X 4634   4.930   4.887   8.789 -0.0919  0.2840 -0.0181
   34POPC  H16Y 4635   4.814   4.747   8.792 -1.1668 -2.0038 -2.9713
   34POPC  H16Z 4636   4.810   4.864   8.663  0.8023  0.0534 -0.6680
   35POPC     N 4637   4.809   1.925  10.590 -1.2257  0.7589 -0.3755
   35POPC   C12 4638   4.736   1.801  10.650 -0.7184  0.1423 -0.8325
   35POPC  H12A 4639   4.763   1.716  10.591  0.6726 -0.9081  1.1733
   35POPC  H12B 4640   4.630   1.803  10.634 -1.0633 -0.1188  1.1595
   35POPC   C13 4641   4.774   1.931  10.444 -0.5764 -0.1498  0.1445
   35POPC  H13A 4642   4.793   1.837  10.395  0.5338 -1.0620  2.1826
   35POPC  H13B 4643   4.668   1.953  10.438 -0.4122  0.8647  0.5998
   35POPC  H13C 4644   4.831   2.005  10.390  1.9427 -1.7664  0.4124
   35POPC   C14 4645   4.771   2.054  10.655  0.0032  0.6631  0.5343
   35POPC  H14A 4646   4.821   2.137  10.609  0.3412  1.1000  1.6439
   35POPC  H14B 4647   4.665   2.065  10.671 -0.1539 -0.6482  0.5365
   35POPC  H14C 4648   4.818   2.052  10.753 -0.7354  1.5068  0.9113
   35POPC   C15 4649   4.958   1.906  10.604  0.4302 -0.0063 -0.0664
   35POPC  H15A 4650   5.017   1.981  10.553  0.0590  0.4116  0.1069
   35POPC  H15B 4651   4.985   1.818  10.548 -0.4724  0.4951 -1.3403
   35POPC  H15C 4652   4.999   1.891  10.702  0.9842 -2.5549 -0.6230
   35POPC   C11 4653   4.753   1.774  10.802  0.4849  0.0202 -0.5787
   35POPC  H11A 4654   4.858   1.769  10.839 -0.2537  2.1436  2.1264
   35POPC  H11B 4655   4.699   1.679  10.823  0.6585 -0.1967 -1.0950
   35POPC     P 4656   4.532   1.872  10.910 -0.2121 -0.0287  0.1126
   35POPC   O13 4657   4.486   2.007  10.940 -0.6863  0.0396  0.2108
   35POPC   O14 4658   4.515   1.770  11.013 -0.0672 -0.5848 -0.3021
   35POPC   O12 4659   4.684   1.884  10.868 -0.0352  0.6575 -0.0664
   35POPC   O11 4660   4.472   1.819  10.777  0.7591  0.1826  0.6620
   35POPC    C1 4661   4.337   1.841  10.735  0.5538 -0.0269  0.5770
   35POPC    HA 4662   4.284   1.930  10.775  1.4490  0.6842  0.2185
   35POPC    HB 4663   4.279   1.757  10.778  1.2554  0.0998  1.8178
   35POPC    C2 4664   4.318   1.833  10.579  0.2042 -0.2061 -0.7180
   35POPC    HS 4665   4.353   1.927  10.532 -0.2300  0.6451  0.6040
   35POPC   O21 4666   4.179   1.804  10.558  0.5211 -0.1120 -0.4208
   35POPC   C21 4667   4.096   1.910  10.558 -0.9038 -0.8264  0.0998
   35POPC   O22 4668   4.124   2.017  10.602 -0.1133 -0.0211  0.0019
   35POPC   C22 4669   3.958   1.856  10.509 -0.6732 -0.2029 -0.4368
   35POPC   H2R 4670   3.876   1.878  10.580  1.0812  2.4612  0.9286
   35POPC   H2S 4671   3.971   1.747  10.495 -2.3397 -0.2195 -2.1926
   35POPC    C3 4672   4.397   1.707  10.523  0.2125 -0.1706  0.0614
   35POPC    HX 4673   4.371   1.620  10.587 -1.1609  0.6858  0.7029
   35POPC    HY 4674   4.507   1.719  10.534  0.3085 -0.2512 -0.7390
   35POPC   O31 4675   4.366   1.683  10.381 -0.9091  0.5095 -0.6258
   35POPC   C31 4676   4.444   1.755  10.297  0.2230  0.6833  0.0508
   35POPC   O32 4677   4.533   1.829  10.330 -0.1388  0.4604  0.0592
   35POPC   C32 4678   4.405   1.724  10.154  0.3138 -0.5878 -0.3133
   35POPC   H2X 4679   4.325   1.793  10.119  0.3036 -0.7883 -0.6986
   35POPC   H2Y 4680   4.361   1.622  10.149 -1.0039 -0.1569  1.4636
   35POPC   C23 4681   3.920   1.921  10.382 -0.6875  0.3156  0.5842
   35POPC   H3R 4682   3.922   2.031  10.373  2.3821  0.1786 -2.4335
   35POPC   H3S 4683   3.815   1.888  10.363  0.0998 -3.1112  1.4640
   35POPC   C24 4684   3.987   1.856  10.259 -0.0809  0.1193  0.3629
   35POPC   H4R 4685   3.972   1.747  10.242 -0.3401  0.3231 -0.7848
   35POPC   H4S 4686   4.095   1.855  10.282 -0.4170  1.8255  2.3963
   35POPC   C25 4687   3.947   1.930  10.135 -0.2591 -0.2514 -0.1287
   35POPC   H5R 4688   3.977   2.035  10.156 -0.3114  0.0368 -1.3629
   35POPC   H5S 4689   3.837   1.923  10.121 -0.1058 -2.3544 -0.6722
   35POPC   C26 4690   4.012   1.883  10.007 -0.4408  0.1238  0.6245
   35POPC   H6R 4691   4.120   1.859   9.995 -0.4556  0.5487 -0.5023
   35POPC   H6S 4692   3.995   1.959   9.928  0.1405 -1.3041 -0.9386
   35POPC   C27 4693   3.954   1.744   9.962 -0.4450 -0.5267  0.3530
   35POPC   H7R 4694   3.855   1.724  10.007 -0.3824 -1.2567  0.1835
   35POPC   H7S 4695   4.016   1.663  10.007 -0.3181  0.0379  1.2313
   35POPC   C28 4696   3.951   1.733   9.808 -0.5326 -0.4191 -0.0657
   35POPC   H8R 4697   3.896   1.642   9.776 -0.0053 -0.0270 -2.2416
   35POPC   H8S 4698   4.055   1.727   9.769  0.0356 -1.6575  1.5316
   35POPC   C29 4699   3.863   1.839   9.744  0.0942 -0.0794 -0.3953
   35POPC   H91 4700   3.806   1.903   9.813 -1.7353 -1.1231 -0.8740
   35POPC  C210 4701   3.858   1.878   9.621 -0.0487 -0.9437  0.0853
   35POPC  H101 4702   3.793   1.961   9.589 -0.9989 -2.2731 -1.6829
   35POPC  C211 4703   3.950   1.810   9.518  0.9277  0.1038  0.9117
   35POPC  H11R 4704   4.018   1.735   9.563  0.7962  0.0416  1.0075
   35POPC  H11S 4705   4.020   1.882   9.469  0.6119  0.9889  1.7269
   35POPC  C212 4706   3.870   1.733   9.414 -0.1207  0.5867 -0.3125
   35POPC  H12R 4707   3.780   1.676   9.445  0.5313  0.2158  0.9867
   35POPC  H12S 4708   3.947   1.670   9.364 -0.7238  0.9001 -1.6773
   35POPC  C213 4709   3.816   1.820   9.301 -0.4191  0.5223  0.5041
   35POPC  H13R 4710   3.882   1.909   9.286  2.9507 -1.9318 -0.5728
   35POPC  H13S 4711   3.713   1.855   9.321 -0.7236  1.6328 -2.5387
   35POPC  C214 4712   3.822   1.745   9.170  0.3720  0.9845 -0.5204
   35POPC  H14R 4713   3.804   1.637   9.190 -1.2353  1.4676  0.7722
   35POPC  H14S 4714   3.921   1.749   9.119  1.0352  1.2796  0.7460
   35POPC  C215 4715   3.708   1.789   9.077  0.2688 -0.5177  0.1410
   35POPC  H15R 4716   3.716   1.899   9.070 -0.9321 -0.3412  1.1428
   35POPC  H15S 4717   3.606   1.761   9.113  0.3739 -1.1480 -0.0262
   35POPC  C216 4718   3.715   1.724   8.938  0.1506 -0.3129 -0.0964
   35POPC  H16R 4719   3.731   1.616   8.959 -1.7547 -1.3457 -3.2022
   35POPC  H16S 4720   3.800   1.764   8.879 -1.6035  1.7385 -1.3585
   35POPC  C217 4721   3.591   1.740   8.852  0.0361 -0.7976  0.0767
   35POPC  H17R 4722   3.502   1.732   8.918  0.9642  0.4049  1.5411
   35POPC  H17S 4723   3.590   1.660   8.775  0.4487  0.7289 -1.5755
   35POPC  C218 4724   3.590   1.871   8.778  0.4974  0.2539  0.1960
   35POPC  H18R 4725   3.678   1.875   8.710  0.7410  1.4692  0.5551
   35POPC  H18S 4726   3.612   1.953   8.850  0.0443  0.0500  0.5651
   35POPC  H18T 4727   3.490   1.884   8.732  0.6482 -0.1546 -0.2525
   35POPC   C33 4728   4.521   1.735  10.052 -0.1995 -0.0008  0.1402
   35POPC   H3X 4729   4.582   1.642  10.059 -0.7975 -0.3782  0.4397
   35POPC   H3Y 4730   4.587   1.822  10.073  0.0469 -0.3000  0.6315
   35POPC   C34 4731   4.470   1.773   9.912 -0.3054  0.6582  0.0206
   35POPC   H4X 4732   4.562   1.821   9.871  1.3295 -1.0329  1.5516
   35POPC   H4Y 4733   4.397   1.856   9.921 -1.0578  0.3121 -2.1831
   35POPC   C35 4734   4.431   1.665   9.816  0.4461  0.0955 -0.1935
   35POPC   H5X 4735   4.374   1.587   9.870 -0.6965  0.4599 -0.8481
   35POPC   H5Y 4736   4.518   1.610   9.774 -1.4629  0.2008 -4.9060
   35POPC   C36 4737   4.360   1.719   9.685 -0.2381 -0.5493  0.0845
   35POPC   H6X 4738   4.421   1.800   9.640 -2.2127  0.8340 -0.2466
   35POPC   H6Y 4739   4.256   1.756   9.700 -0.5462 -0.1998 -2.5103
   35POPC   C37 4740   4.356   1.606   9.576 -0.2916 -0.6449 -0.9681
   35POPC   H7X 4741   4.293   1.523   9.613  0.3679 -0.7096  0.0427
   35POPC   H7Y 4742   4.457   1.564   9.554 -0.7008 -1.3898 -1.4916
   35POPC   C38 4743   4.313   1.672   9.443  0.7067 -0.2481 -0.4787
   35POPC   H8X 4744   4.391   1.724   9.383  1.6839 -0.8765  0.2142
   35POPC   H8Y 4745   4.238   1.749   9.473 -0.8058 -2.3377  1.4121
   35POPC   C39 4746   4.240   1.581   9.340 -0.1595  0.3640  0.0839
   35POPC   H9X 4747   4.138   1.573   9.382 -0.3886 -0.0832 -0.5409
   35POPC   H9Y 4748   4.287   1.482   9.358 -1.1493 -0.0540  0.4639
   35POPC  C310 4749   4.230   1.643   9.197 -0.5218  0.2370 -0.1486
   35POPC  H10X 4750   4.329   1.679   9.162 -0.9639  0.3028 -1.3788
   35POPC  H10Y 4751   4.169   1.736   9.189  1.6080  1.5261 -2.9341
   35POPC  C311 4752   4.187   1.530   9.101 -0.0030  0.4392  0.6118
   35POPC  H11X 4753   4.078   1.513   9.115 -0.1017  0.6898  0.1735
   35POPC  H11Y 4754   4.230   1.430   9.121  1.7511  1.6446  3.3451
   35POPC  C312 4755   4.215   1.574   8.955 -0.7069  0.6282 -0.3834
   35POPC  H12X 4756   4.270   1.490   8.906 -1.0869  0.6869 -0.9176
   35POPC  H12Y 4757   4.282   1.663   8.948  1.7342 -1.2164 -2.7880
   35POPC  C313 4758   4.097   1.607   8.869  1.2909 -0.0530 -1.0729
   35POPC  H13X 4759   4.058   1.710   8.883  1.4296 -0.1114 -0.1850
   35POPC  H13Y 4760   4.014   1.540   8.900  3.1152 -1.3159  1.4699
   35POPC  C314 4761   4.099   1.577   8.722 -0.4491  0.2459  0.5659
   35POPC  H14X 4762   4.134   1.473   8.704  0.0804  0.5244 -0.0510
   35POPC  H14Y 4763   4.182   1.639   8.682 -0.7775  0.8745  0.8392
   35POPC  C315 4764   3.980   1.628   8.637 -0.3075 -0.4690 -0.0014
   35POPC  H15X 4765   3.944   1.726   8.673  0.2242 -1.4367  3.5716
   35POPC  H15Y 4766   3.896   1.557   8.651 -1.6092  0.3447 -2.9535
   35POPC  C316 4767   4.017   1.635   8.484  0.8381 -0.4406 -0.2145
   35POPC  H16X 4768   4.039   1.531   8.452 -0.4977 -2.1574  3.8217
   35POPC  H16Y 4769   4.114   1.689   8.474  0.8284  0.1034  2.0190
   35POPC  H16Z 4770   3.946   1.684   8.415 -1.2174 -2.0989  0.6309
   36POPC     N 4771   4.563   0.964  11.154 -0.5606 -0.5247  0.3381
   36POPC   C12 4772   4.622   0.963  11.011  0.0471  0.0368  0.3839
   36POPC  H12A 4773   4.540   0.944  10.943 -0.0457  0.9980  0.2181
   36POPC  H12B 4774   4.691   0.880  11.009 -0.6589 -0.5730  0.6865
   36POPC   C13 4775   4.435   1.040  11.157 -0.2383 -0.6346 -0.2263
   36POPC  H13A 4776   4.400   1.054  11.258  2.0587  1.1024  0.4214
   36POPC  H13B 4777   4.443   1.141  11.120 -0.3884 -1.2703 -2.0648
   36POPC  H13C 4778   4.364   0.981  11.102 -0.5520  0.3280 -0.8712
   36POPC   C14 4779   4.528   0.823  11.202  0.6945  0.2737  0.0116
   36POPC  H14A 4780   4.454   0.813  11.279  0.6911 -0.8999 -0.1185
   36POPC  H14B 4781   4.490   0.767  11.118 -1.6249 -0.5851  1.5624
   36POPC  H14C 4782   4.616   0.774  11.240  1.7648  1.1044 -1.2852
   36POPC   C15 4783   4.651   1.025  11.256 -0.7494 -0.2630  0.0217
   36POPC  H15A 4784   4.744   0.970  11.258 -0.3717  0.3324 -0.7673
   36POPC  H15B 4785   4.598   1.027  11.350 -1.9554  1.7187 -0.6414
   36POPC  H15C 4786   4.672   1.128  11.234  1.1886 -0.6629 -0.1841
   36POPC   C11 4787   4.685   1.089  10.956 -0.8845 -0.3228 -0.6916
   36POPC  H11A 4788   4.772   1.105  11.024  0.1591  0.3459 -2.1197
   36POPC  H11B 4789   4.619   1.177  10.974  1.0370  0.6754  2.4361
   36POPC     P 4790   4.611   1.070  10.705  0.1442  0.3892 -0.0120
   36POPC   O13 4791   4.578   0.922  10.702  0.4189  0.0502  0.4022
   36POPC   O14 4792   4.652   1.142  10.584 -0.0366 -0.3849 -0.4288
   36POPC   O12 4793   4.729   1.081  10.816  0.2988 -0.3270 -0.6758
   36POPC   O11 4794   4.500   1.159  10.765  0.6768 -0.0122 -0.2519
   36POPC    C1 4795   4.358   1.145  10.754 -0.5079  0.3153 -0.2542
   36POPC    HA 4796   4.303   1.195  10.836  0.1253 -1.6125  1.4442
   36POPC    HB 4797   4.319   1.041  10.764 -0.8431  0.4486 -0.1623
   36POPC    C2 4798   4.310   1.191  10.625 -0.2774  0.6034  0.3837
   36POPC    HS 4799   4.200   1.185  10.639 -0.2541 -0.5724  0.1801
   36POPC   O21 4800   4.359   1.106  10.514  0.5765 -0.4651  0.6249
   36POPC   C21 4801   4.257   1.064  10.441  0.0798 -0.6649 -0.4440
   36POPC   O22 4802   4.144   1.114  10.432 -0.1596 -0.9911 -0.2066
   36POPC   C22 4803   4.302   0.954  10.353 -0.1601 -0.3381 -0.2304
   36POPC   H2R 4804   4.320   0.859  10.409 -0.9992 -0.9935 -1.0448
   36POPC   H2S 4805   4.402   0.970  10.306 -0.7802 -1.3576 -1.9816
   36POPC    C3 4806   4.348   1.338  10.593  0.4273  0.4161 -0.4004
   36POPC    HX 4807   4.459   1.344  10.581  0.6642 -0.3999  1.1553
   36POPC    HY 4808   4.319   1.403  10.678  0.7964 -1.6302  1.3511
   36POPC   O31 4809   4.279   1.386  10.474  0.1300  0.2489 -0.4210
   36POPC   C31 4810   4.151   1.408  10.470  0.5739 -0.4345 -0.2244
   36POPC   O32 4811   4.071   1.400  10.565 -0.2907  0.4006  0.3036
   36POPC   C32 4812   4.106   1.448  10.328  0.2399 -0.1366  0.3780
   36POPC   H2X 4813   4.193   1.439  10.260  0.4794  1.7656  0.3695
   36POPC   H2Y 4814   4.072   1.553  10.330 -0.8835 -0.4948  1.9763
   36POPC   C23 4815   4.192   0.923  10.239 -0.6304  0.6747 -0.1015
   36POPC   H3R 4816   4.167   1.019  10.189 -0.2821 -0.4719 -2.6372
   36POPC   H3S 4817   4.105   0.874  10.286  0.9453 -1.1779  1.0118
   36POPC   C24 4818   4.250   0.824  10.141 -0.2110 -0.0193  0.4120
   36POPC   H4R 4819   4.173   0.811  10.062 -0.0773  1.5813 -0.0110
   36POPC   H4S 4820   4.271   0.729  10.194 -2.3747  0.4172  2.1951
   36POPC   C25 4821   4.377   0.871  10.059 -0.4182  1.0784 -0.1854
   36POPC   H5R 4822   4.473   0.871  10.115 -1.0128 -2.0092  1.0584
   36POPC   H5S 4823   4.366   0.979  10.033 -0.0239  1.7874  2.2728
   36POPC   C26 4824   4.396   0.813   9.922  0.0939  0.1533 -0.2185
   36POPC   H6R 4825   4.481   0.856   9.866  0.0559 -1.1063 -1.2927
   36POPC   H6S 4826   4.298   0.826   9.871  0.0688  0.2547 -0.1448
   36POPC   C27 4827   4.403   0.659   9.935  0.1095  0.0374 -0.8879
   36POPC   H7R 4828   4.303   0.628   9.973 -0.6689  1.3640 -1.7724
   36POPC   H7S 4829   4.484   0.633  10.006  2.3922 -1.6039 -3.8400
   36POPC   C28 4830   4.434   0.585   9.801 -0.1899  0.4634  0.4225
   36POPC   H8R 4831   4.491   0.490   9.810 -2.4963 -0.9952  0.6366
   36POPC   H8S 4832   4.498   0.653   9.741  0.8085 -2.4331 -2.0231
   36POPC   C29 4833   4.315   0.546   9.720  0.4680  0.3494  0.1729
   36POPC   H91 4834   4.263   0.454   9.751 -0.0506 -0.2176 -2.2042
   36POPC  C210 4835   4.256   0.610   9.619 -0.3459 -0.0907  0.5664
   36POPC  H101 4836   4.163   0.562   9.582  0.3689 -0.8748 -0.2606
   36POPC  C211 4837   4.295   0.748   9.558 -0.1771 -0.4234 -0.0163
   36POPC  H11R 4838   4.382   0.794   9.610 -2.0912  1.7962  1.4263
   36POPC  H11S 4839   4.211   0.819   9.574 -0.5792 -1.2487  1.6689
   36POPC  C212 4840   4.337   0.762   9.402 -0.0913  0.2316 -0.2379
   36POPC  H12R 4841   4.409   0.682   9.372 -1.1907  0.3862 -3.6359
   36POPC  H12S 4842   4.380   0.863   9.385  1.4706 -0.5207 -0.9680
   36POPC  C213 4843   4.230   0.742   9.293  0.3638  0.0842  1.0258
   36POPC  H13R 4844   4.151   0.820   9.305 -0.5746 -0.6636 -0.0427
   36POPC  H13S 4845   4.179   0.647   9.322 -0.3870  0.5017  1.1099
   36POPC  C214 4846   4.268   0.750   9.142 -0.2945  0.6631 -1.0928
   36POPC  H14R 4847   4.309   0.853   9.150  1.0776 -0.0137  2.7862
   36POPC  H14S 4848   4.176   0.750   9.080 -0.2880 -0.0596 -1.1023
   36POPC  C215 4849   4.390   0.671   9.097 -0.0399  0.1368  0.3503
   36POPC  H15R 4850   4.479   0.694   9.158  1.1535  2.5978 -2.0862
   36POPC  H15S 4851   4.421   0.710   8.997  2.5557  1.6457  1.6657
   36POPC  C216 4852   4.364   0.518   9.081 -0.0238 -0.0377  0.0550
   36POPC  H16R 4853   4.272   0.502   9.021  0.4418  2.4982 -1.5244
   36POPC  H16S 4854   4.356   0.479   9.184 -0.3187 -2.6729 -0.9049
   36POPC  C217 4855   4.473   0.425   9.019  0.3928 -0.0564 -0.5368
   36POPC  H17R 4856   4.575   0.443   9.060  0.5340  0.8895 -1.2572
   36POPC  H17S 4857   4.491   0.459   8.915 -0.1142 -0.0145 -0.6134
   36POPC  C218 4858   4.431   0.279   9.032  0.3333  0.6144  0.1263
   36POPC  H18R 4859   4.417   0.249   9.138 -0.6011 -0.2552 -0.2331
   36POPC  H18S 4860   4.500   0.205   8.988  0.3362  1.2716 -1.0184
   36POPC  H18T 4861   4.332   0.269   8.984 -0.2411 -1.3014  1.5713
   36POPC   C33 4862   3.995   1.351  10.273  0.4793 -0.1484 -0.0918
   36POPC   H3X 4863   3.919   1.321  10.349  2.1529 -1.5412  1.1085
   36POPC   H3Y 4864   4.051   1.258  10.254 -1.4915 -1.4181  0.0539
   36POPC   C34 4865   3.925   1.397  10.142  0.0338 -0.0569  0.1860
   36POPC   H4X 4866   3.950   1.506  10.134 -1.7426  0.4809  1.3951
   36POPC   H4Y 4867   3.818   1.382  10.167 -0.7425  2.3964 -1.2516
   36POPC   C35 4868   3.954   1.318  10.015 -0.1902 -0.4509 -0.4156
   36POPC   H5X 4869   3.956   1.210  10.039 -0.9380 -0.6620 -1.2554
   36POPC   H5Y 4870   4.059   1.344   9.991 -0.2449  0.0412 -0.1323
   36POPC   C36 4871   3.860   1.340   9.894 -0.0358  0.4579  0.2622
   36POPC   H6X 4872   3.824   1.445   9.899 -0.4241  0.3173  0.4982
   36POPC   H6Y 4873   3.774   1.270   9.901  0.6240 -0.2748  1.2027
   36POPC   C37 4874   3.932   1.323   9.754 -0.4577  0.0683  0.1053
   36POPC   H7X 4875   3.981   1.223   9.744  0.0743  0.4999 -1.9699
   36POPC   H7Y 4876   4.020   1.391   9.749  0.8465 -1.6469 -2.7455
   36POPC   C38 4877   3.835   1.340   9.640  0.0028 -0.6855 -0.2092
   36POPC   H8X 4878   3.802   1.446   9.637  0.0851 -0.6795 -0.9003
   36POPC   H8Y 4879   3.744   1.279   9.661  0.9064 -1.7675  0.6903
   36POPC   C39 4880   3.906   1.303   9.514 -0.2126  0.2677 -0.0335
   36POPC   H9X 4881   3.924   1.194   9.519 -1.7445  0.0019  0.5285
   36POPC   H9Y 4882   4.003   1.352   9.533 -0.7112  0.9716  0.8153
   36POPC  C310 4883   3.837   1.339   9.380 -0.3191  0.0503  0.2543
   36POPC  H10X 4884   3.830   1.450   9.373 -0.6323  0.0359  0.3158
   36POPC  H10Y 4885   3.727   1.321   9.380 -1.3693  4.8220 -1.5224
   36POPC  C311 4886   3.910   1.287   9.249  0.3415  0.1816 -0.6962
   36POPC  H11X 4887   3.920   1.177   9.256  0.1787  0.2481  1.2575
   36POPC  H11Y 4888   4.015   1.323   9.245  1.0400 -1.8398 -3.7580
   36POPC  C312 4889   3.833   1.327   9.118  0.2001  0.6131 -0.1863
   36POPC  H12X 4890   3.829   1.437   9.110 -2.7225  0.6613  0.8195
   36POPC  H12Y 4891   3.725   1.298   9.120  0.7833 -2.2215 -2.3580
   36POPC  C313 4892   3.904   1.271   8.997 -0.4947  0.1335  0.3583
   36POPC  H13X 4893   3.895   1.160   9.005  0.8780 -0.0456 -0.3105
   36POPC  H13Y 4894   4.011   1.300   8.985 -0.1915 -1.7250 -2.5087
   36POPC  C314 4895   3.822   1.295   8.867  0.3353 -0.0654 -0.4959
   36POPC  H14X 4896   3.821   1.405   8.854 -0.0412  0.1398  1.0110
   36POPC  H14Y 4897   3.721   1.252   8.882 -0.1361  1.4822  1.1133
   36POPC  C315 4898   3.897   1.246   8.741  0.6170  0.0329 -0.3684
   36POPC  H15X 4899   3.906   1.135   8.747 -0.5499 -0.0272  0.9529
   36POPC  H15Y 4900   4.004   1.277   8.740  0.7351 -0.3746 -1.4232
   36POPC  C316 4901   3.824   1.276   8.618  0.1048  0.3294 -0.4257
   36POPC  H16X 4902   3.866   1.208   8.541 -0.1354 -3.4212  2.4806
   36POPC  H16Y 4903   3.834   1.383   8.591 -0.9456  0.2850 -1.0497
   36POPC  H16Z 4904   3.718   1.244   8.627  0.2540  0.3964  2.6073
   37POPC     N 4905   2.218   6.594   6.568  0.3147  0.1264  0.3364
   37POPC   C12 4906   2.075   6.644   6.552 -0.3122  0.0780 -0.8605
   37POPC  H12A 4907   2.017   6.560   6.518  0.6009 -0.7672 -0.4045
   37POPC  H12B 4908   2.072   6.723   6.478  1.1149  0.1208 -0.9139
   37POPC   C13 4909   2.227   6.506   6.691  0.0585  0.0987  0.6233
   37POPC  H13A 4910   2.199   6.563   6.778 -0.6771  1.0584 -0.2165
   37POPC  H13B 4911   2.159   6.422   6.681  0.7952 -0.3414 -1.1893
   37POPC  H13C 4912   2.329   6.471   6.696 -0.0721 -0.3904 -0.0096
   37POPC   C14 4913   2.269   6.511   6.454 -0.2610 -0.0284 -1.0633
   37POPC  H14A 4914   2.288   6.577   6.371 -1.3174  0.3132 -1.0431
   37POPC  H14B 4915   2.362   6.463   6.482 -0.9905 -1.0015 -0.2185
   37POPC  H14C 4916   2.198   6.444   6.408 -1.1908  0.0926  0.1378
   37POPC   C15 4917   2.309   6.707   6.583 -0.2344  0.4502 -0.7825
   37POPC  H15A 4918   2.323   6.767   6.494  2.5184  0.8673 -0.1902
   37POPC  H15B 4919   2.407   6.676   6.616 -1.0263 -2.1750 -0.6908
   37POPC  H15C 4920   2.266   6.767   6.661  0.2822  1.2051 -1.0660
   37POPC   C11 4921   1.991   6.707   6.670 -0.5612 -0.8940 -0.2173
   37POPC  H11A 4922   1.975   6.638   6.755 -0.2182 -0.4883  0.1769
   37POPC  H11B 4923   1.889   6.726   6.629 -0.8078 -1.0066  0.3374
   37POPC     P 4924   2.024   6.975   6.658 -0.0966  0.0446  0.4044
   37POPC   O13 4925   2.044   6.976   6.509  0.4515 -0.1534  0.3291
   37POPC   O14 4926   2.112   7.063   6.737  0.1557  0.0716 -0.3136
   37POPC   O12 4927   2.058   6.829   6.715  0.1895 -0.0792 -0.3414
   37POPC   O11 4928   1.871   7.003   6.706 -0.6462 -0.0176  0.1767
   37POPC    C1 4929   1.815   6.956   6.831 -0.4368  0.7300 -0.0789
   37POPC    HA 4930   1.854   6.857   6.862 -2.8851 -0.4950 -0.6851
   37POPC    HB 4931   1.705   6.948   6.835 -0.4205  0.8354  4.0265
   37POPC    C2 4932   1.854   7.048   6.952 -0.2218 -0.0736  0.5651
   37POPC    HS 4933   1.855   7.147   6.903 -4.6534  0.0591  0.2924
   37POPC   O21 4934   1.979   7.004   7.005 -0.1063  0.2272  0.1078
   37POPC   C21 4935   2.060   7.097   7.050  0.8076 -0.5753  0.8533
   37POPC   O22 4936   2.041   7.214   7.041  0.2033  0.1462  0.2044
   37POPC   C22 4937   2.185   7.028   7.113 -0.1799 -0.0362  0.5814
   37POPC   H2R 4938   2.235   6.972   7.031  2.1272 -0.1391  1.9517
   37POPC   H2S 4939   2.150   6.950   7.183  0.5144 -1.0136 -0.1333
   37POPC    C3 4940   1.737   7.040   7.066 -0.3506 -0.5807 -0.3583
   37POPC    HX 4941   1.749   6.937   7.104 -0.3239  0.1077  1.5946
   37POPC    HY 4942   1.644   7.047   7.005 -0.8135  0.3682  0.4226
   37POPC   O31 4943   1.762   7.147   7.169 -0.2407  0.9775  0.0720
   37POPC   C31 4944   1.724   7.263   7.131  0.4088  0.3438 -0.4053
   37POPC   O32 4945   1.671   7.288   7.026  0.4697  0.0429 -0.0890
   37POPC   C32 4946   1.761   7.374   7.236  0.0164 -0.0844 -0.3433
   37POPC   H2X 4947   1.756   7.468   7.177 -2.1993 -0.3304 -0.6213
   37POPC   H2Y 4948   1.864   7.362   7.277 -1.3107 -2.0839  2.7810
   37POPC   C23 4949   2.288   7.124   7.170 -0.4686 -0.1577 -0.3441
   37POPC   H3R 4950   2.300   7.214   7.107 -0.6038  0.4429  0.4673
   37POPC   H3S 4951   2.389   7.077   7.170  0.5328  1.8680 -0.3130
   37POPC   C24 4952   2.256   7.151   7.317  0.2675 -0.5096  0.1911
   37POPC   H4R 4953   2.342   7.199   7.368  0.3701 -1.4789  0.9723
   37POPC   H4S 4954   2.241   7.051   7.363  1.0511 -0.5230  0.4218
   37POPC   C25 4955   2.132   7.237   7.346 -0.7812  0.6842 -0.0542
   37POPC   H5R 4956   2.036   7.189   7.316  0.3305 -1.8328  0.1333
   37POPC   H5S 4957   2.134   7.329   7.284  2.6398  2.2289  2.0575
   37POPC   C26 4958   2.121   7.285   7.487  0.2300 -0.3384  0.5949
   37POPC   H6R 4959   2.050   7.369   7.498  0.3827  0.1219 -1.4854
   37POPC   H6S 4960   2.217   7.334   7.515  1.0259 -1.7065  0.3483
   37POPC   C27 4961   2.079   7.180   7.590 -0.2928  0.3682 -0.0656
   37POPC   H7R 4962   2.136   7.086   7.574 -1.7145 -0.9282  1.9690
   37POPC   H7S 4963   1.974   7.147   7.578  0.0329 -0.1573 -1.8483
   37POPC   C28 4964   2.099   7.232   7.737 -0.1051  0.3626 -0.3923
   37POPC   H8R 4965   2.191   7.293   7.741  0.7638 -0.6403 -3.0272
   37POPC   H8S 4966   2.122   7.151   7.809  0.4347  1.3491  0.5761
   37POPC   C29 4967   1.980   7.314   7.786  0.2400 -0.6447 -0.1779
   37POPC   H91 4968   1.897   7.326   7.714  0.0561  0.6828  0.2225
   37POPC  C210 4969   1.966   7.382   7.906 -0.6965  0.1138  0.7135
   37POPC  H101 4970   1.875   7.440   7.926  0.0787  1.4083  0.6069
   37POPC  C211 4971   2.076   7.377   8.017  0.1260 -1.0068 -1.0589
   37POPC  H11R 4972   2.081   7.474   8.071  0.9713 -1.2785 -0.6325
   37POPC  H11S 4973   2.178   7.353   7.981  1.1373 -1.2618  1.7531
   37POPC  C212 4974   2.036   7.274   8.126  0.7613 -0.5878 -0.0493
   37POPC  H12R 4975   2.040   7.174   8.076  0.1499 -0.3512 -0.5861
   37POPC  H12S 4976   1.937   7.292   8.172 -0.3638 -1.4212 -1.9779
   37POPC  C213 4977   2.130   7.261   8.243  0.0659  0.1120  0.3719
   37POPC  H13R 4978   2.078   7.195   8.317  0.8969  0.6349  1.4553
   37POPC  H13S 4979   2.139   7.363   8.286  1.3104  0.4786 -0.7190
   37POPC  C214 4980   2.269   7.200   8.202  0.5066  0.1988 -0.6208
   37POPC  H14R 4981   2.314   7.260   8.120  0.6341  0.6821 -0.2009
   37POPC  H14S 4982   2.258   7.095   8.168 -1.6607  0.3460 -0.5540
   37POPC  C215 4983   2.359   7.191   8.327 -0.3989 -0.1236 -0.0365
   37POPC  H15R 4984   2.318   7.116   8.398 -2.5302 -0.8875 -1.9315
   37POPC  H15S 4985   2.366   7.289   8.379  1.8100 -0.2314 -0.0715
   37POPC  C216 4986   2.497   7.150   8.281  0.0461 -0.1090  0.2558
   37POPC  H16R 4987   2.526   7.208   8.190 -2.9880  2.2598  0.6453
   37POPC  H16S 4988   2.489   7.041   8.263 -1.3680  0.2828 -1.9058
   37POPC  C217 4989   2.614   7.189   8.384  0.3533 -0.3954 -0.3734
   37POPC  H17R 4990   2.558   7.202   8.479  0.0354 -1.1826 -0.4444
   37POPC  H17S 4991   2.655   7.283   8.342 -1.4878  0.2704 -0.7846
   37POPC  C218 4992   2.716   7.083   8.404 -0.7321 -0.2561 -0.2280
   37POPC  H18R 4993   2.782   7.056   8.319  0.1196 -0.8761  0.5965
   37POPC  H18S 4994   2.670   6.991   8.448  0.3576  0.3423  2.3939
   37POPC  H18T 4995   2.780   7.126   8.484 -1.4631  1.7354 -0.6814
   37POPC   C33 4996   1.655   7.389   7.345  0.1076  0.3786 -0.0414
   37POPC   H3X 4997   1.553   7.382   7.302  1.0605  1.2872 -2.6700
   37POPC   H3Y 4998   1.679   7.486   7.393 -0.3675  0.1097  0.7660
   37POPC   C34 4999   1.684   7.291   7.459  0.2974  0.4983  0.2619
   37POPC   H4X 5000   1.795   7.289   7.463  0.3790  2.8039  0.5459
   37POPC   H4Y 5001   1.655   7.186   7.440  3.0420 -0.3636  0.3294
   37POPC   C35 5002   1.629   7.342   7.590  0.5461  0.0516 -0.9464
   37POPC   H5X 5003   1.525   7.373   7.568  1.3873  2.7119 -1.5581
   37POPC   H5Y 5004   1.675   7.430   7.640 -0.2503  0.6241 -1.2086
   37POPC   C36 5005   1.631   7.228   7.699 -0.4154  0.6841 -0.1804
   37POPC   H6X 5006   1.725   7.173   7.678 -2.0610 -1.5701 -2.2349
   37POPC   H6Y 5007   1.557   7.148   7.674 -0.1809 -0.1823  1.6525
   37POPC   C37 5008   1.617   7.283   7.848  0.6480 -0.5719 -0.2569
   37POPC   H7X 5009   1.708   7.344   7.866  0.6354 -0.3461 -0.9295
   37POPC   H7Y 5010   1.599   7.204   7.924 -2.2063 -0.8222 -1.0918
   37POPC   C38 5011   1.508   7.386   7.872 -0.0743  0.2555 -0.2521
   37POPC   H8X 5012   1.410   7.345   7.843 -0.3804  1.6864 -1.3424
   37POPC   H8Y 5013   1.524   7.471   7.802  0.0064  1.0538  0.7002
   37POPC   C39 5014   1.507   7.439   8.012  0.1499  0.3298 -0.5987
   37POPC   H9X 5015   1.456   7.538   8.014  0.7272  0.6276  1.7579
   37POPC   H9Y 5016   1.609   7.473   8.039 -0.2983  0.4842  0.9897
   37POPC  C310 5017   1.446   7.348   8.122 -0.4910 -0.5035  0.4945
   37POPC  H10X 5018   1.520   7.269   8.148 -0.1332 -0.9126 -1.5810
   37POPC  H10Y 5019   1.358   7.298   8.078 -1.5080 -0.0581  1.9409
   37POPC  C311 5020   1.417   7.440   8.236 -0.1666  0.5792 -0.6768
   37POPC  H11X 5021   1.356   7.386   8.312  0.6199  1.6234  0.7400
   37POPC  H11Y 5022   1.359   7.523   8.191 -1.3670  1.0106  1.5362
   37POPC  C312 5023   1.546   7.495   8.309  0.7019 -0.5145  0.2945
   37POPC  H12X 5024   1.590   7.570   8.241 -0.5665 -0.8324 -0.9253
   37POPC  H12Y 5025   1.614   7.407   8.316  0.5118 -0.6069  1.1086
   37POPC  C313 5026   1.513   7.544   8.451 -0.1647  0.0555 -0.1854
   37POPC  H13X 5027   1.477   7.459   8.515  1.4212 -0.1442  0.4775
   37POPC  H13Y 5028   1.438   7.626   8.454  1.2390  1.4651 -1.7106
   37POPC  C314 5029   1.640   7.612   8.508  0.3942  0.3322  0.2244
   37POPC  H14X 5030   1.676   7.689   8.436  3.0549  0.5573  1.6339
   37POPC  H14Y 5031   1.704   7.522   8.522 -0.0170  0.0126  0.0529
   37POPC  C315 5032   1.622   7.677   8.646  0.4824  0.4794  0.3901
   37POPC  H15X 5033   1.566   7.772   8.634  1.0162  0.7452 -0.0525
   37POPC  H15Y 5034   1.718   7.705   8.694  0.0268  1.8894  0.5240
   37POPC  C316 5035   1.540   7.591   8.739 -0.0006  0.2716  0.4074
   37POPC  H16X 5036   1.590   7.494   8.757 -1.1770 -0.1164  1.8172
   37POPC  H16Y 5037   1.439   7.572   8.696 -0.8831  2.9923  1.0337
   37POPC  H16Z 5038   1.516   7.635   8.838 -0.1501  1.7821 -0.2660
   38POPC     N 5039   4.251   4.469   5.786 -0.0869  0.7077 -0.0505
   38POPC   C12 5040   4.300   4.400   5.909  0.2388 -0.2493 -0.5106
   38POPC  H12A 5041   4.397   4.442   5.933  0.6882 -1.1199 -0.7806
   38POPC  H12B 5042   4.311   4.294   5.894 -0.5858 -0.3679 -0.3537
   38POPC   C13 5043   4.127   4.398   5.745  0.5597 -0.3854  0.2287
   38POPC  H13A 5044   4.060   4.392   5.830  3.1225  0.7745  2.4975
   38POPC  H13B 5045   4.074   4.458   5.673 -0.0247 -0.5167  0.5492
   38POPC  H13C 5046   4.137   4.302   5.695 -2.5540 -0.1223 -1.0793
   38POPC   C14 5047   4.228   4.612   5.803  0.3574  0.0686 -1.2759
   38POPC  H14A 5048   4.309   4.681   5.821 -1.4545  1.9334  0.3915
   38POPC  H14B 5049   4.171   4.654   5.721  0.3622  1.2927 -0.6784
   38POPC  H14C 5050   4.168   4.620   5.893  3.0141 -0.0466  0.6038
   38POPC   C15 5051   4.349   4.458   5.675 -0.1226  0.1263 -0.3285
   38POPC  H15A 5052   4.433   4.522   5.699  0.4797 -0.9620  0.5466
   38POPC  H15B 5053   4.300   4.501   5.589  0.5180 -0.6660 -1.1000
   38POPC  H15C 5054   4.376   4.356   5.654 -2.6134 -0.5383 -0.6292
   38POPC   C11 5055   4.224   4.429   6.038  0.7856  0.4395 -0.4499
   38POPC  H11A 5056   4.229   4.354   6.118 -3.0119  1.8506  1.3556
   38POPC  H11B 5057   4.115   4.414   6.020  0.7447  0.7091 -0.4438
   38POPC     P 5058   4.383   4.614   6.148  0.1676  0.2403  0.2623
   38POPC   O13 5059   4.391   4.763   6.160 -0.1162  0.2793  1.0572
   38POPC   O14 5060   4.491   4.554   6.068 -0.0038 -0.0166 -0.1296
   38POPC   O12 5061   4.241   4.568   6.090 -0.4095  0.0269  0.1907
   38POPC   O11 5062   4.399   4.558   6.298 -0.1129 -0.0181 -0.3267
   38POPC    C1 5063   4.294   4.542   6.391 -0.2502  0.1094  0.8887
   38POPC    HA 5064   4.281   4.436   6.421  0.9617  0.3171  2.2913
   38POPC    HB 5065   4.198   4.592   6.364 -0.4106  0.2154  1.6326
   38POPC    C2 5066   4.324   4.619   6.525 -0.0871 -0.2141  0.7210
   38POPC    HS 5067   4.325   4.728   6.501 -2.5305 -0.0644  1.0830
   38POPC   O21 5068   4.453   4.568   6.575  0.1851  0.3260 -0.4082
   38POPC   C21 5069   4.507   4.657   6.656 -0.6705 -0.1239  0.0652
   38POPC   O22 5070   4.455   4.768   6.677  0.4484 -0.0144  0.4779
   38POPC   C22 5071   4.643   4.604   6.709  0.7857  0.3803 -0.0982
   38POPC   H2R 5072   4.671   4.528   6.633 -1.1679 -0.7623  0.2653
   38POPC   H2S 5073   4.623   4.541   6.798 -0.5994  2.1777  0.9182
   38POPC    C3 5074   4.206   4.605   6.623  0.4340 -0.0549 -0.0120
   38POPC    HX 5075   4.112   4.624   6.567  0.6455 -2.0650 -1.1129
   38POPC    HY 5076   4.222   4.675   6.708  3.0025 -0.7147  0.1243
   38POPC   O31 5077   4.198   4.468   6.674 -0.0897 -0.2483 -0.1405
   38POPC   C31 5078   4.260   4.450   6.794  0.8598  0.1370  0.0028
   38POPC   O32 5079   4.340   4.523   6.848 -0.4198  0.3819 -0.1467
   38POPC   C32 5080   4.214   4.318   6.842  0.2769 -0.0940 -0.4868
   38POPC   H2X 5081   4.211   4.237   6.766 -1.6218 -0.3262 -0.2173
   38POPC   H2Y 5082   4.108   4.322   6.874 -0.3047 -0.8748 -2.1922
   38POPC   C23 5083   4.739   4.720   6.741 -0.6946  0.3690  0.1068
   38POPC   H3R 5084   4.696   4.785   6.820 -1.2575  0.2865 -0.1274
   38POPC   H3S 5085   4.753   4.774   6.645 -3.3725  0.5987 -0.2287
   38POPC   C24 5086   4.874   4.664   6.801  0.4184  0.6042 -0.2311
   38POPC   H4R 5087   4.963   4.710   6.752  1.4583  1.4009  2.2269
   38POPC   H4S 5088   4.884   4.553   6.792  1.3511  0.7488 -1.2597
   38POPC   C25 5089   4.876   4.708   6.950  0.4279  1.1265 -0.1635
   38POPC   H5R 5090   4.775   4.690   6.992  1.7204  0.9009  3.2150
   38POPC   H5S 5091   4.895   4.817   6.954 -0.8997  1.4745 -1.9303
   38POPC   C26 5092   4.981   4.632   7.035  0.1307 -0.0781  0.7725
   38POPC   H6R 5093   5.079   4.634   6.983 -0.6845  2.6711 -0.8685
   38POPC   H6S 5094   4.944   4.527   7.037 -2.5013  0.7375 -0.2551
   38POPC   C27 5095   5.000   4.699   7.174 -0.0037 -0.0319  0.7410
   38POPC   H7R 5096   4.899   4.697   7.218 -0.8237 -0.4546 -1.0735
   38POPC   H7S 5097   5.030   4.806   7.161  0.9963 -0.2454  1.1578
   38POPC   C28 5098   5.105   4.628   7.254 -0.5081 -0.1688 -0.2061
   38POPC   H8R 5099   5.127   4.703   7.333 -1.3848 -0.7154  0.5759
   38POPC   H8S 5100   5.201   4.599   7.205  0.5740  1.5497  0.7826
   38POPC   C29 5101   5.039   4.508   7.317 -0.3189  0.3675 -0.5216
   38POPC   H91 5102   4.954   4.457   7.269 -1.5159  0.1774  1.6547
   38POPC  C210 5103   5.085   4.442   7.434 -0.7303 -0.4452  0.0923
   38POPC  H101 5104   5.028   4.355   7.469 -3.3553 -0.5334 -3.7197
   38POPC  C211 5105   5.200   4.489   7.512 -0.3714  0.3752  0.2517
   38POPC  H11R 5106   5.257   4.566   7.455 -0.5420  1.1052  1.0440
   38POPC  H11S 5107   5.271   4.404   7.519 -0.0316  0.7419  1.5230
   38POPC  C212 5108   5.174   4.539   7.649 -0.3044 -0.7101  0.3417
   38POPC  H12R 5109   5.263   4.590   7.693 -2.1069  2.8507  0.2491
   38POPC  H12S 5110   5.150   4.456   7.719  0.5762 -1.9852 -0.8257
   38POPC  C213 5111   5.064   4.645   7.660  0.5424 -0.2923 -0.4392
   38POPC  H13R 5112   4.975   4.589   7.623  1.8918 -0.7722 -3.1962
   38POPC  H13S 5113   5.090   4.722   7.584  1.1308  0.4503  0.5024
   38POPC  C214 5114   5.028   4.707   7.795  0.0700  0.6731 -0.0454
   38POPC  H14R 5115   5.037   4.631   7.875 -0.3426  0.6014 -0.0623
   38POPC  H14S 5116   4.919   4.721   7.778 -0.1779 -1.3954 -0.3453
   38POPC  C215 5117   5.105   4.829   7.845  0.5339  0.2687 -0.0475
   38POPC  H15R 5118   5.034   4.899   7.894 -1.3821 -0.8670 -1.0893
   38POPC  H15S 5119   5.144   4.894   7.763  1.0416  0.8870  0.6712
   38POPC  C216 5120   5.206   4.785   7.951  0.2610 -0.2239 -0.3922
   38POPC  H16R 5121   5.287   4.858   7.972 -0.4933  0.1334  1.4915
   38POPC  H16S 5122   5.262   4.697   7.912  3.3384  0.8807  1.1600
   38POPC  C217 5123   5.139   4.763   8.090 -0.3811 -0.1619  0.1194
   38POPC  H17R 5124   5.043   4.708   8.082  0.3121 -1.6250  1.4115
   38POPC  H17S 5125   5.110   4.858   8.140  1.3809  0.7770 -0.5488
   38POPC  C218 5126   5.222   4.676   8.183 -0.3464 -0.8931  0.4277
   38POPC  H18R 5127   5.163   4.651   8.274 -2.4373  3.0352  0.3783
   38POPC  H18S 5128   5.314   4.731   8.214  0.1235  0.1005 -2.4173
   38POPC  H18T 5129   5.261   4.586   8.131  1.9925  0.9376 -1.2021
   38POPC   C33 5130   4.303   4.265   6.963  0.4425  0.7424  0.4205
   38POPC   H3X 5131   4.322   4.354   7.027  0.1048  1.2180 -0.1350
   38POPC   H3Y 5132   4.388   4.202   6.930 -1.2556 -1.9575  0.9092
   38POPC   C34 5133   4.217   4.171   7.049 -0.1474  0.0571  1.0316
   38POPC   H4X 5134   4.204   4.081   6.985  0.5188  0.0175  0.9532
   38POPC   H4Y 5135   4.116   4.217   7.064 -0.5055 -0.0633 -0.7923
   38POPC   C35 5136   4.280   4.141   7.183 -0.0496  0.3821 -0.7615
   38POPC   H5X 5137   4.304   4.236   7.236 -2.0052  1.2137 -1.2764
   38POPC   H5Y 5138   4.373   4.081   7.168 -1.3449 -2.3159  1.2666
   38POPC   C36 5139   4.185   4.045   7.268  0.2156 -0.1462  0.9510
   38POPC   H6X 5140   4.147   3.974   7.191  1.7197  1.4826 -1.4506
   38POPC   H6Y 5141   4.099   4.111   7.292 -0.5950  0.8406 -3.5723
   38POPC   C37 5142   4.238   3.971   7.391  0.1389 -0.4745 -0.6063
   38POPC   H7X 5143   4.323   3.904   7.366 -0.7498 -1.3559 -1.3708
   38POPC   H7Y 5144   4.149   3.916   7.428  0.2761 -0.7815 -0.7276
   38POPC   C38 5145   4.264   4.084   7.502 -0.3805  0.4646 -0.5686
   38POPC   H8X 5146   4.163   4.128   7.520 -0.4108  0.3474 -0.4535
   38POPC   H8Y 5147   4.341   4.156   7.465 -0.6242  1.1488  0.2341
   38POPC   C39 5148   4.320   4.020   7.629 -0.9714 -0.5436  0.0411
   38POPC   H9X 5149   4.430   4.004   7.624 -0.7740  0.9426 -3.2553
   38POPC   H9Y 5150   4.267   3.927   7.656  0.0217 -0.9876  0.5213
   38POPC  C310 5151   4.299   4.106   7.755 -0.5240 -0.0384 -0.1005
   38POPC  H10X 5152   4.191   4.123   7.774 -0.0969  0.9014  1.8001
   38POPC  H10Y 5153   4.342   4.208   7.740 -1.5642  0.6910  1.5793
   38POPC  C311 5154   4.379   4.049   7.876 -0.4366  0.1879 -0.8286
   38POPC  H11X 5155   4.479   4.008   7.850 -0.7012 -0.1325 -1.3721
   38POPC  H11Y 5156   4.322   3.963   7.916  0.1988  0.6765  1.2433
   38POPC  C312 5157   4.405   4.144   7.988 -0.2643 -0.3448 -0.7363
   38POPC  H12X 5158   4.440   4.229   7.926 -0.5121  0.3520  0.0412
   38POPC  H12Y 5159   4.479   4.097   8.056 -0.2654  0.2989 -0.2745
   38POPC  C313 5160   4.286   4.171   8.082  0.4593 -0.0614  0.7016
   38POPC  H13X 5161   4.256   4.083   8.143  0.7678 -1.9932 -1.7501
   38POPC  H13Y 5162   4.202   4.206   8.019  1.2589  1.5604  0.4766
   38POPC  C314 5163   4.319   4.283   8.178  0.4542 -0.6185 -0.2274
   38POPC  H14X 5164   4.240   4.285   8.257 -0.5828 -0.6744 -1.2254
   38POPC  H14Y 5165   4.324   4.380   8.124 -0.4270 -0.0427  0.6665
   38POPC  C315 5166   4.458   4.271   8.250 -0.5721 -0.3693  0.0961
   38POPC  H15X 5167   4.450   4.359   8.317 -2.5485 -0.3767 -0.0659
   38POPC  H15Y 5168   4.544   4.294   8.183  0.2193  2.9411  2.0440
   38POPC  C316 5169   4.489   4.145   8.337 -0.2451  0.7747 -0.0005
   38POPC  H16X 5170   4.395   4.092   8.362 -1.2183  3.3339  2.3652
   38POPC  H16Y 5171   4.551   4.161   8.428 -0.9690  0.9962  0.4647
   38POPC  H16Z 5172   4.543   4.079   8.266 -0.7255 -0.1337  0.4589
   39POPC     N 5173   5.772   2.156   6.192 -0.3262  0.4320 -0.5197
   39POPC   C12 5174   5.648   2.069   6.220  0.4682 -0.7903 -0.1648
   39POPC  H12A 5175   5.564   2.137   6.220  0.3812 -0.8378  2.1432
   39POPC  H12B 5176   5.649   2.027   6.319 -0.6030  0.8392  0.5782
   39POPC   C13 5177   5.784   2.252   6.312  0.9249  0.3683 -0.2021
   39POPC  H13A 5178   5.692   2.306   6.327  1.5328  1.1913  0.6788
   39POPC  H13B 5179   5.799   2.192   6.400 -0.2868  0.8212  0.3337
   39POPC  H13C 5180   5.867   2.318   6.290  0.8298  1.0312  1.3087
   39POPC   C14 5181   5.887   2.071   6.201 -0.3449  0.3533  0.7528
   39POPC  H14A 5182   5.978   2.129   6.205 -0.1347  0.0840  0.0230
   39POPC  H14B 5183   5.886   2.021   6.297 -3.6396  1.3049  1.3629
   39POPC  H14C 5184   5.884   1.992   6.127 -1.4858 -0.5138  1.6730
   39POPC   C15 5185   5.763   2.234   6.070 -0.0268  0.3528 -0.5108
   39POPC  H15A 5186   5.741   2.167   5.988 -1.8456  0.6254 -0.2997
   39POPC  H15B 5187   5.853   2.292   6.063 -0.1162  0.5245 -0.2449
   39POPC  H15C 5188   5.675   2.295   6.079 -1.4687 -1.8857  2.7508
   39POPC   C11 5189   5.628   1.958   6.124  0.0349  0.0183  0.4913
   39POPC  H11A 5190   5.626   2.000   6.021  0.7293  2.1874  1.3076
   39POPC  H11B 5191   5.527   1.915   6.140  1.1586 -3.5056 -1.0275
   39POPC     P 5192   5.716   1.750   6.257  0.5319 -0.0783  0.5393
   39POPC   O13 5193   5.706   1.616   6.192 -0.5708 -0.5084 -0.3503
   39POPC   O14 5194   5.605   1.793   6.336  0.1386 -0.0438  0.0953
   39POPC   O12 5195   5.720   1.856   6.133 -0.0337  0.2788 -0.2652
   39POPC   O11 5196   5.844   1.753   6.345  0.7539  0.5007  0.0551
   39POPC    C1 5197   5.981   1.742   6.297  0.6287  0.4697 -0.3073
   39POPC    HA 5198   6.044   1.790   6.375  1.0881 -2.6813  1.4394
   39POPC    HB 5199   6.001   1.809   6.210  2.0635  0.8419  0.2819
   39POPC    C2 5200   6.028   1.602   6.282 -0.6659 -0.4187 -0.1590
   39POPC    HS 5201   6.016   1.564   6.179  1.1235 -0.3738 -0.4119
   39POPC   O21 5202   5.983   1.516   6.391 -0.5663  0.4868  0.2189
   39POPC   C21 5203   6.014   1.388   6.378  0.8473 -0.3578 -0.6269
   39POPC   O22 5204   6.070   1.337   6.282 -0.7712 -0.1677  0.4920
   39POPC   C22 5205   5.964   1.308   6.496 -0.2726 -0.5532 -0.3149
   39POPC   H2R 5206   5.978   1.198   6.486  0.4968 -0.2851 -2.7683
   39POPC   H2S 5207   5.857   1.327   6.519 -0.3342  0.6318 -1.4883
   39POPC    C3 5208   6.186   1.605   6.287 -0.3220 -0.4067  0.0083
   39POPC    HX 5209   6.215   1.701   6.238 -1.5841 -0.9110 -1.8445
   39POPC    HY 5210   6.213   1.520   6.221 -1.4788 -0.1959 -0.7785
   39POPC   O31 5211   6.237   1.600   6.421  0.0585  0.2754  0.1064
   39POPC   C31 5212   6.298   1.701   6.476  0.0807 -0.2831  0.3126
   39POPC   O32 5213   6.345   1.798   6.422 -0.1427  0.3124 -0.3736
   39POPC   C32 5214   6.285   1.689   6.630  0.3156  0.1142  0.2157
   39POPC   H2X 5215   6.177   1.698   6.654 -0.2617 -3.6480 -0.4686
   39POPC   H2Y 5216   6.320   1.592   6.669 -0.4646 -0.8043 -1.2851
   39POPC   C23 5217   6.040   1.355   6.631  0.5876  0.3807  0.2977
   39POPC   H3R 5218   5.978   1.312   6.713  0.6937 -2.0421 -0.8109
   39POPC   H3S 5219   6.040   1.466   6.628  2.4407  0.4369  0.7875
   39POPC   C24 5220   6.184   1.297   6.638  0.3024 -0.0162 -0.4527
   39POPC   H4R 5221   6.255   1.349   6.570  1.6752 -0.2239  0.7931
   39POPC   H4S 5222   6.185   1.197   6.590  2.1715 -0.0862 -0.3234
   39POPC   C25 5223   6.234   1.303   6.779  0.3214 -1.1533  0.5322
   39POPC   H5R 5224   6.170   1.244   6.848  1.5093 -2.1767  0.7890
   39POPC   H5S 5225   6.238   1.407   6.818  1.3026 -1.7628  2.1364
   39POPC   C26 5226   6.374   1.260   6.796 -0.3368 -0.2492  0.7842
   39POPC   H6R 5227   6.437   1.313   6.721  0.4006  1.3967  2.4810
   39POPC   H6S 5228   6.383   1.150   6.779 -0.8445 -0.0831 -0.6201
   39POPC   C27 5229   6.430   1.277   6.937  0.2424 -0.3468  0.1063
   39POPC   H7R 5230   6.363   1.217   7.003  0.9926 -1.5191 -0.1820
   39POPC   H7S 5231   6.430   1.384   6.968  0.4022 -0.6344  1.1628
   39POPC   C28 5232   6.570   1.221   6.955 -0.2091 -0.1816 -0.2649
   39POPC   H8R 5233   6.645   1.295   6.922  0.8294 -1.7788 -1.6564
   39POPC   H8S 5234   6.586   1.138   6.883  0.1016 -1.1224  0.8577
   39POPC   C29 5235   6.592   1.163   7.093 -0.2303  0.4024 -0.4804
   39POPC   H91 5236   6.585   1.054   7.086 -1.9426  0.4978 -0.8481
   39POPC  C210 5237   6.611   1.228   7.209 -0.2449 -0.5359 -0.1899
   39POPC  H101 5238   6.614   1.177   7.306 -0.6925  0.3523  0.2973
   39POPC  C211 5239   6.613   1.378   7.215  0.2940 -0.5790 -0.3212
   39POPC  H11R 5240   6.507   1.409   7.232 -0.1595 -1.4248 -1.4473
   39POPC  H11S 5241   6.633   1.425   7.116  1.4108  0.5429  0.4005
   39POPC  C212 5242   6.695   1.443   7.327  0.8225  0.2433 -0.7563
   39POPC  H12R 5243   6.682   1.553   7.330  0.2488  0.1600 -0.1639
   39POPC  H12S 5244   6.804   1.422   7.323  0.4518 -1.6452 -2.0784
   39POPC  C213 5245   6.637   1.397   7.465 -0.7397  0.4279  0.2524
   39POPC  H13R 5246   6.662   1.291   7.485 -1.6381  0.4344  1.4840
   39POPC  H13S 5247   6.526   1.404   7.468 -0.8870 -0.9496 -0.8830
   39POPC  C214 5248   6.702   1.469   7.589  0.6476 -0.7122 -0.0471
   39POPC  H14R 5249   6.809   1.492   7.573  0.0394  2.8681  0.2265
   39POPC  H14S 5250   6.688   1.417   7.686 -2.9107 -0.3604 -0.2268
   39POPC  C215 5251   6.622   1.601   7.618 -0.5663  0.4585 -0.0316
   39POPC  H15R 5252   6.514   1.579   7.630 -0.3580 -0.3600  0.4148
   39POPC  H15S 5253   6.641   1.668   7.531 -0.7033  0.2630 -0.2153
   39POPC  C216 5254   6.664   1.667   7.746  0.0309 -0.5810  0.3429
   39POPC  H16R 5255   6.768   1.705   7.736  1.2658 -3.6385  0.3036
   39POPC  H16S 5256   6.678   1.594   7.829 -0.5000 -0.9488  0.1150
   39POPC  C217 5257   6.565   1.765   7.807  0.1055 -0.5027  0.8625
   39POPC  H17R 5258   6.466   1.717   7.816 -0.6110  0.4951 -1.1499
   39POPC  H17S 5259   6.543   1.848   7.736  0.4198 -1.4430 -0.3670
   39POPC  C218 5260   6.612   1.812   7.941  0.8984 -0.8928 -0.4597
   39POPC  H18R 5261   6.598   1.736   8.021  0.6152 -1.1499 -0.7533
   39POPC  H18S 5262   6.558   1.904   7.974  0.4451 -1.7605  1.3633
   39POPC  H18T 5263   6.716   1.846   7.927 -0.1995  2.3184 -1.7699
   39POPC   C33 5264   6.351   1.805   6.709  0.0484 -0.1822 -0.1993
   39POPC   H3X 5265   6.327   1.903   6.662 -0.3417 -0.6906 -1.0932
   39POPC   H3Y 5266   6.460   1.786   6.700  0.2950  1.2121 -0.4802
   39POPC   C34 5267   6.304   1.809   6.854 -0.0529 -0.2713 -0.9399
   39POPC   H4X 5268   6.327   1.716   6.911 -0.5239  0.4305  0.4477
   39POPC   H4Y 5269   6.193   1.807   6.865 -0.0254 -0.1741 -0.6467
   39POPC   C35 5270   6.345   1.933   6.934  0.3493 -0.2974  1.1390
   39POPC   H5X 5271   6.448   1.965   6.907  0.1699  1.3592  2.3315
   39POPC   H5Y 5272   6.332   1.914   7.042 -1.4225 -0.4170  0.9448
   39POPC   C36 5273   6.256   2.054   6.895 -0.5536  0.1513 -0.5047
   39POPC   H6X 5274   6.271   2.083   6.789 -2.0271 -2.0246 -1.3840
   39POPC   H6Y 5275   6.297   2.144   6.946 -0.2273 -1.1470  1.6961
   39POPC   C37 5276   6.105   2.040   6.927  0.0529 -1.0621  0.7932
   39POPC   H7X 5277   6.058   1.968   6.857 -0.4979 -0.5631  0.6397
   39POPC   H7Y 5278   6.049   2.134   6.906  0.9413 -0.2653  1.8012
   39POPC   C38 5279   6.061   1.993   7.066  0.2029 -0.2395 -0.2708
   39POPC   H8X 5280   6.095   1.888   7.073  2.4403  0.4322  0.0520
   39POPC   H8Y 5281   5.951   1.984   7.065  0.1010  0.8135 -1.7667
   39POPC   C39 5282   6.116   2.075   7.179  0.2606  0.5293 -0.3083
   39POPC   H9X 5283   6.092   2.182   7.163 -0.2558  0.1824 -2.0550
   39POPC   H9Y 5284   6.226   2.060   7.186 -0.0889 -4.0045 -1.1873
   39POPC  C310 5285   6.058   2.026   7.307 -0.0039  0.2491  0.0607
   39POPC  H10X 5286   6.076   1.917   7.318  0.9671  0.4272  0.3629
   39POPC  H10Y 5287   5.950   2.050   7.297 -0.1252 -0.7176 -1.1636
   39POPC  C311 5288   6.105   2.091   7.439  0.7124 -0.8302  0.9454
   39POPC  H11X 5289   6.103   2.199   7.412 -0.2658 -1.1752 -0.4471
   39POPC  H11Y 5290   6.215   2.086   7.456  0.2297 -2.0769  4.5818
   39POPC  C312 5291   6.022   2.063   7.556 -0.3066  0.4830 -0.0997
   39POPC  H12X 5292   6.049   1.971   7.611 -2.3671  1.0449  1.9791
   39POPC  H12Y 5293   5.919   2.044   7.518  0.5796  0.3893 -2.6528
   39POPC  C313 5294   6.027   2.182   7.659  0.2027  0.0352  0.7601
   39POPC  H13X 5295   5.942   2.153   7.724  0.1126 -3.3281 -0.6604
   39POPC  H13Y 5296   6.001   2.276   7.606 -1.2977 -0.9950 -0.4085
   39POPC  C314 5297   6.150   2.202   7.740 -0.5006  0.5435 -0.7162
   39POPC  H14X 5298   6.146   2.296   7.801 -2.4116  1.3596 -2.0049
   39POPC  H14Y 5299   6.236   2.206   7.670 -0.8638  1.7167 -1.1259
   39POPC  C315 5300   6.169   2.100   7.844  0.6304  0.0502  0.2841
   39POPC  H15X 5301   6.155   1.999   7.800  0.4724 -0.2979  1.1282
   39POPC  H15Y 5302   6.091   2.120   7.921  0.9377  0.4436  0.4996
   39POPC  C316 5303   6.305   2.116   7.907 -0.2476  0.2512  0.1981
   39POPC  H16X 5304   6.378   2.093   7.826  1.8730  0.5594  1.9247
   39POPC  H16Y 5305   6.321   2.062   8.002  1.9528  1.5919  0.6679
   39POPC  H16Z 5306   6.321   2.224   7.931 -0.2260 -0.0054  1.4004
   40POPC     N 5307   6.205   6.427   5.984 -0.6470 -0.2141 -0.1456
   40POPC   C12 5308   6.261   6.441   6.123  0.3127  0.2353  0.4520
   40POPC  H12A 5309   6.235   6.540   6.159 -0.5839  0.7696 -1.5129
   40POPC  H12B 5310   6.369   6.440   6.111  0.5206  1.2222  1.9982
   40POPC   C13 5311   6.263   6.311   5.920  0.2679 -0.3579 -0.7226
   40POPC  H13A 5312   6.237   6.224   5.979 -0.2243 -0.2568 -0.7844
   40POPC  H13B 5313   6.217   6.295   5.823 -2.0178 -2.8959  0.6283
   40POPC  H13C 5314   6.370   6.313   5.916  0.2365  0.3772 -1.4143
   40POPC   C14 5315   6.055   6.427   5.989  0.8826 -0.0832 -0.2073
   40POPC  H14A 5316   6.033   6.531   5.973 -0.3799 -0.5655 -1.8850
   40POPC  H14B 5317   6.010   6.376   5.905 -2.4766  2.0109  0.1235
   40POPC  H14C 5318   6.022   6.396   6.088 -1.3910  1.2559 -0.4890
   40POPC   C15 5319   6.248   6.550   5.901  0.0385 -0.1495  0.5889
   40POPC  H15A 5320   6.350   6.544   5.866 -0.3486 -1.6341 -0.3868
   40POPC  H15B 5321   6.228   6.639   5.959 -3.1629 -0.7026  0.5449
   40POPC  H15C 5322   6.201   6.544   5.804  0.5759 -0.8494  0.3643
   40POPC   C11 5323   6.230   6.335   6.233 -0.4887 -0.2522 -0.1279
   40POPC  H11A 5324   6.283   6.379   6.320  1.7503  0.6752 -1.8697
   40POPC  H11B 5325   6.282   6.240   6.209 -0.2111  0.4338 -2.5346
   40POPC     P 5326   6.021   6.178   6.279 -0.8204  0.0452 -0.1378
   40POPC   O13 5327   6.039   6.093   6.161  0.4257 -0.4237  0.5363
   40POPC   O14 5328   5.886   6.197   6.337  0.4877 -0.6583 -0.0151
   40POPC   O12 5329   6.092   6.316   6.249 -0.1225 -0.3195 -0.2742
   40POPC   O11 5330   6.113   6.118   6.390 -0.3375  0.3203  0.4282
   40POPC    C1 5331   6.138   6.179   6.520  0.3659 -0.9573  0.1954
   40POPC    HA 5332   6.039   6.192   6.568  1.2355  0.4575  1.7161
   40POPC    HB 5333   6.178   6.283   6.512 -0.4009 -0.7206 -0.8520
   40POPC    C2 5334   6.225   6.096   6.606  0.0576  0.3900  0.0375
   40POPC    HS 5335   6.195   5.990   6.600  2.2178 -0.4038  1.8580
   40POPC   O21 5336   6.217   6.151   6.743 -0.1955  0.2362 -0.1653
   40POPC   C21 5337   6.296   6.086   6.837  0.2422 -0.2158  0.6207
   40POPC   O22 5338   6.351   5.981   6.818  0.1065 -0.1497  0.7377
   40POPC   C22 5339   6.291   6.159   6.972  0.3335  0.0575 -0.2098
   40POPC   H2R 5340   6.182   6.156   6.995 -0.2507 -0.6093 -2.6982
   40POPC   H2S 5341   6.311   6.268   6.962 -2.2773  1.1287  3.7683
   40POPC    C3 5342   6.363   6.108   6.550 -0.5085  0.2253  0.5376
   40POPC    HX 5343   6.349   6.060   6.451 -0.4512  0.7544  0.2667
   40POPC    HY 5344   6.437   6.043   6.601 -0.7490 -0.5125 -0.0395
   40POPC   O31 5345   6.417   6.240   6.538 -0.0128 -0.8374  0.4789
   40POPC   C31 5346   6.473   6.291   6.638 -0.3614 -0.2933 -0.4266
   40POPC   O32 5347   6.518   6.235   6.736  0.1047  0.3600  0.1631
   40POPC   C32 5348   6.479   6.445   6.626  0.4785  0.1801  0.0794
   40POPC   H2X 5349   6.441   6.475   6.526 -0.8891 -1.3960  0.0769
   40POPC   H2Y 5350   6.585   6.475   6.619  0.3690  0.3846 -0.9196
   40POPC   C23 5351   6.371   6.096   7.088 -0.1151  0.1251 -0.2632
   40POPC   H3R 5352   6.476   6.090   7.051  0.4534  0.9533  1.1316
   40POPC   H3S 5353   6.335   5.995   7.117 -1.0188  0.5871  0.2598
   40POPC   C24 5354   6.372   6.187   7.211  0.4216  0.8026  0.1079
   40POPC   H4R 5355   6.271   6.189   7.258 -0.1295 -1.7451 -0.8117
   40POPC   H4S 5356   6.399   6.292   7.189 -1.5880  1.5281  0.9157
   40POPC   C25 5357   6.464   6.133   7.322 -0.1256 -0.1968 -0.2015
   40POPC   H5R 5358   6.570   6.135   7.289  0.2226 -3.8331  0.2134
   40POPC   H5S 5359   6.440   6.026   7.342  0.7517 -0.0423  1.8976
   40POPC   C26 5360   6.440   6.200   7.456 -0.1992 -0.4814  0.1787
   40POPC   H6R 5361   6.452   6.311   7.450  1.6101 -0.7148 -1.6125
   40POPC   H6S 5362   6.523   6.170   7.523 -0.3180  0.0847  0.5901
   40POPC   C27 5363   6.305   6.163   7.525 -0.3345 -0.3109  0.5242
   40POPC   H7R 5364   6.288   6.054   7.536 -1.9949  0.0788  2.3533
   40POPC   H7S 5365   6.217   6.195   7.464 -0.1676  0.3972  0.6516
   40POPC   C28 5366   6.296   6.213   7.668 -0.3645 -0.1324  0.2044
   40POPC   H8R 5367   6.385   6.170   7.720 -1.5709 -1.1884  1.4713
   40POPC   H8S 5368   6.199   6.177   7.707 -1.1868  2.5609  0.8205
   40POPC   C29 5369   6.288   6.363   7.669 -0.1074  0.2884 -0.3861
   40POPC   H91 5370   6.200   6.414   7.626 -0.2032  0.3591 -0.1090
   40POPC  C210 5371   6.379   6.445   7.734 -0.5652  0.4327 -0.7199
   40POPC  H101 5372   6.375   6.555   7.725  3.3479  0.6735 -0.9418
   40POPC  C211 5373   6.500   6.406   7.824 -0.1754 -0.3477  0.7805
   40POPC  H11R 5374   6.577   6.486   7.815 -0.8550  0.3709  1.2808
   40POPC  H11S 5375   6.546   6.316   7.776  0.8007  1.3073 -1.5365
   40POPC  C212 5376   6.456   6.381   7.962 -0.8149  0.0425  0.0649
   40POPC  H12R 5377   6.525   6.312   8.014 -0.7553  0.6353  0.8053
   40POPC  H12S 5378   6.355   6.334   7.963 -0.0209 -1.8848 -2.0648
   40POPC  C213 5379   6.457   6.505   8.044  0.5087 -0.8730 -0.2110
   40POPC  H13R 5380   6.389   6.589   8.016  1.3261  0.2626  1.0495
   40POPC  H13S 5381   6.554   6.559   8.047 -0.4262  0.8732  0.0209
   40POPC  C214 5382   6.416   6.482   8.193 -0.7381 -0.0885  0.3167
   40POPC  H14R 5383   6.415   6.374   8.219 -2.1091 -0.6097 -1.7088
   40POPC  H14S 5384   6.306   6.496   8.197 -0.6373  0.7145  0.5377
   40POPC  C215 5385   6.494   6.549   8.305 -0.1708  0.2408  0.1146
   40POPC  H15R 5386   6.485   6.659   8.290 -1.1104  0.4211  1.7666
   40POPC  H15S 5387   6.601   6.524   8.292 -0.3424 -0.4430 -0.0485
   40POPC  C216 5388   6.447   6.505   8.441  0.1176 -0.0552 -0.4979
   40POPC  H16R 5389   6.527   6.533   8.514 -2.2539 -0.5842  2.4858
   40POPC  H16S 5390   6.448   6.395   8.455  0.1740  0.1297  1.1658
   40POPC  C217 5391   6.320   6.568   8.492 -0.8389 -0.2444  0.0794
   40POPC  H17R 5392   6.283   6.652   8.429 -0.8414 -1.1678 -1.1975
   40POPC  H17S 5393   6.351   6.610   8.590 -2.3063  1.0592  0.0196
   40POPC  C218 5394   6.191   6.478   8.495  0.5188  0.1431 -0.0647
   40POPC  H18R 5395   6.156   6.462   8.390 -0.4506 -0.0043  0.2735
   40POPC  H18S 5396   6.110   6.536   8.543  2.6649  1.9781  1.6052
   40POPC  H18T 5397   6.213   6.383   8.547  2.4923 -0.6577 -2.1538
   40POPC   C33 5398   6.414   6.526   6.745  0.1087 -0.5149  0.0389
   40POPC   H3X 5399   6.305   6.505   6.750 -1.1540  4.7638  0.6056
   40POPC   H3Y 5400   6.424   6.633   6.719 -0.6246 -0.1518  1.1884
   40POPC   C34 5401   6.490   6.509   6.878  0.0458  0.0405  0.1761
   40POPC   H4X 5402   6.590   6.556   6.871 -0.5773  1.2142 -1.3909
   40POPC   H4Y 5403   6.508   6.401   6.901 -0.3116 -0.5276 -2.0406
   40POPC   C35 5404   6.417   6.571   6.996 -0.3291 -0.9531 -0.4951
   40POPC   H5X 5405   6.338   6.504   7.036 -3.7946  1.8636 -2.0089
   40POPC   H5Y 5406   6.367   6.665   6.962 -1.5349 -1.3208  0.1974
   40POPC   C36 5407   6.520   6.618   7.094  0.1539 -0.2451  0.0800
   40POPC   H6X 5408   6.586   6.700   7.059  2.0306 -0.8234  2.0487
   40POPC   H6Y 5409   6.594   6.542   7.127 -1.6830 -1.1267  2.4501
   40POPC   C37 5410   6.451   6.677   7.215  0.4113  0.6601 -0.0186
   40POPC   H7X 5411   6.392   6.596   7.261  1.7113  0.5515  1.5195
   40POPC   H7Y 5412   6.378   6.760   7.198  1.8052  1.9320  0.0091
   40POPC   C38 5413   6.551   6.748   7.310  0.1674  0.3076 -0.5157
   40POPC   H8X 5414   6.580   6.849   7.276 -1.0215  0.5657 -0.8115
   40POPC   H8Y 5415   6.654   6.705   7.317  0.5986  1.5510  3.5757
   40POPC   C39 5416   6.504   6.742   7.456 -0.0117 -0.1303  0.3146
   40POPC   H9X 5417   6.522   6.636   7.485  2.3319  0.1546  0.1111
   40POPC   H9Y 5418   6.400   6.776   7.472 -0.9771 -1.0974 -2.9779
   40POPC  C310 5419   6.595   6.816   7.550  0.3138 -0.2122 -0.1170
   40POPC  H10X 5420   6.595   6.923   7.520 -0.9822 -0.0461  0.3943
   40POPC  H10Y 5421   6.700   6.784   7.535 -0.8198 -4.5883  0.0473
   40POPC  C311 5422   6.555   6.788   7.699 -0.9852 -0.4007  0.1395
   40POPC  H11X 5423   6.585   6.686   7.729  1.6776 -0.4070 -2.0846
   40POPC  H11Y 5424   6.445   6.794   7.711 -0.8069 -0.4284  2.0270
   40POPC  C312 5425   6.627   6.886   7.796 -0.2962 -0.3884 -0.5402
   40POPC  H12X 5426   6.596   6.987   7.763  1.3784 -0.0699 -1.1906
   40POPC  H12Y 5427   6.736   6.867   7.793 -0.5575 -2.0600 -0.2666
   40POPC  C313 5428   6.590   6.856   7.950  0.1673 -0.0845  0.7679
   40POPC  H13X 5429   6.660   6.775   7.978  2.1678  0.9096 -1.0615
   40POPC  H13Y 5430   6.485   6.820   7.957  0.4535 -1.4585 -1.1342
   40POPC  C314 5431   6.620   6.972   8.049 -0.1885  0.3560 -0.3435
   40POPC  H14X 5432   6.559   7.060   8.021  0.0693  0.9103  0.7921
   40POPC  H14Y 5433   6.727   6.997   8.031 -0.3186 -0.7458 -3.2484
   40POPC  C315 5434   6.590   6.923   8.188  0.0720  0.3641  0.1851
   40POPC  H15X 5435   6.584   6.813   8.202  2.2234  0.4045  2.2112
   40POPC  H15Y 5436   6.491   6.960   8.222  0.8961  2.3188  0.5819
   40POPC  C316 5437   6.697   6.970   8.298  0.5617 -0.6796  0.7986
   40POPC  H16X 5438   6.660   6.974   8.402 -0.2616 -2.3159  0.6047
   40POPC  H16Y 5439   6.739   7.071   8.279 -1.8336  0.3532  0.6735
   40POPC  H16Z 5440   6.778   6.894   8.305  0.3136 -0.8445  1.9946
   41CHL1    C3 5441   5.910   5.713  10.004  0.5727 -0.9541  0.0147
   41CHL1    H3 5442   6.004   5.769   9.986  1.0335 -1.6387  0.2216
   41CHL1    O3 5443   5.883   5.703  10.142  0.7199  0.4281  0.0921
   41CHL1   H3' 5444   5.796   5.741  10.157  0.2983 -0.5264  0.1264
   41CHL1    C4 5445   5.785   5.791   9.944  0.5125 -0.1900 -0.6501
   41CHL1   H4A 5446   5.692   5.735   9.966 -0.1387  1.2391  0.3802
   41CHL1   H4B 5447   5.770   5.882  10.006 -1.9178  0.2030 -1.6849
   41CHL1    C5 5448   5.796   5.818   9.792  0.0573 -0.1075 -0.7029
   41CHL1    C6 5449   5.792   5.943   9.732 -0.0265 -0.1646 -0.1987
   41CHL1    H6 5450   5.774   6.027   9.801  1.7939 -0.0413  0.1772
   41CHL1    C7 5451   5.794   5.959   9.579 -0.2419  0.1148 -0.3283
   41CHL1   H7A 5452   5.715   6.035   9.560 -0.0181  1.5839  3.6873
   41CHL1   H7B 5453   5.891   6.007   9.556  0.7021 -1.5699  0.0082
   41CHL1    C8 5454   5.783   5.828   9.502  0.1584 -0.6153 -0.7356
   41CHL1    H8 5455   5.678   5.794   9.496 -0.2196  0.5775 -1.2040
   41CHL1   C14 5456   5.838   5.845   9.360 -0.1083 -0.2456 -0.6774
   41CHL1   H14 5457   5.945   5.872   9.376  0.6463 -2.3025 -1.8952
   41CHL1   C15 5458   5.793   5.964   9.271 -0.6162 -0.0308 -0.3777
   41CHL1  H15A 5459   5.689   6.003   9.264 -0.2170  1.0708 -0.3068
   41CHL1  H15B 5460   5.842   6.059   9.301 -1.3620 -0.0090  0.8198
   41CHL1   C16 5461   5.831   5.922   9.130 -0.1481  0.6498  0.2504
   41CHL1  H16A 5462   5.735   5.925   9.073 -0.3234  2.6254  0.6030
   41CHL1  H16B 5463   5.899   5.992   9.078 -0.8344 -0.4792 -2.3282
   41CHL1   C17 5464   5.900   5.788   9.136 -0.0286 -0.1396 -0.4347
   41CHL1   H17 5465   6.005   5.811   9.166 -0.0682 -0.1703 -0.2679
   41CHL1   C13 5466   5.844   5.724   9.266  0.2251 -0.7167 -0.9755
   41CHL1   C18 5467   5.699   5.672   9.248  0.3563 -0.7287 -0.4184
   41CHL1  H18A 5468   5.692   5.588   9.175  1.1571 -2.7531  1.7095
   41CHL1  H18B 5469   5.661   5.637   9.346 -2.9320  2.8739 -0.2073
   41CHL1  H18C 5470   5.633   5.758   9.224  1.6263  0.0343 -1.2704
   41CHL1   C12 5471   5.933   5.621   9.348 -0.3584 -0.3515 -0.4272
   41CHL1  H12A 5472   5.936   5.532   9.282  2.3114 -0.0074 -0.9105
   41CHL1  H12B 5473   6.029   5.677   9.335 -2.3614  3.3049 -0.8728
   41CHL1   C11 5474   5.890   5.594   9.488 -0.0018  0.0203 -0.1078
   41CHL1  H11A 5475   5.800   5.530   9.477  1.5280 -2.1883 -0.4003
   41CHL1  H11B 5476   5.974   5.539   9.535  0.1045 -3.0189 -3.3962
   41CHL1    C9 5477   5.868   5.721   9.572  0.6685 -0.2670 -0.3920
   41CHL1    H9 5478   5.973   5.755   9.580  1.8136 -3.6161  0.6757
   41CHL1   C10 5479   5.823   5.686   9.717  1.0088  0.1669  0.0715
   41CHL1   C19 5480   5.689   5.603   9.708 -0.1183 -0.2568 -0.3781
   41CHL1  H19A 5481   5.653   5.575   9.810  0.1411  1.6429  0.2663
   41CHL1  H19B 5482   5.609   5.665   9.663 -0.1031 -0.4402 -0.6580
   41CHL1  H19C 5483   5.701   5.508   9.652 -0.8130  0.3961 -1.6737
   41CHL1    C1 5484   5.926   5.597   9.786 -0.2452  0.0254  0.0648
   41CHL1   H1A 5485   5.923   5.497   9.739  0.3386 -0.0283  0.1284
   41CHL1   H1B 5486   6.033   5.625   9.770  0.0872 -0.8202  0.7342
   41CHL1    C2 5487   5.913   5.576   9.938  0.4302  0.0562 -0.4786
   41CHL1   H2A 5488   5.996   5.506   9.962  0.8781 -0.5196 -3.3658
   41CHL1   H2B 5489   5.818   5.524   9.962 -0.4551  1.2287 -1.3285
   41CHL1   C20 5490   5.897   5.706   9.008 -0.0212 -0.8362  0.0857
   41CHL1   H20 5491   5.790   5.697   8.979  0.1577 -2.6779 -0.1333
   41CHL1   C21 5492   5.947   5.567   9.033 -0.2000 -0.4632  0.0426
   41CHL1  H21A 5493   5.889   5.506   9.105  0.0551 -0.3377  0.3563
   41CHL1  H21B 5494   6.052   5.571   9.067  0.4104 -0.4038 -1.7260
   41CHL1  H21C 5495   5.948   5.501   8.943  2.5744  0.6145 -0.8203
   41CHL1   C22 5496   5.961   5.777   8.885  0.9168  0.6422 -0.5763
   41CHL1  H22A 5497   5.907   5.860   8.835 -1.3748 -0.3431  0.1385
   41CHL1  H22B 5498   6.060   5.818   8.915  0.8959  0.3815 -0.1498
   41CHL1   C23 5499   5.991   5.680   8.772  0.1075  0.4001  0.1604
   41CHL1  H23A 5500   6.082   5.622   8.799 -0.1113  0.3717  0.8538
   41CHL1  H23B 5501   5.907   5.617   8.735  0.1678  1.0772 -1.2232
   41CHL1   C24 5502   6.023   5.761   8.643  0.1676  0.2732  0.6735
   41CHL1  H24A 5503   5.935   5.824   8.616  0.3491  0.1916 -0.1238
   41CHL1  H24B 5504   6.096   5.839   8.677  1.2715 -0.9447  1.1699
   41CHL1   C25 5505   6.060   5.669   8.528 -0.2507 -0.5410 -0.8420
   41CHL1   H25 5506   5.976   5.599   8.505  0.8779 -2.1562 -0.2735
   41CHL1   C26 5507   6.081   5.755   8.409 -0.3512 -0.3356 -0.3539
   41CHL1  H26A 5508   6.001   5.832   8.396  1.2318  1.7501  1.4277
   41CHL1  H26B 5509   6.178   5.808   8.426 -1.1108  1.1882 -0.5455
   41CHL1  H26C 5510   6.085   5.700   8.313 -0.0709  1.3326 -1.3502
   41CHL1   C27 5511   6.175   5.577   8.557 -0.5486  0.3592 -0.6666
   41CHL1  H27A 5512   6.256   5.636   8.605 -1.3416  1.0698 -0.1499
   41CHL1  H27B 5513   6.152   5.493   8.626 -0.1883  1.3064  0.6512
   41CHL1  H27C 5514   6.216   5.522   8.470 -0.1602  1.0461 -0.9251
   42CHL1    C3 5515   5.710   4.707   9.980  0.0964  0.0971  0.4580
   42CHL1    H3 5516   5.721   4.817   9.970 -1.4490  0.2891  0.7432
   42CHL1    O3 5517   5.700   4.678  10.118 -0.6369 -0.1389 -0.6094
   42CHL1   H3' 5518   5.618   4.629  10.130 -1.2966  1.1228  0.2731
   42CHL1    C4 5519   5.579   4.673   9.914 -0.1922  0.1286  0.0389
   42CHL1   H4A 5520   5.568   4.564   9.933 -0.7628 -0.1225 -1.5799
   42CHL1   H4B 5521   5.498   4.734   9.960 -1.7268 -1.0296 -0.9711
   42CHL1    C5 5522   5.583   4.707   9.766  0.4751 -0.0149 -0.7824
   42CHL1    C6 5523   5.492   4.791   9.717  0.4234 -0.6040  0.1122
   42CHL1    H6 5524   5.414   4.836   9.780 -0.2748 -0.3977 -0.8757
   42CHL1    C7 5525   5.489   4.833   9.569 -0.2452 -0.1707  0.4921
   42CHL1   H7A 5526   5.384   4.845   9.535 -0.3602 -0.0146  0.8876
   42CHL1   H7B 5527   5.553   4.923   9.550  1.5142 -1.4052  0.3400
   42CHL1    C8 5528   5.564   4.737   9.479 -1.0057  0.0689 -0.6501
   42CHL1    H8 5529   5.509   4.641   9.466  0.5513 -1.0349  0.5580
   42CHL1   C14 5530   5.577   4.800   9.340  0.1790 -0.3111 -0.3943
   42CHL1   H14 5531   5.651   4.881   9.358  0.4962 -0.6228 -0.2853
   42CHL1   C15 5532   5.463   4.879   9.276  0.2117 -0.1716 -0.0229
   42CHL1  H15A 5533   5.365   4.826   9.286  0.0671 -0.2024 -1.4031
   42CHL1  H15B 5534   5.456   4.979   9.322  1.5952 -0.3672  0.6575
   42CHL1   C16 5535   5.496   4.877   9.125 -0.4875  0.0747 -0.0222
   42CHL1  H16A 5536   5.421   4.813   9.075 -0.7167 -0.0226  0.4366
   42CHL1  H16B 5537   5.496   4.978   9.078 -0.3965 -0.2322 -0.6825
   42CHL1   C17 5538   5.637   4.800   9.106  0.5717 -0.5005 -0.7191
   42CHL1   H17 5539   5.712   4.879   9.128  0.7837 -0.6501 -0.9026
   42CHL1   C13 5540   5.644   4.709   9.232 -0.1213  0.1139  0.5247
   42CHL1   C18 5541   5.557   4.580   9.208  0.6815 -0.2704 -0.1686
   42CHL1  H18A 5542   5.569   4.528   9.305 -1.3415  1.0837  0.8896
   42CHL1  H18B 5543   5.447   4.596   9.197  0.7120 -0.7483 -1.2893
   42CHL1  H18C 5544   5.585   4.513   9.124 -1.0299 -2.4331  0.8739
   42CHL1   C12 5545   5.781   4.666   9.272  0.3294 -0.4835 -0.1149
   42CHL1  H12A 5546   5.817   4.579   9.213 -2.0512 -0.4585 -1.7444
   42CHL1  H12B 5547   5.851   4.752   9.264 -2.8993  2.3497 -0.0891
   42CHL1   C11 5548   5.783   4.625   9.427 -0.1731 -0.2121 -0.1572
   42CHL1  H11A 5549   5.748   4.520   9.435 -1.6521  0.1765 -1.0759
   42CHL1  H11B 5550   5.887   4.638   9.465  0.4363 -0.2921 -1.7138
   42CHL1    C9 5551   5.703   4.707   9.537  0.5684  0.1578 -0.5060
   42CHL1    H9 5552   5.750   4.807   9.548  1.0664 -0.2703  1.8316
   42CHL1   C10 5553   5.698   4.647   9.685 -0.1956 -0.1874  0.5291
   42CHL1   C19 5554   5.665   4.501   9.666 -0.1773  1.1133  0.5845
   42CHL1  H19A 5555   5.593   4.485   9.583  1.3658  1.1134 -0.8171
   42CHL1  H19B 5556   5.758   4.443   9.650  0.3818  1.9872  0.6092
   42CHL1  H19C 5557   5.624   4.457   9.759  1.6426  1.1253  1.4345
   42CHL1    C1 5558   5.831   4.658   9.762 -0.1536  0.2689  0.1147
   42CHL1   H1A 5559   5.918   4.606   9.718  0.7028  0.6123  1.3353
   42CHL1   H1B 5560   5.863   4.764   9.754  1.8988 -0.1268  2.0901
   42CHL1    C2 5561   5.824   4.628   9.920 -0.1107 -0.4379 -0.0999
   42CHL1   H2A 5562   5.919   4.664   9.963 -0.5435  0.4286  0.1611
   42CHL1   H2B 5563   5.811   4.519   9.937 -0.7646  0.0813  3.5017
   42CHL1   C20 5564   5.668   4.738   8.966  0.0863  0.0736  1.0612
   42CHL1   H20 5565   5.750   4.664   8.977 -0.6951 -0.8405  0.9094
   42CHL1   C21 5566   5.729   4.856   8.885 -0.5149 -0.0493 -0.0759
   42CHL1  H21A 5567   5.797   4.905   8.958  0.0133 -3.9777  2.3161
   42CHL1  H21B 5568   5.651   4.930   8.858  0.9011  1.6846  0.3677
   42CHL1  H21C 5569   5.781   4.821   8.793 -0.8908 -0.3585 -0.1715
   42CHL1   C22 5570   5.541   4.676   8.898  0.2839 -0.1222  0.3889
   42CHL1  H22A 5571   5.475   4.613   8.961 -2.5857  1.8954 -0.4144
   42CHL1  H22B 5572   5.487   4.764   8.859  1.2500  1.1846  1.8454
   42CHL1   C23 5573   5.576   4.586   8.779  0.0409 -0.0565 -0.2270
   42CHL1  H23A 5574   5.650   4.642   8.718 -1.2461  2.2013  0.1658
   42CHL1  H23B 5575   5.619   4.492   8.819 -1.2731  0.1640  1.8303
   42CHL1   C24 5576   5.454   4.552   8.696  0.0015  0.6006  0.1835
   42CHL1  H24A 5577   5.387   4.491   8.761 -1.5381 -0.4098 -2.2332
   42CHL1  H24B 5578   5.396   4.645   8.676 -0.5673  0.4872  1.2114
   42CHL1   C25 5579   5.495   4.478   8.568  0.9363  0.0647  0.6523
   42CHL1   H25 5580   5.585   4.414   8.584  1.0444  0.0863  0.1566
   42CHL1   C26 5581   5.384   4.387   8.510  0.2983  0.9770 -0.8336
   42CHL1  H26A 5582   5.352   4.318   8.590  0.6577  1.6870 -0.0607
   42CHL1  H26B 5583   5.297   4.453   8.488  1.1996  2.8595  0.9093
   42CHL1  H26C 5584   5.418   4.337   8.417  2.4097  2.6036 -1.0190
   42CHL1   C27 5585   5.533   4.573   8.458 -0.0757 -0.1106  0.8937
   42CHL1  H27A 5586   5.450   4.642   8.432  0.4742 -0.3128 -1.6235
   42CHL1  H27B 5587   5.626   4.629   8.483  1.0174 -1.7912  0.7503
   42CHL1  H27C 5588   5.559   4.509   8.371 -0.3580  0.0642  0.6762
   43CHL1    C3 5589   6.128   5.233   9.877 -0.2713  0.6152 -0.0070
   43CHL1    H3 5590   6.022   5.266   9.879 -0.0022  1.4587  0.7769
   43CHL1    O3 5591   6.171   5.199  10.013  0.1982 -0.1764  0.0774
   43CHL1   H3' 5592   6.161   5.104  10.024 -2.4762 -0.6259 -4.0090
   43CHL1    C4 5593   6.135   5.097   9.811  0.1985  0.2961  0.8300
   43CHL1   H4A 5594   6.231   5.046   9.835 -0.3812 -2.5387 -2.1464
   43CHL1   H4B 5595   6.048   5.041   9.852  0.4547 -0.2551  0.6237
   43CHL1    C5 5596   6.112   5.103   9.659 -0.7839 -0.1415 -0.1771
   43CHL1    C6 5597   6.018   5.028   9.590 -0.3571 -0.7069  0.8148
   43CHL1    H6 5598   5.955   4.950   9.636  1.4640 -2.8716 -0.1150
   43CHL1    C7 5599   6.005   5.030   9.439  0.2604 -0.5260  0.4027
   43CHL1   H7A 5600   5.990   4.932   9.389 -0.1533 -0.3324  0.1452
   43CHL1   H7B 5601   5.917   5.092   9.413  1.3181  0.2799 -1.4635
   43CHL1    C8 5602   6.128   5.089   9.371 -0.6842 -0.7987  0.1425
   43CHL1    H8 5603   6.209   5.014   9.380 -1.8186 -1.9945  0.5567
   43CHL1   C14 5604   6.101   5.115   9.221 -0.4216 -0.1408 -0.1950
   43CHL1   H14 5605   6.011   5.180   9.216 -0.7069 -0.5916 -1.5128
   43CHL1   C15 5606   6.057   4.993   9.137  0.1946 -0.6388 -0.0071
   43CHL1  H15A 5607   6.140   4.920   9.146 -0.7063 -1.5814  0.8952
   43CHL1  H15B 5608   5.965   4.944   9.177  0.9470 -2.0647  0.0142
   43CHL1   C16 5609   6.066   5.042   8.991  0.9257  0.4550 -0.1828
   43CHL1  H16A 5610   6.116   4.968   8.926  0.8214 -0.4657  0.7568
   43CHL1  H16B 5611   5.964   5.056   8.948  1.3375 -0.5110 -1.5635
   43CHL1   C17 5612   6.151   5.184   8.996 -0.1045  0.8578  0.4813
   43CHL1   H17 5613   6.073   5.263   9.001  0.7120  1.6103  1.4229
   43CHL1   C13 5614   6.215   5.183   9.135 -0.4065 -0.3371 -0.3386
   43CHL1   C18 5615   6.346   5.097   9.138 -0.4477 -0.5095  0.4040
   43CHL1  H18A 5616   6.338   5.021   9.058  2.6417 -0.6290  0.0776
   43CHL1  H18B 5617   6.424   5.167   9.101 -1.7291 -0.3522 -2.2309
   43CHL1  H18C 5618   6.373   5.059   9.239  0.3971 -1.3041 -0.1045
   43CHL1   C12 5619   6.231   5.320   9.199  0.5276  0.1778 -0.1456
   43CHL1  H12A 5620   6.313   5.369   9.141 -0.2346 -0.4698 -1.8580
   43CHL1  H12B 5621   6.145   5.389   9.185 -1.6462 -2.1590  0.9508
   43CHL1   C11 5622   6.272   5.306   9.347  0.1121  0.6647 -0.8313
   43CHL1  H11A 5623   6.367   5.248   9.338 -0.6119 -1.2282  2.1320
   43CHL1  H11B 5624   6.289   5.406   9.393  1.2506 -1.5749  4.3514
   43CHL1    C9 5625   6.167   5.220   9.441 -0.5940 -0.5883 -0.2178
   43CHL1    H9 5626   6.082   5.292   9.440  1.2829  1.7871 -1.8251
   43CHL1   C10 5627   6.208   5.203   9.593 -0.0743 -0.5154  0.6509
   43CHL1   C19 5628   6.351   5.138   9.585  0.2847  0.1979 -0.0107
   43CHL1  H19A 5629   6.396   5.128   9.686 -0.3310 -0.4537  0.2084
   43CHL1  H19B 5630   6.348   5.035   9.545  0.2270  1.1187 -2.5302
   43CHL1  H19C 5631   6.421   5.197   9.521  1.1317 -0.0409  0.6759
   43CHL1    C1 5632   6.202   5.339   9.660  0.3125  0.9829 -0.3747
   43CHL1   H1A 5633   6.278   5.410   9.620  3.3345 -0.5655  2.1678
   43CHL1   H1B 5634   6.104   5.383   9.632  1.1015  1.4876 -2.5494
   43CHL1    C2 5635   6.219   5.331   9.804  0.2599  0.1817 -0.5557
   43CHL1   H2A 5636   6.223   5.426   9.862 -0.9093 -0.2488  0.2848
   43CHL1   H2B 5637   6.316   5.281   9.820 -0.7495 -1.8316 -0.4106
   43CHL1   C20 5638   6.240   5.216   8.874  0.1892  0.8387 -0.3633
   43CHL1   H20 5639   6.319   5.138   8.866 -1.0360 -0.4246 -0.4104
   43CHL1   C21 5640   6.304   5.354   8.891  0.1038  0.0601 -0.1076
   43CHL1  H21A 5641   6.383   5.351   8.969 -1.9080  0.9110  2.0726
   43CHL1  H21B 5642   6.225   5.428   8.915 -1.0588 -1.5116  1.1010
   43CHL1  H21C 5643   6.353   5.380   8.795  1.7402 -1.9062  0.1037
   43CHL1   C22 5644   6.158   5.216   8.740  0.1948 -0.1482 -1.1529
   43CHL1  H22A 5645   6.111   5.115   8.733  0.8427 -0.5330 -0.2059
   43CHL1  H22B 5646   6.082   5.297   8.733 -0.7011 -0.5207  2.2823
   43CHL1   C23 5647   6.241   5.215   8.610 -0.4166 -0.4653 -0.2876
   43CHL1  H23A 5648   6.291   5.314   8.604  1.6294 -1.4484 -0.0229
   43CHL1  H23B 5649   6.313   5.130   8.617 -0.8114 -0.7148  1.1512
   43CHL1   C24 5650   6.157   5.202   8.484  1.0219  0.4529  0.6109
   43CHL1  H24A 5651   6.111   5.102   8.475  2.4249 -0.1080 -0.5753
   43CHL1  H24B 5652   6.077   5.280   8.487 -0.6843 -1.2115  2.6588
   43CHL1   C25 5653   6.241   5.234   8.357  0.5319 -0.3644  0.3877
   43CHL1   H25 5654   6.286   5.335   8.366  0.1697 -0.2631  1.1884
   43CHL1   C26 5655   6.365   5.144   8.351 -0.3700 -1.0380 -0.1076
   43CHL1  H26A 5656   6.429   5.144   8.260 -0.8335  0.0750 -0.4488
   43CHL1  H26B 5657   6.430   5.176   8.435  0.6833 -2.0364 -0.5179
   43CHL1  H26C 5658   6.340   5.037   8.369 -1.0469 -1.1443 -1.5249
   43CHL1   C27 5659   6.154   5.224   8.228 -0.2593 -0.0006 -0.8665
   43CHL1  H27A 5660   6.098   5.128   8.226 -0.9465  0.3145  1.0902
   43CHL1  H27B 5661   6.080   5.306   8.218 -3.0754 -2.2107  0.6436
   43CHL1  H27C 5662   6.220   5.231   8.139  3.0114 -3.5433  0.9854
   44CHL1    C3 5663   6.446   5.825  10.022 -0.0994  0.1650 -0.2329
   44CHL1    H3 5664   6.555   5.811  10.037 -0.7080 -2.3954  2.8966
   44CHL1    O3 5665   6.400   5.848  10.153  0.6923  0.3250  0.0084
   44CHL1   H3' 5666   6.305   5.841  10.145  0.6847  1.2694 -1.0828
   44CHL1    C4 5667   6.424   5.955   9.941  0.1148 -0.4045 -0.2880
   44CHL1   H4A 5668   6.319   5.990   9.946 -0.4825 -2.1132 -0.0980
   44CHL1   H4B 5669   6.479   6.035   9.995  2.5639 -0.0098 -3.0866
   44CHL1    C5 5670   6.465   5.936   9.801  0.2075 -0.1644  0.3524
   44CHL1    C6 5671   6.553   6.018   9.748  0.7014 -0.2654 -0.8130
   44CHL1    H6 5672   6.595   6.094   9.816  1.0648  0.3889 -1.7504
   44CHL1    C7 5673   6.584   6.024   9.599  0.2672 -0.4950  0.3034
   44CHL1   H7A 5674   6.579   6.131   9.566 -0.9025 -0.8703 -0.8233
   44CHL1   H7B 5675   6.687   5.990   9.574  0.8244  1.4018 -0.2220
   44CHL1    C8 5676   6.479   5.948   9.518 -0.1170 -0.3259  0.5332
   44CHL1    H8 5677   6.383   6.004   9.530  0.3716  0.7420 -0.3385
   44CHL1   C14 5678   6.510   5.936   9.369  0.7766 -0.3994 -0.0971
   44CHL1   H14 5679   6.609   5.885   9.377  0.9807  0.1124  0.8883
   44CHL1   C15 5680   6.535   6.069   9.295  0.6426  0.3455  0.4520
   44CHL1  H15A 5681   6.468   6.147   9.337  1.3772  0.4964  1.3807
   44CHL1  H15B 5682   6.642   6.100   9.298  1.1147 -0.9772 -0.9761
   44CHL1   C16 5683   6.505   6.023   9.146 -0.1216  0.2453 -0.3882
   44CHL1  H16A 5684   6.424   6.087   9.105 -2.0925 -1.2689  0.9459
   44CHL1  H16B 5685   6.599   6.035   9.088  0.7732  3.2468  1.4129
   44CHL1   C17 5686   6.463   5.873   9.146 -0.1068  0.9614 -0.2173
   44CHL1   H17 5687   6.560   5.820   9.143 -0.7838 -0.3290 -0.0846
   44CHL1   C13 5688   6.410   5.850   9.285  0.2399  0.1549 -0.2781
   44CHL1   C18 5689   6.262   5.907   9.290 -0.0645  0.0761 -0.1829
   44CHL1  H18A 5690   6.264   6.015   9.262 -1.6255  0.2387  0.2660
   44CHL1  H18B 5691   6.191   5.858   9.220 -1.0910 -0.5884  1.2727
   44CHL1  H18C 5692   6.216   5.902   9.391  0.1663 -0.5648 -0.1047
   44CHL1   C12 5693   6.421   5.703   9.344  0.1613 -0.1828 -0.4662
   44CHL1  H12A 5694   6.356   5.631   9.290  0.1798 -0.0045 -0.7282
   44CHL1  H12B 5695   6.529   5.676   9.347  0.9677  2.6674 -0.9936
   44CHL1   C11 5696   6.373   5.710   9.492  0.1829  0.7332  0.0137
   44CHL1  H11A 5697   6.264   5.699   9.511  0.5768 -0.3091  1.9116
   44CHL1  H11B 5698   6.403   5.611   9.532 -0.3482  1.1450  1.5024
   44CHL1    C9 5699   6.450   5.816   9.577 -0.4747 -0.0724 -0.8831
   44CHL1    H9 5700   6.550   5.768   9.583 -0.0464  0.8643 -0.1967
   44CHL1   C10 5701   6.398   5.821   9.724  0.8030 -0.5908  0.1786
   44CHL1   C19 5702   6.243   5.836   9.722  0.5144 -0.2407  0.7161
   44CHL1  H19A 5703   6.208   5.923   9.662 -1.1599 -0.2960  1.5411
   44CHL1  H19B 5704   6.181   5.752   9.685  0.3104 -0.4241  1.4551
   44CHL1  H19C 5705   6.207   5.859   9.825  0.3460  1.5833  0.2867
   44CHL1    C1 5706   6.421   5.693   9.804  0.1281 -0.3594 -0.6333
   44CHL1   H1A 5707   6.361   5.617   9.750 -1.3309  0.3626 -0.0675
   44CHL1   H1B 5708   6.528   5.664   9.799  0.2099  0.0913 -1.8368
   44CHL1    C2 5709   6.389   5.701   9.956  0.2257  0.5586  0.7095
   44CHL1   H2A 5710   6.417   5.602   9.998 -1.0910  0.7944  2.2625
   44CHL1   H2B 5711   6.278   5.706   9.969  0.2440 -0.9101  1.6132
   44CHL1   C20 5712   6.390   5.837   9.019 -0.1828 -0.1966  0.3453
   44CHL1   H20 5713   6.291   5.887   9.019  0.9359  2.1551 -1.3686
   44CHL1   C21 5714   6.360   5.686   9.016 -0.6157 -0.0806  0.8310
   44CHL1  H21A 5715   6.343   5.651   8.912 -1.4011  1.4846  0.4034
   44CHL1  H21B 5716   6.278   5.650   9.083 -0.6935 -3.0439 -0.7275
   44CHL1  H21C 5717   6.453   5.640   9.054 -1.2970 -0.2558  2.3775
   44CHL1   C22 5718   6.471   5.873   8.886  0.8680 -0.0889 -0.4761
   44CHL1  H22A 5719   6.524   5.969   8.906  1.9566 -1.2341  2.8339
   44CHL1  H22B 5720   6.553   5.802   8.866 -0.1858 -2.1272  1.9160
   44CHL1   C23 5721   6.384   5.895   8.759 -0.0489 -0.6220  0.3693
   44CHL1  H23A 5722   6.364   5.797   8.711 -0.0167 -0.8212  0.7603
   44CHL1  H23B 5723   6.294   5.945   8.800  1.0649  1.6768  0.1896
   44CHL1   C24 5724   6.456   5.978   8.655  0.0171  0.3594 -0.1299
   44CHL1  H24A 5725   6.475   6.084   8.684 -2.3520  0.9697 -0.5375
   44CHL1  H24B 5726   6.551   5.934   8.617 -0.0878  1.4782 -1.8052
   44CHL1   C25 5727   6.357   5.994   8.528 -0.6387  0.3655 -0.3974
   44CHL1   H25 5728   6.309   5.894   8.527  0.4940 -0.1993  0.1771
   44CHL1   C26 5729   6.254   6.092   8.556  0.7213  0.3549  0.1050
   44CHL1  H26A 5730   6.211   6.068   8.656 -0.8086 -1.8157 -0.9881
   44CHL1  H26B 5731   6.289   6.197   8.556 -0.1154  0.6472  0.8779
   44CHL1  H26C 5732   6.165   6.087   8.490  0.2568 -0.4372  0.7774
   44CHL1   C27 5733   6.420   6.005   8.396  0.0621 -0.1849 -0.3000
   44CHL1  H27A 5734   6.482   5.918   8.366  0.7790  0.5410 -0.9742
   44CHL1  H27B 5735   6.338   6.014   8.323  0.1840 -1.1878 -0.5702
   44CHL1  H27C 5736   6.496   6.086   8.396  0.4187 -0.5118  0.1344
   45CHL1    C3 5737   3.210   4.799  10.287  0.7799  0.7781  0.1925
   45CHL1    H3 5738   3.316   4.769  10.274  0.2012 -0.4700 -2.1914
   45CHL1    O3 5739   3.178   4.779  10.423  0.0888 -0.6399  0.1357
   45CHL1   H3' 5740   3.082   4.777  10.428 -0.0668  0.3081 -1.7171
   45CHL1    C4 5741   3.204   4.948  10.249  0.0432 -0.2243 -0.1617
   45CHL1   H4A 5742   3.103   4.987  10.272  0.6632  1.0094  0.5597
   45CHL1   H4B 5743   3.281   5.002  10.308  0.7649  1.1043 -2.1997
   45CHL1    C5 5744   3.226   4.967  10.096 -0.2314 -0.2882 -0.6125
   45CHL1    C6 5745   3.321   5.045  10.048  0.5940 -1.0829  0.0855
   45CHL1    H6 5746   3.385   5.091  10.124 -1.8724 -0.6248  1.9939
   45CHL1    C7 5747   3.354   5.075   9.906  0.3797  0.7377 -1.4174
   45CHL1   H7A 5748   3.362   5.185   9.895  0.3569  1.0144  0.8546
   45CHL1   H7B 5749   3.460   5.041   9.895  0.0539 -0.9365  0.2253
   45CHL1    C8 5750   3.262   5.009   9.803  0.0781 -0.0450 -0.0597
   45CHL1    H8 5751   3.328   4.990   9.716 -1.4853 -1.2600 -1.0329
   45CHL1   C14 5752   3.159   5.100   9.739 -0.1236 -0.2901  0.7256
   45CHL1   H14 5753   3.090   5.130   9.821 -1.5542 -0.6204 -0.3135
   45CHL1   C15 5754   3.228   5.220   9.672  0.8258 -1.2465 -0.0470
   45CHL1  H15A 5755   3.211   5.319   9.721  2.8185 -0.7226 -0.3398
   45CHL1  H15B 5756   3.336   5.205   9.656  1.0899  0.7227 -0.2732
   45CHL1   C16 5757   3.156   5.243   9.540  0.0207 -0.1483 -0.5281
   45CHL1  H16A 5758   3.059   5.295   9.560 -0.2449 -1.2526  1.3089
   45CHL1  H16B 5759   3.213   5.309   9.472 -0.5561  0.1473 -0.7346
   45CHL1   C17 5760   3.118   5.102   9.483 -0.6236 -0.4553 -0.1641
   45CHL1   H17 5761   3.212   5.067   9.435 -1.5916 -0.1622 -2.3534
   45CHL1   C13 5762   3.079   5.019   9.616 -0.0893 -0.1980  0.1586
   45CHL1   C18 5763   2.927   5.028   9.652  0.0942 -0.3588  0.5628
   45CHL1  H18A 5764   2.863   4.950   9.605 -0.6694  0.8943 -0.5425
   45CHL1  H18B 5765   2.910   5.018   9.762 -0.5987  1.3770  0.6497
   45CHL1  H18C 5766   2.897   5.128   9.614  2.5776  0.7198  1.2468
   45CHL1   C12 5767   3.126   4.869   9.610 -0.3799  0.2143  0.9944
   45CHL1  H12A 5768   3.067   4.811   9.536  1.5718 -1.1686  0.4512
   45CHL1  H12B 5769   3.229   4.865   9.570 -0.1037 -1.4753  1.7743
   45CHL1   C11 5770   3.125   4.800   9.747 -0.4808  0.3129 -0.6592
   45CHL1  H11A 5771   3.020   4.779   9.777  0.3021 -3.0220  0.1392
   45CHL1  H11B 5772   3.175   4.701   9.741  1.1516  0.9640  1.2557
   45CHL1    C9 5773   3.205   4.879   9.850  0.3229 -0.5689  0.2869
   45CHL1    H9 5774   3.301   4.826   9.864 -0.1227 -2.0075 -1.6936
   45CHL1   C10 5775   3.144   4.880  10.000  0.4109 -0.3204 -0.4543
   45CHL1   C19 5776   2.999   4.925  10.011 -0.2737  0.3638 -0.4271
   45CHL1  H19A 5777   2.966   4.917  10.117  0.8805 -1.3199 -0.1585
   45CHL1  H19B 5778   2.987   5.030   9.974  0.0891  0.6360  0.2102
   45CHL1  H19C 5779   2.937   4.861   9.945  0.8838 -2.3163  0.9640
   45CHL1    C1 5780   3.155   4.734  10.049  0.3723  0.0239  0.5348
   45CHL1   H1A 5781   3.092   4.671   9.984 -0.8308  1.1313  0.5838
   45CHL1   H1B 5782   3.249   4.684  10.019 -0.4965 -0.7683 -0.9682
   45CHL1    C2 5783   3.119   4.701  10.194  0.2205 -0.5189  0.4633
   45CHL1   H2A 5784   3.143   4.599  10.231 -0.0446 -0.2877  1.3106
   45CHL1   H2B 5785   3.015   4.720  10.230  0.8218  1.6636  1.2433
   45CHL1   C20 5786   3.012   5.116   9.374 -0.2177  0.2660  0.1471
   45CHL1   H20 5787   2.918   5.160   9.411  0.0064  0.5638  0.3706
   45CHL1   C21 5788   2.986   4.969   9.327 -0.4107  0.0073 -0.1599
   45CHL1  H21A 5789   2.951   4.904   9.411 -2.5928  0.1252 -0.9214
   45CHL1  H21B 5790   3.076   4.927   9.278 -0.7326 -0.3763 -0.4370
   45CHL1  H21C 5791   2.906   4.969   9.250 -0.7656  1.8348  0.1763
   45CHL1   C22 5792   3.069   5.195   9.252  0.0072 -0.6919  0.1019
   45CHL1  H22A 5793   3.093   5.299   9.284 -0.2761 -0.5351 -0.1894
   45CHL1  H22B 5794   3.153   5.139   9.206  0.7082  0.1078  0.3812
   45CHL1   C23 5795   2.953   5.236   9.153 -0.1338  0.2540  0.4224
   45CHL1  H23A 5796   2.915   5.141   9.110 -0.4285  1.0651 -1.1631
   45CHL1  H23B 5797   2.870   5.279   9.213 -1.1045 -0.3067 -0.4947
   45CHL1   C24 5798   3.004   5.328   9.030 -0.4223  0.1459 -0.1248
   45CHL1  H24A 5799   3.020   5.432   9.066 -1.0504  0.4355 -0.6614
   45CHL1  H24B 5800   3.097   5.283   8.991 -0.0260 -0.0443  1.0071
   45CHL1   C25 5801   2.899   5.344   8.924  0.1261 -0.1062  0.0623
   45CHL1   H25 5802   2.856   5.244   8.904  2.4292 -0.8713 -1.5513
   45CHL1   C26 5803   2.783   5.437   8.951  0.3518 -0.5799  0.0098
   45CHL1  H26A 5804   2.820   5.541   8.937 -1.3522  0.1577  0.7611
   45CHL1  H26B 5805   2.703   5.415   8.877  0.2145 -2.0291  0.5671
   45CHL1  H26C 5806   2.738   5.430   9.052 -1.3958  3.8299 -0.2152
   45CHL1   C27 5807   2.956   5.383   8.781 -0.3254  0.1158  0.6492
   45CHL1  H27A 5808   3.057   5.343   8.756  0.5081 -0.3732  4.2374
   45CHL1  H27B 5809   2.883   5.350   8.704 -0.2869 -2.6311  1.6593
   45CHL1  H27C 5810   2.963   5.492   8.766 -1.2047  0.6536  3.5022
   46CHL1    C3 5811   0.581   0.781  10.034 -0.3589  0.0293  0.0181
   46CHL1    H3 5812   0.664   0.711  10.010 -1.6068 -0.5194 -3.1689
   46CHL1    O3 5813   0.595   0.792  10.175 -0.1961  0.0446 -0.6509
   46CHL1   H3' 5814   0.669   0.851  10.193  0.0527 -0.0606 -1.3157
   46CHL1    C4 5815   0.606   0.917   9.966  0.6397  0.4065 -0.0660
   46CHL1   H4A 5816   0.526   0.985  10.002 -0.1540 -0.6670  0.2554
   46CHL1   H4B 5817   0.702   0.956  10.006  0.6214 -0.9350  1.3959
   46CHL1    C5 5818   0.601   0.885   9.819 -0.4789 -0.0541  0.9495
   46CHL1    C6 5819   0.706   0.911   9.740 -0.0462  0.5638 -0.1611
   46CHL1    H6 5820   0.793   0.963   9.783  0.3933 -0.2994  0.0197
   46CHL1    C7 5821   0.698   0.890   9.590  0.5195 -0.4486  0.2451
   46CHL1   H7A 5822   0.763   0.966   9.542  0.6473  0.2221  1.4407
   46CHL1   H7B 5823   0.755   0.796   9.577 -0.7497 -1.2043  0.0207
   46CHL1    C8 5824   0.546   0.880   9.540 -0.1980  0.1421 -0.2240
   46CHL1    H8 5825   0.494   0.976   9.556 -1.4080 -0.3243 -1.1873
   46CHL1   C14 5826   0.553   0.823   9.394 -0.0325  0.6052 -0.1341
   46CHL1   H14 5827   0.608   0.726   9.399 -1.7705 -0.4949 -1.4033
   46CHL1   C15 5828   0.626   0.913   9.290  0.3248  0.4169  0.6248
   46CHL1  H15A 5829   0.597   1.019   9.308  1.6449  0.4507  2.8084
   46CHL1  H15B 5830   0.736   0.908   9.279  0.0609  0.2815 -3.5320
   46CHL1   C16 5831   0.582   0.854   9.158  0.4474  0.6710 -0.0118
   46CHL1  H16A 5832   0.537   0.943   9.109 -0.0736 -0.9368 -2.6714
   46CHL1  H16B 5833   0.653   0.801   9.091 -2.2156 -1.4865 -1.3548
   46CHL1   C17 5834   0.456   0.758   9.190  0.1798  0.3833 -0.9174
   46CHL1   H17 5835   0.496   0.656   9.207  0.8878  0.9068  0.7652
   46CHL1   C13 5836   0.417   0.793   9.334  0.4323 -0.0373  0.3991
   46CHL1   C18 5837   0.335   0.927   9.314 -0.3963  0.5998 -1.2261
   46CHL1  H18A 5838   0.227   0.905   9.322 -0.1125 -0.1140  1.5736
   46CHL1  H18B 5839   0.361   1.001   9.393  1.4631 -1.0057 -0.2313
   46CHL1  H18C 5840   0.345   0.986   9.221 -0.3460  3.2139  0.3374
   46CHL1   C12 5841   0.339   0.693   9.422  0.1987 -0.0696 -0.7358
   46CHL1  H12A 5842   0.239   0.684   9.375 -0.0846  0.0650 -0.1748
   46CHL1  H12B 5843   0.396   0.598   9.424  1.1940  0.5235  0.6441
   46CHL1   C11 5844   0.332   0.741   9.569  0.5883  0.1155 -0.7192
   46CHL1  H11A 5845   0.276   0.836   9.567  3.7873  2.2169 -4.5331
   46CHL1  H11B 5846   0.286   0.656   9.624 -0.2308 -1.1143 -3.1359
   46CHL1    C9 5847   0.476   0.777   9.631 -0.4091 -0.0949  0.0845
   46CHL1    H9 5848   0.531   0.682   9.618 -0.6864 -0.6642  2.6527
   46CHL1   C10 5849   0.473   0.818   9.775 -0.3340  0.7531  0.0751
   46CHL1   C19 5850   0.359   0.927   9.793 -0.4049 -0.8069  0.4714
   46CHL1  H19A 5851   0.372   1.005   9.715  2.4459 -1.9677 -0.3596
   46CHL1  H19B 5852   0.259   0.882   9.774 -0.8825 -0.0598  1.1441
   46CHL1  H19C 5853   0.365   0.981   9.890  4.0145 -1.5118  0.7846
   46CHL1    C1 5854   0.434   0.685   9.859 -0.6068  0.1508 -0.0438
   46CHL1   H1A 5855   0.337   0.643   9.825 -0.5419  0.8285 -1.0993
   46CHL1   H1B 5856   0.519   0.615   9.841 -0.4630  0.3572 -0.1785
   46CHL1    C2 5857   0.446   0.716  10.007  0.8174 -0.2908  0.4902
   46CHL1   H2A 5858   0.432   0.623  10.067 -0.9875  0.2337  0.9570
   46CHL1   H2B 5859   0.367   0.785  10.043 -0.1942 -1.3132  0.2781
   46CHL1   C20 5860   0.349   0.747   9.077 -0.1059 -0.1749 -0.6706
   46CHL1   H20 5861   0.279   0.833   9.076  0.1091  0.0128  0.3366
   46CHL1   C21 5862   0.259   0.625   9.109 -0.3056 -0.0930  0.2082
   46CHL1  H21A 5863   0.203   0.587   9.021  0.2999  0.4766 -0.4397
   46CHL1  H21B 5864   0.186   0.655   9.188 -0.4925  1.5797 -0.5420
   46CHL1  H21C 5865   0.311   0.530   9.130  0.0591  0.2948  1.1004
   46CHL1   C22 5866   0.409   0.744   8.933 -0.1987  0.5068 -0.2846
   46CHL1  H22A 5867   0.330   0.755   8.856  0.1017 -1.9254 -1.0315
   46CHL1  H22B 5868   0.475   0.833   8.929  2.2601 -1.2575 -0.8314
   46CHL1   C23 5869   0.491   0.627   8.894  0.0772  0.0322  1.0921
   46CHL1  H23A 5870   0.568   0.593   8.966  0.0678 -1.1520  0.5667
   46CHL1  H23B 5871   0.428   0.538   8.871  2.6000 -1.0955 -2.1563
   46CHL1   C24 5872   0.555   0.658   8.752 -0.2215 -0.6917 -0.7773
   46CHL1  H24A 5873   0.487   0.712   8.683  0.3022  0.5788 -0.3492
   46CHL1  H24B 5874   0.652   0.711   8.769 -0.4130 -0.3885 -0.6065
   46CHL1   C25 5875   0.596   0.522   8.690  0.0375 -0.0303  0.8128
   46CHL1   H25 5876   0.502   0.464   8.691 -0.5515  0.8967  1.5177
   46CHL1   C26 5877   0.641   0.544   8.550 -0.3560 -0.5268  0.1322
   46CHL1  H26A 5878   0.747   0.576   8.543 -0.7591  1.3037  1.4339
   46CHL1  H26B 5879   0.625   0.456   8.484 -0.4200 -0.4233  0.0083
   46CHL1  H26C 5880   0.582   0.621   8.495  0.1153 -0.7763 -0.7450
   46CHL1   C27 5881   0.704   0.448   8.769  0.6849  0.5523  0.1576
   46CHL1  H27A 5882   0.797   0.507   8.779  1.5300 -0.8210  0.7253
   46CHL1  H27B 5883   0.669   0.415   8.870  0.6641  0.8876  0.2603
   46CHL1  H27C 5884   0.732   0.353   8.718  0.2621  1.9434 -2.8730
   47CHL1    C3 5885   0.388   5.366   9.847  0.0565 -0.3132 -0.3238
   47CHL1    H3 5886   0.484   5.413   9.817  0.8213 -1.0369  0.9409
   47CHL1    O3 5887   0.359   5.408   9.977 -0.1375  0.6127 -0.0603
   47CHL1   H3' 5888   0.286   5.353  10.006  0.2230 -0.6836 -1.4758
   47CHL1    C4 5889   0.285   5.422   9.747 -0.4960  0.4512  0.0956
   47CHL1   H4A 5890   0.185   5.397   9.787 -0.7954 -1.1199 -1.5388
   47CHL1   H4B 5891   0.300   5.531   9.766  2.5596 -0.0328  1.0527
   47CHL1    C5 5892   0.306   5.393   9.605 -0.9185  0.1627  0.2796
   47CHL1    C6 5893   0.311   5.488   9.508 -0.6041  0.2908  0.5491
   47CHL1    H6 5894   0.295   5.590   9.547 -0.2812  0.8028 -0.6034
   47CHL1    C7 5895   0.351   5.469   9.366  0.0127 -0.0624 -0.4449
   47CHL1   H7A 5896   0.286   5.525   9.295 -0.8558  0.0459  0.4279
   47CHL1   H7B 5897   0.451   5.511   9.345  0.5069 -1.0281 -0.0995
   47CHL1    C8 5898   0.330   5.325   9.322 -0.5199 -0.2276 -0.2210
   47CHL1    H8 5899   0.220   5.309   9.316 -0.5512  0.5445 -2.2071
   47CHL1   C14 5900   0.394   5.305   9.188  0.5527  0.7588 -0.4504
   47CHL1   H14 5901   0.503   5.300   9.210  0.6573  0.9393 -0.9209
   47CHL1   C15 5902   0.372   5.411   9.081 -0.2890  0.3116 -0.1103
   47CHL1  H15A 5903   0.263   5.433   9.078 -0.2476  0.6187  0.3883
   47CHL1  H15B 5904   0.432   5.502   9.103  1.2381 -0.6583 -0.1543
   47CHL1   C16 5905   0.409   5.347   8.953 -0.0455  0.3129  0.0668
   47CHL1  H16A 5906   0.330   5.374   8.880 -1.1402  1.6374  1.6681
   47CHL1  H16B 5907   0.505   5.385   8.911 -0.4439  1.2692 -0.0101
   47CHL1   C17 5908   0.417   5.197   8.986 -0.0455 -0.2000  1.1312
   47CHL1   H17 5909   0.527   5.188   9.000  0.1580  0.7120  0.2033
   47CHL1   C13 5910   0.361   5.175   9.131 -0.1721 -0.0273 -0.0254
   47CHL1   C18 5911   0.202   5.151   9.108  0.1734 -0.0229  0.2597
   47CHL1  H18A 5912   0.150   5.099   9.191 -0.9873  0.5679 -0.0663
   47CHL1  H18B 5913   0.152   5.245   9.076  1.4494 -0.0183 -1.8475
   47CHL1  H18C 5914   0.189   5.078   9.026  0.3462  0.1204  0.1056
   47CHL1   C12 5915   0.422   5.065   9.223  0.4850 -0.3962 -0.3292
   47CHL1  H12A 5916   0.409   4.964   9.180 -0.5174 -1.1219  1.5270
   47CHL1  H12B 5917   0.531   5.077   9.212  0.0558  1.7355 -3.7403
   47CHL1   C11 5918   0.376   5.081   9.369 -0.6043 -0.7835 -0.3944
   47CHL1  H11A 5919   0.271   5.043   9.363 -1.1700  0.7923 -0.9113
   47CHL1  H11B 5920   0.432   5.014   9.438  1.0177 -0.8069 -1.6916
   47CHL1    C9 5921   0.395   5.230   9.423  0.1564 -0.1706  0.2893
   47CHL1    H9 5922   0.505   5.245   9.428 -0.1526  4.5734 -1.6884
   47CHL1   C10 5923   0.343   5.245   9.574  0.7307  0.1193  0.4893
   47CHL1   C19 5924   0.207   5.169   9.589  0.3959  0.3581  0.7057
   47CHL1  H19A 5925   0.230   5.060   9.589  1.8698  0.6322 -0.7977
   47CHL1  H19B 5926   0.141   5.194   9.675 -0.7290  1.0982 -0.3359
   47CHL1  H19C 5927   0.149   5.186   9.495 -1.5450  1.7261  2.0686
   47CHL1    C1 5928   0.441   5.187   9.681  0.2305  0.3512 -0.0601
   47CHL1   H1A 5929   0.440   5.078   9.660 -0.2459  0.6747 -1.9087
   47CHL1   H1B 5930   0.540   5.229   9.653  0.0966  0.2288 -0.7463
   47CHL1    C2 5931   0.413   5.215   9.831  0.4613  0.3354  0.0430
   47CHL1   H2A 5932   0.500   5.174   9.887  0.6032 -1.9763 -1.7190
   47CHL1   H2B 5933   0.322   5.160   9.861  0.0594  1.2223  0.4996
   47CHL1   C20 5934   0.387   5.099   8.869  0.1228  0.2968  0.4458
   47CHL1   H20 5935   0.277   5.085   8.855  0.2771  0.2282 -0.8617
   47CHL1   C21 5936   0.428   4.954   8.911 -0.1493 -0.8795  0.0861
   47CHL1  H21A 5937   0.535   4.950   8.943 -0.4553 -1.0425  1.1295
   47CHL1  H21B 5938   0.418   4.879   8.830  1.7010  1.0831 -2.1370
   47CHL1  H21C 5939   0.353   4.923   8.987  1.0148 -1.1804  1.1524
   47CHL1   C22 5940   0.455   5.142   8.737  0.5511 -0.3814 -0.2105
   47CHL1  H22A 5941   0.433   5.246   8.707 -0.2651 -0.5879 -0.3395
   47CHL1  H22B 5942   0.564   5.130   8.757  0.2933 -2.1717  0.2530
   47CHL1   C23 5943   0.426   5.057   8.613 -0.0702 -0.4584 -0.6151
   47CHL1  H23A 5944   0.467   4.954   8.614 -0.4936 -0.6657 -2.2900
   47CHL1  H23B 5945   0.316   5.051   8.602 -0.0486 -0.8883 -0.5988
   47CHL1   C24 5946   0.485   5.122   8.480  0.7547  0.0504 -0.4030
   47CHL1  H24A 5947   0.441   5.224   8.488  2.2301  0.7512 -0.8594
   47CHL1  H24B 5948   0.596   5.129   8.486  0.7850  0.1001 -0.9613
   47CHL1   C25 5949   0.456   5.063   8.346  0.1735 -0.5051 -0.0644
   47CHL1   H25 5950   0.350   5.033   8.336  0.0668 -0.2379  0.2528
   47CHL1   C26 5951   0.497   5.160   8.231  0.9418 -0.5366  0.0332
   47CHL1  H26A 5952   0.468   5.265   8.251  0.8819 -0.3792 -0.8548
   47CHL1  H26B 5953   0.467   5.123   8.131 -2.3443  2.5562 -0.3268
   47CHL1  H26C 5954   0.607   5.179   8.225  0.6563  0.9853 -1.1615
   47CHL1   C27 5955   0.544   4.939   8.322 -0.5040 -0.6191  0.4075
   47CHL1  H27A 5956   0.543   4.896   8.219 -1.4100  1.3842 -0.4695
   47CHL1  H27B 5957   0.645   4.971   8.352  0.1220 -1.4621 -0.7043
   47CHL1  H27C 5958   0.522   4.856   8.393 -3.0282 -0.8504 -0.5233
   48CHL1    C3 5959   0.478   5.899  10.107 -0.6385 -0.0771  0.4284
   48CHL1    H3 5960   0.510   6.005  10.123  1.0522 -0.3271 -0.9086
   48CHL1    O3 5961   0.437   5.831  10.229  0.1008 -0.3163  0.0577
   48CHL1   H3' 5962   0.443   5.738  10.210 -1.7713 -1.1229  2.7968
   48CHL1    C4 5963   0.361   5.899  10.002  1.0013  0.0258  0.0614
   48CHL1   H4A 5964   0.322   5.796   9.985  0.5172  0.3914 -1.1165
   48CHL1   H4B 5965   0.286   5.962  10.055  1.9396  1.2424 -0.0153
   48CHL1    C5 5966   0.393   5.950   9.867  0.0435  0.5593 -1.2040
   48CHL1    C6 5967   0.333   6.052   9.814  0.0177 -1.1983  0.5582
   48CHL1    H6 5968   0.258   6.113   9.867  0.3155 -0.5528  0.2476
   48CHL1    C7 5969   0.371   6.102   9.669 -0.2127  0.8735 -0.4054
   48CHL1   H7A 5970   0.278   6.139   9.620  0.4623  4.8415  1.0096
   48CHL1   H7B 5971   0.437   6.190   9.678 -0.5577  0.9798  1.4296
   48CHL1    C8 5972   0.461   6.000   9.595  0.9405 -0.0882  0.1049
   48CHL1    H8 5973   0.397   5.912   9.573 -0.5609  0.6356  1.3601
   48CHL1   C14 5974   0.524   6.065   9.468 -0.0507  0.6801  0.3051
   48CHL1   H14 5975   0.589   6.147   9.505  0.1296  2.0555 -2.7678
   48CHL1   C15 5976   0.431   6.124   9.368 -0.4109 -1.1026  0.2772
   48CHL1  H15A 5977   0.346   6.053   9.363  0.2389 -1.8810 -0.0426
   48CHL1  H15B 5978   0.393   6.223   9.400  1.8265  0.3796 -1.3821
   48CHL1   C16 5979   0.509   6.138   9.236  0.1585  0.1057 -0.6215
   48CHL1  H16A 5980   0.455   6.082   9.156  1.1583 -2.5736  0.4636
   48CHL1  H16B 5981   0.527   6.241   9.198  1.3953  0.5733  1.1162
   48CHL1   C17 5982   0.642   6.067   9.260  0.2362  0.1784  0.1187
   48CHL1   H17 5983   0.704   6.153   9.294 -1.0049  0.6374  1.3231
   48CHL1   C13 5984   0.614   5.968   9.383  0.6392  0.2898 -0.5657
   48CHL1   C18 5985   0.524   5.850   9.335  0.0332  0.0534 -0.0353
   48CHL1  H18A 5986   0.581   5.781   9.269 -0.6128  0.0474 -0.6018
   48CHL1  H18B 5987   0.485   5.797   9.424  1.2146  1.2610  1.2467
   48CHL1  H18C 5988   0.435   5.882   9.277  1.3010  0.4048 -1.8990
   48CHL1   C12 5989   0.731   5.921   9.472  0.7214  0.3994  0.0027
   48CHL1  H12A 5990   0.808   5.853   9.428 -1.5359 -1.5150 -1.2520
   48CHL1  H12B 5991   0.778   6.019   9.491 -1.7857  1.4348  1.3031
   48CHL1   C11 5992   0.679   5.854   9.601  0.0042  0.4089 -1.1248
   48CHL1  H11A 5993   0.637   5.759   9.563  3.5366 -0.9439 -2.0558
   48CHL1  H11B 5994   0.760   5.826   9.672 -0.1005  1.0298 -0.7497
   48CHL1    C9 5995   0.570   5.944   9.685  0.6666 -0.0251  0.0860
   48CHL1    H9 5996   0.634   6.031   9.712 -1.4747  1.5835  0.2879
   48CHL1   C10 5997   0.518   5.877   9.807 -0.1236 -0.2733 -0.2574
   48CHL1   C19 5998   0.474   5.731   9.765  0.0896  0.4134 -0.0753
   48CHL1  H19A 5999   0.421   5.673   9.843 -0.9537  1.6448  0.1553
   48CHL1  H19B 6000   0.415   5.737   9.672 -0.6865  2.5368  0.4947
   48CHL1  H19C 6001   0.564   5.671   9.740 -0.5881 -0.3110 -0.8138
   48CHL1    C1 6002   0.636   5.877   9.908 -0.2347 -0.2935  0.2902
   48CHL1   H1A 6003   0.712   5.811   9.861  0.8057  1.9170 -1.3044
   48CHL1   H1B 6004   0.676   5.978   9.929  0.9504 -0.9019  1.0321
   48CHL1    C2 6005   0.597   5.828  10.046  0.3167  0.7080  0.0300
   48CHL1   H2A 6006   0.690   5.842  10.106  1.9879 -1.1361 -1.9842
   48CHL1   H2B 6007   0.583   5.718  10.054  2.4290  0.3196 -1.0303
   48CHL1   C20 6008   0.700   5.991   9.138  0.1008  0.7938 -0.2183
   48CHL1   H20 6009   0.640   5.899   9.120  0.0035  1.0336 -1.1582
   48CHL1   C21 6010   0.839   5.933   9.173 -0.0661  0.2706 -0.4217
   48CHL1  H21A 6011   0.837   5.837   9.229  1.3347  0.6489  0.3313
   48CHL1  H21B 6012   0.903   5.998   9.236 -0.4268  0.8256 -0.6195
   48CHL1  H21C 6013   0.893   5.901   9.081  3.0009  0.3465  1.1891
   48CHL1   C22 6014   0.699   6.076   9.015  0.3079  0.0566 -0.3520
   48CHL1  H22A 6015   0.592   6.104   9.003  0.0380 -0.6266  0.3853
   48CHL1  H22B 6016   0.758   6.168   9.029  0.1180  0.3203 -1.2011
   48CHL1   C23 6017   0.741   6.029   8.875 -0.4297 -0.1371  0.4804
   48CHL1  H23A 6018   0.849   6.004   8.877 -0.9813 -2.9905 -0.3430
   48CHL1  H23B 6019   0.685   5.937   8.848  1.6364 -0.9987 -1.1195
   48CHL1   C24 6020   0.740   6.132   8.756 -0.5611  0.4157 -0.7493
   48CHL1  H24A 6021   0.793   6.221   8.796 -0.5460  0.1828 -0.2359
   48CHL1  H24B 6022   0.781   6.091   8.661 -0.4278  0.9130 -0.9052
   48CHL1   C25 6023   0.596   6.166   8.714 -0.0493  0.3542 -0.1867
   48CHL1   H25 6024   0.524   6.162   8.799  1.5193  0.4219  1.1864
   48CHL1   C26 6025   0.599   6.308   8.648  0.5810 -1.1464  0.0429
   48CHL1  H26A 6026   0.641   6.386   8.715 -0.8353 -0.6642  0.4061
   48CHL1  H26B 6027   0.652   6.313   8.550  0.6419 -0.4710  0.1070
   48CHL1  H26C 6028   0.494   6.339   8.627  0.5508 -0.3187  1.2849
   48CHL1   C27 6029   0.544   6.058   8.615 -0.4666 -0.6599 -0.6795
   48CHL1  H27A 6030   0.451   6.086   8.560 -0.4322  1.2006  0.1064
   48CHL1  H27B 6031   0.624   6.029   8.544 -0.4859  1.6365 -1.7457
   48CHL1  H27C 6032   0.518   5.963   8.667 -0.4172 -0.0665  0.4558
   49CHL1    C3 6033   6.335   1.924  10.003  0.3275 -0.7252 -0.9563
   49CHL1    H3 6034   6.296   1.820  10.008  1.0289 -0.9730 -0.3259
   49CHL1    O3 6035   6.333   1.975  10.141 -0.9792 -0.0239 -0.1369
   49CHL1   H3' 6036   6.397   2.046  10.151 -2.3846  1.2434  0.2751
   49CHL1    C4 6037   6.477   1.914   9.943 -0.2665 -0.6349 -0.6767
   49CHL1   H4A 6038   6.526   2.011   9.968  3.5049 -1.7067 -2.9620
   49CHL1   H4B 6039   6.536   1.832   9.989  2.1401  1.2421 -0.2073
   49CHL1    C5 6040   6.464   1.886   9.795  0.5346  0.3043  0.7548
   49CHL1    C6 6041   6.518   1.775   9.743 -0.0895 -0.1992  0.1864
   49CHL1    H6 6042   6.564   1.710   9.819 -2.0780 -0.8445  0.8953
   49CHL1    C7 6043   6.512   1.729   9.599 -0.1075 -0.3226 -0.5046
   49CHL1   H7A 6044   6.607   1.684   9.564 -0.5210 -1.0457 -0.7340
   49CHL1   H7B 6045   6.431   1.655   9.582 -0.3342  0.1558 -1.6035
   49CHL1    C8 6046   6.486   1.851   9.498  0.0193  0.4396 -0.3787
   49CHL1    H8 6047   6.578   1.914   9.505  0.4047 -0.1754  0.3199
   49CHL1   C14 6048   6.445   1.805   9.363  0.6035 -0.3343  0.0556
   49CHL1   H14 6049   6.358   1.740   9.387 -0.1860 -0.2497 -2.3499
   49CHL1   C15 6050   6.539   1.705   9.290 -0.5472  0.2570  0.0416
   49CHL1  H15A 6051   6.646   1.736   9.294 -0.5677  0.7975 -2.0022
   49CHL1  H15B 6052   6.534   1.605   9.337 -3.4566 -0.2105 -1.0621
   49CHL1   C16 6053   6.474   1.703   9.152 -0.4936 -0.5521 -0.2407
   49CHL1  H16A 6054   6.561   1.703   9.083  0.5311 -5.3934  0.6694
   49CHL1  H16B 6055   6.415   1.609   9.145 -1.3238 -0.1232  0.7664
   49CHL1   C17 6056   6.377   1.816   9.135  0.1655  0.7743  0.0182
   49CHL1   H17 6057   6.283   1.762   9.157 -0.3317  1.8624  0.6400
   49CHL1   C13 6058   6.395   1.911   9.257 -0.1341  0.8767  0.4688
   49CHL1   C18 6059   6.514   2.001   9.230 -0.1255  0.2587  0.1807
   49CHL1  H18A 6060   6.560   2.054   9.316  0.7032  2.0304 -1.2997
   49CHL1  H18B 6061   6.592   1.944   9.176  0.8336  1.9072 -0.2064
   49CHL1  H18C 6062   6.488   2.076   9.153 -0.7757 -0.7245 -0.5803
   49CHL1   C12 6063   6.273   1.978   9.318 -0.2606  0.1241 -0.3991
   49CHL1  H12A 6064   6.244   2.065   9.256  0.1549 -1.3612 -2.8103
   49CHL1  H12B 6065   6.193   1.901   9.318  0.2964 -0.5027  1.6281
   49CHL1   C11 6066   6.303   2.032   9.455  0.4192  0.1522 -0.3501
   49CHL1  H11A 6067   6.389   2.102   9.439 -1.1251  2.0938 -0.5311
   49CHL1  H11B 6068   6.218   2.087   9.501  0.9968 -1.5516  3.0896
   49CHL1    C9 6069   6.360   1.928   9.550  0.0087 -0.4430 -0.6817
   49CHL1    H9 6070   6.276   1.856   9.552  0.8690 -1.6124 -2.8230
   49CHL1   C10 6071   6.380   1.971   9.699 -0.0869 -0.9118  0.8263
   49CHL1   C19 6072   6.453   2.107   9.696  0.2077  0.3243 -0.0098
   49CHL1  H19A 6073   6.394   2.181   9.638  0.9818 -0.2084 -1.5373
   49CHL1  H19B 6074   6.470   2.144   9.799  0.0065 -0.1140  0.1826
   49CHL1  H19C 6075   6.555   2.095   9.654  0.6714  0.2424  1.1036
   49CHL1    C1 6076   6.239   1.989   9.774  0.0127  0.2958 -0.7579
   49CHL1   H1A 6077   6.183   2.076   9.734 -1.3171 -0.5610 -0.8648
   49CHL1   H1B 6078   6.187   1.891   9.765  0.9230 -0.1988 -0.7789
   49CHL1    C2 6079   6.247   2.027   9.928 -0.0154 -0.1057 -0.6450
   49CHL1   H2A 6080   6.145   2.036   9.969  0.2391 -0.7595  0.1628
   49CHL1   H2B 6081   6.300   2.124   9.934  2.2362 -1.2028 -1.3579
   49CHL1   C20 6082   6.357   1.861   8.993  0.3002 -0.2609  1.0389
   49CHL1   H20 6083   6.448   1.911   8.953  0.2466 -0.5900  0.4984
   49CHL1   C21 6084   6.255   1.977   8.983 -0.1567  0.7822 -0.4851
   49CHL1  H21A 6085   6.242   2.019   8.881  1.6408 -0.3337 -1.2063
   49CHL1  H21B 6086   6.280   2.058   9.055  0.0849  2.0591 -1.9480
   49CHL1  H21C 6087   6.152   1.942   9.005  1.2372 -1.9631  2.4733
   49CHL1   C22 6088   6.320   1.749   8.891  0.2893  0.3201  0.2226
   49CHL1  H22A 6089   6.384   1.658   8.895 -1.9598 -1.3525 -0.0483
   49CHL1  H22B 6090   6.217   1.710   8.908  0.0686  0.4974 -0.6223
   49CHL1   C23 6091   6.305   1.807   8.748  0.5739 -0.3521 -0.5796
   49CHL1  H23A 6092   6.208   1.860   8.739  0.6251  0.0631  0.9411
   49CHL1  H23B 6093   6.387   1.879   8.724  1.5871 -0.4823  2.1477
   49CHL1   C24 6094   6.313   1.690   8.653 -0.0472 -0.8862  0.0124
   49CHL1  H24A 6095   6.418   1.655   8.647  0.3747  0.5140 -1.3531
   49CHL1  H24B 6096   6.255   1.605   8.696 -1.8562  1.5383  2.7765
   49CHL1   C25 6097   6.282   1.736   8.508 -0.2171  0.4110  0.9280
   49CHL1   H25 6098   6.352   1.821   8.493  0.5159 -0.3086  0.1789
   49CHL1   C26 6099   6.317   1.613   8.422  0.0278  0.3231  0.3495
   49CHL1  H26A 6100   6.329   1.638   8.314 -0.7020  0.1566  0.2243
   49CHL1  H26B 6101   6.410   1.563   8.457 -1.7001 -3.2099  0.3917
   49CHL1  H26C 6102   6.239   1.534   8.424 -2.0407  2.0452 -2.7783
   49CHL1   C27 6103   6.147   1.787   8.482 -0.6353  0.7262 -0.7902
   49CHL1  H27A 6104   6.068   1.710   8.493  1.3164 -1.6360 -2.2986
   49CHL1  H27B 6105   6.116   1.879   8.535 -2.3646 -0.5599  0.5346
   49CHL1  H27C 6106   6.136   1.826   8.379 -0.9088 -1.5258 -1.6611
   50CHL1    C3 6107   3.019   2.269  10.126 -0.5351 -0.2418  0.3558
   50CHL1    H3 6108   3.005   2.161  10.103 -2.0451  0.4379 -2.3420
   50CHL1    O3 6109   3.063   2.303  10.257 -0.0024  0.3127  0.3620
   50CHL1   H3' 6110   3.023   2.389  10.274  1.1122  0.4148  2.9488
   50CHL1    C4 6111   3.123   2.341  10.040  0.4640  0.0480  0.2133
   50CHL1   H4A 6112   3.125   2.449  10.066 -0.1913  0.6396 -1.9384
   50CHL1   H4B 6113   3.221   2.294  10.059 -0.6735 -2.1424  0.9771
   50CHL1    C5 6114   3.086   2.351   9.889  0.1532  0.1680 -0.2736
   50CHL1    C6 6115   3.183   2.306   9.807  0.1163  0.4152 -0.0717
   50CHL1    H6 6116   3.281   2.269   9.842 -0.4228 -0.2469  0.7834
   50CHL1    C7 6117   3.174   2.287   9.661  0.1174  1.0351  0.0295
   50CHL1   H7A 6118   3.260   2.335   9.610 -0.5671  1.0181 -1.1670
   50CHL1   H7B 6119   3.177   2.183   9.621 -0.1004  2.1578 -3.1907
   50CHL1    C8 6120   3.038   2.356   9.611  0.6814  0.6491 -0.7314
   50CHL1    H8 6121   3.055   2.464   9.597 -0.8899  0.9244 -0.6319
   50CHL1   C14 6122   2.995   2.290   9.474  0.2922 -0.0423  0.0460
   50CHL1   H14 6123   2.970   2.183   9.487  2.7275 -0.8377 -1.3818
   50CHL1   C15 6124   3.097   2.281   9.360 -0.1760 -0.3397 -0.2419
   50CHL1  H15A 6125   3.164   2.368   9.347  2.1906 -1.4927  2.9431
   50CHL1  H15B 6126   3.171   2.198   9.355 -0.5236 -0.7157  0.5954
   50CHL1   C16 6127   3.014   2.260   9.233 -0.8794 -0.2423 -0.1725
   50CHL1  H16A 6128   3.055   2.335   9.164  0.2828 -0.5083  0.2162
   50CHL1  H16B 6129   3.035   2.162   9.185  0.0450  0.0752 -0.4237
   50CHL1   C17 6130   2.866   2.267   9.274  0.1554  0.6548 -0.0549
   50CHL1   H17 6131   2.840   2.163   9.304  0.4713  1.2571  2.4844
   50CHL1   C13 6132   2.867   2.345   9.406 -0.6554 -0.0857  0.0186
   50CHL1   C18 6133   2.896   2.493   9.366  0.5011 -1.1046  0.6836
   50CHL1  H18A 6134   2.810   2.537   9.313 -0.4565 -1.2928  2.0312
   50CHL1  H18B 6135   2.908   2.553   9.458 -1.7316  2.7056 -1.2876
   50CHL1  H18C 6136   2.982   2.521   9.301 -1.1623  2.8656 -0.0552
   50CHL1   C12 6137   2.747   2.326   9.507  0.5993 -0.1945 -0.2606
   50CHL1  H12A 6138   2.649   2.371   9.480 -0.5958 -2.6393 -0.3130
   50CHL1  H12B 6139   2.733   2.217   9.521  0.1115  0.0982  1.8100
   50CHL1   C11 6140   2.787   2.386   9.645 -0.5343  0.0991 -0.7399
   50CHL1  H11A 6141   2.795   2.495   9.629  1.3367  0.3058  1.1880
   50CHL1  H11B 6142   2.703   2.366   9.715  0.2477 -1.4998 -0.2094
   50CHL1    C9 6143   2.921   2.339   9.712  0.5976  0.4113  0.4626
   50CHL1    H9 6144   2.899   2.230   9.718 -0.6254  0.5540 -0.9002
   50CHL1   C10 6145   2.941   2.390   9.854 -0.1468  0.5195 -0.6250
   50CHL1   C19 6146   2.911   2.544   9.865 -0.1596  0.2413 -0.0020
   50CHL1  H19A 6147   2.952   2.587   9.958 -0.0623  2.0758 -0.8541
   50CHL1  H19B 6148   2.961   2.593   9.779  1.0708  4.1368  2.7121
   50CHL1  H19C 6149   2.801   2.559   9.861  0.0454  2.6173  1.5105
   50CHL1    C1 6150   2.845   2.316   9.948  0.1566 -0.2999  0.0534
   50CHL1   H1A 6151   2.740   2.349   9.932 -0.0352  0.0106  1.7904
   50CHL1   H1B 6152   2.845   2.208   9.923 -0.6877 -0.5253  0.9611
   50CHL1    C2 6153   2.880   2.330  10.102  0.0962  0.3675 -1.4134
   50CHL1   H2A 6154   2.809   2.282  10.173  0.6049 -0.0016 -1.1462
   50CHL1   H2B 6155   2.893   2.434  10.139  1.8340 -0.9489  2.1458
   50CHL1   C20 6156   2.778   2.314   9.152  0.1696 -0.1812  0.5973
   50CHL1   H20 6157   2.809   2.416   9.119  0.6766 -0.3330  0.5854
   50CHL1   C21 6158   2.631   2.330   9.201 -0.1567  0.0974 -0.6541
   50CHL1  H21A 6159   2.564   2.331   9.112 -0.5032 -1.4935 -0.4368
   50CHL1  H21B 6160   2.628   2.420   9.267  0.3885 -0.4317  0.1148
   50CHL1  H21C 6161   2.608   2.242   9.265 -1.1388  0.5449 -0.3714
   50CHL1   C22 6162   2.780   2.209   9.038  0.2811  0.2729  0.6368
   50CHL1  H22A 6163   2.880   2.161   9.034  0.6945  1.1907 -1.6248
   50CHL1  H22B 6164   2.697   2.136   9.052 -1.4474  1.9894 -0.1305
   50CHL1   C23 6165   2.748   2.266   8.897 -0.1721  0.3779  0.1660
   50CHL1  H23A 6166   2.706   2.186   8.832 -0.3177  1.7136 -1.4555
   50CHL1  H23B 6167   2.665   2.340   8.907 -0.5868 -0.2474  1.6137
   50CHL1   C24 6168   2.871   2.334   8.834  0.0104 -0.6441  0.3039
   50CHL1  H24A 6169   2.915   2.413   8.898  0.9638  0.2615 -1.4006
   50CHL1  H24B 6170   2.957   2.269   8.805  2.6893  2.3416  0.9803
   50CHL1   C25 6171   2.840   2.422   8.706 -0.2723 -0.0284 -0.2245
   50CHL1   H25 6172   2.938   2.450   8.660 -1.0635  2.3202 -0.6041
   50CHL1   C26 6173   2.756   2.348   8.602  0.0895  0.0596  0.4258
   50CHL1  H26A 6174   2.753   2.407   8.508 -0.4405 -0.3352  0.1887
   50CHL1  H26B 6175   2.801   2.248   8.580  0.6083 -0.4497  3.3538
   50CHL1  H26C 6176   2.651   2.329   8.631  0.0812 -1.0867 -0.2875
   50CHL1   C27 6177   2.772   2.545   8.761  0.1422  0.2170  0.9054
   50CHL1  H27A 6178   2.786   2.630   8.691 -2.2871 -0.9827 -1.2135
   50CHL1  H27B 6179   2.662   2.539   8.777 -0.0706  0.8279 -0.2186
   50CHL1  H27C 6180   2.823   2.572   8.856  1.6761 -0.0498  0.1926
   51CHL1    C3 6181   3.132   5.440  10.278  0.2613 -0.8210  0.0405
   51CHL1    H3 6182   3.198   5.519  10.235  2.1219 -1.7986  0.9559
   51CHL1    O3 6183   3.171   5.398  10.402 -0.2435 -0.1674 -0.7827
   51CHL1   H3' 6184   3.092   5.360  10.442 -1.4218  2.7148 -0.1050
   51CHL1    C4 6185   2.989   5.495  10.292 -0.1776 -0.2882  0.9198
   51CHL1   H4A 6186   2.923   5.420  10.341 -0.3179 -0.6793  0.1366
   51CHL1   H4B 6187   2.986   5.581  10.363  0.0409  0.0148  0.5681
   51CHL1    C5 6188   2.924   5.523  10.156 -0.4398  0.3518 -1.2894
   51CHL1    C6 6189   2.888   5.651  10.134 -0.1018 -0.1730 -0.1920
   51CHL1    H6 6190   2.896   5.726  10.213 -1.6044 -1.3023  1.1155
   51CHL1    C7 6191   2.839   5.697  10.006  0.8242 -0.5048  0.3473
   51CHL1   H7A 6192   2.759   5.774  10.018  0.3376 -0.6097 -1.8285
   51CHL1   H7B 6193   2.925   5.741   9.951  0.3289  0.0197 -0.0186
   51CHL1    C8 6194   2.786   5.570   9.923  0.1276  0.2145 -0.0411
   51CHL1    H8 6195   2.697   5.525   9.971  1.5240 -3.7312 -0.7178
   51CHL1   C14 6196   2.755   5.612   9.782  1.0848  0.6540 -0.3923
   51CHL1   H14 6197   2.854   5.641   9.742  1.5992  1.6581  1.4884
   51CHL1   C15 6198   2.673   5.743   9.778  0.1936  0.0034 -0.2430
   51CHL1  H15A 6199   2.579   5.723   9.833 -0.7775  0.9884 -1.4895
   51CHL1  H15B 6200   2.722   5.836   9.814  2.4178 -0.7071 -1.2356
   51CHL1   C16 6201   2.639   5.744   9.625 -0.1964 -0.6648  0.0343
   51CHL1  H16A 6202   2.533   5.774   9.613 -0.0954 -0.4150 -0.2334
   51CHL1  H16B 6203   2.703   5.826   9.587  0.4023 -0.9720  0.3558
   51CHL1   C17 6204   2.669   5.600   9.565 -0.2610 -0.5358 -0.7112
   51CHL1   H17 6205   2.774   5.616   9.531 -0.2358  1.2704  0.0979
   51CHL1   C13 6206   2.695   5.510   9.691 -0.3717 -0.1375  0.3721
   51CHL1   C18 6207   2.557   5.462   9.741 -0.7317  0.6564 -0.2155
   51CHL1  H18A 6208   2.558   5.410   9.839 -0.0583  0.4429 -0.3304
   51CHL1  H18B 6209   2.485   5.547   9.741 -1.7809 -0.1529  1.9073
   51CHL1  H18C 6210   2.526   5.383   9.670  1.9402 -0.7309  0.0411
   51CHL1   C12 6211   2.795   5.397   9.680 -0.9126  0.2751 -0.3669
   51CHL1  H12A 6212   2.763   5.306   9.625  1.6392 -0.4631 -0.8031
   51CHL1  H12B 6213   2.884   5.436   9.624 -0.9568 -1.6490 -1.8675
   51CHL1   C11 6214   2.847   5.343   9.815  0.2683 -0.2695 -0.3564
   51CHL1  H11A 6215   2.771   5.268   9.845  0.2998  0.0245  0.4680
   51CHL1  H11B 6216   2.937   5.280   9.799 -0.5703 -1.2356 -1.4766
   51CHL1    C9 6217   2.889   5.458   9.913 -0.2380 -0.6417 -1.0709
   51CHL1    H9 6218   2.978   5.509   9.869 -1.1911 -1.5890 -4.3461
   51CHL1   C10 6219   2.930   5.407  10.053  0.3185 -0.0566  0.5914
   51CHL1   C19 6220   2.822   5.296  10.092 -0.8905  0.0511 -0.5127
   51CHL1  H19A 6221   2.723   5.324  10.052 -0.8570  0.7851 -0.0881
   51CHL1  H19B 6222   2.842   5.191  10.060 -2.5591 -0.3037 -0.4702
   51CHL1  H19C 6223   2.814   5.294  10.203  3.7409 -0.0856  0.0101
   51CHL1    C1 6224   3.076   5.345  10.046 -0.1672  0.3826 -0.1407
   51CHL1   H1A 6225   3.085   5.257   9.979 -0.2085 -0.2035  0.6096
   51CHL1   H1B 6226   3.146   5.419  10.001  1.2919  0.1216  1.5755
   51CHL1    C2 6227   3.133   5.316  10.187 -0.0834  0.3817 -0.1664
   51CHL1   H2A 6228   3.235   5.271  10.183  0.2228  1.1219 -1.2766
   51CHL1   H2B 6229   3.066   5.236  10.224  1.2787 -0.7107  0.0071
   51CHL1   C20 6230   2.582   5.555   9.448 -0.3101  0.5976  0.0024
   51CHL1   H20 6231   2.482   5.532   9.489  0.2073  0.6519  1.3320
   51CHL1   C21 6232   2.645   5.424   9.392  0.8145  0.3815 -0.3743
   51CHL1  H21A 6233   2.737   5.434   9.331 -0.3500  0.8332 -2.1229
   51CHL1  H21B 6234   2.572   5.377   9.322 -0.0106 -1.3550  1.5328
   51CHL1  H21C 6235   2.652   5.346   9.471 -0.5645  1.2299  0.6242
   51CHL1   C22 6236   2.551   5.651   9.335 -0.1511 -0.3375  0.0387
   51CHL1  H22A 6237   2.511   5.742   9.384  1.6988  0.4183  0.2132
   51CHL1  H22B 6238   2.644   5.684   9.284 -0.2518 -0.7869 -0.4489
   51CHL1   C23 6239   2.444   5.602   9.231  0.1266 -0.8608  0.3665
   51CHL1  H23A 6240   2.491   5.509   9.193  0.3364 -0.8626  0.6324
   51CHL1  H23B 6241   2.348   5.574   9.280 -0.6910  2.3478  0.8886
   51CHL1   C24 6242   2.425   5.713   9.127  0.8064 -0.0597  0.2407
   51CHL1  H24A 6243   2.365   5.793   9.175  0.5350  0.7734 -1.4224
   51CHL1  H24B 6244   2.521   5.758   9.097  0.4334  1.3095  1.0379
   51CHL1   C25 6245   2.352   5.673   8.988  0.0768  0.0173 -1.1366
   51CHL1   H25 6246   2.343   5.770   8.935  0.5771  0.3337 -0.6505
   51CHL1   C26 6247   2.439   5.595   8.891  0.0895  0.1070 -0.1843
   51CHL1  H26A 6248   2.491   5.526   8.961  2.1340  2.0204  0.3207
   51CHL1  H26B 6249   2.381   5.551   8.807  1.6953  0.5967 -1.6330
   51CHL1  H26C 6250   2.515   5.665   8.849  1.6695 -0.1199  2.1088
   51CHL1   C27 6251   2.216   5.618   9.021  0.2895  0.5856 -0.3100
   51CHL1  H27A 6252   2.161   5.672   9.101 -0.7640  1.1071 -1.3551
   51CHL1  H27B 6253   2.156   5.622   8.928  0.8565  1.0201 -0.6631
   51CHL1  H27C 6254   2.223   5.508   9.037 -2.9585  0.0545 -1.7298
   52CHL1    C3 6255   0.002   4.825   9.974 -0.6541 -0.2095 -0.0650
   52CHL1    H3 6256   0.059   4.919   9.960  1.4563 -1.2262  1.2134
   52CHL1    O3 6257  -0.017   4.804  10.112  0.2941 -0.4444 -0.1691
   52CHL1   H3' 6258  -0.060   4.718  10.114 -1.0778  0.0378 -3.2714
   52CHL1    C4 6259  -0.136   4.817   9.911 -0.7008  0.5179 -0.9172
   52CHL1   H4A 6260  -0.186   4.724   9.944 -1.2709  1.2554  0.3938
   52CHL1   H4B 6261  -0.203   4.897   9.948  1.3901  2.0193 -0.1428
   52CHL1    C5 6262  -0.132   4.832   9.759  0.6017 -0.0117 -0.0776
   52CHL1    C6 6263  -0.215   4.910   9.686 -0.1754  0.2204 -0.4279
   52CHL1    H6 6264  -0.283   4.969   9.749  0.8935  1.5327 -0.4513
   52CHL1    C7 6265  -0.215   4.926   9.541  0.1938 -0.7828  0.2605
   52CHL1   H7A 6266  -0.316   4.920   9.494 -0.8557  1.8016  1.9795
   52CHL1   H7B 6267  -0.168   5.023   9.518 -1.4704  0.2309  0.9456
   52CHL1    C8 6268  -0.132   4.809   9.477  0.0177 -0.5536  0.0345
   52CHL1    H8 6269  -0.193   4.716   9.479 -0.5673 -0.2763 -2.3253
   52CHL1   C14 6270  -0.105   4.843   9.323 -0.3011  0.7150  0.6110
   52CHL1   H14 6271  -0.036   4.930   9.316 -0.3132  0.5867 -1.6841
   52CHL1   C15 6272  -0.220   4.890   9.237 -0.3965 -0.0780  0.3317
   52CHL1  H15A 6273  -0.316   4.835   9.251  0.5701 -1.8287  0.3998
   52CHL1  H15B 6274  -0.250   4.994   9.261  0.2756 -0.0515  1.0842
   52CHL1   C16 6275  -0.165   4.870   9.090  0.0661  0.2981  0.4754
   52CHL1  H16A 6276  -0.232   4.809   9.025  0.9004  0.3462 -0.4398
   52CHL1  H16B 6277  -0.147   4.970   9.045  0.5315 -0.2584 -0.6101
   52CHL1   C17 6278  -0.030   4.792   9.103 -0.2205 -0.1842  0.0679
   52CHL1   H17 6279   0.049   4.870   9.105  0.6231 -1.0381  0.4912
   52CHL1   C13 6280  -0.035   4.733   9.245  0.4350  0.7896 -0.6486
   52CHL1   C18 6281  -0.119   4.603   9.235 -0.2238  0.4558  1.0992
   52CHL1  H18A 6282  -0.044   4.524   9.213  0.2153  1.0060  0.6044
   52CHL1  H18B 6283  -0.167   4.582   9.333 -1.1850 -0.2026  0.5109
   52CHL1  H18C 6284  -0.202   4.604   9.161  0.7065 -2.6517 -0.1249
   52CHL1   C12 6285   0.098   4.707   9.317  0.4503 -1.3919  0.5957
   52CHL1  H12A 6286   0.157   4.625   9.272 -0.9908 -1.9606 -0.3433
   52CHL1  H12B 6287   0.151   4.803   9.300  1.5016 -2.3167 -1.6332
   52CHL1   C11 6288   0.086   4.690   9.467  0.1213  0.3207 -0.0480
   52CHL1  H11A 6289   0.053   4.585   9.484 -1.0584  0.9079  1.4976
   52CHL1  H11B 6290   0.187   4.697   9.512  0.6730 -2.4564 -0.6643
   52CHL1    C9 6291  -0.007   4.787   9.551  0.5590 -1.0390 -0.2321
   52CHL1    H9 6292   0.044   4.886   9.554  0.4186 -0.9094 -1.5989
   52CHL1   C10 6293  -0.032   4.738   9.700  0.7427  0.2685 -0.1585
   52CHL1   C19 6294  -0.106   4.597   9.706 -0.5465  0.0979  0.1293
   52CHL1  H19A 6295  -0.067   4.521   9.635 -3.6890 -1.9158  0.3719
   52CHL1  H19B 6296  -0.092   4.555   9.808 -1.4814 -1.1996 -0.2450
   52CHL1  H19C 6297  -0.215   4.602   9.688 -0.3494  0.8486 -0.9455
   52CHL1    C1 6298   0.106   4.744   9.765 -0.5739  0.5896 -0.2480
   52CHL1   H1A 6299   0.182   4.673   9.726  1.3424  1.9508  0.8488
   52CHL1   H1B 6300   0.148   4.844   9.746 -0.7853  1.0349  1.4442
   52CHL1    C2 6301   0.104   4.722   9.913  0.2873 -0.2895 -0.3830
   52CHL1   H2A 6302   0.206   4.731   9.954  0.3990  0.5500 -0.8327
   52CHL1   H2B 6303   0.064   4.623   9.945  0.7694 -0.0254  1.1601
   52CHL1   C20 6304  -0.005   4.701   8.979  0.4181 -0.0514 -0.5508
   52CHL1   H20 6305  -0.088   4.630   8.960 -0.8393  0.6719  1.8913
   52CHL1   C21 6306   0.124   4.620   8.993 -0.0097 -0.2900  0.8635
   52CHL1  H21A 6307   0.115   4.552   9.081  1.8325 -3.7937 -1.4625
   52CHL1  H21B 6308   0.220   4.675   9.009  0.7789 -1.3169 -0.2028
   52CHL1  H21C 6309   0.140   4.562   8.900 -2.8411  1.1607 -0.6516
   52CHL1   C22 6310  -0.013   4.786   8.845  0.7490 -0.2442 -0.0721
   52CHL1  H22A 6311  -0.116   4.827   8.833 -0.3980 -2.0191  2.6386
   52CHL1  H22B 6312   0.060   4.870   8.847 -0.0283  0.4552  1.6645
   52CHL1   C23 6313   0.025   4.713   8.713 -0.5417  0.7331  0.0578
   52CHL1  H23A 6314   0.131   4.682   8.727 -0.5384  0.2225 -0.9959
   52CHL1  H23B 6315  -0.041   4.625   8.697  0.7046 -0.2908  0.4213
   52CHL1   C24 6316   0.016   4.811   8.588  0.4616 -0.2540 -0.1749
   52CHL1  H24A 6317  -0.092   4.833   8.574  0.4845 -0.1051 -0.1183
   52CHL1  H24B 6318   0.076   4.900   8.615 -0.7350  0.2979  0.7468
   52CHL1   C25 6319   0.080   4.752   8.463 -0.5468 -0.5736  0.0560
   52CHL1   H25 6320   0.050   4.646   8.456  0.4224 -0.9988  1.7323
   52CHL1   C26 6321   0.039   4.833   8.347  0.1272 -0.2123 -0.0886
   52CHL1  H26A 6322  -0.071   4.831   8.327 -0.3455  1.5753  1.8946
   52CHL1  H26B 6323   0.059   4.938   8.378 -0.4697 -0.1866  0.2268
   52CHL1  H26C 6324   0.089   4.817   8.249  1.4388 -2.1446  0.8401
   52CHL1   C27 6325   0.236   4.750   8.465 -0.2941  0.2254 -0.0480
   52CHL1  H27A 6326   0.263   4.731   8.359  0.3790 -1.6475  0.4230
   52CHL1  H27B 6327   0.275   4.850   8.494 -3.2215  1.2323  0.7760
   52CHL1  H27C 6328   0.266   4.672   8.538  1.5596  0.0842 -0.8959
   53CHL1    C3 6329   0.450   4.347   9.964  1.3271  0.3519 -0.0395
   53CHL1    H3 6330   0.442   4.457   9.965  0.5962  0.3460  2.6835
   53CHL1    O3 6331   0.464   4.318  10.103  0.0381  0.0148 -0.3290
   53CHL1   H3' 6332   0.477   4.405  10.141  0.6407  0.2918 -1.1674
   53CHL1    C4 6333   0.324   4.289   9.919 -0.3018 -0.3749 -0.5706
   53CHL1   H4A 6334   0.306   4.186   9.957 -1.9814  0.6565  1.6661
   53CHL1   H4B 6335   0.241   4.343   9.969  0.1649 -0.3568  0.2064
   53CHL1    C5 6336   0.309   4.292   9.769  0.4319  0.2710 -0.1718
   53CHL1    C6 6337   0.193   4.340   9.717  0.1035 -0.7175 -1.0768
   53CHL1    H6 6338   0.117   4.371   9.789  0.6338 -1.0785 -0.3551
   53CHL1    C7 6339   0.165   4.341   9.574 -0.0077 -0.1137  0.8146
   53CHL1   H7A 6340   0.057   4.321   9.557 -0.2277  1.8636 -0.4544
   53CHL1   H7B 6341   0.178   4.447   9.544  1.6980 -0.9471 -1.6041
   53CHL1    C8 6342   0.253   4.238   9.493 -0.0189 -0.0386 -0.1143
   53CHL1    H8 6343   0.207   4.142   9.525  2.6121 -1.5716 -0.6671
   53CHL1   C14 6344   0.230   4.253   9.341  0.2351  0.2902 -1.0021
   53CHL1   H14 6345   0.279   4.345   9.303  0.8903  0.5299  0.3779
   53CHL1   C15 6346   0.088   4.268   9.294  0.2103  0.6378  0.1312
   53CHL1  H15A 6347   0.033   4.180   9.334  0.9293 -0.2414 -0.7756
   53CHL1  H15B 6348   0.039   4.365   9.316  2.6784  2.1714 -0.8487
   53CHL1   C16 6349   0.104   4.222   9.144  0.5269 -0.1486 -0.1502
   53CHL1  H16A 6350   0.034   4.137   9.128  0.0869  0.0798  0.4885
   53CHL1  H16B 6351   0.069   4.305   9.078 -0.3979 -2.7175 -3.1268
   53CHL1   C17 6352   0.246   4.179   9.122 -0.2696  0.5438 -0.1710
   53CHL1   H17 6353   0.295   4.272   9.086 -2.2887  2.2594  1.2118
   53CHL1   C13 6354   0.309   4.151   9.260  0.4164  0.2928 -0.3913
   53CHL1   C18 6355   0.281   3.995   9.285 -0.1353 -0.5861 -0.2178
   53CHL1  H18A 6356   0.176   3.962   9.271 -0.0484 -1.8413  1.7263
   53CHL1  H18B 6357   0.348   3.922   9.234 -0.2617 -0.0375 -1.2119
   53CHL1  H18C 6358   0.304   3.978   9.392  1.1715  0.7637 -0.2438
   53CHL1   C12 6359   0.463   4.179   9.287 -0.1690  0.2400 -0.0555
   53CHL1  H12A 6360   0.526   4.110   9.227  0.1119 -3.1123  3.6699
   53CHL1  H12B 6361   0.469   4.283   9.247 -1.7056  0.0567 -0.8340
   53CHL1   C11 6362   0.498   4.173   9.437  0.1602  0.0598  0.1431
   53CHL1  H11A 6363   0.500   4.064   9.455  1.3689  0.2783  1.5816
   53CHL1  H11B 6364   0.597   4.224   9.439 -0.8893  2.3783 -1.8676
   53CHL1    C9 6365   0.401   4.251   9.534  0.4732  0.6708  0.0063
   53CHL1    H9 6366   0.421   4.358   9.515  1.4868  0.4094 -0.4396
   53CHL1   C10 6367   0.420   4.230   9.683 -0.4235  0.0742  0.5090
   53CHL1   C19 6368   0.430   4.082   9.718  0.0413  0.0739  0.6453
   53CHL1  H19A 6369   0.342   4.024   9.682  0.2738 -0.2722  0.6331
   53CHL1  H19B 6370   0.523   4.047   9.668  1.1115  1.4536  1.6002
   53CHL1  H19C 6371   0.440   4.060   9.827 -0.1471 -0.1643  0.6150
   53CHL1    C1 6372   0.548   4.295   9.728  0.5045 -0.9568 -0.1232
   53CHL1   H1A 6373   0.635   4.235   9.692 -0.1735 -1.5099 -0.8750
   53CHL1   H1B 6374   0.548   4.401   9.693 -3.1879 -1.1057 -0.8910
   53CHL1    C2 6375   0.570   4.297   9.884  0.6543  0.0723 -0.3514
   53CHL1   H2A 6376   0.663   4.352   9.909  0.8595 -0.4597  0.0535
   53CHL1   H2B 6377   0.591   4.192   9.912 -1.3884  0.4361  3.1608
   53CHL1   C20 6378   0.253   4.068   9.018  0.9594 -0.0723 -0.3036
   53CHL1   H20 6379   0.219   3.967   9.046 -3.4056  1.2838  0.1122
   53CHL1   C21 6380   0.402   4.036   8.974 -0.9919 -0.6723 -0.3229
   53CHL1  H21A 6381   0.458   4.005   9.064 -0.1281 -0.9692 -0.9567
   53CHL1  H21B 6382   0.439   4.135   8.939 -0.0110 -0.9006  0.0493
   53CHL1  H21C 6383   0.415   3.959   8.895 -1.8478 -1.3357  0.1621
   53CHL1   C22 6384   0.164   4.101   8.890  0.0483  0.1460 -0.4414
   53CHL1  H22A 6385   0.058   4.091   8.921  0.2981  0.8846  0.6984
   53CHL1  H22B 6386   0.183   4.205   8.857  2.4596  0.2093  0.9130
   53CHL1   C23 6387   0.192   4.016   8.767  0.1366  0.3466 -0.1950
   53CHL1  H23A 6388   0.292   4.025   8.721  0.0166  1.3184 -0.2761
   53CHL1  H23B 6389   0.177   3.910   8.797  1.3405  0.2178 -0.0123
   53CHL1   C24 6390   0.091   4.066   8.659 -0.0313  0.2185  0.2961
   53CHL1  H24A 6391  -0.015   4.059   8.693  0.0078  1.0479  0.6216
   53CHL1  H24B 6392   0.124   4.169   8.631  0.8260 -0.2308 -0.3666
   53CHL1   C25 6393   0.093   3.979   8.534 -0.7138  0.4749  0.2860
   53CHL1   H25 6394   0.196   3.972   8.495 -0.7075  2.0202 -0.0059
   53CHL1   C26 6395   0.023   3.848   8.550 -0.0305  0.5276 -0.2320
   53CHL1  H26A 6396  -0.004   3.802   8.452  0.3140  1.4360 -0.7611
   53CHL1  H26B 6397   0.079   3.772   8.609 -0.8170 -0.4058 -0.6618
   53CHL1  H26C 6398  -0.075   3.867   8.599 -0.7477 -1.1995 -0.9188
   53CHL1   C27 6399   0.012   4.055   8.435 -0.3306 -0.2318  0.2831
   53CHL1  H27A 6400   0.001   3.990   8.346 -2.2961 -0.2874  0.5361
   53CHL1  H27B 6401  -0.087   4.081   8.475 -0.7542  0.3468 -1.0802
   53CHL1  H27C 6402   0.073   4.140   8.397 -0.1774 -0.9158 -1.0678
   54CHL1    C3 6403   1.442   5.420   9.972  0.1381  1.1423  0.2497
   54CHL1    H3 6404   1.390   5.513   9.939 -2.3464 -0.5086 -0.8715
   54CHL1    O3 6405   1.447   5.415  10.118 -0.1218  0.2840 -0.0929
   54CHL1   H3' 6406   1.358   5.425  10.153  0.0224 -0.8229  0.6300
   54CHL1    C4 6407   1.356   5.300   9.923  0.4242  0.0697  0.0394
   54CHL1   H4A 6408   1.406   5.216   9.974  1.3342  1.2326  1.1447
   54CHL1   H4B 6409   1.253   5.314   9.961  0.3129  2.5558 -0.9771
   54CHL1    C5 6410   1.355   5.293   9.773 -0.4614 -0.2699  0.7008
   54CHL1    C6 6411   1.247   5.298   9.702  0.1655  0.6737  0.2305
   54CHL1    H6 6412   1.150   5.303   9.754  0.3195  2.5813  0.3784
   54CHL1    C7 6413   1.244   5.283   9.554 -0.0117 -0.2328  0.2424
   54CHL1   H7A 6414   1.163   5.212   9.526  2.2528 -1.7212 -3.2418
   54CHL1   H7B 6415   1.218   5.379   9.505  1.6697  0.0258 -0.2012
   54CHL1    C8 6416   1.379   5.231   9.498 -0.5345  0.2053  0.4504
   54CHL1    H8 6417   1.394   5.131   9.545 -1.3693 -1.1036 -1.9121
   54CHL1   C14 6418   1.379   5.228   9.346 -0.2162  0.3777 -0.1423
   54CHL1   H14 6419   1.338   5.323   9.305  1.3175  0.5168 -1.4281
   54CHL1   C15 6420   1.288   5.125   9.282  0.5725 -0.3598 -0.1447
   54CHL1  H15A 6421   1.303   5.024   9.326  0.0529 -0.9357 -1.2678
   54CHL1  H15B 6422   1.186   5.160   9.308  0.9226  0.2219  0.4928
   54CHL1   C16 6423   1.329   5.129   9.135 -0.1833  0.4278  0.2145
   54CHL1  H16A 6424   1.347   5.027   9.096 -0.8988  0.3118  0.1764
   54CHL1  H16B 6425   1.255   5.174   9.066  2.3624  3.0400 -1.0043
   54CHL1   C17 6426   1.468   5.207   9.130  0.3186  0.1981  0.4396
   54CHL1   H17 6427   1.438   5.310   9.101 -0.0398 -0.4346 -1.5487
   54CHL1   C13 6428   1.514   5.201   9.273  0.4332 -1.0135 -0.0741
   54CHL1   C18 6429   1.560   5.062   9.307 -0.1878  0.0216 -0.6534
   54CHL1  H18A 6430   1.510   4.975   9.259  2.5998 -1.4689 -1.1198
   54CHL1  H18B 6431   1.669   5.065   9.282  0.3094  3.1116  1.2877
   54CHL1  H18C 6432   1.552   5.046   9.416 -3.5060  1.1750 -0.6181
   54CHL1   C12 6433   1.606   5.314   9.325 -1.3646  0.3499  0.0057
   54CHL1  H12A 6434   1.705   5.310   9.275 -0.7976  1.0013  1.0346
   54CHL1  H12B 6435   1.556   5.407   9.289 -2.8654 -0.3603  0.1543
   54CHL1   C11 6436   1.627   5.306   9.470  0.2567 -0.5502  0.1768
   54CHL1  H11A 6437   1.692   5.218   9.492  1.2076 -0.6631 -2.7066
   54CHL1  H11B 6438   1.691   5.395   9.486 -1.9068  0.7032  2.6000
   54CHL1    C9 6439   1.491   5.312   9.556  0.3942  0.1263  0.2161
   54CHL1    H9 6440   1.446   5.413   9.543 -0.0825 -0.0066  0.8163
   54CHL1   C10 6441   1.501   5.297   9.714 -0.1321  0.1429 -0.2028
   54CHL1   C19 6442   1.581   5.164   9.743 -0.4705 -0.6361  0.2388
   54CHL1  H19A 6443   1.685   5.178   9.706 -1.1998 -0.7948 -1.9896
   54CHL1  H19B 6444   1.594   5.161   9.853  3.2909 -0.7059 -0.0487
   54CHL1  H19C 6445   1.534   5.072   9.701 -0.5647 -0.8934  0.8929
   54CHL1    C1 6446   1.593   5.410   9.766 -0.3779  0.2597  0.1105
   54CHL1   H1A 6447   1.694   5.384   9.728 -0.4798  0.2266 -0.1419
   54CHL1   H1B 6448   1.572   5.505   9.711  1.4245  2.1773  2.4710
   54CHL1    C2 6449   1.587   5.424   9.917 -0.3639  0.0938  0.4377
   54CHL1   H2A 6450   1.640   5.509   9.965  0.1487 -0.7900  1.4892
   54CHL1   H2B 6451   1.640   5.339   9.965  0.6198  1.3112  1.5900
   54CHL1   C20 6452   1.556   5.148   9.019 -0.3229 -0.4536  0.3773
   54CHL1   H20 6453   1.582   5.042   9.040  1.0027 -0.3138 -0.4572
   54CHL1   C21 6454   1.698   5.220   9.011  0.6118  0.7322 -0.1238
   54CHL1  H21A 6455   1.683   5.330   9.012  2.0597  0.9516  1.1088
   54CHL1  H21B 6456   1.758   5.182   8.926 -0.2394 -2.2425  0.4794
   54CHL1  H21C 6457   1.753   5.184   9.100 -0.3045 -2.7082 -0.8063
   54CHL1   C22 6458   1.485   5.165   8.880  0.2768 -0.4914  0.2319
   54CHL1  H22A 6459   1.388   5.112   8.871 -0.0146 -0.0507  0.7672
   54CHL1  H22B 6460   1.478   5.275   8.866 -1.8196 -0.6299 -0.0584
   54CHL1   C23 6461   1.559   5.110   8.752 -0.3405 -0.3689 -0.1993
   54CHL1  H23A 6462   1.669   5.125   8.757 -0.0411 -1.7412 -1.9598
   54CHL1  H23B 6463   1.526   5.005   8.739  1.6624 -0.9772 -0.7701
   54CHL1   C24 6464   1.506   5.190   8.628  0.3541  0.0520 -0.3233
   54CHL1  H24A 6465   1.399   5.163   8.618  0.6965 -0.8520 -1.7952
   54CHL1  H24B 6466   1.517   5.296   8.659 -1.1031 -0.4204  2.1016
   54CHL1   C25 6467   1.578   5.168   8.493  0.2897 -0.6906  0.5730
   54CHL1   H25 6468   1.571   5.060   8.468  0.2268 -0.8960  1.4376
   54CHL1   C26 6469   1.503   5.248   8.381  0.1956  0.1024  0.3638
   54CHL1  H26A 6470   1.510   5.355   8.409  1.5468  0.4304 -1.0683
   54CHL1  H26B 6471   1.556   5.245   8.283 -0.8596 -0.3351 -0.2113
   54CHL1  H26C 6472   1.399   5.224   8.353  1.3501 -1.5100 -3.2000
   54CHL1   C27 6473   1.722   5.217   8.502 -0.3211 -0.9895 -0.2272
   54CHL1  H27A 6474   1.773   5.202   8.404  1.1340 -1.6493  0.5922
   54CHL1  H27B 6475   1.719   5.325   8.525  1.2205 -0.5106 -2.0146
   54CHL1  H27C 6476   1.775   5.155   8.578 -0.5318 -0.3688  0.4350
   55CHL1    C3 6477   1.869   2.855   9.860 -0.3376  0.4375  0.4977
   55CHL1    H3 6478   1.933   2.945   9.843 -1.4265  1.5074  1.8366
   55CHL1    O3 6479   1.814   2.854   9.985 -0.0943  0.2883 -0.1115
   55CHL1   H3' 6480   1.887   2.865  10.047  0.2664 -2.4516  0.0793
   55CHL1    C4 6481   1.766   2.836   9.755  0.4016 -0.7596 -0.5426
   55CHL1   H4A 6482   1.698   2.757   9.794  1.0162 -1.0632 -0.0880
   55CHL1   H4B 6483   1.716   2.935   9.766  3.2098  0.9199 -1.8488
   55CHL1    C5 6484   1.829   2.820   9.621  0.5585 -0.1561  0.4253
   55CHL1    C6 6485   1.797   2.902   9.514  0.4593  0.1598 -0.3870
   55CHL1    H6 6486   1.726   2.985   9.529 -1.0096 -1.3565  1.4554
   55CHL1    C7 6487   1.850   2.886   9.376 -0.3987 -0.3470 -1.0867
   55CHL1   H7A 6488   1.769   2.877   9.300 -0.1937 -0.9866 -1.2364
   55CHL1   H7B 6489   1.906   2.979   9.351  1.5840 -1.2840 -0.3416
   55CHL1    C8 6490   1.936   2.755   9.358  0.6017 -0.4623 -0.7812
   55CHL1    H8 6491   1.863   2.675   9.334  0.4813 -0.8115  0.6565
   55CHL1   C14 6492   2.027   2.775   9.243 -0.2319 -0.5600  0.2102
   55CHL1   H14 6493   2.104   2.850   9.269 -0.6977 -0.1093  0.3212
   55CHL1   C15 6494   1.956   2.826   9.110  0.0238 -0.3588  0.2696
   55CHL1  H15A 6495   1.852   2.787   9.105 -0.8121  1.7496 -0.1076
   55CHL1  H15B 6496   1.948   2.937   9.105  0.5309 -0.3107  0.5056
   55CHL1   C16 6497   2.057   2.777   8.995  0.2372 -0.2662 -0.3831
   55CHL1  H16A 6498   1.993   2.702   8.944 -0.2898 -0.0614 -0.0221
   55CHL1  H16B 6499   2.098   2.860   8.933 -1.1157  0.8708  0.2019
   55CHL1   C17 6500   2.170   2.705   9.076  0.3556  0.6393  0.5378
   55CHL1   H17 6501   2.249   2.779   9.102  2.2967 -0.4714 -1.8198
   55CHL1   C13 6502   2.111   2.656   9.206  0.4834 -0.2174 -0.7302
   55CHL1   C18 6503   2.023   2.529   9.181  0.2887  0.2493  0.2824
   55CHL1  H18A 6504   1.945   2.537   9.102 -0.0083  0.5052  0.5998
   55CHL1  H18B 6505   2.090   2.449   9.142  0.4274  1.2883 -1.7757
   55CHL1  H18C 6506   1.977   2.492   9.275  0.0718  1.6588  0.7532
   55CHL1   C12 6507   2.204   2.634   9.328  0.8405  0.3037  0.0199
   55CHL1  H12A 6508   2.272   2.552   9.298  1.0773  0.8140 -0.8599
   55CHL1  H12B 6509   2.269   2.724   9.336 -0.4043  1.3619 -1.1935
   55CHL1   C11 6510   2.132   2.613   9.464  0.1064  0.6910  0.4278
   55CHL1  H11A 6511   2.077   2.517   9.466  0.0367  0.7076 -0.2876
   55CHL1  H11B 6512   2.204   2.610   9.548  0.6531  3.6856  0.1997
   55CHL1    C9 6513   2.026   2.727   9.481  0.4457 -0.6214  0.2123
   55CHL1    H9 6514   2.085   2.821   9.483 -0.5367  0.0019  0.3418
   55CHL1   C10 6515   1.940   2.717   9.614 -0.3893  0.1573 -0.4031
   55CHL1   C19 6516   1.867   2.574   9.621  0.2721  0.5497  0.0738
   55CHL1  H19A 6517   1.805   2.573   9.713  0.4090  1.5186  0.1866
   55CHL1  H19B 6518   1.796   2.569   9.535 -0.3794  1.0747  0.5697
   55CHL1  H19C 6519   1.935   2.486   9.614 -2.5580 -1.8173  0.5396
   55CHL1    C1 6520   2.044   2.726   9.731 -0.3782 -0.0770 -0.1591
   55CHL1   H1A 6521   2.107   2.635   9.736 -2.4476 -1.5354  1.5711
   55CHL1   H1B 6522   2.109   2.814   9.712  1.1324 -0.4739  2.7239
   55CHL1    C2 6523   1.975   2.745   9.866  0.2065  0.0191  0.4894
   55CHL1   H2A 6524   2.053   2.771   9.941  1.9092  0.7296 -1.4374
   55CHL1   H2B 6525   1.926   2.653   9.904  0.0936  0.1053  0.5548
   55CHL1   C20 6526   2.257   2.612   8.995  0.3408  0.2134 -0.0046
   55CHL1   H20 6527   2.297   2.535   9.063  1.1307  0.8582  0.2696
   55CHL1   C21 6528   2.371   2.691   8.928 -0.4293 -0.4078 -0.4564
   55CHL1  H21A 6529   2.436   2.745   9.000 -0.2387 -0.1722 -0.7957
   55CHL1  H21B 6530   2.317   2.766   8.865 -1.1094 -0.3143  0.2270
   55CHL1  H21C 6531   2.424   2.622   8.859  1.7403  1.0693 -0.3531
   55CHL1   C22 6532   2.190   2.530   8.883 -0.1654  0.5369 -0.1841
   55CHL1  H22A 6533   2.097   2.487   8.927  1.2846 -1.9547  0.6270
   55CHL1  H22B 6534   2.155   2.599   8.803 -0.9099 -1.5325 -1.7640
   55CHL1   C23 6535   2.260   2.410   8.813 -0.3888 -0.3913  0.2891
   55CHL1  H23A 6536   2.309   2.461   8.727  0.5570  0.6533  1.4039
   55CHL1  H23B 6537   2.321   2.352   8.885 -0.6012 -0.7310  0.2017
   55CHL1   C24 6538   2.159   2.310   8.744 -0.5260  0.3747  0.3443
   55CHL1  H24A 6539   2.097   2.268   8.826  1.0578 -0.0899  1.3510
   55CHL1  H24B 6540   2.097   2.376   8.679 -0.9677 -0.9132 -0.5624
   55CHL1   C25 6541   2.233   2.206   8.651  0.5408  0.1353 -0.1118
   55CHL1   H25 6542   2.145   2.149   8.614 -0.7775  1.3372  1.0743
   55CHL1   C26 6543   2.310   2.268   8.536 -0.4463 -0.0899  0.3980
   55CHL1  H26A 6544   2.398   2.314   8.585 -1.4299 -0.2478  2.4422
   55CHL1  H26B 6545   2.350   2.192   8.466 -0.7900  2.1106 -2.3401
   55CHL1  H26C 6546   2.260   2.348   8.477  0.4929  0.4164  0.2624
   55CHL1   C27 6547   2.313   2.100   8.736  0.0503 -0.2007  0.2815
   55CHL1  H27A 6548   2.344   2.024   8.661 -0.2740 -1.4172  1.3489
   55CHL1  H27B 6549   2.397   2.153   8.786 -0.8644  0.4098  1.2207
   55CHL1  H27C 6550   2.249   2.050   8.811 -0.0989 -2.2236 -1.1121
   56CHL1    C3 6551   0.214   1.950   9.787  0.2179  0.1951 -0.8582
   56CHL1    H3 6552   0.299   1.880   9.770 -1.2389 -1.7533 -0.4315
   56CHL1    O3 6553   0.204   1.970   9.927 -0.4270 -0.3040  0.3585
   56CHL1   H3' 6554   0.289   2.012   9.940 -1.2610  1.7056 -0.2687
   56CHL1    C4 6555   0.231   2.081   9.711 -0.0090 -0.5966  1.1601
   56CHL1   H4A 6556   0.141   2.134   9.748 -2.0903 -2.6216 -0.6984
   56CHL1   H4B 6557   0.326   2.133   9.736  1.3695 -0.5769 -3.1945
   56CHL1    C5 6558   0.230   2.063   9.560 -0.1402 -0.5214 -0.1668
   56CHL1    C6 6559   0.330   2.102   9.481  0.2703 -0.4337  0.4447
   56CHL1    H6 6560   0.416   2.142   9.538  0.6449 -0.5844 -0.0071
   56CHL1    C7 6561   0.338   2.091   9.335 -1.1650 -0.7515  0.2464
   56CHL1   H7A 6562   0.365   2.190   9.292  0.1453 -1.7942 -1.4690
   56CHL1   H7B 6563   0.416   2.017   9.308 -0.3000 -0.5070  1.9053
   56CHL1    C8 6564   0.205   2.056   9.271  0.3495  0.3146 -0.4700
   56CHL1    H8 6565   0.149   2.152   9.275  3.1892  2.0529  0.6200
   56CHL1   C14 6566   0.222   1.999   9.128  0.2713  0.0963  0.0278
   56CHL1   H14 6567   0.271   1.902   9.152  0.0451 -1.1803 -3.9150
   56CHL1   C15 6568   0.309   2.088   9.029  0.8322  0.5537  0.4583
   56CHL1  H15A 6569   0.283   2.196   9.024 -0.1000  0.2936 -1.5883
   56CHL1  H15B 6570   0.419   2.092   9.044  0.8843  2.3583 -0.1053
   56CHL1   C16 6571   0.267   2.020   8.896  0.1892  0.0710 -0.2190
   56CHL1  H16A 6572   0.204   2.083   8.829 -0.5141 -0.9254 -0.5111
   56CHL1  H16B 6573   0.359   1.980   8.849  1.0385  1.1424  0.4794
   56CHL1   C17 6574   0.170   1.905   8.928  0.4163 -0.5650  0.9270
   56CHL1   H17 6575   0.231   1.818   8.959  0.5766  0.0476  2.3964
   56CHL1   C13 6576   0.098   1.952   9.053 -0.0105 -0.4526 -1.0788
   56CHL1   C18 6577  -0.003   2.068   9.026 -0.0920 -0.0397 -0.3931
   56CHL1  H18A 6578   0.042   2.149   8.964 -1.5299 -1.0007 -2.8478
   56CHL1  H18B 6579  -0.089   2.033   8.964 -0.3633  0.9993 -0.6286
   56CHL1  H18C 6580  -0.036   2.112   9.123  0.7973 -0.3989  0.0755
   56CHL1   C12 6581   0.037   1.842   9.143 -0.0566  0.6483 -0.1682
   56CHL1  H12A 6582  -0.063   1.811   9.108  0.6691 -0.9197 -0.9806
   56CHL1  H12B 6583   0.106   1.755   9.137  0.0880  0.7319  0.2890
   56CHL1   C11 6584   0.009   1.889   9.287 -0.2138 -1.1609 -0.3107
   56CHL1  H11A 6585  -0.062   1.974   9.278 -0.5511 -1.1583  1.7968
   56CHL1  H11B 6586  -0.032   1.811   9.355  0.3061 -0.9372  0.2698
   56CHL1    C9 6587   0.137   1.943   9.349 -0.9058  0.1147  0.6292
   56CHL1    H9 6588   0.208   1.858   9.352 -0.2602  0.6786  2.0849
   56CHL1   C10 6589   0.116   1.987   9.499  0.1952 -0.0853  0.5614
   56CHL1   C19 6590   0.000   2.091   9.498  0.1287 -0.6849  0.2844
   56CHL1  H19A 6591  -0.010   2.141   9.597 -0.7096 -0.0708 -0.1031
   56CHL1  H19B 6592   0.017   2.178   9.431  0.1860 -1.9535 -1.3852
   56CHL1  H19C 6593  -0.100   2.048   9.475  0.4016 -0.9156 -0.4914
   56CHL1    C1 6594   0.081   1.868   9.588 -0.3413  0.3050  0.0396
   56CHL1   H1A 6595  -0.007   1.811   9.552 -0.0862 -0.0687  0.0019
   56CHL1   H1B 6596   0.157   1.795   9.552  1.1877  1.8809 -0.0514
   56CHL1    C2 6597   0.090   1.875   9.740 -0.0182 -0.1187 -0.1222
   56CHL1   H2A 6598   0.073   1.776   9.788  2.2217  0.0352  1.1101
   56CHL1   H2B 6599  -0.000   1.937   9.758 -0.0452 -0.4953  1.1655
   56CHL1   C20 6600   0.082   1.864   8.809  0.3232 -0.3134  0.2562
   56CHL1   H20 6601   0.003   1.941   8.792  0.2852 -0.0995  1.3302
   56CHL1   C21 6602   0.016   1.726   8.838  0.4487 -0.0133  0.4349
   56CHL1  H21A 6603  -0.013   1.673   8.745  0.4717  1.8033 -0.6500
   56CHL1  H21B 6604  -0.074   1.739   8.903  1.5506 -1.3408  2.3240
   56CHL1  H21C 6605   0.079   1.662   8.903 -1.4713 -0.2056  2.2396
   56CHL1   C22 6606   0.166   1.854   8.684  0.4784 -0.2801 -0.1120
   56CHL1  H22A 6607   0.094   1.827   8.604  0.9393  1.0838 -1.0177
   56CHL1  H22B 6608   0.211   1.952   8.657  1.8851 -0.7440  0.4522
   56CHL1   C23 6609   0.282   1.751   8.688  0.3334 -0.2225  0.6570
   56CHL1  H23A 6610   0.348   1.774   8.774 -1.1537 -0.5945  1.9216
   56CHL1  H23B 6611   0.240   1.648   8.688  1.7578 -0.8428 -0.2438
   56CHL1   C24 6612   0.368   1.773   8.559  0.0037  0.3591 -0.2447
   56CHL1  H24A 6613   0.300   1.743   8.477  1.3524 -1.1044 -0.8950
   56CHL1  H24B 6614   0.391   1.881   8.546  0.8352  0.5881  2.4712
   56CHL1   C25 6615   0.505   1.696   8.539  0.1282 -0.1827  0.1940
   56CHL1   H25 6616   0.561   1.699   8.634 -1.6791  0.3646  1.2862
   56CHL1   C26 6617   0.467   1.549   8.509 -0.6084 -0.2669  1.0869
   56CHL1  H26A 6618   0.543   1.510   8.438  0.4045  2.8425  0.2750
   56CHL1  H26B 6619   0.468   1.486   8.600 -1.2558 -1.9271 -0.0105
   56CHL1  H26C 6620   0.373   1.543   8.449 -0.3116 -2.3836  0.7589
   56CHL1   C27 6621   0.582   1.765   8.421  0.0741 -0.8435 -0.2912
   56CHL1  H27A 6622   0.687   1.734   8.438 -0.2116 -0.4459  2.7534
   56CHL1  H27B 6623   0.548   1.740   8.318 -1.2964 -0.9233  0.1600
   56CHL1  H27C 6624   0.581   1.875   8.430 -1.2682 -0.7438 -1.2989
   57CHL1    C3 6625   1.689   3.927  10.319  0.6479 -0.0324  0.0450
   57CHL1    H3 6626   1.623   3.995  10.261  1.6984 -1.3135 -2.8598
   57CHL1    O3 6627   1.661   3.936  10.455  0.0226  0.6031 -0.7443
   57CHL1   H3' 6628   1.690   3.854  10.496 -0.3847 -0.3574 -2.3038
   57CHL1    C4 6629   1.674   3.782  10.278  1.1067 -0.3921  0.4593
   57CHL1   H4A 6630   1.747   3.725  10.339 -0.5229  0.3065  3.2335
   57CHL1   H4B 6631   1.576   3.745  10.314  0.9472 -0.0679  0.3696
   57CHL1    C5 6632   1.696   3.756  10.126  0.3172  0.1818  0.1125
   57CHL1    C6 6633   1.596   3.702  10.057  0.4670 -0.1698  1.0391
   57CHL1    H6 6634   1.513   3.661  10.115  1.1269 -1.6770  0.9781
   57CHL1    C7 6635   1.603   3.681   9.908  0.0042  0.1841 -0.1848
   57CHL1   H7A 6636   1.577   3.575   9.887  1.5715  0.1650 -2.3949
   57CHL1   H7B 6637   1.521   3.738   9.858  1.3190  1.2757 -1.1679
   57CHL1    C8 6638   1.743   3.715   9.847 -0.7967  0.0612  0.0063
   57CHL1    H8 6639   1.811   3.628   9.858  0.3323  0.5525 -2.3264
   57CHL1   C14 6640   1.737   3.740   9.696  0.3857  0.0261  0.7798
   57CHL1   H14 6641   1.677   3.834   9.688 -0.6491 -0.7391 -1.2856
   57CHL1   C15 6642   1.652   3.635   9.621  0.1968  0.4274  0.3376
   57CHL1  H15A 6643   1.670   3.533   9.663 -1.0317 -0.6742 -1.6527
   57CHL1  H15B 6644   1.542   3.650   9.623  0.4218  2.2855 -0.0419
   57CHL1   C16 6645   1.703   3.647   9.480 -0.5085  0.1714  0.1309
   57CHL1  H16A 6646   1.756   3.556   9.444 -0.5060  0.4710 -0.6458
   57CHL1  H16B 6647   1.615   3.668   9.416  0.3516  1.4521 -0.6625
   57CHL1   C17 6648   1.802   3.767   9.480 -0.4720  0.3663 -0.8023
   57CHL1   H17 6649   1.735   3.854   9.467 -1.7699  0.1609  3.1455
   57CHL1   C13 6650   1.860   3.769   9.623 -0.3727 -0.4604 -0.0941
   57CHL1   C18 6651   1.954   3.656   9.640 -0.1709 -0.5057 -0.4137
   57CHL1  H18A 6652   1.976   3.639   9.748  1.0386  1.0071 -0.3818
   57CHL1  H18B 6653   1.914   3.560   9.603 -0.6683  0.3493 -2.1822
   57CHL1  H18C 6654   2.054   3.675   9.595  1.0353 -0.7191  1.9963
   57CHL1   C12 6655   1.912   3.904   9.681  0.1906 -0.2087  0.6444
   57CHL1  H12A 6656   2.011   3.931   9.638  0.6282 -0.5731  1.4079
   57CHL1  H12B 6657   1.846   3.985   9.644  1.0205  0.0426 -0.3343
   57CHL1   C11 6658   1.928   3.903   9.836  0.2425 -0.0748 -0.0879
   57CHL1  H11A 6659   2.018   3.839   9.848  0.6585  0.4563 -0.3789
   57CHL1  H11B 6660   1.954   4.004   9.873 -0.2232 -0.4734  1.4299
   57CHL1    C9 6661   1.799   3.843   9.907 -0.9787 -0.5887  0.5544
   57CHL1    H9 6662   1.721   3.920   9.887 -0.4181 -0.4169 -1.2063
   57CHL1   C10 6663   1.816   3.829  10.059  0.5515  0.0423 -1.2092
   57CHL1   C19 6664   1.944   3.750  10.091 -0.4092  0.2274 -0.7998
   57CHL1  H19A 6665   1.949   3.646  10.053  0.0634  0.3286 -1.0318
   57CHL1  H19B 6666   2.037   3.801  10.058 -0.3455 -0.5267 -1.8288
   57CHL1  H19C 6667   1.958   3.756  10.201 -0.2995 -3.8514 -0.4482
   57CHL1    C1 6668   1.838   3.975  10.119  0.0834  0.1173 -0.2305
   57CHL1   H1A 6669   1.937   4.013  10.084 -0.7389  1.0814 -1.5890
   57CHL1   H1B 6670   1.758   4.038  10.074  0.8337  1.2825 -0.0011
   57CHL1    C2 6671   1.828   3.982  10.276  0.3323  0.5042  0.0208
   57CHL1   H2A 6672   1.837   4.089  10.306 -2.2939  0.7127  0.3573
   57CHL1   H2B 6673   1.904   3.922  10.331  0.1367 -1.5899 -1.8602
   57CHL1   C20 6674   1.901   3.760   9.359  0.4012 -0.0789  0.8027
   57CHL1   H20 6675   1.945   3.658   9.360  1.9844  0.5808  0.8852
   57CHL1   C21 6676   2.027   3.851   9.359 -0.4973 -0.6179  0.1825
   57CHL1  H21A 6677   2.073   3.834   9.259 -3.0099 -0.6819 -1.0444
   57CHL1  H21B 6678   2.083   3.823   9.451 -1.1076  0.5173  0.9087
   57CHL1  H21C 6679   2.008   3.959   9.371  3.5704  0.5033 -1.5947
   57CHL1   C22 6680   1.821   3.777   9.230  0.4504  0.3065  0.4343
   57CHL1  H22A 6681   1.720   3.732   9.243  0.4904  0.3852  1.0556
   57CHL1  H22B 6682   1.806   3.884   9.206 -2.0104 -0.3898 -1.5983
   57CHL1   C23 6683   1.886   3.687   9.116  0.4466  0.4285 -0.0907
   57CHL1  H23A 6684   1.995   3.709   9.105  0.3737  1.5153  1.1780
   57CHL1  H23B 6685   1.886   3.583   9.155  0.9227  0.9637  1.4308
   57CHL1   C24 6686   1.818   3.700   8.982 -0.7760  0.2708 -0.3700
   57CHL1  H24A 6687   1.873   3.636   8.909 -0.4021  0.0800  0.0700
   57CHL1  H24B 6688   1.712   3.665   8.985 -0.0641 -3.2630 -4.7029
   57CHL1   C25 6689   1.809   3.847   8.933  0.3679  1.0113 -0.2026
   57CHL1   H25 6690   1.725   3.893   8.989 -1.3771  0.8366 -2.5139
   57CHL1   C26 6691   1.945   3.928   8.937 -0.1114  0.1448 -0.1886
   57CHL1  H26A 6692   1.981   3.951   9.040  1.6789  3.0084 -1.3352
   57CHL1  H26B 6693   2.024   3.877   8.876  0.5534  0.3795  0.4587
   57CHL1  H26C 6694   1.928   4.030   8.897 -0.9032  0.0206 -0.1880
   57CHL1   C27 6695   1.761   3.843   8.789  0.3453  0.7717  0.1803
   57CHL1  H27A 6696   1.760   3.947   8.751  1.5845  1.4995  2.0398
   57CHL1  H27B 6697   1.836   3.783   8.732  1.7765  1.8554  0.8648
   57CHL1  H27C 6698   1.659   3.798   8.788  0.7027 -0.0535 -0.3129
   58CHL1    C3 6699   4.861   2.148  10.141  0.1733 -0.0906 -0.2915
   58CHL1    H3 6700   4.902   2.048  10.118 -1.0427 -0.9659  1.1488
   58CHL1    O3 6701   4.894   2.172  10.278 -0.1165  0.0249 -0.0873
   58CHL1   H3' 6702   4.880   2.265  10.294  2.0365  0.1898  1.1016
   58CHL1    C4 6703   4.923   2.251  10.047  0.5185 -0.3322  0.5972
   58CHL1   H4A 6704   4.869   2.345  10.071 -1.2557 -0.8431 -1.1664
   58CHL1   H4B 6705   5.034   2.257  10.057  0.7667 -0.0034 -1.9159
   58CHL1    C5 6706   4.882   2.220   9.906 -0.0366  0.4118  0.8664
   58CHL1    C6 6707   4.979   2.194   9.815  0.2718  0.2243  0.4172
   58CHL1    H6 6708   5.086   2.201   9.836  0.6960  1.4516 -1.8057
   58CHL1    C7 6709   4.956   2.159   9.671 -0.2907 -0.1394  0.1268
   58CHL1   H7A 6710   5.015   2.217   9.597 -1.4050 -0.2523 -0.8929
   58CHL1   H7B 6711   4.986   2.053   9.659 -0.6670 -0.5856  2.5402
   58CHL1    C8 6712   4.813   2.171   9.618  0.0482  0.7399 -0.2687
   58CHL1    H8 6713   4.810   2.280   9.593  1.2653  1.0161  0.6837
   58CHL1   C14 6714   4.784   2.088   9.495 -0.4120  0.4687 -0.7334
   58CHL1   H14 6715   4.785   1.982   9.526  2.8088 -0.0796 -2.2806
   58CHL1   C15 6716   4.876   2.075   9.373 -0.0099 -0.1817  0.7894
   58CHL1  H15A 6717   4.899   2.179   9.343  1.5041 -0.8549 -0.5649
   58CHL1  H15B 6718   4.970   2.023   9.403  0.5717  0.6072  0.3665
   58CHL1   C16 6719   4.797   2.016   9.256  0.1569 -0.1998  0.0290
   58CHL1  H16A 6720   4.808   2.082   9.167  4.1261  2.2599  2.0726
   58CHL1  H16B 6721   4.824   1.909   9.241  1.3469 -0.4553  3.2547
   58CHL1   C17 6722   4.652   2.015   9.310  0.6209 -0.0247 -0.6117
   58CHL1   H17 6723   4.632   1.917   9.359 -0.8315  1.6975  2.5247
   58CHL1   C13 6724   4.643   2.105   9.438 -0.3752  0.0589  0.0580
   58CHL1   C18 6725   4.639   2.247   9.384 -0.6030 -0.3309 -0.7444
   58CHL1  H18A 6726   4.707   2.265   9.298  0.4453  0.5566  0.2269
   58CHL1  H18B 6727   4.536   2.259   9.342 -0.3878  1.5718 -0.8025
   58CHL1  H18C 6728   4.665   2.327   9.457 -0.8267  0.6158 -1.6729
   58CHL1   C12 6729   4.533   2.076   9.547 -0.3008 -0.8542  0.9563
   58CHL1  H12A 6730   4.428   2.099   9.519 -0.1788 -0.5192  0.7679
   58CHL1  H12B 6731   4.556   1.969   9.566 -1.1644 -1.3011 -0.3546
   58CHL1   C11 6732   4.565   2.164   9.674 -0.9390  0.6305 -0.3711
   58CHL1  H11A 6733   4.556   2.272   9.651  1.4803  1.1332  0.6956
   58CHL1  H11B 6734   4.478   2.146   9.740 -0.4695  0.4779  0.2147
   58CHL1    C9 6735   4.704   2.133   9.729  0.5174 -0.0967  0.5201
   58CHL1    H9 6736   4.708   2.025   9.754  0.5337 -0.0053  0.9218
   58CHL1   C10 6737   4.734   2.198   9.869 -0.1911  0.7759 -0.0781
   58CHL1   C19 6738   4.667   2.337   9.887 -0.1048  0.6341  0.4916
   58CHL1  H19A 6739   4.686   2.389   9.983  1.6931  0.7566  0.1096
   58CHL1  H19B 6740   4.709   2.409   9.813  0.3031  0.9568  1.0328
   58CHL1  H19C 6741   4.557   2.343   9.871 -0.1140  3.5327  1.0559
   58CHL1    C1 6742   4.680   2.104   9.977 -0.3149  0.1810  0.0198
   58CHL1   H1A 6743   4.571   2.090   9.963 -0.6749 -0.7623  3.1156
   58CHL1   H1B 6744   4.721   2.001   9.973  0.6743  0.4190  2.3515
   58CHL1    C2 6745   4.714   2.142  10.128  0.7126 -1.0001 -0.9335
   58CHL1   H2A 6746   4.681   2.067  10.204  0.8809 -0.4555 -0.3187
   58CHL1   H2B 6747   4.669   2.241  10.150 -0.5911 -2.0830  1.7033
   58CHL1   C20 6748   4.551   2.035   9.197  0.6046 -0.2262 -0.0200
   58CHL1   H20 6749   4.561   2.139   9.158 -2.8700  0.9174  1.7406
   58CHL1   C21 6750   4.399   2.037   9.242 -0.4156 -0.4041 -0.4859
   58CHL1  H21A 6751   4.386   1.946   9.305 -1.5609 -0.3857 -0.6912
   58CHL1  H21B 6752   4.328   2.041   9.157 -1.1064 -0.1988  0.0927
   58CHL1  H21C 6753   4.376   2.118   9.314  1.0343  0.3292 -0.7982
   58CHL1   C22 6754   4.565   1.936   9.078  0.4267  0.3700  0.4878
   58CHL1  H22A 6755   4.673   1.931   9.051  0.5384  0.7584  0.8507
   58CHL1  H22B 6756   4.542   1.836   9.119 -1.3856  0.2268 -0.7735
   58CHL1   C23 6757   4.476   1.969   8.956 -0.0496 -0.3147 -0.5270
   58CHL1  H23A 6758   4.386   1.907   8.971  1.5844 -2.4201  1.1394
   58CHL1  H23B 6759   4.448   2.076   8.966  1.0942  0.0790 -1.3156
   58CHL1   C24 6760   4.547   1.959   8.820 -0.2492 -0.2279 -0.4047
   58CHL1  H24A 6761   4.640   2.019   8.817 -0.5961  0.2922 -1.4558
   58CHL1  H24B 6762   4.571   1.851   8.812 -3.4074 -0.9988 -0.9043
   58CHL1   C25 6763   4.458   1.986   8.701  0.3021  0.4221 -0.5984
   58CHL1   H25 6764   4.425   2.092   8.703  0.0082  0.3340 -0.7360
   58CHL1   C26 6765   4.531   1.969   8.571  0.5032 -0.4692 -0.0869
   58CHL1  H26A 6766   4.566   1.864   8.561 -1.1779 -1.0892  0.1581
   58CHL1  H26B 6767   4.457   1.988   8.490 -1.4459 -2.1304  1.1899
   58CHL1  H26C 6768   4.622   2.033   8.570  1.1924 -1.3662  1.3330
   58CHL1   C27 6769   4.322   1.913   8.688 -0.5454 -0.0179  0.9747
   58CHL1  H27A 6770   4.248   1.933   8.769 -1.9579 -1.1387  0.0109
   58CHL1  H27B 6771   4.260   1.960   8.609 -0.9182  0.4273  1.5158
   58CHL1  H27C 6772   4.350   1.808   8.670  0.0328  0.0901  1.2403
   59CHL1    C3 6773   4.649   1.377  10.314  0.3742 -0.4042  0.4120
   59CHL1    H3 6774   4.622   1.483  10.294 -0.6870 -0.9384 -1.1833
   59CHL1    O3 6775   4.691   1.358  10.448  0.2287  0.4453  0.9548
   59CHL1   H3' 6776   4.665   1.272  10.482 -0.3042 -0.8885 -2.4097
   59CHL1    C4 6777   4.540   1.279  10.280  0.3155  0.1876 -0.5518
   59CHL1   H4A 6778   4.574   1.179  10.315 -0.0883 -0.2283 -1.3366
   59CHL1   H4B 6779   4.453   1.307  10.344  1.3188  2.3490 -0.0293
   59CHL1    C5 6780   4.505   1.271  10.129  0.7030  0.2998  0.0604
   59CHL1    C6 6781   4.377   1.268  10.088 -0.1943  0.0482  0.3848
   59CHL1    H6 6782   4.294   1.268  10.161 -0.1412 -0.1003  0.4451
   59CHL1    C7 6783   4.331   1.262   9.943  0.0133  0.3016  0.4606
   59CHL1   H7A 6784   4.257   1.186   9.912 -2.6132  1.8103  2.5455
   59CHL1   H7B 6785   4.291   1.359   9.906  0.1595  0.3304  0.3775
   59CHL1    C8 6786   4.449   1.221   9.850  0.1395  0.0662 -0.1686
   59CHL1    H8 6787   4.467   1.114   9.875  1.0986  0.2234 -0.1329
   59CHL1   C14 6788   4.420   1.244   9.711 -0.1476 -0.1588  0.2750
   59CHL1   H14 6789   4.399   1.352   9.700 -1.5345 -0.3850  0.6083
   59CHL1   C15 6790   4.293   1.171   9.652 -0.2478  0.1661  0.2080
   59CHL1  H15A 6791   4.300   1.065   9.684  0.6644 -0.2091 -1.1757
   59CHL1  H15B 6792   4.206   1.219   9.702  0.3457 -0.3966  1.8726
   59CHL1   C16 6793   4.305   1.186   9.503  0.4189 -0.8007 -0.5840
   59CHL1  H16A 6794   4.289   1.083   9.463  0.4461 -1.1743  0.3381
   59CHL1  H16B 6795   4.229   1.257   9.464 -1.5042 -2.0663  0.6653
   59CHL1   C17 6796   4.449   1.236   9.474 -0.2629  0.2497 -0.4841
   59CHL1   H17 6797   4.448   1.345   9.455  0.1425  0.3548  0.0625
   59CHL1   C13 6798   4.525   1.208   9.608 -0.3400 -0.1635 -0.0088
   59CHL1   C18 6799   4.555   1.052   9.613  0.7972 -0.2358  0.4759
   59CHL1  H18A 6800   4.475   0.991   9.567  0.4691 -0.0825  0.8388
   59CHL1  H18B 6801   4.644   1.042   9.547  1.5301  0.7645  1.2766
   59CHL1  H18C 6802   4.556   1.030   9.722  0.0490  3.3400  1.3277
   59CHL1   C12 6803   4.641   1.297   9.640 -0.0444 -1.0240  0.5722
   59CHL1  H12A 6804   4.717   1.275   9.562 -0.0243  1.1846 -0.0937
   59CHL1  H12B 6805   4.608   1.402   9.629 -0.4303 -1.3077 -1.2722
   59CHL1   C11 6806   4.687   1.275   9.780  0.8535 -0.6692 -0.1489
   59CHL1  H11A 6807   4.715   1.169   9.792 -0.6981 -0.8777  2.2874
   59CHL1  H11B 6808   4.770   1.346   9.801 -0.5893  1.5065 -1.3553
   59CHL1    C9 6809   4.575   1.296   9.885 -1.0052 -0.4117  0.3702
   59CHL1    H9 6810   4.544   1.403   9.891 -1.7223 -0.6988  3.0266
   59CHL1   C10 6811   4.627   1.261  10.033  0.1299  0.4177  0.4619
   59CHL1   C19 6812   4.683   1.114  10.028  0.9655  0.3014 -0.3697
   59CHL1  H19A 6813   4.673   1.070  10.129 -1.8100 -0.2951 -0.8096
   59CHL1  H19B 6814   4.635   1.037   9.965 -0.2122 -0.3291  1.2194
   59CHL1  H19C 6815   4.790   1.115  10.001  1.2130  0.6470  0.5749
   59CHL1    C1 6816   4.737   1.359  10.077 -0.0294  0.1634 -0.0849
   59CHL1   H1A 6817   4.830   1.336  10.021 -0.1127  0.5740 -0.3960
   59CHL1   H1B 6818   4.699   1.462  10.056 -1.1450  0.0557  1.2594
   59CHL1    C2 6819   4.776   1.351  10.218  0.6042 -0.4728 -0.2798
   59CHL1   H2A 6820   4.862   1.420  10.232 -0.1436  0.0844  2.0223
   59CHL1   H2B 6821   4.821   1.254  10.248  3.4108  0.8345  0.1392
   59CHL1   C20 6822   4.504   1.172   9.342  0.2225 -0.2845  0.7370
   59CHL1   H20 6823   4.495   1.064   9.363  1.0886 -0.6999 -0.8521
   59CHL1   C21 6824   4.646   1.231   9.313 -0.4691  0.8520  0.2065
   59CHL1  H21A 6825   4.672   1.218   9.206  4.1857 -0.6585  1.2731
   59CHL1  H21B 6826   4.717   1.176   9.379  0.3694 -0.9840 -2.0785
   59CHL1  H21C 6827   4.646   1.340   9.333  0.5921  0.6809  1.3192
   59CHL1   C22 6828   4.410   1.213   9.226 -0.5100  0.1873 -0.3694
   59CHL1  H22A 6829   4.302   1.210   9.252 -0.1168 -1.2255  1.2764
   59CHL1  H22B 6830   4.427   1.318   9.195 -1.2785  0.1094 -1.0912
   59CHL1   C23 6831   4.436   1.130   9.100  0.0661  0.5978 -0.1428
   59CHL1  H23A 6832   4.545   1.128   9.077 -0.0960 -2.0932 -1.0543
   59CHL1  H23B 6833   4.414   1.024   9.125  2.0496  0.5050  1.4508
   59CHL1   C24 6834   4.361   1.180   8.974  0.2620 -0.2035  0.0936
   59CHL1  H24A 6835   4.255   1.199   9.002  0.3167  2.2054 -1.0628
   59CHL1  H24B 6836   4.406   1.277   8.945  0.3563 -0.5752 -1.0456
   59CHL1   C25 6837   4.362   1.099   8.841 -0.6332 -0.6343  0.5387
   59CHL1   H25 6838   4.467   1.104   8.806 -1.0478 -0.5930 -0.7309
   59CHL1   C26 6839   4.318   0.959   8.847  0.0660  0.7793 -0.5023
   59CHL1  H26A 6840   4.318   0.913   8.746 -2.7084  0.6566 -0.5326
   59CHL1  H26B 6841   4.385   0.904   8.916 -1.6153  1.1315  1.5220
   59CHL1  H26C 6842   4.218   0.952   8.895 -0.1466  1.1699 -0.8719
   59CHL1   C27 6843   4.288   1.174   8.731 -0.1719 -0.5188  0.0895
   59CHL1  H27A 6844   4.305   1.136   8.629 -0.4118  1.7739 -0.8776
   59CHL1  H27B 6845   4.180   1.164   8.756 -0.6265 -0.7855 -1.8727
   59CHL1  H27C 6846   4.318   1.281   8.732 -2.9065  0.3501 -0.1927
   60CHL1    C3 6847   4.303   6.588  10.270 -0.2171 -0.6877  0.5572
   60CHL1    H3 6848   4.202   6.633  10.281 -0.2977 -0.2198 -1.6471
   60CHL1    O3 6849   4.367   6.611  10.393 -0.3394  0.6893 -0.1021
   60CHL1   H3' 6850   4.450   6.563  10.385 -0.0371  0.9683  1.1566
   60CHL1    C4 6851   4.311   6.439  10.243  0.3113 -0.3578  0.0050
   60CHL1   H4A 6852   4.412   6.399  10.267 -0.2714 -2.1634 -0.3719
   60CHL1   H4B 6853   4.242   6.388  10.314  1.1892 -0.1430  1.0354
   60CHL1    C5 6854   4.272   6.395  10.107 -0.1627  0.0778  0.0488
   60CHL1    C6 6855   4.179   6.307  10.088 -0.2687  0.5934 -0.1425
   60CHL1    H6 6856   4.125   6.256  10.169  1.5405 -1.0719  0.0760
   60CHL1    C7 6857   4.151   6.261   9.950  0.6435 -0.1514  0.3922
   60CHL1   H7A 6858   4.127   6.153   9.950  1.8987 -0.5111 -2.0690
   60CHL1   H7B 6859   4.057   6.316   9.927  0.1058 -0.7103  1.2084
   60CHL1    C8 6860   4.255   6.294   9.835  0.3174 -0.4623 -0.8409
   60CHL1    H8 6861   4.339   6.223   9.850 -0.5442 -1.2363  0.5033
   60CHL1   C14 6862   4.182   6.270   9.694 -0.9226  0.1222 -0.3544
   60CHL1   H14 6863   4.113   6.357   9.689 -0.9633  0.1309  0.3046
   60CHL1   C15 6864   4.100   6.146   9.670  0.0970  0.1096 -0.1071
   60CHL1  H15A 6865   4.160   6.061   9.709 -0.4320 -0.5437 -0.6984
   60CHL1  H15B 6866   3.995   6.140   9.706  0.7702 -0.5190  1.9113
   60CHL1   C16 6867   4.102   6.133   9.521 -0.5473  0.1791 -0.6417
   60CHL1  H16A 6868   4.125   6.028   9.493 -1.4403 -0.4427  0.8681
   60CHL1  H16B 6869   4.003   6.150   9.474 -1.0733  1.7781  0.9658
   60CHL1   C17 6870   4.195   6.246   9.461  0.0688  0.1275 -0.3539
   60CHL1   H17 6871   4.129   6.333   9.441 -1.3622 -0.8026  0.1852
   60CHL1   C13 6872   4.285   6.291   9.583  0.5326 -0.0887  0.3060
   60CHL1   C18 6873   4.409   6.193   9.596 -0.5223 -0.0600 -0.5144
   60CHL1  H18A 6874   4.462   6.205   9.693  0.6609  2.7155 -1.3905
   60CHL1  H18B 6875   4.386   6.085   9.591 -0.2712 -0.0647 -2.0713
   60CHL1  H18C 6876   4.482   6.226   9.519 -1.1576  1.1028 -0.6455
   60CHL1   C12 6877   4.326   6.445   9.591 -0.1246 -0.1088  0.1437
   60CHL1  H12A 6878   4.399   6.460   9.509 -1.1543 -0.4981 -0.8802
   60CHL1  H12B 6879   4.240   6.513   9.577 -0.4604 -0.1379  1.8503
   60CHL1   C11 6880   4.387   6.484   9.729  0.9382 -0.7343 -0.0361
   60CHL1  H11A 6881   4.487   6.437   9.733  1.7957  0.9374 -0.8876
   60CHL1  H11B 6882   4.403   6.593   9.720 -0.2319 -0.3946  1.5248
   60CHL1    C9 6883   4.295   6.438   9.845  0.1035  0.4956 -0.3454
   60CHL1    H9 6884   4.203   6.501   9.843 -2.8564 -3.3491 -3.8198
   60CHL1   C10 6885   4.358   6.460   9.993  0.8317 -0.1815  0.2211
   60CHL1   C19 6886   4.502   6.406  10.012  0.7165 -0.5300 -0.3086
   60CHL1  H19A 6887   4.550   6.442  10.105 -1.7389 -0.8331  1.1516
   60CHL1  H19B 6888   4.510   6.295  10.009 -0.2242 -0.5936 -1.5301
   60CHL1  H19C 6889   4.571   6.439   9.931  0.3100  0.1163 -0.3993
   60CHL1    C1 6890   4.365   6.616  10.015 -0.4677 -0.3051 -0.7853
   60CHL1   H1A 6891   4.442   6.670   9.957  1.7491 -0.9378  1.3994
   60CHL1   H1B 6892   4.266   6.657   9.985  0.0998 -0.2047 -2.5955
   60CHL1    C2 6893   4.391   6.661  10.162  0.0768 -0.3169  0.2597
   60CHL1   H2A 6894   4.370   6.770  10.163  0.3247 -0.2601 -0.3172
   60CHL1   H2B 6895   4.499   6.655  10.185  0.3490  3.0190  0.3046
   60CHL1   C20 6896   4.266   6.206   9.332  0.4682 -0.2385  0.0619
   60CHL1   H20 6897   4.336   6.121   9.348 -0.8745 -1.7288 -1.6383
   60CHL1   C21 6898   4.339   6.329   9.278 -0.0060  0.6894  0.7924
   60CHL1  H21A 6899   4.277   6.420   9.268 -0.6269  0.0096 -3.9896
   60CHL1  H21B 6900   4.379   6.312   9.176  1.2444  1.3332  1.1609
   60CHL1  H21C 6901   4.434   6.341   9.334  1.4967 -2.2737 -0.8805
   60CHL1   C22 6902   4.163   6.155   9.231  0.2408  0.0620 -0.0607
   60CHL1  H22A 6903   4.098   6.078   9.278  0.3943  1.3304  2.3996
   60CHL1  H22B 6904   4.096   6.243   9.218  0.5682  0.2819 -0.2649
   60CHL1   C23 6905   4.214   6.095   9.104  1.0111 -0.7080  0.3422
   60CHL1  H23A 6906   4.270   6.174   9.051  0.3841  0.2219  1.0332
   60CHL1  H23B 6907   4.289   6.018   9.132  0.1362 -1.6430  0.1943
   60CHL1   C24 6908   4.111   6.025   9.018  0.7702  0.7804 -1.1156
   60CHL1  H24A 6909   4.061   5.946   9.079 -0.8578  1.0478 -2.0480
   60CHL1  H24B 6910   4.032   6.095   8.983  0.2488  2.5900  3.0729
   60CHL1   C25 6911   4.154   5.943   8.896  0.1968 -0.6162  0.7796
   60CHL1   H25 6912   4.227   5.868   8.932 -1.3916 -3.3041 -1.2771
   60CHL1   C26 6913   4.033   5.871   8.836 -0.0411  0.5824  0.4866
   60CHL1  H26A 6914   4.063   5.817   8.743  0.1572 -1.0001  1.4343
   60CHL1  H26B 6915   3.994   5.796   8.908 -2.3388  0.9838 -0.2721
   60CHL1  H26C 6916   3.951   5.941   8.813 -1.7152 -1.7632 -1.1912
   60CHL1   C27 6917   4.211   6.044   8.788  0.0333 -0.1299 -0.2347
   60CHL1  H27A 6918   4.299   6.095   8.831  1.3986 -1.5592 -1.2137
   60CHL1  H27B 6919   4.266   5.994   8.705  2.4258  1.6934  0.1599
   60CHL1  H27C 6920   4.138   6.119   8.750  0.5011 -0.3567 -1.6558
   61CHL1    C3 6921   0.514   6.318  10.051 -0.2869 -0.0169  1.1878
   61CHL1    H3 6922   0.473   6.234   9.990  1.5107  0.9591 -1.5838
   61CHL1    O3 6923   0.481   6.304  10.187  0.1490 -0.1041 -0.1621
   61CHL1   H3' 6924   0.554   6.257  10.227 -0.4805  0.1879  1.4094
   61CHL1    C4 6925   0.663   6.333  10.038 -0.1686  0.2465  0.2463
   61CHL1   H4A 6926   0.694   6.417  10.104 -0.7668  0.5076  0.2074
   61CHL1   H4B 6927   0.712   6.245  10.083  1.0549  1.0795  0.6137
   61CHL1    C5 6928   0.705   6.355   9.889  0.0377  0.6406  0.1729
   61CHL1    C6 6929   0.799   6.268   9.835  0.6962  0.8341 -0.8687
   61CHL1    H6 6930   0.849   6.199   9.903  0.5923  1.9896  0.4236
   61CHL1    C7 6931   0.839   6.270   9.694  0.4326  0.0522  0.3433
   61CHL1   H7A 6932   0.949   6.259   9.693  0.4445 -0.4511  2.3098
   61CHL1   H7B 6933   0.782   6.189   9.644  0.6078  2.2433 -3.8036
   61CHL1    C8 6934   0.799   6.395   9.619 -0.9635  0.3208  0.0800
   61CHL1    H8 6935   0.860   6.477   9.662 -0.7789  0.8512 -1.1502
   61CHL1   C14 6936   0.815   6.385   9.469 -0.3790  0.4069 -0.0390
   61CHL1   H14 6937   0.732   6.314   9.448 -0.3281  0.7010 -1.3364
   61CHL1   C15 6938   0.931   6.306   9.418  0.0650 -0.2473  0.0513
   61CHL1  H15A 6939   1.017   6.343   9.478 -0.5085 -0.4769  1.0480
   61CHL1  H15B 6940   0.914   6.196   9.417  0.0370 -0.2404 -1.1402
   61CHL1   C16 6941   0.930   6.364   9.269 -0.8728 -0.0415 -0.1077
   61CHL1  H16A 6942   1.028   6.415   9.267 -1.2880  0.8377 -3.3141
   61CHL1  H16B 6943   0.942   6.279   9.198  0.4950 -1.0869  1.2933
   61CHL1   C17 6944   0.807   6.450   9.245  0.0588  0.5496  0.1221
   61CHL1   H17 6945   0.727   6.376   9.223 -0.2255  0.5627  1.0736
   61CHL1   C13 6946   0.770   6.499   9.386 -0.1631  0.2203  0.0727
   61CHL1   C18 6947   0.865   6.623   9.412  0.1858  0.9774 -0.9016
   61CHL1  H18A 6948   0.971   6.609   9.384  0.6652  2.4971  0.0307
   61CHL1  H18B 6949   0.824   6.722   9.380  0.0171  1.7380  1.4601
   61CHL1  H18C 6950   0.872   6.641   9.522  1.6311  0.3174 -0.8625
   61CHL1   C12 6951   0.625   6.543   9.416  0.1733  0.2923  0.8291
   61CHL1  H12A 6952   0.594   6.633   9.358  2.4493  1.6934  1.6621
   61CHL1  H12B 6953   0.560   6.461   9.377 -0.3677  0.3551  1.5894
   61CHL1   C11 6954   0.600   6.561   9.567 -0.1548 -0.9207  0.2226
   61CHL1  H11A 6955   0.645   6.656   9.602  0.7480 -1.6543  1.1116
   61CHL1  H11B 6956   0.492   6.575   9.591 -0.0382  1.1424 -0.3212
   61CHL1    C9 6957   0.658   6.442   9.652  0.6499  0.1223  0.0604
   61CHL1    H9 6958   0.597   6.353   9.626  0.8459  0.4455 -1.6094
   61CHL1   C10 6959   0.635   6.463   9.811 -0.3066  0.3959  0.1449
   61CHL1   C19 6960   0.700   6.600   9.845 -0.0848  0.0984  0.1360
   61CHL1  H19A 6961   0.636   6.685   9.812 -0.2387  0.8659  2.2289
   61CHL1  H19B 6962   0.699   6.621   9.954 -3.7929 -1.0467  0.4630
   61CHL1  H19C 6963   0.805   6.608   9.808 -0.0846  0.6958  0.2465
   61CHL1    C1 6964   0.486   6.461   9.844 -0.0347  0.6316 -0.0728
   61CHL1   H1A 6965   0.439   6.554   9.805 -0.5661  0.5879  0.4463
   61CHL1   H1B 6966   0.450   6.368   9.795  0.1545 -0.0195  0.9855
   61CHL1    C2 6967   0.446   6.440   9.990 -0.6145 -0.1129 -0.7518
   61CHL1   H2A 6968   0.336   6.441  10.002 -0.5799 -2.0136 -0.0387
   61CHL1   H2B 6969   0.475   6.532  10.045  1.9489 -1.1573 -0.2337
   61CHL1   C20 6970   0.821   6.538   9.121  0.0997 -0.4637  0.4210
   61CHL1   H20 6971   0.911   6.600   9.141 -0.6477  0.6588  0.3921
   61CHL1   C21 6972   0.691   6.622   9.107 -0.1024  0.3986 -0.2604
   61CHL1  H21A 6973   0.602   6.557   9.102  0.8112 -0.8551 -0.5697
   61CHL1  H21B 6974   0.704   6.673   9.009  1.5222  1.3854  0.4064
   61CHL1  H21C 6975   0.674   6.699   9.186 -2.2368 -0.9704  0.7034
   61CHL1   C22 6976   0.837   6.458   8.991  0.4993  0.1549  0.1016
   61CHL1  H22A 6977   0.903   6.371   9.007  1.5164  0.7357 -0.8145
   61CHL1  H22B 6978   0.737   6.420   8.960  0.3647 -1.3912  2.1999
   61CHL1   C23 6979   0.901   6.527   8.862  0.5664 -0.0071 -0.0500
   61CHL1  H23A 6980   0.940   6.448   8.793  1.1243  0.6694 -0.5300
   61CHL1  H23B 6981   0.824   6.586   8.808  0.5708  0.1460  0.1107
   61CHL1   C24 6982   1.015   6.618   8.900 -0.3003  0.5231 -0.1776
   61CHL1  H24A 6983   1.063   6.640   8.802  0.5301 -3.2171 -0.7754
   61CHL1  H24B 6984   0.990   6.713   8.953 -1.2761 -0.0416  0.4025
   61CHL1   C25 6985   1.134   6.556   8.983  0.1274  0.7512  0.1432
   61CHL1   H25 6986   1.095   6.519   9.080  0.4867 -0.1381 -0.0401
   61CHL1   C26 6987   1.194   6.424   8.928  0.3342  0.4112  0.2691
   61CHL1  H26A 6988   1.222   6.436   8.821  0.4967 -0.9193  0.1404
   61CHL1  H26B 6989   1.281   6.392   8.990 -1.0153 -2.3511  0.9060
   61CHL1  H26C 6990   1.116   6.346   8.942 -1.8516  2.2285 -1.1720
   61CHL1   C27 6991   1.235   6.669   9.011 -0.3002 -0.1343 -0.0293
   61CHL1  H27A 6992   1.227   6.737   9.099  2.4629  1.6812 -1.0544
   61CHL1  H27B 6993   1.335   6.629   9.035 -0.7992  0.1117  2.7874
   61CHL1  H27C 6994   1.248   6.718   8.912  1.4415  0.9690  0.6879
   62CHL1    C3 6995   1.073   3.862   9.923  1.2848  0.4959  0.3199
   62CHL1    H3 6996   1.128   3.957   9.904  2.0998 -0.0965 -0.3204
   62CHL1    O3 6997   1.039   3.862  10.066 -0.1294  0.3907  0.7186
   62CHL1   H3' 6998   0.979   3.788  10.064  1.9364 -1.4227 -2.0151
   62CHL1    C4 6999   0.948   3.855   9.830  0.3499 -0.1337 -0.2582
   62CHL1   H4A 7000   0.892   3.761   9.854 -1.0094  0.3474 -1.3450
   62CHL1   H4B 7001   0.879   3.939   9.854 -0.6413 -1.2385  0.9137
   62CHL1    C5 7002   0.998   3.837   9.690 -0.1848 -0.5363  0.8623
   62CHL1    C6 7003   0.962   3.926   9.592 -0.1648 -1.0867  0.6654
   62CHL1    H6 7004   0.892   4.007   9.617  0.7658  0.4436 -1.3913
   62CHL1    C7 7005   1.008   3.923   9.445 -0.4968 -0.1233  0.2174
   62CHL1   H7A 7006   0.921   3.948   9.381 -0.2751 -0.7373 -0.3352
   62CHL1   H7B 7007   1.073   4.012   9.437  0.1317 -0.3739  1.9543
   62CHL1    C8 7008   1.068   3.791   9.407 -0.2961 -1.1688 -0.7044
   62CHL1    H8 7009   0.997   3.706   9.405 -2.7123  0.7701 -1.6933
   62CHL1   C14 7010   1.136   3.803   9.267 -0.4121 -0.2207 -0.6982
   62CHL1   H14 7011   1.218   3.876   9.284 -2.2285  1.5385  1.1125
   62CHL1   C15 7012   1.056   3.849   9.148  0.9672  0.1730  0.4504
   62CHL1  H15A 7013   0.959   3.797   9.136  0.3074  1.5289 -0.4600
   62CHL1  H15B 7014   1.025   3.956   9.157  0.6867 -0.0409  2.3361
   62CHL1   C16 7015   1.142   3.816   9.025 -0.3467 -0.0114 -0.8295
   62CHL1  H16A 7016   1.082   3.769   8.945  0.5796  0.4519 -1.8147
   62CHL1  H16B 7017   1.192   3.909   8.990 -2.1734  1.0556 -0.7380
   62CHL1   C17 7018   1.260   3.723   9.077 -0.5194 -1.0180  0.3673
   62CHL1   H17 7019   1.342   3.794   9.101 -1.2983  0.4237 -1.0739
   62CHL1   C13 7020   1.205   3.674   9.213  0.2700  0.4754  0.0755
   62CHL1   C18 7021   1.109   3.560   9.185  0.5663  0.1226  0.7424
   62CHL1  H18A 7022   1.167   3.469   9.160 -0.0558 -1.0462  3.3008
   62CHL1  H18B 7023   1.043   3.548   9.274 -2.8363  2.6666 -1.1614
   62CHL1  H18C 7024   1.040   3.589   9.103  0.9475  0.3645  0.5034
   62CHL1   C12 7025   1.313   3.637   9.323  0.6458  0.0566 -0.6836
   62CHL1  H12A 7026   1.351   3.538   9.290 -1.0500 -0.8466 -0.0567
   62CHL1  H12B 7027   1.396   3.710   9.328  0.0300  0.8210 -1.2660
   62CHL1   C11 7028   1.242   3.623   9.456  0.1596  0.1889  0.7160
   62CHL1  H11A 7029   1.166   3.543   9.448 -1.7191  1.7760  1.8916
   62CHL1  H11B 7030   1.323   3.592   9.525  1.4505 -2.6554 -1.8280
   62CHL1    C9 7031   1.171   3.749   9.514  0.5255  0.2528  0.5045
   62CHL1    H9 7032   1.242   3.834   9.514 -0.1102  0.8215 -1.3395
   62CHL1   C10 7033   1.105   3.731   9.655  0.8135 -0.1544  0.0250
   62CHL1   C19 7034   1.031   3.593   9.671 -0.2775 -0.4206 -0.1245
   62CHL1  H19A 7035   1.104   3.511   9.658 -1.2157 -1.2181 -0.5176
   62CHL1  H19B 7036   0.981   3.581   9.769 -0.4410  0.6144 -0.0641
   62CHL1  H19C 7037   0.958   3.583   9.587 -2.5214 -1.9684  1.8828
   62CHL1    C1 7038   1.220   3.748   9.759  0.0961  0.1173  0.1067
   62CHL1   H1A 7039   1.307   3.680   9.746 -0.4063 -0.3395 -1.0652
   62CHL1   H1B 7040   1.257   3.851   9.740 -1.4256  0.6269 -0.2379
   62CHL1    C2 7041   1.165   3.743   9.902  0.0523 -0.6980 -0.1090
   62CHL1   H2A 7042   1.250   3.754   9.973 -0.8376  0.5030  0.8198
   62CHL1   H2B 7043   1.119   3.647   9.934  2.0428 -1.3926  0.8229
   62CHL1   C20 7044   1.311   3.627   8.962 -0.1407  0.2051 -0.9201
   62CHL1   H20 7045   1.224   3.561   8.941  1.1853 -1.9217 -0.0392
   62CHL1   C21 7046   1.429   3.540   9.022 -0.3950 -0.2174 -0.3143
   62CHL1  H21A 7047   1.383   3.472   9.098  2.0832 -0.7963  0.7849
   62CHL1  H21B 7048   1.509   3.603   9.066  2.0364 -1.9545 -1.9661
   62CHL1  H21C 7049   1.469   3.474   8.942  0.6043  0.3921 -0.3291
   62CHL1   C22 7050   1.346   3.694   8.831  0.3070 -0.5205 -0.3585
   62CHL1  H22A 7051   1.250   3.733   8.789 -0.4879 -1.7836  0.2125
   62CHL1  H22B 7052   1.420   3.776   8.829  1.1540 -1.2473  0.3627
   62CHL1   C23 7053   1.398   3.588   8.728 -0.2610  0.1657  0.0788
   62CHL1  H23A 7054   1.406   3.633   8.627 -1.1443 -1.2044 -0.6243
   62CHL1  H23B 7055   1.503   3.559   8.751  0.2367  1.3876 -0.5586
   62CHL1   C24 7056   1.314   3.462   8.703  0.2134  0.2506  0.6578
   62CHL1  H24A 7057   1.365   3.396   8.629 -0.7064  0.1103  0.1318
   62CHL1  H24B 7058   1.298   3.401   8.794 -1.2687 -2.3432 -1.1952
   62CHL1   C25 7059   1.181   3.494   8.636  0.1369 -0.0342 -0.0705
   62CHL1   H25 7060   1.134   3.578   8.691  2.7555  1.9696 -0.7312
   62CHL1   C26 7061   1.191   3.550   8.496  0.3980 -0.6824 -0.4720
   62CHL1  H26A 7062   1.091   3.565   8.450  0.0357 -1.7034 -0.0523
   62CHL1  H26B 7063   1.234   3.651   8.508  2.6965 -1.3683 -2.1120
   62CHL1  H26C 7064   1.264   3.494   8.432  2.2070  1.7581 -0.6900
   62CHL1   C27 7065   1.073   3.381   8.644 -0.0889 -0.3883  0.2744
   62CHL1  H27A 7066   1.111   3.287   8.598 -0.0694 -0.7369  0.9780
   62CHL1  H27B 7067   1.056   3.357   8.751  2.0884 -0.1501  0.7097
   62CHL1  H27C 7068   0.970   3.415   8.621  1.0414  1.3251 -2.7321
   63CHL1    C3 7069   3.530   5.808  10.219 -0.2733  0.0895  0.4316
   63CHL1    H3 7070   3.623   5.810  10.159 -0.1374 -0.9863  0.6032
   63CHL1    O3 7071   3.558   5.821  10.358 -0.1233  0.3060  0.3752
   63CHL1   H3' 7072   3.517   5.746  10.402  0.5329  0.1104  0.6733
   63CHL1    C4 7073   3.457   5.934  10.167 -0.2819  0.2154  0.8556
   63CHL1   H4A 7074   3.372   5.945  10.238 -1.9701  0.7534 -1.1743
   63CHL1   H4B 7075   3.524   6.020  10.190  0.6352 -0.4558  0.7291
   63CHL1    C5 7076   3.407   5.933  10.026 -0.0567  0.4636  0.6816
   63CHL1    C6 7077   3.441   6.027   9.934 -0.0670  0.5262 -0.1743
   63CHL1    H6 7078   3.500   6.115   9.962 -1.1188  0.8542  1.1297
   63CHL1    C7 7079   3.405   6.013   9.787  0.8319  0.1947 -0.0143
   63CHL1   H7A 7080   3.372   6.111   9.745  0.8077  0.8845  1.5441
   63CHL1   H7B 7081   3.497   5.979   9.734  0.9602 -0.6200  0.7121
   63CHL1    C8 7082   3.284   5.916   9.756  0.3092 -0.0695  0.6939
   63CHL1    H8 7083   3.186   5.955   9.791 -0.0034 -0.8913  0.7539
   63CHL1   C14 7084   3.278   5.884   9.611 -0.0881 -0.3196 -0.1264
   63CHL1   H14 7085   3.372   5.833   9.579 -0.3377  0.9305 -3.0954
   63CHL1   C15 7086   3.268   6.000   9.522 -0.1708 -0.1227  1.2391
   63CHL1  H15A 7087   3.196   6.076   9.560  0.9449  1.2236  0.7450
   63CHL1  H15B 7088   3.365   6.050   9.501 -0.5613  0.7035  1.3734
   63CHL1   C16 7089   3.225   5.944   9.385  0.3033  0.4678  0.4587
   63CHL1  H16A 7090   3.129   5.994   9.360 -1.3817 -2.0884  1.4297
   63CHL1  H16B 7091   3.300   5.951   9.304 -0.1127 -0.6994 -0.0454
   63CHL1   C17 7092   3.183   5.797   9.409 -0.1591 -0.3459 -0.2744
   63CHL1   H17 7093   3.281   5.745   9.402  0.5424  0.5133  2.1913
   63CHL1   C13 7094   3.169   5.789   9.564 -0.4819  0.0161  0.1662
   63CHL1   C18 7095   3.031   5.849   9.600  0.6096  0.8451 -0.6458
   63CHL1  H18A 7096   3.009   5.943   9.546  1.6584  1.7749  0.5007
   63CHL1  H18B 7097   2.948   5.779   9.575  0.6358  0.1962  0.9707
   63CHL1  H18C 7098   3.019   5.861   9.710 -1.0841  3.8819 -1.0525
   63CHL1   C12 7099   3.205   5.658   9.638  0.4547  0.4471 -0.8925
   63CHL1  H12A 7100   3.149   5.564   9.617 -0.3435  0.1081  2.1681
   63CHL1  H12B 7101   3.306   5.625   9.607  1.6267  1.2574  1.7851
   63CHL1   C11 7102   3.214   5.668   9.793  0.1719  0.6721  0.0336
   63CHL1  H11A 7103   3.118   5.696   9.841  0.2440  0.7124  0.1541
   63CHL1  H11B 7104   3.239   5.566   9.827 -1.0297 -0.2853 -1.7558
   63CHL1    C9 7105   3.311   5.782   9.833 -0.5007  0.0545 -0.1151
   63CHL1    H9 7106   3.410   5.745   9.798  2.4461  2.7889  4.3133
   63CHL1   C10 7107   3.328   5.797   9.985 -0.0815  0.2931  0.8495
   63CHL1   C19 7108   3.188   5.808  10.056  0.1170 -0.1724 -0.0566
   63CHL1  H19A 7109   3.211   5.829  10.163  1.9143  0.2279 -0.4898
   63CHL1  H19B 7110   3.134   5.894  10.014  0.2106  1.0696  2.1873
   63CHL1  H19C 7111   3.126   5.719  10.033  1.5454 -1.6191  1.3679
   63CHL1    C1 7112   3.398   5.666  10.042  0.1319 -0.9744  0.3694
   63CHL1   H1A 7113   3.338   5.573  10.032 -1.0885 -0.2023  0.2443
   63CHL1   H1B 7114   3.491   5.651   9.983 -1.2168 -1.3913 -1.7972
   63CHL1    C2 7115   3.449   5.680  10.191  0.1323 -0.3976  0.3583
   63CHL1   H2A 7116   3.502   5.585  10.216 -0.9453 -1.3194 -0.7533
   63CHL1   H2B 7117   3.356   5.676  10.251 -1.8455 -0.3589 -2.5189
   63CHL1   C20 7118   3.080   5.733   9.317 -0.1873 -0.1720  0.2002
   63CHL1   H20 7119   2.979   5.775   9.337 -0.4786 -0.2041 -1.1206
   63CHL1   C21 7120   3.068   5.580   9.351 -0.0666  0.4731 -0.4372
   63CHL1  H21A 7121   2.996   5.534   9.281 -1.8354 -1.2565  2.3122
   63CHL1  H21B 7122   3.023   5.568   9.452  0.0127  0.9584 -0.3392
   63CHL1  H21C 7123   3.171   5.542   9.337 -0.2381  0.1803 -0.8912
   63CHL1   C22 7124   3.123   5.750   9.167 -0.1114  0.5777 -0.3718
   63CHL1  H22A 7125   3.041   5.696   9.116 -1.1125  0.0082  1.7281
   63CHL1  H22B 7126   3.124   5.857   9.137  0.6087  1.2524  1.8533
   63CHL1   C23 7127   3.256   5.687   9.113  0.2429  0.5061 -0.2371
   63CHL1  H23A 7128   3.333   5.761   9.141  2.0632 -0.8034 -1.5477
   63CHL1  H23B 7129   3.277   5.589   9.161 -2.4131 -0.3985 -0.7309
   63CHL1   C24 7130   3.264   5.672   8.960 -0.1627 -0.2597 -0.3165
   63CHL1  H24A 7131   3.180   5.608   8.926 -0.8451  0.2150  0.4384
   63CHL1  H24B 7132   3.248   5.772   8.914 -0.4880 -0.7342 -1.2478
   63CHL1   C25 7133   3.396   5.620   8.905 -0.4289  0.5404  0.0701
   63CHL1   H25 7134   3.405   5.510   8.918  2.5579  0.3800 -2.2706
   63CHL1   C26 7135   3.391   5.630   8.747  0.2841 -0.5061 -0.2550
   63CHL1  H26A 7136   3.391   5.737   8.717 -3.9591 -0.3067 -0.0576
   63CHL1  H26B 7137   3.477   5.576   8.701  0.4140 -2.5305  2.1590
   63CHL1  H26C 7138   3.292   5.583   8.728 -1.7649  2.5808  1.8619
   63CHL1   C27 7139   3.520   5.690   8.957 -0.6012 -0.9836  0.8163
   63CHL1  H27A 7140   3.509   5.795   8.925  1.6360 -1.5528 -2.2376
   63CHL1  H27B 7141   3.531   5.696   9.068 -0.9175 -0.9989  0.8510
   63CHL1  H27C 7142   3.612   5.646   8.912 -0.8613  1.3557 -2.3121
   64CHL1    C3 7143   1.442   4.768   9.817 -0.7902 -0.1614 -0.1319
   64CHL1    H3 7144   1.405   4.871   9.800  0.0789  0.8804  3.4057
   64CHL1    O3 7145   1.444   4.739   9.963  0.0116 -0.1614  0.4979
   64CHL1   H3' 7146   1.439   4.643   9.963  1.2276 -0.2580 -0.4956
   64CHL1    C4 7147   1.341   4.668   9.758 -0.1560 -0.1442  0.7012
   64CHL1   H4A 7148   1.387   4.569   9.782  0.8547  0.0443 -0.3441
   64CHL1   H4B 7149   1.236   4.668   9.794 -1.4889 -1.2439 -2.7761
   64CHL1    C5 7150   1.339   4.691   9.608 -0.2409 -0.1077  0.1345
   64CHL1    C6 7151   1.226   4.723   9.541  0.7794 -0.1669 -0.0511
   64CHL1    H6 7152   1.135   4.732   9.602  1.0614  1.1045  0.2161
   64CHL1    C7 7153   1.217   4.735   9.391 -0.7633 -0.1690  0.5160
   64CHL1   H7A 7154   1.121   4.702   9.347 -2.0826  2.9774  0.8010
   64CHL1   H7B 7155   1.209   4.845   9.378  1.1726  0.1189  1.3865
   64CHL1    C8 7156   1.341   4.670   9.317  0.6077 -1.3239  0.2511
   64CHL1    H8 7157   1.331   4.561   9.337 -0.2417 -1.8679 -2.7139
   64CHL1   C14 7158   1.342   4.701   9.173 -0.0550 -0.3691 -0.1596
   64CHL1   H14 7159   1.346   4.812   9.169 -0.9977 -0.3615 -1.3740
   64CHL1   C15 7160   1.216   4.661   9.095 -0.5383  0.2249  0.2815
   64CHL1  H15A 7161   1.200   4.551   9.101 -1.7333  0.2725 -1.4163
   64CHL1  H15B 7162   1.125   4.715   9.126  0.7861  2.3374  0.6981
   64CHL1   C16 7163   1.253   4.689   8.948 -0.2736  0.1707  0.0900
   64CHL1  H16A 7164   1.227   4.606   8.879 -0.6736 -0.9317  1.5217
   64CHL1  H16B 7165   1.196   4.778   8.913  0.0514 -0.0169 -0.9598
   64CHL1   C17 7166   1.411   4.705   8.951 -0.4881 -0.4545 -0.6946
   64CHL1   H17 7167   1.432   4.814   8.959  1.0798 -0.8537  1.2755
   64CHL1   C13 7168   1.464   4.649   9.093 -0.7128 -0.1891  0.2240
   64CHL1   C18 7169   1.471   4.498   9.090  0.6662  0.1608 -0.6194
   64CHL1  H18A 7170   1.470   4.463   9.196 -0.2158  4.1814  0.8957
   64CHL1  H18B 7171   1.386   4.458   9.031 -0.4509 -0.0858  1.0554
   64CHL1  H18C 7172   1.561   4.451   9.045  2.1019 -0.2963  2.4258
   64CHL1   C12 7173   1.595   4.710   9.158  0.3092 -0.1222  0.0721
   64CHL1  H12A 7174   1.694   4.683   9.116  1.0727  1.0044  1.0826
   64CHL1  H12B 7175   1.585   4.818   9.136 -0.6868  0.1391  1.5699
   64CHL1   C11 7176   1.601   4.684   9.307 -0.0133 -0.9783 -0.2456
   64CHL1  H11A 7177   1.622   4.575   9.319 -1.2682 -1.3322 -1.0094
   64CHL1  H11B 7178   1.692   4.736   9.343 -1.2373  2.9640 -2.2333
   64CHL1    C9 7179   1.468   4.718   9.389  0.4019 -0.1251  0.2193
   64CHL1    H9 7180   1.443   4.826   9.391  2.5440  0.4655 -1.4765
   64CHL1   C10 7181   1.477   4.674   9.540 -0.7309 -0.7274  0.7995
   64CHL1   C19 7182   1.519   4.525   9.549  0.6772  0.2007  0.7821
   64CHL1  H19A 7183   1.450   4.464   9.488  1.1505 -0.3159  0.7520
   64CHL1  H19B 7184   1.623   4.504   9.516  0.0935 -1.3739 -0.1407
   64CHL1  H19C 7185   1.522   4.492   9.656 -0.9433  0.0382  0.8020
   64CHL1    C1 7186   1.584   4.769   9.611  0.2196 -0.0761  0.4503
   64CHL1   H1A 7187   1.681   4.742   9.564 -1.6829 -0.7284 -3.4546
   64CHL1   H1B 7188   1.575   4.874   9.574 -0.2939  0.1778  1.2647
   64CHL1    C2 7189   1.588   4.753   9.758 -0.2847 -0.3643  0.3513
   64CHL1   H2A 7190   1.652   4.825   9.813 -1.3938  0.5677  0.4482
   64CHL1   H2B 7191   1.620   4.655   9.799  1.0148  0.3782  1.1699
   64CHL1   C20 7192   1.489   4.663   8.825  0.6821 -0.2836 -0.2323
   64CHL1   H20 7193   1.488   4.552   8.820  1.7244 -0.3334  0.4183
   64CHL1   C21 7194   1.640   4.704   8.828  0.6017  0.5885 -0.3643
   64CHL1  H21A 7195   1.685   4.636   8.903 -1.6305  0.2760  0.7643
   64CHL1  H21B 7196   1.654   4.812   8.847  0.1002  1.0680 -2.5025
   64CHL1  H21C 7197   1.684   4.692   8.726  0.5640  2.3620 -0.6248
   64CHL1   C22 7198   1.428   4.718   8.690  0.1688  0.1402  0.2520
   64CHL1  H22A 7199   1.317   4.718   8.695  0.0883 -1.6553 -0.7427
   64CHL1  H22B 7200   1.461   4.821   8.665  1.6415 -1.0169 -3.0989
   64CHL1   C23 7201   1.465   4.625   8.572  0.0351  0.2949  1.1282
   64CHL1  H23A 7202   1.576   4.630   8.567  0.1254  0.7459  2.8907
   64CHL1  H23B 7203   1.440   4.521   8.600 -0.5026  0.1606  0.1985
   64CHL1   C24 7204   1.410   4.682   8.438 -0.2851  0.5398 -0.7155
   64CHL1  H24A 7205   1.316   4.734   8.465  0.4417  1.5457 -0.0305
   64CHL1  H24B 7206   1.493   4.754   8.420  2.4434 -2.0356  0.6282
   64CHL1   C25 7207   1.386   4.576   8.328 -0.4681 -0.7397  0.0528
   64CHL1   H25 7208   1.485   4.530   8.308  1.0336  2.3925 -0.2094
   64CHL1   C26 7209   1.281   4.472   8.362  0.1075 -0.5553  0.2095
   64CHL1  H26A 7210   1.186   4.530   8.361  1.4044  1.6415 -0.0811
   64CHL1  H26B 7211   1.277   4.394   8.283  3.0287  1.9175 -2.6472
   64CHL1  H26C 7212   1.289   4.421   8.461  0.5692 -1.0640 -0.0800
   64CHL1   C27 7213   1.336   4.654   8.202 -0.2658  0.2395 -0.3190
   64CHL1  H27A 7214   1.322   4.589   8.113  1.7988  0.0211 -0.5183
   64CHL1  H27B 7215   1.239   4.705   8.222 -0.1964  0.2331  0.0498
   64CHL1  H27C 7216   1.409   4.732   8.172 -0.4447  0.7628  0.5727
   65CHL1    C3 7217   6.065   1.574  10.284  0.5185  0.4231  0.4234
   65CHL1    H3 7218   6.029   1.676  10.258  2.1919  0.5550 -1.5940
   65CHL1    O3 7219   6.076   1.566  10.429 -0.1238  0.2615 -0.2353
   65CHL1   H3' 7220   6.029   1.487  10.458  1.8047 -1.7595 -2.1438
   65CHL1    C4 7221   5.961   1.469  10.238  0.5477 -0.1348  0.3524
   65CHL1   H4A 7222   5.968   1.361  10.265 -2.0092 -0.6898 -0.9114
   65CHL1   H4B 7223   5.870   1.503  10.292  0.0754 -1.7407  0.6310
   65CHL1    C5 7224   5.943   1.461  10.086 -0.7131  0.0481 -0.2469
   65CHL1    C6 7225   5.824   1.476  10.020  0.6602  0.2424 -0.0352
   65CHL1    H6 7226   5.729   1.474  10.076  0.7376  0.5881  0.1124
   65CHL1    C7 7227   5.797   1.475   9.879  0.1175 -0.0026  0.5713
   65CHL1   H7A 7228   5.708   1.413   9.856 -0.7908  1.2327  0.6456
   65CHL1   H7B 7229   5.763   1.579   9.858 -0.3786 -0.4812 -1.1380
   65CHL1    C8 7230   5.915   1.454   9.784  0.1280  0.6951 -0.1621
   65CHL1    H8 7231   5.931   1.344   9.779 -1.2404  0.4772 -0.0829
   65CHL1   C14 7232   5.892   1.520   9.650 -0.0477 -0.2253 -0.4307
   65CHL1   H14 7233   5.895   1.630   9.658  1.4067 -0.1862 -1.2346
   65CHL1   C15 7234   5.759   1.484   9.570  0.2317  0.7331  0.2302
   65CHL1  H15A 7235   5.729   1.383   9.607 -1.7434  1.2806  0.2402
   65CHL1  H15B 7236   5.680   1.560   9.589 -1.9712 -1.3274 -0.2007
   65CHL1   C16 7237   5.798   1.506   9.427  0.3412 -0.1937  0.5331
   65CHL1  H16A 7238   5.796   1.413   9.367  1.2793  0.1014  0.0097
   65CHL1  H16B 7239   5.722   1.573   9.380  1.4598 -0.4708 -1.8315
   65CHL1   C17 7240   5.939   1.563   9.428 -0.4694  0.4249  0.3906
   65CHL1   H17 7241   5.926   1.674   9.429 -1.0142  0.3650  1.4192
   65CHL1   C13 7242   6.007   1.501   9.552  1.0798  0.0494 -0.6515
   65CHL1   C18 7243   6.034   1.350   9.532  0.7466 -0.7309  0.5154
   65CHL1  H18A 7244   6.101   1.325   9.447  0.6191 -0.8431  0.4474
   65CHL1  H18B 7245   6.078   1.311   9.627  3.0415  1.1387  0.3098
   65CHL1  H18C 7246   5.937   1.303   9.503  0.4616  1.0737 -1.7520
   65CHL1   C12 7247   6.134   1.574   9.600 -0.5343 -0.0675  0.3043
   65CHL1  H12A 7248   6.225   1.567   9.536 -0.7124 -2.0950  0.2049
   65CHL1  H12B 7249   6.109   1.682   9.613  3.4942  1.3132 -1.6313
   65CHL1   C11 7250   6.163   1.532   9.745  0.7542  0.1734 -0.3392
   65CHL1  H11A 7251   6.209   1.431   9.744 -1.4896 -0.9124  0.0677
   65CHL1  H11B 7252   6.225   1.608   9.797 -1.6094  0.1468  2.8139
   65CHL1    C9 7253   6.041   1.514   9.846 -0.4422 -0.2509 -0.2290
   65CHL1    H9 7254   6.015   1.620   9.867  2.0183  0.2795  0.4545
   65CHL1   C10 7255   6.076   1.462   9.997 -0.4621 -0.0788  0.0677
   65CHL1   C19 7256   6.134   1.315   9.993  0.0690  0.7282  0.7280
   65CHL1  H19A 7257   6.058   1.241   9.960  1.8047  0.5818 -3.5614
   65CHL1  H19B 7258   6.199   1.303   9.904  0.6006  0.7274  1.1185
   65CHL1  H19C 7259   6.178   1.278  10.088 -0.2421 -1.5909  0.0306
   65CHL1    C1 7260   6.179   1.565  10.055  0.7120 -0.0132 -0.3191
   65CHL1   H1A 7261   6.273   1.580   9.999 -0.1194  0.2763 -1.6995
   65CHL1   H1B 7262   6.129   1.663  10.040 -0.0672 -0.2720  0.4730
   65CHL1    C2 7263   6.200   1.551  10.208  0.3128  0.3214  0.2218
   65CHL1   H2A 7264   6.281   1.615  10.248  0.0383  0.5547  0.4085
   65CHL1   H2B 7265   6.231   1.446  10.228  1.0617  0.6341  0.7826
   65CHL1   C20 7266   6.012   1.528   9.291 -0.0109 -0.6751 -0.6143
   65CHL1   H20 7267   6.002   1.419   9.271 -1.1491 -1.1432  2.0818
   65CHL1   C21 7268   6.159   1.577   9.284  0.5339  0.0650 -0.4538
   65CHL1  H21A 7269   6.197   1.579   9.179  1.7762  1.0197  0.0029
   65CHL1  H21B 7270   6.225   1.509   9.341  1.3848  0.2998 -1.1434
   65CHL1  H21C 7271   6.164   1.675   9.336  0.5910 -0.5309  0.6776
   65CHL1   C22 7272   5.928   1.596   9.175 -0.6574 -0.7298 -0.4306
   65CHL1  H22A 7273   5.820   1.592   9.201 -0.4597  1.4077  0.9896
   65CHL1  H22B 7274   5.964   1.701   9.174  2.4812 -1.6617  1.5954
   65CHL1   C23 7275   5.937   1.533   9.037 -0.1716  0.0920  0.3216
   65CHL1  H23A 7276   6.045   1.516   9.017 -0.7976 -2.7893 -1.2436
   65CHL1  H23B 7277   5.872   1.443   9.044 -2.0912  0.9808 -3.1853
   65CHL1   C24 7278   5.876   1.635   8.941 -0.1009 -0.0699  0.8998
   65CHL1  H24A 7279   5.771   1.662   8.965 -1.0145 -0.8233 -1.8973
   65CHL1  H24B 7280   5.933   1.730   8.943  1.3561 -0.8550 -0.7096
   65CHL1   C25 7281   5.878   1.587   8.791 -0.7643 -0.6131 -0.7260
   65CHL1   H25 7282   5.974   1.535   8.771 -1.3139 -1.0831 -2.2241
   65CHL1   C26 7283   5.757   1.497   8.776 -0.4355 -0.2386 -0.3409
   65CHL1  H26A 7284   5.663   1.555   8.786 -0.8668 -1.2631  2.5360
   65CHL1  H26B 7285   5.754   1.452   8.674 -1.4944  0.1031 -0.4736
   65CHL1  H26C 7286   5.753   1.422   8.858  3.7992  1.3171  1.5679
   65CHL1   C27 7287   5.884   1.706   8.699  0.3545 -0.6131  0.5826
   65CHL1  H27A 7288   5.860   1.690   8.592  0.9022  1.6517  0.0724
   65CHL1  H27B 7289   5.809   1.781   8.733 -0.4357 -1.5798  1.0440
   65CHL1  H27C 7290   5.980   1.761   8.710 -0.6890  1.2146  0.8646
   66CHL1    C3 7291   3.631   0.405  10.467 -0.4017 -0.9253 -0.0246
   66CHL1    H3 7292   3.737   0.427  10.446 -0.6259  0.8699  0.5836
   66CHL1    O3 7293   3.622   0.379  10.604  0.0470  0.3334 -0.0077
   66CHL1   H3' 7294   3.669   0.296  10.618  0.2528  0.7932  2.6541
   66CHL1    C4 7295   3.535   0.526  10.435  0.2936 -0.0924  0.3315
   66CHL1   H4A 7296   3.436   0.516  10.484  0.8562  1.9070  2.0319
   66CHL1   H4B 7297   3.591   0.606  10.488 -0.3526  0.4916  0.1363
   66CHL1    C5 7298   3.519   0.547  10.285  0.1044  0.6474 -0.0928
   66CHL1    C6 7299   3.550   0.660  10.225  0.0478 -0.4335 -0.6780
   66CHL1    H6 7300   3.565   0.747  10.291  0.8285 -0.9740 -0.1193
   66CHL1    C7 7301   3.535   0.673  10.074  0.1559 -0.3994 -0.3447
   66CHL1   H7A 7302   3.488   0.769  10.045  1.1915 -0.4627 -2.4044
   66CHL1   H7B 7303   3.636   0.682  10.029  1.0076 -0.8433  1.3998
   66CHL1    C8 7304   3.470   0.563   9.990  0.3810  0.4987  0.3696
   66CHL1    H8 7305   3.362   0.579  10.011  0.2955  1.2076 -0.5199
   66CHL1   C14 7306   3.500   0.566   9.840 -0.5916 -0.6190 -0.7591
   66CHL1   H14 7307   3.607   0.538   9.837 -1.2014 -4.1908  2.5836
   66CHL1   C15 7308   3.488   0.704   9.782 -0.5366 -0.3979  0.5215
   66CHL1  H15A 7309   3.409   0.765   9.830  1.6794  1.3919  2.1362
   66CHL1  H15B 7310   3.579   0.767   9.795 -0.8840  0.0440  0.8484
   66CHL1   C16 7311   3.461   0.677   9.629  0.0403 -0.6674  0.2686
   66CHL1  H16A 7312   3.367   0.730   9.605 -0.3735 -1.3443  0.3720
   66CHL1  H16B 7313   3.545   0.720   9.569 -0.0109  1.5290  1.6538
   66CHL1   C17 7314   3.464   0.521   9.621  0.6673  0.3425  0.3719
   66CHL1   H17 7315   3.568   0.484   9.606  0.2762 -1.1840  1.2409
   66CHL1   C13 7316   3.420   0.472   9.757 -0.2808 -0.6889  0.0792
   66CHL1   C18 7317   3.269   0.508   9.780  0.1500  0.6414  0.2052
   66CHL1  H18A 7318   3.248   0.617   9.771 -0.5369  0.3722 -2.2171
   66CHL1  H18B 7319   3.195   0.457   9.714 -2.3186  0.2164  3.0732
   66CHL1  H18C 7320   3.234   0.475   9.880  0.7903 -1.0416 -0.0912
   66CHL1   C12 7321   3.458   0.335   9.803 -0.6242 -0.3678  0.2575
   66CHL1  H12A 7322   3.405   0.253   9.749 -1.4004  0.3726 -0.1243
   66CHL1  H12B 7323   3.567   0.330   9.780 -0.1246  1.7569  1.9313
   66CHL1   C11 7324   3.448   0.318   9.957 -0.1957  0.4827 -0.3749
   66CHL1  H11A 7325   3.339   0.308   9.976 -0.4762 -0.0741 -2.0538
   66CHL1  H11B 7326   3.486   0.219   9.991 -1.5307  0.3204  0.7296
   66CHL1    C9 7327   3.508   0.427  10.048 -0.1734 -0.2727 -0.2189
   66CHL1    H9 7328   3.616   0.426  10.021 -0.2885 -0.9775 -0.6562
   66CHL1   C10 7329   3.493   0.413  10.204  0.5147  0.7169 -0.1970
   66CHL1   C19 7330   3.347   0.380  10.228 -0.3814 -0.3724 -0.2072
   66CHL1  H19A 7331   3.278   0.442  10.168 -1.9879 -1.9691 -0.0916
   66CHL1  H19B 7332   3.316   0.277  10.201 -0.7865 -0.3006 -0.0181
   66CHL1  H19C 7333   3.318   0.396  10.334  1.1820  0.0309  0.1967
   66CHL1    C1 7334   3.584   0.297  10.250  0.2318  0.5871  0.1809
   66CHL1   H1A 7335   3.558   0.205  10.193  0.6651  1.5186 -1.5858
   66CHL1   H1B 7336   3.686   0.321  10.213 -0.7642  0.5617 -2.8132
   66CHL1    C2 7337   3.594   0.272  10.395 -0.8467  0.3570 -0.2441
   66CHL1   H2A 7338   3.672   0.193  10.409  0.0533  1.7433  4.0579
   66CHL1   H2B 7339   3.498   0.225  10.425  0.3593 -0.0329  3.4830
   66CHL1   C20 7340   3.390   0.463   9.494  0.3291 -1.0834 -0.4899
   66CHL1   H20 7341   3.279   0.464   9.498  0.2447  0.5414 -1.8983
   66CHL1   C21 7342   3.431   0.314   9.469  0.4451 -0.7332  0.6062
   66CHL1  H21A 7343   3.401   0.256   9.559  0.3829  1.0727  1.8040
   66CHL1  H21B 7344   3.539   0.287   9.461 -0.1642 -3.2684  0.1138
   66CHL1  H21C 7345   3.374   0.261   9.390 -1.0398  1.0980  0.3825
   66CHL1   C22 7346   3.421   0.550   9.363  0.1696  0.1567 -0.3331
   66CHL1  H22A 7347   3.368   0.647   9.366 -0.1047  0.0167 -0.5799
   66CHL1  H22B 7348   3.528   0.579   9.358 -0.3685  2.2266 -0.8534
   66CHL1   C23 7349   3.390   0.472   9.236  0.4550  0.2851  0.0164
   66CHL1  H23A 7350   3.455   0.382   9.230 -0.3685 -0.2471 -1.2971
   66CHL1  H23B 7351   3.282   0.448   9.225  0.5210 -0.0774  0.1251
   66CHL1   C24 7352   3.416   0.545   9.110  0.4645 -0.4882 -0.4243
   66CHL1  H24A 7353   3.347   0.633   9.114  0.2133 -0.6186 -1.6398
   66CHL1  H24B 7354   3.520   0.584   9.116  1.1567 -2.2798 -0.3010
   66CHL1   C25 7355   3.384   0.467   8.984 -0.3149 -0.2525  0.9328
   66CHL1   H25 7356   3.301   0.397   9.006 -0.3858  0.2655  2.4412
   66CHL1   C26 7357   3.336   0.556   8.867  0.1995  0.7859  0.6691
   66CHL1  H26A 7358   3.303   0.499   8.777 -1.1342  1.0533  0.9564
   66CHL1  H26B 7359   3.249   0.618   8.901 -0.2893 -0.2792  1.4056
   66CHL1  H26C 7360   3.415   0.627   8.834  0.5865 -0.5587 -1.4410
   66CHL1   C27 7361   3.501   0.385   8.941 -0.2201  0.1271  0.0070
   66CHL1  H27A 7362   3.490   0.351   8.836 -0.4029 -2.4262  0.7713
   66CHL1  H27B 7363   3.600   0.434   8.955  0.8499 -1.9829  0.2733
   66CHL1  H27C 7364   3.487   0.288   8.993  0.3229  0.5530  0.9723
   67CHL1    C3 7365   6.159   0.425  10.185 -0.1379  0.5361  0.4368
   67CHL1    H3 7366   6.192   0.531  10.179 -0.7328  0.6944 -0.0612
   67CHL1    O3 7367   6.183   0.386  10.322  0.4650 -0.0449 -0.0498
   67CHL1   H3' 7368   6.111   0.435  10.363  0.8404 -0.9666  1.8234
   67CHL1    C4 7369   6.011   0.408  10.157  0.4794  0.0259 -0.8359
   67CHL1   H4A 7370   5.986   0.304  10.189  0.8856 -0.0885 -0.8923
   67CHL1   H4B 7371   5.956   0.477  10.225  1.4208 -2.7783  3.1244
   67CHL1    C5 7372   5.975   0.432  10.013 -0.4026  0.4483  0.3417
   67CHL1    C6 7373   5.884   0.531   9.971 -0.1385  0.5223 -0.2186
   67CHL1    H6 7374   5.836   0.587  10.052  2.2583 -1.0301  2.4431
   67CHL1    C7 7375   5.854   0.556   9.824  0.3620 -0.6491 -0.6970
   67CHL1   H7A 7376   5.744   0.568   9.810  0.1048 -1.5305  0.4088
   67CHL1   H7B 7377   5.910   0.646   9.788  0.1140  1.4828  3.5610
   67CHL1    C8 7378   5.903   0.434   9.737  1.0292 -0.6826  0.6201
   67CHL1    H8 7379   5.828   0.355   9.758  1.2733 -0.7785  1.1398
   67CHL1   C14 7380   5.911   0.469   9.586 -0.8863 -0.3062 -0.1050
   67CHL1   H14 7381   6.005   0.526   9.578 -1.6554  0.9494 -0.3636
   67CHL1   C15 7382   5.805   0.575   9.541 -0.2471 -0.0074 -0.4667
   67CHL1  H15A 7383   5.700   0.543   9.556 -0.0870 -1.8933 -2.7417
   67CHL1  H15B 7384   5.832   0.681   9.563  1.6419 -0.3180 -1.0920
   67CHL1   C16 7385   5.816   0.566   9.388 -0.6722 -0.0563 -0.2496
   67CHL1  H16A 7386   5.718   0.536   9.347 -0.1716  2.0425 -3.4143
   67CHL1  H16B 7387   5.817   0.668   9.343 -0.3023  0.1541  0.2255
   67CHL1   C17 7388   5.926   0.460   9.357 -0.4609 -0.7707 -0.1497
   67CHL1   H17 7389   6.027   0.507   9.357 -0.5224 -0.6327 -0.8844
   67CHL1   C13 7390   5.934   0.363   9.483  0.5597 -0.3940  0.1498
   67CHL1   C18 7391   5.804   0.271   9.477 -0.1902 -0.4754 -0.1153
   67CHL1  H18A 7392   5.804   0.205   9.388  1.6222 -0.8684  0.1352
   67CHL1  H18B 7393   5.781   0.209   9.567 -0.5430 -1.0510 -0.5936
   67CHL1  H18C 7394   5.709   0.327   9.466  0.6508  0.6440 -2.4367
   67CHL1   C12 7395   6.067   0.292   9.519 -0.0482  0.0095  0.4866
   67CHL1  H12A 7396   6.090   0.195   9.469 -0.2406  0.6931 -0.9793
   67CHL1  H12B 7397   6.146   0.361   9.484 -0.7868  0.7888  0.3269
   67CHL1   C11 7398   6.082   0.263   9.671  0.3666 -0.3029 -1.1475
   67CHL1  H11A 7399   6.005   0.184   9.688 -1.4501  1.5624 -0.2029
   67CHL1  H11B 7400   6.183   0.229   9.701  0.3807  2.0996  2.0705
   67CHL1    C9 7401   6.042   0.375   9.775  0.3457 -0.9698 -0.3723
   67CHL1    H9 7402   6.117   0.456   9.762  1.2469 -1.3941  1.7467
   67CHL1   C10 7403   6.056   0.335   9.921  0.6232  0.1459 -0.7025
   67CHL1   C19 7404   5.983   0.201   9.934  0.7247 -0.0287 -0.0581
   67CHL1  H19A 7405   6.043   0.122   9.882  2.5393 -0.3319  2.3150
   67CHL1  H19B 7406   5.979   0.168  10.040  0.7862 -0.3884 -0.1644
   67CHL1  H19C 7407   5.883   0.203   9.886  0.3540 -0.1276  0.7004
   67CHL1    C1 7408   6.210   0.344   9.946 -0.1130  0.2476 -0.7461
   67CHL1   H1A 7409   6.269   0.280   9.877  0.0824  0.6895 -0.9946
   67CHL1   H1B 7410   6.245   0.447   9.925  2.1854 -0.5013 -0.8525
   67CHL1    C2 7411   6.245   0.324  10.097  0.6699  0.2275  0.1105
   67CHL1   H2A 7412   6.349   0.352  10.126  1.0757 -1.4028  0.3717
   67CHL1   H2B 7413   6.228   0.218  10.128  0.5668  0.5721  1.2844
   67CHL1   C20 7414   5.901   0.388   9.221 -0.8749  0.7705 -0.4126
   67CHL1   H20 7415   5.805   0.333   9.218 -0.5665  0.2713 -2.2120
   67CHL1   C21 7416   6.010   0.277   9.202  0.0821  0.5872 -0.3153
   67CHL1  H21A 7417   6.115   0.311   9.213  0.1141 -0.2467  2.7361
   67CHL1  H21B 7418   5.975   0.220   9.113  1.2957  0.2705 -0.6032
   67CHL1  H21C 7419   6.005   0.194   9.275 -1.6524  1.8992  1.1511
   67CHL1   C22 7420   5.890   0.493   9.105 -0.7702  0.3535  0.6847
   67CHL1  H22A 7421   5.806   0.559   9.134 -0.6448  0.9269 -0.2227
   67CHL1  H22B 7422   5.987   0.545   9.089  1.1523 -3.3205 -1.2948
   67CHL1   C23 7423   5.832   0.441   8.966  0.4192  0.7068 -0.5530
   67CHL1  H23A 7424   5.899   0.358   8.935 -1.5860 -1.4615  0.5749
   67CHL1  H23B 7425   5.728   0.402   8.974 -0.3123  2.0804 -2.5236
   67CHL1   C24 7426   5.823   0.542   8.851 -0.5896 -0.4630  0.7120
   67CHL1  H24A 7427   5.759   0.628   8.881 -0.9523  0.2383 -1.8482
   67CHL1  H24B 7428   5.924   0.584   8.831 -0.8034 -0.2888 -0.0353
   67CHL1   C25 7429   5.774   0.485   8.714  0.5257  0.3804 -0.8553
   67CHL1   H25 7430   5.786   0.565   8.638 -2.2297  1.5422 -0.1820
   67CHL1   C26 7431   5.861   0.370   8.664 -0.1143  0.4257  0.0732
   67CHL1  H26A 7432   5.861   0.281   8.731 -2.0678  0.2945 -0.0463
   67CHL1  H26B 7433   5.841   0.337   8.560 -1.6730 -0.3689  0.6032
   67CHL1  H26C 7434   5.962   0.417   8.662 -0.2691  0.7608  0.0220
   67CHL1   C27 7435   5.623   0.461   8.721 -0.4438 -0.0390  0.1756
   67CHL1  H27A 7436   5.592   0.377   8.786  0.2539 -2.4568 -2.4354
   67CHL1  H27B 7437   5.572   0.559   8.740 -1.7682 -1.0880  2.5621
   67CHL1  H27C 7438   5.587   0.428   8.622  1.7973 -0.1703 -0.6476
   68CHL1    C3 7439   5.258   1.241  10.117  0.1688 -0.0432  0.4610
   68CHL1    H3 7440   5.234   1.348  10.103  0.0497 -0.1093  0.1466
   68CHL1    O3 7441   5.247   1.219  10.255 -0.1610 -0.2582 -0.3966
   68CHL1   H3' 7442   5.329   1.261  10.284 -1.0332  2.2026 -1.2398
   68CHL1    C4 7443   5.159   1.146  10.049  0.2433 -0.6062  0.6202
   68CHL1   H4A 7444   5.193   1.041  10.063 -0.2466 -1.5304 -3.8498
   68CHL1   H4B 7445   5.058   1.158  10.094 -1.5799 -1.9570 -2.8178
   68CHL1    C5 7446   5.164   1.169   9.899 -0.7306 -0.6666  0.1846
   68CHL1    C6 7447   5.060   1.219   9.832 -0.6209 -0.1669  0.1467
   68CHL1    H6 7448   4.970   1.232   9.894 -1.4728 -1.4334 -0.7901
   68CHL1    C7 7449   5.054   1.233   9.686  0.2109  0.0229 -0.0076
   68CHL1   H7A 7450   4.962   1.185   9.645 -1.6465  2.4892  1.0493
   68CHL1   H7B 7451   5.049   1.339   9.654  0.8447 -0.0243 -0.2779
   68CHL1    C8 7452   5.181   1.177   9.612  0.4845  0.2912  0.7697
   68CHL1    H8 7453   5.159   1.069   9.597 -0.7000  0.5770  0.3214
   68CHL1   C14 7454   5.198   1.249   9.475  0.2066  0.8153  0.7273
   68CHL1   H14 7455   5.229   1.352   9.504  0.2112  0.7002  1.1307
   68CHL1   C15 7456   5.080   1.269   9.376 -0.1800 -0.8276 -0.4451
   68CHL1  H15A 7457   5.016   1.178   9.371 -2.8101  0.9640 -2.2171
   68CHL1  H15B 7458   5.001   1.340   9.409 -0.2982 -1.1580 -0.0054
   68CHL1   C16 7459   5.145   1.292   9.244 -0.1940  0.3059  0.3796
   68CHL1  H16A 7460   5.098   1.227   9.166  1.0630 -0.4966  0.2709
   68CHL1  H16B 7461   5.119   1.397   9.217 -0.5589 -0.0518 -0.7016
   68CHL1   C17 7462   5.297   1.282   9.260 -0.3760 -0.3662 -0.3055
   68CHL1   H17 7463   5.335   1.378   9.302 -0.9797 -0.1610 -0.2222
   68CHL1   C13 7464   5.318   1.196   9.386 -0.1476 -0.3595  0.0079
   68CHL1   C18 7465   5.307   1.043   9.344 -0.3836 -0.2473 -0.5525
   68CHL1  H18A 7466   5.244   1.039   9.253  3.3263  1.9572 -3.4924
   68CHL1  H18B 7467   5.401   0.989   9.322  0.4554  1.1060 -0.4312
   68CHL1  H18C 7468   5.257   0.984   9.423 -0.7229 -0.2899 -0.7975
   68CHL1   C12 7469   5.441   1.221   9.476 -0.2300  0.1044  0.6868
   68CHL1  H12A 7470   5.533   1.186   9.424 -1.5667 -0.1975 -1.6409
   68CHL1  H12B 7471   5.448   1.328   9.505 -1.6463  0.1657  0.8661
   68CHL1   C11 7472   5.430   1.147   9.608 -0.9741 -0.0237  0.0604
   68CHL1  H11A 7473   5.409   1.040   9.588  1.6960 -0.4101 -1.1606
   68CHL1  H11B 7474   5.523   1.169   9.664  0.4091 -0.9511 -1.7599
   68CHL1    C9 7475   5.311   1.194   9.689  0.2468 -0.5137 -0.2920
   68CHL1    H9 7476   5.322   1.304   9.696 -1.1669 -0.4031  0.7923
   68CHL1   C10 7477   5.303   1.141   9.836 -0.7802  0.4050  0.0511
   68CHL1   C19 7478   5.319   0.988   9.838  0.1462 -0.0528 -0.8065
   68CHL1  H19A 7479   5.414   0.955   9.791  0.8413  0.2307  0.3704
   68CHL1  H19B 7480   5.323   0.955   9.944 -0.4006  1.5096 -0.2762
   68CHL1  H19C 7481   5.232   0.936   9.791 -1.0225 -0.3618  1.5429
   68CHL1    C1 7482   5.413   1.214   9.924  0.4276  0.5528  0.5104
   68CHL1   H1A 7483   5.516   1.186   9.891  0.2141  1.9682 -1.5364
   68CHL1   H1B 7484   5.400   1.322   9.903  1.8428  1.0490  1.9599
   68CHL1    C2 7485   5.398   1.199  10.075 -0.1498  0.0381  0.2197
   68CHL1   H2A 7486   5.462   1.272  10.130  0.0447 -0.5527  0.7920
   68CHL1   H2B 7487   5.435   1.099  10.107 -0.2678  0.3425  1.3551
   68CHL1   C20 7488   5.381   1.249   9.131  0.3465 -0.3919  0.0799
   68CHL1   H20 7489   5.370   1.144   9.099  2.2000 -0.5789 -0.0155
   68CHL1   C21 7490   5.530   1.267   9.164 -0.5637 -0.1468 -0.2073
   68CHL1  H21A 7491   5.584   1.282   9.068  0.3995  0.2717  0.3845
   68CHL1  H21B 7492   5.567   1.177   9.217 -0.7443  0.1647  0.4550
   68CHL1  H21C 7493   5.541   1.350   9.237 -0.1625 -0.0598 -0.3665
   68CHL1   C22 7494   5.346   1.342   9.006 -0.8999  0.4483 -0.3400
   68CHL1  H22A 7495   5.373   1.449   9.020 -1.2896  0.5305 -0.1892
   68CHL1  H22B 7496   5.425   1.303   8.938 -2.3962  1.7411 -2.9931
   68CHL1   C23 7497   5.226   1.303   8.932  0.4800  0.1884  0.4366
   68CHL1  H23A 7498   5.204   1.194   8.940  0.8677 -0.0993 -1.6175
   68CHL1  H23B 7499   5.148   1.350   8.995  1.3382  2.0592  0.1688
   68CHL1   C24 7500   5.218   1.357   8.788  0.3906 -0.2416 -0.4657
   68CHL1  H24A 7501   5.268   1.456   8.790 -1.6747  0.8382  1.0688
   68CHL1  H24B 7502   5.277   1.288   8.723  2.1380 -0.1215  0.9237
   68CHL1   C25 7503   5.076   1.382   8.728 -0.5165  0.2628 -0.2759
   68CHL1   H25 7504   5.024   1.455   8.794 -1.3152  0.7348 -1.3763
   68CHL1   C26 7505   5.080   1.440   8.588  0.2734  0.2316 -0.1770
   68CHL1  H26A 7506   4.993   1.428   8.520  0.9793 -2.5513 -0.7060
   68CHL1  H26B 7507   5.105   1.548   8.599  0.6464  0.2666 -1.2171
   68CHL1  H26C 7508   5.163   1.388   8.535 -0.6131  0.6796 -2.0934
   68CHL1   C27 7509   4.993   1.251   8.724  0.3163  0.7388 -0.5148
   68CHL1  H27A 7510   5.019   1.180   8.805 -0.0940  0.4742 -0.6119
   68CHL1  H27B 7511   4.884   1.274   8.727 -0.3384 -1.8542 -1.5352
   68CHL1  H27C 7512   5.003   1.204   8.623 -0.3986 -0.9632  0.1761
   69CHL1    C3 7513   2.518   3.602   6.698  0.0866  0.3999 -0.0205
   69CHL1    H3 7514   2.490   3.709   6.690  0.9724  0.6777  0.4840
   69CHL1    O3 7515   2.558   3.566   6.565  0.4504  0.3127 -0.3436
   69CHL1   H3' 7516   2.474   3.571   6.519 -0.1718 -0.0007  0.7205
   69CHL1    C4 7517   2.636   3.583   6.793 -0.6528 -1.1904  0.4435
   69CHL1   H4A 7518   2.681   3.482   6.783 -0.3185 -0.9135 -1.2212
   69CHL1   H4B 7519   2.712   3.651   6.748 -0.1067 -1.6284  0.7001
   69CHL1    C5 7520   2.600   3.624   6.935  0.7309  1.0453  0.5382
   69CHL1    C6 7521   2.676   3.703   7.013 -0.6190  0.0671  0.1845
   69CHL1    H6 7522   2.773   3.745   6.984 -1.0114  1.7582  1.2237
   69CHL1    C7 7523   2.650   3.724   7.162  0.6207 -0.3053 -0.0795
   69CHL1   H7A 7524   2.739   3.707   7.226  1.2869 -2.1311 -1.4211
   69CHL1   H7B 7525   2.620   3.831   7.175 -0.5621 -0.2962 -2.4122
   69CHL1    C8 7526   2.532   3.649   7.226  0.1728 -0.2027 -0.3262
   69CHL1    H8 7527   2.576   3.553   7.261 -0.1093 -0.1955  0.0596
   69CHL1   C14 7528   2.475   3.718   7.351 -0.1985 -0.1872  0.0900
   69CHL1   H14 7529   2.413   3.805   7.320  2.4887  1.8308  0.1153
   69CHL1   C15 7530   2.584   3.761   7.449 -0.3046 -0.6620 -0.1164
   69CHL1  H15A 7531   2.666   3.688   7.466  0.1362 -0.2430 -0.4260
   69CHL1  H15B 7532   2.627   3.860   7.423 -0.4878 -0.6114 -0.2228
   69CHL1   C16 7533   2.504   3.776   7.584 -0.3450  0.2292  0.9087
   69CHL1  H16A 7534   2.553   3.715   7.663  1.4684  0.6396  0.1664
   69CHL1  H16B 7535   2.496   3.880   7.623  1.0358  0.5186  0.4743
   69CHL1   C17 7536   2.365   3.719   7.549  0.4669 -0.1229 -0.4148
   69CHL1   H17 7537   2.299   3.801   7.513  0.8426 -0.2565 -1.4347
   69CHL1   C13 7538   2.380   3.626   7.431  0.2063  0.0044 -0.3008
   69CHL1   C18 7539   2.454   3.492   7.484  0.1597  0.4261  0.1938
   69CHL1  H18A 7540   2.494   3.418   7.410  1.1967  0.7624  0.3958
   69CHL1  H18B 7541   2.545   3.518   7.542  1.4033  0.1903 -1.5477
   69CHL1  H18C 7542   2.385   3.447   7.559 -0.5436  0.2303 -0.5549
   69CHL1   C12 7543   2.260   3.602   7.335  0.8528  0.0306 -0.8394
   69CHL1  H12A 7544   2.175   3.548   7.382  2.1484  0.3068  2.0616
   69CHL1  H12B 7545   2.215   3.703   7.322 -0.3663 -0.6530 -2.2318
   69CHL1   C11 7546   2.292   3.547   7.193  0.3350 -0.1163  0.4714
   69CHL1  H11A 7547   2.318   3.441   7.214 -0.0825  0.3582  3.8906
   69CHL1  H11B 7548   2.199   3.549   7.133 -0.1735  0.0602  1.2623
   69CHL1    C9 7549   2.417   3.626   7.126 -0.1089  0.5048  0.5976
   69CHL1    H9 7550   2.380   3.729   7.105 -3.0883 -0.5561  0.1946
   69CHL1   C10 7551   2.465   3.563   6.989 -0.0884  0.0004  0.3634
   69CHL1   C19 7552   2.502   3.418   7.011 -0.2245  0.1156  1.1063
   69CHL1  H19A 7553   2.411   3.353   7.011 -0.4432  0.3840 -0.4941
   69CHL1  H19B 7554   2.566   3.372   6.933 -0.7353  0.4630  0.4712
   69CHL1  H19C 7555   2.556   3.409   7.108  0.2822  0.4625  0.8563
   69CHL1    C1 7556   2.349   3.562   6.885  0.5592 -0.0908 -0.1308
   69CHL1   H1A 7557   2.269   3.496   6.926  2.1743 -1.1985  1.4150
   69CHL1   H1B 7558   2.295   3.658   6.879  0.4272 -0.2671 -2.8873
   69CHL1    C2 7559   2.393   3.519   6.742  1.0848  0.6123  0.4476
   69CHL1   H2A 7560   2.312   3.541   6.670  2.3753 -3.3136 -2.5108
   69CHL1   H2B 7561   2.425   3.413   6.745  0.7728  0.5326  1.6935
   69CHL1   C20 7562   2.292   3.678   7.678  0.4914  0.7289  0.5688
   69CHL1   H20 7563   2.353   3.596   7.721  1.4620  1.4026  0.5145
   69CHL1   C21 7564   2.158   3.610   7.644 -0.0401 -0.2469 -0.2627
   69CHL1  H21A 7565   2.092   3.683   7.592  0.0383  0.0759  0.0881
   69CHL1  H21B 7566   2.114   3.576   7.740 -0.4116  1.1543  0.0873
   69CHL1  H21C 7567   2.170   3.515   7.587  1.0215 -0.4546  0.2992
   69CHL1   C22 7568   2.283   3.800   7.772  1.0183  0.4416  0.7498
   69CHL1  H22A 7569   2.385   3.842   7.785  1.1625  0.2638  0.2037
   69CHL1  H22B 7570   2.198   3.862   7.738  0.5473 -1.4195 -1.7509
   69CHL1   C23 7571   2.254   3.753   7.918  0.0931 -0.2574 -0.2524
   69CHL1  H23A 7572   2.170   3.683   7.934  0.7868 -0.5813  2.4410
   69CHL1  H23B 7573   2.344   3.693   7.941  0.8643  1.3361  1.1359
   69CHL1   C24 7574   2.244   3.871   8.018 -1.1545 -0.3439 -0.1461
   69CHL1  H24A 7575   2.312   3.955   7.993 -1.7022  0.4022  0.7804
   69CHL1  H24B 7576   2.147   3.922   8.001 -1.2852 -1.2284 -2.3372
   69CHL1   C25 7577   2.263   3.836   8.173 -0.1058 -0.1481  0.4354
   69CHL1   H25 7578   2.202   3.745   8.194 -0.0520 -0.9229 -2.2937
   69CHL1   C26 7579   2.401   3.780   8.192 -0.2990  0.1674 -0.1076
   69CHL1  H26A 7580   2.415   3.783   8.302  1.3949 -1.0100 -0.2511
   69CHL1  H26B 7581   2.406   3.672   8.166 -2.7115  0.2802 -1.2943
   69CHL1  H26C 7582   2.480   3.849   8.155  0.8124 -1.1738 -0.3270
   69CHL1   C27 7583   2.222   3.949   8.267  0.0350  0.0915  0.2660
   69CHL1  H27A 7584   2.151   4.020   8.218 -1.1684 -0.3617  1.3011
   69CHL1  H27B 7585   2.179   3.931   8.368 -1.6137  3.4824  0.3160
   69CHL1  H27C 7586   2.313   4.011   8.281  1.4145 -1.4671 -1.3269
   70CHL1    C3 7587   2.499   6.638   7.052 -0.7425  0.1199 -0.2176
   70CHL1    H3 7588   2.409   6.577   7.076 -1.3105  0.7135 -0.7934
   70CHL1    O3 7589   2.489   6.649   6.912 -0.9304  0.3458 -0.5823
   70CHL1   H3' 7590   2.405   6.694   6.903 -1.3724 -0.6708 -1.8643
   70CHL1    C4 7591   2.488   6.782   7.117  0.7810 -0.5680 -0.1309
   70CHL1   H4A 7592   2.551   6.858   7.067  2.0030 -0.4624  1.4970
   70CHL1   H4B 7593   2.381   6.803   7.094  1.4318  2.2740 -0.8950
   70CHL1    C5 7594   2.509   6.782   7.271  0.2818  0.3367  0.5592
   70CHL1    C6 7595   2.416   6.824   7.353  0.0143 -0.0365 -1.0408
   70CHL1    H6 7596   2.326   6.878   7.320 -0.3186  0.9733  1.3022
   70CHL1    C7 7597   2.439   6.829   7.497  0.0189  0.0233  0.7160
   70CHL1   H7A 7598   2.413   6.929   7.539 -1.1808 -1.2386  3.1669
   70CHL1   H7B 7599   2.371   6.758   7.549  0.2426  0.0111  0.9894
   70CHL1    C8 7600   2.588   6.805   7.541 -0.1169  0.3258 -0.1353
   70CHL1    H8 7601   2.653   6.893   7.522  1.8266 -1.2102 -1.0017
   70CHL1   C14 7602   2.576   6.758   7.683 -0.4674 -0.3364 -0.1377
   70CHL1   H14 7603   2.524   6.661   7.669 -1.4457 -0.0131  1.0156
   70CHL1   C15 7604   2.491   6.850   7.785 -0.1388 -0.3001  0.0734
   70CHL1  H15A 7605   2.523   6.956   7.779  0.5731 -0.4978  0.3227
   70CHL1  H15B 7606   2.381   6.839   7.773 -0.1224 -2.8319  1.4190
   70CHL1   C16 7607   2.529   6.803   7.925  0.3947  0.8383 -0.3856
   70CHL1  H16A 7608   2.563   6.893   7.981  1.6615 -0.2601  0.6871
   70CHL1  H16B 7609   2.448   6.744   7.973 -0.4937  0.1395 -2.5807
   70CHL1   C17 7610   2.652   6.697   7.895 -0.3050 -0.2628 -0.4416
   70CHL1   H17 7611   2.611   6.594   7.899  0.6422 -0.6363 -0.0876
   70CHL1   C13 7612   2.709   6.725   7.754  0.5683  0.1623  0.0608
   70CHL1   C18 7613   2.802   6.843   7.752 -0.9257 -0.0229 -0.7430
   70CHL1  H18A 7614   2.779   6.924   7.824  1.3650  0.0909 -0.0746
   70CHL1  H18B 7615   2.900   6.802   7.784 -0.7095 -0.4639 -1.9220
   70CHL1  H18C 7616   2.815   6.900   7.657  2.7494  2.1751  0.8529
   70CHL1   C12 7617   2.782   6.614   7.677 -0.8632 -0.3597 -0.3892
   70CHL1  H12A 7618   2.887   6.609   7.712 -1.0072 -0.5143  0.0367
   70CHL1  H12B 7619   2.729   6.517   7.689 -0.1748 -0.9046 -1.6735
   70CHL1   C11 7620   2.789   6.645   7.526 -0.2897  0.3724  0.1304
   70CHL1  H11A 7621   2.868   6.719   7.503  0.1222 -0.3189 -0.7265
   70CHL1  H11B 7622   2.829   6.553   7.478 -0.8506 -1.2630  2.5949
   70CHL1    C9 7623   2.656   6.687   7.462 -0.5743 -0.0907 -0.2690
   70CHL1    H9 7624   2.595   6.595   7.472  1.0280 -1.4842 -2.4121
   70CHL1   C10 7625   2.641   6.711   7.310  0.0653 -0.0417  0.1925
   70CHL1   C19 7626   2.750   6.811   7.271 -0.0477  0.2673  0.3707
   70CHL1  H19A 7627   2.745   6.833   7.162  0.6479  1.0915  0.4920
   70CHL1  H19B 7628   2.736   6.911   7.317  3.0118  0.9426  0.0756
   70CHL1  H19C 7629   2.852   6.771   7.288  1.2603  1.9499 -2.7277
   70CHL1    C1 7630   2.659   6.573   7.243 -0.2663 -0.4426  1.0204
   70CHL1   H1A 7631   2.763   6.537   7.261  0.0890  0.9568  1.9538
   70CHL1   H1B 7632   2.590   6.505   7.297  0.7460 -0.3615  2.4802
   70CHL1    C2 7633   2.634   6.566   7.090 -0.4450  0.2426 -0.3321
   70CHL1   H2A 7634   2.625   6.463   7.048  0.1561  0.5658 -1.2851
   70CHL1   H2B 7635   2.721   6.610   7.037 -1.6169 -0.2959 -2.8215
   70CHL1   C20 7636   2.756   6.695   8.007  0.2411  0.1909 -0.5719
   70CHL1   H20 7637   2.795   6.798   7.996 -0.1402  0.4313  0.2902
   70CHL1   C21 7638   2.857   6.583   7.995  0.4306 -0.2117  0.5208
   70CHL1  H21A 7639   2.911   6.584   7.898  0.0011  0.5319  0.2833
   70CHL1  H21B 7640   2.804   6.485   8.008 -2.5682  1.1662 -0.3481
   70CHL1  H21C 7641   2.938   6.600   8.069  0.0153 -0.6602  1.0864
   70CHL1   C22 7642   2.695   6.701   8.155 -0.6907  0.3081 -0.7141
   70CHL1  H22A 7643   2.774   6.695   8.233 -2.5354 -2.1435  1.0960
   70CHL1  H22B 7644   2.631   6.791   8.163 -0.7768  0.2355 -0.6032
   70CHL1   C23 7645   2.597   6.585   8.194 -0.5286 -0.0773 -0.0227
   70CHL1  H23A 7646   2.515   6.601   8.120 -1.2674  3.2611  1.3434
   70CHL1  H23B 7647   2.647   6.486   8.183  2.1027  1.2040 -0.3218
   70CHL1   C24 7648   2.541   6.591   8.333  0.1506 -0.0291 -0.6282
   70CHL1  H24A 7649   2.469   6.506   8.339 -0.9802  0.9294 -0.3086
   70CHL1  H24B 7650   2.614   6.551   8.407 -3.6227 -1.6087  2.5767
   70CHL1   C25 7651   2.475   6.724   8.374 -0.1186 -0.0244 -0.5327
   70CHL1   H25 7652   2.539   6.808   8.342  0.2472 -0.4101 -0.8318
   70CHL1   C26 7653   2.342   6.746   8.295 -0.4857 -0.3445  0.3299
   70CHL1  H26A 7654   2.276   6.661   8.324 -1.1284  0.3736  0.9958
   70CHL1  H26B 7655   2.291   6.838   8.330 -2.9069 -0.7214 -1.8516
   70CHL1  H26C 7656   2.368   6.746   8.186  0.1234  1.6312  0.4292
   70CHL1   C27 7657   2.459   6.727   8.531 -0.4354 -0.4073  0.2991
   70CHL1  H27A 7658   2.418   6.635   8.577 -2.1092 -0.2975 -0.8594
   70CHL1  H27B 7659   2.566   6.727   8.562 -0.1909  0.2588 -0.4881
   70CHL1  H27C 7660   2.406   6.815   8.572  1.3101  0.5692  0.5756
   71CHL1    C3 7661   1.943   1.529   6.674 -0.2194  0.0685  0.2281
   71CHL1    H3 7662   1.851   1.474   6.704 -0.3146 -0.1692 -0.4845
   71CHL1    O3 7663   1.939   1.533   6.532 -0.1661 -0.0591 -0.3226
   71CHL1   H3' 7664   2.028   1.536   6.496 -0.8536  1.6473 -2.1321
   71CHL1    C4 7665   1.921   1.678   6.723 -0.2867 -0.3086  0.1053
   71CHL1   H4A 7666   1.995   1.734   6.662 -0.3176 -1.3129 -0.8909
   71CHL1   H4B 7667   1.815   1.699   6.698 -0.3494 -0.6519  0.0753
   71CHL1    C5 7668   1.944   1.688   6.868  0.1444  0.3485  0.3329
   71CHL1    C6 7669   1.858   1.744   6.949  0.5510  0.4499  0.4654
   71CHL1    H6 7670   1.768   1.766   6.891 -0.7587 -2.4121  1.2526
   71CHL1    C7 7671   1.870   1.765   7.094  0.7005  0.2458 -0.2498
   71CHL1   H7A 7672   1.851   1.871   7.119  1.1833  0.1328  0.6066
   71CHL1   H7B 7673   1.801   1.701   7.154  1.0760  0.3483  0.2897
   71CHL1    C8 7674   2.018   1.745   7.140  0.1305  0.3203  0.4782
   71CHL1    H8 7675   2.072   1.830   7.091  2.3989 -2.1551 -1.6215
   71CHL1   C14 7676   2.026   1.747   7.288  0.3012  1.0245 -0.2596
   71CHL1   H14 7677   1.958   1.666   7.322  0.3139  1.6124  1.2601
   71CHL1   C15 7678   1.975   1.870   7.366  0.4699  0.3192  0.0925
   71CHL1  H15A 7679   2.009   1.967   7.325 -3.2133  1.2612 -1.1054
   71CHL1  H15B 7680   1.864   1.866   7.363  0.4273 -0.9205  1.6562
   71CHL1   C16 7681   2.019   1.856   7.514  0.2167 -0.2946  0.6012
   71CHL1  H16A 7682   2.082   1.944   7.538 -0.7742  0.1561  1.6525
   71CHL1  H16B 7683   1.949   1.855   7.601  0.7461  1.5031  1.0728
   71CHL1   C17 7684   2.114   1.733   7.504 -0.4411 -0.4707 -0.3891
   71CHL1   H17 7685   2.064   1.636   7.522  2.5027 -1.5905  2.9488
   71CHL1   C13 7686   2.157   1.720   7.348  0.2071 -0.7586  0.1665
   71CHL1   C18 7687   2.259   1.827   7.312 -0.0487 -0.7020 -0.2832
   71CHL1  H18A 7688   2.293   1.816   7.207  1.7401 -0.1246  0.2061
   71CHL1  H18B 7689   2.215   1.929   7.307  0.5954 -0.4327 -0.5921
   71CHL1  H18C 7690   2.351   1.826   7.373 -0.9211  1.9988  1.2696
   71CHL1   C12 7691   2.215   1.581   7.300  0.5495 -0.2436  0.4876
   71CHL1  H12A 7692   2.315   1.568   7.348  1.0958  2.7793  0.4016
   71CHL1  H12B 7693   2.149   1.498   7.332  1.6975 -0.8225  1.4482
   71CHL1   C11 7694   2.215   1.576   7.141 -0.1427  0.3671 -0.0694
   71CHL1  H11A 7695   2.296   1.633   7.090 -1.9685  2.3524 -0.8735
   71CHL1  H11B 7696   2.248   1.475   7.108 -0.3364  0.0804  0.6157
   71CHL1    C9 7697   2.078   1.612   7.078  0.2808 -0.1538 -0.2935
   71CHL1    H9 7698   2.008   1.533   7.113 -0.5061 -0.4688 -2.4387
   71CHL1   C10 7699   2.075   1.622   6.926  0.2959  0.7223 -0.4398
   71CHL1   C19 7700   2.187   1.722   6.883  0.7322  0.4237 -0.3147
   71CHL1  H19A 7701   2.194   1.814   6.945  0.5891  0.9554 -1.0691
   71CHL1  H19B 7702   2.288   1.679   6.901  0.7792  1.6045  2.8519
   71CHL1  H19C 7703   2.175   1.758   6.778  0.1363  0.3796 -0.2690
   71CHL1    C1 7704   2.084   1.476   6.868  0.0530 -0.6927 -0.0521
   71CHL1   H1A 7705   2.174   1.425   6.908  0.9978  0.7537 -0.2648
   71CHL1   H1B 7706   2.000   1.418   6.913  0.5067 -0.0541  1.6833
   71CHL1    C2 7707   2.075   1.468   6.721  0.4965 -0.9225  0.5374
   71CHL1   H2A 7708   2.081   1.360   6.693  0.5436 -0.7542 -0.1065
   71CHL1   H2B 7709   2.159   1.510   6.662  0.5030 -0.7752  0.6516
   71CHL1   C20 7710   2.221   1.736   7.611  0.0937 -0.5379  0.0230
   71CHL1   H20 7711   2.275   1.832   7.597 -1.4256  0.6343  1.7582
   71CHL1   C21 7712   2.317   1.621   7.604  0.2344  0.2075  0.0691
   71CHL1  H21A 7713   2.392   1.612   7.523 -0.0112  0.7744 -0.2249
   71CHL1  H21B 7714   2.259   1.527   7.620 -0.8244  0.9075  0.4797
   71CHL1  H21C 7715   2.387   1.619   7.690  2.5073 -2.4905 -1.6355
   71CHL1   C22 7716   2.181   1.754   7.761 -0.2041 -0.3045  0.2040
   71CHL1  H22A 7717   2.089   1.814   7.776  0.9720  1.4783  0.4921
   71CHL1  H22B 7718   2.155   1.648   7.786  0.3603 -0.9076 -1.5885
   71CHL1   C23 7719   2.292   1.829   7.833 -0.3817  0.2862 -0.1273
   71CHL1  H23A 7720   2.391   1.782   7.813 -2.4328 -3.9997 -1.3387
   71CHL1  H23B 7721   2.298   1.927   7.781 -1.8618  1.7369  2.2618
   71CHL1   C24 7722   2.248   1.855   7.978 -0.0293 -0.0005 -0.2142
   71CHL1  H24A 7723   2.155   1.915   7.989  0.4579  1.0781 -1.6938
   71CHL1  H24B 7724   2.232   1.757   8.027 -0.3799  0.3994  0.4860
   71CHL1   C25 7725   2.347   1.950   8.049  0.3343 -0.2953 -1.0613
   71CHL1   H25 7726   2.448   1.905   8.051  1.7747  2.6707  0.8480
   71CHL1   C26 7727   2.371   2.077   7.975  0.5860  0.0266 -0.3984
   71CHL1  H26A 7728   2.431   2.075   7.882  0.2961  3.0345 -0.7555
   71CHL1  H26B 7729   2.270   2.122   7.963  0.3276 -0.3053  0.4480
   71CHL1  H26C 7730   2.423   2.150   8.041  0.5962 -1.3581  1.1977
   71CHL1   C27 7731   2.299   1.976   8.195 -0.0001  0.2895  0.4098
   71CHL1  H27A 7732   2.303   1.885   8.260  0.4613  0.8355  1.1719
   71CHL1  H27B 7733   2.340   2.064   8.249  0.6255  0.5938 -0.5342
   71CHL1  H27C 7734   2.192   2.005   8.193 -0.7846 -2.1548  2.1801
   72CHL1    C3 7735   1.485   6.536   7.023 -0.8873 -0.4025  0.7078
   72CHL1    H3 7736   1.521   6.436   7.056 -1.3809 -0.7728  0.1350
   72CHL1    O3 7737   1.473   6.528   6.878 -0.1757 -0.2242 -0.6881
   72CHL1   H3' 7738   1.472   6.620   6.848 -2.4662  1.4694  3.6569
   72CHL1    C4 7739   1.345   6.568   7.079  0.5380 -0.6551  0.1183
   72CHL1   H4A 7740   1.320   6.673   7.055 -0.0762 -1.1659 -1.6059
   72CHL1   H4B 7741   1.265   6.505   7.035 -2.9961  3.2808  0.2646
   72CHL1    C5 7742   1.346   6.564   7.235 -0.5280  0.1222  0.4329
   72CHL1    C6 7743   1.263   6.488   7.299  0.3674  0.5282 -0.5173
   72CHL1    H6 7744   1.199   6.418   7.242 -2.4462  2.4811  0.0049
   72CHL1    C7 7745   1.263   6.475   7.446 -0.2555 -0.3961 -0.2392
   72CHL1   H7A 7746   1.158   6.467   7.481 -0.5100 -1.0291 -1.1016
   72CHL1   H7B 7747   1.310   6.380   7.482  0.2911  0.1444  0.4960
   72CHL1    C8 7748   1.333   6.593   7.515  0.2709  0.4233 -0.4338
   72CHL1    H8 7749   1.261   6.675   7.497 -2.3161 -1.6536 -0.1648
   72CHL1   C14 7750   1.360   6.572   7.663  0.0432  0.4945 -0.9196
   72CHL1   H14 7751   1.445   6.502   7.666  0.6425  1.0979  3.1204
   72CHL1   C15 7752   1.248   6.509   7.749 -0.7034  0.4059  0.1372
   72CHL1  H15A 7753   1.140   6.521   7.726 -0.4693 -0.3827 -1.5119
   72CHL1  H15B 7754   1.273   6.402   7.734  0.4121  0.0629  3.6290
   72CHL1   C16 7755   1.282   6.546   7.887 -0.2931 -0.0081  0.2265
   72CHL1  H16A 7756   1.201   6.615   7.917 -0.9344 -1.1463  1.2081
   72CHL1  H16B 7757   1.289   6.458   7.955  3.4397 -0.8173 -0.9514
   72CHL1   C17 7758   1.416   6.618   7.881  0.8255 -0.0227 -0.0542
   72CHL1   H17 7759   1.490   6.536   7.875 -0.0723 -1.0077  1.5293
   72CHL1   C13 7760   1.415   6.686   7.737 -0.1938 -0.2160  0.5790
   72CHL1   C18 7761   1.315   6.805   7.738 -0.0842  0.3374  0.4211
   72CHL1  H18A 7762   1.294   6.828   7.631 -0.4383 -1.8080 -0.0152
   72CHL1  H18B 7763   1.230   6.775   7.802 -0.9716 -0.9309 -1.2757
   72CHL1  H18C 7764   1.365   6.886   7.795 -1.0650  0.2760  1.3879
   72CHL1   C12 7765   1.554   6.722   7.683 -0.6794 -0.1105  0.5509
   72CHL1  H12A 7766   1.589   6.822   7.715  1.1913  0.0351 -1.7190
   72CHL1  H12B 7767   1.628   6.644   7.711  0.0796  0.8536  1.2900
   72CHL1   C11 7768   1.556   6.732   7.531  0.3703  0.3179  0.0658
   72CHL1  H11A 7769   1.492   6.821   7.514  0.1892 -0.1382 -1.9922
   72CHL1  H11B 7770   1.656   6.747   7.484  0.5682 -0.5215  0.2050
   72CHL1    C9 7771   1.471   6.625   7.449  0.2669 -0.4157 -0.2068
   72CHL1    H9 7772   1.530   6.531   7.447  0.0663 -0.5416 -0.1328
   72CHL1   C10 7773   1.458   6.656   7.296  0.3522  0.1904  0.7181
   72CHL1   C19 7774   1.415   6.805   7.273  0.0193 -0.2491 -0.1339
   72CHL1  H19A 7775   1.494   6.877   7.305  0.0237  0.8368 -2.3926
   72CHL1  H19B 7776   1.406   6.842   7.168  1.0959  0.2817 -0.0616
   72CHL1  H19C 7777   1.320   6.830   7.324  0.4530  1.7755 -0.2090
   72CHL1    C1 7778   1.598   6.637   7.229 -0.4223  0.1054  0.2482
   72CHL1   H1A 7779   1.672   6.710   7.267  0.0718 -0.9402  1.3719
   72CHL1   H1B 7780   1.632   6.535   7.258  0.4099  0.2267 -0.2537
   72CHL1    C2 7781   1.586   6.639   7.082  0.2089 -0.4663  0.3702
   72CHL1   H2A 7782   1.684   6.606   7.040 -0.3219 -0.7148 -0.7004
   72CHL1   H2B 7783   1.573   6.744   7.048 -0.1948 -0.6896 -0.1892
   72CHL1   C20 7784   1.441   6.708   8.005  0.2995 -1.3573 -0.7628
   72CHL1   H20 7785   1.389   6.805   7.993 -0.7657 -2.1007 -2.7449
   72CHL1   C21 7786   1.595   6.736   8.005 -0.0620  0.0087 -0.1375
   72CHL1  H21A 7787   1.621   6.796   8.095 -0.9879 -0.3003  0.3534
   72CHL1  H21B 7788   1.628   6.807   7.926  0.3289 -0.6770 -0.5917
   72CHL1  H21C 7789   1.650   6.640   8.006  0.3367  0.2222 -1.1289
   72CHL1   C22 7790   1.396   6.648   8.146  0.5488  0.2847  0.3927
   72CHL1  H22A 7791   1.293   6.608   8.138  0.7095 -0.2777  1.0088
   72CHL1  H22B 7792   1.473   6.571   8.169  4.3284  2.6304 -2.9673
   72CHL1   C23 7793   1.392   6.750   8.261 -0.1320 -0.0031  0.7862
   72CHL1  H23A 7794   1.492   6.772   8.305 -0.1966 -1.4421  1.6941
   72CHL1  H23B 7795   1.344   6.837   8.212 -1.0449 -0.5483  0.7042
   72CHL1   C24 7796   1.308   6.698   8.372  0.6232 -0.0782 -0.1499
   72CHL1  H24A 7797   1.202   6.672   8.348  0.1820  0.4654  1.1291
   72CHL1  H24B 7798   1.349   6.596   8.390  2.0442  0.2260 -1.4802
   72CHL1   C25 7799   1.328   6.766   8.512  0.2915 -1.0688  0.7897
   72CHL1   H25 7800   1.429   6.813   8.519  0.1474 -0.4634 -0.8017
   72CHL1   C26 7801   1.218   6.870   8.548 -0.0754  0.9613  1.0213
   72CHL1  H26A 7802   1.238   6.916   8.647 -1.8318  4.0938  0.0439
   72CHL1  H26B 7803   1.228   6.947   8.469  0.5141 -1.3766 -1.3378
   72CHL1  H26C 7804   1.124   6.815   8.531  0.6322 -0.1982  0.7188
   72CHL1   C27 7805   1.310   6.658   8.618 -0.8661 -0.2481 -0.2345
   72CHL1  H27A 7806   1.206   6.619   8.622 -1.3097  1.0097  1.1140
   72CHL1  H27B 7807   1.381   6.573   8.608 -2.4717 -1.6007 -0.6923
   72CHL1  H27C 7808   1.327   6.695   8.721  2.1568  1.8070 -1.3428
   73CHL1    C3 7809   2.302   3.944   6.863 -0.4303 -0.1308 -0.0522
   73CHL1    H3 7810   2.314   3.849   6.918  0.8421 -0.3966 -0.7653
   73CHL1    O3 7811   2.271   3.901   6.731 -0.5539  0.1009 -0.2953
   73CHL1   H3' 7812   2.228   3.973   6.684 -2.3084 -0.2359  0.7129
   73CHL1    C4 7813   2.186   4.026   6.929  0.4071 -0.2064 -0.4558
   73CHL1   H4A 7814   2.165   4.117   6.870 -0.2409 -0.5256 -0.7216
   73CHL1   H4B 7815   2.097   3.961   6.916  0.1078 -0.2462  1.5368
   73CHL1    C5 7816   2.219   4.057   7.072 -0.2887 -0.4729  0.2671
   73CHL1    C6 7817   2.151   4.009   7.175  0.3751 -0.8658 -0.5313
   73CHL1    H6 7818   2.067   3.937   7.170 -1.1868  0.8158  0.4277
   73CHL1    C7 7819   2.184   4.052   7.318  0.0699  0.0223  0.4723
   73CHL1   H7A 7820   2.093   4.061   7.382  0.0996  0.4277  0.4599
   73CHL1   H7B 7821   2.247   3.971   7.359  2.7275  0.8747 -1.6671
   73CHL1    C8 7822   2.279   4.173   7.332  0.2335 -0.2164  0.4538
   73CHL1    H8 7823   2.226   4.270   7.320  0.3212  0.1211  2.4724
   73CHL1   C14 7824   2.343   4.161   7.468 -0.1334 -0.2234 -0.8098
   73CHL1   H14 7825   2.407   4.071   7.459 -1.0537 -0.8552 -1.1334
   73CHL1   C15 7826   2.250   4.160   7.588 -0.1774 -0.3692  0.5932
   73CHL1  H15A 7827   2.164   4.227   7.566  0.8457  0.9606  0.5316
   73CHL1  H15B 7828   2.211   4.057   7.601 -0.5187 -0.4025 -0.6268
   73CHL1   C16 7829   2.336   4.201   7.706 -0.5356 -0.1908 -0.2369
   73CHL1  H16A 7830   2.291   4.284   7.765 -1.9572 -1.0251 -0.0845
   73CHL1  H16B 7831   2.347   4.118   7.779 -2.3662 -0.2775 -0.0155
   73CHL1   C17 7832   2.474   4.244   7.644  0.2006  1.1009 -0.1754
   73CHL1   H17 7833   2.553   4.166   7.638  0.2620  1.2682 -2.3217
   73CHL1   C13 7834   2.439   4.276   7.497 -0.4351  0.8201  0.1988
   73CHL1   C18 7835   2.366   4.418   7.486 -0.2354  0.2253 -0.4929
   73CHL1  H18A 7836   2.327   4.430   7.382  0.4873  0.4209 -0.7478
   73CHL1  H18B 7837   2.298   4.429   7.573  2.3434 -0.3768  1.7058
   73CHL1  H18C 7838   2.445   4.495   7.500 -0.2824  0.3737 -1.0056
   73CHL1   C12 7839   2.556   4.261   7.403  0.6104 -0.3683  0.0539
   73CHL1  H12A 7840   2.627   4.345   7.415 -1.3801  1.3045  0.6582
   73CHL1  H12B 7841   2.606   4.165   7.429  0.6348 -0.5357 -0.5878
   73CHL1   C11 7842   2.502   4.255   7.258 -0.6660 -0.1892  0.1805
   73CHL1  H11A 7843   2.472   4.357   7.225 -1.6627  0.0462  1.6716
   73CHL1  H11B 7844   2.597   4.238   7.204 -0.7161  1.2159 -0.4025
   73CHL1    C9 7845   2.390   4.157   7.228  1.2101 -0.3138 -0.0143
   73CHL1    H9 7846   2.425   4.055   7.252  1.1332 -0.2225  0.4985
   73CHL1   C10 7847   2.350   4.142   7.082  0.5153  0.0190 -0.2199
   73CHL1   C19 7848   2.326   4.286   7.024 -0.2015 -0.1264  0.4390
   73CHL1  H19A 7849   2.261   4.349   7.089 -1.6177 -0.1483 -0.9023
   73CHL1  H19B 7850   2.426   4.332   7.013  0.6396 -2.0012 -0.0773
   73CHL1  H19C 7851   2.282   4.294   6.922 -1.2718 -1.0661  0.8030
   73CHL1    C1 7852   2.462   4.061   7.011 -0.4421  0.1609  0.1367
   73CHL1   H1A 7853   2.551   4.128   7.015 -1.7950  2.0381  0.4484
   73CHL1   H1B 7854   2.492   3.972   7.071 -1.2249  0.4002  0.9128
   73CHL1    C2 7855   2.431   4.025   6.866  0.4945  0.4796 -0.3002
   73CHL1   H2A 7856   2.508   3.971   6.807  0.8136 -1.5119  1.8045
   73CHL1   H2B 7857   2.410   4.121   6.814 -1.4473 -0.0214 -0.5144
   73CHL1   C20 7858   2.544   4.346   7.733  0.0106 -0.5730 -0.3110
   73CHL1   H20 7859   2.488   4.440   7.714 -0.1584 -0.6892 -0.3990
   73CHL1   C21 7860   2.690   4.374   7.687 -0.0884  0.2118  0.1032
   73CHL1  H21A 7861   2.692   4.451   7.607  2.3976  1.5277  1.3128
   73CHL1  H21B 7862   2.730   4.285   7.634 -1.1692 -0.5673  0.5626
   73CHL1  H21C 7863   2.760   4.408   7.766  2.7391 -3.0092 -0.8034
   73CHL1   C22 7864   2.541   4.310   7.883 -0.1699  0.0421  0.3870
   73CHL1  H22A 7865   2.577   4.398   7.940  1.2312  0.0001 -0.3899
   73CHL1  H22B 7866   2.439   4.292   7.924  0.0652  0.4394  1.1769
   73CHL1   C23 7867   2.633   4.190   7.919 -0.0479 -0.3436  0.7446
   73CHL1  H23A 7868   2.600   4.108   7.851  1.3107  0.0136 -0.4121
   73CHL1  H23B 7869   2.738   4.205   7.886 -0.8418  0.5114 -1.6524
   73CHL1   C24 7870   2.635   4.159   8.062  0.3607  0.4055 -0.1985
   73CHL1  H24A 7871   2.540   4.117   8.101  1.0693 -1.1703 -0.0960
   73CHL1  H24B 7872   2.711   4.081   8.083 -1.6258 -2.2159 -1.9917
   73CHL1   C25 7873   2.652   4.265   8.164 -0.6787  0.4700 -0.9561
   73CHL1   H25 7874   2.580   4.349   8.149 -0.6115  0.5976 -0.5798
   73CHL1   C26 7875   2.623   4.203   8.310  0.5303 -1.0216 -0.6426
   73CHL1  H26A 7876   2.656   4.097   8.309  1.4923 -0.7541  0.4249
   73CHL1  H26B 7877   2.674   4.250   8.397  0.1322  1.1860 -1.5439
   73CHL1  H26C 7878   2.517   4.208   8.340  0.2563  0.3004 -1.7422
   73CHL1   C27 7879   2.799   4.308   8.157  0.5387  0.2324  0.3557
   73CHL1  H27A 7880   2.863   4.222   8.189 -1.8262 -1.4638  0.7926
   73CHL1  H27B 7881   2.817   4.337   8.051 -0.5411  3.4139  0.9468
   73CHL1  H27C 7882   2.834   4.396   8.215 -1.9735  0.7111  1.2572
   74CHL1    C3 7883   1.096   1.278   6.794  0.6166  0.6025  1.0230
   74CHL1    H3 7884   1.133   1.382   6.780 -2.1416  1.2662 -2.8255
   74CHL1    O3 7885   1.069   1.226   6.666 -0.6395  0.0209 -0.1963
   74CHL1   H3' 7886   0.997   1.275   6.625 -1.5808 -1.0615  0.1102
   74CHL1    C4 7887   1.183   1.176   6.875  0.2515 -0.4421 -0.6371
   74CHL1   H4A 7888   1.140   1.074   6.889  2.0160 -0.9593  1.6197
   74CHL1   H4B 7889   1.284   1.168   6.829  0.3470 -0.0357 -0.5012
   74CHL1    C5 7890   1.201   1.221   7.021 -0.3789 -0.3233  0.6212
   74CHL1    C6 7891   1.328   1.241   7.060  0.3725 -0.0141  0.7165
   74CHL1    H6 7892   1.412   1.208   6.997 -0.0899 -1.0459  0.6268
   74CHL1    C7 7893   1.362   1.284   7.194  0.5815 -0.0561 -0.0231
   74CHL1   H7A 7894   1.440   1.225   7.245  0.0857  0.4146  1.3225
   74CHL1   H7B 7895   1.407   1.386   7.190  2.2135 -0.6636  1.6436
   74CHL1    C8 7896   1.246   1.275   7.292  0.6369  0.2152  0.2406
   74CHL1    H8 7897   1.229   1.166   7.306  4.0004 -0.9814 -3.2693
   74CHL1   C14 7898   1.283   1.328   7.432 -0.5946  0.0106 -0.1623
   74CHL1   H14 7899   1.306   1.431   7.400  0.6882  0.0089  0.6838
   74CHL1   C15 7900   1.395   1.261   7.508  0.0105 -0.4345 -0.2619
   74CHL1  H15A 7901   1.397   1.151   7.501  2.9429 -0.4683 -0.0248
   74CHL1  H15B 7902   1.495   1.295   7.474  1.5479 -0.5647  3.6477
   74CHL1   C16 7903   1.373   1.329   7.642 -0.6221 -0.1914 -0.2777
   74CHL1  H16A 7904   1.380   1.244   7.713 -0.3676 -1.6679 -1.9972
   74CHL1  H16B 7905   1.450   1.404   7.671  0.9551 -2.6061  2.3714
   74CHL1   C17 7906   1.232   1.398   7.654  0.2329  0.9926  0.2226
   74CHL1   H17 7907   1.248   1.506   7.631  1.2335  0.3327 -2.5886
   74CHL1   C13 7908   1.160   1.339   7.526 -0.2598 -0.2094  0.1174
   74CHL1   C18 7909   1.114   1.188   7.556  0.3776 -0.1828 -0.3079
   74CHL1  H18A 7910   1.028   1.188   7.626 -1.0532  1.3556 -1.9752
   74CHL1  H18B 7911   1.089   1.142   7.458  1.0342  0.6824 -0.8977
   74CHL1  H18C 7912   1.196   1.137   7.612  1.2316  0.3486 -1.0519
   74CHL1   C12 7913   1.047   1.413   7.458  0.0055  0.1442  0.3787
   74CHL1  H12A 7914   0.957   1.406   7.523 -0.2638 -0.9795 -0.0756
   74CHL1  H12B 7915   1.089   1.515   7.445 -0.4351  0.6826  2.7024
   74CHL1   C11 7916   1.002   1.353   7.320  0.1861 -0.6946  0.0903
   74CHL1  H11A 7917   0.941   1.265   7.348  1.3224 -1.2997  0.7085
   74CHL1  H11B 7918   0.936   1.420   7.260  1.1655  0.0248 -0.2030
   74CHL1    C9 7919   1.120   1.331   7.228  0.6348 -0.4559 -0.1913
   74CHL1    H9 7920   1.149   1.435   7.204 -0.3260 -0.1826 -0.2364
   74CHL1   C10 7921   1.078   1.264   7.096  1.4199  0.2888 -0.3805
   74CHL1   C19 7922   1.003   1.133   7.129 -0.4410  0.0862  0.3403
   74CHL1  H19A 7923   1.052   1.085   7.216  0.9100  1.2690  0.2691
   74CHL1  H19B 7924   0.908   1.157   7.181 -0.2915 -0.5755  0.9329
   74CHL1  H19C 7925   1.001   1.059   7.046  2.9946  0.1717  0.0592
   74CHL1    C1 7926   0.993   1.353   7.010 -0.1815 -0.5222 -0.2107
   74CHL1   H1A 7927   0.898   1.373   7.064 -0.3523 -0.3205 -0.5799
   74CHL1   H1B 7928   1.042   1.452   6.998 -0.7174 -0.2200  0.0436
   74CHL1    C2 7929   0.961   1.300   6.868  0.2528  0.0672 -0.5675
   74CHL1   H2A 7930   0.896   1.375   6.818 -0.9697 -0.5104  0.1017
   74CHL1   H2B 7931   0.907   1.204   6.884  0.1633  0.5658  2.8441
   74CHL1   C20 7932   1.171   1.389   7.793 -0.2373 -0.4192 -0.0150
   74CHL1   H20 7933   1.143   1.286   7.821  1.8343 -0.9152  0.4098
   74CHL1   C21 7934   1.044   1.465   7.804  0.2565 -0.0366 -0.4553
   74CHL1  H21A 7935   0.975   1.432   7.885  1.3672  1.6268  1.2655
   74CHL1  H21B 7936   0.977   1.455   7.716 -2.2888  0.9859  1.2536
   74CHL1  H21C 7937   1.065   1.573   7.824  1.6507 -0.5654  1.1913
   74CHL1   C22 7938   1.278   1.435   7.900 -0.4956 -0.6800  0.2414
   74CHL1  H22A 7939   1.342   1.345   7.910  0.0189 -0.1015  2.8006
   74CHL1  H22B 7940   1.339   1.522   7.869 -0.8351 -0.8605 -1.0059
   74CHL1   C23 7941   1.219   1.472   8.045  0.7267 -0.3847 -0.1461
   74CHL1  H23A 7942   1.161   1.564   8.025  0.2042 -0.2002  2.0071
   74CHL1  H23B 7943   1.145   1.395   8.076 -0.2817  0.4260 -0.4958
   74CHL1   C24 7944   1.329   1.481   8.156  0.7679  1.3921 -0.6617
   74CHL1  H24A 7945   1.382   1.383   8.152  1.1628  1.5379  0.4903
   74CHL1  H24B 7946   1.389   1.573   8.139  2.4904  0.9855  2.4407
   74CHL1   C25 7947   1.265   1.486   8.295  0.2748 -0.4583 -0.4672
   74CHL1   H25 7948   1.178   1.417   8.299 -1.4004  1.5304 -0.5884
   74CHL1   C26 7949   1.358   1.430   8.407  0.9365 -0.5934  0.5785
   74CHL1  H26A 7950   1.389   1.324   8.396  1.3458 -0.2755 -2.0305
   74CHL1  H26B 7951   1.456   1.482   8.400  0.3724  0.7526  2.0565
   74CHL1  H26C 7952   1.315   1.438   8.509  0.1355  2.5848  0.1171
   74CHL1   C27 7953   1.217   1.628   8.325 -0.4204  0.1238  0.2123
   74CHL1  H27A 7954   1.296   1.704   8.337  0.8416 -1.1345  0.1108
   74CHL1  H27B 7955   1.162   1.671   8.239 -1.3431  0.1170  0.7769
   74CHL1  H27C 7956   1.151   1.641   8.414  3.2684 -0.0223  3.2101
   75CHL1    C3 7957   4.967   5.200   6.606 -0.5289  0.5070  0.1295
   75CHL1    H3 7958   4.996   5.094   6.617  0.6456  0.8804  0.8254
   75CHL1    O3 7959   4.924   5.229   6.480 -0.7550 -0.0917 -0.2847
   75CHL1   H3' 7960   4.854   5.293   6.486  1.0916  1.9000  2.9697
   75CHL1    C4 7961   4.857   5.223   6.707 -0.5164 -0.2861 -0.1271
   75CHL1   H4A 7962   4.807   5.320   6.688  1.0254  0.4635 -0.5739
   75CHL1   H4B 7963   4.775   5.150   6.690  0.3341 -1.6955  1.4263
   75CHL1    C5 7964   4.902   5.218   6.852  0.1618  0.1957 -0.0999
   75CHL1    C6 7965   4.835   5.124   6.926  0.0428  0.0831 -0.3917
   75CHL1    H6 7966   4.750   5.070   6.881 -0.6097  0.5997  0.1878
   75CHL1    C7 7967   4.881   5.094   7.065 -0.7476 -0.1163  0.0984
   75CHL1   H7A 7968   4.801   5.058   7.134  1.9371 -1.7791  2.5814
   75CHL1   H7B 7969   4.948   5.006   7.068 -0.5574  0.0446  1.3079
   75CHL1    C8 7970   4.963   5.214   7.132  0.1340 -0.2187  0.8047
   75CHL1    H8 7971   4.894   5.299   7.151 -1.0566 -0.9548 -0.0568
   75CHL1   C14 7972   5.009   5.162   7.270  0.3182  0.8614  0.0159
   75CHL1   H14 7973   5.073   5.074   7.248 -0.3193 -0.0096  1.4945
   75CHL1   C15 7974   4.908   5.100   7.374  0.0048  0.5055  0.9313
   75CHL1  H15A 7975   4.816   5.162   7.367  1.6225  2.8755 -1.1633
   75CHL1  H15B 7976   4.890   4.995   7.345 -1.3429  0.8227  0.5629
   75CHL1   C16 7977   4.981   5.126   7.509  0.5445 -0.6903 -0.6292
   75CHL1  H16A 7978   4.916   5.199   7.561  0.1773  0.4616 -2.6223
   75CHL1  H16B 7979   4.981   5.035   7.574 -1.8809 -0.1515  0.2241
   75CHL1   C17 7980   5.123   5.189   7.485 -0.7421  0.0401  0.1988
   75CHL1   H17 7981   5.181   5.099   7.457  1.6215  0.7090  2.5474
   75CHL1   C13 7982   5.102   5.261   7.348 -0.4208  0.2853  0.5900
   75CHL1   C18 7983   5.023   5.388   7.379 -0.0287 -0.4214 -0.4097
   75CHL1  H18A 7984   4.936   5.362   7.442 -1.8233  0.2555 -2.4890
   75CHL1  H18B 7985   5.089   5.459   7.435  1.6572 -2.4572  0.3262
   75CHL1  H18C 7986   4.976   5.435   7.290  0.9603  0.6738 -0.3891
   75CHL1   C12 7987   5.226   5.283   7.252  0.9874 -0.1941  0.0788
   75CHL1  H12A 7988   5.304   5.352   7.290  1.2874 -0.0910 -0.7016
   75CHL1  H12B 7989   5.287   5.191   7.233  1.3099 -0.0754  0.5085
   75CHL1   C11 7990   5.174   5.345   7.121 -0.1712  0.2475  0.7585
   75CHL1  H11A 7991   5.121   5.437   7.155 -0.0646  0.4741  0.3148
   75CHL1  H11B 7992   5.257   5.367   7.051  0.6161 -2.5401  0.6977
   75CHL1    C9 7993   5.072   5.254   7.041 -0.7932  0.3371  1.1278
   75CHL1    H9 7994   5.124   5.157   7.025 -0.2246  0.6652  0.9421
   75CHL1   C10 7995   5.031   5.291   6.895 -0.4511 -0.4335 -0.1093
   75CHL1   C19 7996   4.990   5.433   6.906 -0.7890 -0.6345 -0.9479
   75CHL1  H19A 7997   5.071   5.505   6.931 -0.0895 -2.4670  2.7196
   75CHL1  H19B 7998   4.948   5.462   6.807  1.2268  1.2084 -1.3479
   75CHL1  H19C 7999   4.911   5.451   6.983 -0.1757 -2.4207  0.1730
   75CHL1    C1 8000   5.142   5.262   6.789 -0.5948 -0.6937  0.6569
   75CHL1   H1A 8001   5.227   5.331   6.807 -0.0478 -1.0846 -0.3889
   75CHL1   H1B 8002   5.178   5.158   6.800  1.6682 -0.2981 -1.9759
   75CHL1    C2 8003   5.098   5.280   6.641  0.0737  0.0475  0.0566
   75CHL1   H2A 8004   5.181   5.263   6.570 -0.9853 -0.5004 -1.0837
   75CHL1   H2B 8005   5.082   5.390   6.628  0.3458  0.4636  2.6461
   75CHL1   C20 8006   5.188   5.265   7.601 -0.3033  0.1387 -0.3370
   75CHL1   H20 8007   5.144   5.367   7.596  1.0554  0.7250 -0.7815
   75CHL1   C21 8008   5.350   5.289   7.585  1.1452  0.0629 -0.7688
   75CHL1  H21A 8009   5.377   5.302   7.478  2.3658  3.7249 -0.1816
   75CHL1  H21B 8010   5.402   5.207   7.638 -0.3101  0.2216  1.0215
   75CHL1  H21C 8011   5.370   5.386   7.636  1.6214  0.2425 -1.2875
   75CHL1   C22 8012   5.158   5.205   7.747  0.0583  0.5197 -0.3952
   75CHL1  H22A 8013   5.048   5.189   7.761  0.4681 -0.3250  2.7395
   75CHL1  H22B 8014   5.196   5.101   7.761 -2.0252 -0.3042 -0.4734
   75CHL1   C23 8015   5.215   5.288   7.866 -0.1966  0.2044 -0.4305
   75CHL1  H23A 8016   5.324   5.304   7.850 -0.0925  0.2268  0.2896
   75CHL1  H23B 8017   5.173   5.390   7.875  2.2042  1.2435 -0.2387
   75CHL1   C24 8018   5.184   5.210   7.997  0.0079 -0.2829  0.4028
   75CHL1  H24A 8019   5.074   5.219   8.015  0.1511  1.2068  0.6424
   75CHL1  H24B 8020   5.210   5.102   7.986 -0.2021 -0.7769  3.6555
   75CHL1   C25 8021   5.245   5.275   8.125  0.1544 -0.2461  0.5267
   75CHL1   H25 8022   5.217   5.383   8.122  0.7203 -0.1109 -1.8127
   75CHL1   C26 8023   5.185   5.213   8.250 -1.0381 -0.0371 -0.3224
   75CHL1  H26A 8024   5.074   5.218   8.249 -1.0137  0.5971 -0.9443
   75CHL1  H26B 8025   5.211   5.105   8.250 -1.8652 -0.2794 -2.2308
   75CHL1  H26C 8026   5.226   5.253   8.345 -0.1825  0.5392 -0.9248
   75CHL1   C27 8027   5.393   5.262   8.121 -0.5559  0.5045  0.0758
   75CHL1  H27A 8028   5.435   5.296   8.025  0.2105 -2.5653 -0.7977
   75CHL1  H27B 8029   5.445   5.317   8.202  1.6085 -1.3163  0.0122
   75CHL1  H27C 8030   5.424   5.156   8.115  2.1424  1.2724 -0.7806
   76CHL1    C3 8031   1.660   6.180   7.277 -0.2317  0.3662  0.3354
   76CHL1    H3 8032   1.625   6.078   7.251 -2.7139  1.0980  0.5329
   76CHL1    O3 8033   1.672   6.260   7.162  0.0468  0.0082 -0.1323
   76CHL1   H3' 8034   1.735   6.331   7.171 -2.1969  1.8453  3.0342
   76CHL1    C4 8035   1.544   6.241   7.365 -0.0982  0.1637 -0.1223
   76CHL1   H4A 8036   1.562   6.350   7.362  0.4603  0.0575 -1.3578
   76CHL1   H4B 8037   1.462   6.220   7.293  0.2426  1.2743 -0.8581
   76CHL1    C5 8038   1.535   6.185   7.506  0.3865 -0.0210 -0.2351
   76CHL1    C6 8039   1.414   6.143   7.553 -0.4512  0.1582 -0.0945
   76CHL1    H6 8040   1.327   6.129   7.487 -2.7123  1.5141  2.4122
   76CHL1    C7 8041   1.401   6.090   7.694  0.4780  0.5345 -0.5586
   76CHL1   H7A 8042   1.308   6.129   7.741  0.7454 -0.8754  1.2897
   76CHL1   H7B 8043   1.388   5.980   7.683 -1.7975  0.8722 -1.9577
   76CHL1    C8 8044   1.520   6.133   7.787  0.9617 -0.6583 -0.4482
   76CHL1    H8 8045   1.505   6.242   7.806  0.6831 -0.8759  0.6335
   76CHL1   C14 8046   1.509   6.063   7.924 -0.2721  0.4624  0.8066
   76CHL1   H14 8047   1.529   5.956   7.899  1.1555  1.3858 -2.6119
   76CHL1   C15 8048   1.374   6.064   7.994  0.2610  0.0177 -0.6157
   76CHL1  H15A 8049   1.345   6.171   7.985 -0.6023  0.0298  1.6791
   76CHL1  H15B 8050   1.296   6.005   7.940 -0.7505  0.4484  0.3247
   76CHL1   C16 8051   1.406   6.035   8.141  0.3807  0.6437  0.0290
   76CHL1  H16A 8052   1.370   6.122   8.200  1.9432 -0.1350  2.2423
   76CHL1  H16B 8053   1.358   5.941   8.174  0.6721  1.1642  2.0907
   76CHL1   C17 8054   1.560   6.023   8.152  0.0863 -0.5750 -0.6880
   76CHL1   H17 8055   1.581   5.915   8.138 -1.2351 -0.9489  0.0005
   76CHL1   C13 8056   1.612   6.104   8.024 -0.4403  0.5375 -0.1800
   76CHL1   C18 8057   1.616   6.254   8.062  0.2038 -0.0313  0.2416
   76CHL1  H18A 8058   1.535   6.280   8.134  1.0056 -0.1225  1.2034
   76CHL1  H18B 8059   1.707   6.264   8.125 -2.9355 -0.3973  5.3944
   76CHL1  H18C 8060   1.609   6.321   7.974  0.8531 -1.0282 -0.6025
   76CHL1   C12 8061   1.747   6.061   7.963  0.5207 -0.6465  0.0414
   76CHL1  H12A 8062   1.831   6.086   8.032  2.4224 -0.7843 -2.1359
   76CHL1  H12B 8063   1.749   5.951   7.971  1.3664 -0.6099  0.5074
   76CHL1   C11 8064   1.772   6.119   7.821 -0.1003  0.7563  0.2189
   76CHL1  H11A 8065   1.791   6.226   7.842 -1.8652  1.3200 -0.8018
   76CHL1  H11B 8066   1.866   6.073   7.784 -0.5500  0.3039 -0.3989
   76CHL1    C9 8067   1.653   6.105   7.722 -0.0235  0.1640  0.7978
   76CHL1    H9 8068   1.655   5.997   7.696  0.4302  0.5997 -1.1764
   76CHL1   C10 8069   1.669   6.185   7.586  0.3597  0.4340 -0.2759
   76CHL1   C19 8070   1.699   6.332   7.621 -0.2876 -0.1567 -0.0645
   76CHL1  H19A 8071   1.632   6.372   7.700  1.5428  2.2472  0.3635
   76CHL1  H19B 8072   1.803   6.337   7.660 -0.2503 -0.5906 -0.0950
   76CHL1  H19C 8073   1.703   6.398   7.532 -2.1586  0.9924  0.6484
   76CHL1    C1 8074   1.776   6.117   7.497 -0.2497 -0.4645  0.4647
   76CHL1   H1A 8075   1.871   6.132   7.553  0.4412  1.3905 -1.1024
   76CHL1   H1B 8076   1.761   6.008   7.478 -0.5756 -0.0668 -1.6831
   76CHL1    C2 8077   1.790   6.181   7.355 -0.6068  0.0875  0.4598
   76CHL1   H2A 8078   1.874   6.128   7.306  1.0561  2.3485  0.7440
   76CHL1   H2B 8079   1.838   6.281   7.365 -1.2950  0.5827 -0.8974
   76CHL1   C20 8080   1.625   6.072   8.292  0.2999  0.1053 -0.2631
   76CHL1   H20 8081   1.619   6.183   8.297 -1.0757  0.1747 -2.1711
   76CHL1   C21 8082   1.771   6.011   8.297 -0.6270  0.1151 -0.7413
   76CHL1  H21A 8083   1.837   6.049   8.216 -0.7495  2.0640  0.0096
   76CHL1  H21B 8084   1.778   5.900   8.289  1.1564  0.2690 -1.5846
   76CHL1  H21C 8085   1.820   6.038   8.393 -0.8556  0.7859 -0.8093
   76CHL1   C22 8086   1.546   6.013   8.406 -0.0013  0.4000 -0.2049
   76CHL1  H22A 8087   1.437   6.011   8.385  0.1503  0.3533 -1.0258
   76CHL1  H22B 8088   1.578   5.910   8.432  1.4360  1.1031  0.9899
   76CHL1   C23 8089   1.564   6.098   8.540  0.5257  0.5868 -1.1306
   76CHL1  H23A 8090   1.674   6.114   8.552  0.7696 -0.9075 -1.1339
   76CHL1  H23B 8091   1.521   6.197   8.515  1.6672  1.5779  0.6007
   76CHL1   C24 8092   1.511   6.020   8.660  0.5609 -0.9722  0.4217
   76CHL1  H24A 8093   1.406   5.992   8.634  0.9084 -0.3656 -1.9301
   76CHL1  H24B 8094   1.578   5.934   8.682  0.9161 -0.7408  0.2437
   76CHL1   C25 8095   1.503   6.112   8.785 -0.1652 -0.8718  0.1063
   76CHL1   H25 8096   1.443   6.203   8.760 -0.1711 -0.2447  2.2098
   76CHL1   C26 8097   1.434   6.046   8.900 -0.2236  0.2927  0.1834
   76CHL1  H26A 8098   1.446   6.108   8.992 -1.1903  1.8319 -0.6783
   76CHL1  H26B 8099   1.326   6.028   8.877  0.1728 -0.0162 -1.5790
   76CHL1  H26C 8100   1.475   5.945   8.920  0.3852  0.1847 -1.4679
   76CHL1   C27 8101   1.647   6.157   8.826 -0.4801 -0.2156  0.3333
   76CHL1  H27A 8102   1.704   6.062   8.836  1.9954  0.8975 -2.1050
   76CHL1  H27B 8103   1.702   6.211   8.746  0.7622  1.3070  2.1099
   76CHL1  H27C 8104   1.654   6.197   8.930  1.0733 -2.3882  1.1724
   77CHL1    C3 8105   3.295   4.395   6.708 -0.0344  0.3138 -0.0033
   77CHL1    H3 8106   3.224   4.315   6.678 -1.2500  1.2860  0.1507
   77CHL1    O3 8107   3.334   4.462   6.591  0.3572 -0.3324 -0.0327
   77CHL1   H3' 8108   3.408   4.517   6.617 -0.1795  0.8632 -0.9263
   77CHL1    C4 8109   3.224   4.506   6.794  0.1141 -0.1655 -0.0047
   77CHL1   H4A 8110   3.293   4.593   6.801 -0.8787  0.7047 -0.7200
   77CHL1   H4B 8111   3.144   4.550   6.730 -0.7329 -1.0677  0.4101
   77CHL1    C5 8112   3.193   4.469   6.935 -0.4265 -0.3955  0.0224
   77CHL1    C6 8113   3.074   4.485   6.986  0.3940  0.0157  0.8667
   77CHL1    H6 8114   2.999   4.532   6.921 -1.4586 -2.3104  1.1384
   77CHL1    C7 8115   3.036   4.445   7.128 -0.3421 -0.6457 -0.0615
   77CHL1   H7A 8116   2.981   4.523   7.185 -1.4322 -0.2869 -1.5356
   77CHL1   H7B 8117   2.974   4.354   7.140  0.4803 -1.3353 -0.8557
   77CHL1    C8 8118   3.159   4.419   7.217 -0.0261 -0.9868 -0.4894
   77CHL1    H8 8119   3.211   4.516   7.236 -3.5993  1.0368 -0.1922
   77CHL1   C14 8120   3.118   4.354   7.356 -0.3609  0.0556  0.0870
   77CHL1   H14 8121   3.086   4.251   7.331  0.5694 -0.3467  0.4908
   77CHL1   C15 8122   3.012   4.425   7.447 -0.1253 -0.1161  1.1906
   77CHL1  H15A 8123   3.048   4.530   7.455  0.6255  0.0825 -2.9997
   77CHL1  H15B 8124   2.907   4.425   7.411  0.6519  1.8551 -1.3549
   77CHL1   C16 8125   3.037   4.352   7.579  0.5333  0.3802 -0.2769
   77CHL1  H16A 8126   3.029   4.424   7.663 -2.4580 -0.2363  0.0584
   77CHL1  H16B 8127   2.954   4.280   7.589  2.2154 -1.9536 -1.9047
   77CHL1   C17 8128   3.174   4.284   7.576  0.3912 -0.0175 -0.5203
   77CHL1   H17 8129   3.159   4.180   7.541  0.4929 -0.0839 -0.3675
   77CHL1   C13 8130   3.245   4.333   7.446  0.2724  0.6238 -0.0819
   77CHL1   C18 8131   3.315   4.468   7.485  0.1170 -0.0569  0.4404
   77CHL1  H18A 8132   3.390   4.474   7.566 -1.4741  1.8511  1.8669
   77CHL1  H18B 8133   3.358   4.511   7.392  0.2187 -0.4116  0.3218
   77CHL1  H18C 8134   3.241   4.543   7.518 -0.9667 -2.2385  3.3946
   77CHL1   C12 8135   3.339   4.238   7.372  0.2520 -0.0094 -0.2681
   77CHL1  H12A 8136   3.428   4.213   7.433 -0.6409 -3.3642 -0.1383
   77CHL1  H12B 8137   3.292   4.139   7.356 -0.4073  0.2614 -0.0269
   77CHL1   C11 8138   3.385   4.298   7.238 -0.1182 -0.0523 -0.0614
   77CHL1  H11A 8139   3.453   4.384   7.256 -1.9278  1.7251 -1.2915
   77CHL1  H11B 8140   3.438   4.211   7.194  0.8186  1.9051 -3.1558
   77CHL1    C9 8141   3.263   4.336   7.150 -0.4720  1.3097 -0.2662
   77CHL1    H9 8142   3.200   4.248   7.125 -0.1630  0.8431  0.5629
   77CHL1   C10 8143   3.313   4.398   7.011  0.6928  0.2852 -0.0555
   77CHL1   C19 8144   3.407   4.518   7.027 -0.0283 -0.2086 -0.7365
   77CHL1  H19A 8145   3.367   4.586   7.105 -1.8766 -0.5510 -1.3359
   77CHL1  H19B 8146   3.506   4.483   7.064  0.1102  1.4149  0.5027
   77CHL1  H19C 8147   3.424   4.582   6.938  0.5811 -0.2844 -0.6774
   77CHL1    C1 8148   3.373   4.286   6.927 -0.5072  0.1010 -0.4687
   77CHL1   H1A 8149   3.470   4.250   6.969  1.3653  0.6315 -3.9234
   77CHL1   H1B 8150   3.303   4.199   6.923 -1.2815  0.7547 -1.9089
   77CHL1    C2 8151   3.412   4.327   6.785  0.2677  0.0255 -0.3033
   77CHL1   H2A 8152   3.447   4.245   6.719  1.7189 -0.6791  1.2967
   77CHL1   H2B 8153   3.497   4.399   6.786  1.0209 -0.8186 -1.0047
   77CHL1   C20 8154   3.251   4.282   7.713 -0.4461 -0.2255  0.4877
   77CHL1   H20 8155   3.276   4.383   7.753 -0.7666  0.7688 -1.6901
   77CHL1   C21 8156   3.384   4.199   7.696  1.0136  0.1003  0.3923
   77CHL1  H21A 8157   3.372   4.100   7.647  0.4349 -0.8413  2.3665
   77CHL1  H21B 8158   3.448   4.192   7.786 -0.7660 -0.5387  1.6581
   77CHL1  H21C 8159   3.444   4.250   7.617  1.1387  0.3585  0.6541
   77CHL1   C22 8160   3.172   4.212   7.817  0.8915 -0.1261 -0.3369
   77CHL1  H22A 8161   3.070   4.256   7.807  0.3092 -1.4364 -0.3411
   77CHL1  H22B 8162   3.158   4.105   7.791  2.8119 -0.3339 -0.6298
   77CHL1   C23 8163   3.231   4.220   7.956  0.3626 -0.9469 -0.1042
   77CHL1  H23A 8164   3.329   4.168   7.963  0.2721 -0.9099  2.2493
   77CHL1  H23B 8165   3.252   4.325   7.987 -2.7161  0.3088 -1.7694
   77CHL1   C24 8166   3.140   4.162   8.067 -0.5811 -0.8451  0.0334
   77CHL1  H24A 8167   3.057   4.235   8.077 -0.8796 -0.8579 -1.9178
   77CHL1  H24B 8168   3.107   4.063   8.027 -1.9278  0.6241 -2.8205
   77CHL1   C25 8169   3.209   4.151   8.205 -0.4082  0.1966  0.2549
   77CHL1   H25 8170   3.310   4.115   8.177 -0.9459  0.8048 -2.7643
   77CHL1   C26 8171   3.226   4.281   8.287  0.0241  0.2749  0.5388
   77CHL1  H26A 8172   3.245   4.370   8.222 -1.5637 -1.0898 -1.9724
   77CHL1  H26B 8173   3.127   4.315   8.325  0.3221 -0.1388  1.7043
   77CHL1  H26C 8174   3.292   4.266   8.375 -0.3995 -1.1255  0.6397
   77CHL1   C27 8175   3.141   4.051   8.291 -0.2572  0.0979  0.2066
   77CHL1  H27A 8176   3.199   4.042   8.386  0.2749  3.7737  0.3851
   77CHL1  H27B 8177   3.034   4.072   8.313 -0.7434 -1.6088 -0.3957
   77CHL1  H27C 8178   3.142   3.952   8.241 -1.6034 -0.7172  1.6726
   78CHL1    C3 8179   6.095   6.652   6.486 -0.2856 -0.0673 -0.3046
   78CHL1    H3 8180   6.203   6.652   6.514 -0.3657  1.1680  0.0923
   78CHL1    O3 8181   6.076   6.642   6.350  0.0599  0.3891 -0.0402
   78CHL1   H3' 8182   6.008   6.575   6.340  0.7374 -0.1595 -1.1396
   78CHL1    C4 8183   6.009   6.554   6.553 -0.2788  0.5682 -1.3401
   78CHL1   H4A 8184   5.902   6.560   6.525 -0.4680  0.4051 -0.6884
   78CHL1   H4B 8185   6.033   6.454   6.512 -0.1008  0.9932 -2.2842
   78CHL1    C5 8186   6.022   6.559   6.703 -0.0161  0.0128  0.0305
   78CHL1    C6 8187   6.043   6.449   6.773  0.2222 -0.5124 -0.0956
   78CHL1    H6 8188   6.056   6.352   6.724 -0.3266 -1.3964  1.4409
   78CHL1    C7 8189   6.058   6.451   6.924 -0.8924  0.1748  0.1350
   78CHL1   H7A 8190   6.008   6.361   6.965  0.4332 -1.0470 -0.8302
   78CHL1   H7B 8191   6.164   6.455   6.954 -1.3060  1.4102  1.5336
   78CHL1    C8 8192   5.990   6.581   6.992  0.1648 -0.2830 -0.3417
   78CHL1    H8 8193   5.882   6.561   6.984  0.2669 -1.4331  0.9090
   78CHL1   C14 8194   6.032   6.604   7.132  0.3419 -0.3000  0.2725
   78CHL1   H14 8195   6.141   6.594   7.113  0.0068 -1.5494 -1.2366
   78CHL1   C15 8196   5.997   6.494   7.232  0.7847 -0.3220 -0.0715
   78CHL1  H15A 8197   5.886   6.506   7.235  0.9359  1.1340  0.3161
   78CHL1  H15B 8198   6.017   6.388   7.206  1.0222 -0.7901  1.9276
   78CHL1   C16 8199   6.044   6.551   7.360  0.8381  0.2973  0.3235
   78CHL1  H16A 8200   5.967   6.527   7.437  0.7252 -2.6317 -0.5951
   78CHL1  H16B 8201   6.133   6.494   7.393 -0.5231 -0.8886  2.1832
   78CHL1   C17 8202   6.059   6.701   7.335 -0.4755 -0.2695  0.2219
   78CHL1   H17 8203   6.168   6.716   7.319 -0.3190 -2.1930 -0.8007
   78CHL1   C13 8204   5.997   6.732   7.203  0.4125  0.3903  0.2239
   78CHL1   C18 8205   5.845   6.749   7.215 -0.2374  0.2699 -0.2720
   78CHL1  H18A 8206   5.795   6.707   7.124 -0.0068 -1.3567  0.3117
   78CHL1  H18B 8207   5.807   6.699   7.307  1.8829 -0.0217  0.5102
   78CHL1  H18C 8208   5.806   6.852   7.223 -0.3204  0.1557  1.0853
   78CHL1   C12 8209   6.047   6.851   7.123  0.3951 -0.5352 -0.2111
   78CHL1  H12A 8210   6.005   6.949   7.156 -0.9604 -1.0177 -0.4420
   78CHL1  H12B 8211   6.157   6.843   7.134  0.3388 -0.2918  0.6622
   78CHL1   C11 8212   5.998   6.843   6.978 -0.0283  0.1616  0.4532
   78CHL1  H11A 8213   5.888   6.857   6.974  0.1186  1.3614 -0.1205
   78CHL1  H11B 8214   6.042   6.924   6.915 -0.5711  0.9353  1.0493
   78CHL1    C9 8215   6.032   6.713   6.911 -0.2972  0.3712  0.2296
   78CHL1    H9 8216   6.142   6.712   6.902 -0.3054  0.4687  0.1112
   78CHL1   C10 8217   5.995   6.700   6.761  0.6075 -0.0039  0.1710
   78CHL1   C19 8218   5.842   6.722   6.752 -0.0889 -0.3588  0.4315
   78CHL1  H19A 8219   5.805   6.822   6.786  0.3834  0.2831 -0.8649
   78CHL1  H19B 8220   5.810   6.706   6.647 -0.0820  0.4217  0.3005
   78CHL1  H19C 8221   5.779   6.649   6.807 -0.7184 -0.2835 -0.1658
   78CHL1    C1 8222   6.063   6.812   6.676  0.0712  0.1260  0.4083
   78CHL1   H1A 8223   6.029   6.914   6.703 -0.3001 -0.2716  1.4691
   78CHL1   H1B 8224   6.174   6.803   6.684  0.1127 -0.2333 -0.3988
   78CHL1    C2 8225   6.043   6.790   6.520 -0.2578  0.4964  0.8424
   78CHL1   H2A 8226   6.099   6.866   6.462 -0.9046  0.2271 -0.1676
   78CHL1   H2B 8227   5.935   6.790   6.492 -0.1017 -0.7522  0.1521
   78CHL1   C20 8228   6.018   6.797   7.451  0.9654 -0.3455 -0.2325
   78CHL1   H20 8229   5.914   6.776   7.481  0.3886  1.9312 -0.4238
   78CHL1   C21 8230   6.027   6.954   7.420 -0.2403 -0.0798 -0.1398
   78CHL1  H21A 8231   6.131   6.964   7.383 -0.1299  1.2961  0.4647
   78CHL1  H21B 8232   6.012   7.018   7.510  0.3963 -0.7840  0.4776
   78CHL1  H21C 8233   5.956   6.994   7.344 -1.7613  3.1139  2.6690
   78CHL1   C22 8234   6.110   6.770   7.574 -0.1374 -0.1285 -0.5916
   78CHL1  H22A 8235   6.129   6.661   7.564  0.7779 -0.0215 -0.0786
   78CHL1  H22B 8236   6.199   6.834   7.557 -0.3513 -0.6147 -4.4623
   78CHL1   C23 8237   6.041   6.808   7.705 -0.4085  0.0294 -0.2490
   78CHL1  H23A 8238   6.041   6.919   7.700  0.6173  0.0226 -0.8098
   78CHL1  H23B 8239   5.934   6.780   7.714 -0.3410  0.0794  0.7969
   78CHL1   C24 8240   6.130   6.775   7.828  0.2262  0.4026 -0.3553
   78CHL1  H24A 8241   6.136   6.666   7.849  0.4523  0.6697  1.0924
   78CHL1  H24B 8242   6.225   6.826   7.804 -0.0314 -0.7398 -4.4961
   78CHL1   C25 8243   6.076   6.822   7.966  0.2499  1.0042 -0.4559
   78CHL1   H25 8244   5.971   6.785   7.962  0.2653  0.9301 -0.1508
   78CHL1   C26 8245   6.144   6.758   8.085 -0.2023 -0.4714 -0.5576
   78CHL1  H26A 8246   6.111   6.808   8.179 -1.2497  1.7552 -2.0461
   78CHL1  H26B 8247   6.141   6.647   8.088 -0.3777 -0.4630 -0.3661
   78CHL1  H26C 8248   6.252   6.780   8.071 -0.3378 -0.8610 -2.4837
   78CHL1   C27 8249   6.051   6.971   7.977 -0.0122 -0.1939  0.0936
   78CHL1  H27A 8250   5.970   7.006   7.910 -0.0436  0.5866  0.5227
   78CHL1  H27B 8251   6.023   7.006   8.078 -0.5837 -1.3993  0.3748
   78CHL1  H27C 8252   6.136   7.037   7.949 -1.8536  1.3656 -2.1349
   79CHL1    C3 8253   3.595   6.601   6.993  0.0191 -0.0618  0.6769
   79CHL1    H3 8254   3.571   6.700   7.036 -1.1320  0.7202 -1.6215
   79CHL1    O3 8255   3.595   6.605   6.850  0.0682 -0.0332  0.7232
   79CHL1   H3' 8256   3.587   6.511   6.832 -1.7775 -0.3311  2.7213
   79CHL1    C4 8257   3.739   6.574   7.045  0.2990 -0.2872 -0.2056
   79CHL1   H4A 8258   3.765   6.473   7.008  0.2478  0.3081 -1.9400
   79CHL1   H4B 8259   3.806   6.645   6.993  0.2849 -0.5738 -0.6129
   79CHL1    C5 8260   3.757   6.580   7.197  0.1025 -0.1667  0.6269
   79CHL1    C6 8261   3.854   6.654   7.252 -0.9198  0.1003  0.0746
   79CHL1    H6 8262   3.920   6.721   7.196 -1.4788  0.5321 -0.0749
   79CHL1    C7 8263   3.887   6.649   7.399  0.9756 -0.3927 -0.8235
   79CHL1   H7A 8264   3.994   6.629   7.422  1.2989  1.0055 -0.9949
   79CHL1   H7B 8265   3.865   6.752   7.437 -2.1623 -1.2676  0.0686
   79CHL1    C8 8266   3.809   6.531   7.465 -0.5519 -0.1550 -0.0725
   79CHL1    H8 8267   3.866   6.438   7.446  3.0023  1.5358  1.4180
   79CHL1   C14 8268   3.807   6.546   7.613 -0.3552 -0.2562  0.5787
   79CHL1   H14 8269   3.756   6.642   7.633  1.2528  0.9191 -0.6816
   79CHL1   C15 8270   3.941   6.579   7.683 -0.6641 -0.5321  0.2249
   79CHL1  H15A 8271   4.029   6.514   7.665  1.3404  2.4679 -1.8382
   79CHL1  H15B 8272   3.974   6.684   7.665  0.5048 -1.0365 -0.6924
   79CHL1   C16 8273   3.902   6.575   7.834 -0.6455 -0.4654 -1.1628
   79CHL1  H16A 8274   3.973   6.510   7.890 -2.7016 -0.8692  1.1584
   79CHL1  H16B 8275   3.903   6.674   7.885 -0.3455 -1.7311  1.4644
   79CHL1   C17 8276   3.760   6.502   7.836  0.4584 -0.0849  0.2316
   79CHL1   H17 8277   3.688   6.587   7.844 -0.2025 -0.3711 -1.9692
   79CHL1   C13 8278   3.738   6.438   7.697 -1.4114 -0.5034  0.2821
   79CHL1   C18 8279   3.811   6.301   7.693 -0.2012 -0.7579  0.1636
   79CHL1  H18A 8280   3.818   6.267   7.588  0.9717 -0.2068  0.0509
   79CHL1  H18B 8281   3.913   6.317   7.733 -0.3590 -1.0610  0.6959
   79CHL1  H18C 8282   3.753   6.228   7.753  1.5662 -1.8455  0.6072
   79CHL1   C12 8283   3.591   6.429   7.653  0.1221  0.3165  0.0482
   79CHL1  H12A 8284   3.525   6.358   7.708  1.5274 -0.8314  0.3287
   79CHL1  H12B 8285   3.547   6.530   7.669  1.0664  0.7251  0.1413
   79CHL1   C11 8286   3.586   6.399   7.498 -0.1441  0.8407  0.5956
   79CHL1  H11A 8287   3.620   6.297   7.473 -2.2439  0.2660 -0.0347
   79CHL1  H11B 8288   3.477   6.401   7.476  0.2492 -2.8546 -2.5974
   79CHL1    C9 8289   3.669   6.507   7.419 -0.3292 -0.0491  0.1198
   79CHL1    H9 8290   3.620   6.604   7.439 -2.5006 -0.7781 -1.3483
   79CHL1   C10 8291   3.655   6.486   7.265 -0.9105 -0.0610 -0.0707
   79CHL1   C19 8292   3.711   6.340   7.248 -0.2443 -0.0176 -0.9412
   79CHL1  H19A 8293   3.734   6.325   7.141  1.1460  1.8653 -0.9531
   79CHL1  H19B 8294   3.807   6.324   7.301 -1.6969  0.6259  2.1120
   79CHL1  H19C 8295   3.639   6.259   7.274 -1.6114  1.8910  1.7165
   79CHL1    C1 8296   3.516   6.498   7.212  0.0372 -0.6613 -0.1136
   79CHL1   H1A 8297   3.453   6.417   7.254  1.5909 -0.2796  3.2649
   79CHL1   H1B 8298   3.477   6.596   7.248  0.3498 -1.4212  2.4828
   79CHL1    C2 8299   3.504   6.494   7.059  0.5047 -0.0840  0.2991
   79CHL1   H2A 8300   3.404   6.515   7.017  0.3033  0.1814  0.9131
   79CHL1   H2B 8301   3.539   6.397   7.018  0.6928  0.2099 -0.2468
   79CHL1   C20 8302   3.740   6.414   7.963  0.3613  0.5779 -1.1024
   79CHL1   H20 8303   3.801   6.322   7.947 -1.0237 -0.3283 -1.2735
   79CHL1   C21 8304   3.595   6.362   7.972  1.0771  0.0993  0.3058
   79CHL1  H21A 8305   3.576   6.282   7.897  1.5226  1.0367 -0.8605
   79CHL1  H21B 8306   3.518   6.441   7.957 -2.8612 -3.1121  1.7599
   79CHL1  H21C 8307   3.580   6.314   8.071 -0.0320  1.8157  1.0151
   79CHL1   C22 8308   3.774   6.476   8.099  0.5094  0.5304  0.6478
   79CHL1  H22A 8309   3.870   6.532   8.093  0.0933  1.2719  0.6890
   79CHL1  H22B 8310   3.701   6.552   8.135  0.8059  2.0115 -1.6383
   79CHL1   C23 8311   3.790   6.369   8.209  0.0722 -0.0970 -0.3260
   79CHL1  H23A 8312   3.703   6.310   8.246 -0.1405  1.4849  1.9561
   79CHL1  H23B 8313   3.870   6.301   8.171  0.7878  0.9279 -0.6904
   79CHL1   C24 8314   3.841   6.442   8.335 -0.3314 -0.7190  0.2971
   79CHL1  H24A 8315   3.923   6.512   8.311 -0.7668  0.1690  1.3343
   79CHL1  H24B 8316   3.752   6.495   8.375 -1.2453 -2.5481  0.8517
   79CHL1   C25 8317   3.865   6.359   8.456 -0.0741  0.0147  0.6250
   79CHL1   H25 8318   3.782   6.286   8.473 -1.8965  1.8964  0.2117
   79CHL1   C26 8319   3.992   6.283   8.453 -0.0617 -0.1443  0.1788
   79CHL1  H26A 8320   3.992   6.245   8.348 -1.3723  1.8825 -0.6088
   79CHL1  H26B 8321   4.082   6.346   8.462 -1.5070  2.2691 -1.0717
   79CHL1  H26C 8322   3.994   6.201   8.528 -0.4729  1.5767  2.1438
   79CHL1   C27 8323   3.856   6.441   8.584 -0.4746 -0.0487 -0.3172
   79CHL1  H27A 8324   3.890   6.372   8.664 -2.3248 -2.0904 -1.2105
   79CHL1  H27B 8325   3.925   6.528   8.576  0.1931 -0.0963  3.1901
   79CHL1  H27C 8326   3.752   6.476   8.602 -0.2289  0.6359 -0.1709
   80CHL1    C3 8327   1.586   2.603   6.822  1.1647  0.6392  0.4031
   80CHL1    H3 8328   1.516   2.688   6.808 -1.1402 -1.2184  0.0606
   80CHL1    O3 8329   1.595   2.548   6.688  0.7650  0.2699  0.0821
   80CHL1   H3' 8330   1.643   2.617   6.640 -0.5640  1.3559  0.2677
   80CHL1    C4 8331   1.722   2.653   6.857  0.9893 -0.1788  0.6852
   80CHL1   H4A 8332   1.794   2.573   6.831  0.6988 -0.9900  2.2339
   80CHL1   H4B 8333   1.743   2.739   6.791  0.6782 -0.3765  0.3225
   80CHL1    C5 8334   1.726   2.701   7.004  0.0749 -0.4880  0.0029
   80CHL1    C6 8335   1.771   2.818   7.035  0.1366  0.2165  0.1008
   80CHL1    H6 8336   1.799   2.878   6.947 -1.3990 -0.1175 -0.6539
   80CHL1    C7 8337   1.793   2.863   7.180 -0.5968  0.3775 -0.0902
   80CHL1   H7A 8338   1.895   2.906   7.193  0.0210 -0.3049 -2.2252
   80CHL1   H7B 8339   1.720   2.943   7.204  1.3364  2.0514  0.4557
   80CHL1    C8 8340   1.783   2.745   7.277  0.2401  0.9296  0.5294
   80CHL1    H8 8341   1.877   2.689   7.258  0.3421  0.7049  1.6527
   80CHL1   C14 8342   1.795   2.781   7.421 -0.4445 -0.0020  0.0244
   80CHL1   H14 8343   1.707   2.842   7.451  0.1419 -0.1429  2.2025
   80CHL1   C15 8344   1.913   2.864   7.460 -0.0865 -0.5876 -0.5265
   80CHL1  H15A 8345   2.002   2.834   7.400  1.0439 -2.1890  1.8144
   80CHL1  H15B 8346   1.908   2.974   7.444 -1.3390 -0.3040  1.4632
   80CHL1   C16 8347   1.933   2.840   7.612  0.0884  0.3560 -0.3977
   80CHL1  H16A 8348   2.038   2.811   7.635 -1.0830 -2.0678  2.6711
   80CHL1  H16B 8349   1.908   2.931   7.671 -0.7623  1.3510 -2.2266
   80CHL1   C17 8350   1.828   2.726   7.646 -0.0821  0.4627  0.3487
   80CHL1   H17 8351   1.741   2.782   7.687  0.7027  1.8382  0.1805
   80CHL1   C13 8352   1.794   2.656   7.517  0.0915 -0.2445  0.4585
   80CHL1   C18 8353   1.915   2.557   7.497  0.0999 -0.4881  0.0244
   80CHL1  H18A 8354   1.907   2.481   7.578  1.8213 -1.3677 -0.5866
   80CHL1  H18B 8355   1.916   2.517   7.394  1.6689  2.2221 -1.1127
   80CHL1  H18C 8356   2.006   2.620   7.508  0.6941 -1.2482 -0.4086
   80CHL1   C12 8357   1.654   2.592   7.505  0.3452  0.1871  0.3200
   80CHL1  H12A 8358   1.635   2.503   7.568  0.5474 -0.6992 -0.8531
   80CHL1  H12B 8359   1.572   2.664   7.526  0.1913  0.7612 -1.9594
   80CHL1   C11 8360   1.625   2.550   7.359 -0.1324  0.5981 -0.2971
   80CHL1  H11A 8361   1.683   2.457   7.345 -4.0378 -2.2969  0.8689
   80CHL1  H11B 8362   1.522   2.511   7.345  0.4795 -1.0255 -0.4121
   80CHL1    C9 8363   1.663   2.651   7.252 -0.2109 -0.4924 -0.4604
   80CHL1    H9 8364   1.576   2.721   7.252  0.9121  0.9820 -1.6742
   80CHL1   C10 8365   1.667   2.594   7.102 -0.5229  0.2131  0.4969
   80CHL1   C19 8366   1.771   2.476   7.099  0.5459  0.7096 -0.9144
   80CHL1  H19A 8367   1.751   2.395   7.172  2.4979  1.9254  1.0921
   80CHL1  H19B 8368   1.788   2.418   7.006  0.9992 -0.9152  0.1374
   80CHL1  H19C 8369   1.870   2.514   7.133  0.4191 -0.8446  1.3885
   80CHL1    C1 8370   1.525   2.540   7.061  1.5254 -0.0851  0.3884
   80CHL1   H1A 8371   1.486   2.457   7.124  1.1760 -0.8013 -0.7365
   80CHL1   H1B 8372   1.457   2.624   7.085  1.9907  0.2685  0.4888
   80CHL1    C2 8373   1.529   2.496   6.919 -0.9289  0.0654 -0.2558
   80CHL1   H2A 8374   1.426   2.466   6.888 -1.4531  0.7457  0.7622
   80CHL1   H2B 8375   1.602   2.414   6.911 -1.9234 -0.9165  0.4333
   80CHL1   C20 8376   1.857   2.643   7.772  0.0343  0.9539 -0.1338
   80CHL1   H20 8377   1.940   2.572   7.753 -0.0123  0.7803  0.2926
   80CHL1   C21 8378   1.728   2.558   7.818  0.1148  0.0351 -0.5849
   80CHL1  H21A 8379   1.636   2.617   7.799  0.4865  0.9068  0.2522
   80CHL1  H21B 8380   1.724   2.528   7.925 -1.1921 -0.5813 -0.7967
   80CHL1  H21C 8381   1.724   2.462   7.762  1.5307 -0.9594  0.9414
   80CHL1   C22 8382   1.904   2.732   7.893 -0.1985  0.1033  0.0123
   80CHL1  H22A 8383   1.935   2.672   7.981  2.2077  1.0022 -0.1386
   80CHL1  H22B 8384   1.993   2.787   7.855 -1.3162  1.4925 -0.7174
   80CHL1   C23 8385   1.808   2.826   7.957 -0.0051 -0.4444  0.9120
   80CHL1  H23A 8386   1.767   2.895   7.880 -0.0261 -0.9401  0.4714
   80CHL1  H23B 8387   1.727   2.756   7.989 -1.2586  0.7992  0.5753
   80CHL1   C24 8388   1.860   2.895   8.085  0.7040  0.1064  0.9702
   80CHL1  H24A 8389   1.922   2.826   8.146  0.4908 -2.2128 -1.3131
   80CHL1  H24B 8390   1.931   2.973   8.048  1.6499 -0.6218  1.1991
   80CHL1   C25 8391   1.754   2.975   8.157 -0.0597  0.2480  0.5790
   80CHL1   H25 8392   1.670   2.905   8.179 -0.5556  1.0898  1.4621
   80CHL1   C26 8393   1.825   3.018   8.291  0.4091 -0.2451 -0.6036
   80CHL1  H26A 8394   1.900   3.089   8.251  0.3105 -1.4165 -3.0720
   80CHL1  H26B 8395   1.762   3.075   8.362 -0.0442 -2.8624  1.2660
   80CHL1  H26C 8396   1.868   2.929   8.342  0.7333  0.0568 -0.3442
   80CHL1   C27 8397   1.702   3.108   8.084 -0.3085  0.4194 -0.6194
   80CHL1  H27A 8398   1.778   3.171   8.033 -0.7512  0.4193 -1.2942
   80CHL1  H27B 8399   1.644   3.071   7.996 -0.3945 -0.4293 -0.2133
   80CHL1  H27C 8400   1.645   3.167   8.159  1.6176  2.1904 -0.4603
   81CHL1    C3 8401   0.312   3.675   6.604  0.1364  0.1679  0.8933
   81CHL1    H3 8402   0.345   3.579   6.559  0.2456  0.0092  1.3051
   81CHL1    O3 8403   0.315   3.770   6.495  0.2696  0.3392 -0.5098
   81CHL1   H3' 8404   0.291   3.851   6.542  1.4475  0.6803 -0.4619
   81CHL1    C4 8405   0.164   3.675   6.655 -0.2980 -0.2850 -0.2901
   81CHL1   H4A 8406   0.135   3.775   6.692  1.0833  0.5013 -1.2545
   81CHL1   H4B 8407   0.089   3.661   6.574 -2.8823  1.4983  1.6117
   81CHL1    C5 8408   0.141   3.573   6.766 -0.1869 -0.1035 -0.0130
   81CHL1    C6 8409   0.052   3.474   6.766 -0.5414  0.4863 -0.8012
   81CHL1    H6 8410  -0.017   3.466   6.680 -0.9331  3.0870 -0.7972
   81CHL1    C7 8411   0.019   3.391   6.884  0.4224  0.4804 -0.1096
   81CHL1   H7A 8412  -0.091   3.390   6.896  0.4828  3.1595  1.2593
   81CHL1   H7B 8413   0.070   3.293   6.869  3.5913  2.2382 -1.7409
   81CHL1    C8 8414   0.075   3.442   7.016 -0.1048 -0.9193  0.5827
   81CHL1    H8 8415   0.008   3.525   7.048  2.2470  0.4433  2.2829
   81CHL1   C14 8416   0.075   3.332   7.119  0.5890 -0.2514 -0.6301
   81CHL1   H14 8417   0.144   3.253   7.083 -0.4974 -1.1597 -0.7869
   81CHL1   C15 8418  -0.055   3.258   7.138 -0.3602 -0.3109 -0.4817
   81CHL1  H15A 8419  -0.136   3.329   7.166  1.0892  2.0900 -1.9866
   81CHL1  H15B 8420  -0.092   3.202   7.049 -2.2153 -0.9322  0.6330
   81CHL1   C16 8421  -0.014   3.168   7.262  0.6423 -0.1304  0.1827
   81CHL1  H16A 8422  -0.101   3.164   7.331  1.1281  0.1348  0.8283
   81CHL1  H16B 8423  -0.006   3.061   7.236 -1.4721 -0.3028  0.0422
   81CHL1   C17 8424   0.113   3.230   7.324  0.5197  0.1196  0.3450
   81CHL1   H17 8425   0.201   3.173   7.288  0.0178 -0.4151 -0.0607
   81CHL1   C13 8426   0.133   3.364   7.255  0.1144 -0.1079  0.4559
   81CHL1   C18 8427   0.042   3.467   7.320  0.9243 -0.7400 -0.0824
   81CHL1  H18A 8428   0.019   3.560   7.263  2.2778 -0.9796 -1.0629
   81CHL1  H18B 8429  -0.049   3.422   7.363  2.6882 -1.0657  3.7441
   81CHL1  H18C 8430   0.080   3.502   7.419 -0.8273 -1.9311  1.0687
   81CHL1   C12 8431   0.275   3.428   7.244  0.4700 -0.3603 -0.3920
   81CHL1  H12A 8432   0.312   3.473   7.339  1.1428  0.0168 -0.8217
   81CHL1  H12B 8433   0.352   3.352   7.216  0.6930  0.2815 -1.6151
   81CHL1   C11 8434   0.295   3.530   7.130 -0.3465 -1.0486 -0.2769
   81CHL1  H11A 8435   0.239   3.616   7.172 -0.5310 -1.3321  0.0577
   81CHL1  H11B 8436   0.403   3.550   7.116 -0.4503 -1.0513 -1.1390
   81CHL1    C9 8437   0.223   3.497   6.992 -0.6117  0.1322 -0.0871
   81CHL1    H9 8438   0.282   3.414   6.948  0.0469  1.0090 -0.8847
   81CHL1   C10 8439   0.234   3.612   6.888  0.2742  0.5839 -0.1651
   81CHL1   C19 8440   0.184   3.745   6.946 -0.4389 -0.2172  0.0888
   81CHL1  H19A 8441   0.088   3.729   7.001 -0.5537  1.6391  0.5069
   81CHL1  H19B 8442   0.258   3.794   7.013  0.6173 -0.0140 -1.2080
   81CHL1  H19C 8443   0.172   3.825   6.869  0.4974  0.5822  0.7426
   81CHL1    C1 8444   0.382   3.628   6.842 -0.2151 -0.5906 -0.1852
   81CHL1   H1A 8445   0.448   3.668   6.922  0.3939  0.8382 -1.3422
   81CHL1   H1B 8446   0.420   3.527   6.816  0.4324  0.2425 -2.7803
   81CHL1    C2 8447   0.410   3.719   6.715  0.9404 -0.0076  0.1226
   81CHL1   H2A 8448   0.515   3.711   6.681  0.7199 -0.0067 -0.5695
   81CHL1   H2B 8449   0.388   3.825   6.742 -0.2828 -0.0156 -0.7587
   81CHL1   C20 8450   0.122   3.235   7.481 -0.0962  0.5464  0.1198
   81CHL1   H20 8451   0.041   3.303   7.517  0.4428  0.9878  0.5294
   81CHL1   C21 8452   0.261   3.277   7.535  0.3754 -0.1636 -0.1356
   81CHL1  H21A 8453   0.276   3.385   7.516 -0.3949  0.0158  0.2582
   81CHL1  H21B 8454   0.334   3.213   7.481 -1.0969 -1.1688 -0.9941
   81CHL1  H21C 8455   0.263   3.252   7.643 -3.4187 -2.6059 -0.4485
   81CHL1   C22 8456   0.090   3.088   7.538  0.3998  0.2051  0.4372
   81CHL1  H22A 8457  -0.007   3.066   7.490  0.4321  0.3398  0.3079
   81CHL1  H22B 8458   0.164   3.024   7.485 -0.7554  1.0638 -2.4287
   81CHL1   C23 8459   0.062   3.076   7.688 -0.3360 -0.2773 -0.6801
   81CHL1  H23A 8460   0.155   3.096   7.746  0.4959 -0.6847 -1.8456
   81CHL1  H23B 8461  -0.010   3.158   7.710 -1.6464 -2.0609  2.3643
   81CHL1   C24 8462   0.009   2.936   7.733  0.2422  0.1627 -0.1675
   81CHL1  H24A 8463  -0.059   2.891   7.658 -0.3550  1.0877 -0.1885
   81CHL1  H24B 8464   0.095   2.866   7.740 -0.4679 -0.6290  1.0641
   81CHL1   C25 8465  -0.047   2.945   7.874  0.5533  0.4226 -0.6221
   81CHL1   H25 8466  -0.135   3.012   7.882  0.5935  0.4309 -0.2314
   81CHL1   C26 8467  -0.093   2.804   7.927 -0.4953  0.3913 -0.1371
   81CHL1  H26A 8468  -0.149   2.804   8.023 -3.0522 -1.3225 -1.5106
   81CHL1  H26B 8469  -0.151   2.750   7.850  0.6067  1.5787 -1.8672
   81CHL1  H26C 8470  -0.009   2.734   7.947  0.5721  1.8459  0.6298
   81CHL1   C27 8471   0.057   3.010   7.968 -0.6103 -0.5054  0.3062
   81CHL1  H27A 8472   0.035   3.117   7.990  1.6836  0.3826 -1.3791
   81CHL1  H27B 8473   0.045   2.973   8.072 -0.5032  3.1654  1.7746
   81CHL1  H27C 8474   0.164   2.994   7.944 -0.3574  1.2791  0.0901
   82CHL1    C3 8475   2.718   5.310   7.017 -0.3089 -1.6071  0.0316
   82CHL1    H3 8476   2.616   5.307   7.061 -0.0279  0.1402  0.8917
   82CHL1    O3 8477   2.694   5.345   6.882  0.7137 -0.2344 -0.0071
   82CHL1   H3' 8478   2.779   5.347   6.837  0.2104 -1.9821 -1.1383
   82CHL1    C4 8479   2.800   5.415   7.085 -0.4888  0.1179 -1.1447
   82CHL1   H4A 8480   2.898   5.418   7.033  0.1769  0.1330  0.0686
   82CHL1   H4B 8481   2.761   5.517   7.069 -0.1823  0.4713  0.2066
   82CHL1    C5 8482   2.823   5.377   7.231 -0.4004  0.3450  0.8662
   82CHL1    C6 8483   2.783   5.461   7.327  0.0040  0.4400  0.3797
   82CHL1    H6 8484   2.744   5.558   7.294 -1.5130 -0.9660 -2.3495
   82CHL1    C7 8485   2.786   5.431   7.476  0.8263 -0.6405  0.4659
   82CHL1   H7A 8486   2.803   5.522   7.537  1.4631 -1.2920  1.2775
   82CHL1   H7B 8487   2.695   5.386   7.522  2.3643 -2.1860  2.1578
   82CHL1    C8 8488   2.904   5.330   7.496  1.0351  0.6363  0.4620
   82CHL1    H8 8489   2.999   5.383   7.473  1.2503  0.2605  0.4820
   82CHL1   C14 8490   2.903   5.282   7.642  0.3339  0.2752  0.0227
   82CHL1   H14 8491   2.806   5.230   7.655  0.5676  0.0763  1.0290
   82CHL1   C15 8492   2.916   5.390   7.759 -0.8173 -0.2109  1.5251
   82CHL1  H15A 8493   3.002   5.450   7.725  0.4908 -3.0304 -0.5727
   82CHL1  H15B 8494   2.826   5.450   7.783 -0.4138  0.5676  1.1072
   82CHL1   C16 8495   2.958   5.309   7.880 -0.2190  0.2386  0.2537
   82CHL1  H16A 8496   3.047   5.362   7.920 -0.2151  1.5950 -1.4587
   82CHL1  H16B 8497   2.888   5.300   7.966 -0.7136 -0.5176 -0.2155
   82CHL1   C17 8498   2.984   5.162   7.831 -0.3189 -0.5340  0.1802
   82CHL1   H17 8499   2.882   5.118   7.843 -0.8555  0.4244 -0.7221
   82CHL1   C13 8500   3.007   5.176   7.680  0.3809 -0.0368  0.5862
   82CHL1   C18 8501   3.153   5.224   7.659 -0.6684  0.1436  0.1024
   82CHL1  H18A 8502   3.224   5.148   7.700  1.4152  2.0603  0.2368
   82CHL1  H18B 8503   3.183   5.238   7.553  1.0592  0.1501  0.5533
   82CHL1  H18C 8504   3.170   5.317   7.717  0.6065  0.5707 -0.9145
   82CHL1   C12 8505   2.983   5.054   7.596 -0.0383  0.5438 -0.4083
   82CHL1  H12A 8506   3.060   4.976   7.615  0.5563  0.9763 -0.9854
   82CHL1  H12B 8507   2.898   4.994   7.633 -0.6911  0.9135 -1.2638
   82CHL1   C11 8508   2.972   5.084   7.447  0.0162 -0.4819 -0.1490
   82CHL1  H11A 8509   3.072   5.122   7.417 -0.6948 -0.1817 -2.2840
   82CHL1  H11B 8510   2.952   4.997   7.382  0.9135  1.0043 -2.5380
   82CHL1    C9 8511   2.874   5.198   7.410  0.4664 -0.0904  0.0391
   82CHL1    H9 8512   2.770   5.177   7.442  0.9729 -0.2527  1.6876
   82CHL1   C10 8513   2.880   5.236   7.260  0.8285  0.6726  0.0113
   82CHL1   C19 8514   3.028   5.230   7.200 -0.3982 -0.1231  0.0884
   82CHL1  H19A 8515   3.064   5.125   7.198 -1.9207 -0.6829 -2.1868
   82CHL1  H19B 8516   3.044   5.264   7.095 -2.0318  3.0839  0.7402
   82CHL1  H19C 8517   3.100   5.283   7.267 -2.4046  0.3133  2.0260
   82CHL1    C1 8518   2.786   5.139   7.179  0.7046  0.0613 -0.0523
   82CHL1   H1A 8519   2.832   5.039   7.192 -0.1446 -0.1234  1.8052
   82CHL1   H1B 8520   2.686   5.133   7.227 -0.4257  0.1497 -2.2314
   82CHL1    C2 8521   2.767   5.171   7.027 -0.1969  0.6872 -0.0846
   82CHL1   H2A 8522   2.700   5.098   6.976  0.4367 -0.4248  0.6198
   82CHL1   H2B 8523   2.864   5.165   6.975 -1.6434  1.3817 -3.0841
   82CHL1   C20 8524   3.079   5.079   7.909  0.2824  0.2851 -0.0472
   82CHL1   H20 8525   3.110   4.994   7.844  1.3890  1.1169 -0.6369
   82CHL1   C21 8526   2.994   5.007   8.016  0.1657 -0.0415  0.1444
   82CHL1  H21A 8527   2.958   5.083   8.089  0.6772  1.8540 -1.5054
   82CHL1  H21B 8528   3.050   4.931   8.074 -0.7049 -1.8791 -1.3080
   82CHL1  H21C 8529   2.912   4.945   7.972  0.6663 -1.2126  0.8311
   82CHL1   C22 8530   3.207   5.144   7.979 -0.5300  0.7887  0.4776
   82CHL1  H22A 8531   3.256   5.198   7.895  0.2614  1.5428  1.3926
   82CHL1  H22B 8532   3.168   5.224   8.046  0.1722  0.6784  1.0320
   82CHL1   C23 8533   3.292   5.046   8.054  0.8916 -0.8308  0.1159
   82CHL1  H23A 8534   3.236   5.022   8.146 -0.3450  2.4698  0.3651
   82CHL1  H23B 8535   3.294   4.949   7.999  1.3611 -1.8186  1.7953
   82CHL1   C24 8536   3.428   5.103   8.089 -0.2210  0.2594  0.2133
   82CHL1  H24A 8537   3.491   5.137   8.004  1.3187  3.5678  2.4810
   82CHL1  H24B 8538   3.421   5.199   8.145  2.2021  0.5588  0.0719
   82CHL1   C25 8539   3.507   5.004   8.169 -0.4646  0.7185  0.4899
   82CHL1   H25 8540   3.470   4.906   8.132 -0.2838 -0.1987  2.6202
   82CHL1   C26 8541   3.654   5.004   8.120 -0.5699  0.4953 -0.1177
   82CHL1  H26A 8542   3.707   5.090   8.166 -2.2537  0.9308  1.0664
   82CHL1  H26B 8543   3.710   4.914   8.155 -1.8890 -0.1781  0.3103
   82CHL1  H26C 8544   3.681   5.006   8.012 -1.1122  2.4203 -0.2561
   82CHL1   C27 8545   3.488   5.011   8.319  0.1557 -0.2356  0.2074
   82CHL1  H27A 8546   3.544   5.094   8.365  1.0074  1.4955 -3.5647
   82CHL1  H27B 8547   3.378   5.024   8.330  0.2288  1.9296 -1.1390
   82CHL1  H27C 8548   3.528   4.917   8.364  0.6049 -0.5180 -0.7500
   83CHL1    C3 8549   3.789   4.635   6.829  0.3299  0.4937 -0.1476
   83CHL1    H3 8550   3.691   4.586   6.846  0.4278  0.7964  1.5167
   83CHL1    O3 8551   3.803   4.667   6.694  0.3505 -0.1010  0.9720
   83CHL1   H3' 8552   3.866   4.740   6.691  0.7921 -0.4044  2.3877
   83CHL1    C4 8553   3.801   4.764   6.910 -0.5064 -0.2773 -0.1687
   83CHL1   H4A 8554   3.889   4.825   6.879  1.7061 -3.0533  0.2854
   83CHL1   H4B 8555   3.721   4.839   6.887  1.3268  1.2564 -1.8845
   83CHL1    C5 8556   3.802   4.732   7.056  0.2176  0.6049 -0.2037
   83CHL1    C6 8557   3.714   4.794   7.140  0.2854 -0.4792 -0.3827
   83CHL1    H6 8558   3.646   4.873   7.107  2.5094  1.1900 -1.2757
   83CHL1    C7 8559   3.729   4.791   7.292  0.2263  0.1410 -0.0171
   83CHL1   H7A 8560   3.723   4.894   7.332  0.1128  0.2069 -0.2008
   83CHL1   H7B 8561   3.653   4.722   7.335  0.2923  1.2702  2.0687
   83CHL1    C8 8562   3.866   4.729   7.336  0.1256 -0.4803  0.6175
   83CHL1    H8 8563   3.953   4.797   7.321 -0.3545 -0.2933 -1.7378
   83CHL1   C14 8564   3.856   4.690   7.480 -0.5446 -0.5758 -0.1536
   83CHL1   H14 8565   3.778   4.611   7.484 -0.2189 -0.8625  0.9255
   83CHL1   C15 8566   3.814   4.789   7.589 -0.3376 -0.3392  0.2504
   83CHL1  H15A 8567   3.857   4.889   7.569  1.0911 -0.4294  2.4876
   83CHL1  H15B 8568   3.708   4.818   7.571 -0.0611 -0.4441 -1.7886
   83CHL1   C16 8569   3.850   4.725   7.722  0.9648 -0.6257  0.4506
   83CHL1  H16A 8570   3.893   4.798   7.793  0.9807 -0.3549  0.1628
   83CHL1  H16B 8571   3.756   4.690   7.772 -0.9168  3.0312 -0.2121
   83CHL1   C17 8572   3.930   4.597   7.686 -0.0700 -0.0861  0.6680
   83CHL1   H17 8573   3.861   4.511   7.667  2.8132 -2.6823  1.0481
   83CHL1   C13 8574   3.983   4.621   7.543  1.5443 -0.2396 -0.1835
   83CHL1   C18 8575   4.099   4.718   7.563  0.0910 -0.8029 -0.2722
   83CHL1  H18A 8576   4.130   4.761   7.465 -1.9406 -0.5257 -0.8362
   83CHL1  H18B 8577   4.083   4.798   7.638 -0.6424  0.5478 -1.8002
   83CHL1  H18C 8578   4.184   4.657   7.601  0.1579 -0.1741  0.6213
   83CHL1   C12 8579   4.020   4.497   7.463 -0.0083 -0.0841  0.3933
   83CHL1  H12A 8580   4.119   4.459   7.497  0.1638  1.6541  1.9727
   83CHL1  H12B 8581   3.949   4.412   7.474 -2.3438  1.2729 -2.7180
   83CHL1   C11 8582   4.022   4.523   7.309  0.3972  0.2175  0.1140
   83CHL1  H11A 8583   4.112   4.588   7.296  0.8895 -0.1824  1.3621
   83CHL1  H11B 8584   4.031   4.426   7.255 -1.0862 -0.0297  0.2817
   83CHL1    C9 8585   3.899   4.607   7.256  0.0574 -0.2946  0.3522
   83CHL1    H9 8586   3.811   4.539   7.259 -0.0065 -0.3605 -1.7251
   83CHL1   C10 8587   3.907   4.637   7.103  0.6039  0.0922 -0.6606
   83CHL1   C19 8588   4.039   4.717   7.076  0.7013  0.4932 -0.3371
   83CHL1  H19A 8589   4.058   4.765   6.978  0.7830 -0.7706 -0.9668
   83CHL1  H19B 8590   4.064   4.783   7.161 -4.1361  0.4984  1.3549
   83CHL1  H19C 8591   4.118   4.639   7.088  0.1124  0.1050  1.2865
   83CHL1    C1 8592   3.892   4.508   7.016 -0.5070 -0.0262 -0.2273
   83CHL1   H1A 8593   3.975   4.447   7.056 -1.0956 -0.6067  0.1444
   83CHL1   H1B 8594   3.800   4.451   7.043 -1.2467  1.5349  0.7674
   83CHL1    C2 8595   3.899   4.528   6.864  0.1124 -0.2769  0.1207
   83CHL1   H2A 8596   3.873   4.428   6.822 -2.7559  1.1866 -1.9508
   83CHL1   H2B 8597   3.992   4.551   6.809 -0.9606  1.1773 -1.1605
   83CHL1   C20 8598   4.019   4.550   7.801  0.0047 -0.3693  0.3540
   83CHL1   H20 8599   4.092   4.629   7.827 -1.7828  0.5381  3.1723
   83CHL1   C21 8600   4.090   4.422   7.769 -0.4061  0.0689 -0.4452
   83CHL1  H21A 8601   4.137   4.381   7.861 -2.0700 -2.0988 -0.4732
   83CHL1  H21B 8602   4.169   4.442   7.693  0.1086  0.1064  0.0885
   83CHL1  H21C 8603   4.021   4.345   7.729 -1.3865  1.2461 -1.0738
   83CHL1   C22 8604   3.936   4.523   7.936  0.4238  0.2060 -0.7025
   83CHL1  H22A 8605   4.017   4.476   7.994 -1.1036 -1.2283  0.3638
   83CHL1  H22B 8606   3.896   4.616   7.982 -1.4303 -1.3081  0.9388
   83CHL1   C23 8607   3.833   4.410   7.937 -0.7909  0.7171 -0.0742
   83CHL1  H23A 8608   3.768   4.425   7.848  0.8777 -0.4963 -1.5565
   83CHL1  H23B 8609   3.893   4.317   7.924  1.0924  1.5822  1.8514
   83CHL1   C24 8610   3.757   4.403   8.075  0.3234  0.0361  1.1735
   83CHL1  H24A 8611   3.689   4.316   8.061  0.7729  0.1679 -3.5921
   83CHL1  H24B 8612   3.836   4.383   8.151  0.4141 -3.4865  0.3500
   83CHL1   C25 8613   3.680   4.535   8.117 -0.1258 -0.1452 -0.3912
   83CHL1   H25 8614   3.751   4.620   8.106 -1.1735  0.5065 -2.7089
   83CHL1   C26 8615   3.557   4.568   8.026  0.2947 -0.1909 -0.0840
   83CHL1  H26A 8616   3.590   4.571   7.920  1.1377  1.8241  0.1977
   83CHL1  H26B 8617   3.477   4.493   8.043  0.3648 -0.5479 -1.2614
   83CHL1  H26C 8618   3.526   4.672   8.052  1.6883  0.0126  0.8737
   83CHL1   C27 8619   3.636   4.517   8.264  0.2363  0.2120  0.1967
   83CHL1  H27A 8620   3.725   4.528   8.331  2.6797  0.1357 -2.8202
   83CHL1  H27B 8621   3.556   4.587   8.295 -0.0096 -0.2504  0.6054
   83CHL1  H27C 8622   3.597   4.413   8.269 -1.9136  0.8846 -1.3015
   84CHL1    C3 8623   4.883   1.992   6.791 -0.0120 -0.0122 -0.7892
   84CHL1    H3 8624   4.943   2.086   6.796 -1.6788  1.0521  1.1769
   84CHL1    O3 8625   4.883   1.943   6.664  0.3443  0.3858  0.1005
   84CHL1   H3' 8626   4.795   1.954   6.627 -0.2773  0.2178  1.4723
   84CHL1    C4 8627   4.957   1.877   6.869 -0.1656  0.1438 -0.3365
   84CHL1   H4A 8628   4.891   1.787   6.864 -0.9588  0.7812 -2.7086
   84CHL1   H4B 8629   5.055   1.859   6.818  0.0334  1.4973 -0.4564
   84CHL1    C5 8630   4.972   1.915   7.011 -0.1775 -1.0931  0.1810
   84CHL1    C6 8631   5.093   1.933   7.062 -0.7728  0.1652 -0.1404
   84CHL1    H6 8632   5.175   1.897   6.997 -0.6917  2.4699 -1.3903
   84CHL1    C7 8633   5.125   1.968   7.204 -0.2176 -0.3734 -0.1997
   84CHL1   H7A 8634   5.213   1.912   7.239  0.3108  1.0866  0.9338
   84CHL1   H7B 8635   5.146   2.077   7.205  0.2754 -0.2896 -4.0156
   84CHL1    C8 8636   4.998   1.940   7.289 -0.7694  0.6967 -0.1829
   84CHL1    H8 8637   4.978   1.831   7.289 -2.7909  1.0189  0.3686
   84CHL1   C14 8638   5.022   2.000   7.420  0.8231 -0.0718 -0.2673
   84CHL1   H14 8639   5.047   2.107   7.405 -0.5764  0.1470 -1.2810
   84CHL1   C15 8640   5.140   1.938   7.499 -0.5434 -0.2031  0.0457
   84CHL1  H15A 8641   5.143   1.829   7.479  0.9084 -0.7172  2.6522
   84CHL1  H15B 8642   5.235   1.989   7.474  0.3364 -1.3595  0.9575
   84CHL1   C16 8643   5.114   1.959   7.655 -0.3692  0.2452 -0.4709
   84CHL1  H16A 8644   5.131   1.858   7.699 -2.2080 -1.1101 -2.6342
   84CHL1  H16B 8645   5.193   2.024   7.697 -1.1198  0.0298  1.3484
   84CHL1   C17 8646   4.971   2.026   7.656  0.1642  0.2494 -0.1729
   84CHL1   H17 8647   4.989   2.134   7.639  0.4946  0.3925  0.9780
   84CHL1   C13 8648   4.902   1.981   7.523  0.4956 -0.6367 -0.0875
   84CHL1   C18 8649   4.870   1.830   7.536  0.6097  0.0673  0.6300
   84CHL1  H18A 8650   4.853   1.780   7.438 -0.6293 -1.5003  1.5959
   84CHL1  H18B 8651   4.948   1.778   7.594  0.7692  0.3094  0.6346
   84CHL1  H18C 8652   4.779   1.822   7.599  1.6894 -2.6069  2.0002
   84CHL1   C12 8653   4.783   2.064   7.462 -0.4421  0.3604 -0.4304
   84CHL1  H12A 8654   4.691   2.057   7.525  0.6285 -0.1138  1.1417
   84CHL1  H12B 8655   4.812   2.171   7.467  1.6586 -0.1271 -1.4002
   84CHL1   C11 8656   4.753   2.013   7.325  0.0493 -0.1791  0.2030
   84CHL1  H11A 8657   4.699   1.916   7.327 -1.6506  0.7409  0.7294
   84CHL1  H11B 8658   4.684   2.085   7.277 -0.0875 -0.2402  0.3085
   84CHL1    C9 8659   4.870   2.006   7.226  0.1495 -0.1217  0.5919
   84CHL1    H9 8660   4.901   2.112   7.209  0.9638  0.3589  4.2642
   84CHL1   C10 8661   4.837   1.949   7.087 -0.1018  0.8174  0.0412
   84CHL1   C19 8662   4.752   1.819   7.111 -0.0949 -0.3941 -0.2961
   84CHL1  H19A 8663   4.649   1.853   7.139 -0.0754 -1.0183  0.5754
   84CHL1  H19B 8664   4.749   1.767   7.013  0.0739 -2.6085  0.8223
   84CHL1  H19C 8665   4.794   1.752   7.189 -2.0991 -2.0164 -0.5307
   84CHL1    C1 8666   4.752   2.048   7.007  0.5687  0.2591 -0.2072
   84CHL1   H1A 8667   4.655   2.045   7.060  0.5190 -3.0555 -0.3190
   84CHL1   H1B 8668   4.790   2.153   7.005 -0.3827  0.6003 -0.5946
   84CHL1    C2 8669   4.738   2.016   6.853 -0.1446 -0.0741 -0.5044
   84CHL1   H2A 8670   4.695   2.106   6.803 -0.9872  0.4018  0.9993
   84CHL1   H2B 8671   4.672   1.927   6.844 -0.8196  0.2199  1.1620
   84CHL1   C20 8672   4.888   2.004   7.786 -0.6558  0.6611 -0.8111
   84CHL1   H20 8673   4.799   1.941   7.762  1.4506 -2.7268 -0.4105
   84CHL1   C21 8674   4.830   2.143   7.827  0.5732 -0.4423  0.1836
   84CHL1  H21A 8675   4.743   2.132   7.896 -0.8101 -3.1483 -1.7653
   84CHL1  H21B 8676   4.792   2.188   7.733  0.8097 -0.3727  0.1212
   84CHL1  H21C 8677   4.917   2.193   7.875 -0.5598  3.0658 -1.1677
   84CHL1   C22 8678   4.954   1.921   7.906 -0.7890 -0.6969  0.0748
   84CHL1  H22A 8679   4.990   1.820   7.874 -3.0914 -2.2104  1.9376
   84CHL1  H22B 8680   5.037   1.983   7.946 -1.7814 -0.1138  1.2749
   84CHL1   C23 8681   4.862   1.912   8.031 -0.4156  0.1171  0.3818
   84CHL1  H23A 8682   4.831   2.011   8.072  0.0449  0.0095  0.9856
   84CHL1  H23B 8683   4.767   1.862   8.000 -1.3215  1.4604  0.8719
   84CHL1   C24 8684   4.930   1.831   8.146 -0.2798  0.2924 -0.2990
   84CHL1  H24A 8685   4.932   1.724   8.116 -1.6882 -0.7916  2.9860
   84CHL1  H24B 8686   5.033   1.868   8.163 -0.0586 -0.0175 -0.9252
   84CHL1   C25 8687   4.868   1.824   8.286 -0.0797 -0.4850  1.4608
   84CHL1   H25 8688   4.773   1.768   8.278  0.8399 -1.8709 -1.0802
   84CHL1   C26 8689   4.956   1.747   8.386 -0.7432  0.4078 -0.4304
   84CHL1  H26A 8690   4.965   1.639   8.361 -2.0151  0.6835 -2.2934
   84CHL1  H26B 8691   5.058   1.791   8.382  0.1224 -1.5353 -0.9254
   84CHL1  H26C 8692   4.906   1.764   8.484 -0.6722 -0.2915 -0.2682
   84CHL1   C27 8693   4.833   1.969   8.334  0.4240  0.2072 -0.2209
   84CHL1  H27A 8694   4.814   1.964   8.444  1.5319 -2.3030 -0.0721
   84CHL1  H27B 8695   4.911   2.047   8.325  1.1356 -0.3115  1.1025
   84CHL1  H27C 8696   4.741   2.013   8.290  0.1769  0.5983  0.6618
   85CHL1    C3 8697   6.276   5.263   6.632 -0.0959  0.5613 -0.1440
   85CHL1    H3 8698   6.269   5.374   6.624 -1.1870  0.5078 -0.0957
   85CHL1    O3 8699   6.272   5.214   6.496  0.4604  0.3747 -0.2120
   85CHL1   H3' 8700   6.363   5.201   6.467  0.4407 -0.1086 -0.0582
   85CHL1    C4 8701   6.408   5.214   6.690  0.6755  0.1045  0.7400
   85CHL1   H4A 8702   6.414   5.103   6.680 -2.1039 -0.1976  1.5521
   85CHL1   H4B 8703   6.489   5.275   6.644  0.9606 -0.6575  0.1935
   85CHL1    C5 8704   6.416   5.237   6.842  0.4867 -0.6850  0.3303
   85CHL1    C6 8705   6.523   5.304   6.893 -0.1976 -0.5668 -0.2420
   85CHL1    H6 8706   6.606   5.345   6.835  0.6277 -0.9098  0.6785
   85CHL1    C7 8707   6.532   5.315   7.042 -0.1562  0.3265  0.8026
   85CHL1   H7A 8708   6.637   5.298   7.075  0.1890 -0.9724 -0.8622
   85CHL1   H7B 8709   6.511   5.417   7.081  1.6165  0.8610  0.4481
   85CHL1    C8 8710   6.435   5.220   7.125 -1.0053 -0.4233  0.5189
   85CHL1    H8 8711   6.479   5.120   7.104 -0.9765 -0.2557 -0.2633
   85CHL1   C14 8712   6.437   5.246   7.275 -0.3904 -1.3003  0.1739
   85CHL1   H14 8713   6.403   5.350   7.291  1.3826 -0.2200 -2.4531
   85CHL1   C15 8714   6.570   5.247   7.344 -0.3555 -0.2603 -0.3459
   85CHL1  H15A 8715   6.649   5.178   7.309  0.2699  1.0378 -1.6232
   85CHL1  H15B 8716   6.606   5.352   7.337  0.1575 -0.3170  1.1966
   85CHL1   C16 8717   6.536   5.225   7.490 -0.2960 -0.4222  0.1409
   85CHL1  H16A 8718   6.593   5.138   7.529  1.6245  0.0185 -1.5434
   85CHL1  H16B 8719   6.573   5.318   7.537 -2.4802  1.3255 -1.4093
   85CHL1   C17 8720   6.382   5.211   7.501  0.2325  0.2563 -0.4115
   85CHL1   H17 8721   6.335   5.311   7.506 -0.6931 -0.2216  1.9743
   85CHL1   C13 8722   6.343   5.166   7.356 -0.0497 -0.7995 -0.1931
   85CHL1   C18 8723   6.377   5.013   7.336  0.7455  0.1359 -0.0161
   85CHL1  H18A 8724   6.485   4.998   7.356  0.9719 -0.0695 -1.2832
   85CHL1  H18B 8725   6.313   4.944   7.395  0.1248  0.7563  0.0518
   85CHL1  H18C 8726   6.352   4.986   7.231 -1.8474 -0.9478  0.7946
   85CHL1   C12 8727   6.197   5.199   7.312  0.3696  0.1097  0.1416
   85CHL1  H12A 8728   6.132   5.138   7.380  2.2556 -0.6001  1.4127
   85CHL1  H12B 8729   6.176   5.304   7.341 -0.3418 -0.1769  0.6784
   85CHL1   C11 8730   6.185   5.179   7.159  0.0346  0.6205  0.0759
   85CHL1  H11A 8731   6.155   5.074   7.140 -0.8845  0.9135 -0.1237
   85CHL1  H11B 8732   6.090   5.235   7.141 -0.6868 -0.1618  1.3115
   85CHL1    C9 8733   6.297   5.233   7.071 -0.0812 -0.0167  0.9421
   85CHL1    H9 8734   6.279   5.343   7.076 -3.0443 -0.4764  4.3028
   85CHL1   C10 8735   6.302   5.186   6.927 -0.3023  0.2957  0.1587
   85CHL1   C19 8736   6.308   5.029   6.925  0.2494  0.2913 -0.2935
   85CHL1  H19A 8737   6.231   4.985   6.992  0.8227 -0.9490 -0.4397
   85CHL1  H19B 8738   6.289   4.986   6.824 -0.8855  1.9936 -0.8552
   85CHL1  H19C 8739   6.399   4.986   6.972 -0.9904 -3.7443 -1.1776
   85CHL1    C1 8740   6.172   5.231   6.859  0.9250  0.1960 -0.4442
   85CHL1   H1A 8741   6.090   5.173   6.908  0.9521  0.0757 -0.5416
   85CHL1   H1B 8742   6.170   5.339   6.881  1.2782 -0.2491  2.0510
   85CHL1    C2 8743   6.153   5.211   6.712 -0.0790 -0.7966  0.0917
   85CHL1   H2A 8744   6.054   5.249   6.677  0.8401 -1.0763 -3.1423
   85CHL1   H2B 8745   6.145   5.103   6.684 -2.0509 -0.4290 -1.0006
   85CHL1   C20 8746   6.317   5.137   7.622 -0.1344  0.4249 -0.7534
   85CHL1   H20 8747   6.210   5.109   7.613 -0.0761 -0.5809  1.1450
   85CHL1   C21 8748   6.305   5.246   7.731  0.5488  0.1237  0.0007
   85CHL1  H21A 8749   6.259   5.341   7.697 -3.3599 -1.5668  0.0315
   85CHL1  H21B 8750   6.409   5.253   7.770  0.4031 -1.5341  0.7950
   85CHL1  H21C 8751   6.254   5.209   7.823  3.5830 -0.7869  1.4847
   85CHL1   C22 8752   6.397   5.013   7.673  0.3681 -0.5776  0.1661
   85CHL1  H22A 8753   6.428   4.953   7.585 -1.4729 -2.5633  0.7867
   85CHL1  H22B 8754   6.487   5.052   7.726  0.1265  1.6148 -0.9374
   85CHL1   C23 8755   6.311   4.937   7.776  0.5714  0.9790 -0.0219
   85CHL1  H23A 8756   6.373   4.859   7.825 -0.4536  0.7308  0.9219
   85CHL1  H23B 8757   6.277   5.005   7.857 -0.0946 -1.0976  1.5292
   85CHL1   C24 8758   6.177   4.872   7.716  0.0091  0.2271 -0.0060
   85CHL1  H24A 8759   6.098   4.946   7.694 -1.6756 -1.6845 -0.6938
   85CHL1  H24B 8760   6.208   4.819   7.623 -1.6382 -0.7686 -0.0310
   85CHL1   C25 8761   6.118   4.769   7.808 -1.3692  0.6257  0.7405
   85CHL1   H25 8762   6.189   4.687   7.827  0.1125  1.3586 -1.2842
   85CHL1   C26 8763   6.073   4.827   7.942 -0.2663 -0.0046  0.2645
   85CHL1  H26A 8764   6.160   4.882   7.985  1.4229 -2.6175  0.3628
   85CHL1  H26B 8765   5.983   4.890   7.928 -2.2107 -2.5318  0.7666
   85CHL1  H26C 8766   6.052   4.742   8.009 -0.9456  0.4511  0.6381
   85CHL1   C27 8767   6.004   4.711   7.731  0.0472 -0.7486 -0.0996
   85CHL1  H27A 8768   5.942   4.650   7.800  0.5354 -1.2999 -0.1372
   85CHL1  H27B 8769   5.936   4.782   7.681 -0.0983 -1.1834 -0.5348
   85CHL1  H27C 8770   6.041   4.658   7.640 -0.0136  0.6462 -0.9676
   86CHL1    C3 8771   1.140   2.686   6.737 -0.1987 -0.5054  0.3593
   86CHL1    H3 8772   1.217   2.754   6.779 -4.1248  4.1079  1.0379
   86CHL1    O3 8773   1.174   2.622   6.611 -0.5247 -0.3909  0.2611
   86CHL1   H3' 8774   1.121   2.542   6.611  1.2835 -1.6664  0.4132
   86CHL1    C4 8775   1.102   2.584   6.846 -0.6602  1.1224  0.5305
   86CHL1   H4A 8776   1.027   2.514   6.804  0.8457  0.1062 -0.5634
   86CHL1   H4B 8777   1.183   2.510   6.862 -1.9218 -0.8664 -1.6120
   86CHL1    C5 8778   1.067   2.642   6.983 -0.5214  0.8292 -0.0509
   86CHL1    C6 8779   1.132   2.621   7.098 -0.6128  0.6172  0.7696
   86CHL1    H6 8780   1.222   2.557   7.095  0.1603  1.5972  2.0301
   86CHL1    C7 8781   1.092   2.671   7.237  0.4267  0.4803  0.1731
   86CHL1   H7A 8782   1.109   2.586   7.307  0.3605 -0.2097 -0.6285
   86CHL1   H7B 8783   1.151   2.761   7.263 -1.5195  1.5598  1.0389
   86CHL1    C8 8784   0.942   2.704   7.233  0.5123  0.0790  0.3052
   86CHL1    H8 8785   0.879   2.613   7.234  1.5695 -0.6668  0.4908
   86CHL1   C14 8786   0.904   2.786   7.358 -0.3210  0.9769 -0.3242
   86CHL1   H14 8787   0.974   2.871   7.366 -0.1831  0.9038 -0.7196
   86CHL1   C15 8788   0.935   2.720   7.489  0.0329 -0.4336 -0.3415
   86CHL1  H15A 8789   0.901   2.615   7.499 -1.4571  0.1254  0.6402
   86CHL1  H15B 8790   1.042   2.718   7.521  0.3239  4.3408 -0.2576
   86CHL1   C16 8791   0.860   2.803   7.598 -0.0112 -0.3255  0.9557
   86CHL1  H16A 8792   0.790   2.732   7.646 -0.4861 -1.6298 -1.4837
   86CHL1  H16B 8793   0.930   2.842   7.676 -0.7165  0.4847  1.2028
   86CHL1   C17 8794   0.780   2.910   7.512  0.0779 -0.3073 -0.1947
   86CHL1   H17 8795   0.851   2.995   7.505  1.6287 -1.5033  0.2787
   86CHL1   C13 8796   0.771   2.850   7.373 -0.2253  0.0724  0.6239
   86CHL1   C18 8797   0.670   2.735   7.367  0.3123  0.3229  0.4231
   86CHL1  H18A 8798   0.567   2.775   7.360  0.5957  0.7798 -2.0816
   86CHL1  H18B 8799   0.683   2.669   7.279  1.6425  0.3766  0.5534
   86CHL1  H18C 8800   0.673   2.675   7.461 -0.1721 -0.2378  0.0856
   86CHL1   C12 8801   0.759   2.943   7.253 -0.0596  0.3064 -0.1195
   86CHL1  H12A 8802   0.665   3.001   7.243 -1.2964 -1.6934 -0.6906
   86CHL1  H12B 8803   0.832   3.026   7.253 -1.4033  1.5647  1.5576
   86CHL1   C11 8804   0.778   2.869   7.120 -0.3214 -0.4106  0.6194
   86CHL1  H11A 8805   0.691   2.801   7.106  0.7872 -1.3023 -3.0221
   86CHL1  H11B 8806   0.767   2.944   7.038  0.5717 -1.9696 -0.9974
   86CHL1    C9 8807   0.916   2.791   7.108  0.3831 -0.2297  0.4260
   86CHL1    H9 8808   0.995   2.869   7.115  0.2279 -0.2183  3.3320
   86CHL1   C10 8809   0.937   2.717   6.977 -0.4442 -0.5783  0.0915
   86CHL1   C19 8810   0.811   2.627   6.937 -0.4514 -0.2710 -0.3159
   86CHL1  H19A 8811   0.821   2.540   7.005 -2.4933  1.3574  2.2293
   86CHL1  H19B 8812   0.710   2.670   6.951 -0.5053 -0.4616 -0.1086
   86CHL1  H19C 8813   0.826   2.598   6.831  1.2194  0.5850 -0.3537
   86CHL1    C1 8814   0.960   2.823   6.865  0.7418  0.6120 -0.1942
   86CHL1   H1A 8815   0.872   2.887   6.843 -0.7036 -1.2508 -0.1133
   86CHL1   H1B 8816   1.045   2.884   6.902  1.9275 -0.7936 -0.4842
   86CHL1    C2 8817   1.015   2.779   6.721  0.1478  0.2501 -0.8516
   86CHL1   H2A 8818   1.040   2.873   6.668  2.1330  0.3078  0.1111
   86CHL1   H2B 8819   0.943   2.729   6.651 -0.7068  0.8436 -0.4194
   86CHL1   C20 8820   0.660   2.971   7.586 -0.4123  0.2746  0.1815
   86CHL1   H20 8821   0.574   2.906   7.558  0.4539 -0.8506  0.0574
   86CHL1   C21 8822   0.632   3.112   7.533 -0.0710 -0.1297 -0.3035
   86CHL1  H21A 8823   0.630   3.103   7.423  1.8881 -0.8558 -0.3323
   86CHL1  H21B 8824   0.706   3.185   7.573 -0.3372  0.2013 -0.4070
   86CHL1  H21C 8825   0.541   3.157   7.578  2.2737  1.5514  3.2659
   86CHL1   C22 8826   0.674   2.975   7.738 -0.4866 -0.0830  0.1232
   86CHL1  H22A 8827   0.706   2.879   7.785  0.1124  0.1819  0.2613
   86CHL1  H22B 8828   0.759   3.043   7.762 -0.1078 -1.4828  3.3514
   86CHL1   C23 8829   0.549   3.020   7.814  0.2179 -0.3769  0.5913
   86CHL1  H23A 8830   0.508   3.113   7.770  3.0844  0.7910  0.1828
   86CHL1  H23B 8831   0.475   2.937   7.811  3.0653 -3.0831 -0.0482
   86CHL1   C24 8832   0.581   3.047   7.963  0.1101  0.0335 -0.0115
   86CHL1  H24A 8833   0.639   2.960   8.001  1.3574  0.2685 -1.2993
   86CHL1  H24B 8834   0.653   3.131   7.968  0.1447  0.1594 -1.8875
   86CHL1   C25 8835   0.451   3.082   8.055  0.6030  0.6211 -0.2154
   86CHL1   H25 8836   0.373   3.004   8.048  1.1202  0.2592 -2.6506
   86CHL1   C26 8837   0.496   3.102   8.198 -0.5612 -0.6870 -1.3303
   86CHL1  H26A 8838   0.564   3.188   8.213  0.1925 -1.6003  0.9009
   86CHL1  H26B 8839   0.406   3.112   8.262 -0.2485 -0.7487 -0.8714
   86CHL1  H26C 8840   0.555   3.017   8.238 -0.6472  0.5514  1.6785
   86CHL1   C27 8841   0.377   3.209   8.009 -1.0466 -0.2056  0.2810
   86CHL1  H27A 8842   0.346   3.191   7.904 -0.7590  0.6528  0.0358
   86CHL1  H27B 8843   0.289   3.230   8.074 -0.6860 -1.2172  1.1121
   86CHL1  H27C 8844   0.447   3.296   8.013  0.3726 -1.1729 -1.7342
   87CHL1    C3 8845   0.335   5.832   7.078 -0.4719  0.3387  0.7988
   87CHL1    H3 8846   0.235   5.785   7.088 -0.4514  0.1741  0.2303
   87CHL1    O3 8847   0.351   5.880   6.947  0.5193  0.0724  0.2830
   87CHL1   H3' 8848   0.333   5.973   6.961 -0.5885 -0.3344  1.7730
   87CHL1    C4 8849   0.350   5.950   7.179 -0.1801  0.1977  0.1118
   87CHL1   H4A 8850   0.454   5.990   7.177  0.9251 -2.2280  2.4701
   87CHL1   H4B 8851   0.276   6.028   7.152  0.1951 -0.1550 -2.1138
   87CHL1    C5 8852   0.336   5.901   7.317 -0.1822  0.5072 -0.3602
   87CHL1    C6 8853   0.241   5.946   7.403 -0.0267 -0.1090 -0.3816
   87CHL1    H6 8854   0.169   6.017   7.362  0.6609 -0.3097 -1.9917
   87CHL1    C7 8855   0.221   5.905   7.546  0.2540  0.5017 -0.3338
   87CHL1   H7A 8856   0.197   5.994   7.607  1.2164  1.4385 -1.2974
   87CHL1   H7B 8857   0.133   5.840   7.570  1.4525 -1.9255 -2.0902
   87CHL1    C8 8858   0.340   5.827   7.601 -0.8526  0.1332  0.0906
   87CHL1    H8 8859   0.424   5.899   7.612 -0.2568  0.1291 -3.3586
   87CHL1   C14 8860   0.304   5.765   7.736  0.7372  0.3493  0.1006
   87CHL1   H14 8861   0.223   5.694   7.709 -1.4553  3.1739 -1.4029
   87CHL1   C15 8862   0.235   5.851   7.841 -0.1447 -0.1021 -0.7181
   87CHL1  H15A 8863   0.272   5.956   7.840 -0.2719 -0.0225 -3.4263
   87CHL1  H15B 8864   0.125   5.846   7.825 -0.1968 -1.4498 -0.0624
   87CHL1   C16 8865   0.257   5.772   7.975 -0.4400 -0.5464  0.3940
   87CHL1  H16A 8866   0.319   5.842   8.035  0.1106 -0.7395  0.0670
   87CHL1  H16B 8867   0.159   5.748   8.020 -1.3621 -0.6417 -1.5506
   87CHL1   C17 8868   0.341   5.642   7.941 -0.4872 -0.0752  0.6167
   87CHL1   H17 8869   0.270   5.560   7.916 -1.5569  0.1976  2.5722
   87CHL1   C13 8870   0.416   5.679   7.808  0.2882  0.0408  0.4418
   87CHL1   C18 8871   0.527   5.771   7.841  0.3087 -0.4825  0.3156
   87CHL1  H18A 8872   0.501   5.854   7.911 -2.0247 -1.0482  0.1886
   87CHL1  H18B 8873   0.621   5.720   7.872 -0.1593 -1.6615 -0.1532
   87CHL1  H18C 8874   0.549   5.824   7.746 -1.6831 -0.9787 -0.4747
   87CHL1   C12 8875   0.456   5.567   7.710  0.2268 -0.1039 -0.4151
   87CHL1  H12A 8876   0.548   5.519   7.750  1.3353  1.4479 -1.0057
   87CHL1  H12B 8877   0.371   5.495   7.698  0.0149  0.2425 -1.0242
   87CHL1   C11 8878   0.500   5.628   7.575 -0.5102  0.3993  0.2450
   87CHL1  H11A 8879   0.599   5.675   7.594 -1.4514  1.4265  3.1342
   87CHL1  H11B 8880   0.524   5.549   7.501  1.9041  2.2458 -1.0700
   87CHL1    C9 8881   0.391   5.720   7.504  0.0827  0.2580 -0.5652
   87CHL1    H9 8882   0.305   5.652   7.490  0.2229 -1.0779  3.6481
   87CHL1   C10 8883   0.428   5.787   7.364  0.1889  0.9560 -0.8835
   87CHL1   C19 8884   0.574   5.843   7.380 -0.2246 -0.1774 -0.4605
   87CHL1  H19A 8885   0.615   5.882   7.285  0.9953 -2.3189 -0.8760
   87CHL1  H19B 8886   0.573   5.923   7.457 -1.9021  0.8120 -1.4539
   87CHL1  H19C 8887   0.641   5.759   7.406 -0.3757 -0.0044  0.5493
   87CHL1    C1 8888   0.425   5.671   7.258  0.1311  0.0078 -0.5937
   87CHL1   H1A 8889   0.504   5.599   7.291 -3.1761 -3.1520  1.2170
   87CHL1   H1B 8890   0.323   5.626   7.264  0.3165 -0.4364 -0.7132
   87CHL1    C2 8891   0.445   5.726   7.115 -0.5061  0.3119  0.6232
   87CHL1   H2A 8892   0.432   5.644   7.041 -1.5753  0.9016  0.1318
   87CHL1   H2B 8893   0.542   5.780   7.105 -0.5383  0.5117  1.3875
   87CHL1   C20 8894   0.428   5.588   8.053 -0.5390 -0.0919  0.9637
   87CHL1   H20 8895   0.523   5.647   8.048 -1.7738  1.8929 -1.4318
   87CHL1   C21 8896   0.466   5.439   8.032 -0.1849  0.7487  0.7452
   87CHL1  H21A 8897   0.381   5.371   8.053  1.2647 -0.7435  2.1056
   87CHL1  H21B 8898   0.555   5.405   8.090 -1.3612 -2.0139  1.0771
   87CHL1  H21C 8899   0.503   5.413   7.930  1.1213  0.5020  1.2642
   87CHL1   C22 8900   0.361   5.611   8.192  0.6345 -0.5138  0.0129
   87CHL1  H22A 8901   0.318   5.712   8.206 -2.0452 -1.7223  1.3098
   87CHL1  H22B 8902   0.268   5.551   8.194 -0.4349  1.1158  0.7672
   87CHL1   C23 8903   0.450   5.586   8.309  0.3245  0.3870 -0.6005
   87CHL1  H23A 8904   0.476   5.479   8.321  1.0296  0.5745 -0.4417
   87CHL1  H23B 8905   0.549   5.636   8.307  0.8503 -0.6464 -1.2927
   87CHL1   C24 8906   0.383   5.643   8.430 -0.7060  0.5764  0.0299
   87CHL1  H24A 8907   0.397   5.753   8.431  0.4190  0.4450  1.0573
   87CHL1  H24B 8908   0.277   5.608   8.437 -0.9695  1.4558  0.8003
   87CHL1   C25 8909   0.440   5.585   8.568  0.6303 -0.8363 -0.6420
   87CHL1   H25 8910   0.430   5.475   8.560 -2.1298 -0.6435 -0.6004
   87CHL1   C26 8911   0.583   5.619   8.594 -0.1084 -0.1142 -0.3206
   87CHL1  H26A 8912   0.644   5.560   8.522  0.9471 -0.1158  0.5443
   87CHL1  H26B 8913   0.593   5.729   8.579 -3.6453  0.3137 -0.4258
   87CHL1  H26C 8914   0.615   5.591   8.697  0.3630  1.3585 -0.0411
   87CHL1   C27 8915   0.351   5.644   8.680  0.0577  1.2127 -0.5141
   87CHL1  H27A 8916   0.243   5.639   8.655  0.0799 -1.9550 -0.4516
   87CHL1  H27B 8917   0.371   5.591   8.776 -1.6182  1.2229 -0.1331
   87CHL1  H27C 8918   0.378   5.749   8.700 -0.6454  1.2812  0.1257
   88CHL1    C3 8919   4.820   6.708   6.767  0.6273  0.1683 -0.1430
   88CHL1    H3 8920   4.729   6.649   6.791  1.0428 -0.4662 -0.1077
   88CHL1    O3 8921   4.805   6.739   6.628  0.0135 -0.0726  0.4930
   88CHL1   H3' 8922   4.800   6.658   6.576 -1.5821  1.3767 -1.7871
   88CHL1    C4 8923   4.808   6.839   6.845  0.3722 -0.5267 -0.2101
   88CHL1   H4A 8924   4.878   6.917   6.808  0.3599  0.2372  1.2949
   88CHL1   H4B 8925   4.708   6.884   6.828  1.5415  1.4053 -2.7106
   88CHL1    C5 8926   4.827   6.815   6.994 -0.3587  1.1341 -0.2459
   88CHL1    C6 8927   4.746   6.861   7.084 -0.0449  0.0409 -1.0474
   88CHL1    H6 8928   4.655   6.916   7.057 -1.6966 -2.4546 -0.8695
   88CHL1    C7 8929   4.775   6.856   7.232  0.0662 -0.2918  0.1726
   88CHL1   H7A 8930   4.735   6.935   7.299  1.6611  0.0147  0.8319
   88CHL1   H7B 8931   4.705   6.776   7.264 -0.0991 -1.7122 -3.2650
   88CHL1    C8 8932   4.913   6.808   7.271 -0.3470  0.4410 -0.6333
   88CHL1    H8 8933   4.985   6.891   7.253 -1.2411  1.2044 -0.7534
   88CHL1   C14 8934   4.911   6.761   7.419  0.3651 -0.2407  0.3631
   88CHL1   H14 8935   4.841   6.674   7.417  0.1586 -0.0788  0.5575
   88CHL1   C15 8936   4.854   6.856   7.523  0.3477  0.2827 -0.4811
   88CHL1  H15A 8937   4.870   6.966   7.514 -0.0669  0.2186 -2.5511
   88CHL1  H15B 8938   4.744   6.847   7.532  0.5207 -1.5702  0.1864
   88CHL1   C16 8939   4.920   6.799   7.645  0.0269  0.0257 -0.1043
   88CHL1  H16A 8940   4.995   6.878   7.669  0.1033  0.2456 -1.0188
   88CHL1  H16B 8941   4.850   6.786   7.731  1.6215 -1.7276  1.0019
   88CHL1   C17 8942   5.005   6.673   7.602  0.0966  0.5254 -0.6292
   88CHL1   H17 8943   4.928   6.593   7.602 -0.1229  0.6882  0.9980
   88CHL1   C13 8944   5.049   6.710   7.458 -0.5245  0.0371 -0.5631
   88CHL1   C18 8945   5.152   6.826   7.453  0.2302 -0.0580 -1.0048
   88CHL1  H18A 8946   5.122   6.916   7.511  1.8208 -1.1599  1.7078
   88CHL1  H18B 8947   5.247   6.794   7.501 -0.0068  1.8574  0.8815
   88CHL1  H18C 8948   5.171   6.861   7.349  0.9876  0.3215 -0.7483
   88CHL1   C12 8949   5.088   6.588   7.373  0.0329 -0.1181  0.0838
   88CHL1  H12A 8950   5.189   6.549   7.401  0.1404 -0.5853 -0.9085
   88CHL1  H12B 8951   5.011   6.511   7.392  1.1655 -1.0000  1.2839
   88CHL1   C11 8952   5.099   6.634   7.225  0.9322  0.5203  0.6938
   88CHL1  H11A 8953   5.174   6.713   7.207 -1.5978  2.6754 -1.0374
   88CHL1  H11B 8954   5.130   6.549   7.159  0.6879  0.4191  0.7085
   88CHL1    C9 8955   4.962   6.697   7.180 -0.0959  0.1069  0.2891
   88CHL1    H9 8956   4.881   6.623   7.196 -0.6207  0.6918  0.3910
   88CHL1   C10 8957   4.956   6.736   7.029  0.3191  0.1034 -0.2436
   88CHL1   C19 8958   5.066   6.839   6.993 -0.0288  0.5007  0.0189
   88CHL1  H19A 8959   5.167   6.796   7.013  0.1169  2.1589  3.5787
   88CHL1  H19B 8960   5.061   6.865   6.885  0.7626 -2.7971 -0.9160
   88CHL1  H19C 8961   5.067   6.926   7.061 -1.3223  0.0500  0.6438
   88CHL1    C1 8962   4.965   6.603   6.944  0.0266  0.5776  0.2693
   88CHL1   H1A 8963   5.062   6.554   6.965 -0.3563 -0.2801  0.0862
   88CHL1   H1B 8964   4.879   6.547   6.987  1.4662 -0.4490  1.9192
   88CHL1    C2 8965   4.944   6.622   6.798 -0.6304 -0.2339  0.1894
   88CHL1   H2A 8966   4.951   6.529   6.737  2.2444  1.2583 -2.0175
   88CHL1   H2B 8967   5.031   6.686   6.770 -0.6868  0.5842  1.7764
   88CHL1   C20 8968   5.121   6.644   7.712 -0.2351 -0.4074 -0.3283
   88CHL1   H20 8969   5.195   6.582   7.656 -2.1628 -2.8334 -0.3847
   88CHL1   C21 8970   5.051   6.547   7.818 -0.3541  0.0374 -0.3411
   88CHL1  H21A 8971   5.012   6.454   7.773 -1.3818  0.5190 -0.4823
   88CHL1  H21B 8972   4.975   6.604   7.875 -0.3364 -0.7234  0.4547
   88CHL1  H21C 8973   5.127   6.514   7.892 -0.9412 -0.5246  0.0234
   88CHL1   C22 8974   5.187   6.767   7.778 -0.1630  0.0550 -0.3415
   88CHL1  H22A 8975   5.218   6.843   7.703  2.6978 -3.0549 -2.6604
   88CHL1  H22B 8976   5.119   6.807   7.856  0.9547  0.9665  0.2017
   88CHL1   C23 8977   5.316   6.735   7.857  0.1167  0.1488 -0.0960
   88CHL1  H23A 8978   5.282   6.673   7.943  0.3511  0.4270  0.1978
   88CHL1  H23B 8979   5.389   6.678   7.797  0.4629 -1.9291  2.1128
   88CHL1   C24 8980   5.394   6.854   7.917 -0.4409  0.0602  0.2572
   88CHL1  H24A 8981   5.423   6.918   7.831 -0.9292  0.2938  0.2632
   88CHL1  H24B 8982   5.340   6.919   7.990 -0.2538  2.4820 -1.6233
   88CHL1   C25 8983   5.525   6.817   7.999  0.1325  0.8229 -0.9542
   88CHL1   H25 8984   5.480   6.748   8.073 -0.5237  1.8070 -0.4219
   88CHL1   C26 8985   5.638   6.743   7.929 -0.3068 -0.3133 -0.7015
   88CHL1  H26A 8986   5.735   6.746   7.985 -0.4240  0.8938 -0.5459
   88CHL1  H26B 8987   5.607   6.640   7.901 -0.5857 -0.0208 -1.4797
   88CHL1  H26C 8988   5.671   6.804   7.842  3.3734 -0.1841  0.5839
   88CHL1   C27 8989   5.579   6.950   8.055  0.3839 -0.5756  0.2140
   88CHL1  H27A 8990   5.661   6.945   8.129 -0.4568 -1.0678  1.1357
   88CHL1  H27B 8991   5.607   7.014   7.969 -0.4606  0.4264  0.6623
   88CHL1  H27C 8992   5.493   7.002   8.103  0.0963  0.2314 -1.1005
   89CHL1    C3 8993   1.321   3.046   6.862  0.0958 -0.1724 -0.6621
   89CHL1    H3 8994   1.220   3.001   6.845 -0.0138 -0.5373  0.8259
   89CHL1    O3 8995   1.379   3.064   6.735  0.1135 -0.1368  0.0527
   89CHL1   H3' 8996   1.464   3.110   6.743  0.0375  0.7625 -2.8949
   89CHL1    C4 8997   1.301   3.182   6.932 -0.1628  0.4816  0.0090
   89CHL1   H4A 8998   1.400   3.232   6.932 -0.8951  2.0400  1.6138
   89CHL1   H4B 8999   1.229   3.244   6.873 -2.1287 -1.5041  0.1997
   89CHL1    C5 9000   1.252   3.167   7.075  0.2962  0.6765 -0.5414
   89CHL1    C6 9001   1.140   3.227   7.121 -0.3855  0.0908  0.5141
   89CHL1    H6 9002   1.076   3.279   7.048  0.9806  0.6988 -0.2945
   89CHL1    C7 9003   1.084   3.208   7.255  0.2604 -0.7685 -0.0473
   89CHL1   H7A 9004   1.046   3.303   7.299  1.0514  0.7057 -2.3365
   89CHL1   H7B 9005   1.004   3.131   7.255 -1.8475  1.2782  1.3920
   89CHL1    C8 9006   1.194   3.169   7.359 -1.2993  0.1951  0.3831
   89CHL1    H8 9007   1.267   3.250   7.378  1.3020 -1.6504 -1.0179
   89CHL1   C14 9008   1.135   3.133   7.500  1.0731 -0.0736  0.0719
   89CHL1   H14 9009   1.059   3.054   7.484  2.4328 -1.8840  2.0595
   89CHL1   C15 9010   1.053   3.253   7.564  0.4531  0.1639 -0.4631
   89CHL1  H15A 9011   1.117   3.343   7.571  0.5192 -0.0078  2.4402
   89CHL1  H15B 9012   0.952   3.268   7.521  0.1158 -3.1447 -1.0771
   89CHL1   C16 9013   1.047   3.198   7.707 -0.4817  0.5967 -0.2374
   89CHL1  H16A 9014   1.075   3.276   7.781  0.9030  0.9104 -1.0709
   89CHL1  H16B 9015   0.949   3.159   7.742  1.0236 -2.3169  1.0253
   89CHL1   C17 9016   1.148   3.080   7.723  0.0920 -0.0580 -0.2656
   89CHL1   H17 9017   1.089   2.985   7.726  2.2652 -1.4743  0.3796
   89CHL1   C13 9018   1.235   3.072   7.593 -0.1314 -0.2379 -0.3628
   89CHL1   C18 9019   1.358   3.168   7.613  0.0589 -0.2824 -0.3750
   89CHL1  H18A 9020   1.323   3.261   7.664  1.8981  0.2836 -0.0658
   89CHL1  H18B 9021   1.443   3.115   7.660  1.0238  0.4271 -1.2731
   89CHL1  H18C 9022   1.400   3.191   7.513  0.9144 -0.8741 -0.1512
   89CHL1   C12 9023   1.288   2.938   7.544 -0.3445 -0.4827 -0.0306
   89CHL1  H12A 9024   1.363   2.876   7.598  0.0752  0.6429  0.7116
   89CHL1  H12B 9025   1.198   2.875   7.529 -2.2277  2.0397  0.0726
   89CHL1   C11 9026   1.359   2.965   7.402 -0.4159  0.0689  0.6462
   89CHL1  H11A 9027   1.451   3.023   7.424  0.2770 -0.5553 -0.5297
   89CHL1  H11B 9028   1.388   2.865   7.363 -0.6692 -0.2896  1.3473
   89CHL1    C9 9029   1.266   3.039   7.303  0.1122  0.2021  0.3481
   89CHL1    H9 9030   1.189   2.963   7.278 -1.5842  1.4824  1.4529
   89CHL1   C10 9031   1.337   3.073   7.161  0.1858  0.1601 -0.4430
   89CHL1   C19 9032   1.469   3.139   7.201 -0.4424  0.0170 -0.1882
   89CHL1  H19A 9033   1.536   3.067   7.254 -1.7343  0.1362  1.7290
   89CHL1  H19B 9034   1.521   3.188   7.116 -1.1419 -0.7718 -1.0839
   89CHL1  H19C 9035   1.449   3.217   7.278  2.0638  0.6590 -0.0823
   89CHL1    C1 9036   1.372   2.939   7.092  0.0610 -0.3630  0.3420
   89CHL1   H1A 9037   1.452   2.882   7.144  0.2404 -1.0540 -0.6541
   89CHL1   H1B 9038   1.284   2.872   7.098  0.6558 -1.0630  2.0265
   89CHL1    C2 9039   1.413   2.952   6.948 -0.5004 -1.0183  0.2004
   89CHL1   H2A 9040   1.426   2.852   6.902 -0.8591 -1.2747  0.6483
   89CHL1   H2B 9041   1.517   2.991   6.939 -1.2109  0.7819 -0.6849
   89CHL1   C20 9042   1.208   3.066   7.864 -0.0205  0.2331  0.2083
   89CHL1   H20 9043   1.263   3.162   7.875  0.1177  0.2857 -0.8693
   89CHL1   C21 9044   1.302   2.943   7.873 -0.0871  0.0476 -0.0816
   89CHL1  H21A 9045   1.351   2.936   7.972 -1.7309  3.0941  1.0635
   89CHL1  H21B 9046   1.381   2.937   7.794 -0.4631 -0.5580 -0.4214
   89CHL1  H21C 9047   1.251   2.845   7.861 -0.9299  0.0938  2.5743
   89CHL1   C22 9048   1.093   3.059   7.977 -0.2883  0.2987  0.4292
   89CHL1  H22A 9049   1.043   3.158   7.980 -1.6197 -0.2839 -0.8211
   89CHL1  H22B 9050   1.024   2.979   7.941  2.7042 -1.9045 -0.8603
   89CHL1   C23 9051   1.135   3.043   8.117  0.0373  0.4838  0.2136
   89CHL1  H23A 9052   1.184   2.943   8.118  1.9599  1.3819  0.6839
   89CHL1  H23B 9053   1.206   3.125   8.142  0.8750 -0.4545  1.0350
   89CHL1   C24 9054   1.018   3.040   8.215  0.2754  0.1584 -0.4846
   89CHL1  H24A 9055   0.972   3.141   8.209  1.9766  0.9404 -0.8574
   89CHL1  H24B 9056   0.943   2.971   8.171  0.4274 -0.1207 -0.3145
   89CHL1   C25 9057   1.045   2.994   8.361  0.3635 -0.5785 -0.1006
   89CHL1   H25 9058   1.066   2.885   8.371 -1.9501 -1.3715 -2.5826
   89CHL1   C26 9059   1.166   3.076   8.419  0.2693  0.5263 -0.3256
   89CHL1  H26A 9060   1.187   3.032   8.519  0.4251 -1.3454 -1.1530
   89CHL1  H26B 9061   1.258   3.062   8.357  2.1552  1.1522  2.1565
   89CHL1  H26C 9062   1.144   3.184   8.407  2.4123  0.8118 -2.6945
   89CHL1   C27 9063   0.915   3.018   8.438  0.5599 -0.3430  0.1663
   89CHL1  H27A 9064   0.829   2.972   8.384 -1.0089  2.2553  0.2703
   89CHL1  H27B 9065   0.919   2.993   8.546 -2.5695  0.6943  0.6367
   89CHL1  H27C 9066   0.905   3.129   8.437  0.7081 -0.3091  1.4244
   90CHL1    C3 9067   3.603   5.407   7.028 -0.1146  0.0374  0.2911
   90CHL1    H3 9068   3.712   5.427   7.026 -0.1000 -0.0498 -0.9882
   90CHL1    O3 9069   3.557   5.384   6.897 -0.2067 -0.4907  0.3070
   90CHL1   H3' 9070   3.465   5.361   6.910 -0.3022 -0.0657  0.4038
   90CHL1    C4 9071   3.559   5.283   7.109  0.4292  0.3966  0.2926
   90CHL1   H4A 9072   3.448   5.282   7.101  0.3137  3.1464  0.8675
   90CHL1   H4B 9073   3.606   5.196   7.059 -1.2457 -1.1724  1.2923
   90CHL1    C5 9074   3.581   5.291   7.257  0.3164  0.7540 -0.1030
   90CHL1    C6 9075   3.655   5.189   7.314  1.0882 -0.1729 -0.6484
   90CHL1    H6 9076   3.684   5.099   7.258 -1.3341 -1.8325  0.6166
   90CHL1    C7 9077   3.685   5.191   7.462 -0.5159 -0.2708 -0.0048
   90CHL1   H7A 9078   3.655   5.098   7.515 -0.1572 -0.3612  0.0372
   90CHL1   H7B 9079   3.795   5.201   7.471 -0.6051 -0.1675  1.0993
   90CHL1    C8 9080   3.624   5.307   7.542  0.1154 -0.1028  0.1124
   90CHL1    H8 9081   3.518   5.283   7.561  0.1787 -1.9002 -1.5507
   90CHL1   C14 9082   3.695   5.324   7.674 -0.4910  0.4035  0.1241
   90CHL1   H14 9083   3.796   5.358   7.641 -0.9665  3.3524  1.3838
   90CHL1   C15 9084   3.705   5.198   7.763 -0.2197 -0.5499 -0.1538
   90CHL1  H15A 9085   3.604   5.153   7.772  1.0363 -3.4346  0.6495
   90CHL1  H15B 9086   3.780   5.129   7.719  2.4410  2.4827 -0.6960
   90CHL1   C16 9087   3.746   5.260   7.898 -0.7828  0.1108 -0.6325
   90CHL1  H16A 9088   3.657   5.238   7.961 -0.5422 -0.2675 -0.4295
   90CHL1  H16B 9089   3.847   5.228   7.929 -0.8044  0.2634 -0.4054
   90CHL1   C17 9090   3.743   5.414   7.885 -0.0151  0.4463 -0.7804
   90CHL1   H17 9091   3.846   5.449   7.863  1.0504 -1.4852  0.8550
   90CHL1   C13 9092   3.651   5.443   7.762 -0.7457 -0.4691  0.4400
   90CHL1   C18 9093   3.514   5.417   7.803  0.3032  0.1190 -0.6477
   90CHL1  H18A 9094   3.445   5.404   7.717 -1.7863 -0.6770  1.0429
   90CHL1  H18B 9095   3.496   5.321   7.855 -1.7572  0.3485 -0.8300
   90CHL1  H18C 9096   3.463   5.487   7.873 -0.9611  0.0743 -1.4790
   90CHL1   C12 9097   3.669   5.575   7.675 -0.2320  0.9469 -0.3121
   90CHL1  H12A 9098   3.634   5.653   7.745  4.8863  3.5272 -0.1352
   90CHL1  H12B 9099   3.779   5.587   7.664  0.0716 -0.2040  1.1101
   90CHL1   C11 9100   3.599   5.566   7.537 -0.2036  0.8267  0.2533
   90CHL1  H11A 9101   3.491   5.553   7.560 -1.2017 -1.7522 -4.5614
   90CHL1  H11B 9102   3.612   5.657   7.475 -0.1557  1.1031  0.6658
   90CHL1    C9 9103   3.626   5.435   7.452  0.0660  0.1205  0.3681
   90CHL1    H9 9104   3.733   5.432   7.425  0.0083 -0.2359  0.1872
   90CHL1   C10 9105   3.551   5.423   7.322 -0.1286 -0.7306 -0.2235
   90CHL1   C19 9106   3.399   5.431   7.354 -1.1776 -0.2528  0.0396
   90CHL1  H19A 9107   3.335   5.410   7.265  0.0795 -0.9236 -0.7414
   90CHL1  H19B 9108   3.370   5.365   7.439 -0.1574 -0.7112  0.0515
   90CHL1  H19C 9109   3.369   5.531   7.391 -0.6369 -0.9642  2.6090
   90CHL1    C1 9110   3.595   5.538   7.230  0.1186  0.1538  1.1234
   90CHL1   H1A 9111   3.550   5.634   7.263  1.0358  1.5124 -1.3242
   90CHL1   H1B 9112   3.706   5.546   7.230  0.3717 -1.9591 -1.4577
   90CHL1    C2 9113   3.548   5.537   7.085  0.0855 -0.2343  0.4937
   90CHL1   H2A 9114   3.593   5.621   7.027  1.4630 -0.0573  1.7405
   90CHL1   H2B 9115   3.437   5.535   7.081 -0.0342 -3.5521  2.1757
   90CHL1   C20 9116   3.704   5.485   8.020 -0.5493  0.9395 -0.7804
   90CHL1   H20 9117   3.611   5.431   8.050 -0.0110  1.4340  2.0605
   90CHL1   C21 9118   3.684   5.635   8.009  0.0008  0.1875 -0.0825
   90CHL1  H21A 9119   3.785   5.677   7.990 -0.7299  1.7345 -0.8503
   90CHL1  H21B 9120   3.652   5.680   8.105 -0.3378  2.8661 -1.3386
   90CHL1  H21C 9121   3.605   5.658   7.933 -0.4902 -1.6823 -0.1732
   90CHL1   C22 9122   3.814   5.455   8.129  0.0708  0.1075  0.0951
   90CHL1  H22A 9123   3.843   5.348   8.117 -1.7312 -0.5673  1.4084
   90CHL1  H22B 9124   3.911   5.508   8.112  0.7129 -0.4387  1.8002
   90CHL1   C23 9125   3.773   5.462   8.275 -0.2921  0.7066 -0.4980
   90CHL1  H23A 9126   3.718   5.558   8.284 -1.9705 -0.2893  0.5184
   90CHL1  H23B 9127   3.701   5.378   8.289 -1.0519  1.1746 -1.4806
   90CHL1   C24 9128   3.897   5.439   8.361  0.0673  0.2679 -0.4355
   90CHL1  H24A 9129   3.934   5.337   8.340 -2.7750 -0.4850 -2.2089
   90CHL1  H24B 9130   3.965   5.523   8.331  0.5241 -0.0941 -0.4271
   90CHL1   C25 9131   3.877   5.459   8.514  0.1462 -0.8210  0.8019
   90CHL1   H25 9132   3.825   5.556   8.527 -0.7913 -1.1735 -0.1662
   90CHL1   C26 9133   3.779   5.369   8.580  0.7424  0.0105 -0.1276
   90CHL1  H26A 9134   3.767   5.373   8.691 -0.9676 -0.4843 -0.2786
   90CHL1  H26B 9135   3.680   5.403   8.544  1.6888  3.1806 -0.0647
   90CHL1  H26C 9136   3.790   5.262   8.550 -1.7045 -0.2837 -0.1552
   90CHL1   C27 9137   4.004   5.465   8.602  0.5760  0.4678 -0.1231
   90CHL1  H27A 9138   4.060   5.559   8.585 -2.4886  2.8935  2.0162
   90CHL1  H27B 9139   3.968   5.474   8.707  0.3931 -0.9636 -0.0433
   90CHL1  H27C 9140   4.058   5.371   8.580 -2.4955 -0.5940 -4.2217
   91CHL1    C3 9141   2.367   6.308   7.387  0.2665 -0.8886 -0.4147
   91CHL1    H3 9142   2.467   6.273   7.420  1.0476  2.1910  0.8640
   91CHL1    O3 9143   2.373   6.328   7.248  0.6030  0.1594  0.3127
   91CHL1   H3' 9144   2.373   6.242   7.204 -0.1723  0.7698 -0.9294
   91CHL1    C4 9145   2.254   6.206   7.430 -0.0819 -0.8095 -0.0867
   91CHL1   H4A 9146   2.165   6.247   7.378  0.4527  0.5771  0.0426
   91CHL1   H4B 9147   2.277   6.106   7.388 -0.3925 -0.6651 -0.6082
   91CHL1    C5 9148   2.246   6.206   7.583  0.2570 -0.1514  0.4759
   91CHL1    C6 9149   2.260   6.092   7.648  0.3860 -0.0600  0.3420
   91CHL1    H6 9150   2.283   6.002   7.589 -1.8345 -0.9924  0.7989
   91CHL1    C7 9151   2.248   6.076   7.799  0.2471  0.2756 -0.3920
   91CHL1   H7A 9152   2.184   5.989   7.826  1.1453 -0.6758 -1.2649
   91CHL1   H7B 9153   2.349   6.050   7.838  0.1623  1.0859  0.4048
   91CHL1    C8 9154   2.201   6.200   7.871 -0.5370  1.3740 -0.7609
   91CHL1    H8 9155   2.091   6.196   7.856 -0.6976  0.4157  0.4933
   91CHL1   C14 9156   2.224   6.196   8.021 -0.1295 -0.4136  0.4097
   91CHL1   H14 9157   2.335   6.189   8.029 -0.2358 -0.1760  2.9520
   91CHL1   C15 9158   2.164   6.086   8.117  0.9319 -0.4615  0.5122
   91CHL1  H15A 9159   2.087   6.017   8.077 -0.6609 -0.1915  2.9608
   91CHL1  H15B 9160   2.249   6.019   8.142  0.1241 -1.7321 -0.0613
   91CHL1   C16 9161   2.130   6.148   8.251  0.2550  0.1058  1.0192
   91CHL1  H16A 9162   2.020   6.140   8.260  0.1211 -0.6049 -0.8158
   91CHL1  H16B 9163   2.167   6.085   8.335  1.4656  0.2876  0.6518
   91CHL1   C17 9164   2.183   6.290   8.242  0.4790  0.1606 -0.5147
   91CHL1   H17 9165   2.293   6.284   8.260  0.2542  1.7847  1.8272
   91CHL1   C13 9166   2.169   6.324   8.092  0.0150 -0.0529  0.1572
   91CHL1   C18 9167   2.022   6.360   8.059  0.1818  0.3234  0.2560
   91CHL1  H18A 9168   1.957   6.275   8.089 -0.2028  0.9240  1.1615
   91CHL1  H18B 9169   1.991   6.455   8.107  1.2090  1.1190 -0.6205
   91CHL1  H18C 9170   2.006   6.382   7.951  1.2904 -3.1477 -0.7460
   91CHL1   C12 9171   2.270   6.435   8.041  0.3134 -0.7062 -0.0771
   91CHL1  H12A 9172   2.242   6.539   8.068  0.5775 -0.1197 -1.9305
   91CHL1  H12B 9173   2.369   6.397   8.073  0.7027  1.6408  1.7201
   91CHL1   C11 9174   2.264   6.453   7.891 -0.1697 -0.2141  0.4346
   91CHL1  H11A 9175   2.169   6.509   7.879 -0.0802 -0.1181  0.1610
   91CHL1  H11B 9176   2.354   6.517   7.876 -0.2731  0.2291  1.5812
   91CHL1    C9 9177   2.270   6.321   7.812  0.7418 -0.6814  0.0006
   91CHL1    H9 9178   2.379   6.298   7.811  1.2003  1.2792  0.8788
   91CHL1   C10 9179   2.237   6.334   7.661 -0.4303  0.3886 -0.3906
   91CHL1   C19 9180   2.092   6.397   7.650 -0.2272 -0.0861  0.6847
   91CHL1  H19A 9181   2.052   6.393   7.547  1.1847 -2.0917  0.1691
   91CHL1  H19B 9182   2.014   6.339   7.705  0.4174 -0.7862  0.8726
   91CHL1  H19C 9183   2.089   6.495   7.702  0.9660  0.2414  0.1655
   91CHL1    C1 9184   2.337   6.441   7.595  0.5088  0.0189 -0.9516
   91CHL1   H1A 9185   2.307   6.542   7.629  0.6523  0.2776 -1.5770
   91CHL1   H1B 9186   2.438   6.421   7.635  0.6063 -1.0675 -1.6879
   91CHL1    C2 9187   2.336   6.445   7.446 -1.0484 -0.1099  0.2292
   91CHL1   H2A 9188   2.414   6.511   7.402 -0.9205 -2.1340 -2.9709
   91CHL1   H2B 9189   2.234   6.473   7.412 -0.9978  0.8211  0.8272
   91CHL1   C20 9190   2.120   6.385   8.350  0.3722 -1.3044 -0.1292
   91CHL1   H20 9191   2.111   6.485   8.303 -1.1927 -0.7416  1.2943
   91CHL1   C21 9192   2.222   6.377   8.458 -1.0652 -0.3167 -0.4107
   91CHL1  H21A 9193   2.239   6.273   8.491  0.2405  0.1451  0.4398
   91CHL1  H21B 9194   2.200   6.432   8.553 -0.6580  0.0394 -0.5189
   91CHL1  H21C 9195   2.322   6.414   8.426 -0.9363 -0.9829 -0.7946
   91CHL1   C22 9196   1.984   6.351   8.403  0.2046  0.5096  0.2731
   91CHL1  H22A 9197   1.907   6.342   8.322 -0.8944 -0.4281  1.3798
   91CHL1  H22B 9198   1.989   6.259   8.466  1.1406  2.4576  3.2270
   91CHL1   C23 9199   1.917   6.466   8.489 -0.5979  0.1546  0.4010
   91CHL1  H23A 9200   1.961   6.466   8.590 -3.0254 -0.6781  1.5373
   91CHL1  H23B 9201   1.934   6.559   8.431 -0.5520  0.2234  0.5268
   91CHL1   C24 9202   1.767   6.438   8.500 -0.0382  0.1584  0.0453
   91CHL1  H24A 9203   1.720   6.429   8.399  1.4455  0.0779 -0.6615
   91CHL1  H24B 9204   1.749   6.342   8.554 -0.3059  1.0956  1.6866
   91CHL1   C25 9205   1.695   6.550   8.575  0.6934  0.1000  0.3103
   91CHL1   H25 9206   1.593   6.530   8.535 -0.1003 -0.9332  2.6909
   91CHL1   C26 9207   1.702   6.534   8.731 -0.3195 -0.1694 -0.2107
   91CHL1  H26A 9208   1.649   6.440   8.757 -0.7945  0.6012  1.7523
   91CHL1  H26B 9209   1.810   6.535   8.757 -0.6363 -0.1333  1.1457
   91CHL1  H26C 9210   1.647   6.612   8.787 -1.7166 -0.4593 -1.1254
   91CHL1   C27 9211   1.731   6.692   8.526 -0.1785  0.2361  0.1317
   91CHL1  H27A 9212   1.838   6.710   8.551 -0.1443 -1.0174  1.0099
   91CHL1  H27B 9213   1.728   6.713   8.417 -0.3833  0.5708  0.2020
   91CHL1  H27C 9214   1.659   6.769   8.559 -0.3321  1.4182 -2.6564
   92CHL1    C3 9215   4.325   2.294   6.804  0.3840 -0.5846  0.3206
   92CHL1    H3 9216   4.220   2.256   6.806 -0.0063  0.4194 -0.3258
   92CHL1    O3 9217   4.382   2.293   6.674 -0.3800  0.3859 -0.4269
   92CHL1   H3' 9218   4.469   2.255   6.685 -0.3637  0.0187 -1.6777
   92CHL1    C4 9219   4.337   2.435   6.865 -0.2397  1.3213  0.3933
   92CHL1   H4A 9220   4.435   2.479   6.837  1.0567 -1.0681  0.8600
   92CHL1   H4B 9221   4.272   2.501   6.803  0.7269  1.5133 -0.4493
   92CHL1    C5 9222   4.317   2.442   7.017  0.0438  0.6560  0.3567
   92CHL1    C6 9223   4.226   2.521   7.078 -0.3729 -0.3478  0.4277
   92CHL1    H6 9224   4.164   2.590   7.018 -1.2631 -1.4257  0.0897
   92CHL1    C7 9225   4.201   2.513   7.225  1.1261 -0.0877 -0.1040
   92CHL1   H7A 9226   4.183   2.614   7.268 -0.6782 -0.0587 -0.8113
   92CHL1   H7B 9227   4.110   2.453   7.245  1.0298  0.4261  1.0673
   92CHL1    C8 9228   4.323   2.454   7.304 -0.2601 -0.0133 -0.0986
   92CHL1    H8 9229   4.405   2.528   7.295 -0.3813  0.0040 -1.2458
   92CHL1   C14 9230   4.283   2.435   7.447  0.5694 -0.2538  0.7948
   92CHL1   H14 9231   4.206   2.355   7.448 -2.4282  2.3471 -1.2968
   92CHL1   C15 9232   4.226   2.555   7.527  0.0078  0.0414  0.6619
   92CHL1  H15A 9233   4.248   2.656   7.486 -0.4218 -0.1270  0.0131
   92CHL1  H15B 9234   4.117   2.547   7.509  0.3465 -0.6003 -1.3653
   92CHL1   C16 9235   4.254   2.517   7.675  0.4183 -0.2420  0.0912
   92CHL1  H16A 9236   4.333   2.587   7.709 -0.1014 -0.2589  1.4005
   92CHL1  H16B 9237   4.174   2.535   7.750 -1.9277 -0.5520 -2.2101
   92CHL1   C17 9238   4.325   2.383   7.682 -0.0814  0.3597  0.2807
   92CHL1   H17 9239   4.246   2.306   7.693 -0.6360  0.9899  0.8372
   92CHL1   C13 9240   4.390   2.366   7.542  0.4902 -0.7993 -0.5451
   92CHL1   C18 9241   4.524   2.442   7.547 -0.7002 -0.0368  0.4535
   92CHL1  H18A 9242   4.602   2.394   7.610  0.8433 -1.7182 -2.5314
   92CHL1  H18B 9243   4.563   2.447   7.443 -2.9293 -1.0009 -0.5034
   92CHL1  H18C 9244   4.501   2.544   7.583 -0.1500 -0.1359  1.0951
   92CHL1   C12 9245   4.407   2.221   7.483 -0.1532  0.2841  0.2928
   92CHL1  H12A 9246   4.490   2.170   7.536  2.1675  1.5661 -1.8871
   92CHL1  H12B 9247   4.313   2.163   7.496 -1.0579  1.9023  1.3606
   92CHL1   C11 9248   4.448   2.231   7.334  0.2794 -0.0942  0.0574
   92CHL1  H11A 9249   4.550   2.273   7.340 -0.1107  0.8793  0.1041
   92CHL1  H11B 9250   4.463   2.133   7.284 -0.3310  0.5520 -1.4599
   92CHL1    C9 9251   4.357   2.322   7.244 -0.0816 -0.3942  0.4825
   92CHL1    H9 9252   4.262   2.264   7.237  1.3285 -2.9318  1.0890
   92CHL1   C10 9253   4.404   2.336   7.094  1.4340  0.0920 -0.6220
   92CHL1   C19 9254   4.559   2.359   7.080 -0.4907 -0.4153 -0.2839
   92CHL1  H19A 9255   4.610   2.283   7.142 -0.6690  0.1578  0.5834
   92CHL1  H19B 9256   4.591   2.349   6.974 -1.7444  1.1722 -0.8504
   92CHL1  H19C 9257   4.582   2.460   7.120 -1.8371 -0.7308  1.4131
   92CHL1    C1 9258   4.381   2.194   7.032  0.2620 -0.0482 -0.1457
   92CHL1   H1A 9259   4.444   2.112   7.072 -0.5179 -0.8802 -0.5662
   92CHL1   H1B 9260   4.275   2.168   7.054  0.0024 -0.0581 -1.3775
   92CHL1    C2 9261   4.409   2.189   6.876 -0.1284  0.0155 -0.2192
   92CHL1   H2A 9262   4.398   2.084   6.839 -1.7265  0.2554 -0.4942
   92CHL1   H2B 9263   4.514   2.213   6.851 -0.2567  0.1324 -0.6487
   92CHL1   C20 9264   4.414   2.372   7.810 -0.4458  0.0228 -0.0019
   92CHL1   H20 9265   4.491   2.451   7.807 -0.6524  0.4319  2.6805
   92CHL1   C21 9266   4.474   2.234   7.809  0.1188  0.4417 -0.0722
   92CHL1  H21A 9267   4.554   2.235   7.732  0.8112  0.0433  0.6320
   92CHL1  H21B 9268   4.400   2.165   7.763  0.8965 -0.4922  0.0449
   92CHL1  H21C 9269   4.506   2.197   7.909 -2.7683  1.3884  1.3231
   92CHL1   C22 9270   4.332   2.387   7.944  0.2940 -0.0556  0.6055
   92CHL1  H22A 9271   4.263   2.474   7.944 -1.6361 -1.4953 -0.7037
   92CHL1  H22B 9272   4.272   2.296   7.965  1.7147 -1.1339  0.1567
   92CHL1   C23 9273   4.419   2.393   8.068 -0.6821  0.0817  0.3158
   92CHL1  H23A 9274   4.492   2.313   8.093 -2.4449 -1.2511  1.4546
   92CHL1  H23B 9275   4.480   2.483   8.045 -0.0368 -0.3411  0.3275
   92CHL1   C24 9276   4.338   2.409   8.194 -0.2647 -0.2584 -0.8975
   92CHL1  H24A 9277   4.278   2.499   8.170 -0.9161 -0.8795 -1.6875
   92CHL1  H24B 9278   4.275   2.321   8.218  0.4387 -0.4207  0.4314
   92CHL1   C25 9279   4.428   2.434   8.318  0.0936  0.6399  0.4048
   92CHL1   H25 9280   4.508   2.507   8.293  1.0706 -0.5145  0.0377
   92CHL1   C26 9281   4.341   2.491   8.430  0.5464  0.4647  0.8188
   92CHL1  H26A 9282   4.280   2.576   8.392  2.2293  1.3259 -0.0683
   92CHL1  H26B 9283   4.270   2.414   8.467  0.4637 -0.5675 -1.3425
   92CHL1  H26C 9284   4.403   2.529   8.513  1.5082 -0.1927  0.4154
   92CHL1   C27 9285   4.507   2.306   8.362  0.0637 -0.9241  0.9176
   92CHL1  H27A 9286   4.594   2.289   8.296  0.0127 -0.9900  0.8670
   92CHL1  H27B 9287   4.539   2.312   8.468 -0.2981  1.1354  0.9533
   92CHL1  H27C 9288   4.438   2.224   8.335  1.1076 -1.0487 -1.6151
   93CHL1    C3 9289   4.487   4.950   7.049  0.2167 -0.3871 -0.1526
   93CHL1    H3 9290   4.594   4.955   7.020  0.2992  2.1423  0.2971
   93CHL1    O3 9291   4.419   5.034   6.959  0.6819  0.1608 -0.4769
   93CHL1   H3' 9292   4.356   4.974   6.919  1.1083 -1.6932  1.4179
   93CHL1    C4 9293   4.441   4.811   7.031  0.9125  0.0093  0.4856
   93CHL1   H4A 9294   4.332   4.803   7.047  0.4931  1.1532 -1.5240
   93CHL1   H4B 9295   4.461   4.773   6.929 -0.1294 -1.5757  0.8451
   93CHL1    C5 9296   4.506   4.715   7.129  0.0451 -0.5754  0.0929
   93CHL1    C6 9297   4.564   4.602   7.088 -0.0300  0.6572  0.8410
   93CHL1    H6 9298   4.559   4.578   6.981  1.2019  2.9509  0.1986
   93CHL1    C7 9299   4.638   4.509   7.184  0.2669  0.5884 -0.0004
   93CHL1   H7A 9300   4.641   4.407   7.138 -1.5816  1.1759 -1.5651
   93CHL1   H7B 9301   4.742   4.549   7.182  0.9070 -0.9776 -2.0547
   93CHL1    C8 9302   4.576   4.522   7.326  0.0594  0.6550  0.6839
   93CHL1    H8 9303   4.471   4.485   7.327  0.0351  0.7260  1.9975
   93CHL1   C14 9304   4.653   4.441   7.419 -0.0546  0.4686  0.1326
   93CHL1   H14 9305   4.761   4.463   7.407 -0.3576  0.5337 -3.4234
   93CHL1   C15 9306   4.638   4.290   7.402  0.3608 -0.5345 -0.5285
   93CHL1  H15A 9307   4.531   4.266   7.382 -0.9224  3.2944  0.8934
   93CHL1  H15B 9308   4.690   4.252   7.311  0.9929  1.1763 -0.9196
   93CHL1   C16 9309   4.700   4.227   7.529 -0.4355 -0.1781 -0.8274
   93CHL1  H16A 9310   4.630   4.151   7.568  2.1200 -2.2377  0.0536
   93CHL1  H16B 9311   4.800   4.184   7.507  0.1955  0.0824  1.2871
   93CHL1   C17 9312   4.714   4.352   7.621  0.7687  0.5796  0.1687
   93CHL1   H17 9313   4.819   4.386   7.605  0.5136  0.2859 -2.7966
   93CHL1   C13 9314   4.624   4.462   7.567  0.6724  0.1407 -0.4592
   93CHL1   C18 9315   4.475   4.430   7.594 -0.1339  0.2048 -0.5295
   93CHL1  H18A 9316   4.458   4.321   7.590 -1.5680  0.3855 -0.1927
   93CHL1  H18B 9317   4.446   4.470   7.694  0.9084  0.2177 -0.2203
   93CHL1  H18C 9318   4.410   4.484   7.522  1.2675  1.8497 -0.6082
   93CHL1   C12 9319   4.662   4.601   7.605 -0.1600 -0.7049  0.0824
   93CHL1  H12A 9320   4.648   4.627   7.712 -0.1637 -0.6440  0.0673
   93CHL1  H12B 9321   4.767   4.622   7.574 -0.6937 -1.5266 -2.5095
   93CHL1   C11 9322   4.579   4.704   7.520 -0.1338 -0.1929 -1.0489
   93CHL1  H11A 9323   4.475   4.695   7.557  0.7335 -0.4070  1.6170
   93CHL1  H11B 9324   4.621   4.805   7.543 -1.8681  0.5122 -0.8234
   93CHL1    C9 9325   4.594   4.670   7.367  0.2132  0.1813  0.6679
   93CHL1    H9 9326   4.699   4.697   7.341  0.6795 -1.4518  0.7773
   93CHL1   C10 9327   4.508   4.760   7.276  0.5293 -0.3467 -0.0380
   93CHL1   C19 9328   4.357   4.746   7.327  0.4703 -0.6831  0.7306
   93CHL1  H19A 9329   4.322   4.640   7.326 -1.3905 -0.0991 -0.8465
   93CHL1  H19B 9330   4.352   4.791   7.429 -0.1427 -0.5984  0.6661
   93CHL1  H19C 9331   4.295   4.812   7.262  0.0089 -1.3660  0.4642
   93CHL1    C1 9332   4.553   4.909   7.293  0.1447  0.2962  0.3521
   93CHL1   H1A 9333   4.536   4.955   7.393  2.4507  0.5800  0.6598
   93CHL1   H1B 9334   4.661   4.917   7.271  0.1861 -2.6844 -1.0955
   93CHL1    C2 9335   4.478   4.998   7.195 -0.7210 -0.5023  1.0854
   93CHL1   H2A 9336   4.515   5.102   7.206 -0.3249 -0.3057 -1.5146
   93CHL1   H2B 9337   4.371   5.006   7.224 -0.9407  0.5900  0.0555
   93CHL1   C20 9338   4.697   4.307   7.768 -0.0961  0.5372 -0.1099
   93CHL1   H20 9339   4.600   4.257   7.788  0.6520 -0.5484  0.9466
   93CHL1   C21 9340   4.712   4.428   7.866 -0.5664  0.2658  0.0110
   93CHL1  H21A 9341   4.629   4.502   7.863 -1.0947 -0.1491  2.3970
   93CHL1  H21B 9342   4.807   4.480   7.844 -1.1323  1.5044  0.4112
   93CHL1  H21C 9343   4.714   4.393   7.972  0.1559  0.8526  0.2044
   93CHL1   C22 9344   4.803   4.203   7.820  0.3125  0.1841  0.3183
   93CHL1  H22A 9345   4.823   4.128   7.740  0.9796 -0.8805  1.4545
   93CHL1  H22B 9346   4.900   4.254   7.836 -0.4219  1.3923  1.0152
   93CHL1   C23 9347   4.766   4.123   7.944 -0.6171  0.0089 -0.6157
   93CHL1  H23A 9348   4.782   4.201   8.021  0.5222  1.8561 -2.6018
   93CHL1  H23B 9349   4.658   4.100   7.943 -0.2937 -1.6605 -0.0862
   93CHL1   C24 9350   4.855   4.002   7.976 -0.3669  0.4985 -0.4622
   93CHL1  H24A 9351   4.839   3.914   7.909  0.4844 -1.5851  1.9105
   93CHL1  H24B 9352   4.963   4.028   7.963  0.6212 -3.4830 -1.7464
   93CHL1   C25 9353   4.819   3.945   8.114  0.1385  0.1076  0.3839
   93CHL1   H25 9354   4.822   4.031   8.186  1.1085  0.5763 -0.1965
   93CHL1   C26 9355   4.677   3.881   8.131  0.0990 -0.1772 -0.0220
   93CHL1  H26A 9356   4.679   3.776   8.094 -0.5999 -0.0685 -0.3953
   93CHL1  H26B 9357   4.653   3.884   8.240 -0.1267 -0.3215 -0.0661
   93CHL1  H26C 9358   4.606   3.945   8.074  1.7736  0.2288 -1.7373
   93CHL1   C27 9359   4.918   3.834   8.166  0.2193 -0.1563 -0.0679
   93CHL1  H27A 9360   4.882   3.795   8.264  0.7552  1.2741  0.7222
   93CHL1  H27B 9361   4.907   3.751   8.094 -0.2684 -0.0138 -0.1604
   93CHL1  H27C 9362   5.022   3.871   8.175  0.0785  0.2970 -0.2394
   94CHL1    C3 9363   6.336   0.218   6.769  0.4765 -0.1761 -0.3780
   94CHL1    H3 9364   6.230   0.229   6.800  0.4442 -0.8761 -0.2402
   94CHL1    O3 9365   6.342   0.168   6.637  0.0338 -0.3984 -0.0327
   94CHL1   H3' 9366   6.434   0.148   6.620 -0.2509 -0.8321 -1.2096
   94CHL1    C4 9367   6.419   0.344   6.793 -0.2445  0.6319  0.3314
   94CHL1   H4A 9368   6.528   0.339   6.777  0.2415 -1.0048  3.3450
   94CHL1   H4B 9369   6.384   0.413   6.713  0.3030  1.0936  0.4893
   94CHL1    C5 9370   6.402   0.402   6.937 -0.6111  0.1092 -0.2131
   94CHL1    C6 9371   6.358   0.527   6.969 -0.4965 -0.6759 -0.7575
   94CHL1    H6 9372   6.348   0.601   6.887 -1.0742  1.1572  0.8798
   94CHL1    C7 9373   6.349   0.587   7.110 -0.2522 -0.6051 -0.8366
   94CHL1   H7A 9374   6.405   0.683   7.099 -0.6447  0.1082  2.5314
   94CHL1   H7B 9375   6.244   0.619   7.121 -0.4518 -1.4400 -0.2875
   94CHL1    C8 9376   6.403   0.490   7.211 -0.2631  0.1690  0.3921
   94CHL1    H8 9377   6.512   0.510   7.215 -0.3283  0.2936  2.5292
   94CHL1   C14 9378   6.345   0.511   7.345 -0.0283 -0.8125 -0.5214
   94CHL1   H14 9379   6.239   0.480   7.338 -0.6107  1.3717 -2.4809
   94CHL1   C15 9380   6.327   0.661   7.389 -0.0897 -0.2761  0.4802
   94CHL1  H15A 9381   6.416   0.721   7.359  0.4317 -0.3808  1.7638
   94CHL1  H15B 9382   6.240   0.690   7.326  1.2225  2.6430 -0.1419
   94CHL1   C16 9383   6.307   0.651   7.542  0.6595  0.2634 -0.7122
   94CHL1  H16A 9384   6.378   0.722   7.591  0.4275 -0.1938  0.3092
   94CHL1  H16B 9385   6.203   0.683   7.563  0.3637 -1.3457  0.4444
   94CHL1   C17 9386   6.326   0.501   7.583  0.1867 -0.7118  0.3965
   94CHL1   H17 9387   6.221   0.466   7.577 -0.8908  2.3855 -0.9910
   94CHL1   C13 9388   6.404   0.439   7.468  0.0010  0.7585  0.7708
   94CHL1   C18 9389   6.558   0.470   7.487  0.3443 -0.0901 -0.4153
   94CHL1  H18A 9390   6.629   0.425   7.414 -1.6743 -1.7956 -1.4221
   94CHL1  H18B 9391   6.562   0.581   7.478 -1.1420  0.0764  0.5738
   94CHL1  H18C 9392   6.594   0.442   7.589  1.2342  1.3070 -0.3189
   94CHL1   C12 9393   6.380   0.288   7.434  0.1422  0.2099  0.3458
   94CHL1  H12A 9394   6.427   0.234   7.518  0.1907  2.9921  2.2411
   94CHL1  H12B 9395   6.271   0.271   7.433  0.2338 -0.4811 -1.2439
   94CHL1   C11 9396   6.436   0.244   7.298  0.5838  0.1759  1.2384
   94CHL1  H11A 9397   6.546   0.254   7.308  0.7869  1.7269 -1.4317
   94CHL1  H11B 9398   6.400   0.141   7.278  0.1414  0.4876  0.3579
   94CHL1    C9 9399   6.382   0.339   7.185  0.0289  0.7762  0.8532
   94CHL1    H9 9400   6.272   0.324   7.191  0.2376 -0.7447  1.0706
   94CHL1   C10 9401   6.427   0.294   7.045  0.0302  0.1839  0.0766
   94CHL1   C19 9402   6.583   0.280   7.058 -0.0182  0.4694 -0.6533
   94CHL1  H19A 9403   6.615   0.193   7.118 -0.8292 -1.0853 -2.3870
   94CHL1  H19B 9404   6.626   0.247   6.962 -0.2400 -0.2661 -0.5075
   94CHL1  H19C 9405   6.635   0.373   7.090  0.1051 -0.1729  1.1248
   94CHL1    C1 9406   6.371   0.151   7.013  0.4974 -0.6844  0.3441
   94CHL1   H1A 9407   6.428   0.081   7.077  1.3023  0.1898  0.6152
   94CHL1   H1B 9408   6.262   0.143   7.034 -0.2402  0.0153 -2.6874
   94CHL1    C2 9409   6.384   0.107   6.863 -0.2967 -0.1819  0.2617
   94CHL1   H2A 9410   6.323   0.017   6.841 -1.2805  0.8377 -1.4382
   94CHL1   H2B 9411   6.488   0.078   6.836 -0.3782 -0.1015 -0.1567
   94CHL1   C20 9412   6.375   0.485   7.727 -0.2747 -0.5710  0.7588
   94CHL1   H20 9413   6.479   0.525   7.724  0.0424 -1.4025 -2.4247
   94CHL1   C21 9414   6.380   0.340   7.777  0.1471  0.3917 -0.2103
   94CHL1  H21A 9415   6.412   0.350   7.883 -1.6704  0.9333  0.3242
   94CHL1  H21B 9416   6.449   0.284   7.711 -2.0615 -0.6838 -1.7099
   94CHL1  H21C 9417   6.280   0.294   7.766  0.1742  0.3259 -0.1837
   94CHL1   C22 9418   6.299   0.576   7.828  0.2455 -0.0181 -0.2900
   94CHL1  H22A 9419   6.254   0.665   7.779  1.6548  1.0252  0.2574
   94CHL1  H22B 9420   6.222   0.522   7.886 -0.1451  1.2976  0.4469
   94CHL1   C23 9421   6.391   0.633   7.927 -0.4957 -0.4733 -0.4945
   94CHL1  H23A 9422   6.441   0.551   7.982  0.9028  1.8560  1.9763
   94CHL1  H23B 9423   6.470   0.690   7.874 -0.7657  2.8417  2.2975
   94CHL1   C24 9424   6.325   0.714   8.038  0.6328  0.4013  0.2793
   94CHL1  H24A 9425   6.308   0.819   8.007  1.4630  0.9393  1.6139
   94CHL1  H24B 9426   6.229   0.668   8.072  0.8718 -0.7564 -0.5502
   94CHL1   C25 9427   6.416   0.726   8.158 -0.3841 -0.3456  0.5046
   94CHL1   H25 9428   6.448   0.624   8.189 -3.5730 -0.9980  2.0249
   94CHL1   C26 9429   6.538   0.806   8.123 -0.1757 -0.7067  0.3979
   94CHL1  H26A 9430   6.613   0.818   8.204  1.8097 -0.8746 -1.3446
   94CHL1  H26B 9431   6.594   0.758   8.039  1.0389  2.5434 -0.7862
   94CHL1  H26C 9432   6.515   0.907   8.084  1.1327  0.3326  2.2205
   94CHL1   C27 9433   6.353   0.808   8.262  0.5305  0.3890  0.1740
   94CHL1  H27A 9434   6.320   0.906   8.221  3.0992  1.2718  0.0386
   94CHL1  H27B 9435   6.271   0.752   8.312  1.7913 -0.8884  0.8627
   94CHL1  H27C 9436   6.422   0.835   8.344  1.5979 -1.0632 -0.2055
   95CHL1    C3 9437   4.157   1.685   6.583 -0.3343  0.1379  0.7078
   95CHL1    H3 9438   4.215   1.592   6.567  0.1641  0.5186  0.2455
   95CHL1    O3 9439   4.106   1.715   6.457  0.2191  0.3309  0.5498
   95CHL1   H3' 9440   4.043   1.646   6.432 -0.4101  1.0616  0.0475
   95CHL1    C4 9441   4.042   1.665   6.691 -0.6346  0.0627  0.6217
   95CHL1   H4A 9442   3.970   1.748   6.673  1.6902  1.8926 -0.9643
   95CHL1   H4B 9443   4.009   1.563   6.662 -0.4204 -0.0905  0.9165
   95CHL1    C5 9444   4.078   1.665   6.837 -0.5962  0.1643  0.7254
   95CHL1    C6 9445   4.027   1.567   6.916  0.7610 -0.8479 -0.3718
   95CHL1    H6 9446   3.963   1.489   6.872 -0.5078 -0.3848  0.5732
   95CHL1    C7 9447   4.052   1.559   7.067 -0.2504  0.2834  0.2064
   95CHL1   H7A 9448   3.965   1.531   7.131 -0.2836 -1.4154 -0.5322
   95CHL1   H7B 9449   4.136   1.488   7.081  1.3156  1.7851 -1.1007
   95CHL1    C8 9450   4.120   1.686   7.120  0.1313 -0.1762  0.1470
   95CHL1    H8 9451   4.041   1.764   7.122  0.7261  0.4297  1.4063
   95CHL1   C14 9452   4.176   1.663   7.262 -0.2435  0.2507  0.2796
   95CHL1   H14 9453   4.247   1.577   7.256 -0.7364 -0.0698 -1.1405
   95CHL1   C15 9454   4.071   1.619   7.365  0.4682  0.5050 -0.3086
   95CHL1  H15A 9455   3.987   1.691   7.353  0.3028  0.4672  0.5427
   95CHL1  H15B 9456   4.035   1.514   7.361 -0.8477  0.8116  1.8131
   95CHL1   C16 9457   4.134   1.645   7.506 -0.0265  0.3077  0.0282
   95CHL1  H16A 9458   4.065   1.716   7.557  0.3068  0.2686  0.5437
   95CHL1  H16B 9459   4.140   1.551   7.565 -1.9237  1.2517  1.8864
   95CHL1   C17 9460   4.265   1.725   7.478 -0.8351 -0.3730  0.1577
   95CHL1   H17 9461   4.340   1.643   7.475 -0.2559  0.0996  1.2790
   95CHL1   C13 9462   4.260   1.775   7.334  0.1517  0.1388  0.3724
   95CHL1   C18 9463   4.181   1.906   7.339  0.7793  0.4998 -0.1979
   95CHL1  H18A 9464   4.243   1.993   7.370 -0.6964  0.1387  4.7087
   95CHL1  H18B 9465   4.134   1.935   7.243  0.6314  2.9213  0.5395
   95CHL1  H18C 9466   4.095   1.901   7.409  0.8200  2.4929  0.0485
   95CHL1   C12 9467   4.378   1.794   7.233  0.5376 -1.1471  0.5773
   95CHL1  H12A 9468   4.439   1.883   7.258 -2.0736  0.7067  0.7922
   95CHL1  H12B 9469   4.446   1.706   7.225  2.2991  0.2952 -1.8839
   95CHL1   C11 9470   4.328   1.836   7.088  0.0100  0.4870  0.2093
   95CHL1  H11A 9471   4.272   1.932   7.085  0.7595  0.9258  0.1933
   95CHL1  H11B 9472   4.420   1.849   7.028 -0.3737  0.2957 -0.4315
   95CHL1    C9 9473   4.230   1.731   7.028 -0.4368 -0.1343  0.5959
   95CHL1    H9 9474   4.293   1.640   7.016 -0.3242  0.2887 -3.7711
   95CHL1   C10 9475   4.173   1.773   6.883 -0.0977  0.2970  0.0083
   95CHL1   C19 9476   4.102   1.912   6.879  0.5602  0.1202  0.4636
   95CHL1  H19A 9477   4.174   1.996   6.886  0.7847 -0.1211  1.1771
   95CHL1  H19B 9478   4.049   1.922   6.782  2.1816 -1.6221 -0.6872
   95CHL1  H19C 9479   4.036   1.921   6.968  0.6588  0.5364  0.4966
   95CHL1    C1 9480   4.290   1.783   6.776 -0.4490 -1.2869  0.0054
   95CHL1   H1A 9481   4.353   1.868   6.808  0.4135 -1.1767 -1.8468
   95CHL1   H1B 9482   4.360   1.697   6.788 -1.4552 -1.9285  1.5432
   95CHL1    C2 9483   4.245   1.796   6.628  0.1944 -0.2494 -0.2716
   95CHL1   H2A 9484   4.337   1.795   6.567  0.5519  0.2760  0.2413
   95CHL1   H2B 9485   4.203   1.897   6.608 -0.7942 -0.4045  0.8649
   95CHL1   C20 9486   4.320   1.813   7.593  0.7821  0.2141  0.0257
   95CHL1   H20 9487   4.271   1.913   7.596  1.2296  0.4103  1.0673
   95CHL1   C21 9488   4.468   1.848   7.562  1.0408 -0.1537  0.8120
   95CHL1  H21A 9489   4.518   1.775   7.495 -0.5937  0.6956 -1.4520
   95CHL1  H21B 9490   4.528   1.852   7.656 -0.0555 -2.0466  1.6550
   95CHL1  H21C 9491   4.456   1.945   7.510 -0.7041 -1.0839 -0.6703
   95CHL1   C22 9492   4.300   1.762   7.736 -0.4476  0.1143  0.2033
   95CHL1  H22A 9493   4.194   1.729   7.743 -0.1106 -1.6303 -1.7792
   95CHL1  H22B 9494   4.350   1.663   7.746 -1.1295 -0.2220  0.3080
   95CHL1   C23 9495   4.343   1.850   7.850 -0.1956  0.5672 -0.7467
   95CHL1  H23A 9496   4.454   1.844   7.846 -0.1670 -0.7996  1.1598
   95CHL1  H23B 9497   4.305   1.955   7.845 -0.7894  0.4910  1.1736
   95CHL1   C24 9498   4.289   1.799   7.986  0.2974 -0.2032  0.4458
   95CHL1  H24A 9499   4.179   1.806   7.974  0.3761  0.4758  0.0957
   95CHL1  H24B 9500   4.313   1.691   8.000 -1.8620 -0.5444  1.9820
   95CHL1   C25 9501   4.322   1.879   8.114 -0.3885 -0.1102  0.3565
   95CHL1   H25 9502   4.261   1.971   8.108  3.0734  2.4488  1.4866
   95CHL1   C26 9503   4.264   1.785   8.221  0.4795 -0.4450  0.9489
   95CHL1  H26A 9504   4.255   1.835   8.320  0.3720 -0.2372  0.8357
   95CHL1  H26B 9505   4.158   1.763   8.197 -0.3528  1.8213  2.2930
   95CHL1  H26C 9506   4.323   1.693   8.241  0.6172 -0.0426  2.4878
   95CHL1   C27 9507   4.464   1.941   8.129  0.6249  0.7738  0.0516
   95CHL1  H27A 9508   4.472   2.032   8.066 -0.4273  0.4782 -0.5311
   95CHL1  H27B 9509   4.468   1.978   8.234 -1.7006  1.1209  0.0818
   95CHL1  H27C 9510   4.546   1.876   8.093  0.4188  0.3304  0.3674
   96CHL1    C3 9511   5.618   6.196   6.562  0.7287 -0.5014  0.1350
   96CHL1    H3 9512   5.514   6.223   6.590  1.0690  0.3380  0.6675
   96CHL1    O3 9513   5.639   6.222   6.423 -0.3478  0.3662 -0.4589
   96CHL1   H3' 9514   5.734   6.218   6.407 -0.0734 -2.3572  1.1688
   96CHL1    C4 9515   5.725   6.270   6.642  0.1523 -0.4050 -0.0660
   96CHL1   H4A 9516   5.830   6.261   6.607  0.7372  2.3863  0.7412
   96CHL1   H4B 9517   5.711   6.376   6.613  3.5902 -0.1120 -1.0931
   96CHL1    C5 9518   5.695   6.246   6.789 -0.2871  0.7670 -0.2931
   96CHL1    C6 9519   5.662   6.333   6.881 -0.3638 -0.2547 -0.0657
   96CHL1    H6 9520   5.660   6.439   6.850  1.7446 -0.2498 -0.3237
   96CHL1    C7 9521   5.672   6.302   7.026  0.7072  0.2120 -0.1268
   96CHL1   H7A 9522   5.722   6.392   7.068 -0.6353 -0.0061  2.0697
   96CHL1   H7B 9523   5.572   6.299   7.075  0.4414  0.7425 -0.6284
   96CHL1    C8 9524   5.734   6.166   7.065  0.4531  0.1995  0.1805
   96CHL1    H8 9525   5.844   6.180   7.059  0.3484  0.7746 -0.5023
   96CHL1   C14 9526   5.695   6.126   7.206 -0.1715 -0.0090 -0.6771
   96CHL1   H14 9527   5.586   6.127   7.221  0.1179 -2.1195  2.2421
   96CHL1   C15 9528   5.745   6.219   7.317 -0.3204  0.0562  0.4285
   96CHL1  H15A 9529   5.853   6.247   7.318 -0.4703  0.8592 -1.4636
   96CHL1  H15B 9530   5.690   6.315   7.308 -0.5171 -0.0040  0.9597
   96CHL1   C16 9531   5.720   6.143   7.444  0.2443 -0.2481 -0.1578
   96CHL1  H16A 9532   5.794   6.166   7.524 -0.5834  1.1158  0.2497
   96CHL1  H16B 9533   5.628   6.196   7.478  1.7706  2.4159  0.1294
   96CHL1   C17 9534   5.696   5.993   7.399 -0.3726  0.5444 -0.0368
   96CHL1   H17 9535   5.587   5.969   7.402  0.2575 -2.8063 -0.0283
   96CHL1   C13 9536   5.743   5.991   7.250  0.8437  0.1418 -0.7019
   96CHL1   C18 9537   5.898   5.994   7.242 -0.5085  0.0682  0.3863
   96CHL1  H18A 9538   5.951   5.899   7.267 -0.2488  0.3860  1.0668
   96CHL1  H18B 9539   5.935   6.022   7.142  1.1367  0.2891  1.0285
   96CHL1  H18C 9540   5.959   6.059   7.308  1.4964 -0.2299 -1.1036
   96CHL1   C12 9541   5.684   5.880   7.152  0.2174 -0.9011 -0.2693
   96CHL1  H12A 9542   5.736   5.786   7.178 -0.7778 -1.0024  1.4900
   96CHL1  H12B 9543   5.575   5.870   7.172  0.5433  0.5294  2.9423
   96CHL1   C11 9544   5.717   5.913   7.006 -0.0010  0.5670  0.2493
   96CHL1  H11A 9545   5.826   5.891   7.007  0.5325  2.5424 -2.4817
   96CHL1  H11B 9546   5.683   5.838   6.932 -0.7573 -0.3032  1.4441
   96CHL1    C9 9547   5.680   6.061   6.966  0.1660 -0.4023  0.2303
   96CHL1    H9 9548   5.571   6.065   6.983  0.0822 -1.8782  0.2235
   96CHL1   C10 9549   5.727   6.092   6.821  1.5638  0.6443  0.5145
   96CHL1   C19 9550   5.873   6.057   6.806 -0.0861 -0.1956  0.1235
   96CHL1  H19A 9551   5.904   5.951   6.817 -1.6482 -0.6977  0.0168
   96CHL1  H19B 9552   5.910   6.081   6.705 -2.4344 -0.7063 -0.9240
   96CHL1  H19C 9553   5.932   6.115   6.881  0.4328 -1.3184  0.6053
   96CHL1    C1 9554   5.630   6.006   6.725 -0.1033 -0.4020  0.3067
   96CHL1   H1A 9555   5.645   5.897   6.737 -0.2308 -0.3853  0.6559
   96CHL1   H1B 9556   5.529   6.031   6.766  0.6042  2.2705  0.6201
   96CHL1    C2 9557   5.626   6.046   6.579 -0.0458  0.7133  0.0311
   96CHL1   H2A 9558   5.547   5.999   6.517  1.0086 -1.5139  0.2614
   96CHL1   H2B 9559   5.726   6.016   6.543  1.2413  2.7688  1.6419
   96CHL1   C20 9560   5.759   5.892   7.503 -0.4256 -0.4839  0.1513
   96CHL1   H20 9561   5.868   5.911   7.511 -0.6328  0.7014  0.2653
   96CHL1   C21 9562   5.732   5.742   7.461 -0.4689  0.5780  0.0372
   96CHL1  H21A 9563   5.763   5.665   7.535 -0.4713  0.9539  0.4362
   96CHL1  H21B 9564   5.782   5.716   7.365 -1.0236 -0.6976  0.0681
   96CHL1  H21C 9565   5.624   5.722   7.445 -0.4829  0.9765 -0.3777
   96CHL1   C22 9566   5.699   5.920   7.647  0.4025 -0.8432  0.0354
   96CHL1  H22A 9567   5.693   6.025   7.683  1.2488 -1.0654  0.8610
   96CHL1  H22B 9568   5.594   5.884   7.644  0.5138 -1.3167  1.3346
   96CHL1   C23 9569   5.775   5.845   7.759 -0.5411  0.2058  0.2644
   96CHL1  H23A 9570   5.837   5.762   7.720  0.9239  0.3732  2.0867
   96CHL1  H23B 9571   5.851   5.909   7.808 -1.0624  1.4999 -0.5565
   96CHL1   C24 9572   5.682   5.793   7.871 -0.2479  0.6748  0.1253
   96CHL1  H24A 9573   5.612   5.873   7.901 -0.6949  0.8434 -1.2643
   96CHL1  H24B 9574   5.616   5.717   7.823 -0.0327  0.3819  0.2925
   96CHL1   C25 9575   5.759   5.721   7.981 -0.9085  0.9158  0.3529
   96CHL1   H25 9576   5.853   5.778   7.998 -0.1639  0.4218 -1.7443
   96CHL1   C26 9577   5.675   5.715   8.106  0.5170  0.5056  0.1892
   96CHL1  H26A 9578   5.592   5.644   8.083  0.4524  0.5166  0.3827
   96CHL1  H26B 9579   5.735   5.669   8.188  2.5332  2.6515  0.0240
   96CHL1  H26C 9580   5.646   5.818   8.135 -3.4300 -0.3642 -0.1278
   96CHL1   C27 9581   5.808   5.579   7.929  0.3566  0.0208  0.4218
   96CHL1  H27A 9582   5.866   5.540   8.015 -2.2681 -0.7009  1.9795
   96CHL1  H27B 9583   5.726   5.508   7.906 -0.8711  1.8917 -1.3318
   96CHL1  H27C 9584   5.871   5.594   7.839  0.2205 -0.9320  0.1641
   97OSM      N 9585   3.492   1.912  11.482 -0.2067 -0.1991  0.1766
   97OSM    C15 9586   3.421   1.850  11.592 -0.2094 -0.7914  0.4889
   97OSM   H15A 9587   3.471   1.769  11.643  0.3087 -1.8179 -1.5426
   97OSM   H15B 9588   3.329   1.807  11.555 -0.9916  1.0209  0.2427
   97OSM   H15C 9589   3.399   1.929  11.662  0.0336  0.0490 -0.3631
   97OSM    C14 9590   3.406   2.016  11.425 -0.2839  0.6005 -0.4129
   97OSM   H14A 9591   3.307   1.980  11.399  0.0866 -1.1156  0.3809
   97OSM   H14B 9592   3.445   2.055  11.332 -1.2359  0.9363 -0.6788
   97OSM   H14C 9593   3.380   2.095  11.494 -3.0122 -0.7099  0.2200
   97OSM    C13 9594   3.622   1.960  11.534  0.1386 -0.4768 -0.1671
   97OSM   H13A 9595   3.672   2.027  11.466 -0.4693  0.6974  0.5109
   97OSM   H13B 9596   3.688   1.885  11.575 -0.3175 -1.4376 -1.1320
   97OSM   H13C 9597   3.596   2.035  11.608  3.2976  2.6642 -1.9243
   97OSM    C12 9598   3.527   1.806  11.374  0.3062 -0.3612  0.6562
   97OSM   H12A 9599   3.435   1.755  11.349 -0.2730  0.0490  1.8835
   97OSM   H12B 9600   3.595   1.739  11.423  0.0232  0.0553  1.6377
   97OSM    C11 9601   3.585   1.858  11.237 -0.5336  0.0636  0.6685
   97OSM   H11A 9602   3.508   1.911  11.178  0.6335  0.4543 -0.5495
   97OSM   H11B 9603   3.607   1.764  11.184 -2.3400  0.5091 -0.9822
   97OSM      P 9604   3.734   2.058  11.162  0.6217  0.2075 -0.2780
   97OSM    O13 9605   3.671   2.170  11.233  0.1934  0.0418  0.0056
   97OSM    O14 9606   3.883   2.071  11.135 -0.1335  0.1855 -0.1275
   97OSM    O11 9607   3.668   2.019  11.028 -0.0827  0.5539 -0.5058
   97OSM    O12 9608   3.706   1.936  11.252  0.7240 -0.6762 -0.1561
   97OSM    C1S 9609   3.674   2.088  10.906 -0.0860  0.0000 -0.2063
   97OSM    H1S 9610   3.752   2.167  10.907 -0.4271  0.3385  0.9916
   97OSM    H1T 9611   3.578   2.143  10.899 -0.2375 -0.0647  1.1586
   97OSM     NF 9612   3.709   2.058  10.656  0.0875  0.1894  0.1800
   97OSM    HNF 9613   3.636   2.053  10.589  0.4359 -0.5850 -0.1500
   97OSM    C2S 9614   3.699   1.990  10.784 -0.2263  0.3383 -0.0260
   97OSM    H2S 9615   3.794   1.934  10.802 -0.1199 -0.3813 -2.4424
   97OSM    C3S 9616   3.596   1.873  10.782 -0.4510 -0.1454 -0.3978
   97OSM    H3S 9617   3.494   1.911  10.807  0.8171  3.3234  0.0135
   97OSM     O3 9618   3.614   1.779  10.891  0.1602  0.0987  0.3873
   97OSM    HO3 9619   3.635   1.841  10.961 -1.1931  0.9255  0.0901
   97OSM    C4S 9620   3.588   1.807  10.657 -0.1274  0.0060 -0.0700
   97OSM    H4S 9621   3.528   1.862  10.583  1.9741  1.1675 -1.0002
   97OSM    C5S 9622   3.654   1.701  10.618  1.0657 -0.0893 -0.9825
   97OSM    H5S 9623   3.708   1.647  10.698  0.4076  0.8487  0.1404
   97OSM    C6S 9624   3.647   1.641  10.482 -0.5246  0.5492 -0.3065
   97OSM    H6S 9625   3.611   1.536  10.485  0.5831  0.1804  1.2577
   97OSM    H6T 9626   3.756   1.632  10.462 -0.1046 -2.0648  2.5194
   97OSM    C7S 9627   3.590   1.707  10.360 -1.1428  0.8068  0.5293
   97OSM    H7S 9628   3.632   1.809  10.360  1.8983 -0.3416  0.2205
   97OSM    H7T 9629   3.480   1.721  10.362 -1.3758 -0.8247  0.6131
   97OSM    C8S 9630   3.631   1.623  10.230  0.0556  0.0603  0.3797
   97OSM    H8S 9631   3.627   1.518  10.263 -0.3504 -0.5914 -1.5754
   97OSM    H8T 9632   3.738   1.636  10.205  0.7024 -3.8185  0.6376
   97OSM    C9S 9633   3.542   1.657  10.113 -0.2400  0.6363 -0.0197
   97OSM    H9S 9634   3.556   1.766  10.097 -0.0253  0.4026 -1.6300
   97OSM    H9T 9635   3.438   1.627  10.135  0.3180 -2.3852 -1.0565
   97OSM   C10S 9636   3.584   1.584   9.983  0.2952 -0.0502 -0.5490
   97OSM   H10S 9637   3.572   1.475  10.001 -0.0942  0.0743 -0.0329
   97OSM   H10T 9638   3.692   1.593   9.959  0.1216 -0.5025 -1.5320
   97OSM   C11S 9639   3.494   1.617   9.860 -0.0225  1.1780  0.0274
   97OSM   H11S 9640   3.502   1.725   9.836 -0.0964  1.3149  0.6005
   97OSM   H11T 9641   3.391   1.581   9.882  0.0755  0.5050 -0.5698
   97OSM   C12S 9642   3.546   1.540   9.730 -0.5355 -0.1137 -0.4549
   97OSM   H12S 9643   3.578   1.438   9.759  0.7770  0.6739  1.0670
   97OSM   H12T 9644   3.642   1.589   9.700 -1.6615  1.3724 -1.8091
   97OSM   C13S 9645   3.448   1.540   9.615 -0.1211 -0.1681  0.2840
   97OSM   H13S 9646   3.416   1.645   9.597 -1.0724 -0.6355 -0.9562
   97OSM   H13T 9647   3.357   1.477   9.633 -1.2571  1.2116 -0.4158
   97OSM   C14S 9648   3.515   1.491   9.489  0.0931 -0.6872 -0.4613
   97OSM   H14S 9649   3.512   1.380   9.490 -0.3027 -0.6949  1.8474
   97OSM   H14T 9650   3.619   1.527   9.503 -0.1574 -0.6026  1.4736
   97OSM   C15S 9651   3.439   1.542   9.371  0.0894  0.5198  0.1652
   97OSM   H15S 9652   3.429   1.652   9.364 -0.0641  0.4996  0.0696
   97OSM   H15T 9653   3.336   1.504   9.389  0.0971 -1.0064 -2.5017
   97OSM   C16S 9654   3.504   1.496   9.245  0.0033  0.2935  0.6068
   97OSM   H16S 9655   3.519   1.387   9.259 -1.0045  0.1115  0.3524
   97OSM   H16T 9656   3.600   1.551   9.234 -0.3956  0.4109 -4.5124
   97OSM   C17S 9657   3.421   1.510   9.117 -0.4769 -0.0940  0.2636
   97OSM   H17S 9658   3.415   1.619   9.097 -1.4027 -0.2042 -0.1158
   97OSM   H17T 9659   3.316   1.484   9.142 -0.6390  0.5223  0.2431
   97OSM   C18S 9660   3.466   1.438   8.997 -0.8986 -0.3397  0.7116
   97OSM   H18S 9661   3.574   1.452   8.976 -1.1822 -1.2333 -1.7134
   97OSM   H18T 9662   3.409   1.472   8.907 -0.2211  3.1466  1.4677
   97OSM   H18U 9663   3.447   1.330   9.019  0.6675 -0.6272  0.7295
   97OSM    C1F 9664   3.791   2.161  10.637 -0.0783 -0.8207  0.5441
   97OSM     OF 9665   3.882   2.191  10.711  0.4492 -0.1328 -0.4107
   97OSM    C2F 9666   3.758   2.239  10.503  0.1667 -0.7135  0.1955
   97OSM    H2F 9667   3.669   2.302  10.526 -1.0447 -2.1418 -0.4058
   97OSM    H2G 9668   3.723   2.165  10.429  1.1221  0.3951 -1.4155
   97OSM    C3F 9669   3.873   2.323  10.452  0.1751 -0.8015  0.0029
   97OSM    H3F 9670   3.974   2.278  10.465 -0.9238 -3.7964 -0.9030
   97OSM    H3G 9671   3.882   2.404  10.528 -0.4437 -0.3210 -0.4313
   97OSM    C4F 9672   3.840   2.386  10.311 -0.5497  0.2968 -0.5802
   97OSM    H4F 9673   3.740   2.433  10.322 -0.8410 -0.6178  0.8598
   97OSM    H4G 9674   3.831   2.303  10.237  1.4685 -0.5190  0.0073
   97OSM    C5F 9675   3.946   2.493  10.267  0.2931  0.3325 -1.0648
   97OSM    H5F 9676   4.044   2.442  10.275 -0.3046 -0.7598 -0.3986
   97OSM    H5G 9677   3.955   2.577  10.338  1.2119 -0.2159 -0.5172
   97OSM    C6F 9678   3.932   2.546  10.120 -0.4883  0.6465  0.1116
   97OSM    H6F 9679   3.940   2.462  10.048  0.0589  3.6097 -3.5952
   97OSM    H6G 9680   4.020   2.608  10.091  0.8840 -1.5141 -0.5069
   97OSM    C7F 9681   3.801   2.618  10.089 -0.7340  0.0976  0.2905
   97OSM    H7F 9682   3.794   2.711  10.149 -1.9070  0.1674  0.0558
   97OSM    H7G 9683   3.715   2.554  10.117 -0.9067  0.4080  0.4664
   97OSM    C8F 9684   3.775   2.654   9.939  0.2059  0.9545  0.7788
   97OSM    H8F 9685   3.669   2.677   9.920  0.9324  2.8927 -1.3610
   97OSM    H8G 9686   3.784   2.562   9.878 -0.7220 -0.6590  2.9333
   97OSM    C9F 9687   3.869   2.758   9.882 -0.1842 -0.2238  0.1790
   97OSM    H9F 9688   3.853   2.847   9.945  0.2611 -2.2615  3.4128
   97OSM   C10F 9689   3.963   2.749   9.790 -0.4330 -0.1515  0.2528
   97OSM   H10F 9690   4.008   2.845   9.761 -0.4912 -0.0803  0.3965
   97OSM   C11F 9691   3.999   2.628   9.702  0.8779 -0.1641  0.1455
   97OSM   H11F 9692   3.917   2.553   9.709  0.5856  0.0031 -1.2062
   97OSM   H11G 9693   4.095   2.589   9.741  1.3407  0.6452 -0.1588
   97OSM   C12F 9694   4.014   2.652   9.551  0.4871 -0.4814  0.3603
   97OSM   H12F 9695   4.084   2.575   9.512 -0.8985 -0.7822 -1.6882
   97OSM   H12G 9696   4.049   2.756   9.534  0.6065 -0.7380 -1.0785
   97OSM   C13F 9697   3.878   2.629   9.481 -0.2176  0.7757  0.2526
   97OSM   H13F 9698   3.790   2.687   9.516  0.5527  1.2800  1.4435
   97OSM   H13G 9699   3.851   2.523   9.502  2.0963  0.0837  0.0368
   97OSM   C14F 9700   3.890   2.635   9.325 -0.0486  0.4479  0.2556
   97OSM   H14F 9701   3.982   2.576   9.308  0.1625 -0.3800  3.6552
   97OSM   H14G 9702   3.905   2.740   9.290 -0.0500  0.6824  0.9415
   97OSM   C15F 9703   3.759   2.584   9.266 -0.3555  0.1207  0.2186
   97OSM   H15F 9704   3.669   2.643   9.294 -0.5220  2.1536 -3.8379
   97OSM   H15G 9705   3.739   2.480   9.299 -1.6417 -0.1152 -1.1489
   97OSM   C16F 9706   3.760   2.592   9.117 -0.3095 -0.3792 -0.3310
   97OSM   H16F 9707   3.861   2.622   9.084 -0.9583  1.1709 -0.9923
   97OSM   H16G 9708   3.696   2.671   9.073  1.1563  1.9024  1.4121
   97OSM   C17F 9709   3.740   2.447   9.060  0.3510  0.2507 -0.0781
   97OSM   H17F 9710   3.640   2.406   9.088 -0.8535 -0.3158 -4.5014
   97OSM   H17G 9711   3.818   2.378   9.099  0.0759 -1.3656 -2.2333
   97OSM   C18F 9712   3.751   2.448   8.905  0.0669 -0.0293 -0.9194
   97OSM   H18F 9713   3.836   2.512   8.872  1.1654 -0.8703  0.1991
   97OSM   H18G 9714   3.659   2.487   8.855 -1.9349 -1.3182  1.5150
   97OSM   H18H 9715   3.778   2.346   8.872 -1.8956 -0.6301 -0.7966
   98OSM      N 9716   2.736   2.399  10.700 -0.4270  0.7603 -0.0820
   98OSM    C15 9717   2.605   2.462  10.718  0.3959 -0.6182 -0.1019
   98OSM   H15A 9718   2.522   2.394  10.705 -0.1518  0.5782 -3.9542
   98OSM   H15B 9719   2.596   2.535  10.640  1.9697 -0.1755  0.0993
   98OSM   H15C 9720   2.597   2.512  10.814  0.0537 -0.2948 -0.3001
   98OSM    C14 9721   2.749   2.280  10.799  0.2626 -0.2314  0.0891
   98OSM   H14A 9722   2.783   2.316  10.895 -0.4118 -1.0846  0.6697
   98OSM   H14B 9723   2.820   2.203  10.771  0.3588 -0.7790  1.7234
   98OSM   H14C 9724   2.656   2.231  10.824  0.2439 -1.4913 -2.1921
   98OSM    C13 9725   2.766   2.355  10.562 -0.7907 -0.2586  0.1099
   98OSM   H13A 9726   2.756   2.442  10.499  2.7076  0.1112 -0.1096
   98OSM   H13B 9727   2.705   2.274  10.525 -2.0416  0.3195  0.8397
   98OSM   H13C 9728   2.867   2.318  10.551 -1.3773 -1.7364 -0.6709
   98OSM    C12 9729   2.835   2.510  10.726  0.1152 -0.8716 -0.2894
   98OSM   H12A 9730   2.806   2.554  10.820 -1.8974  1.9725 -2.0358
   98OSM   H12B 9731   2.817   2.593  10.659 -0.3925 -0.9283 -0.2256
   98OSM    C11 9732   2.990   2.473  10.724 -0.5802  0.5213  0.2135
   98OSM   H11A 9733   3.049   2.567  10.722  0.3195  0.0308  1.7958
   98OSM   H11B 9734   3.023   2.413  10.636 -3.2284  0.6199 -0.9363
   98OSM      P 9735   3.173   2.341  10.863  0.4483 -0.2909  0.0624
   98OSM    O13 9736   3.275   2.439  10.817  0.5387 -0.4124 -0.1964
   98OSM    O14 9737   3.182   2.302  11.001 -0.1823  0.1649 -0.2743
   98OSM    O11 9738   3.170   2.214  10.776  0.5728  0.0497 -0.1068
   98OSM    O12 9739   3.030   2.404  10.843  0.3630 -0.0963  0.1129
   98OSM    C1S 9740   3.241   2.225  10.650 -0.3742 -0.0727  0.7272
   98OSM    H1S 9741   3.351   2.227  10.669  0.0379  1.3293 -1.4554
   98OSM    H1T 9742   3.218   2.320  10.599  2.3611  1.3027  1.8403
   98OSM     NF 9743   3.277   2.131  10.430  0.1015 -0.0208 -0.3011
   98OSM    HNF 9744   3.223   2.166  10.354 -0.2932  1.3238  0.5707
   98OSM    C2S 9745   3.204   2.110  10.553 -0.0925 -0.1532  0.2325
   98OSM    H2S 9746   3.236   2.015  10.600 -0.2544  0.2790  1.2442
   98OSM    C3S 9747   3.050   2.109  10.542 -0.4747  0.2678 -0.1974
   98OSM    H3S 9748   3.019   2.211  10.510 -0.5614  0.5087  0.6408
   98OSM     O3 9749   2.983   2.076  10.666 -0.5195  0.1519  0.0348
   98OSM    HO3 9750   3.044   2.090  10.739 -0.3875 -0.4131  0.0328
   98OSM    C4S 9751   3.018   2.016  10.431  0.1236  0.9766  0.0189
   98OSM    H4S 9752   2.996   2.065  10.336  0.5482 -0.4345 -0.8376
   98OSM    C5S 9753   3.004   1.886  10.440  0.1096  0.5505  0.2184
   98OSM    H5S 9754   3.039   1.843  10.535 -0.2039  0.9329  0.5121
   98OSM    C6S 9755   2.971   1.797  10.324 -0.1733  0.4247  0.4839
   98OSM    H6S 9756   2.860   1.797  10.321 -0.1869  1.8668 -0.1555
   98OSM    H6T 9757   3.007   1.693  10.341 -0.3700 -0.0478 -1.7191
   98OSM    C7S 9758   3.017   1.835  10.182  0.1104 -0.3768 -0.5602
   98OSM    H7S 9759   2.958   1.924  10.148  0.4845  0.3641  0.6663
   98OSM    H7T 9760   2.986   1.749  10.119 -0.2818  0.1468 -1.0920
   98OSM    C8S 9761   3.177   1.855  10.167  0.0325  0.0121  0.4247
   98OSM    H8S 9762   3.206   1.748  10.177 -1.3115 -0.3594  0.5974
   98OSM    H8T 9763   3.222   1.909  10.252  2.0802  1.6564 -1.5645
   98OSM    C9S 9764   3.214   1.928  10.036  0.3753 -0.5071 -0.0634
   98OSM    H9S 9765   3.323   1.933  10.015  0.7779  0.6866  2.0478
   98OSM    H9T 9766   3.185   2.035  10.030  1.8574  0.1376  2.5414
   98OSM   C10S 9767   3.163   1.849   9.917 -0.5761  0.2999  0.3784
   98OSM   H10S 9768   3.053   1.859   9.909 -0.3559  1.9147 -1.2286
   98OSM   H10T 9769   3.196   1.743   9.915  0.1277  0.5260 -0.6659
   98OSM   C11S 9770   3.210   1.901   9.776  0.0114  0.2951 -0.1776
   98OSM   H11S 9771   3.321   1.909   9.784 -0.2071  1.7916  2.8508
   98OSM   H11T 9772   3.194   2.011   9.771 -2.0982  0.1930  2.2891
   98OSM   C12S 9773   3.161   1.822   9.659  0.1025  0.0270  0.5652
   98OSM   H12S 9774   3.050   1.824   9.668 -0.0958 -0.5213 -1.3083
   98OSM   H12T 9775   3.184   1.713   9.664 -2.2505 -0.6454 -1.3491
   98OSM   C13S 9776   3.195   1.883   9.528 -0.1888  0.3630 -0.5934
   98OSM   H13S 9777   3.306   1.872   9.528 -0.2425 -0.3095 -1.5378
   98OSM   H13T 9778   3.153   1.985   9.523  0.1480  0.5492  0.1783
   98OSM   C14S 9779   3.135   1.792   9.416 -0.1590 -0.3567 -0.4304
   98OSM   H14S 9780   3.028   1.778   9.444 -0.5330  0.0962 -1.5320
   98OSM   H14T 9781   3.173   1.688   9.420  0.7930 -0.1034 -1.9648
   98OSM   C15S 9782   3.155   1.857   9.283 -0.7390  0.5894 -0.5323
   98OSM   H15S 9783   3.263   1.844   9.261 -0.8192  0.4507 -0.8463
   98OSM   H15T 9784   3.125   1.964   9.278 -0.4423  0.6149 -2.5600
   98OSM   C16S 9785   3.090   1.781   9.170  0.3297  0.1821  0.1857
   98OSM   H16S 9786   3.111   1.672   9.173 -0.4356  0.0413  0.5816
   98OSM   H16T 9787   3.144   1.823   9.082 -0.1218  2.7416  1.0358
   98OSM   C17S 9788   2.944   1.814   9.156  0.1258  1.0678 -0.0089
   98OSM   H17S 9789   2.943   1.919   9.118  1.2319  0.4275 -1.9976
   98OSM   H17T 9790   2.874   1.804   9.241  0.9487  1.1353  0.6965
   98OSM   C18S 9791   2.871   1.724   9.047 -0.1353  0.6448  0.0479
   98OSM   H18S 9792   2.772   1.770   9.027 -0.4352 -0.6256 -1.6090
   98OSM   H18T 9793   2.854   1.617   9.073  2.6345 -0.4526 -2.1598
   98OSM   H18U 9794   2.934   1.720   8.955  0.5977  1.2274  0.5116
   98OSM    C1F 9795   3.405   2.122  10.413  0.0218  0.7902 -0.1061
   98OSM     OF 9796   3.471   2.060  10.501 -0.0364 -0.0670 -0.4264
   98OSM    C2F 9797   3.468   2.171  10.285 -0.4713 -0.1729  0.0299
   98OSM    H2F 9798   3.537   2.253  10.314 -1.1032  0.1416  0.6862
   98OSM    H2G 9799   3.385   2.203  10.219  0.8698  0.6913 -1.3066
   98OSM    C3F 9800   3.551   2.063  10.205 -0.1152  0.3228  0.5187
   98OSM    H3F 9801   3.478   1.988  10.167  1.2918  0.1251 -2.0217
   98OSM    H3G 9802   3.633   2.022  10.267  0.3236 -2.0828 -1.4995
   98OSM    C4F 9803   3.625   2.108  10.081  0.0785 -0.3166 -0.5025
   98OSM    H4F 9804   3.672   2.016  10.042  1.9095 -0.3788  1.6799
   98OSM    H4G 9805   3.708   2.170  10.120 -0.1566 -0.1011 -0.3385
   98OSM    C5F 9806   3.534   2.180   9.978 -0.4613 -0.0872  0.1794
   98OSM    H5F 9807   3.486   2.268  10.025 -0.0143 -0.3080  1.0770
   98OSM    H5G 9808   3.453   2.107   9.954 -0.1462  0.0644 -1.4588
   98OSM    C6F 9809   3.617   2.216   9.848  0.0639  0.2367 -0.9877
   98OSM    H6F 9810   3.666   2.129   9.799 -1.0208 -1.4432  0.7680
   98OSM    H6G 9811   3.696   2.290   9.872  0.2460  0.0324 -0.9533
   98OSM    C7F 9812   3.535   2.295   9.745  0.5597  0.7553 -0.3095
   98OSM    H7F 9813   3.468   2.365   9.799  0.2860  0.5454 -0.3794
   98OSM    H7G 9814   3.481   2.217   9.687  1.8994  0.4358 -1.1797
   98OSM    C8F 9815   3.625   2.384   9.653 -0.2364  0.0678  0.5763
   98OSM    H8F 9816   3.725   2.337   9.635  0.7853  2.4766 -0.4865
   98OSM    H8G 9817   3.646   2.475   9.713  1.4637  0.5172 -0.6115
   98OSM    C9F 9818   3.549   2.423   9.531  0.9354 -0.1289  0.0214
   98OSM    H9F 9819   3.503   2.523   9.535  0.7418 -0.1979 -0.3824
   98OSM   C10F 9820   3.528   2.340   9.423  0.5450  0.1264 -0.3230
   98OSM   H10F 9821   3.470   2.392   9.345 -1.8448 -0.5042  0.9356
   98OSM   C11F 9822   3.587   2.198   9.406  0.3125 -0.3040  0.3467
   98OSM   H11F 9823   3.608   2.165   9.510  0.2613  1.0392  0.8068
   98OSM   H11G 9824   3.682   2.199   9.347 -0.7167 -2.1523 -1.4638
   98OSM   C12F 9825   3.497   2.104   9.318  0.5628  0.4562 -0.2137
   98OSM   H12F 9826   3.409   2.092   9.385  2.5983  1.8046  2.9727
   98OSM   H12G 9827   3.542   2.004   9.304 -0.9481 -0.1437 -0.9942
   98OSM   C13F 9828   3.469   2.158   9.176 -0.0811 -0.1951  0.4104
   98OSM   H13F 9829   3.565   2.186   9.128 -0.6794  0.9234 -0.1714
   98OSM   H13G 9830   3.406   2.248   9.196 -1.1129 -0.5840 -0.9762
   98OSM   C14F 9831   3.401   2.055   9.080  1.4707  0.1968 -0.2132
   98OSM   H14F 9832   3.308   2.032   9.138  0.4462  0.9147 -1.5057
   98OSM   H14G 9833   3.470   1.969   9.065  3.0346  1.1324  1.2739
   98OSM   C15F 9834   3.347   2.099   8.943 -0.0277 -0.0606  0.3674
   98OSM   H15F 9835   3.425   2.080   8.866  1.4163  1.6546  1.3188
   98OSM   H15G 9836   3.342   2.210   8.951  1.7818 -0.0191  1.3266
   98OSM   C16F 9837   3.207   2.040   8.908 -0.8226 -0.2764 -0.8598
   98OSM   H16F 9838   3.136   2.089   8.978  1.2767  0.7207  0.6755
   98OSM   H16G 9839   3.218   1.932   8.933  0.0711 -0.2250 -0.9957
   98OSM   C17F 9840   3.181   2.057   8.759 -1.0631  0.1085  0.2071
   98OSM   H17F 9841   3.260   2.005   8.700  0.7528  1.5853  1.2431
   98OSM   H17G 9842   3.176   2.166   8.734  1.5917  0.0545 -0.8461
   98OSM   C18F 9843   3.043   2.002   8.705 -0.3003 -0.4880  0.2923
   98OSM   H18F 9844   3.039   2.021   8.595 -0.1638  1.7454  0.6268
   98OSM   H18G 9845   2.960   2.053   8.759 -0.4037  0.0647 -0.3742
   98OSM   H18H 9846   3.039   1.892   8.716  2.3951 -1.1315 -3.1756
   99OSM      N 9847   5.423   2.376  11.090 -0.4296 -0.2438  0.1227
   99OSM    C15 9848   5.508   2.493  11.044 -0.3252  1.3484  0.6049
   99OSM   H15A 9849   5.527   2.503  10.938  1.8105 -0.5294  0.7433
   99OSM   H15B 9850   5.605   2.499  11.092  1.2250  0.0502 -2.1843
   99OSM   H15C 9851   5.456   2.582  11.079 -0.0624  1.3458  1.0076
   99OSM    C14 9852   5.492   2.247  11.097  0.2296  0.7740  0.1828
   99OSM   H14A 9853   5.511   2.208  10.998  0.5622  1.2295  0.0618
   99OSM   H14B 9854   5.425   2.170  11.132 -0.8099  0.9828 -1.2538
   99OSM   H14C 9855   5.580   2.246  11.160 -1.0837 -1.2089  2.1266
   99OSM    C13 9856   5.373   2.412  11.227  0.4061 -0.0142 -0.4898
   99OSM   H13A 9857   5.285   2.360  11.263  0.3405  0.9975  0.8974
   99OSM   H13B 9858   5.351   2.517  11.234  0.8815  0.0615 -0.0939
   99OSM   H13C 9859   5.446   2.395  11.304 -0.4296 -0.5808  0.2061
   99OSM    C12 9860   5.307   2.367  10.999 -0.4219 -0.8756  0.7314
   99OSM   H12A 9861   5.274   2.469  10.990 -0.7633 -0.9248  1.3751
   99OSM   H12B 9862   5.231   2.304  11.044  0.8247 -1.3398  2.2707
   99OSM    C11 9863   5.331   2.325  10.849  0.2927 -0.7101 -0.2025
   99OSM   H11A 9864   5.234   2.307  10.798 -0.5437 -1.7750  1.6607
   99OSM   H11B 9865   5.382   2.227  10.847 -1.0111 -1.4019 -0.3555
   99OSM      P 9866   5.326   2.551  10.701 -0.4153  0.2262 -0.1993
   99OSM    O13 9867   5.222   2.600  10.790  0.7646 -0.0444  0.0460
   99OSM    O14 9868   5.428   2.648  10.651  0.5685 -0.0916  0.1825
   99OSM    O11 9869   5.257   2.485  10.571  0.2741  0.0697  0.0717
   99OSM    O12 9870   5.402   2.431  10.776 -0.5139 -0.0326  0.2259
   99OSM    C1S 9871   5.334   2.428  10.468  0.2229  0.8666  0.8896
   99OSM    H1S 9872   5.356   2.319  10.478  1.2303  0.8532 -0.8935
   99OSM    H1T 9873   5.438   2.466  10.463  1.0436 -1.2873  0.0644
   99OSM     NF 9874   5.350   2.384  10.218 -1.0141 -0.3307  0.1591
   99OSM    HNF 9875   5.388   2.451  10.155 -1.8315  0.0952  0.1070
   99OSM    C2S 9876   5.262   2.438  10.322 -0.1922  0.4090  0.7736
   99OSM    H2S 9877   5.171   2.376  10.334 -0.2933 -0.4527 -3.1229
   99OSM    C3S 9878   5.214   2.582  10.299  0.1508  0.2321  0.3234
   99OSM    H3S 9879   5.309   2.640  10.288 -0.0555  0.9599  2.1176
   99OSM     O3 9880   5.146   2.651  10.406  0.3053 -0.0885  0.3684
   99OSM    HO3 9881   5.172   2.599  10.482  0.3658 -2.2613 -1.0591
   99OSM    C4S 9882   5.145   2.604  10.170  0.2003  0.0553 -0.5982
   99OSM    H4S 9883   5.051   2.547  10.173  1.1538 -1.6405 -1.5119
   99OSM    C5S 9884   5.177   2.691  10.075  0.5099 -0.0846 -0.5473
   99OSM    H5S 9885   5.257   2.764  10.095  0.1565 -0.1199  1.0957
   99OSM    C6S 9886   5.084   2.708   9.952 -0.9065  1.2456 -0.4979
   99OSM    H6S 9887   5.151   2.714   9.864 -0.1625  1.8756  0.0919
   99OSM    H6T 9888   5.041   2.809   9.965 -1.7764  0.6686  1.5733
   99OSM    C7S 9889   4.963   2.614   9.927 -0.1833  0.4930 -0.1665
   99OSM    H7S 9890   4.900   2.618  10.019  1.0623 -3.2582  1.0322
   99OSM    H7T 9891   4.999   2.509   9.921 -1.3129  0.1663 -2.9830
   99OSM    C8S 9892   4.887   2.625   9.792  0.6531  0.5025  0.1040
   99OSM    H8S 9893   4.871   2.735   9.787 -1.4641  0.3762  2.2628
   99OSM    H8T 9894   4.787   2.580   9.804  1.5610 -1.1937  1.9952
   99OSM    C9S 9895   4.956   2.569   9.662  0.1707  0.0341 -0.0987
   99OSM    H9S 9896   4.997   2.469   9.690  1.4163  0.7415  0.6930
   99OSM    H9T 9897   5.037   2.639   9.633  0.4790 -0.6535 -0.9283
   99OSM   C10S 9898   4.856   2.566   9.543 -0.6125 -0.2565 -0.3671
   99OSM   H10S 9899   4.823   2.669   9.519  0.2511 -0.2258 -1.5092
   99OSM   H10T 9900   4.776   2.497   9.578 -0.9751 -0.6302 -1.8731
   99OSM   C11S 9901   4.922   2.519   9.415 -0.0525 -0.2647 -0.0558
   99OSM   H11S 9902   4.955   2.415   9.434  0.8668  0.0047 -0.1243
   99OSM   H11T 9903   5.016   2.577   9.402 -0.3199 -0.1951 -1.9784
   99OSM   C12S 9904   4.839   2.535   9.284  0.3949 -1.1598  0.5540
   99OSM   H12S 9905   4.734   2.500   9.295 -0.0636 -0.0899 -0.2787
   99OSM   H12T 9906   4.829   2.642   9.258  0.6150 -0.9930  1.1371
   99OSM   C13S 9907   4.903   2.474   9.165 -0.3170  0.2871  0.0588
   99OSM   H13S 9908   4.906   2.365   9.184 -0.4224  0.3667  0.5648
   99OSM   H13T 9909   5.008   2.508   9.155 -0.2649 -0.1312 -0.9407
   99OSM   C14S 9910   4.835   2.489   9.031 -0.6152  0.8556 -0.1214
   99OSM   H14S 9911   4.900   2.431   8.962 -0.6272  1.0716 -0.3139
   99OSM   H14T 9912   4.825   2.593   8.992 -1.2808  0.8762  0.0814
   99OSM   C15S 9913   4.689   2.439   9.043 -0.7890  0.3402  0.5238
   99OSM   H15S 9914   4.643   2.524   9.097  1.1818  0.8225  1.5305
   99OSM   H15T 9915   4.697   2.344   9.101  0.7609  0.5303  0.6466
   99OSM   C16S 9916   4.638   2.408   8.905  0.0102 -0.3992 -0.5100
   99OSM   H16S 9917   4.708   2.331   8.869 -0.3377  0.5689 -3.5035
   99OSM   H16T 9918   4.633   2.497   8.838 -0.6314  0.0856  0.1589
   99OSM   C17S 9919   4.495   2.354   8.911  0.4232  0.4530  0.7847
   99OSM   H17S 9920   4.486   2.293   9.003 -1.0493  0.6931  0.8158
   99OSM   H17T 9921   4.487   2.276   8.833 -1.6726 -0.5047  1.8870
   99OSM   C18S 9922   4.379   2.452   8.895 -0.1847 -0.3864 -0.0058
   99OSM   H18S 9923   4.281   2.399   8.898  0.6278 -1.9168  1.1083
   99OSM   H18T 9924   4.394   2.506   8.799  1.0982  1.2538  1.0500
   99OSM   H18U 9925   4.388   2.527   8.976 -0.7713  0.1054 -0.3900
   99OSM    C1F 9926   5.383   2.258  10.216 -0.1634  0.0977 -0.1346
   99OSM     OF 9927   5.308   2.180  10.271  0.1322 -0.4545 -0.4973
   99OSM    C2F 9928   5.514   2.213  10.152  0.2061 -0.3250  0.1764
   99OSM    H2F 9929   5.560   2.128  10.208 -0.1922  0.2040  1.3367
   99OSM    H2G 9930   5.587   2.297  10.155  0.6255 -0.5637 -2.1111
   99OSM    C3F 9931   5.508   2.170  10.006  0.0380  0.1904  0.1568
   99OSM    H3F 9932   5.612   2.165   9.966 -0.0172 -0.1483  0.0490
   99OSM    H3G 9933   5.466   2.067  10.002  0.7861 -0.0870 -1.6482
   99OSM    C4F 9934   5.429   2.266   9.914 -0.6326  0.0083 -0.9360
   99OSM    H4F 9935   5.479   2.365   9.914 -1.3774  0.4583 -3.3580
   99OSM    H4G 9936   5.322   2.282   9.937 -0.8566 -1.7857 -0.6006
   99OSM    C5F 9937   5.433   2.215   9.769 -0.1358  0.0159 -0.1131
   99OSM    H5F 9938   5.384   2.115   9.770 -0.4359  0.1613  0.5999
   99OSM    H5G 9939   5.536   2.186   9.739 -0.1997 -0.0419 -0.2793
   99OSM    C6F 9940   5.360   2.311   9.676  0.5791  0.3876  0.4517
   99OSM    H6F 9941   5.441   2.385   9.656  2.1778 -1.1199  1.0751
   99OSM    H6G 9942   5.276   2.351   9.737  0.8068 -1.3915  2.0434
   99OSM    C7F 9943   5.307   2.233   9.556 -0.4720 -0.0685  0.1835
   99OSM    H7F 9944   5.232   2.159   9.591  1.3833 -1.1591  2.0899
   99OSM    H7G 9945   5.395   2.177   9.516 -1.7867 -0.3481 -2.5264
   99OSM    C8F 9946   5.263   2.332   9.442 -0.4103 -0.4619  0.3148
   99OSM    H8F 9947   5.353   2.383   9.402 -0.7038 -1.1362 -1.2845
   99OSM    H8G 9948   5.191   2.414   9.461 -0.4274 -0.1979 -0.8283
   99OSM    C9F 9949   5.195   2.249   9.339 -0.5854  0.0133 -0.3405
   99OSM    H9F 9950   5.086   2.238   9.347 -0.6263  0.9227  0.5282
   99OSM   C10F 9951   5.252   2.182   9.239  0.5488  0.0547 -0.1609
   99OSM   H10F 9952   5.187   2.124   9.171  1.6635  0.7254 -1.8731
   99OSM   C11F 9953   5.394   2.184   9.196 -0.3841 -0.3225 -0.3918
   99OSM   H11F 9954   5.441   2.084   9.178  0.9430  0.6024 -2.5257
   99OSM   H11G 9955   5.463   2.221   9.274 -0.6279 -1.5298  0.4311
   99OSM   C12F 9956   5.417   2.263   9.063 -0.4644 -0.8500 -0.7675
   99OSM   H12F 9957   5.526   2.258   9.039  0.1913 -0.6518  1.8903
   99OSM   H12G 9958   5.397   2.372   9.071 -1.8615 -1.1783  0.6282
   99OSM   C13F 9959   5.325   2.224   8.946  0.0272 -0.1978 -0.2002
   99OSM   H13F 9960   5.220   2.259   8.961  0.8790  2.0512  0.9339
   99OSM   H13G 9961   5.320   2.113   8.942 -2.8117 -0.2551  1.5986
   99OSM   C14F 9962   5.382   2.272   8.813 -0.2451 -0.4972  0.6486
   99OSM   H14F 9963   5.492   2.254   8.818  0.3436  2.0723 -0.7657
   99OSM   H14G 9964   5.361   2.381   8.804 -1.9225 -0.6475  2.3028
   99OSM   C15F 9965   5.323   2.197   8.694 -0.5930 -0.3935  0.2891
   99OSM   H15F 9966   5.212   2.200   8.690 -0.7005 -0.1860  2.2874
   99OSM   H15G 9967   5.363   2.094   8.694  1.2677  0.2807  0.6649
   99OSM   C16F 9968   5.374   2.265   8.564  0.7226 -0.2017 -0.1691
   99OSM   H16F 9969   5.485   2.273   8.563  0.7102 -0.0071 -0.0309
   99OSM   H16G 9970   5.318   2.361   8.563  0.0074 -0.6126 -0.6171
   99OSM   C17F 9971   5.326   2.177   8.448  0.0941  0.4553  0.1899
   99OSM   H17F 9972   5.221   2.144   8.462 -0.1186  0.3590 -1.4331
   99OSM   H17G 9973   5.381   2.080   8.442 -0.7405  0.0311 -1.1808
   99OSM   C18F 9974   5.349   2.248   8.309 -0.7754 -0.0445  0.3123
   99OSM   H18F 9975   5.320   2.174   8.232 -2.9074  0.1926  0.8226
   99OSM   H18G 9976   5.455   2.277   8.295 -0.4076 -0.7247  1.5661
   99OSM   H18H 9977   5.286   2.339   8.294  0.7264  0.7939 -1.3500
  100OSM      N 9978   1.273   3.756  10.630  0.3210 -0.1410  0.4405
  100OSM    C15 9979   1.265   3.643  10.722 -0.9808  0.5577  0.2653
  100OSM   H15A 9980   1.161   3.634  10.747 -1.7484  1.3201 -2.3569
  100OSM   H15B 9981   1.311   3.661  10.818 -0.7964  0.6665  0.1582
  100OSM   H15C 9982   1.310   3.554  10.681  0.5757  1.6231 -0.4390
  100OSM    C14 9983   1.223   3.879  10.704  0.7890 -0.6190 -0.0499
  100OSM   H14A 9984   1.262   3.880  10.805  3.4946 -0.8548 -1.0089
  100OSM   H14B 9985   1.117   3.871  10.722  0.5600  0.6850 -0.6507
  100OSM   H14C 9986   1.236   3.974  10.654  1.6361  0.5087  2.1579
  100OSM    C13 9987   1.415   3.786  10.602 -0.1324 -0.0538 -0.0535
  100OSM   H13A 9988   1.470   3.792  10.695 -0.0425  1.0249 -0.1600
  100OSM   H13B 9989   1.421   3.883  10.555 -0.1989 -0.7632 -1.5866
  100OSM   H13C 9990   1.459   3.716  10.532  1.3951  2.8005 -2.1638
  100OSM    C12 9991   1.211   3.728  10.495  0.5279  0.6326 -0.3596
  100OSM   H12A 9992   1.263   3.645  10.449  0.1713  0.6932 -0.8779
  100OSM   H12B 9993   1.235   3.811  10.429 -2.5411  1.2858 -0.8077
  100OSM    C11 9994   1.057   3.721  10.483 -0.5695  0.4407 -0.1407
  100OSM   H11A 9995   1.029   3.709  10.376 -0.6787 -0.0328 -0.0639
  100OSM   H11B 9996   1.011   3.813  10.524 -2.5919 -0.8260  0.5971
  100OSM      P 9997   0.996   3.463  10.520 -0.0895  0.8861  0.0898
  100OSM    O13 9998   1.127   3.409  10.548  0.2049  0.0928 -0.4549
  100OSM    O14 9999   0.882   3.401  10.587 -0.3160  0.0405 -0.2985
  100OSM    O1110000   0.979   3.445  10.369 -0.8699  0.0636 -0.2383
  100OSM    O1210001   1.004   3.615  10.561  0.5113  1.2780 -0.2097
  100OSM    C1S10002   0.858   3.501  10.317  0.1229  0.5868  0.7553
  100OSM    H1S10003   0.866   3.612  10.312 -1.6560  0.6848 -0.8583
  100OSM    H1T10004   0.766   3.488  10.380  0.0920  2.0606  1.0506
  100OSM     NF10005   0.706   3.516  10.121  0.1288 -0.0234  0.2059
  100OSM    HNF10006   0.619   3.492  10.163  0.2705 -0.1149  0.4512
  100OSM    C2S10007   0.820   3.442  10.174 -0.2835 -0.4840 -0.6797
  100OSM    H2S10008   0.905   3.454  10.104  1.0123 -2.3648  0.4870
  100OSM    C3S10009   0.800   3.286  10.177  0.6120  0.1790 -0.4964
  100OSM    H3S10010   0.699   3.255  10.210  0.6123  0.6008 -0.0938
  100OSM     O310011   0.883   3.215  10.272 -0.5510 -0.7645 -0.1615
  100OSM    HO310012   0.918   3.287  10.324 -0.2030 -1.3947  0.5008
  100OSM    C4S10013   0.813   3.233  10.041 -0.1320  0.4631 -0.1009
  100OSM    H4S10014   0.712   3.221   9.998  0.3032 -0.4789 -0.8889
  100OSM    C5S10015   0.925   3.197   9.972 -0.7794  0.6944 -0.3357
  100OSM    H5S10016   1.022   3.230  10.012 -0.3882 -0.5958 -0.1567
  100OSM    C6S10017   0.937   3.136   9.836 -0.4674  0.3385  0.1568
  100OSM    H6S10018   0.949   3.026   9.844 -0.6834  0.0013 -2.8999
  100OSM    H6T10019   1.030   3.173   9.787  1.0349 -1.7601  1.2333
  100OSM    C7S10020   0.819   3.166   9.744 -0.2981 -0.5408 -0.6944
  100OSM    H7S10021   0.801   3.275   9.731  0.2694 -0.5845 -2.0647
  100OSM    H7T10022   0.726   3.122   9.786 -0.1697 -0.4104 -0.2667
  100OSM    C8S10023   0.825   3.121   9.600 -0.1039 -0.0179  0.0421
  100OSM    H8S10024   0.738   3.154   9.539  0.6736 -0.5642 -1.4084
  100OSM    H8T10025   0.826   3.010   9.596  2.7024 -0.0372 -0.3876
  100OSM    C9S10026   0.954   3.171   9.530  0.2771 -0.3833  0.5934
  100OSM    H9S10027   1.021   3.092   9.571 -0.6562 -2.7191 -2.0222
  100OSM    H9T10028   0.986   3.270   9.568  2.1486  0.2920 -2.4401
  100OSM   C10S10029   0.973   3.146   9.384  0.0018 -0.5573 -0.0517
  100OSM   H10S10030   0.916   3.215   9.317  0.7053 -0.2302 -0.3212
  100OSM   H10T10031   0.919   3.053   9.358  0.7126 -0.8078 -0.6611
  100OSM   C11S10032   1.123   3.135   9.342 -0.7110 -0.1102  0.2414
  100OSM   H11S10033   1.178   3.067   9.411  0.1544 -0.3826 -0.7003
  100OSM   H11T10034   1.174   3.233   9.354  2.0896 -1.4907  0.3219
  100OSM   C12S10035   1.144   3.073   9.203  0.5319 -0.4823 -0.5340
  100OSM   H12S10036   1.101   2.971   9.199  0.2196 -0.3647 -0.1811
  100OSM   H12T10037   1.253   3.057   9.188  0.6233  0.6984 -1.2987
  100OSM   C13S10038   1.086   3.162   9.087 -0.6923  0.2783  0.4290
  100OSM   H13S10039   1.090   3.273   9.096 -1.0574  0.1779  2.1840
  100OSM   H13T10040   0.977   3.147   9.101 -0.2714 -1.9641  1.6625
  100OSM   C14S10041   1.114   3.099   8.949 -0.8453 -0.7596  0.2831
  100OSM   H14S10042   1.041   3.127   8.870 -1.9956 -0.1395  1.5285
  100OSM   H14T10043   1.091   2.992   8.969 -0.4417 -0.6475  1.4640
  100OSM   C15S10044   1.265   3.122   8.899 -0.1519  0.1037 -0.0089
  100OSM   H15S10045   1.342   3.089   8.972 -1.6021  1.1964  2.1126
  100OSM   H15T10046   1.282   3.232   8.895 -0.2748  0.1374  0.3641
  100OSM   C16S10047   1.298   3.055   8.765  0.3773 -0.8020  0.4168
  100OSM   H16S10048   1.227   3.101   8.693  2.2739 -0.7247 -1.5145
  100OSM   H16T10049   1.280   2.946   8.768 -0.6077 -0.7129 -1.0661
  100OSM   C17S10050   1.446   3.095   8.737  0.1450 -0.0394 -0.4804
  100OSM   H17S10051   1.515   3.054   8.813  1.0995  0.1490 -1.2256
  100OSM   H17T10052   1.459   3.206   8.742  0.7124 -0.1665  1.6427
  100OSM   C18S10053   1.488   3.043   8.602 -0.8266  0.0745 -0.1491
  100OSM   H18S10054   1.598   3.053   8.587 -0.8913 -0.8056 -1.3491
  100OSM   H18T10055   1.432   3.096   8.522  0.4628 -0.3333 -1.3744
  100OSM   H18U10056   1.466   2.934   8.606 -0.8064  0.0460 -0.7291
  100OSM    C1F10057   0.715   3.639  10.074 -0.4075 -0.2582  0.9341
  100OSM     OF10058   0.825   3.697  10.063  0.4208  0.0275  0.1768
  100OSM    C2F10059   0.590   3.697  10.019 -0.0609  0.0563 -0.4063
  100OSM    H2F10060   0.549   3.773  10.089  0.5319  0.5256 -0.5574
  100OSM    H2G10061   0.515   3.615  10.014  1.2102 -1.1020 -1.5480
  100OSM    C3F10062   0.605   3.765   9.883 -0.0902 -0.0132  0.4230
  100OSM    H3F10063   0.693   3.832   9.894 -1.4154  1.6796  1.1634
  100OSM    H3G10064   0.513   3.826   9.873 -0.1784 -0.1149  0.6168
  100OSM    C4F10065   0.613   3.670   9.758 -0.0476 -0.2593  0.7356
  100OSM    H4F10066   0.542   3.585   9.762 -0.4303  0.0946  1.5783
  100OSM    H4G10067   0.720   3.643   9.746  0.6151  0.9332  3.3374
  100OSM    C5F10068   0.572   3.744   9.627  0.7031  0.1641 -0.0560
  100OSM    H5F10069   0.656   3.813   9.601  0.1395  0.3884 -1.3569
  100OSM    H5G10070   0.485   3.811   9.642 -0.5962 -0.7373 -2.8578
  100OSM    C6F10071   0.545   3.652   9.510  0.3376 -0.3233 -0.7529
  100OSM    H6F10072   0.526   3.709   9.416  0.5910  1.1023  0.0456
  100OSM    H6G10073   0.450   3.598   9.529  0.4918 -1.0350 -1.8605
  100OSM    C7F10074   0.659   3.554   9.471 -0.0895 -0.4607 -0.8525
  100OSM    H7F10075   0.668   3.475   9.549  0.2596  0.2014 -0.2075
  100OSM    H7G10076   0.749   3.618   9.476 -0.9645  0.7258  0.5329
  100OSM    C8F10077   0.646   3.490   9.333 -0.0024 -0.7206 -0.1081
  100OSM    H8F10078   0.538   3.485   9.310  0.0366 -1.9069 -0.1095
  100OSM    H8G10079   0.688   3.387   9.330  0.3241 -0.5752 -0.8323
  100OSM    C9F10080   0.725   3.559   9.223 -0.1406  0.0530 -0.5754
  100OSM    H9F10081   0.834   3.553   9.234 -0.1701 -0.4918 -0.5486
  100OSM   C10F10082   0.672   3.625   9.115  0.5662  0.2677  0.2099
  100OSM   H10F10083   0.728   3.645   9.023 -1.2179 -2.0448 -1.4885
  100OSM   C11F10084   0.531   3.650   9.089  0.4082 -0.2842 -0.6218
  100OSM   H11F10085   0.512   3.758   9.104  1.3307 -0.1676 -0.2150
  100OSM   H11G10086   0.453   3.591   9.142 -0.6756  0.1424 -1.6946
  100OSM   C12F10087   0.507   3.623   8.939  0.3674 -0.1325 -0.2851
  100OSM   H12F10088   0.546   3.532   8.889 -0.2909  0.4392 -1.8884
  100OSM   H12G10089   0.546   3.705   8.875  1.4836 -1.8761 -1.9456
  100OSM   C13F10090   0.352   3.615   8.913 -0.0948 -0.6885 -0.7280
  100OSM   H13F10091   0.343   3.635   8.804 -0.9802  2.3094 -0.2014
  100OSM   H13G10092   0.303   3.692   8.976  0.8046 -2.2418  2.0208
  100OSM   C14F10093   0.298   3.468   8.945 -0.7388  0.0438  0.0325
  100OSM   H14F10094   0.320   3.435   9.048  1.1345  0.6169 -0.1420
  100OSM   H14G10095   0.361   3.396   8.888  0.6338 -0.7280  2.4008
  100OSM   C15F10096   0.149   3.446   8.907  0.2207  0.1194 -0.4032
  100OSM   H15F10097   0.084   3.504   8.976  0.5726 -0.5987  0.5454
  100OSM   H15G10098   0.133   3.336   8.913  2.6697 -0.3862 -1.9654
  100OSM   C16F10099   0.111   3.485   8.764 -0.4174 -0.7245 -0.0972
  100OSM   H16F10100   0.172   3.427   8.692  1.6528  2.3361 -0.9949
  100OSM   H16G10101   0.130   3.594   8.751 -1.7116 -0.4163  0.4987
  100OSM   C17F10102  -0.036   3.456   8.732 -0.3255  0.1210 -0.6673
  100OSM   H17F10103  -0.094   3.516   8.805 -0.2017 -1.5240  0.8377
  100OSM   H17G10104  -0.050   3.350   8.761 -1.5912  0.3102 -0.5327
  100OSM   C18F10105  -0.081   3.478   8.582  0.2697 -0.1743  0.5407
  100OSM   H18F10106  -0.056   3.578   8.540  0.4407  0.0296  1.1261
  100OSM   H18G10107  -0.189   3.468   8.561 -0.5330  4.8156  0.9230
  100OSM   H18H10108  -0.038   3.394   8.524 -4.4135 -2.6469  0.1768
  101OSM      N10109   3.864   4.706  10.840 -0.2517 -0.6223 -0.3977
  101OSM    C1510110   3.972   4.795  10.814  0.1881  0.2641 -0.0178
  101OSM   H15A10111   3.932   4.888  10.777 -1.3794  0.3080  1.6528
  101OSM   H15B10112   4.040   4.747  10.745  0.4867 -3.3324  2.4658
  101OSM   H15C10113   4.033   4.812  10.901  0.4991  1.2854 -0.4181
  101OSM    C1410114   3.762   4.775  10.927 -0.3852  0.1848  0.6425
  101OSM   H14A10115   3.823   4.810  11.009  0.1019 -2.5243  1.5473
  101OSM   H14B10116   3.684   4.710  10.962 -0.8579  1.6726  2.5440
  101OSM   H14C10117   3.709   4.853  10.875  1.0164 -0.2987 -1.6838
  101OSM    C1310118   3.809   4.665  10.708 -0.3507  0.2247 -0.4120
  101OSM   H13A10119   3.743   4.581  10.717  1.7980 -1.5202 -0.0151
  101OSM   H13B10120   3.892   4.639  10.643 -0.0609  1.7824 -0.7264
  101OSM   H13C10121   3.766   4.755  10.666  0.6006  2.7586  3.5589
  101OSM    C1210122   3.911   4.581  10.915  0.2924  0.0353  0.1530
  101OSM   H12A10123   3.825   4.516  10.907  0.1935  0.2159 -0.2678
  101OSM   H12B10124   3.908   4.608  11.020 -2.7488  1.5768 -0.2320
  101OSM    C1110125   4.036   4.516  10.863 -0.1550  0.6909 -0.2806
  101OSM   H11A10126   4.056   4.436  10.937 -1.1020  0.8883  0.2017
  101OSM   H11B10127   4.119   4.590  10.871  0.6690 -0.1038 -1.1293
  101OSM      P10128   4.016   4.317  10.700 -0.1567  0.2332 -0.1946
  101OSM    O1310129   4.135   4.267  10.762 -0.1345  0.6210 -0.4300
  101OSM    O1410130   3.888   4.260  10.752  0.3009  0.1425 -0.2041
  101OSM    O1110131   4.024   4.294  10.545  0.2691 -0.3528  0.4764
  101OSM    O1210132   4.022   4.473  10.731  0.3818  0.4332 -0.2936
  101OSM    C1S10133   3.979   4.398  10.452  0.2470  0.5192  0.0397
  101OSM    H1S10134   4.041   4.491  10.447  1.7454 -0.4892 -1.1041
  101OSM    H1T10135   3.883   4.441  10.486 -0.3705  0.7036 -1.8587
  101OSM     NF10136   3.935   4.459  10.217  0.2703  0.6399  0.2424
  101OSM    HNF10137   3.840   4.460  10.187 -0.4571 -0.9532  2.2583
  101OSM    C2S10138   3.964   4.350  10.309 -0.4888 -0.2766  0.1530
  101OSM    H2S10139   4.057   4.300  10.276  0.3640  0.1137  1.8614
  101OSM    C3S10140   3.859   4.234  10.295  0.8171  0.3695  0.5482
  101OSM    H3S10141   3.758   4.266  10.330 -0.2012 -1.0305 -0.9926
  101OSM     O310142   3.883   4.127  10.386  0.1540  0.0755 -1.1959
  101OSM    HO310143   3.956   4.162  10.437 -1.6974  2.0690  0.2484
  101OSM    C4S10144   3.872   4.180  10.152 -0.3300  0.1431  0.5210
  101OSM    H4S10145   3.972   4.152  10.116 -0.6767  0.9179 -1.1738
  101OSM    C5S10146   3.775   4.155  10.065 -0.0655 -0.4661 -0.0123
  101OSM    H5S10147   3.679   4.202  10.091  0.7095  1.5157 -0.5234
  101OSM    C6S10148   3.777   4.092   9.928  0.3825  0.7234  0.1052
  101OSM    H6S10149   3.678   4.045   9.908  1.1424 -0.2698 -1.5357
  101OSM    H6T10150   3.862   4.021   9.923 -1.7066 -2.0533  1.3333
  101OSM    C7S10151   3.774   4.207   9.820  0.4396  0.0310  0.2318
  101OSM    H7S10152   3.861   4.276   9.828  1.2077 -0.9560  0.5202
  101OSM    H7T10153   3.683   4.269   9.838 -1.5007 -1.8170 -2.4418
  101OSM    C8S10154   3.756   4.146   9.679  0.9721 -0.2055  0.6011
  101OSM    H8S10155   3.674   4.072   9.690 -0.1325  0.9625  0.4836
  101OSM    H8T10156   3.854   4.098   9.659  2.6991  2.8550  1.1509
  101OSM    C9S10157   3.725   4.256   9.574  0.0654 -0.2850 -0.2103
  101OSM    H9S10158   3.821   4.310   9.565 -0.1132 -0.0821 -0.9717
  101OSM    H9T10159   3.644   4.327   9.601  1.0930  1.6022 -1.8659
  101OSM   C10S10160   3.680   4.204   9.433  0.0712  0.3357  0.1719
  101OSM   H10S10161   3.610   4.118   9.444  1.4271 -0.8782 -0.3043
  101OSM   H10T10162   3.777   4.161   9.398 -0.5690 -1.2200  0.2353
  101OSM   C11S10163   3.640   4.303   9.323  0.2262 -0.3499 -0.2472
  101OSM   H11S10164   3.709   4.390   9.320  0.2532 -0.3948 -2.2463
  101OSM   H11T10165   3.537   4.339   9.341 -0.3440 -1.3897 -1.3157
  101OSM   C12S10166   3.636   4.241   9.183  0.5408  0.1394  0.9862
  101OSM   H12S10167   3.584   4.318   9.122  1.6271 -1.3775 -2.0712
  101OSM   H12T10168   3.556   4.166   9.200 -0.9122  1.5433  0.5864
  101OSM   C13S10169   3.765   4.193   9.131  0.4788  0.0453 -0.4563
  101OSM   H13S10170   3.797   4.109   9.197 -2.2643 -2.0494 -1.6163
  101OSM   H13T10171   3.839   4.276   9.135 -2.3793  2.7915 -0.3035
  101OSM   C14S10172   3.764   4.125   9.000 -0.1667  0.4545  0.4894
  101OSM   H14S10173   3.730   4.200   8.926  0.7760  1.3744  0.9582
  101OSM   H14T10174   3.687   4.045   9.009 -1.3418  1.2886 -1.5195
  101OSM   C15S10175   3.904   4.072   8.962  0.5345 -0.0102  0.0903
  101OSM   H15S10176   3.974   4.151   8.997 -0.6225  1.5597 -1.0340
  101OSM   H15T10177   3.900   4.076   8.852  0.3878  0.6676  0.1154
  101OSM   C16S10178   3.935   3.930   9.008 -0.1663  0.0496  0.1528
  101OSM   H16S10179   3.844   3.866   9.006  1.5293 -2.5006  0.8365
  101OSM   H16T10180   3.981   3.933   9.109 -0.5022  1.2824  0.2868
  101OSM   C17S10181   4.030   3.858   8.910  0.0553  0.3851  0.9514
  101OSM   H17S10182   4.126   3.914   8.910 -0.3515  1.1241 -0.2916
  101OSM   H17T10183   3.989   3.854   8.807 -1.6182  0.8750  1.5595
  101OSM   C18S10184   4.060   3.716   8.967  0.0897  0.1021  0.0028
  101OSM   H18S10185   4.117   3.708   9.063 -1.5413  0.3918  1.0256
  101OSM   H18T10186   4.113   3.651   8.894 -0.8261 -1.5033  0.7181
  101OSM   H18U10187   3.970   3.655   8.986  0.6986 -0.6769  0.4257
  101OSM    C1F10188   4.021   4.555  10.185 -0.8671 -0.5399 -0.8772
  101OSM     OF10189   4.136   4.549  10.218 -0.2395  0.6086 -0.3973
  101OSM    C2F10190   3.975   4.676  10.105 -0.1331  0.0929  0.0184
  101OSM    H2F10191   4.003   4.765  10.167 -0.8193 -0.8112  1.7028
  101OSM    H2G10192   3.867   4.666  10.081  0.4021 -2.7993 -1.5391
  101OSM    C3F10193   4.045   4.696   9.970  0.5927 -0.0816  0.9031
  101OSM    H3F10194   4.154   4.700   9.990  0.9041  3.3781 -0.7667
  101OSM    H3G10195   4.017   4.798   9.938 -1.9832 -0.6707  1.0318
  101OSM    C4F10196   4.004   4.600   9.855 -0.4682 -0.1992  0.1673
  101OSM    H4F10197   3.894   4.588   9.864 -0.2724 -2.3628  0.1579
  101OSM    H4G10198   4.051   4.502   9.879  1.9459  0.7940 -0.2099
  101OSM    C5F10199   4.046   4.649   9.715 -0.2169  0.0146 -0.1383
  101OSM    H5F10200   4.156   4.666   9.709 -0.4524  2.4936  1.2147
  101OSM    H5G10201   4.009   4.749   9.683 -2.6156 -0.8313 -0.2100
  101OSM    C6F10202   4.010   4.553   9.599 -0.4883 -0.0951  0.1085
  101OSM    H6F10203   4.044   4.453   9.632  0.4203  0.3490  0.5623
  101OSM    H6G10204   3.900   4.554   9.587 -0.4300  0.4340 -0.4570
  101OSM    C7F10205   4.074   4.598   9.466 -0.5116  0.8267  0.1816
  101OSM    H7F10206   4.184   4.590   9.475 -0.6509  0.0448  1.4753
  101OSM    H7G10207   4.039   4.701   9.445 -0.2097  0.9871  0.4500
  101OSM    C8F10208   4.029   4.511   9.346  0.1049  0.3037  0.5464
  101OSM    H8F10209   4.078   4.527   9.248 -0.5578 -1.8855 -0.2001
  101OSM    H8G10210   3.921   4.536   9.336 -0.1279 -0.5711  0.7897
  101OSM    C9F10211   4.044   4.357   9.368  0.0459  0.6026 -0.4973
  101OSM    H9F10212   3.959   4.313   9.421 -2.6382  1.4499 -3.7557
  101OSM   C10F10213   4.140   4.279   9.312 -0.0251  1.0874 -0.5684
  101OSM   H10F10214   4.139   4.169   9.317  2.1248  1.0682  1.8958
  101OSM   C11F10215   4.248   4.330   9.224 -0.2447  0.2365  0.8079
  101OSM   H11F10216   4.296   4.419   9.271 -2.9686  1.1723  1.9976
  101OSM   H11G10217   4.208   4.367   9.127 -1.3901 -1.1247  0.7305
  101OSM   C12F10218   4.352   4.221   9.194 -0.0466 -0.6975 -0.4880
  101OSM   H12F10219   4.414   4.208   9.286 -0.1947  1.2125 -0.0687
  101OSM   H12G10220   4.424   4.274   9.128 -1.1071  0.8669 -0.4420
  101OSM   C13F10221   4.305   4.090   9.123  0.2612 -0.5803  0.2864
  101OSM   H13F10222   4.227   4.133   9.057  0.3316  0.1113  0.6498
  101OSM   H13G10223   4.251   4.034   9.203  0.1291 -1.1123 -0.1726
  101OSM   C14F10224   4.412   3.994   9.071  0.0203  0.4660  0.9733
  101OSM   H14F10225   4.383   3.889   9.088 -1.6274  1.0020  1.6677
  101OSM   H14G10226   4.507   4.011   9.127 -0.5310  2.3455  1.4349
  101OSM   C15F10227   4.424   4.008   8.922  0.1155  0.1366 -0.2653
  101OSM   H15F10228   4.470   4.101   8.885  1.0812 -1.6326 -3.9847
  101OSM   H15G10229   4.327   4.004   8.867  1.3749  0.6935 -2.6632
  101OSM   C16F10230   4.513   3.897   8.862 -0.1984  0.8654 -0.7030
  101OSM   H16F10231   4.464   3.798   8.877 -0.8149  1.2851  0.1587
  101OSM   H16G10232   4.612   3.890   8.911 -0.0486  1.7987 -0.8544
  101OSM   C17F10233   4.543   3.922   8.719  0.2352 -0.1157  0.5355
  101OSM   H17F10234   4.627   3.858   8.684  0.3110  0.4951 -0.4436
  101OSM   H17G10235   4.578   4.026   8.702  3.4059 -1.2225 -0.4694
  101OSM   C18F10236   4.425   3.883   8.622 -0.0357 -0.0330 -0.2404
  101OSM   H18F10237   4.457   3.891   8.516 -0.6677  1.1993 -0.3647
  101OSM   H18G10238   4.337   3.949   8.641 -0.5325 -1.2963  2.2966
  101OSM   H18H10239   4.388   3.779   8.628  1.0244 -0.7133 -3.4910
  102OSM      N10240   6.717   5.995  10.400 -0.6521 -0.2065  0.0133
  102OSM    C1510241   6.665   5.955  10.275  0.3027  0.3975  0.3497
  102OSM   H15A10242   6.735   5.909  10.207  0.2673 -0.6959  1.0245
  102OSM   H15B10243   6.642   6.043  10.218 -0.5143 -0.7423 -1.1604
  102OSM   H15C10244   6.585   5.884  10.287 -0.7175  1.4326 -0.2249
  102OSM    C1410245   6.731   5.875  10.489 -0.5274  0.0429  0.1179
  102OSM   H14A10246   6.760   5.910  10.587  1.7170  1.5972 -1.0050
  102OSM   H14B10247   6.811   5.810  10.457  1.5052  0.9997  2.9254
  102OSM   H14C10248   6.642   5.815  10.498  0.6935 -1.8340  0.1578
  102OSM    C1310249   6.843   6.078  10.384  0.2246  0.5231 -0.8491
  102OSM   H13A10250   6.929   6.015  10.368  1.5864  2.4225 -1.3709
  102OSM   H13B10251   6.866   6.128  10.477 -3.1386  1.4418 -0.3952
  102OSM   H13C10252   6.848   6.150  10.303 -0.4041  0.5572 -0.8614
  102OSM    C1210253   6.612   6.080  10.471  0.6986  0.2775  0.4651
  102OSM   H12A10254   6.519   6.027  10.459 -1.5531  3.5087  1.9684
  102OSM   H12B10255   6.590   6.168  10.413 -0.0068  1.3391  2.2578
  102OSM    C1110256   6.625   6.123  10.615 -0.1755 -0.1329  0.7256
  102OSM   H11A10257   6.661   6.039  10.679  2.7075  2.2989  2.5955
  102OSM   H11B10258   6.527   6.165  10.646 -0.9348 -0.9721 -0.4608
  102OSM      P10259   6.706   6.379  10.616 -0.4404  0.0744  0.5105
  102OSM    O1310260   6.643   6.439  10.735  0.1004  0.4578 -0.6448
  102OSM    O1410261   6.832   6.439  10.570  0.2503  0.0290 -0.2271
  102OSM    O1110262   6.603   6.377  10.501 -0.2405 -0.0575  0.0854
  102OSM    O1210263   6.726   6.221  10.631 -0.9585  0.7135  0.4922
  102OSM    C1S10264   6.624   6.425  10.368 -0.1140 -0.3347 -0.7276
  102OSM    H1S10265   6.717   6.384  10.322  1.2350  0.7771  0.9090
  102OSM    H1T10266   6.631   6.536  10.365  0.6871 -0.3575 -0.1117
  102OSM     NF10267   6.561   6.442  10.136 -0.0288 -0.3794 -0.0046
  102OSM    HNF10268   6.539   6.531  10.098  0.1410 -1.2787 -2.4193
  102OSM    C2S10269   6.503   6.402  10.262  0.0247 -0.7711  0.7850
  102OSM    H2S10270   6.476   6.295  10.247  2.6434 -1.3370 -0.6225
  102OSM    C3S10271   6.386   6.483  10.316 -0.3163 -0.2070 -0.2978
  102OSM    H3S10272   6.416   6.588  10.337  0.4142 -0.4760  0.0540
  102OSM     O310273   6.336   6.423  10.436  0.4991 -0.0385  0.5301
  102OSM    HO310274   6.405   6.362  10.464 -1.0879 -1.4534  1.5117
  102OSM    C4S10275   6.268   6.500  10.218 -0.7828  0.3634  0.4369
  102OSM    H4S10276   6.219   6.404  10.196  0.0737 -0.1587  0.7647
  102OSM    C5S10277   6.248   6.612  10.139 -0.3637  0.1023 -0.1534
  102OSM    H5S10278   6.310   6.703  10.142  1.2758 -0.9796 -0.0191
  102OSM    C6S10279   6.126   6.614  10.040 -0.4190 -0.8668  0.0255
  102OSM    H6S10280   6.054   6.694  10.068 -3.4329 -2.8208 -1.6098
  102OSM    H6T10281   6.065   6.522  10.052 -0.1364 -1.0863 -0.2039
  102OSM    C7S10282   6.176   6.621   9.896 -0.0516 -0.1155  0.0626
  102OSM    H7S10283   6.244   6.537   9.868 -1.8747 -2.8521  3.0783
  102OSM    H7T10284   6.230   6.716   9.882  0.8317 -0.9422 -3.0547
  102OSM    C8S10285   6.056   6.625   9.803  0.1597  0.4202 -0.0826
  102OSM    H8S10286   5.970   6.677   9.850  0.3929  0.9289 -0.2200
  102OSM    H8T10287   6.021   6.520   9.795  1.2718  0.0339 -0.1284
  102OSM    C9S10288   6.093   6.672   9.657 -1.6422  0.4082 -0.8988
  102OSM    H9S10289   6.168   6.599   9.620 -0.9072 -0.2200  1.6529
  102OSM    H9T10290   6.152   6.765   9.666 -0.3044 -0.5669  1.1219
  102OSM   C10S10291   5.979   6.670   9.551 -0.0445 -0.4298 -0.5279
  102OSM   H10S10292   5.893   6.723   9.597  0.1488 -0.3431 -0.2618
  102OSM   H10T10293   5.943   6.567   9.530  2.2676 -1.3260 -0.4232
  102OSM   C11S10294   6.020   6.733   9.415 -0.1907 -0.1044  0.3762
  102OSM   H11S10295   6.091   6.669   9.357 -1.4198  0.0857 -1.4201
  102OSM   H11T10296   6.053   6.835   9.441 -2.4938  0.9415 -0.5128
  102OSM   C12S10297   5.889   6.739   9.330 -0.5413  0.2152  0.5089
  102OSM   H12S10298   5.823   6.815   9.378 -2.8994 -2.4881  1.8499
  102OSM   H12T10299   5.830   6.645   9.328  0.2301 -0.2946 -2.2166
  102OSM   C13S10300   5.915   6.774   9.185 -0.4321 -0.8211  0.2094
  102OSM   H13S10301   5.971   6.687   9.144  0.8734  0.8108 -1.6187
  102OSM   H13T10302   5.985   6.860   9.181  0.8667 -1.5051  3.8733
  102OSM   C14S10303   5.783   6.823   9.124 -0.4565 -0.2525 -0.1723
  102OSM   H14S10304   5.766   6.927   9.158  2.0360  0.3186 -0.5141
  102OSM   H14T10305   5.697   6.760   9.156 -1.3408  0.1631 -1.6112
  102OSM   C15S10306   5.779   6.818   8.964 -0.2451 -0.0018 -1.0770
  102OSM   H15S10307   5.796   6.714   8.931 -0.7831 -0.3124 -0.3893
  102OSM   H15T10308   5.872   6.868   8.927 -0.0712 -0.3488 -1.1068
  102OSM   C16S10309   5.652   6.869   8.898  0.8599 -0.3163 -0.2049
  102OSM   H16S10310   5.617   6.970   8.927 -1.7498 -1.1532 -0.1728
  102OSM   H16T10311   5.569   6.812   8.946  0.2840  1.5583  1.1577
  102OSM   C17S10312   5.631   6.863   8.748 -0.1296  0.1582  0.2658
  102OSM   H17S10313   5.724   6.906   8.705 -0.0310 -1.1415 -0.9031
  102OSM   H17T10314   5.559   6.940   8.713  1.3978  2.1681  1.3259
  102OSM   C18S10315   5.612   6.723   8.674  0.1961 -0.4343 -0.3530
  102OSM   H18S10316   5.524   6.666   8.711  0.4588 -0.1285  0.7772
  102OSM   H18T10317   5.698   6.654   8.692 -0.6527 -1.5827 -0.5619
  102OSM   H18U10318   5.600   6.739   8.565  0.1239 -1.1247 -0.4540
  102OSM    C1F10319   6.645   6.363  10.060  0.1220  0.4616  0.1231
  102OSM     OF10320   6.639   6.235  10.075 -0.6823 -0.9606 -0.0106
  102OSM    C2F10321   6.725   6.421   9.959 -0.6038 -0.0186  0.6660
  102OSM    H2F10322   6.826   6.376   9.967 -2.0257 -3.4724  1.0423
  102OSM    H2G10323   6.730   6.530   9.978  2.1689 -0.2137  1.4504
  102OSM    C3F10324   6.662   6.397   9.817  0.0266 -0.6251 -0.2037
  102OSM    H3F10325   6.680   6.293   9.782  0.7488 -1.2673  1.8820
  102OSM    H3G10326   6.719   6.461   9.746 -0.6079  0.8855  0.5904
  102OSM    C4F10327   6.519   6.445   9.801 -0.4446  0.0827  0.8835
  102OSM    H4F10328   6.514   6.554   9.822  2.0116  0.2978  0.6939
  102OSM    H4G10329   6.453   6.395   9.875  1.5014 -0.5219  2.3043
  102OSM    C5F10330   6.459   6.414   9.664 -0.4606 -1.1138  0.3713
  102OSM    H5F10331   6.350   6.417   9.681 -0.4656 -0.6574  0.2547
  102OSM    H5G10332   6.486   6.316   9.618  1.5498 -0.8380  0.8829
  102OSM    C6F10333   6.501   6.516   9.556  0.5013  0.3005 -0.6913
  102OSM    H6F10334   6.610   6.520   9.535  0.6204  1.7053  0.0850
  102OSM    H6G10335   6.492   6.617   9.601  0.3732  0.1071 -0.2821
  102OSM    C7F10336   6.435   6.496   9.417 -0.9652 -0.1503 -0.4939
  102OSM    H7F10337   6.326   6.498   9.438 -1.6602  0.7237 -3.6406
  102OSM    H7G10338   6.449   6.391   9.385 -0.1337  0.1577 -1.1857
  102OSM    C8F10339   6.465   6.582   9.292  0.0842  0.0012  0.4743
  102OSM    H8F10340   6.412   6.530   9.210 -1.0511  0.7647  0.6953
  102OSM    H8G10341   6.575   6.582   9.274 -0.0047 -1.0534 -0.1558
  102OSM    C9F10342   6.419   6.722   9.319  0.1278  0.6780  0.1785
  102OSM    H9F10343   6.446   6.755   9.420  0.5334  0.4597  0.1409
  102OSM   C10F10344   6.346   6.803   9.243  0.8669  0.3217 -0.2455
  102OSM   H10F10345   6.321   6.904   9.279 -0.9115  0.7242 -2.4008
  102OSM   C11F10346   6.303   6.768   9.107 -0.0283 -0.0890  0.0078
  102OSM   H11F10347   6.200   6.728   9.120 -0.2725  0.3371 -0.5468
  102OSM   H11G10348   6.374   6.689   9.076 -0.0684 -1.1314  2.3523
  102OSM   C12F10349   6.302   6.870   8.999 -0.6217 -0.2448  0.3749
  102OSM   H12F10350   6.403   6.905   8.971 -1.6474  1.0064 -2.1888
  102OSM   H12G10351   6.251   6.963   9.032 -0.8385 -0.9935  2.2198
  102OSM   C13F10352   6.234   6.811   8.878 -0.8542 -0.0731  0.1840
  102OSM   H13F10353   6.131   6.776   8.903 -0.1554 -0.9821  1.9129
  102OSM   H13G10354   6.295   6.727   8.839 -0.6442  1.6139 -3.4899
  102OSM   C14F10355   6.220   6.919   8.769 -0.2003 -0.3384  0.0429
  102OSM   H14F10356   6.321   6.943   8.727 -0.4150 -0.9821 -0.8562
  102OSM   H14G10357   6.177   7.009   8.818  0.6374 -0.9157  1.9344
  102OSM   C15F10358   6.124   6.873   8.654  0.5424 -0.1178 -0.4321
  102OSM   H15F10359   6.025   6.840   8.691 -0.0128  0.7981 -1.0602
  102OSM   H15G10360   6.165   6.780   8.610  2.5910  0.5153  0.0114
  102OSM   C16F10361   6.109   6.981   8.553 -0.0420 -1.0851 -0.1909
  102OSM   H16F10362   6.107   7.080   8.603 -0.2472 -1.6438  0.9295
  102OSM   H16G10363   6.013   6.975   8.498 -0.6118  2.1259  0.2774
  102OSM   C17F10364   6.220   6.983   8.451 -0.7040  0.7385  0.5781
  102OSM   H17F10365   6.211   6.882   8.406  1.3838  1.2006 -0.9916
  102OSM   H17G10366   6.322   6.980   8.496  0.1707  0.6289 -1.3411
  102OSM   C18F10367   6.223   7.087   8.334  0.3154 -0.0936  0.1756
  102OSM   H18F10368   6.124   7.092   8.283  0.5907 -1.0961 -0.4698
  102OSM   H18G10369   6.306   7.067   8.263  1.5229 -1.0632  1.7944
  102OSM   H18H10370   6.239   7.188   8.377 -0.1751  0.9864 -2.0019
  103OSM      N10371   4.537   2.639  11.195 -0.2281  0.6174 -0.4145
  103OSM    C1510372   4.687   2.660  11.168  0.3333 -0.0781  0.0037
  103OSM   H15A10373   4.749   2.581  11.207  0.7644 -0.9422 -2.2322
  103OSM   H15B10374   4.716   2.746  11.227 -3.1578  1.7085 -0.6197
  103OSM   H15C10375   4.697   2.696  11.066  0.1662 -1.2423 -0.4409
  103OSM    C1410376   4.519   2.584  11.331  0.3630  0.0031  0.5006
  103OSM   H14A10377   4.573   2.492  11.347  2.9183  1.1845 -0.6755
  103OSM   H14B10378   4.415   2.576  11.357  0.9012  0.4549  2.9662
  103OSM   H14C10379   4.564   2.651  11.402  1.7185 -0.9418  0.5771
  103OSM    C1310380   4.477   2.773  11.187 -0.7465 -0.0136  0.6025
  103OSM   H13A10381   4.370   2.769  11.167 -0.1291  0.1040 -3.9273
  103OSM   H13B10382   4.513   2.828  11.102  0.2231  0.0171  1.0267
  103OSM   H13C10383   4.500   2.836  11.271  2.2007  0.9474 -0.8231
  103OSM    C1210384   4.470   2.544  11.093 -0.3392 -0.2718 -0.0104
  103OSM   H12A10385   4.366   2.543  11.119 -0.0560  2.3773  1.6656
  103OSM   H12B10386   4.515   2.447  11.104  0.7543 -0.1523 -2.7964
  103OSM    C1110387   4.486   2.584  10.943  0.0127 -0.1444 -0.0479
  103OSM   H11A10388   4.451   2.689  10.935 -0.2219 -0.3623 -2.9232
  103OSM   H11B10389   4.417   2.528  10.876 -1.3637  0.3021  0.9523
  103OSM      P10390   4.686   2.430  10.869 -0.0759 -0.2281  0.2044
  103OSM    O1310391   4.826   2.453  10.832 -0.4378  0.2992  0.1843
  103OSM    O1410392   4.655   2.331  10.974  0.3156  0.5854  0.3718
  103OSM    O1110393   4.621   2.369  10.742  0.1915  0.1662  0.1031
  103OSM    O1210394   4.623   2.579  10.893  0.0915  0.6450  0.1388
  103OSM    C1S10395   4.595   2.457  10.634  0.0126 -0.3871 -0.0827
  103OSM    H1S10396   4.678   2.522  10.599  0.4095 -1.5174 -1.3299
  103OSM    H1T10397   4.504   2.516  10.660 -0.9325 -1.9800  0.3509
  103OSM     NF10398   4.516   2.489  10.405 -0.2862 -0.2907 -0.1017
  103OSM    HNF10399   4.419   2.505  10.392 -0.2628 -1.7064 -2.5259
  103OSM    C2S10400   4.552   2.386  10.502  0.0020  0.1029  0.1612
  103OSM    H2S10401   4.644   2.340  10.460  0.6574  1.6472 -0.1732
  103OSM    C3S10402   4.440   2.279  10.522 -0.1144  0.1497 -0.4624
  103OSM    H3S10403   4.352   2.331  10.565  0.5948 -0.1842  1.4987
  103OSM     O310404   4.482   2.173  10.617  0.6151 -0.4811  0.0285
  103OSM    HO310405   4.522   2.224  10.689  0.5600 -0.6915  0.2091
  103OSM    C4S10406   4.402   2.216  10.392  0.1156 -0.3055 -0.6633
  103OSM    H4S10407   4.482   2.161  10.342 -0.4971 -2.0818  0.2225
  103OSM    C5S10408   4.286   2.233  10.321 -0.0543  0.1385 -0.0422
  103OSM    H5S10409   4.206   2.302  10.350 -1.6122 -1.3623 -0.5703
  103OSM    C6S10410   4.279   2.168  10.189  0.0041 -0.1907 -1.0070
  103OSM    H6S10411   4.174   2.135  10.199 -0.6647  1.8343 -0.9802
  103OSM    H6T10412   4.341   2.078  10.170 -0.6136 -1.2691  1.6698
  103OSM    C7S10413   4.281   2.259  10.065 -0.7505 -0.0614  0.3236
  103OSM    H7S10414   4.381   2.297  10.037 -0.4087 -2.5613 -2.2363
  103OSM    H7T10415   4.210   2.344  10.076 -1.1302 -0.3252 -0.1194
  103OSM    C8S10416   4.215   2.188   9.944  0.5636 -0.1102  0.4135
  103OSM    H8S10417   4.128   2.133   9.985  0.6990  0.7731  1.9969
  103OSM    H8T10418   4.294   2.114   9.919 -0.6812 -2.4729  2.8791
  103OSM    C9S10419   4.172   2.278   9.831  0.3618  0.1337  0.1032
  103OSM    H9S10420   4.251   2.354   9.813 -0.5453  1.1409  0.2260
  103OSM    H9T10421   4.084   2.339   9.861 -1.6372 -1.2486 -2.5345
  103OSM   C10S10422   4.158   2.204   9.700 -1.1110  0.0367  0.3371
  103OSM   H10S10423   4.076   2.131   9.714 -0.0069 -0.9222  2.2050
  103OSM   H10T10424   4.256   2.160   9.672 -0.2121  3.3821 -2.3881
  103OSM   C11S10425   4.112   2.302   9.587  0.6315 -0.3735  0.1870
  103OSM   H11S10426   4.188   2.383   9.581  1.6088 -1.1598  1.4898
  103OSM   H11T10427   4.016   2.353   9.609  1.2358  0.7988  0.1793
  103OSM   C12S10428   4.109   2.231   9.451  0.2715 -0.0284 -0.2063
  103OSM   H12S10429   4.028   2.155   9.438 -1.1992  1.5224 -0.4269
  103OSM   H12T10430   4.207   2.179   9.439  0.3178 -0.4346  1.6442
  103OSM   C13S10431   4.084   2.348   9.340 -0.3150 -0.3944  0.8569
  103OSM   H13S10432   4.144   2.440   9.355 -0.7363 -0.0919  0.6966
  103OSM   H13T10433   3.979   2.380   9.360  0.1609  1.3454  0.7048
  103OSM   C14S10434   4.098   2.318   9.184 -0.0206 -0.3319 -0.7200
  103OSM   H14S10435   4.205   2.295   9.169 -0.0530  0.2328 -1.9094
  103OSM   H14T10436   4.087   2.413   9.127 -0.3259 -0.2577 -0.5399
  103OSM   C15S10437   4.010   2.196   9.144 -0.2014  0.0750 -0.0448
  103OSM   H15S10438   3.902   2.215   9.156 -0.6806 -1.2631 -1.7987
  103OSM   H15T10439   4.028   2.112   9.215  0.8618 -0.4402 -0.8851
  103OSM   C16S10440   4.033   2.161   9.002  0.2760 -0.4907  0.5106
  103OSM   H16S10441   4.127   2.102   8.996 -0.2838 -1.8086  3.3706
  103OSM   H16T10442   4.050   2.247   8.933  1.7360 -1.4398 -0.3496
  103OSM   C17S10443   3.917   2.091   8.941  0.4524  0.1697 -0.4329
  103OSM   H17S10444   3.826   2.154   8.942 -0.9870 -1.8217 -0.0060
  103OSM   H17T10445   3.901   2.003   9.008 -1.5043  0.3478 -0.6282
  103OSM   C18S10446   3.952   2.042   8.803  0.0444 -0.2965  0.4679
  103OSM   H18S10447   3.959   2.125   8.730 -1.2574  0.7968  1.5198
  103OSM   H18T10448   3.875   1.967   8.774 -1.3654  0.6806  1.5492
  103OSM   H18U10449   4.055   2.000   8.808 -0.7495 -2.5292 -0.5987
  103OSM    C1F10450   4.595   2.583  10.351 -0.0919 -0.1880  0.1157
  103OSM     OF10451   4.711   2.598  10.392  0.0171 -0.0876 -0.0092
  103OSM    C2F10452   4.534   2.672  10.247  0.2938  0.2230  0.2937
  103OSM    H2F10453   4.474   2.749  10.301 -0.1131 -0.0012  0.1611
  103OSM    H2G10454   4.469   2.608  10.184 -0.1696  0.3553  0.6295
  103OSM    C3F10455   4.643   2.741  10.168  0.3215  0.7832 -0.8794
  103OSM    H3F10456   4.717   2.662  10.143  1.7405  0.4785  3.5345
  103OSM    H3G10457   4.691   2.817  10.233 -0.6336 -0.0032  0.8134
  103OSM    C4F10458   4.606   2.801  10.033  0.1677 -0.0374 -0.4629
  103OSM    H4F10459   4.698   2.835   9.981  1.9184 -0.6555  2.0262
  103OSM    H4G10460   4.539   2.885  10.060  0.1452  0.1119 -0.9770
  103OSM    C5F10461   4.532   2.703   9.937  0.0663 -0.4857  0.2645
  103OSM    H5F10462   4.446   2.652   9.986  0.4242 -0.6239  0.7543
  103OSM    H5G10463   4.602   2.621   9.908 -1.6740 -2.4495  1.3185
  103OSM    C6F10464   4.497   2.782   9.812 -0.2370 -0.1700 -0.2014
  103OSM    H6F10465   4.589   2.818   9.761 -0.3319  0.7240  0.2234
  103OSM    H6G10466   4.431   2.862   9.853 -1.2134  0.3939 -2.6902
  103OSM    C7F10467   4.417   2.707   9.704  0.2540  0.0530  0.6490
  103OSM    H7F10468   4.393   2.786   9.629  1.5372  0.9456  1.1344
  103OSM    H7G10469   4.319   2.669   9.737 -0.2579 -0.0571 -0.9297
  103OSM    C8F10470   4.496   2.582   9.650  0.3900  0.1075  0.7849
  103OSM    H8F10471   4.503   2.509   9.733  0.1905 -0.5812  0.2091
  103OSM    H8G10472   4.596   2.629   9.637  0.9217 -0.5658  2.2758
  103OSM    C9F10473   4.456   2.515   9.525  0.4935 -0.5188 -0.3838
  103OSM    H9F10474   4.422   2.412   9.542  1.8057 -0.7881  0.8496
  103OSM   C10F10475   4.455   2.569   9.395 -0.5717  0.6950 -0.1286
  103OSM   H10F10476   4.422   2.500   9.316 -2.0474  1.5360 -0.2805
  103OSM   C11F10477   4.493   2.705   9.343 -0.1735  0.6437 -0.0877
  103OSM   H11F10478   4.569   2.694   9.263 -1.2091 -0.2974 -0.9967
  103OSM   H11G10479   4.536   2.761   9.429 -1.0745  0.4624  0.5043
  103OSM   C12F10480   4.375   2.781   9.277 -0.4281 -0.0624 -0.8058
  103OSM   H12F10481   4.404   2.887   9.264 -1.6707  0.2322 -1.3031
  103OSM   H12G10482   4.293   2.789   9.351  0.4468 -0.1820  0.2084
  103OSM   C13F10483   4.321   2.728   9.146 -0.2879  0.2914 -0.4958
  103OSM   H13F10484   4.279   2.629   9.174 -0.6684  1.3876  3.4218
  103OSM   H13G10485   4.403   2.723   9.071 -1.5756  2.8762 -2.2027
  103OSM   C14F10486   4.212   2.825   9.099  0.5858  0.5934  1.0043
  103OSM   H14F10487   4.262   2.915   9.059 -2.0120  0.9122 -1.8624
  103OSM   H14G10488   4.133   2.839   9.176 -4.2340 -3.5174 -2.5143
  103OSM   C15F10489   4.153   2.769   8.974  0.1901  1.0411 -0.1338
  103OSM   H15F10490   4.103   2.672   8.992 -0.7241  1.1901 -1.6918
  103OSM   H15G10491   4.235   2.750   8.902  1.1821  0.6382  1.0781
  103OSM   C16F10492   4.055   2.862   8.910  0.2501  0.3030  0.7865
  103OSM   H16F10493   4.105   2.938   8.846 -0.5508  0.9009  0.8579
  103OSM   H16G10494   4.007   2.919   8.992  1.3108  0.9037  1.0072
  103OSM   C17F10495   3.950   2.797   8.816 -0.5827  0.2813 -0.1405
  103OSM   H17F10496   3.899   2.880   8.762 -0.3683  0.4604 -0.0693
  103OSM   H17G10497   3.867   2.745   8.868  1.1695 -1.8566  0.6918
  103OSM   C18F10498   4.006   2.712   8.703  0.1329  0.1381 -0.3000
  103OSM   H18F10499   3.927   2.680   8.631 -2.5970  2.2613  1.5806
  103OSM   H18G10500   4.061   2.621   8.737  1.6099  0.9197 -0.5176
  103OSM   H18H10501   4.074   2.771   8.637  0.7355 -1.9465 -1.6809
  104OSM      N10502   0.250   1.228  10.985  0.8755 -0.4521 -0.0924
  104OSM    C1510503   0.265   1.093  11.046  0.0165 -0.9019  0.8687
  104OSM   H15A10504   0.369   1.066  11.036  0.6727  1.6183  0.1949
  104OSM   H15B10505   0.197   1.018  11.009  0.0981 -1.2393  1.3923
  104OSM   H15C10506   0.241   1.098  11.152  0.8366 -1.0026  1.0691
  104OSM    C1410507   0.108   1.263  11.011  0.6877 -0.9959 -0.5565
  104OSM   H14A10508   0.044   1.199  10.952 -0.2692 -0.0904 -0.5241
  104OSM   H14B10509   0.098   1.368  10.989 -2.2189 -1.1540 -0.3402
  104OSM   H14C10510   0.086   1.234  11.113 -0.2447  1.8871  0.1452
  104OSM    C1310511   0.330   1.338  11.051  0.0278 -0.4320 -0.0869
  104OSM   H13A10512   0.297   1.352  11.153 -1.4307 -1.5249 -0.3656
  104OSM   H13B10513   0.316   1.434  11.005  1.5238  1.0051  2.2787
  104OSM   H13C10514   0.436   1.319  11.051  1.1049  4.0684 -2.7458
  104OSM    C1210515   0.272   1.230  10.836 -0.2923  0.1617 -0.4294
  104OSM   H12A10516   0.230   1.137  10.802  0.2058 -1.1629  2.3230
  104OSM   H12B10517   0.377   1.225  10.811  0.1057  0.6753  0.9854
  104OSM    C1110518   0.217   1.346  10.755  0.5190  0.8195  0.4268
  104OSM   H11A10519   0.107   1.353  10.770  0.3748  0.2016 -0.2505
  104OSM   H11B10520   0.223   1.318  10.647 -0.5237  2.0237  0.0273
  104OSM      P10521   0.370   1.547  10.676 -0.1047 -0.4721 -0.0021
  104OSM    O1310522   0.363   1.695  10.703  0.7841  0.1084 -0.2985
  104OSM    O1410523   0.500   1.480  10.670 -0.3132 -0.5184 -0.3682
  104OSM    O1110524   0.298   1.517  10.534  0.3120 -0.1121 -0.5057
  104OSM    O1210525   0.278   1.473  10.777  0.8235  0.5863 -0.5187
  104OSM    C1S10526   0.303   1.610  10.428 -1.0140 -0.3672 -0.2829
  104OSM    H1S10527   0.391   1.678  10.428 -0.7537 -0.6326 -2.1378
  104OSM    H1T10528   0.211   1.672  10.436 -1.1970 -0.5832 -0.6956
  104OSM     NF10529   0.323   1.621  10.179 -0.1459  0.2962  0.0949
  104OSM    HNF10530   0.250   1.672  10.134  0.8388  1.5961 -0.1130
  104OSM    C2S10531   0.284   1.532  10.297 -0.0222 -0.2845  0.5210
  104OSM    H2S10532   0.353   1.446  10.308  0.0894 -0.5794 -1.8983
  104OSM    C3S10533   0.139   1.472  10.289 -0.3354 -0.1347  0.3370
  104OSM    H3S10534   0.071   1.559  10.297 -0.8617 -0.4467 -0.6129
  104OSM     O310535   0.103   1.376  10.386  0.1359  0.2071  0.1549
  104OSM    HO310536   0.146   1.399  10.468 -0.2795  0.3315  0.3381
  104OSM    C4S10537   0.121   1.418  10.150  0.2057 -0.3319 -0.1897
  104OSM    H4S10538   0.074   1.493  10.084  1.3345  0.0659 -0.5579
  104OSM    C5S10539   0.142   1.303  10.095 -0.0837  0.1468  1.0027
  104OSM    H5S10540   0.172   1.226  10.168  0.0343 -0.3007  0.4915
  104OSM    C6S10541   0.115   1.269   9.948  0.0505  0.0769 -0.2214
  104OSM    H6S10542   0.014   1.222   9.949  0.4952 -0.9205 -0.8041
  104OSM    H6T10543   0.196   1.200   9.918  0.3290  1.4742 -2.9901
  104OSM    C7S10544   0.119   1.390   9.858 -0.1282 -0.7543 -0.0885
  104OSM    H7S10545   0.220   1.437   9.857 -0.2419 -0.4395  1.6101
  104OSM    H7T10546   0.061   1.478   9.895  3.0899  1.5449 -0.1268
  104OSM    C8S10547   0.087   1.364   9.716  0.4128  0.8730  0.5180
  104OSM    H8S10548   0.049   1.459   9.673 -3.4272 -0.6133  0.1724
  104OSM    H8T10549   0.008   1.285   9.710  1.1924  0.0245  1.2220
  104OSM    C9S10550   0.201   1.331   9.626  0.4154 -0.0940  0.1457
  104OSM    H9S10551   0.239   1.227   9.629  2.4633  0.5873 -0.4635
  104OSM    H9T10552   0.289   1.397   9.643  1.4160 -1.4277  0.2923
  104OSM   C10S10553   0.156   1.331   9.480  0.2295 -0.1337  0.0757
  104OSM   H10S10554   0.057   1.282   9.473  0.0464  0.3737 -1.0869
  104OSM   H10T10555   0.224   1.267   9.419 -0.4019  0.3223 -1.1263
  104OSM   C11S10556   0.153   1.469   9.418  0.4435 -0.4859 -0.1883
  104OSM   H11S10557   0.260   1.500   9.414 -0.2367  1.9612 -2.3079
  104OSM   H11T10558   0.106   1.535   9.493  3.2981  0.2133  1.1248
  104OSM   C12S10559   0.094   1.476   9.279 -0.5187  0.0696 -0.9999
  104OSM   H12S10560   0.105   1.578   9.236  1.2687 -0.0681 -0.9199
  104OSM   H12T10561  -0.016   1.463   9.291 -0.5385  0.4372 -0.7633
  104OSM   C13S10562   0.154   1.380   9.181 -0.9659  0.2616 -0.3017
  104OSM   H13S10563   0.162   1.282   9.232  1.3493 -0.6279 -2.1876
  104OSM   H13T10564   0.262   1.396   9.160 -0.6507 -2.6507 -1.2640
  104OSM   C14S10565   0.072   1.357   9.052 -0.3827 -0.3306 -0.3869
  104OSM   H14S10566   0.058   1.453   8.998 -0.1713  0.5718  1.1215
  104OSM   H14T10567  -0.029   1.314   9.067 -0.6413 -0.1449 -1.4981
  104OSM   C15S10568   0.153   1.272   8.953  1.0086 -0.4096 -0.1848
  104OSM   H15S10569   0.182   1.175   8.999 -2.6896 -1.3410  0.4805
  104OSM   H15T10570   0.246   1.318   8.913  0.6324 -0.5219 -1.1918
  104OSM   C16S10571   0.068   1.223   8.831  0.2138  0.5150 -0.3218
  104OSM   H16S10572  -0.033   1.197   8.869  0.8575 -2.0637 -0.1802
  104OSM   H16T10573   0.123   1.133   8.796 -0.0961  0.2088 -0.0168
  104OSM   C17S10574   0.071   1.313   8.710  0.5356  0.1752 -0.5615
  104OSM   H17S10575   0.149   1.269   8.645  0.8720 -1.5049  0.8683
  104OSM   H17T10576   0.090   1.416   8.746 -3.2780  0.0876  2.4128
  104OSM   C18S10577  -0.059   1.318   8.631 -0.1560 -0.2792  0.3968
  104OSM   H18S10578  -0.143   1.360   8.691 -0.0114 -0.6672  0.8816
  104OSM   H18T10579  -0.094   1.223   8.586 -3.3705  1.5526 -1.3748
  104OSM   H18U10580  -0.053   1.396   8.552 -0.9149  2.1052  2.5689
  104OSM    C1F10581   0.452   1.657  10.159 -0.1449  0.5631 -0.6747
  104OSM     OF10582   0.538   1.625  10.241 -0.1935  0.5209 -0.0032
  104OSM    C2F10583   0.466   1.755  10.054 -0.3154  0.4562  0.0528
  104OSM    H2F10584   0.443   1.856  10.096 -1.5697  0.3202 -0.2410
  104OSM    H2G10585   0.389   1.735   9.976  0.0766  1.0232 -0.4882
  104OSM    C3F10586   0.609   1.752  10.001 -0.0349  0.9742  0.6690
  104OSM    H3F10587   0.647   1.647   9.992  0.7714  1.2010  1.3516
  104OSM    H3G10588   0.679   1.798  10.074  0.4509 -0.0626  0.8817
  104OSM    C4F10589   0.622   1.826   9.865 -0.1042  0.1708  0.2826
  104OSM    H4F10590   0.728   1.852   9.848 -0.4950  0.6730 -1.6432
  104OSM    H4G10591   0.569   1.923   9.851 -0.7037 -0.3649 -1.4634
  104OSM    C5F10592   0.583   1.734   9.750 -0.0610 -0.1677 -0.0346
  104OSM    H5F10593   0.480   1.698   9.769 -1.1388  0.7768 -3.3316
  104OSM    H5G10594   0.642   1.641   9.764  1.8653  0.8969 -0.6636
  104OSM    C6F10595   0.589   1.786   9.610 -0.2676  0.4166 -0.0588
  104OSM    H6F10596   0.691   1.821   9.581 -0.6665  2.2615  0.6415
  104OSM    H6G10597   0.523   1.875   9.601  0.7856  1.4777  1.8446
  104OSM    C7F10598   0.551   1.676   9.506  0.4532  0.4511  0.4097
  104OSM    H7F10599   0.467   1.611   9.540 -1.5358  2.1289 -1.0391
  104OSM    H7G10600   0.640   1.615   9.479  0.4938  0.0870  1.3292
  104OSM    C8F10601   0.507   1.749   9.378  0.4052 -0.8137 -0.5930
  104OSM    H8F10602   0.592   1.804   9.331  0.4717 -0.2382  0.1871
  104OSM    H8G10603   0.443   1.833   9.413  1.0062 -0.7339  0.3395
  104OSM    C9F10604   0.418   1.692   9.268 -0.4251  0.5590 -0.3497
  104OSM    H9F10605   0.332   1.638   9.310 -0.4343  0.6225 -0.2875
  104OSM   C10F10606   0.442   1.687   9.134  0.5498 -0.2660 -0.2047
  104OSM   H10F10607   0.374   1.629   9.071  2.5176 -0.7673 -2.0088
  104OSM   C11F10608   0.549   1.748   9.047  0.1429  0.0502  0.3652
  104OSM   H11F10609   0.620   1.807   9.109 -0.8130  0.6914  0.8735
  104OSM   H11G10610   0.509   1.820   8.972  0.4491 -0.8259 -0.6712
  104OSM   C12F10611   0.626   1.648   8.956 -0.0469  0.1363  0.3638
  104OSM   H12F10612   0.575   1.565   8.902 -1.0860  0.4126  0.8912
  104OSM   H12G10613   0.680   1.582   9.027 -3.6445 -3.6442 -0.0329
  104OSM   C13F10614   0.710   1.722   8.854 -0.0398  0.1489 -0.3024
  104OSM   H13F10615   0.790   1.779   8.907 -1.6046  1.9287  0.2344
  104OSM   H13G10616   0.632   1.788   8.812 -0.8826 -0.9860 -0.5702
  104OSM   C14F10617   0.789   1.638   8.747  0.0845  0.0004  0.1605
  104OSM   H14F10618   0.825   1.715   8.676 -2.7259  1.3047  0.0267
  104OSM   H14G10619   0.716   1.573   8.694 -0.4525  1.6291 -1.1803
  104OSM   C15F10620   0.903   1.557   8.810  0.4751  0.7931 -0.4371
  104OSM   H15F10621   0.861   1.497   8.894  0.4142  0.0872 -0.9673
  104OSM   H15G10622   0.994   1.618   8.830  0.3335  1.0216 -0.4789
  104OSM   C16F10623   0.942   1.447   8.707 -0.0689 -0.2325  0.2467
  104OSM   H16F10624   0.955   1.503   8.612  0.8603 -0.8408 -0.0064
  104OSM   H16G10625   0.867   1.370   8.682 -0.4784  0.7179 -1.6316
  104OSM   C17F10626   1.069   1.358   8.743 -0.0252  0.1585 -0.5267
  104OSM   H17F10627   1.097   1.285   8.665  0.9956  1.2153 -1.1828
  104OSM   H17G10628   1.042   1.299   8.834  3.4599 -0.5678  0.1543
  104OSM   C18F10629   1.196   1.439   8.781  0.1009 -0.1329  0.7927
  104OSM   H18F10630   1.192   1.481   8.883 -0.5768  0.6221  0.4606
  104OSM   H18G10631   1.215   1.517   8.704  2.0861  0.6017  1.9616
  104OSM   H18H10632   1.281   1.367   8.772  2.1121  2.1142  0.7477
  105OSM      N10633   2.557   3.701  11.086  0.3547 -0.1088 -0.0673
  105OSM    C1510634   2.432   3.621  11.102  0.5558 -0.0610 -0.3592
  105OSM   H15A10635   2.461   3.528  11.150  1.9486  0.3484 -0.3911
  105OSM   H15B10636   2.383   3.608  11.006  1.2255  0.8190 -0.8350
  105OSM   H15C10637   2.364   3.674  11.167  0.8532 -1.7531  1.4271
  105OSM    C1410638   2.589   3.745  11.227 -0.5669  0.1955 -0.2072
  105OSM   H14A10639   2.616   3.657  11.284 -1.0269 -0.2569 -0.6855
  105OSM   H14B10640   2.503   3.797  11.265 -0.3549  0.4254 -0.0366
  105OSM   H14C10641   2.674   3.812  11.230 -0.8193  0.5260  2.8311
  105OSM    C1310642   2.659   3.613  11.038 -0.5895  0.6461 -0.2606
  105OSM   H13A10643   2.649   3.513  11.078 -1.4307 -0.0086 -2.0012
  105OSM   H13B10644   2.760   3.642  11.060 -0.2937 -0.6266  0.1502
  105OSM   H13C10645   2.641   3.585  10.935  1.3394 -0.9133 -0.2370
  105OSM    C1210646   2.536   3.830  11.002 -0.1258 -0.9305  0.6819
  105OSM   H12A10647   2.631   3.882  10.993 -1.4129  1.2057 -1.8002
  105OSM   H12B10648   2.489   3.910  11.058 -0.3411 -0.5257 -0.0725
  105OSM    C1110649   2.482   3.832  10.852  0.1658 -0.2626  0.2606
  105OSM   H11A10650   2.515   3.927  10.805 -1.2531 -0.4217 -1.1336
  105OSM   H11B10651   2.372   3.829  10.863  0.1053 -1.1596 -0.4644
  105OSM      P10652   2.440   3.640  10.667 -0.0768  0.2682  0.5118
  105OSM    O1310653   2.530   3.582  10.567 -0.2224 -0.2946  0.4893
  105OSM    O1410654   2.344   3.552  10.728 -0.3806 -0.3145  0.3751
  105OSM    O1110655   2.357   3.760  10.609 -0.4428 -0.3394 -0.1795
  105OSM    O1210656   2.530   3.720  10.771 -0.0176  0.5707 -1.0441
  105OSM    C1S10657   2.408   3.880  10.544 -0.5312 -0.2589 -0.3365
  105OSM    H1S10658   2.511   3.898  10.582 -0.5897 -0.7760  0.0782
  105OSM    H1T10659   2.349   3.972  10.567  1.3226  0.8810  0.0880
  105OSM     NF10660   2.491   4.001  10.345  0.3001  0.0046  0.2647
  105OSM    HNF10661   2.440   4.061  10.284 -0.0621 -0.2512  0.3160
  105OSM    C2S10662   2.426   3.877  10.388 -0.3692  0.0264  0.1460
  105OSM    H2S10663   2.494   3.794  10.359  0.0735  0.4059  0.0999
  105OSM    C3S10664   2.287   3.844  10.316 -0.7747  0.0653  0.1997
  105OSM    H3S10665   2.222   3.933  10.327 -1.2171 -0.2566  0.2262
  105OSM     O310666   2.215   3.736  10.376  0.4504 -0.5041 -0.3684
  105OSM    HO310667   2.264   3.728  10.458 -0.2152  1.3276  0.2454
  105OSM    C4S10668   2.319   3.812  10.172  0.5678 -0.2774  0.3422
  105OSM    H4S10669   2.281   3.878  10.092 -0.6525 -0.3061  0.8872
  105OSM    C5S10670   2.385   3.700  10.130  0.1994 -0.3280 -0.9646
  105OSM    H5S10671   2.412   3.618  10.197 -0.1091 -2.6602 -3.5199
  105OSM    C6S10672   2.421   3.668   9.983 -0.4141 -0.3701 -0.2687
  105OSM    H6S10673   2.413   3.557   9.984 -1.1473 -0.3246  0.0952
  105OSM    H6T10674   2.529   3.690   9.974 -0.3800  0.3689  1.4157
  105OSM    C7S10675   2.338   3.723   9.871  0.4767  0.3616 -0.1694
  105OSM    H7S10676   2.319   3.828   9.901  1.5090  0.6408 -0.4498
  105OSM    H7T10677   2.246   3.660   9.873  0.7041  0.0334  1.6221
  105OSM    C8S10678   2.398   3.743   9.731 -0.8622 -0.8131 -0.0171
  105OSM    H8S10679   2.508   3.741   9.746 -1.0714  0.5266  2.2400
  105OSM    H8T10680   2.368   3.846   9.701  0.1703 -0.7517 -0.8563
  105OSM    C9S10681   2.353   3.651   9.622  0.0559 -0.2274  0.1140
  105OSM    H9S10682   2.256   3.600   9.637  0.0319 -0.9248 -2.1390
  105OSM    H9T10683   2.427   3.568   9.616 -0.2761 -0.5658  0.6530
  105OSM   C10S10684   2.358   3.715   9.488  0.2481  0.3875  0.1079
  105OSM   H10S10685   2.460   3.760   9.479 -0.0454  1.6759  2.4697
  105OSM   H10T10686   2.286   3.799   9.482 -0.9729 -0.6517 -0.2169
  105OSM   C11S10687   2.349   3.622   9.361  0.1586  0.4764 -0.5197
  105OSM   H11S10688   2.242   3.591   9.356  0.4532 -1.0122  1.2371
  105OSM   H11T10689   2.412   3.534   9.386 -0.8439  0.4706  2.4324
  105OSM   C12S10690   2.407   3.682   9.238  0.3378  0.1982  0.1723
  105OSM   H12S10691   2.500   3.638   9.195 -0.8103  1.1828 -3.7871
  105OSM   H12T10692   2.424   3.790   9.260  0.3557 -0.2098  2.3442
  105OSM   C13S10693   2.306   3.680   9.121 -0.0749  1.3425  1.0068
  105OSM   H13S10694   2.360   3.716   9.031 -0.4605  0.5900  0.4597
  105OSM   H13T10695   2.221   3.750   9.137 -0.8512  0.6925 -0.0626
  105OSM   C14S10696   2.256   3.532   9.085 -0.3704  0.1006  0.3900
  105OSM   H14S10697   2.209   3.477   9.169  4.0886 -2.6024  1.4839
  105OSM   H14T10698   2.346   3.467   9.073 -0.3530  0.0129  0.9656
  105OSM   C15S10699   2.172   3.511   8.965 -1.3103 -0.0729  1.3248
  105OSM   H15S10700   2.066   3.542   8.977 -1.2732  1.0487 -0.8514
  105OSM   H15T10701   2.175   3.400   8.955 -1.0868 -0.0712  1.3705
  105OSM   C16S10702   2.234   3.572   8.833  0.3400 -0.0752 -0.2342
  105OSM   H16S10703   2.316   3.510   8.791  0.8221 -0.4216  1.1731
  105OSM   H16T10704   2.276   3.674   8.849 -0.5558  0.1730  0.6133
  105OSM   C17S10705   2.125   3.593   8.727 -0.2277 -0.2545 -0.0553
  105OSM   H17S10706   2.049   3.666   8.764 -1.3428  0.8306 -4.0520
  105OSM   H17T10707   2.078   3.492   8.727  0.1802 -0.4440 -0.0119
  105OSM   C18S10708   2.178   3.632   8.594 -0.3995  0.1280  1.3832
  105OSM   H18S10709   2.087   3.670   8.543 -1.3387 -1.5421  1.7551
  105OSM   H18T10710   2.235   3.554   8.539 -0.8037  1.4435 -1.0976
  105OSM   H18U10711   2.251   3.714   8.614 -0.9519  0.9176  0.3033
  105OSM    C1F10712   2.615   4.030  10.379  0.9271 -0.0927  0.1269
  105OSM     OF10713   2.681   3.945  10.440  0.0663 -0.3908  0.9558
  105OSM    C2F10714   2.662   4.165  10.340 -0.7695 -0.3061  0.2071
  105OSM    H2F10715   2.735   4.204  10.415 -0.3710  0.5849 -0.6158
  105OSM    H2G10716   2.576   4.235  10.333 -0.6554 -0.2670 -1.1409
  105OSM    C3F10717   2.738   4.180  10.212  0.4335  0.6071  0.1332
  105OSM    H3F10718   2.829   4.117  10.205  0.1661  0.4111 -2.6731
  105OSM    H3G10719   2.758   4.287  10.191  1.1664  0.4207 -0.1236
  105OSM    C4F10720   2.658   4.137  10.082 -0.2962 -0.2270  1.1720
  105OSM    H4F10721   2.567   4.198  10.063 -0.9980 -1.2518  1.1666
  105OSM    H4G10722   2.635   4.029  10.095  0.0176 -1.0364 -3.5138
  105OSM    C5F10723   2.741   4.143   9.949  0.1477  0.3916 -0.4205
  105OSM    H5F10724   2.836   4.090   9.971 -0.1361  0.3778  0.8500
  105OSM    H5G10725   2.767   4.245   9.912 -0.3363  0.2585 -1.1563
  105OSM    C6F10726   2.681   4.053   9.841 -0.2298  0.2215  0.0147
  105OSM    H6F10727   2.579   4.090   9.818  0.1553  1.6754  0.5242
  105OSM    H6G10728   2.674   3.948   9.875 -0.0714  0.2588  0.1659
  105OSM    C7F10729   2.746   4.050   9.703 -0.0495 -0.1560  0.1555
  105OSM    H7F10730   2.851   4.016   9.720 -1.1734 -3.8939  0.5817
  105OSM    H7G10731   2.753   4.155   9.669 -1.9643 -0.5631 -1.7116
  105OSM    C8F10732   2.683   3.954   9.599  0.2520  0.9609  0.8471
  105OSM    H8F10733   2.574   3.958   9.620  0.3691  0.5759  1.5273
  105OSM    H8G10734   2.715   3.850   9.620  0.6187  0.8659 -0.1128
  105OSM    C9F10735   2.711   3.992   9.454 -0.4788  0.1325  0.6851
  105OSM    H9F10736   2.647   4.075   9.421 -2.3249 -1.4492  0.0811
  105OSM   C10F10737   2.796   3.955   9.359  0.2340 -0.4550 -0.9223
  105OSM   H10F10738   2.800   4.016   9.267 -0.3889  0.1407 -0.5661
  105OSM   C11F10739   2.888   3.840   9.361  0.6042  0.5725 -0.2450
  105OSM   H11F10740   2.824   3.750   9.366  1.5016 -0.0470  0.2957
  105OSM   H11G10741   2.941   3.842   9.459  1.6678  0.1154 -0.8057
  105OSM   C12F10742   2.990   3.809   9.247 -0.2269 -0.2245 -0.0763
  105OSM   H12F10743   3.034   3.711   9.271 -0.7391 -0.6170 -0.6866
  105OSM   H12G10744   3.061   3.895   9.246 -0.9974  0.4436  0.5531
  105OSM   C13F10745   2.916   3.784   9.110 -0.3130 -0.8010 -0.3170
  105OSM   H13F10746   2.826   3.849   9.107  0.4986  0.4072  0.6979
  105OSM   H13G10747   2.882   3.678   9.100 -0.1395 -0.7913 -1.0722
  105OSM   C14F10748   3.016   3.813   8.998  0.1615 -0.3245  0.5844
  105OSM   H14F10749   3.089   3.894   9.018 -0.6116  0.7766 -0.7957
  105OSM   H14G10750   2.953   3.851   8.914  0.0434 -1.0587  0.3313
  105OSM   C15F10751   3.077   3.680   8.957 -0.1490  0.4541 -0.3452
  105OSM   H15F10752   3.004   3.596   8.953  0.4252 -0.0061 -1.3473
  105OSM   H15G10753   3.149   3.661   9.039  0.9466  0.4230 -1.2959
  105OSM   C16F10754   3.156   3.678   8.827 -0.4353 -0.1267 -0.5709
  105OSM   H16F10755   3.210   3.582   8.812  0.2370 -0.1772  1.8573
  105OSM   H16G10756   3.230   3.761   8.835  1.2467 -1.3327 -2.5719
  105OSM   C17F10757   3.073   3.705   8.703 -0.2136 -0.7778 -0.2952
  105OSM   H17F10758   3.015   3.799   8.712  0.8175 -0.1896  0.4640
  105OSM   H17G10759   3.007   3.618   8.685 -0.0766 -1.2464  1.3223
  105OSM   C18F10760   3.166   3.725   8.579 -0.4088  0.3997 -0.0338
  105OSM   H18F10761   3.244   3.802   8.597 -0.8637  0.6523  0.8962
  105OSM   H18G10762   3.109   3.741   8.485  1.0060 -4.0042 -1.8872
  105OSM   H18H10763   3.214   3.628   8.554  0.2547  0.0822  2.2697
  106OSM      N10764   0.890   5.131  10.715 -0.0114  0.1954 -0.0025
  106OSM    C1510765   0.782   5.209  10.653 -0.0541  0.4471 -0.3060
  106OSM   H15A10766   0.727   5.272  10.722 -1.7215 -0.2259 -0.9894
  106OSM   H15B10767   0.704   5.137  10.635 -0.3198  0.8691 -0.8721
  106OSM   H15C10768   0.813   5.271  10.570  2.4221 -0.9612 -0.5230
  106OSM    C1410769   0.979   5.219  10.786  0.2188  0.2052  0.4213
  106OSM   H14A10770   0.934   5.239  10.882 -2.4133  1.0464 -0.8876
  106OSM   H14B10771   0.980   5.314  10.734 -0.4624 -0.2138 -0.3800
  106OSM   H14C10772   1.079   5.180  10.800 -0.3443 -1.5912 -0.2927
  106OSM    C1310773   0.835   5.050  10.831 -0.2775  0.5050  0.1693
  106OSM   H13A10774   0.762   4.972  10.815  0.8844 -0.3677 -1.1337
  106OSM   H13B10775   0.810   5.111  10.917 -0.2593  0.5393  0.1507
  106OSM   H13C10776   0.923   4.995  10.857 -0.8004 -1.6350 -2.1749
  106OSM    C1210777   0.949   5.039  10.610 -0.1128  0.2695  0.7590
  106OSM   H12A10778   0.983   5.094  10.524  0.3879 -0.5545  0.4181
  106OSM   H12B10779   0.873   4.970  10.574 -0.7949  0.7963  1.1586
  106OSM    C1110780   1.076   4.950  10.640 -0.0955 -0.2346 -0.2769
  106OSM   H11A10781   1.093   4.870  10.565 -0.8955  0.5295 -1.2936
  106OSM   H11B10782   1.041   4.893  10.729  0.3324 -0.4737 -0.2595
  106OSM      P10783   1.271   5.116  10.578  0.2769  0.4261  0.1511
  106OSM    O1310784   1.183   5.188  10.489  0.1747  0.2396 -0.5081
  106OSM    O1410785   1.363   5.204  10.647  0.3651 -0.1307  0.3986
  106OSM    O1110786   1.345   5.015  10.491 -0.3563  0.5115 -0.3934
  106OSM    O1210787   1.191   5.031  10.676  1.2030 -0.0855  0.5693
  106OSM    C1S10788   1.309   4.953  10.367  0.0842 -0.6901 -0.0384
  106OSM    H1S10789   1.206   4.987  10.346 -0.4391 -0.3930  2.5794
  106OSM    H1T10790   1.310   4.842  10.374 -0.8411 -0.7246 -0.3725
  106OSM     NF10791   1.333   4.957  10.125 -0.3864 -0.1484 -0.1560
  106OSM    HNF10792   1.380   4.882  10.079 -1.4161 -0.9249  0.0346
  106OSM    C2S10793   1.401   5.001  10.250  0.6957  0.0310  0.5352
  106OSM    H2S10794   1.399   5.112  10.248 -0.8014  0.0404 -2.0515
  106OSM    C3S10795   1.552   4.960  10.267  0.5787  0.4492  0.1291
  106OSM    H3S10796   1.551   4.849  10.269  0.1865  0.4414 -0.2597
  106OSM     O310797   1.597   4.992  10.402  0.8419 -0.9098 -0.3574
  106OSM    HO310798   1.516   5.015  10.448  1.7564 -1.0108  1.3665
  106OSM    C4S10799   1.651   4.997  10.151  0.4836  0.2775 -0.1366
  106OSM    H4S10800   1.633   4.927  10.068 -2.0575  1.3695 -0.6129
  106OSM    C5S10801   1.749   5.089  10.153  0.6098 -0.3974  0.2355
  106OSM    H5S10802   1.760   5.153  10.242  1.1875  0.0546 -0.1508
  106OSM    C6S10803   1.843   5.126  10.042  0.7077  0.6740 -1.5212
  106OSM    H6S10804   1.940   5.161  10.083 -0.4480  2.6140 -0.3154
  106OSM    H6T10805   1.793   5.201   9.976 -3.9331  0.6924  1.5832
  106OSM    C7S10806   1.879   5.015   9.943  0.1589 -0.1341 -0.0557
  106OSM    H7S10807   1.786   4.985   9.888 -0.0758 -0.5036  0.5356
  106OSM    H7T10808   1.908   4.924   9.998  1.0362 -0.5678 -1.1945
  106OSM    C8S10809   1.988   5.043   9.841  0.5353  0.1340 -0.2903
  106OSM    H8S10810   2.077   5.080   9.897 -0.8436 -0.2917  2.3450
  106OSM    H8T10811   1.947   5.132   9.789 -0.3559  0.1168  0.3691
  106OSM    C9S10812   2.015   4.929   9.742  0.5764 -0.1268  0.0843
  106OSM    H9S10813   2.008   4.831   9.793  1.1062 -0.8890 -1.2638
  106OSM    H9T10814   2.122   4.942   9.716  0.0374  3.0598 -1.0287
  106OSM   C10S10815   1.931   4.941   9.619  1.0374 -0.1440 -0.3667
  106OSM   H10S10816   1.939   5.041   9.570  1.9937  0.7221  1.4522
  106OSM   H10T10817   1.823   4.948   9.644  0.6585  0.5543 -2.0635
  106OSM   C11S10818   1.952   4.826   9.516  0.4418 -0.5298  0.2035
  106OSM   H11S10819   1.880   4.849   9.434 -0.3126 -1.5605  0.5621
  106OSM   H11T10820   1.922   4.726   9.555 -0.7961 -0.3341 -0.1981
  106OSM   C12S10821   2.091   4.819   9.448 -0.5598  0.6614 -0.1131
  106OSM   H12S10822   2.158   4.780   9.527 -1.1367 -0.1304 -0.0083
  106OSM   H12T10823   2.127   4.922   9.425 -1.2091  0.6451 -1.2720
  106OSM   C13S10824   2.087   4.728   9.328 -0.8414  0.5275  0.2431
  106OSM   H13S10825   2.003   4.752   9.259 -1.1330  1.3080  0.8630
  106OSM   H13T10826   2.062   4.623   9.355  0.7730 -0.3494 -1.4147
  106OSM   C14S10827   2.222   4.721   9.259  0.4554 -0.6299  0.5835
  106OSM   H14S10828   2.273   4.817   9.279 -0.8587  0.2561 -0.1329
  106OSM   H14T10829   2.219   4.710   9.148  1.3819  0.4754  0.4264
  106OSM   C15S10830   2.319   4.622   9.314 -0.8553  0.2406  0.5513
  106OSM   H15S10831   2.267   4.526   9.331 -2.0059  0.5973 -0.7237
  106OSM   H15T10832   2.344   4.657   9.416 -0.0306  0.3715  0.3100
  106OSM   C16S10833   2.448   4.597   9.228  0.0098 -0.2108  0.5848
  106OSM   H16S10834   2.515   4.533   9.290 -0.4915 -1.3270 -0.0073
  106OSM   H16T10835   2.511   4.685   9.204  0.4999 -1.1061 -1.6399
  106OSM   C17S10836   2.440   4.514   9.104  0.3111  0.0213 -0.5399
  106OSM   H17S10837   2.360   4.567   9.047 -0.7451 -1.1474 -0.1852
  106OSM   H17T10838   2.402   4.412   9.126  0.9764  0.4010  2.9520
  106OSM   C18S10839   2.567   4.519   9.026 -0.2335  0.3843  0.0520
  106OSM   H18S10840   2.641   4.468   9.092  0.0374  0.7808  0.0598
  106OSM   H18T10841   2.598   4.623   9.002 -1.0743  0.8159  0.7875
  106OSM   H18U10842   2.563   4.464   8.929 -0.4919  0.5784 -0.0467
  106OSM    C1F10843   1.214   4.995  10.086 -0.1330 -0.9937  0.2016
  106OSM     OF10844   1.169   5.099  10.134  0.0097  0.2608  0.4474
  106OSM    C2F10845   1.138   4.913   9.988  0.7106  0.3405  0.4021
  106OSM    H2F10846   1.108   4.823  10.046 -0.2306  1.7432  2.2118
  106OSM    H2G10847   1.197   4.889   9.897  0.4241 -1.7761  0.7230
  106OSM    C3F10848   1.009   4.989   9.936  0.1394 -0.1775 -0.1556
  106OSM    H3F10849   1.032   5.096   9.916  0.6060 -0.3841 -0.7457
  106OSM    H3G10850   0.948   4.988  10.029  1.3804 -2.9419  0.7381
  106OSM    C4F10851   0.940   4.932   9.814  0.4438 -0.1137 -0.3385
  106OSM    H4F10852   0.840   4.888   9.833 -0.4700  0.9537 -2.3958
  106OSM    H4G10853   1.015   4.859   9.776 -0.4638 -1.1654 -0.1460
  106OSM    C5F10854   0.915   5.038   9.695  0.4856  0.7296  0.3157
  106OSM    H5F10855   1.007   5.099   9.684  1.5150 -1.1474 -2.9385
  106OSM    H5G10856   0.843   5.109   9.740  1.1200  1.4221  0.2612
  106OSM    C6F10857   0.850   4.984   9.573  0.7275 -0.3701 -0.6955
  106OSM    H6F10858   0.769   5.054   9.543  1.2912 -0.1678 -1.8070
  106OSM    H6G10859   0.800   4.887   9.594 -0.1614  0.1218 -0.4867
  106OSM    C7F10860   0.944   4.968   9.450 -0.1954 -0.4436 -0.1177
  106OSM    H7F10861   1.027   4.908   9.493 -1.0508 -0.9400  0.8769
  106OSM    H7G10862   0.987   5.069   9.430 -2.6185  0.7449  0.2401
  106OSM    C8F10863   0.869   4.915   9.325  0.0064  0.0794 -0.0860
  106OSM    H8F10864   0.788   4.852   9.369 -0.6273  1.3848  0.6559
  106OSM    H8G10865   0.935   4.851   9.263 -1.8513 -1.2415 -0.8217
  106OSM    C9F10866   0.805   5.034   9.253  0.4361  0.6415  0.4295
  106OSM    H9F10867   0.726   5.086   9.308 -2.7292 -1.9751 -1.3160
  106OSM   C10F10868   0.821   5.063   9.128  0.1015  0.1718  0.3614
  106OSM   H10F10869   0.777   5.160   9.099 -2.3946 -1.3951 -1.4254
  106OSM   C11F10870   0.907   4.997   9.023 -0.4952 -0.4862 -0.4355
  106OSM   H11F10871   0.946   4.898   9.056  0.8298  0.6292  1.6019
  106OSM   H11G10872   0.998   5.051   8.989  0.2236 -1.9109 -0.8317
  106OSM   C12F10873   0.832   4.971   8.895 -0.7822  0.4494 -0.2387
  106OSM   H12F10874   0.792   5.065   8.853  0.0918  0.6617 -0.6303
  106OSM   H12G10875   0.759   4.890   8.915 -1.3841  0.8023 -0.9784
  106OSM   C13F10876   0.919   4.913   8.784 -0.4081  0.0063 -0.3971
  106OSM   H13F10877   0.971   4.825   8.827 -0.4337  0.7961  1.3434
  106OSM   H13G10878   0.992   4.993   8.757 -0.0382 -0.3889 -0.5701
  106OSM   C14F10879   0.837   4.869   8.662 -0.2369 -0.0034  0.5068
  106OSM   H14F10880   0.793   4.956   8.609 -0.2753 -0.6942 -0.6465
  106OSM   H14G10881   0.761   4.801   8.706 -0.8410 -0.1872 -0.7710
  106OSM   C15F10882   0.918   4.791   8.549  0.8709 -0.4478  0.2092
  106OSM   H15F10883   1.001   4.740   8.602 -0.9293 -0.3155  3.4467
  106OSM   H15G10884   0.963   4.880   8.501  1.9512 -1.0479  0.0962
  106OSM   C16F10885   0.831   4.708   8.454 -0.3579 -0.0734 -0.1399
  106OSM   H16F10886   0.897   4.682   8.369 -0.9659  1.7532 -1.2101
  106OSM   H16G10887   0.745   4.774   8.429  0.3846  1.4390  1.1144
  106OSM   C17F10888   0.775   4.588   8.537 -0.2167 -0.6455  0.0182
  106OSM   H17F10889   0.711   4.533   8.465 -0.3536  0.8966 -1.0839
  106OSM   H17G10890   0.715   4.631   8.619  1.6856 -2.6192  2.6259
  106OSM   C18F10891   0.880   4.495   8.597  0.2028  0.1465  0.0126
  106OSM   H18F10892   0.827   4.406   8.638  0.4201 -0.8689 -1.7998
  106OSM   H18G10893   0.951   4.545   8.667 -1.0341  1.7973  0.1414
  106OSM   H18H10894   0.939   4.464   8.508 -1.4562 -0.4723 -0.9146
  107OSM      N10895   5.091   1.069  10.714 -0.2890 -0.6502 -0.0984
  107OSM    C1510896   5.192   1.016  10.613  0.2732  0.5218 -0.0100
  107OSM   H15A10897   5.283   1.071  10.593  1.0651 -0.1114  1.6308
  107OSM   H15B10898   5.156   1.005  10.512  2.7030 -1.8909 -0.7470
  107OSM   H15C10899   5.214   0.914  10.641 -3.8675 -0.2257  1.1593
  107OSM    C1410900   5.010   0.948  10.752  0.0383 -0.2217 -0.1646
  107OSM   H14A10901   5.065   0.889  10.823 -0.2739 -0.6557 -0.2794
  107OSM   H14B10902   4.985   0.873  10.678  0.3951 -1.5341  1.0026
  107OSM   H14C10903   4.918   0.989  10.793  0.3266  2.0655 -1.6107
  107OSM    C1310904   5.165   1.125  10.832 -0.1608 -0.1586  0.4661
  107OSM   H13A10905   5.100   1.161  10.910  0.6957 -1.5401  1.8755
  107OSM   H13B10906   5.237   1.198  10.799  1.3336 -2.2257 -1.1015
  107OSM   H13C10907   5.220   1.047  10.881  0.9133 -0.1549 -0.6888
  107OSM    C1210908   5.009   1.175  10.644 -0.2793  0.3961 -0.6112
  107OSM   H12A10909   4.949   1.216  10.723  2.3334  1.2232  1.0554
  107OSM   H12B10910   4.938   1.133  10.574  1.1682  0.8683 -2.4443
  107OSM    C1110911   5.079   1.291  10.566  1.0607 -0.4664 -0.1258
  107OSM   H11A10912   5.006   1.354  10.510 -0.0983 -2.1080 -0.5394
  107OSM   H11B10913   5.150   1.258  10.487  0.0648  0.7729 -1.5938
  107OSM      P10914   5.093   1.504  10.724 -0.0989  0.1941  0.0114
  107OSM    O1310915   4.951   1.494  10.771  0.3121  0.3463 -0.2661
  107OSM    O1410916   5.200   1.551  10.821  0.6925  0.2992 -0.3009
  107OSM    O1110917   5.091   1.600  10.596 -0.4912 -0.1038 -0.3254
  107OSM    O1210918   5.150   1.378  10.653  0.2579 -0.4437  0.4159
  107OSM    C1S10919   5.200   1.618  10.511 -0.7372 -0.5430  0.2656
  107OSM    H1S10920   5.292   1.567  10.547  1.0962 -0.5100 -3.7965
  107OSM    H1T10921   5.229   1.725  10.508 -2.5743  0.0363  1.7239
  107OSM     NF10922   5.281   1.613  10.283  0.4089 -0.1028  0.4589
  107OSM    HNF10923   5.292   1.712  10.275 -0.9742  0.2996  2.6600
  107OSM    C2S10924   5.167   1.585  10.366  0.0319  0.2023 -0.3159
  107OSM    H2S10925   5.137   1.479  10.355 -0.3498  0.3668 -0.9186
  107OSM    C3S10926   5.043   1.673  10.318 -0.0768 -0.0855 -0.8875
  107OSM    H3S10927   5.053   1.778  10.353 -1.6846 -0.2200  0.0657
  107OSM     O310928   4.919   1.634  10.386 -0.3389 -0.7008 -0.1980
  107OSM    HO310929   4.948   1.567  10.448  0.9741  0.2809  0.2844
  107OSM    C4S10930   5.019   1.665  10.172 -0.5968  0.6974  0.7029
  107OSM    H4S10931   5.000   1.562  10.137  1.3703  0.5098  0.0896
  107OSM    C5S10932   5.037   1.755  10.073  0.0460  0.1687  0.5028
  107OSM    H5S10933   5.070   1.858  10.096  2.8152 -0.5090  0.0374
  107OSM    C6S10934   5.022   1.721   9.927  0.7162  0.0419 -0.9612
  107OSM    H6S10935   5.061   1.617   9.916 -0.8405 -1.0789  2.4665
  107OSM    H6T10936   5.080   1.786   9.859 -1.2085  2.0721 -0.7527
  107OSM    C7S10937   4.877   1.711   9.889 -0.1796  0.3850 -0.2489
  107OSM    H7S10938   4.834   1.807   9.856  3.0796  1.5011 -1.6988
  107OSM    H7T10939   4.819   1.670   9.974  0.4670  1.1618  0.5957
  107OSM    C8S10940   4.857   1.627   9.757  0.1198 -0.6994 -0.1947
  107OSM    H8S10941   4.748   1.606   9.747  0.1322 -1.6401  1.3463
  107OSM    H8T10942   4.909   1.529   9.765 -0.9600 -1.1164  3.6424
  107OSM    C9S10943   4.901   1.702   9.629 -0.6354  0.0801 -0.2589
  107OSM    H9S10944   5.009   1.725   9.636 -0.7016  0.0690  1.2540
  107OSM    H9T10945   4.834   1.784   9.596 -1.0411 -0.7247 -1.5022
  107OSM   C10S10946   4.885   1.615   9.504  0.0962 -0.2645 -0.1691
  107OSM   H10S10947   4.779   1.611   9.472  0.1774  2.9925 -1.1791
  107OSM   H10T10948   4.930   1.517   9.532  2.6479  1.4888  2.3333
  107OSM   C11S10949   4.960   1.678   9.380 -0.5305 -0.0609 -0.4644
  107OSM   H11S10950   5.070   1.678   9.398 -0.7383  0.7570  0.9282
  107OSM   H11T10951   4.934   1.785   9.393  1.2224  0.3511 -0.0279
  107OSM   C12S10952   4.921   1.626   9.237 -0.1572  0.0680 -0.4137
  107OSM   H12S10953   4.820   1.653   9.198 -0.2283  0.0342 -0.2535
  107OSM   H12T10954   4.926   1.516   9.225  2.4116 -0.0764  1.3097
  107OSM   C13S10955   5.008   1.695   9.127  0.0523 -0.4451 -0.2427
  107OSM   H13S10956   5.116   1.670   9.140  1.1201  0.6155 -5.1060
  107OSM   H13T10957   4.995   1.805   9.134  0.2196 -0.4915  0.8949
  107OSM   C14S10958   4.958   1.661   8.984 -0.2495  0.3780 -0.3788
  107OSM   H14S10959   4.849   1.683   8.983 -0.3260  0.0446  0.1665
  107OSM   H14T10960   4.968   1.552   8.964 -4.3285 -0.0696 -0.8350
  107OSM   C15S10961   5.022   1.756   8.885  0.0533  0.3602 -0.1036
  107OSM   H15S10962   5.028   1.714   8.782 -2.6784 -0.1981 -0.1238
  107OSM   H15T10963   5.121   1.792   8.918  0.2702  1.3570 -1.7087
  107OSM   C16S10964   4.942   1.887   8.871  0.1520  0.4307  0.1387
  107OSM   H16S10965   4.908   1.928   8.969 -1.1082 -1.1555  0.4082
  107OSM   H16T10966   4.847   1.870   8.816 -0.6154  0.3963  1.4233
  107OSM   C17S10967   5.019   1.999   8.803 -0.2739 -0.4653 -0.9125
  107OSM   H17S10968   5.090   1.955   8.729 -0.6672 -0.0930 -1.5246
  107OSM   H17T10969   5.085   2.046   8.878 -1.5243  1.9054 -1.1961
  107OSM   C18S10970   4.927   2.098   8.735 -0.3993  0.2471 -0.1081
  107OSM   H18S10971   4.874   2.044   8.653  0.9190  0.4831 -1.1647
  107OSM   H18T10972   4.984   2.180   8.686  2.0844 -1.8255 -0.9083
  107OSM   H18U10973   4.856   2.140   8.809 -1.1680 -0.5797 -0.3561
  107OSM    C1F10974   5.389   1.538  10.284  0.7303  0.3960 -0.4209
  107OSM     OF10975   5.385   1.437  10.349  0.3109 -0.0912  0.3888
  107OSM    C2F10976   5.515   1.596  10.233 -0.1015 -0.3374 -0.1001
  107OSM    H2F10977   5.591   1.515  10.229 -1.2030 -1.5591  2.0543
  107OSM    H2G10978   5.566   1.658  10.309  1.6165 -2.8013  0.9131
  107OSM    C3F10979   5.500   1.665  10.099 -0.0585 -0.4390 -0.3656
  107OSM    H3F10980   5.597   1.705  10.063  0.4902 -1.2129  0.2536
  107OSM    H3G10981   5.434   1.755  10.102  0.5579  0.0005  2.4802
  107OSM    C4F10982   5.451   1.586   9.980  0.0412  0.7572 -0.1685
  107OSM    H4F10983   5.362   1.526  10.008  0.6999 -0.9282 -1.4969
  107OSM    H4G10984   5.523   1.507   9.949 -0.2065  0.3932  0.1751
  107OSM    C5F10985   5.407   1.667   9.850 -0.1376 -0.5811  0.3220
  107OSM    H5F10986   5.473   1.754   9.829 -2.2150  0.8244 -0.6992
  107OSM    H5G10987   5.317   1.722   9.884 -0.1083  0.5147 -1.2422
  107OSM    C6F10988   5.392   1.580   9.729 -0.4080  0.3396 -0.1545
  107OSM    H6F10989   5.331   1.491   9.756  1.3928 -0.8381  0.2576
  107OSM    H6G10990   5.484   1.523   9.701  0.1126  0.8429  0.5082
  107OSM    C7F10991   5.334   1.641   9.605  0.6856 -0.1968 -0.2651
  107OSM    H7F10992   5.240   1.689   9.640  0.5223 -2.1812  2.2216
  107OSM    H7G10993   5.304   1.557   9.539 -2.5201 -1.4065  2.4232
  107OSM    C8F10994   5.427   1.738   9.536  0.3099 -0.0412  0.4468
  107OSM    H8F10995   5.517   1.687   9.495  1.5651  1.4706  1.1907
  107OSM    H8G10996   5.451   1.813   9.615 -3.6597  1.1635  0.7410
  107OSM    C9F10997   5.356   1.818   9.433  0.5063 -0.8321  0.6659
  107OSM    H9F10998   5.305   1.907   9.473  0.3566 -0.8065  0.4223
  107OSM   C10F10999   5.353   1.799   9.306 -0.0178  0.2950  0.6818
  107OSM   H10F11000   5.312   1.876   9.240  1.5485 -2.2162 -3.6508
  107OSM   C11F11001   5.404   1.680   9.221  0.1675 -0.2968 -0.7368
  107OSM   H11F11002   5.320   1.630   9.168 -0.7381 -2.4519  2.4145
  107OSM   H11G11003   5.434   1.601   9.294 -0.5567 -1.1987 -1.3870
  107OSM   C12F11004   5.534   1.705   9.149  0.2748 -0.6104 -0.1890
  107OSM   H12F11005   5.582   1.612   9.113  2.2762 -0.2623  1.4203
  107OSM   H12G11006   5.607   1.741   9.225 -1.6769  1.8798  0.6667
  107OSM   C13F11007   5.514   1.787   9.029  0.0283 -0.4313 -0.3433
  107OSM   H13F11008   5.608   1.830   8.988  0.8820 -0.9796  0.9890
  107OSM   H13G11009   5.461   1.881   9.056  3.3206  1.6505 -0.6489
  107OSM   C14F11010   5.431   1.713   8.921  0.5033 -0.4917  0.1800
  107OSM   H14F11011   5.326   1.706   8.957 -0.5004  0.4980 -2.3080
  107OSM   H14G11012   5.473   1.611   8.907  2.1814  0.4530 -2.3957
  107OSM   C15F11013   5.416   1.797   8.793  0.3589  0.5427  0.1735
  107OSM   H15F11014   5.519   1.819   8.757 -0.6370  0.4759 -3.0280
  107OSM   H15G11015   5.372   1.897   8.812  0.6242  0.5007  1.0173
  107OSM   C16F11016   5.345   1.711   8.682 -0.2015  0.2900 -0.4881
  107OSM   H16F11017   5.244   1.690   8.722  0.0807 -0.8714 -0.3566
  107OSM   H16G11018   5.397   1.614   8.668  0.6238  0.3806  1.6512
  107OSM   C17F11019   5.322   1.783   8.556  0.4850 -0.5273 -0.8973
  107OSM   H17F11020   5.274   1.879   8.587  1.0022  0.0161 -1.7407
  107OSM   H17G11021   5.244   1.730   8.497  0.0865  0.1503 -0.9918
  107OSM   C18F11022   5.447   1.809   8.474  0.3427 -0.2719 -0.0661
  107OSM   H18F11023   5.523   1.728   8.484  0.1066 -0.3293  1.5493
  107OSM   H18G11024   5.498   1.901   8.511 -2.6659  0.9137  1.4639
  107OSM   H18H11025   5.424   1.825   8.367  1.0859  0.4526 -0.1347
  108OSM      N11026   2.015   3.913  10.829 -0.1843 -0.0598  0.5496
  108OSM    C1511027   1.934   4.006  10.901 -0.2662  0.0395 -0.1080
  108OSM   H15A11028   1.961   3.994  11.005 -0.9475 -2.7422 -0.1829
  108OSM   H15B11029   1.829   3.997  10.879 -1.1230  0.1354  3.4526
  108OSM   H15C11030   1.968   4.105  10.877 -1.9313  0.8414  0.6944
  108OSM    C1411031   2.157   3.960  10.815 -0.9115 -0.1210 -0.0977
  108OSM   H14A11032   2.213   3.876  10.775  0.6148  0.2072  1.2375
  108OSM   H14B11033   2.200   4.000  10.905 -1.5692 -0.0979  0.2116
  108OSM   H14C11034   2.164   4.037  10.739  0.6561  0.3898  0.5351
  108OSM    C1311035   2.022   3.778  10.910 -0.2277 -0.6703  0.4011
  108OSM   H13A11036   2.084   3.716  10.847  1.4068 -0.7300  1.9814
  108OSM   H13B11037   1.928   3.724  10.916 -0.5278 -0.3623 -1.1765
  108OSM   H13C11038   2.055   3.797  11.011 -1.0207  0.3547  0.4773
  108OSM    C1211039   1.959   3.895  10.687  0.2111  0.3751 -0.2859
  108OSM   H12A11040   1.974   3.981  10.624 -0.8061  1.3838  0.8142
  108OSM   H12B11041   1.854   3.869  10.688  0.3529 -0.2293  1.2285
  108OSM    C1111042   2.018   3.777  10.609 -0.2805  0.6053  0.0051
  108OSM   H11A11043   2.128   3.770  10.618 -0.3054 -1.6970 -0.6945
  108OSM   H11B11044   1.988   3.796  10.504 -0.4845 -1.3778 -0.3392
  108OSM      P11045   1.818   3.611  10.642 -0.5024 -0.0537 -0.7490
  108OSM    O1311046   1.788   3.516  10.757 -0.3686  0.3713  0.1155
  108OSM    O1411047   1.733   3.730  10.621 -0.1108 -0.0380  0.4381
  108OSM    O1111048   1.814   3.521  10.510 -0.0862  0.1525  0.0533
  108OSM    O1211049   1.969   3.662  10.663  0.2302 -0.0303  0.1900
  108OSM    C1S11050   1.691   3.453  10.475 -0.4892 -0.2446 -0.3130
  108OSM    H1S11051   1.605   3.522  10.491  0.0328  0.6732 -1.3042
  108OSM    H1T11052   1.674   3.362  10.536  0.7865 -2.2644 -2.7771
  108OSM     NF11053   1.550   3.370  10.286 -0.1949 -0.5111 -0.0952
  108OSM    HNF11054   1.539   3.281  10.242  0.9993  0.8590 -3.4569
  108OSM    C2S11055   1.679   3.425  10.320  0.2192  0.0505  0.7893
  108OSM    H2S11056   1.679   3.519  10.261  1.0555 -0.8134 -0.6613
  108OSM    C3S11057   1.803   3.339  10.274 -0.0223 -0.1483  0.7196
  108OSM    H3S11058   1.801   3.248  10.338  0.0274 -2.5529 -2.4517
  108OSM     O311059   1.935   3.389  10.298  0.1599 -0.2458  0.0508
  108OSM    HO311060   1.921   3.466  10.353  1.2466  0.8302 -1.1267
  108OSM    C4S11061   1.791   3.313  10.124 -0.4621  0.6777  0.0214
  108OSM    H4S11062   1.745   3.216  10.099 -1.9747  1.2332  0.5299
  108OSM    C5S11063   1.844   3.375  10.017  0.2952  0.0758 -0.7212
  108OSM    H5S11064   1.897   3.471  10.029  2.1881 -0.8974 -0.9293
  108OSM    C6S11065   1.821   3.338   9.877  0.0442  0.7188 -0.1587
  108OSM    H6S11066   1.752   3.416   9.839 -1.3747 -1.0826 -1.4599
  108OSM    H6T11067   1.754   3.250   9.866 -1.0788  1.6230 -0.7449
  108OSM    C7S11068   1.952   3.318   9.791 -0.2011  0.3885 -0.4553
  108OSM    H7S11069   2.022   3.241   9.832 -0.9723 -0.6557 -1.0647
  108OSM    H7T11070   1.997   3.420   9.789 -0.5266  0.5611  0.4899
  108OSM    C8S11071   1.918   3.286   9.645 -0.9386  0.0465 -0.1947
  108OSM    H8S11072   1.835   3.352   9.613  0.1542  2.1062  1.0212
  108OSM    H8T11073   1.885   3.180   9.637 -1.1992  0.0948  0.1985
  108OSM    C9S11074   2.026   3.318   9.551 -0.4173  0.0427 -0.5425
  108OSM    H9S11075   2.084   3.405   9.590  0.0061 -0.2270 -0.5715
  108OSM    H9T11076   1.987   3.345   9.450  0.4751  1.7656 -0.4630
  108OSM   C10S11077   2.112   3.196   9.515  0.1916  0.0119 -0.0639
  108OSM   H10S11078   2.049   3.108   9.494 -2.1645  1.8813 -1.3385
  108OSM   H10T11079   2.184   3.170   9.596  0.5783 -0.3665 -0.5219
  108OSM   C11S11080   2.180   3.217   9.376 -0.2056 -0.1493  0.5266
  108OSM   H11S11081   2.219   3.321   9.373  1.2147 -0.6803 -2.0824
  108OSM   H11T11082   2.098   3.214   9.300  0.6597  2.8543 -0.6618
  108OSM   C12S11083   2.280   3.101   9.340  0.0814 -0.4328  0.4217
  108OSM   H12S11084   2.218   3.009   9.337 -3.1706  1.6045 -1.6089
  108OSM   H12T11085   2.365   3.089   9.410  0.3888  1.2157  0.3797
  108OSM   C13S11086   2.354   3.126   9.207  0.3489  0.5532 -0.0525
  108OSM   H13S11087   2.429   3.045   9.188 -1.0050 -1.1742  1.6062
  108OSM   H13T11088   2.403   3.224   9.224  0.7289  0.1872  1.0380
  108OSM   C14S11089   2.268   3.127   9.080  0.0965  0.0019  0.6239
  108OSM   H14S11090   2.221   3.227   9.066 -0.4897 -0.1774  1.2627
  108OSM   H14T11091   2.200   3.040   9.077  2.1786 -1.7338 -2.5492
  108OSM   C15S11092   2.358   3.104   8.954  0.0491 -0.2165 -0.6254
  108OSM   H15S11093   2.401   3.003   8.939 -0.2859 -0.9898  2.8269
  108OSM   H15T11094   2.444   3.174   8.964 -0.8739  0.5908  3.0498
  108OSM   C16S11095   2.277   3.153   8.835 -0.3689  0.4705 -0.6034
  108OSM   H16S11096   2.256   3.262   8.840  0.3930  0.6085 -0.3402
  108OSM   H16T11097   2.185   3.091   8.823 -0.8668  1.4024 -1.6911
  108OSM   C17S11098   2.362   3.142   8.712  0.9051  0.2959  0.2934
  108OSM   H17S11099   2.411   3.043   8.697 -0.1459  0.1448 -2.8821
  108OSM   H17T11100   2.442   3.213   8.738  1.9234 -0.7926  0.1998
  108OSM   C18S11101   2.301   3.186   8.576 -0.0983  0.3538  0.0242
  108OSM   H18S11102   2.252   3.285   8.589  1.0899  0.6240  3.7172
  108OSM   H18T11103   2.221   3.116   8.546  2.6581 -2.4648 -1.4200
  108OSM   H18U11104   2.378   3.197   8.496 -0.9405 -0.9300 -1.0053
  108OSM    C1F11105   1.431   3.439  10.295 -0.4018  0.8905  0.8706
  108OSM     OF11106   1.430   3.555  10.329  0.3871  0.0997  0.2411
  108OSM    C2F11107   1.311   3.365  10.259 -0.5593  0.2565 -0.9152
  108OSM    H2F11108   1.223   3.395  10.320  1.1992  1.7929  1.0198
  108OSM    H2G11109   1.329   3.262  10.295 -0.0938  1.0605  1.3137
  108OSM    C3F11110   1.273   3.359  10.103 -0.1840 -0.9687 -0.7254
  108OSM    H3F11111   1.242   3.460  10.070  2.3461  0.3963  0.7211
  108OSM    H3G11112   1.189   3.286  10.105 -0.4279 -0.6792  0.1358
  108OSM    C4F11113   1.389   3.316  10.004 -0.4764  0.2087  0.3345
  108OSM    H4F11114   1.411   3.210  10.028  0.6539 -0.0028 -1.4504
  108OSM    H4G11115   1.479   3.378  10.020 -0.2965 -0.2049  0.9179
  108OSM    C5F11116   1.335   3.320   9.858 -0.2745  0.2433 -0.0967
  108OSM    H5F11117   1.276   3.412   9.835 -1.4992 -0.5305 -0.1298
  108OSM    H5G11118   1.257   3.242   9.848  0.4953 -0.5982  0.4466
  108OSM    C6F11119   1.456   3.297   9.760 -0.2648 -0.3329 -0.4061
  108OSM    H6F11120   1.524   3.228   9.815 -0.9048 -1.1166 -0.5779
  108OSM    H6G11121   1.517   3.387   9.740  0.4209 -0.7962 -0.4374
  108OSM    C7F11122   1.418   3.244   9.624  0.4168  0.2189 -0.8452
  108OSM    H7F11123   1.348   3.300   9.558  0.5154  0.1374 -1.0207
  108OSM    H7G11124   1.362   3.149   9.634  2.4020 -0.8515  0.7392
  108OSM    C8F11125   1.538   3.209   9.533 -0.1323  0.3420 -0.8718
  108OSM    H8F11126   1.583   3.130   9.596  0.9755  1.2803 -0.4523
  108OSM    H8G11127   1.597   3.303   9.540 -1.4936  1.1491  0.5300
  108OSM    C9F11128   1.509   3.173   9.391  0.1930 -0.0596  0.1262
  108OSM    H9F11129   1.455   3.078   9.379 -1.5888  0.9609 -0.3611
  108OSM   C10F11130   1.554   3.233   9.282 -0.2149 -0.4452 -0.2811
  108OSM   H10F11131   1.517   3.191   9.187 -1.1879  1.3211 -0.7154
  108OSM   C11F11132   1.647   3.354   9.273 -0.9191 -0.4546 -0.2162
  108OSM   H11F11133   1.658   3.415   9.365  2.7123 -0.9184 -0.2180
  108OSM   H11G11134   1.625   3.423   9.189 -1.5190 -0.4655 -0.0764
  108OSM   C12F11135   1.790   3.301   9.258  0.0026 -0.1181  0.4045
  108OSM   H12F11136   1.816   3.240   9.347  0.8507 -1.2567 -0.5928
  108OSM   H12G11137   1.858   3.388   9.249  0.0597 -0.3573 -2.3118
  108OSM   C13F11138   1.810   3.205   9.135 -0.3745 -0.5057  0.0083
  108OSM   H13F11139   1.746   3.115   9.146 -1.0063 -0.0078  0.5286
  108OSM   H13G11140   1.918   3.181   9.135  0.5296  2.7739 -2.5463
  108OSM   C14F11141   1.789   3.292   9.010  0.2957  0.4403 -0.1344
  108OSM   H14F11142   1.839   3.391   9.018 -1.0005  1.1766 -0.7813
  108OSM   H14G11143   1.681   3.312   8.995  0.1320 -0.8787 -0.8572
  108OSM   C15F11144   1.822   3.220   8.880 -0.0235  1.2558  0.2771
  108OSM   H15F11145   1.774   3.120   8.882  1.0120  0.7409 -0.0627
  108OSM   H15G11146   1.930   3.203   8.902 -0.9000 -2.7149  2.5403
  108OSM   C16F11147   1.788   3.298   8.756 -0.0972 -0.3802  1.2678
  108OSM   H16F11148   1.804   3.401   8.796 -0.7867 -0.0330  0.6593
  108OSM   H16G11149   1.686   3.295   8.713 -0.3793  2.5803  1.5460
  108OSM   C17F11150   1.892   3.282   8.646  0.6843 -0.5238  0.2449
  108OSM   H17F11151   1.883   3.178   8.606 -0.4593 -0.1997 -0.3788
  108OSM   H17G11152   1.997   3.299   8.678  0.7681  0.7826 -0.6254
  108OSM   C18F11153   1.861   3.379   8.525  0.0070  0.9774 -0.0097
  108OSM   H18F11154   1.869   3.484   8.557  2.7431  0.5715  0.8262
  108OSM   H18G11155   1.756   3.356   8.493  0.1748  0.6685 -0.3512
  108OSM   H18H11156   1.930   3.362   8.439 -0.9924  0.2855 -0.7122
  109OSM      N11157   0.889   0.273  11.103  0.0370 -0.8104  0.4822
  109OSM    C1511158   0.758   0.252  11.160 -0.1115  0.2325  0.0205
  109OSM   H15A11159   0.709   0.343  11.192  2.3620  1.8541 -0.5384
  109OSM   H15B11160   0.763   0.191  11.249  2.1699  0.4246  0.0845
  109OSM   H15C11161   0.689   0.206  11.091  0.5377  1.3059 -1.4074
  109OSM    C1411162   0.984   0.315  11.209 -0.9452  0.1690  0.4713
  109OSM   H14A11163   1.085   0.307  11.173 -1.4155 -1.2642 -0.5990
  109OSM   H14B11164   0.986   0.252  11.296  1.6958 -0.1828  0.2370
  109OSM   H14C11165   0.959   0.410  11.255 -0.2064  0.3738  0.4550
  109OSM    C1311166   0.938   0.151  11.035  0.0631 -0.4300 -0.2144
  109OSM   H13A11167   0.986   0.081  11.101 -0.0029  0.8325  1.2198
  109OSM   H13B11168   1.009   0.178  10.958 -0.2897  1.7179  0.1549
  109OSM   H13C11169   0.857   0.097  10.987  0.7234 -0.3259 -1.4973
  109OSM    C1211170   0.884   0.391  11.007 -0.6730 -0.2681 -0.3764
  109OSM   H12A11171   0.978   0.443  11.006 -1.3128  1.1536 -4.1888
  109OSM   H12B11172   0.820   0.466  11.050 -3.0617 -1.8619 -0.9218
  109OSM    C1111173   0.834   0.363  10.856  0.2797 -0.5163 -0.0474
  109OSM   H11A11174   0.914   0.302  10.809 -1.2963 -1.3688 -1.7528
  109OSM   H11B11175   0.842   0.457  10.796 -1.1016  2.1536  3.5779
  109OSM      P11176   0.580   0.387  10.870  0.2924 -0.0684 -0.4110
  109OSM    O1311177   0.477   0.284  10.889  0.0967 -0.0913  0.3007
  109OSM    O1411178   0.592   0.486  10.975 -0.1680  0.4379 -0.7613
  109OSM    O1111179   0.555   0.457  10.729 -0.5095  0.2424 -0.5807
  109OSM    O1211180   0.712   0.303  10.850  0.1736 -0.0369 -0.2357
  109OSM    C1S11181   0.493   0.379  10.623 -0.4257  0.0077  0.2092
  109OSM    H1S11182   0.384   0.360  10.639 -0.5513  0.2402 -0.3430
  109OSM    H1T11183   0.532   0.275  10.621 -0.0969  0.1306 -1.4340
  109OSM     NF11184   0.429   0.371  10.393 -0.2333 -0.8258  0.3922
  109OSM    HNF11185   0.436   0.273  10.372 -0.4820 -0.4756 -1.5286
  109OSM    C2S11186   0.531   0.424  10.478  0.2552  0.6803  0.1699
  109OSM    H2S11187   0.530   0.535  10.483 -0.3512  0.6571  0.6770
  109OSM    C3S11188   0.669   0.367  10.432 -0.1907 -0.6679  0.5773
  109OSM    H3S11189   0.657   0.258  10.410  1.7314 -0.7851 -0.0988
  109OSM     O311190   0.772   0.366  10.527  0.4754 -0.5521 -0.5089
  109OSM    HO311191   0.722   0.387  10.607  1.3514 -1.0728  0.1836
  109OSM    C4S11192   0.708   0.426  10.296  0.1284 -0.3899  0.4132
  109OSM    H4S11193   0.719   0.535  10.297 -0.9281 -0.2760  0.8253
  109OSM    C5S11194   0.735   0.365  10.178  0.2226  0.2471 -0.8793
  109OSM    H5S11195   0.700   0.261  10.168  0.3023  0.2211 -0.8904
  109OSM    C6S11196   0.793   0.429  10.053  0.3348  0.2011  0.5027
  109OSM    H6S11197   0.900   0.402  10.047  0.5736  1.4192 -2.1324
  109OSM    H6T11198   0.796   0.540  10.054  1.0499  0.2091 -0.7132
  109OSM    C7S11199   0.716   0.386   9.925 -0.3727 -0.2828 -0.2015
  109OSM    H7S11200   0.622   0.445   9.933 -0.3254  0.2525 -2.7473
  109OSM    H7T11201   0.693   0.277   9.929 -0.8093 -0.2439 -1.2374
  109OSM    C8S11202   0.794   0.424   9.799  0.3569  0.5802 -0.3749
  109OSM    H8S11203   0.891   0.371   9.787  0.7634  1.6055 -2.0857
  109OSM    H8T11204   0.830   0.528   9.813  0.9269  0.7318 -2.5534
  109OSM    C9S11205   0.711   0.411   9.671  0.1018 -0.6201 -0.2078
  109OSM    H9S11206   0.759   0.474   9.593  0.8934 -0.9739 -0.0151
  109OSM    H9T11207   0.604   0.440   9.682 -0.0960  0.1620 -3.3367
  109OSM   C10S11208   0.698   0.270   9.600  0.0088 -0.4086 -0.3522
  109OSM   H10S11209   0.636   0.201   9.662  1.7300 -1.1678  0.5798
  109OSM   H10T11210   0.794   0.221   9.574 -1.9020 -3.4169 -2.3275
  109OSM   C11S11211   0.615   0.272   9.470 -0.8588  0.2460  0.1322
  109OSM   H11S11212   0.647   0.352   9.400 -2.5252  1.1854  0.3884
  109OSM   H11T11213   0.505   0.280   9.489 -0.4779 -0.1222  2.9299
  109OSM   C12S11214   0.639   0.141   9.385  0.5310 -0.3577  0.0257
  109OSM   H12S11215   0.615   0.063   9.459  0.5818 -1.4758 -1.1025
  109OSM   H12T11216   0.742   0.137   9.345  0.3865 -0.8121 -0.3108
  109OSM   C13S11217   0.532   0.128   9.271  0.4060  1.0548 -0.1119
  109OSM   H13S11218   0.433   0.155   9.314 -0.0173  1.8824 -1.5321
  109OSM   H13T11219   0.532   0.022   9.238 -2.9180  0.5934  1.0331
  109OSM   C14S11220   0.558   0.226   9.152 -0.6913 -0.5393 -0.6983
  109OSM   H14S11221   0.668   0.214   9.139  0.3009  3.7402  1.9526
  109OSM   H14T11222   0.525   0.327   9.184 -2.2729 -1.7291  1.6991
  109OSM   C15S11223   0.500   0.187   9.019  0.0916 -0.1039  0.2383
  109OSM   H15S11224   0.530   0.081   9.005 -1.0205 -0.1229 -2.9189
  109OSM   H15T11225   0.548   0.250   8.940 -2.9279 -0.4340 -2.0798
  109OSM   C16S11226   0.354   0.218   9.019  0.0621  0.4537 -0.0421
  109OSM   H16S11227   0.344   0.327   9.039 -0.3587 -0.0056  2.5660
  109OSM   H16T11228   0.308   0.171   9.108 -0.5550  1.5176  0.2184
  109OSM   C17S11229   0.281   0.167   8.887 -0.5445  0.1404  0.0824
  109OSM   H17S11230   0.178   0.202   8.912 -0.0265  0.8240  1.3488
  109OSM   H17T11231   0.285   0.056   8.887  0.0988  0.1644  0.4320
  109OSM   C18S11232   0.325   0.228   8.759  0.2508  0.1892 -0.0545
  109OSM   H18S11233   0.292   0.177   8.666  1.8403 -2.8081  0.8793
  109OSM   H18T11234   0.436   0.226   8.750  0.1263 -1.3597 -1.9656
  109OSM   H18U11235   0.301   0.336   8.754 -0.4006  0.0016 -1.2901
  109OSM    C1F11236   0.307   0.423  10.384  0.0636  0.6463  1.1589
  109OSM     OF11237   0.280   0.533  10.419  0.0086 -0.4916  0.3707
  109OSM    C2F11238   0.198   0.344  10.316 -0.3647  0.2184  0.2800
  109OSM    H2F11239   0.109   0.335  10.381  1.9080 -3.0030  3.2851
  109OSM    H2G11240   0.240   0.244  10.291 -1.4428 -0.2878  0.4641
  109OSM    C3F11241   0.162   0.413  10.181 -0.6775 -0.1873 -0.5322
  109OSM    H3F11242   0.246   0.395  10.111  0.2459 -1.2684  0.7829
  109OSM    H3G11243   0.152   0.523  10.198 -1.9257 -0.4394  0.5133
  109OSM    C4F11244   0.034   0.362  10.114  0.0961  0.1207  0.6450
  109OSM    H4F11245  -0.052   0.387  10.179 -1.9708 -3.3635 -0.4819
  109OSM    H4G11246   0.046   0.251  10.111  0.7071  0.1915 -1.0498
  109OSM    C5F11247   0.019   0.423   9.976 -0.1879 -0.0505 -1.0158
  109OSM    H5F11248   0.032   0.533   9.986 -1.7338  0.1345 -0.8537
  109OSM    H5G11249  -0.081   0.416   9.928  0.0654 -1.0200 -1.4245
  109OSM    C6F11250   0.111   0.375   9.861 -0.5096 -0.0657 -0.0062
  109OSM    H6F11251   0.137   0.268   9.876  1.6916  0.2567 -1.1261
  109OSM    H6G11252   0.204   0.434   9.873 -0.8248  0.3185  0.6080
  109OSM    C7F11253   0.068   0.394   9.714 -0.2067 -0.5375 -0.3436
  109OSM    H7F11254   0.050   0.504   9.714  0.7372 -0.3344 -2.2854
  109OSM    H7G11255  -0.034   0.353   9.697 -0.3214 -1.0092  1.3119
  109OSM    C8F11256   0.168   0.352   9.611 -0.3499  0.6886 -0.3866
  109OSM    H8F11257   0.187   0.244   9.629 -1.5639  0.1151 -2.2211
  109OSM    H8G11258   0.262   0.397   9.648  0.0021 -0.9548  0.8640
  109OSM    C9F11259   0.127   0.388   9.466  0.3677  0.9720 -0.1068
  109OSM    H9F11260   0.109   0.496   9.458  0.0477  0.9953  0.8294
  109OSM   C10F11261   0.114   0.305   9.358 -0.4193  0.2575 -0.8082
  109OSM   H10F11262   0.096   0.343   9.257 -0.3973  2.1605 -0.1230
  109OSM   C11F11263   0.136   0.152   9.364  0.5227 -0.0513  0.1185
  109OSM   H11F11264   0.104   0.107   9.461 -1.1471  0.6867 -0.0573
  109OSM   H11G11265   0.239   0.112   9.353  0.0046 -1.9049  1.4996
  109OSM   C12F11266   0.070   0.090   9.237  0.2423  0.1070 -0.3283
  109OSM   H12F11267   0.076   0.164   9.154 -0.3207  1.0401  0.4419
  109OSM   H12G11268  -0.036   0.074   9.264  0.1818  2.8729  1.5432
  109OSM   C13F11269   0.126  -0.044   9.195 -0.9974  0.6582 -0.2364
  109OSM   H13F11270   0.084  -0.110   9.274  0.3839  0.4154  0.3173
  109OSM   H13G11271   0.237  -0.049   9.201 -1.0165  0.4108 -0.1020
  109OSM   C14F11272   0.074  -0.095   9.060  0.4897 -0.3874  0.5844
  109OSM   H14F11273   0.110  -0.200   9.057 -1.3211 -1.0979  1.8001
  109OSM   H14G11274   0.113  -0.030   8.979 -2.3511 -0.4172 -0.9432
  109OSM   C15F11275  -0.080  -0.099   9.046 -0.5829 -0.1599  0.1774
  109OSM   H15F11276  -0.125   0.000   9.069 -0.9071 -0.2397 -0.1017
  109OSM   H15G11277  -0.122  -0.164   9.126 -2.0090 -0.5734 -0.8714
  109OSM   C16F11278  -0.129  -0.138   8.903  0.0106 -0.0417 -0.3948
  109OSM   H16F11279  -0.236  -0.164   8.923  0.1582 -0.6081 -0.2989
  109OSM   H16G11280  -0.086  -0.229   8.855 -2.2730 -0.3309 -2.0642
  109OSM   C17F11281  -0.111  -0.017   8.808  0.2952  0.3040 -0.4364
  109OSM   H17F11282  -0.001  -0.005   8.799  0.7478 -3.1531 -0.8607
  109OSM   H17G11283  -0.150   0.073   8.861  1.3817  0.8141 -0.4810
  109OSM   C18F11284  -0.167  -0.037   8.662  0.6253  0.3443 -0.4126
  109OSM   H18F11285  -0.154   0.052   8.597 -0.2912  0.0402 -1.0292
  109OSM   H18G11286  -0.277  -0.040   8.675  0.4482  1.7891 -1.4172
  109OSM   H18H11287  -0.116  -0.117   8.604  0.1976  1.0500 -1.8072
  110OSM      N11288   1.814   5.532  10.849 -0.1648 -0.1274  0.0452
  110OSM    C1511289   1.798   5.663  10.929  0.4143 -0.3345 -1.1340
  110OSM   H15A11290   1.877   5.734  10.913  0.5057  0.2909  1.5942
  110OSM   H15B11291   1.806   5.643  11.035 -0.5520  1.3125 -0.7123
  110OSM   H15C11292   1.705   5.707  10.895  0.4415 -0.7390 -1.7495
  110OSM    C1411293   1.947   5.472  10.869 -0.0285 -0.2421 -0.7932
  110OSM   H14A11294   1.947   5.367  10.846 -0.9823 -0.4142 -0.0978
  110OSM   H14B11295   1.987   5.491  10.968  2.2562 -0.8522 -1.5284
  110OSM   H14C11296   2.030   5.523  10.822 -0.8012  1.1374 -0.7304
  110OSM    C1311297   1.713   5.427  10.899 -0.3141  0.3725  0.0093
  110OSM   H13A11298   1.609   5.451  10.881 -0.4677  1.7611  2.3404
  110OSM   H13B11299   1.725   5.412  11.005 -2.0743  0.6181  0.2790
  110OSM   H13C11300   1.720   5.330  10.852  0.7858 -1.9815  4.5285
  110OSM    C1211301   1.792   5.562  10.705 -0.7188  0.0501 -0.3348
  110OSM   H12A11302   1.832   5.476  10.654 -0.0523 -1.3834  2.4279
  110OSM   H12B11303   1.860   5.644  10.686  1.3735 -2.1101 -2.9966
  110OSM    C1111304   1.652   5.608  10.652 -0.4802  0.0966  0.2465
  110OSM   H11A11305   1.577   5.532  10.682 -0.5558  1.2154  3.1748
  110OSM   H11B11306   1.649   5.606  10.541  0.8905 -0.7602  0.1997
  110OSM      P11307   1.680   5.867  10.638 -0.2023 -0.0009  0.0878
  110OSM    O1311308   1.621   5.979  10.705  0.1973  0.5220 -0.7219
  110OSM    O1411309   1.822   5.846  10.647  0.2446 -0.4501  0.2025
  110OSM    O1111310   1.642   5.867  10.483 -0.0239  0.3288  0.2885
  110OSM    O1211311   1.615   5.735  10.699  0.4039  0.9636  0.3268
  110OSM    C1S11312   1.505   5.842  10.447 -0.2750  0.0298 -0.1295
  110OSM    H1S11313   1.439   5.920  10.492 -1.2252 -0.8703  0.0972
  110OSM    H1T11314   1.478   5.739  10.481  1.3317  0.2109  1.9024
  110OSM     NF11315   1.339   5.844  10.275  0.7262 -0.0771  1.1374
  110OSM    HNF11316   1.300   5.754  10.262 -0.0091  0.4112 -0.3227
  110OSM    C2S11317   1.481   5.849  10.293 -0.1188  0.2392 -0.0648
  110OSM    H2S11318   1.517   5.947  10.255 -1.8035  0.7923 -0.3078
  110OSM    C3S11319   1.552   5.736  10.215  0.1449 -0.0898 -0.3892
  110OSM    H3S11320   1.503   5.640  10.239  2.9112 -0.9996  2.3012
  110OSM     O311321   1.685   5.711  10.267 -0.0978  0.3949  0.1171
  110OSM    HO311322   1.702   5.775  10.336 -2.3818 -0.4120  1.5386
  110OSM    C4S11323   1.545   5.754  10.062  0.0905  0.5225  0.2996
  110OSM    H4S11324   1.464   5.693  10.022  0.1220  0.9836 -0.4851
  110OSM    C5S11325   1.628   5.815   9.977 -0.0097 -0.2968 -0.0227
  110OSM    H5S11326   1.721   5.861  10.011 -0.5793  2.1845 -1.5211
  110OSM    C6S11327   1.599   5.821   9.824  0.2111 -0.0958 -0.3576
  110OSM    H6S11328   1.602   5.927   9.791 -0.1619  0.4740  1.3691
  110OSM    H6T11329   1.500   5.778   9.797  0.7929 -2.0134  0.4316
  110OSM    C7S11330   1.714   5.757   9.739 -0.1090  0.0217 -0.1483
  110OSM    H7S11331   1.718   5.649   9.762  1.3519  0.2286  0.7762
  110OSM    H7T11332   1.811   5.801   9.773 -0.7128 -0.2187  2.0253
  110OSM    C8S11333   1.695   5.771   9.593 -0.0472 -0.2389  0.3689
  110OSM    H8S11334   1.689   5.877   9.559 -1.9021  0.3014  2.1628
  110OSM    H8T11335   1.602   5.721   9.560 -1.0312  1.5150  0.3738
  110OSM    C9S11336   1.799   5.693   9.514 -0.6746 -0.0780 -0.2736
  110OSM    H9S11337   1.813   5.593   9.561 -2.9271 -0.1840  0.3084
  110OSM    H9T11338   1.896   5.746   9.519 -0.8158  0.3345 -1.5346
  110OSM   C10S11339   1.779   5.677   9.366  0.8425 -0.3209  0.2386
  110OSM   H10S11340   1.753   5.770   9.311  2.0294 -0.7992 -1.2025
  110OSM   H10T11341   1.691   5.609   9.359  1.7482 -1.7114  1.7269
  110OSM   C11S11342   1.901   5.617   9.288  0.4081  0.1102  0.4164
  110OSM   H11S11343   1.935   5.522   9.335 -0.5679 -0.4051  0.1098
  110OSM   H11T11344   1.990   5.683   9.283  0.4297  0.1006  0.6974
  110OSM   C12S11345   1.875   5.588   9.134 -0.0660  0.5393 -0.1136
  110OSM   H12S11346   1.782   5.529   9.124  0.5730 -0.9677  2.0737
  110OSM   H12T11347   1.948   5.514   9.094 -0.8440 -0.3980  0.1480
  110OSM   C13S11348   1.880   5.716   9.053 -0.4834  0.2915 -0.3531
  110OSM   H13S11349   1.983   5.757   9.053  1.2425 -3.5073  2.1030
  110OSM   H13T11350   1.811   5.792   9.097 -0.9212 -0.5454  0.4340
  110OSM   C14S11351   1.832   5.690   8.911 -0.2374  0.3264  0.4776
  110OSM   H14S11352   1.725   5.663   8.923 -0.1165 -0.2770  0.2154
  110OSM   H14T11353   1.879   5.596   8.876 -0.9025  0.2999 -0.3649
  110OSM   C15S11354   1.830   5.789   8.802 -0.0616 -0.2079  1.0221
  110OSM   H15S11355   1.779   5.881   8.838 -1.4295 -0.6165  0.2200
  110OSM   H15T11356   1.778   5.742   8.716  0.4480 -0.6786  0.9633
  110OSM   C16S11357   1.975   5.824   8.755 -0.7261  0.5368 -0.8859
  110OSM   H16S11358   2.008   5.753   8.676  1.4323  0.9937 -0.4561
  110OSM   H16T11359   2.044   5.808   8.841  0.2674  0.9707 -1.5767
  110OSM   C17S11360   1.987   5.967   8.705 -0.1630  0.2338  0.0499
  110OSM   H17S11361   1.967   6.037   8.789  0.4005  3.5364 -2.3706
  110OSM   H17T11362   1.914   5.983   8.623 -1.0879  2.2434  1.2193
  110OSM   C18S11363   2.125   6.002   8.650 -0.0776 -0.1559 -0.4093
  110OSM   H18S11364   2.133   5.946   8.554 -2.4322  0.3766 -0.9694
  110OSM   H18T11365   2.207   5.977   8.721  0.9574  2.7501 -0.4449
  110OSM   H18U11366   2.135   6.111   8.635 -0.6176  0.1110  0.9938
  110OSM    C1F11367   1.253   5.947  10.299  0.2905  0.6799  0.1202
  110OSM     OF11368   1.293   6.059  10.320  0.7184  0.4755 -0.5622
  110OSM    C2F11369   1.107   5.917  10.306 -0.0903 -0.0864  0.2086
  110OSM    H2F11370   1.075   5.905  10.412  0.3571 -0.1964  0.3335
  110OSM    H2G11371   1.081   5.818  10.264  2.2805 -1.8017  2.4904
  110OSM    C3F11372   1.016   6.029  10.245 -0.2613 -0.5164 -0.4307
  110OSM    H3F11373   1.025   6.116  10.314  0.6655  1.2274 -2.6238
  110OSM    H3G11374   0.918   5.976  10.250  0.1570 -1.5010 -2.0165
  110OSM    C4F11375   1.055   6.077  10.100  0.1251  0.0822 -0.4740
  110OSM    H4F11376   1.157   6.120  10.110  0.7685 -0.8866 -2.3508
  110OSM    H4G11377   0.997   6.166  10.067  2.0389  1.3990 -0.3970
  110OSM    C5F11378   1.062   5.966  10.001 -0.1492  0.6255 -0.1686
  110OSM    H5F11379   0.963   5.920   9.981 -0.7781  2.6273 -2.0076
  110OSM    H5G11380   1.115   5.886  10.058  0.9752  1.2831 -0.2445
  110OSM    C6F11381   1.131   6.008   9.870  0.1691  0.3841 -0.5802
  110OSM    H6F11382   1.217   6.078   9.877  1.2051 -0.7097 -1.7310
  110OSM    H6G11383   1.048   6.052   9.810 -1.6774  0.3971  1.8534
  110OSM    C7F11384   1.194   5.891   9.789 -0.4410 -0.5735 -0.1787
  110OSM    H7F11385   1.119   5.810   9.785  1.0615 -1.9830 -0.5940
  110OSM    H7G11386   1.281   5.847   9.842  0.6776  0.1040 -1.4170
  110OSM    C8F11387   1.230   5.935   9.645 -0.5845  0.9737 -1.1764
  110OSM    H8F11388   1.310   5.859   9.629 -2.1190 -1.3985  1.4615
  110OSM    H8G11389   1.291   6.028   9.653 -0.9725  1.0836  1.8118
  110OSM    C9F11390   1.127   5.931   9.535  0.7547 -0.2329  0.7902
  110OSM    H9F11391   1.076   6.028   9.525  0.1344 -0.2759  2.9643
  110OSM   C10F11392   1.101   5.822   9.452 -0.1317  0.5125 -0.2213
  110OSM   H10F11393   1.030   5.827   9.369  1.0793 -1.4124 -1.4687
  110OSM   C11F11394   1.168   5.690   9.477  0.2623  0.0461 -0.8102
  110OSM   H11F11395   1.096   5.606   9.476 -1.4069  1.4026 -0.3424
  110OSM   H11G11396   1.212   5.672   9.577 -0.5841 -0.3433 -0.4954
  110OSM   C12F11397   1.275   5.656   9.375  0.2584  0.2024  0.1358
  110OSM   H12F11398   1.314   5.553   9.394 -0.0325  0.0237 -0.2384
  110OSM   H12G11399   1.365   5.717   9.400  0.3818  0.3494 -0.6602
  110OSM   C13F11400   1.240   5.645   9.226  0.6661  0.6732  0.5138
  110OSM   H13F11401   1.194   5.744   9.205 -0.6087 -0.5667 -3.4739
  110OSM   H13G11402   1.161   5.567   9.229  1.0286  0.3282  2.7176
  110OSM   C14F11403   1.361   5.615   9.133  0.0252 -0.1641 -0.4825
  110OSM   H14F11404   1.422   5.535   9.181 -1.0718 -0.8850 -0.2584
  110OSM   H14G11405   1.421   5.708   9.126 -0.5108  0.0870 -2.2567
  110OSM   C15F11406   1.333   5.576   8.985 -0.1963 -1.0350 -0.2238
  110OSM   H15F11407   1.248   5.646   8.970  1.4629  0.9385 -0.8532
  110OSM   H15G11408   1.300   5.472   8.962  2.7332 -1.9185 -0.7451
  110OSM   C16F11409   1.452   5.605   8.893  0.1476 -0.2179  0.0124
  110OSM   H16F11410   1.530   5.525   8.898  1.8253  1.2428 -1.5175
  110OSM   H16G11411   1.494   5.701   8.928 -0.1549  0.1111 -0.5245
  110OSM   C17F11412   1.402   5.615   8.747 -0.7775 -0.7478  0.5180
  110OSM   H17F11413   1.355   5.714   8.728  1.2485 -0.0025 -0.8979
  110OSM   H17G11414   1.335   5.530   8.722 -0.9487 -0.5020  0.1262
  110OSM   C18F11415   1.503   5.623   8.631 -0.1095 -0.3015 -0.4658
  110OSM   H18F11416   1.454   5.654   8.536 -0.0146 -2.3499 -1.2206
  110OSM   H18G11417   1.541   5.519   8.622 -2.8850 -1.3214 -1.4119
  110OSM   H18H11418   1.584   5.695   8.656 -1.9097  1.4192  0.7303
  111OSM      N11419   2.649   4.505  10.748  0.4154  0.0842 -0.2827
  111OSM    C1511420   2.555   4.508  10.871 -0.4436 -0.2550  0.0805
  111OSM   H15A11421   2.456   4.486  10.835 -1.1444  2.6998  0.0281
  111OSM   H15B11422   2.546   4.600  10.927  1.8721 -0.8568  1.6254
  111OSM   H15C11423   2.585   4.426  10.936  0.7757 -0.2255 -0.4123
  111OSM    C1411424   2.588   4.578  10.634  0.0964 -0.3174 -0.4744
  111OSM   H14A11425   2.494   4.528  10.614  0.3103 -1.9480  2.0239
  111OSM   H14B11426   2.654   4.592  10.550 -0.6970 -0.2446 -1.0996
  111OSM   H14C11427   2.563   4.675  10.673 -0.5747 -0.2905 -0.9703
  111OSM    C1311428   2.774   4.574  10.785  0.1495 -0.0231  0.0387
  111OSM   H13A11429   2.816   4.538  10.877 -0.3521 -0.8584 -0.0397
  111OSM   H13B11430   2.751   4.679  10.786 -2.3755 -0.5035  1.4557
  111OSM   H13C11431   2.852   4.572  10.710  0.7234 -0.1989  0.6309
  111OSM    C1211432   2.690   4.361  10.721 -0.1135  0.6602  0.1502
  111OSM   H12A11433   2.728   4.312  10.810 -0.3704  1.7811  0.8969
  111OSM   H12B11434   2.781   4.353  10.663 -1.0603 -3.4870 -1.1355
  111OSM    C1111435   2.586   4.267  10.656  0.7739  0.5690 -0.3451
  111OSM   H11A11436   2.626   4.164  10.666  0.2302  0.3701 -0.2265
  111OSM   H11B11437   2.577   4.301  10.551  0.2241 -1.4569 -0.9910
  111OSM      P11438   2.323   4.288  10.690  0.0506  0.4375  0.1852
  111OSM    O1311439   2.272   4.166  10.618 -0.1467 -0.7178 -0.3764
  111OSM    O1411440   2.245   4.322  10.813 -1.3258  0.7817  0.5118
  111OSM    O1111441   2.314   4.409  10.592  0.2678  0.2241 -0.1413
  111OSM    O1211442   2.471   4.268  10.736  0.3868  0.0590 -0.1841
  111OSM    C1S11443   2.336   4.407  10.456 -0.2342  0.3269  0.7026
  111OSM    H1S11444   2.406   4.324  10.434 -0.6208  0.4125 -0.9499
  111OSM    H1T11445   2.395   4.497  10.429  1.3887 -1.0140 -0.4270
  111OSM     NF11446   2.233   4.423  10.231  0.5653 -0.2249 -0.1763
  111OSM    HNF11447   2.236   4.519  10.206  0.3563 -0.5797 -1.6498
  111OSM    C2S11448   2.202   4.405  10.373 -0.2354 -0.0080 -0.2616
  111OSM    H2S11449   2.154   4.307  10.393 -4.5176  1.8265 -0.3677
  111OSM    C3S11450   2.101   4.511  10.435  0.2267  0.0465  0.7704
  111OSM    H3S11451   2.149   4.611  10.446 -1.5751  0.8501  1.7928
  111OSM     O311452   2.054   4.480  10.566  0.2927 -0.5134  0.1794
  111OSM    HO311453   2.116   4.412  10.593  0.4491  0.2966  2.0483
  111OSM    C4S11454   1.987   4.527  10.332 -0.6072 -0.6588  0.2018
  111OSM    H4S11455   1.992   4.612  10.263  0.2461 -2.0536 -1.5295
  111OSM    C5S11456   1.898   4.431  10.303  0.1211  0.1028 -0.0454
  111OSM    H5S11457   1.898   4.337  10.361  0.5337  1.2780  1.9981
  111OSM    C6S11458   1.789   4.449  10.206  0.7346 -0.0094  0.7232
  111OSM    H6S11459   1.706   4.508  10.251 -0.2405 -0.7291 -0.0616
  111OSM    H6T11460   1.739   4.352  10.184 -2.6536  1.5445  0.8968
  111OSM    C7S11461   1.816   4.524  10.067 -0.7592 -0.4309 -0.1487
  111OSM    H7S11462   1.871   4.619  10.084  0.4536 -0.8963 -1.2873
  111OSM    H7T11463   1.724   4.552  10.012  0.5059  4.3817 -0.2351
  111OSM    C8S11464   1.892   4.433   9.970 -0.6560  0.1942  0.3767
  111OSM    H8S11465   1.836   4.339   9.947  0.9766 -1.1445  1.6701
  111OSM    H8T11466   1.990   4.397  10.008 -0.5536  1.9069  1.8499
  111OSM    C9S11467   1.913   4.506   9.835 -0.2114  0.1607 -0.6005
  111OSM    H9S11468   2.015   4.485   9.799  0.1378 -0.8652  0.8892
  111OSM    H9T11469   1.914   4.614   9.861  3.0315 -0.4283  2.6265
  111OSM   C10S11470   1.805   4.454   9.735 -0.5358 -0.3096 -0.4674
  111OSM   H10S11471   1.808   4.526   9.650 -1.4355 -1.2967 -1.3709
  111OSM   H10T11472   1.705   4.452   9.783  0.5544 -1.8444  1.9351
  111OSM   C11S11473   1.829   4.312   9.684 -0.0341 -0.8388 -0.4832
  111OSM   H11S11474   1.729   4.270   9.660 -0.8299  1.1326 -0.7587
  111OSM   H11T11475   1.857   4.248   9.771  0.4115  0.8754  0.6743
  111OSM   C12S11476   1.929   4.300   9.571 -0.1157 -0.3216 -0.0033
  111OSM   H12S11477   1.955   4.196   9.546  0.6393  0.0542 -0.8315
  111OSM   H12T11478   2.024   4.354   9.593 -2.0463  3.0639  0.7789
  111OSM   C13S11479   1.883   4.359   9.438 -1.5426 -0.6322  0.2949
  111OSM   H13S11480   1.866   4.467   9.462 -1.2022  0.2520 -2.9933
  111OSM   H13T11481   1.791   4.315   9.394 -2.1318 -0.8196  1.6520
  111OSM   C14S11482   2.001   4.352   9.333 -0.0244 -0.7249 -0.5693
  111OSM   H14S11483   2.032   4.247   9.314  1.5545  0.1622 -3.4180
  111OSM   H14T11484   2.078   4.419   9.377 -1.1862 -1.0466  2.1972
  111OSM   C15S11485   1.949   4.386   9.198  0.0444 -0.2855  0.2609
  111OSM   H15S11486   1.909   4.489   9.185 -1.1142 -0.8093 -0.5403
  111OSM   H15T11487   1.868   4.316   9.169  0.3635 -0.3943 -0.3768
  111OSM   C16S11488   2.058   4.373   9.091 -0.1303 -0.2479  1.0841
  111OSM   H16S11489   2.104   4.272   9.095 -1.1964 -0.9428 -1.6800
  111OSM   H16T11490   2.136   4.450   9.112 -0.4396  0.4257 -0.0970
  111OSM   C17S11491   2.003   4.408   8.951  0.0138  0.2910 -0.6106
  111OSM   H17S11492   1.978   4.516   8.946 -1.2016  0.1033  0.8444
  111OSM   H17T11493   1.904   4.359   8.940 -0.7808  0.6168  3.5285
  111OSM   C18S11494   2.093   4.362   8.842  0.5030 -0.2429  0.3215
  111OSM   H18S11495   2.190   4.413   8.859  1.2828 -1.5106 -0.2697
  111OSM   H18T11496   2.049   4.372   8.740  0.9177  2.5510  0.3234
  111OSM   H18U11497   2.116   4.255   8.859 -0.2340 -0.5173 -0.3467
  111OSM    C1F11498   2.293   4.326  10.164 -0.5233 -0.2654  0.9030
  111OSM     OF11499   2.313   4.217  10.217 -0.6349 -0.1536  0.3754
  111OSM    C2F11500   2.339   4.367  10.026  0.1921  0.6172 -0.4094
  111OSM    H2F11501   2.449   4.370  10.037  0.2125 -2.3470  1.1135
  111OSM    H2G11502   2.292   4.467  10.012  1.9232  1.2164 -2.4782
  111OSM    C3F11503   2.299   4.265   9.918 -0.6041 -0.1550  0.4189
  111OSM    H3F11504   2.188   4.267   9.917 -0.5972  0.1594  0.2097
  111OSM    H3G11505   2.330   4.163   9.950  1.0304  0.1803 -0.0075
  111OSM    C4F11506   2.369   4.299   9.789 -0.1415  0.9026  1.2582
  111OSM    H4F11507   2.477   4.317   9.806 -0.3901  1.0956  2.7827
  111OSM    H4G11508   2.312   4.388   9.753 -2.2461 -0.5816  0.7402
  111OSM    C5F11509   2.335   4.192   9.684  0.5358 -0.6112 -0.5972
  111OSM    H5F11510   2.229   4.165   9.669  0.7947 -1.9971 -0.1003
  111OSM    H5G11511   2.373   4.091   9.709  0.1552 -0.3444  1.1778
  111OSM    C6F11512   2.391   4.227   9.540  0.1116  0.1145  0.1073
  111OSM    H6F11513   2.501   4.214   9.541 -0.0425 -1.3302  0.7757
  111OSM    H6G11514   2.356   4.330   9.520  1.8217  1.0392  1.5783
  111OSM    C7F11515   2.347   4.119   9.433 -0.1917 -0.0303  0.0274
  111OSM    H7F11516   2.237   4.103   9.439 -0.1532 -1.2451 -1.7482
  111OSM    H7G11517   2.404   4.025   9.449  2.0423  1.1298 -0.6620
  111OSM    C8F11518   2.371   4.172   9.299  0.1954 -0.3166 -0.4201
  111OSM    H8F11519   2.473   4.216   9.289  0.0491  0.0200 -0.4563
  111OSM    H8G11520   2.297   4.255   9.293  0.3698 -0.1747 -0.6207
  111OSM    C9F11521   2.352   4.061   9.201  0.4351 -0.3649  1.1716
  111OSM    H9F11522   2.248   4.026   9.193  1.0641 -2.1356 -0.0530
  111OSM   C10F11523   2.438   4.017   9.106  0.5566  0.6158 -0.1336
  111OSM   H10F11524   2.413   3.929   9.045 -0.2412  1.2675 -0.7532
  111OSM   C11F11525   2.583   4.057   9.092 -0.2916 -0.3666 -0.1073
  111OSM   H11F11526   2.655   3.973   9.102  1.5213  1.1089 -0.2593
  111OSM   H11G11527   2.631   4.130   9.160  2.5809 -2.2444  0.0790
  111OSM   C12F11528   2.607   4.102   8.943 -0.3406 -0.3042 -0.3755
  111OSM   H12F11529   2.542   4.191   8.927 -0.3472 -0.4794 -1.4323
  111OSM   H12G11530   2.560   4.026   8.877 -2.2801  1.5663 -1.2815
  111OSM   C13F11531   2.747   4.137   8.904 -0.2703  0.1065  0.0281
  111OSM   H13F11532   2.808   4.044   8.896 -1.3739 -0.4637 -3.0218
  111OSM   H13G11533   2.793   4.209   8.975  0.5281 -0.4943  0.1367
  111OSM   C14F11534   2.764   4.203   8.764  0.4168 -0.5856  0.5060
  111OSM   H14F11535   2.719   4.305   8.769 -1.7526 -1.4470 -0.1619
  111OSM   H14G11536   2.715   4.150   8.680  1.6484  1.5438 -1.7120
  111OSM   C15F11537   2.913   4.215   8.720  0.3075 -0.1833 -0.2681
  111OSM   H15F11538   2.952   4.111   8.716 -1.3470 -1.0463  3.0585
  111OSM   H15G11539   2.969   4.270   8.799  4.8199 -3.1082 -1.0339
  111OSM   C16F11540   2.932   4.278   8.588 -0.2490  0.7236 -0.4994
  111OSM   H16F11541   2.859   4.258   8.507 -1.0872  3.6629 -0.5733
  111OSM   H16G11542   3.033   4.245   8.555 -1.5618 -2.9617 -1.2894
  111OSM   C17F11543   2.946   4.426   8.576  0.2342 -0.1893  0.2388
  111OSM   H17F11544   2.859   4.472   8.627 -0.3110 -1.2229  0.2530
  111OSM   H17G11545   2.943   4.453   8.469  1.6429 -2.2996 -0.3872
  111OSM   C18F11546   3.066   4.490   8.642 -0.2331  0.3966  0.2819
  111OSM   H18F11547   3.161   4.436   8.620 -0.3119 -0.4212  1.8043
  111OSM   H18G11548   3.060   4.491   8.753 -1.1777 -1.0636  0.2753
  111OSM   H18H11549   3.061   4.595   8.607 -0.4834  1.2203  2.6289
  112OSM      N11550   1.989   3.167  10.823 -0.1945  0.1410 -0.3231
  112OSM    C1511551   1.902   3.067  10.894  0.2944 -0.4074 -0.4042
  112OSM   H15A11552   1.948   3.043  10.989  1.0897 -0.1232 -0.7065
  112OSM   H15B11553   1.892   2.985  10.824 -1.6076  1.6133 -2.6409
  112OSM   H15C11554   1.806   3.113  10.913  0.6938  0.2465  0.0723
  112OSM    C1411555   1.990   3.293  10.900 -0.8051  0.0110  0.8742
  112OSM   H14A11556   1.893   3.337  10.916 -0.3915  1.4548 -0.3691
  112OSM   H14B11557   2.035   3.373  10.843  0.1975 -1.4941 -0.5336
  112OSM   H14C11558   2.048   3.274  10.990 -0.5736 -0.8033  0.5634
  112OSM    C1311559   2.134   3.119  10.808  0.7763  0.4969  0.4358
  112OSM   H13A11560   2.173   3.088  10.904 -0.9277 -0.5298  0.8427
  112OSM   H13B11561   2.198   3.182  10.748 -0.1236  0.4745 -0.5982
  112OSM   H13C11562   2.138   3.029  10.749 -0.1637  1.5032 -1.2746
  112OSM    C1211563   1.938   3.200  10.690 -0.1263 -0.2249  0.5783
  112OSM   H12A11564   1.995   3.290  10.671 -1.0732  0.6321  1.6832
  112OSM   H12B11565   1.833   3.222  10.702 -0.4166 -1.4861  0.4516
  112OSM    C1111566   1.925   3.086  10.582 -1.0726  0.0519  0.1686
  112OSM   H11A11567   2.028   3.047  10.564 -2.0159 -1.1347 -3.5451
  112OSM   H11B11568   1.895   3.142  10.491  2.2465 -0.9915 -1.7587
  112OSM      P11569   1.675   3.015  10.622  0.0265 -0.2365  0.2421
  112OSM    O1311570   1.618   2.907  10.708 -0.2665 -0.3471  0.8312
  112OSM    O1411571   1.657   3.160  10.672 -0.0904 -0.6753  0.6995
  112OSM    O1111572   1.628   3.002  10.472 -0.6063  0.4305 -0.2243
  112OSM    O1211573   1.825   2.985  10.618  0.3741  0.4334  0.2487
  112OSM    C1S11574   1.700   2.916  10.384  0.0030 -0.5152  0.1967
  112OSM    H1S11575   1.736   2.823  10.433  2.2969 -1.2095 -2.5793
  112OSM    H1T11576   1.787   2.973  10.347  0.2958 -0.8388  0.3771
  112OSM     NF11577   1.671   2.742  10.200  0.3015  0.0905  0.3150
  112OSM    HNF11578   1.736   2.759  10.126  0.5948  2.1941  0.9893
  112OSM    C2S11579   1.611   2.860  10.267 -0.4148 -0.3216  0.2698
  112OSM    H2S11580   1.519   2.821  10.318 -1.0313 -1.1202 -1.3811
  112OSM    C3S11581   1.589   2.978  10.166 -0.3974 -0.1982 -0.0559
  112OSM    H3S11582   1.681   3.028  10.130 -1.1510  0.2303 -1.4444
  112OSM     O311583   1.522   3.086  10.231  0.1216 -0.3225  0.7150
  112OSM    HO311584   1.516   3.050  10.320 -0.7369 -1.3412  0.2760
  112OSM    C4S11585   1.509   2.928  10.046 -0.6308 -0.3191 -0.0198
  112OSM    H4S11586   1.575   2.922   9.958 -1.9360  0.8206 -1.1261
  112OSM    C5S11587   1.376   2.904  10.036  0.3336  0.5486  0.0631
  112OSM    H5S11588   1.314   2.916  10.126  1.0548 -0.4101  0.7113
  112OSM    C6S11589   1.294   2.858   9.915  0.0215 -0.6457  0.2718
  112OSM    H6S11590   1.192   2.899   9.900  0.6703  0.1906 -2.4625
  112OSM    H6T11591   1.285   2.747   9.917  1.1153 -0.7438  0.8295
  112OSM    C7S11592   1.373   2.893   9.786  0.2825  0.1168  0.0901
  112OSM    H7S11593   1.475   2.850   9.788  0.5765  0.7986  1.9918
  112OSM    H7T11594   1.375   3.004   9.779  1.9422  0.2126  1.3989
  112OSM    C8S11595   1.297   2.842   9.658  0.2698  0.2387  0.2208
  112OSM    H8S11596   1.196   2.887   9.654 -0.1977 -0.8071  0.1731
  112OSM    H8T11597   1.273   2.735   9.671 -1.2896  0.6035  0.5563
  112OSM    C9S11598   1.378   2.865   9.528  0.0817 -0.5285  0.2658
  112OSM    H9S11599   1.483   2.831   9.542  0.4108 -0.7987 -2.4158
  112OSM    H9T11600   1.375   2.975   9.516  2.4807 -0.4219  0.1114
  112OSM   C10S11601   1.317   2.783   9.413  0.3820  0.1043 -0.0520
  112OSM   H10S11602   1.213   2.809   9.384  0.2030  0.2813  0.7343
  112OSM   H10T11603   1.329   2.675   9.436 -0.3749 -0.5132 -2.3586
  112OSM   C11S11604   1.393   2.811   9.279  0.2987  0.0251  0.3170
  112OSM   H11S11605   1.499   2.778   9.285  0.3769 -0.2267 -1.7149
  112OSM   H11T11606   1.399   2.918   9.252  0.5209 -0.2194 -0.6354
  112OSM   C12S11607   1.322   2.746   9.157 -0.2224  0.1702  0.5098
  112OSM   H12S11608   1.216   2.779   9.149 -0.2866 -0.0996  0.2456
  112OSM   H12T11609   1.322   2.636   9.169 -0.0156 -0.0703 -1.3248
  112OSM   C13S11610   1.395   2.757   9.022  0.1211 -0.1507 -0.2823
  112OSM   H13S11611   1.428   2.859   8.991 -1.3856  0.1885 -0.8381
  112OSM   H13T11612   1.335   2.715   8.938 -1.8273 -2.9041  2.2568
  112OSM   C14S11613   1.518   2.676   9.015  0.5733 -0.2985  0.2944
  112OSM   H14S11614   1.508   2.573   9.055 -0.2940  0.2540  1.5587
  112OSM   H14T11615   1.600   2.723   9.074 -0.2341  0.0640  1.1335
  112OSM   C15S11616   1.569   2.672   8.863 -0.7236 -0.3362 -0.8352
  112OSM   H15S11617   1.570   2.775   8.821  1.7742  0.2844  0.5284
  112OSM   H15T11618   1.499   2.608   8.805 -1.5822  1.0816 -1.4219
  112OSM   C16S11619   1.716   2.631   8.844  0.2493  0.4449 -0.7803
  112OSM   H16S11620   1.726   2.523   8.867 -1.8755 -0.2716 -2.8646
  112OSM   H16T11621   1.776   2.684   8.921 -0.3876 -1.9762  1.5076
  112OSM   C17S11622   1.780   2.655   8.701 -0.3212 -0.7332 -0.4096
  112OSM   H17S11623   1.706   2.613   8.629  1.8609 -3.2532 -1.3039
  112OSM   H17T11624   1.878   2.603   8.698  0.0827  0.0526 -1.2052
  112OSM   C18S11625   1.798   2.800   8.664  0.0954 -0.1492  0.5275
  112OSM   H18S11626   1.835   2.806   8.559 -2.0330  2.2970 -0.1978
  112OSM   H18T11627   1.876   2.850   8.725  0.0886  1.5467 -0.7573
  112OSM   H18U11628   1.703   2.858   8.665  0.8614  1.1501  1.4590
  112OSM    C1F11629   1.695   2.626  10.266  0.7713  0.0585  0.3078
  112OSM     OF11630   1.618   2.581  10.350 -0.2416 -0.3539  0.3276
  112OSM    C2F11631   1.810   2.546  10.225 -0.5612  0.7134  0.0593
  112OSM    H2F11632   1.886   2.522  10.302  0.3561  0.3897 -0.9153
  112OSM    H2G11633   1.867   2.604  10.149  0.4053 -0.4950 -0.1803
  112OSM    C3F11634   1.775   2.415  10.164  0.3737  0.2070  0.2073
  112OSM    H3F11635   1.691   2.439  10.095  0.2416  2.7345  1.1277
  112OSM    H3G11636   1.745   2.347  10.247  0.5947 -0.6645 -0.4156
  112OSM    C4F11637   1.896   2.347  10.092  0.2007  0.4665  0.8009
  112OSM    H4F11638   1.989   2.354  10.153  2.2580  0.5327 -2.1062
  112OSM    H4G11639   1.922   2.410  10.003  1.1475 -0.9063  0.0567
  112OSM    C5F11640   1.864   2.202  10.041  0.1897 -0.5771 -0.2987
  112OSM    H5F11641   1.827   2.142  10.127 -0.1826 -1.0485 -0.7831
  112OSM    H5G11642   1.959   2.160  10.003  0.3158  0.5121 -1.2510
  112OSM    C6F11643   1.772   2.196   9.916 -0.0391 -0.1196 -0.6775
  112OSM    H6F11644   1.791   2.291   9.861 -1.5583  2.2182  2.4820
  112OSM    H6G11645   1.669   2.191   9.958  0.1575 -2.2029 -0.3669
  112OSM    C7F11646   1.803   2.076   9.814 -0.0839 -0.4745  0.0032
  112OSM    H7F11647   1.746   1.988   9.850 -1.5076  0.8313  1.1349
  112OSM    H7G11648   1.910   2.047   9.805  0.2319  0.7749 -0.4799
  112OSM    C8F11649   1.741   2.115   9.671 -0.0319  0.8014 -0.5556
  112OSM    H8F11650   1.645   2.171   9.678 -0.0229  0.8194 -0.5790
  112OSM    H8G11651   1.728   2.014   9.627 -0.5341  0.7666 -0.3353
  112OSM    C9F11652   1.840   2.195   9.587 -0.8753 -0.2823 -0.2507
  112OSM    H9F11653   1.933   2.233   9.632  0.3448 -0.1625 -2.7091
  112OSM   C10F11654   1.810   2.226   9.465  0.2434 -0.1499 -0.3590
  112OSM   H10F11655   1.883   2.274   9.398  1.1727  1.0396  1.4364
  112OSM   C11F11656   1.687   2.177   9.398  0.5931 -0.4267  0.3118
  112OSM   H11F11657   1.606   2.156   9.471  0.9798 -0.6068  0.6941
  112OSM   H11G11658   1.711   2.082   9.345  0.7201  0.7091 -1.7873
  112OSM   C12F11659   1.615   2.279   9.302 -0.7080  0.0438 -1.3681
  112OSM   H12F11660   1.586   2.373   9.354  1.7076  1.5051 -2.5020
  112OSM   H12G11661   1.522   2.225   9.274 -0.2819 -1.4155 -0.1399
  112OSM   C13F11662   1.684   2.314   9.172 -0.3995 -1.2861 -0.7215
  112OSM   H13F11663   1.761   2.393   9.187  0.4523 -2.1197 -0.6868
  112OSM   H13G11664   1.603   2.362   9.113 -0.1382  2.0377  1.3262
  112OSM   C14F11665   1.745   2.190   9.104  0.0222  0.1486  0.0388
  112OSM   H14F11666   1.670   2.109   9.098 -2.4968  2.1404  1.9387
  112OSM   H14G11667   1.827   2.158   9.172  0.0725 -2.1375 -1.0073
  112OSM   C15F11668   1.807   2.212   8.965  0.1064  0.3065 -0.5760
  112OSM   H15F11669   1.897   2.147   8.962 -0.5669 -0.6071 -1.9817
  112OSM   H15G11670   1.847   2.316   8.966 -1.0773  0.7767 -0.2316
  112OSM   C16F11671   1.711   2.194   8.854  0.4267 -0.3948  0.4329
  112OSM   H16F11672   1.633   2.270   8.876  1.5614  0.9167  0.1494
  112OSM   H16G11673   1.653   2.101   8.837 -1.1411  0.5451  0.4531
  112OSM   C17F11674   1.786   2.238   8.723 -0.0563  0.3106  0.7180
  112OSM   H17F11675   1.876   2.175   8.705 -1.2913 -1.0012 -1.2356
  112OSM   H17G11676   1.822   2.342   8.735  1.1483  0.0844 -0.6110
  112OSM   C18F11677   1.696   2.255   8.599 -0.6574  0.3133  0.1113
  112OSM   H18F11678   1.756   2.298   8.517 -1.4091 -0.3741 -0.8200
  112OSM   H18G11679   1.609   2.324   8.612  0.6507  1.8487  1.1590
  112OSM   H18H11680   1.665   2.153   8.568 -2.5699  1.1535 -0.9235
  113OSM      N11681   1.304   2.477  10.967  0.2148 -0.2140 -0.1758
  113OSM    C1511682   1.429   2.550  10.984  0.0204  0.2031 -0.0303
  113OSM   H15A11683   1.508   2.518  10.917  0.2255  2.8783 -1.2010
  113OSM   H15B11684   1.466   2.545  11.085  1.7211  1.7531 -0.5274
  113OSM   H15C11685   1.414   2.653  10.956 -0.5436 -0.1586 -1.1375
  113OSM    C1411686   1.311   2.358  11.047 -0.7932  0.0463 -0.6021
  113OSM   H14A11687   1.232   2.284  11.042  1.7849 -2.8447 -1.0900
  113OSM   H14B11688   1.313   2.388  11.151 -1.7763  0.2370 -0.6259
  113OSM   H14C11689   1.401   2.311  11.010 -0.3596  1.4057 -1.3285
  113OSM    C1311690   1.186   2.559  11.009 -0.1695  0.0532  1.2570
  113OSM   H13A11691   1.100   2.494  11.015 -0.2037  0.1560  2.0175
  113OSM   H13B11692   1.160   2.633  10.935  1.2591  0.5784  1.2419
  113OSM   H13C11693   1.206   2.612  11.101  2.3634  0.3031  0.6305
  113OSM    C1211694   1.292   2.444  10.818  0.2765  0.2603  0.5691
  113OSM   H12A11695   1.384   2.400  10.784 -0.7857  0.3859 -2.8768
  113OSM   H12B11696   1.297   2.535  10.761  1.9245 -1.4488 -2.2713
  113OSM    C1111697   1.170   2.351  10.777  0.2011  0.3465  0.4564
  113OSM   H11A11698   1.167   2.357  10.666  0.8419 -1.4155  0.3087
  113OSM   H11B11699   1.076   2.396  10.815 -0.9333 -1.4526 -0.0913
  113OSM      P11700   1.284   2.119  10.746  0.0842  0.2446 -0.4719
  113OSM    O1311701   1.285   2.141  10.600 -0.4562 -0.4068  0.0438
  113OSM    O1411702   1.416   2.112  10.812  0.1025  0.2754 -0.1298
  113OSM    O1111703   1.214   1.977  10.772 -0.0608  0.2350 -0.8011
  113OSM    O1211704   1.180   2.219  10.817 -0.2396 -0.0937 -0.3476
  113OSM    C1S11705   1.114   1.934  10.681 -0.0749  0.1900 -0.2202
  113OSM    H1S11706   1.043   2.010  10.642  1.4331  1.7412 -0.1070
  113OSM    H1T11707   1.042   1.872  10.737  0.3238  0.3762  0.5096
  113OSM     NF11708   1.056   1.800  10.466  0.4513  0.0369 -0.6255
  113OSM    HNF11709   1.017   1.711  10.487  1.6340 -0.8924 -2.1215
  113OSM    C2S11710   1.162   1.843  10.561  0.9078  0.7137 -0.0262
  113OSM    H2S11711   1.243   1.895  10.506  1.8945 -1.7919 -1.0789
  113OSM    C3S11712   1.235   1.717  10.616  0.0328 -0.2573  0.2812
  113OSM    H3S11713   1.158   1.660  10.673 -0.0387  0.4159  0.8676
  113OSM     O311714   1.334   1.738  10.718  0.0119 -0.0749  0.3181
  113OSM    HO311715   1.315   1.818  10.768 -0.8340 -0.2777  0.3301
  113OSM    C4S11716   1.289   1.630  10.515 -0.0422 -0.4676  0.9350
  113OSM    H4S11717   1.224   1.548  10.482 -2.7891  1.6380  0.7836
  113OSM    C5S11718   1.404   1.651  10.447  0.1779  0.4632 -0.5164
  113OSM    H5S11719   1.460   1.743  10.470  1.9748 -0.0885 -2.3669
  113OSM    C6S11720   1.464   1.574  10.341 -0.1525  0.4448  0.0529
  113OSM    H6S11721   1.432   1.468  10.351 -1.4515  0.7771 -0.4601
  113OSM    H6T11722   1.572   1.589  10.363 -0.0895  2.5754 -1.3138
  113OSM    C7S11723   1.448   1.638  10.205  0.6508  0.0182 -0.2700
  113OSM    H7S11724   1.474   1.746  10.209 -0.8011  0.4367 -1.3558
  113OSM    H7T11725   1.342   1.641  10.174  0.0238 -0.2841  1.7247
  113OSM    C8S11726   1.539   1.564  10.104 -0.3349 -0.7204 -0.4270
  113OSM    H8S11727   1.475   1.485  10.059  1.4052 -2.7862  0.5475
  113OSM    H8T11728   1.621   1.508  10.154 -0.2159  1.5472  2.1118
  113OSM    C9S11729   1.595   1.650   9.991  0.3013 -0.1103  0.5401
  113OSM    H9S11730   1.655   1.736  10.028  1.7564 -0.3312 -1.1513
  113OSM    H9T11731   1.508   1.688   9.933  0.6130  0.4292  0.4248
  113OSM   C10S11732   1.700   1.589   9.894  0.2155  1.0383  0.9656
  113OSM   H10S11733   1.795   1.576   9.950  0.2340 -0.2963  0.6476
  113OSM   H10T11734   1.711   1.661   9.811  1.3822 -1.1891 -0.9372
  113OSM   C11S11735   1.651   1.455   9.835  0.1739  1.2238  0.5322
  113OSM   H11S11736   1.617   1.397   9.923 -0.5797  1.9705  0.7430
  113OSM   H11T11737   1.742   1.407   9.792 -0.3592  0.4996  0.1873
  113OSM   C12S11738   1.537   1.466   9.733  0.0903 -0.5940 -0.2846
  113OSM   H12S11739   1.586   1.498   9.638 -0.2555 -0.7933 -0.5327
  113OSM   H12T11740   1.470   1.543   9.777 -1.1717 -3.1907  2.6343
  113OSM   C13S11741   1.458   1.341   9.704 -0.2414 -0.3138 -0.0996
  113OSM   H13S11742   1.372   1.374   9.642 -0.0443  0.0901 -0.1605
  113OSM   H13T11743   1.417   1.316   9.804 -1.8622  1.7695 -0.1662
  113OSM   C14S11744   1.532   1.219   9.644 -0.6063 -0.2456 -0.1443
  113OSM   H14S11745   1.455   1.139   9.649 -0.5456 -0.2904  0.0841
  113OSM   H14T11746   1.615   1.194   9.712 -0.1406  1.7415  0.0761
  113OSM   C15S11747   1.570   1.228   9.494  0.1830 -0.1095  0.0889
  113OSM   H15S11748   1.636   1.317   9.485 -0.9930  0.7428 -0.3415
  113OSM   H15T11749   1.474   1.237   9.439 -1.4479 -0.9334  2.6341
  113OSM   C16S11750   1.636   1.105   9.440  0.1044  0.6465 -0.2424
  113OSM   H16S11751   1.599   1.014   9.492  0.9283 -1.9757 -3.8319
  113OSM   H16T11752   1.741   1.118   9.475 -0.8608  2.5224  2.2900
  113OSM   C17S11753   1.623   1.081   9.290  0.4012 -0.1795  0.1584
  113OSM   H17S11754   1.690   1.160   9.249 -1.2079  0.1263 -2.0806
  113OSM   H17T11755   1.516   1.099   9.266 -0.2235  0.7286  3.1888
  113OSM   C18S11756   1.661   0.944   9.236  0.1862 -0.4774  0.0970
  113OSM   H18S11757   1.769   0.920   9.253  0.7079  0.4713 -1.6308
  113OSM   H18T11758   1.652   0.934   9.126 -1.2113  0.6377  0.0884
  113OSM   H18U11759   1.601   0.869   9.292 -1.3974  1.5544  1.2242
  113OSM    C1F11760   0.992   1.881  10.387  1.1009  0.4346 -0.7522
  113OSM     OF11761   0.988   2.001  10.410 -0.5791  0.6581  0.1254
  113OSM    C2F11762   0.924   1.814  10.276  0.3886 -0.3348  0.1090
  113OSM    H2F11763   0.871   1.886  10.210 -2.3085 -1.8926  0.4592
  113OSM    H2G11764   0.839   1.751  10.310 -0.7639  1.5326  0.8464
  113OSM    C3F11765   1.012   1.730  10.196 -0.1566  0.8259  0.1698
  113OSM    H3F11766   1.024   1.628  10.238  1.0161  0.2768 -1.3882
  113OSM    H3G11767   1.112   1.777  10.186  0.9236 -1.6684 -1.9071
  113OSM    C4F11768   0.974   1.712  10.046  0.5883 -0.4997 -0.1183
  113OSM    H4F11769   0.979   1.814  10.004 -1.4365  1.2955  3.5484
  113OSM    H4G11770   0.868   1.677  10.038 -0.6236  2.2561  2.1400
  113OSM    C5F11771   1.071   1.629   9.955  0.0148 -0.1393 -0.2345
  113OSM    H5F11772   1.063   1.519   9.974  0.2609  0.0103  0.8065
  113OSM    H5G11773   1.172   1.667   9.981 -0.1527  1.0989 -1.3497
  113OSM    C6F11774   1.061   1.663   9.802 -0.7132 -1.0000  0.3266
  113OSM    H6F11775   1.162   1.647   9.761 -0.7530 -0.2900 -0.0725
  113OSM    H6G11776   1.047   1.772   9.782 -1.2771 -0.9544  0.9127
  113OSM    C7F11777   0.957   1.583   9.717 -0.1047  0.5374 -0.0140
  113OSM    H7F11778   0.853   1.608   9.745 -0.5004  0.3585 -1.2540
  113OSM    H7G11779   0.977   1.474   9.726  3.4437  1.1150  0.5323
  113OSM    C8F11780   0.976   1.604   9.567 -0.3836  0.3534 -0.2028
  113OSM    H8F11781   0.957   1.710   9.537 -0.0578  0.8117  1.1432
  113OSM    H8G11782   0.899   1.549   9.509 -0.8778  1.3460 -0.5209
  113OSM    C9F11783   1.102   1.574   9.500  0.4153 -0.6055  0.3648
  113OSM    H9F11784   1.186   1.629   9.545 -0.7803  2.0633 -0.4466
  113OSM   C10F11785   1.130   1.485   9.406  0.3495  0.0786 -0.6022
  113OSM   H10F11786   1.231   1.475   9.363  0.9949 -0.0309  0.8936
  113OSM   C11F11787   1.041   1.386   9.343  0.2356  0.4462  0.2340
  113OSM   H11F11788   1.046   1.389   9.232 -1.0575 -0.7507  0.1105
  113OSM   H11G11789   0.936   1.398   9.377  0.3938  1.0718  0.5184
  113OSM   C12F11790   1.098   1.245   9.377  0.3275  0.2299 -0.2165
  113OSM   H12F11791   1.209   1.247   9.375  0.3856  3.1475  1.2619
  113OSM   H12G11792   1.057   1.175   9.301 -1.2601  0.5867  0.2715
  113OSM   C13F11793   1.045   1.179   9.507 -0.5312  0.6678  0.6570
  113OSM   H13F11794   1.055   1.070   9.490  1.9934  1.0012 -0.3506
  113OSM   H13G11795   0.939   1.210   9.523 -0.6611  1.8721 -1.9747
  113OSM   C14F11796   1.132   1.204   9.633  0.8742  0.3286 -0.6879
  113OSM   H14F11797   1.127   1.310   9.667 -0.4108 -0.5531  2.1774
  113OSM   H14G11798   1.237   1.177   9.608  2.1992  1.4390  3.0529
  113OSM   C15F11799   1.096   1.130   9.765  0.7689  0.3976 -0.0476
  113OSM   H15F11800   1.099   1.023   9.735  1.1345  0.4363 -0.1517
  113OSM   H15G11801   0.991   1.157   9.788  0.8120 -0.3622  1.1329
  113OSM   C16F11802   1.185   1.155   9.884 -0.0396 -1.2652  0.1240
  113OSM   H16F11803   1.179   1.261   9.917 -0.6762 -0.2856 -2.8965
  113OSM   H16G11804   1.292   1.155   9.853 -0.3563  0.3437 -1.0687
  113OSM   C17F11805   1.171   1.051   9.995 -0.9825 -0.1765 -0.6603
  113OSM   H17F11806   1.190   0.949   9.955 -1.6749 -1.0911  1.2627
  113OSM   H17G11807   1.065   1.051  10.025 -0.2758  1.4040  2.1771
  113OSM   C18F11808   1.258   1.067  10.121  0.6238  0.4592 -0.4977
  113OSM   H18F11809   1.355   1.092  10.072 -0.5024  0.0961 -3.0288
  113OSM   H18G11810   1.265   0.976  10.185  0.1206 -0.6102 -1.9248
  113OSM   H18H11811   1.221   1.154  10.179 -0.6758  1.0355 -2.1331
  114OSM      N11812   2.248   0.505  11.563  0.8765  0.6879  0.7838
  114OSM    C1511813   2.331   0.613  11.617  0.7998  0.8932 -0.1959
  114OSM   H15A11814   2.436   0.607  11.591  0.9098  1.1076  0.1980
  114OSM   H15B11815   2.309   0.610  11.722 -1.7124  1.6862 -0.6516
  114OSM   H15C11816   2.300   0.705  11.569  0.2004  0.0858 -1.4058
  114OSM    C1411817   2.291   0.374  11.631 -0.6468 -0.2535 -0.3476
  114OSM   H14A11818   2.391   0.354  11.595  0.0148  1.3147  0.5070
  114OSM   H14B11819   2.227   0.295  11.595 -3.8338  2.2404 -0.6116
  114OSM   H14C11820   2.286   0.362  11.738 -0.0270 -0.5552 -0.3468
  114OSM    C1311821   2.097   0.537  11.591  0.4293  0.3655 -0.2623
  114OSM   H13A11822   2.065   0.621  11.531 -0.6468  1.4829  1.7603
  114OSM   H13B11823   2.088   0.557  11.697 -0.8051  2.0840 -0.6408
  114OSM   H13C11824   2.040   0.451  11.561  1.5468 -0.7505  0.7421
  114OSM    C1211825   2.257   0.491  11.411 -0.7075 -0.2465 -0.3139
  114OSM   H12A11826   2.192   0.410  11.381 -2.3907  1.1159 -0.4971
  114OSM   H12B11827   2.358   0.458  11.393  0.0363  1.0570  1.1930
  114OSM    C1111828   2.229   0.603  11.308  0.3356  0.5428 -0.6161
  114OSM   H11A11829   2.122   0.633  11.304  0.3380  0.6243 -0.1308
  114OSM   H11B11830   2.250   0.564  11.207  0.0205  0.8858 -0.8176
  114OSM      P11831   2.463   0.727  11.311 -0.1036 -0.0597 -0.1157
  114OSM    O1311832   2.529   0.803  11.424 -0.4148  0.2650  0.1036
  114OSM    O1411833   2.508   0.586  11.303 -0.6160  0.2383  0.6288
  114OSM    O1111834   2.490   0.803  11.177  0.3340  1.0328  0.2144
  114OSM    O1211835   2.304   0.722  11.339 -0.0931  0.5512  0.6194
  114OSM    C1S11836   2.384   0.820  11.080  0.6916 -0.4206 -0.2495
  114OSM    H1S11837   2.343   0.923  11.079 -0.8698 -1.0173 -1.0994
  114OSM    H1T11838   2.309   0.739  11.095 -0.2595  0.4449 -0.2845
  114OSM     NF11839   2.325   0.846  10.840  0.3188  0.3497 -0.4079
  114OSM    HNF11840   2.256   0.778  10.815 -2.1245  1.0770  3.5508
  114OSM    C2S11841   2.431   0.799  10.932 -0.0186  0.2912 -0.6749
  114OSM    H2S11842   2.520   0.862  10.912  0.6681 -0.6529 -0.6455
  114OSM    C3S11843   2.476   0.652  10.913  0.1240 -0.2974  0.3843
  114OSM    H3S11844   2.388   0.585  10.924  0.5520 -0.5005  3.4250
  114OSM     O311845   2.579   0.614  11.000 -0.1391 -0.0944 -0.2514
  114OSM    HO311846   2.567   0.682  11.066 -0.0082  0.2135 -0.5432
  114OSM    C4S11847   2.530   0.646  10.771  0.3160 -0.5581  0.4716
  114OSM    H4S11848   2.627   0.693  10.750 -1.5688  3.5218 -0.0684
  114OSM    C5S11849   2.466   0.580  10.674 -0.2518  0.5488 -0.1861
  114OSM    H5S11850   2.381   0.518  10.708 -0.1976  0.9448  0.6818
  114OSM    C6S11851   2.524   0.550  10.536  0.4593  0.1208 -1.3123
  114OSM    H6S11852   2.454   0.579  10.454 -1.2350 -0.2639 -0.0626
  114OSM    H6T11853   2.534   0.441  10.520 -1.7902  0.1760 -3.9254
  114OSM    C7S11854   2.657   0.613  10.498  0.0735 -0.9156 -0.3577
  114OSM    H7S11855   2.736   0.553  10.546  2.5206  1.6562 -0.8840
  114OSM    H7T11856   2.662   0.718  10.534  2.4403 -0.5489 -1.5520
  114OSM    C8S11857   2.678   0.614  10.348  0.3264  0.4751 -0.7087
  114OSM    H8S11858   2.588   0.644  10.290 -0.0265 -1.3901 -1.1981
  114OSM    H8T11859   2.699   0.506  10.330  0.4247 -0.0685  2.2037
  114OSM    C9S11860   2.801   0.690  10.304  0.1184 -0.2169  0.5809
  114OSM    H9S11861   2.882   0.676  10.380  1.9332 -0.9926 -1.3906
  114OSM    H9T11862   2.771   0.797  10.298  0.6729 -0.1326 -2.0256
  114OSM   C10S11863   2.866   0.653  10.172 -0.0454 -0.2771 -0.3566
  114OSM   H10S11864   2.796   0.672  10.087  0.7974  0.3318 -0.9428
  114OSM   H10T11865   2.884   0.544  10.176 -1.5755 -0.6789 -2.4072
  114OSM   C11S11866   3.001   0.726  10.164 -0.2798 -0.4846  0.2497
  114OSM   H11S11867   3.079   0.690  10.234 -0.8706  1.7574  2.1696
  114OSM   H11T11868   2.974   0.829  10.195 -0.2329 -0.3180 -0.2525
  114OSM   C12S11869   3.059   0.742  10.025  0.5156 -0.2907  0.0238
  114OSM   H12S11870   2.971   0.744   9.958 -0.4390 -0.6593  1.2418
  114OSM   H12T11871   3.111   0.645  10.005 -1.6079 -1.5283  0.1718
  114OSM   C13S11872   3.144   0.868   9.996 -0.0599 -1.3460 -0.4161
  114OSM   H13S11873   3.168   0.878   9.888 -0.2322 -0.4622 -0.3800
  114OSM   H13T11874   3.244   0.856  10.042 -0.3444 -3.1553 -0.2234
  114OSM   C14S11875   3.071   1.005  10.027  0.8200  0.3047  0.6207
  114OSM   H14S11876   3.131   1.096  10.010 -1.4124  1.6985 -0.2838
  114OSM   H14T11877   3.048   1.004  10.136 -0.5992 -0.0221  0.3384
  114OSM   C15S11878   2.938   1.028   9.954 -0.0395 -0.3325  0.1080
  114OSM   H15S11879   2.883   1.119   9.988 -2.2872 -0.7892 -1.9967
  114OSM   H15T11880   2.881   0.935   9.979 -1.3939 -0.6025 -3.3408
  114OSM   C16S11881   2.927   1.032   9.799 -0.0206 -0.3413 -0.2946
  114OSM   H16S11882   2.975   0.942   9.756  1.4121 -0.3871  1.3111
  114OSM   H16T11883   2.985   1.117   9.758 -0.1227 -0.4032 -0.5719
  114OSM   C17S11884   2.789   1.056   9.754  0.2318  0.8133 -0.5300
  114OSM   H17S11885   2.736   1.135   9.812  0.8764  1.2858 -0.5857
  114OSM   H17T11886   2.738   0.959   9.775  1.1589 -0.2837 -3.0268
  114OSM   C18S11887   2.772   1.086   9.607  0.3775 -0.1762  0.2691
  114OSM   H18S11888   2.662   1.086   9.592  0.3190  1.8685  0.5055
  114OSM   H18T11889   2.821   1.011   9.541 -0.1238  1.1630 -1.7317
  114OSM   H18U11890   2.822   1.180   9.577  1.8737 -0.6722  1.1189
  114OSM    C1F11891   2.311   0.968  10.819  0.3936 -0.2880 -0.6672
  114OSM     OF11892   2.379   1.060  10.866  0.0573 -0.1468 -0.5282
  114OSM    C2F11893   2.195   0.995  10.744 -0.2194 -0.5535  0.5134
  114OSM    H2F11894   2.139   1.085  10.775 -0.2337 -0.4747  0.2636
  114OSM    H2G11895   2.121   0.913  10.735 -1.5650  0.2614  3.2871
  114OSM    C3F11896   2.241   1.044  10.606 -0.3716  0.2189 -0.2855
  114OSM    H3F11897   2.314   1.128  10.608  1.6806 -1.4933  0.7573
  114OSM    H3G11898   2.141   1.071  10.565 -0.4545  0.5797  0.1476
  114OSM    C4F11899   2.316   0.937  10.521 -0.3070  0.7786  0.1763
  114OSM    H4F11900   2.259   0.842  10.514 -0.3781  0.9382 -2.1742
  114OSM    H4G11901   2.420   0.917  10.552 -0.8935 -1.8538  0.6543
  114OSM    C5F11902   2.321   0.996  10.381 -0.5499  0.1276  0.4613
  114OSM    H5F11903   2.385   1.084  10.402 -2.3268  1.5813  0.0898
  114OSM    H5G11904   2.224   1.029  10.336 -0.8066  0.3016  1.1326
  114OSM    C6F11905   2.388   0.899  10.279 -0.4307  0.5455 -0.8423
  114OSM    H6F11906   2.313   0.829  10.238  0.8778 -1.6201  0.2619
  114OSM    H6G11907   2.470   0.840  10.326 -0.9348  0.4426 -0.0696
  114OSM    C7F11908   2.452   0.969  10.160  0.2896  0.2031 -0.1229
  114OSM    H7F11909   2.531   1.033  10.205 -1.0210  0.9356  1.2232
  114OSM    H7G11910   2.377   1.032  10.107  2.0982  1.8794 -0.8448
  114OSM    C8F11911   2.515   0.877  10.056  0.3364 -0.3341 -0.3731
  114OSM    H8F11912   2.597   0.813  10.095  0.9314  1.8404  2.1881
  114OSM    H8G11913   2.560   0.944   9.980 -0.2036  1.1343  0.5485
  114OSM    C9F11914   2.419   0.794   9.980  0.2931  0.1084  0.2809
  114OSM    H9F11915   2.390   0.695  10.019 -1.6549  0.4717 -0.1790
  114OSM   C10F11916   2.361   0.810   9.864  0.5790  0.0135  0.4527
  114OSM   H10F11917   2.306   0.725   9.820  0.0700 -0.0933  1.2857
  114OSM   C11F11918   2.367   0.923   9.768  0.6606  0.1198 -0.0866
  114OSM   H11F11919   2.439   1.003   9.796  3.3573 -1.3350 -2.3014
  114OSM   H11G11920   2.272   0.979   9.757  0.6240  0.3402  1.2296
  114OSM   C12F11921   2.418   0.872   9.632 -0.2016  0.5743  0.6460
  114OSM   H12F11922   2.368   0.781   9.590  0.1940  0.8047 -0.3576
  114OSM   H12G11923   2.526   0.852   9.643 -0.6215 -2.6569 -0.0095
  114OSM   C13F11924   2.412   0.986   9.525  0.2765 -0.2430  0.1318
  114OSM   H13F11925   2.453   1.078   9.572 -0.7585  0.5652 -0.5118
  114OSM   H13G11926   2.304   1.005   9.509  0.0989  0.2401  1.7467
  114OSM   C14F11927   2.479   0.969   9.393 -0.2158  0.0468 -0.0618
  114OSM   H14F11928   2.438   0.879   9.340 -0.1434  0.6755 -1.2138
  114OSM   H14G11929   2.587   0.958   9.415 -0.3256  0.1033  0.5105
  114OSM   C15F11930   2.461   1.093   9.309 -0.8395 -0.0576 -0.3375
  114OSM   H15F11931   2.510   1.175   9.366 -2.8326  1.0052 -0.0481
  114OSM   H15G11932   2.356   1.127   9.301 -0.2944  1.5694 -1.0370
  114OSM   C16F11933   2.510   1.067   9.168  0.3435  0.0797 -0.6336
  114OSM   H16F11934   2.612   1.023   9.171  0.7174  0.9659  0.5691
  114OSM   H16G11935   2.526   1.160   9.110  5.6018 -1.7171 -2.6165
  114OSM   C17F11936   2.423   0.973   9.085  0.2721  0.2283 -0.0482
  114OSM   H17F11937   2.318   0.995   9.111 -0.0678  1.2122 -2.0545
  114OSM   H17G11938   2.432   0.868   9.119  0.2478  0.2701  0.0866
  114OSM   C18F11939   2.450   0.982   8.937  0.5933  0.0141 -0.2079
  114OSM   H18F11940   2.435   1.090   8.916 -0.0049  0.3237  1.6256
  114OSM   H18G11941   2.373   0.925   8.881 -0.2661  0.5645  0.3829
  114OSM   H18H11942   2.551   0.950   8.904  0.5012  0.0662 -0.5374
  115OSM      N11943   4.068   1.716   5.835 -0.4237  0.3376  0.9588
  115OSM    C1511944   4.041   1.857   5.793 -0.3853 -0.5491  0.5768
  115OSM   H15A11945   4.026   1.860   5.686  3.5747 -0.6975 -0.1276
  115OSM   H15B11946   4.117   1.930   5.811 -1.1599  0.9583 -1.9055
  115OSM   H15C11947   3.959   1.905   5.844 -1.2667  0.0602 -1.3246
  115OSM    C1411948   3.954   1.629   5.788 -0.0542 -0.0091  0.1089
  115OSM   H14A11949   3.872   1.650   5.855  1.0020  1.0613  1.1202
  115OSM   H14B11950   3.975   1.526   5.814  2.2564  0.4737  0.3593
  115OSM   H14C11951   3.934   1.646   5.684 -1.6353 -1.6312  0.0895
  115OSM    C1311952   4.194   1.661   5.772 -0.2433 -0.3081  0.0395
  115OSM   H13A11953   4.170   1.638   5.669  0.3760 -2.2659  0.2819
  115OSM   H13B11954   4.227   1.568   5.816 -1.8167 -2.4050 -2.8262
  115OSM   H13C11955   4.276   1.731   5.778  0.1355 -0.8429  1.7274
  115OSM    C1211956   4.072   1.709   5.990 -0.7178  0.7585  0.0415
  115OSM   H12A11957   4.168   1.745   6.024  0.3369  0.5887 -2.5190
  115OSM   H12B11958   4.057   1.604   6.012 -0.4058  0.3994 -1.3213
  115OSM    C1111959   3.964   1.789   6.067  0.2950  0.0081  0.3888
  115OSM   H11A11960   3.975   1.897   6.046  0.8727 -0.5045 -2.2793
  115OSM   H11B11961   3.986   1.785   6.176  1.1676  0.2243  0.2274
  115OSM      P11962   3.711   1.839   6.085  0.1369 -0.2614  0.0443
  115OSM    O1311963   3.751   1.977   6.046 -0.4046  0.1401 -0.0133
  115OSM    O1411964   3.582   1.795   6.015  0.2407  0.8412 -0.2385
  115OSM    O1111965   3.695   1.825   6.241 -0.4098  0.5928  0.5306
  115OSM    O1211966   3.828   1.741   6.051 -0.1384  0.2969 -0.2957
  115OSM    C1S11967   3.684   1.700   6.303 -0.0789 -0.2091 -0.0107
  115OSM    H1S11968   3.754   1.624   6.263  1.2221 -0.5093  2.6228
  115OSM    H1T11969   3.579   1.667   6.294  0.9948 -3.2823 -4.7546
  115OSM     NF11970   3.715   1.582   6.518 -0.7401 -0.3621  0.8260
  115OSM    HNF11971   3.633   1.551   6.566  0.0950 -1.9920  1.2611
  115OSM    C2S11972   3.709   1.716   6.456  0.1910  0.5145  0.1786
  115OSM    H2S11973   3.813   1.754   6.468  0.0932  0.5054  1.1577
  115OSM    C3S11974   3.606   1.812   6.535  0.0159  0.4262  0.1242
  115OSM    H3S11975   3.505   1.770   6.517  0.3481 -0.0275 -0.7760
  115OSM     O311976   3.612   1.943   6.481 -0.0276  0.4808  0.2874
  115OSM    HO311977   3.678   1.935   6.411  1.1492  1.7339  1.1976
  115OSM    C4S11978   3.633   1.812   6.684  0.0652 -0.8865 -0.6573
  115OSM    H4S11979   3.584   1.731   6.741 -0.1120  0.8129  1.7773
  115OSM    C5S11980   3.712   1.894   6.755 -0.4248 -0.2321  0.2902
  115OSM    H5S11981   3.770   1.967   6.696 -0.3994 -0.6184 -0.1669
  115OSM    C6S11982   3.728   1.896   6.905 -0.2108  0.0423 -0.3950
  115OSM    H6S11983   3.660   1.968   6.954  2.1407  1.9450  0.3083
  115OSM    H6T11984   3.826   1.944   6.928 -0.2197 -1.2954  2.9697
  115OSM    C7S11985   3.713   1.764   6.983 -0.6095 -0.1472 -0.2400
  115OSM    H7S11986   3.783   1.750   7.068 -1.6079 -1.2778  0.4255
  115OSM    H7T11987   3.734   1.677   6.916  0.1636 -0.3992  0.3127
  115OSM    C8S11988   3.573   1.740   7.049 -0.1855 -1.1908 -0.5710
  115OSM    H8S11989   3.489   1.759   6.980 -3.1649 -0.8730  2.8419
  115OSM    H8T11990   3.559   1.822   7.124  1.4827 -0.9761 -0.4488
  115OSM    C9S11991   3.554   1.608   7.114  0.5211  0.9672 -0.0079
  115OSM    H9S11992   3.556   1.534   7.031 -2.6045  2.4968 -1.5993
  115OSM    H9T11993   3.454   1.608   7.162  1.1304 -2.3404  1.5019
  115OSM   C10S11994   3.645   1.569   7.228  0.3978 -0.2086 -0.3863
  115OSM   H10S11995   3.649   1.657   7.297 -1.2702 -0.0567 -0.4460
  115OSM   H10T11996   3.749   1.547   7.195  0.5513  3.1397 -2.6567
  115OSM   C11S11997   3.591   1.452   7.322 -0.5877 -0.5025  0.0834
  115OSM   H11S11998   3.604   1.349   7.282 -1.2109 -0.1636 -1.0320
  115OSM   H11T11999   3.487   1.482   7.349 -0.0931  2.0455 -0.6006
  115OSM   C12S12000   3.679   1.443   7.445  0.5301 -0.1371  0.4925
  115OSM   H12S12001   3.692   1.546   7.483 -0.0020  0.0607  0.1594
  115OSM   H12T12002   3.774   1.390   7.421 -0.1766 -0.7744 -1.1049
  115OSM   C13S12003   3.611   1.352   7.552 -0.3989 -0.6719 -0.4326
  115OSM   H13S12004   3.591   1.251   7.511  0.0871 -1.5476  1.3993
  115OSM   H13T12005   3.516   1.399   7.586  0.1055 -0.1575  0.2821
  115OSM   C14S12006   3.701   1.349   7.679  0.0167 -0.5051 -1.0535
  115OSM   H14S12007   3.738   1.449   7.712 -0.7410 -1.2842  2.6416
  115OSM   H14T12008   3.790   1.282   7.675  0.4237 -0.0516 -0.1098
  115OSM   C15S12009   3.625   1.317   7.809  0.0066 -0.6705 -0.3058
  115OSM   H15S12010   3.603   1.208   7.816  0.2397 -0.6490  1.0173
  115OSM   H15T12011   3.529   1.371   7.799  1.2710  1.3878 -2.3027
  115OSM   C16S12012   3.694   1.339   7.938 -0.1054  0.2215  0.6104
  115OSM   H16S12013   3.701   1.448   7.958  1.1257  0.8643 -2.6724
  115OSM   H16T12014   3.793   1.289   7.935 -0.0275  0.3837  0.4432
  115OSM   C17S12015   3.629   1.276   8.056  0.4413  0.2700 -0.3381
  115OSM   H17S12016   3.708   1.277   8.134 -1.2625  0.9331  1.4649
  115OSM   H17T12017   3.606   1.171   8.030  0.8363  0.5888 -2.1183
  115OSM   C18S12018   3.506   1.349   8.103  0.1003  0.9511 -0.0634
  115OSM   H18S12019   3.459   1.296   8.189  3.4309 -0.2472  1.1756
  115OSM   H18T12020   3.434   1.348   8.019  0.4207 -0.6263 -0.3464
  115OSM   H18U12021   3.522   1.455   8.133  0.8247  0.6372  0.7178
  115OSM    C1F12022   3.814   1.502   6.483  0.9270 -0.3998 -0.6258
  115OSM     OF12023   3.906   1.542   6.417 -0.5867 -0.6359 -0.5133
  115OSM    C2F12024   3.788   1.357   6.514  0.1573  0.4763 -0.1509
  115OSM    H2F12025   3.828   1.291   6.435 -2.1493 -0.5971 -0.5225
  115OSM    H2G12026   3.678   1.344   6.503  0.0339  2.2415 -1.2906
  115OSM    C3F12027   3.831   1.310   6.654 -0.2178 -0.2798 -0.5676
  115OSM    H3F12028   3.788   1.374   6.733  1.0582 -0.3240  0.1965
  115OSM    H3G12029   3.942   1.323   6.656 -0.3696  1.0211  0.6680
  115OSM    C4F12030   3.802   1.159   6.674 -0.2667 -0.0716 -0.7127
  115OSM    H4F12031   3.819   1.111   6.576  0.0039 -0.6321 -0.3974
  115OSM    H4G12032   3.694   1.158   6.699 -0.9996 -1.2147 -3.5946
  115OSM    C5F12033   3.897   1.093   6.782  0.7174  0.0866  0.4442
  115OSM    H5F12034   4.002   1.111   6.750  0.6583 -1.8153 -0.9788
  115OSM    H5G12035   3.878   0.984   6.772 -1.7808  0.3479  1.6731
  115OSM    C6F12036   3.874   1.150   6.917 -0.1947 -0.2192 -0.4233
  115OSM    H6F12037   3.769   1.157   6.950  0.0606  2.6472  0.0618
  115OSM    H6G12038   3.913   1.254   6.917 -1.5282  0.2945 -1.4816
  115OSM    C7F12039   3.956   1.072   7.017 -0.0737  0.0062  0.0387
  115OSM    H7F12040   4.064   1.067   6.991  0.7546 -0.2780  3.1483
  115OSM    H7G12041   3.910   0.970   7.009  0.8827 -0.4364  0.0567
  115OSM    C8F12042   3.944   1.122   7.154  0.0304 -0.5494 -0.2146
  115OSM    H8F12043   3.838   1.147   7.176  0.4268 -0.0692  1.2757
  115OSM    H8G12044   3.999   1.218   7.166  0.0629 -0.5815 -0.1046
  115OSM    C9F12045   3.993   1.036   7.260 -0.5993  1.1692 -0.8385
  115OSM    H9F12046   4.095   1.000   7.242 -0.3648  1.9180 -1.0383
  115OSM   C10F12047   3.926   0.995   7.372  0.0270  0.1351 -0.1484
  115OSM   H10F12048   3.978   0.925   7.439  1.4838  1.5709  0.2921
  115OSM   C11F12049   3.788   1.030   7.407 -0.1855 -0.5053  0.0466
  115OSM   H11F12050   3.717   1.023   7.322  0.1260 -0.4274 -0.2218
  115OSM   H11G12051   3.786   1.136   7.440  0.0298  0.9300 -3.9395
  115OSM   C12F12052   3.746   0.953   7.524  0.2897 -0.1797 -0.7092
  115OSM   H12F12053   3.745   0.843   7.504  0.2767 -0.0068 -1.7199
  115OSM   H12G12054   3.641   0.977   7.551  0.3794 -1.3153  0.7762
  115OSM   C13F12055   3.837   0.970   7.648 -0.4250 -0.1018  0.1606
  115OSM   H13F12056   3.840   1.079   7.669 -1.1842 -0.0149 -0.1515
  115OSM   H13G12057   3.940   0.933   7.628 -0.1250  1.8146 -2.4786
  115OSM   C14F12058   3.772   0.900   7.772  0.4632 -0.0088  0.1220
  115OSM   H14F12059   3.803   0.793   7.767  0.7333  0.0007  1.3208
  115OSM   H14G12060   3.662   0.911   7.767  0.2430 -2.0187 -0.9297
  115OSM   C15F12061   3.829   0.951   7.900 -0.6036  0.3022 -0.0057
  115OSM   H15F12062   3.795   1.055   7.920  1.4598  1.0570 -0.2083
  115OSM   H15G12063   3.939   0.956   7.894 -0.6530  3.4381 -0.5285
  115OSM   C16F12064   3.787   0.863   8.019  0.2278 -0.7785 -0.2984
  115OSM   H16F12065   3.686   0.820   8.000 -0.2497  0.7826 -1.5842
  115OSM   H16G12066   3.787   0.933   8.105  0.8352 -2.1450  0.8597
  115OSM   C17F12067   3.886   0.746   8.055  0.1547 -0.1388 -0.3184
  115OSM   H17F12068   3.989   0.787   8.042 -0.2552  0.8776 -0.5063
  115OSM   H17G12069   3.879   0.668   7.976 -0.1874 -0.2337 -0.1976
  115OSM   C18F12070   3.890   0.681   8.199 -0.5298 -0.3610  0.1094
  115OSM   H18F12071   3.960   0.595   8.207 -0.8960 -0.5865  0.9808
  115OSM   H18G12072   3.787   0.653   8.230 -0.3343 -1.2760 -0.0275
  115OSM   H18H12073   3.908   0.762   8.273 -1.3778 -2.4106  2.7227
  116OSM      N12074   3.221   0.393   6.421 -0.8299 -0.0488  0.0461
  116OSM    C1512075   3.206   0.475   6.547  0.5265 -0.2205  0.3125
  116OSM   H15A12076   3.284   0.444   6.616  2.7440  0.7383 -1.6272
  116OSM   H15B12077   3.108   0.470   6.591  1.0870 -0.1107  1.6247
  116OSM   H15C12078   3.238   0.578   6.539  1.3530 -0.5424 -0.7365
  116OSM    C1412079   3.132   0.450   6.325  0.8062  0.1629 -0.1015
  116OSM   H14A12080   3.149   0.400   6.231 -0.4434 -1.6411  0.5599
  116OSM   H14B12081   3.145   0.555   6.305  1.2222 -0.5053 -4.1971
  116OSM   H14C12082   3.027   0.436   6.346  0.3845 -0.0868 -2.1852
  116OSM    C1312083   3.365   0.402   6.372  0.4069  0.5448  0.0292
  116OSM   H13A12084   3.444   0.362   6.435 -0.9255 -0.8757  0.8649
  116OSM   H13B12085   3.392   0.503   6.347 -0.8298  0.9474  0.2757
  116OSM   H13C12086   3.368   0.357   6.273 -0.3078 -0.2376  0.3514
  116OSM    C1212087   3.189   0.248   6.453 -0.2210 -0.1507  0.4056
  116OSM   H12A12088   3.090   0.255   6.495  0.1630  1.6181  1.0994
  116OSM   H12B12089   3.258   0.209   6.526  1.8744  0.1266 -1.3124
  116OSM    C1112090   3.192   0.145   6.335 -0.4523  0.7667 -0.1558
  116OSM   H11A12091   3.113   0.152   6.256 -0.4271  0.2283 -0.2376
  116OSM   H11B12092   3.180   0.046   6.384  0.5838 -1.5623 -4.1580
  116OSM      P12093   3.368   0.007   6.207  0.0201 -0.1999  0.8614
  116OSM    O1312094   3.275  -0.042   6.104 -0.3425 -0.6247 -0.2839
  116OSM    O1412095   3.506   0.015   6.160  0.4861  0.4100 -0.5766
  116OSM    O1112096   3.366  -0.084   6.335 -0.0230  0.0139 -0.3276
  116OSM    O1212097   3.317   0.140   6.264  0.2615 -0.0935 -0.2105
  116OSM    C1S12098   3.435  -0.053   6.455 -0.2420  0.3888  0.5994
  116OSM    H1S12099   3.453   0.056   6.471 -0.7805  0.5519  0.1401
  116OSM    H1T12100   3.537  -0.098   6.460  1.1476  3.1511 -0.6382
  116OSM     NF12101   3.429  -0.062   6.704 -0.1985 -0.4515 -0.5925
  116OSM    HNF12102   3.501  -0.125   6.732  0.3100  0.6729  0.7290
  116OSM    C2S12103   3.357  -0.103   6.581 -0.0032  0.3670  0.5828
  116OSM    H2S12104   3.262  -0.046   6.579 -0.9601 -1.2040 -0.5565
  116OSM    C3S12105   3.330  -0.261   6.568 -0.1555 -0.4137 -0.2971
  116OSM    H3S12106   3.425  -0.316   6.582 -0.2570 -0.5475 -0.1440
  116OSM     O312107   3.270  -0.303   6.449  0.0419  0.4879 -0.1799
  116OSM    HO312108   3.280  -0.219   6.403 -1.4157  0.1251 -1.2587
  116OSM    C4S12109   3.234  -0.292   6.685 -0.0259  0.0981  0.3474
  116OSM    H4S12110   3.274  -0.373   6.749  0.1294 -2.7837 -3.0657
  116OSM    C5S12111   3.118  -0.238   6.701  0.9194 -0.1302 -0.5589
  116OSM    H5S12112   3.075  -0.169   6.627 -3.5568 -0.9022  0.9819
  116OSM    C6S12113   3.037  -0.265   6.832 -0.3329 -0.4395  0.0551
  116OSM    H6S12114   2.972  -0.354   6.817 -1.8815  0.5360  0.7514
  116OSM    H6T12115   2.976  -0.175   6.851  0.0743 -0.4995  1.8248
  116OSM    C7S12116   3.137  -0.278   6.952  0.4279 -0.4652  0.6284
  116OSM    H7S12117   3.210  -0.194   6.952  3.4412 -2.8704  0.6780
  116OSM    H7T12118   3.195  -0.373   6.948 -1.2253 -1.4981  0.1291
  116OSM    C8S12119   3.063  -0.279   7.086  0.0410 -0.0481  0.3241
  116OSM    H8S12120   2.994  -0.366   7.090  0.4984 -0.3674  1.8673
  116OSM    H8T12121   3.007  -0.184   7.097 -0.5457 -0.1724 -1.2425
  116OSM    C9S12122   3.153  -0.286   7.205 -0.2739  0.6526 -0.1285
  116OSM    H9S12123   3.194  -0.183   7.211  1.3491  0.0927 -1.0743
  116OSM    H9T12124   3.240  -0.354   7.191  0.3766  0.8414  2.3770
  116OSM   C10S12125   3.087  -0.332   7.343 -0.3232 -0.3591 -0.4733
  116OSM   H10S12126   3.065  -0.438   7.314 -2.3038 -0.0160 -0.3165
  116OSM   H10T12127   2.986  -0.288   7.347 -0.3171 -0.3218 -0.7207
  116OSM   C11S12128   3.175  -0.307   7.473 -0.0195  0.1544 -0.5269
  116OSM   H11S12129   3.153  -0.212   7.525  1.6091 -2.0732  4.9337
  116OSM   H11T12130   3.282  -0.311   7.441 -0.1193 -2.2696 -0.7477
  116OSM   C12S12131   3.148  -0.426   7.565  0.1107 -0.2205  0.4477
  116OSM   H12S12132   3.139  -0.526   7.517 -1.4564 -0.1540  0.5357
  116OSM   H12T12133   3.040  -0.412   7.586 -0.5123  0.9650 -2.9410
  116OSM   C13S12134   3.236  -0.439   7.689  0.0388  0.1312  0.0734
  116OSM   H13S12135   3.273  -0.337   7.713  1.3192 -0.1550 -0.6006
  116OSM   H13T12136   3.321  -0.500   7.652  0.2171 -0.0935  0.8471
  116OSM   C14S12137   3.150  -0.486   7.808  0.7236 -0.6076  0.0411
  116OSM   H14S12138   3.082  -0.570   7.782 -1.4738  1.2408 -0.4206
  116OSM   H14T12139   3.082  -0.406   7.843  1.7480  0.9381 -1.3210
  116OSM   C15S12140   3.251  -0.521   7.925  0.5000  1.0853 -0.2971
  116OSM   H15S12141   3.322  -0.436   7.935  1.1154  0.4699  0.7277
  116OSM   H15T12142   3.316  -0.608   7.900  1.0256  1.4014 -0.0566
  116OSM   C16S12143   3.168  -0.556   8.054  0.5139  0.0816 -0.0572
  116OSM   H16S12144   3.116  -0.652   8.032  0.2363  0.6337 -2.0583
  116OSM   H16T12145   3.100  -0.469   8.059  0.5858  0.1703 -0.5133
  116OSM   C17S12146   3.237  -0.573   8.189  0.2683  0.3269  0.2668
  116OSM   H17S12147   3.312  -0.492   8.197 -0.2307  1.1921 -2.6343
  116OSM   H17T12148   3.293  -0.667   8.202  2.0831  1.3356  0.0444
  116OSM   C18S12149   3.129  -0.546   8.292  0.2292  0.2773 -0.0912
  116OSM   H18S12150   3.060  -0.632   8.297 -0.6063  0.9303 -0.2473
  116OSM   H18T12151   3.078  -0.452   8.263  0.8307  0.3997 -0.8016
  116OSM   H18U12152   3.172  -0.537   8.394  0.9803 -0.7452 -0.2959
  116OSM    C1F12153   3.438   0.069   6.745  0.2929 -0.1556  0.2109
  116OSM     OF12154   3.368   0.156   6.697 -0.1608 -0.6874  0.2861
  116OSM    C2F12155   3.545   0.094   6.843  0.6881  0.7264  0.2519
  116OSM    H2F12156   3.607   0.180   6.808  2.8188 -1.7970 -2.7704
  116OSM    H2G12157   3.608   0.003   6.832 -1.6998 -1.0360  0.2234
  116OSM    C3F12158   3.483   0.117   6.986  0.8966 -0.3878 -0.2171
  116OSM    H3F12159   3.410   0.034   6.997 -0.9662  1.1481 -0.3357
  116OSM    H3G12160   3.424   0.211   6.976  1.9475  0.8846  3.5435
  116OSM    C4F12161   3.572   0.134   7.110  0.0044  0.0374 -1.1798
  116OSM    H4F12162   3.625   0.232   7.109  0.9048 -0.4382 -2.6749
  116OSM    H4G12163   3.649   0.054   7.108  0.9391  0.7246  1.6812
  116OSM    C5F12164   3.505   0.126   7.247 -0.0794  0.3589 -0.1712
  116OSM    H5F12165   3.452   0.031   7.225  0.7527  0.5888 -3.8282
  116OSM    H5G12166   3.433   0.210   7.258 -1.6628 -0.7757 -1.3683
  116OSM    C6F12167   3.605   0.111   7.362 -0.3079 -0.3165  0.4060
  116OSM    H6F12168   3.650   0.213   7.373 -1.1671 -0.0373  1.4881
  116OSM    H6G12169   3.672   0.032   7.321 -0.3286  0.1325 -0.5294
  116OSM    C7F12170   3.541   0.057   7.489 -0.4682 -0.0962  0.2723
  116OSM    H7F12171   3.508  -0.046   7.464 -0.5028  0.2732 -1.3014
  116OSM    H7G12172   3.450   0.117   7.511  0.3019  0.0535  3.7289
  116OSM    C8F12173   3.629   0.052   7.620  0.0623 -0.0271  0.4228
  116OSM    H8F12174   3.735   0.031   7.596 -0.0719 -2.4801  1.6424
  116OSM    H8G12175   3.591  -0.037   7.675 -0.1381  0.0310  0.3788
  116OSM    C9F12176   3.626   0.174   7.711  0.2676  0.3076  0.2259
  116OSM    H9F12177   3.638   0.273   7.663  0.7353  0.5841  0.9064
  116OSM   C10F12178   3.622   0.163   7.846  0.0079 -0.2237  0.2151
  116OSM   H10F12179   3.627   0.255   7.906 -0.6150 -0.4439  0.6093
  116OSM   C11F12180   3.632   0.029   7.922  1.0432  0.0237 -0.4671
  116OSM   H11F12181   3.738  -0.001   7.911  1.0436  0.0034 -0.4088
  116OSM   H11G12182   3.561  -0.047   7.882 -1.1875  1.7746 -0.0762
  116OSM   C12F12183   3.605   0.053   8.071 -0.7930  0.0994 -0.1311
  116OSM   H12F12184   3.559  -0.034   8.122  0.7064 -1.5467 -1.4483
  116OSM   H12G12185   3.535   0.136   8.091 -0.1572  0.5104  0.4568
  116OSM   C13F12186   3.735   0.087   8.145 -0.6565 -0.6508 -0.2924
  116OSM   H13F12187   3.781   0.176   8.097 -2.8073 -0.8373 -2.9056
  116OSM   H13G12188   3.817   0.014   8.128 -0.6621 -1.2045  1.7492
  116OSM   C14F12189   3.728   0.096   8.306 -0.5139  0.5588  0.6849
  116OSM   H14F12190   3.680   0.001   8.336 -0.5898  0.1134 -0.7735
  116OSM   H14G12191   3.654   0.173   8.333  0.0828  2.3883 -2.3345
  116OSM   C15F12192   3.864   0.127   8.380  0.0440 -0.1633 -0.2503
  116OSM   H15F12193   3.932   0.040   8.369 -1.8176 -1.8085  0.7092
  116OSM   H15G12194   3.849   0.136   8.490 -0.7643  0.1632 -0.3800
  116OSM   C16F12195   3.924   0.266   8.347  0.0130  0.3880 -0.0258
  116OSM   H16F12196   3.860   0.341   8.397 -1.4402  0.1937 -1.5209
  116OSM   H16G12197   3.921   0.283   8.238  2.4920 -0.4179 -0.2931
  116OSM   C17F12198   4.071   0.286   8.381 -0.4360  0.4183  0.0110
  116OSM   H17F12199   4.134   0.213   8.325 -0.3378  0.5318 -0.0250
  116OSM   H17G12200   4.092   0.262   8.487 -0.0252  0.3961 -0.0707
  116OSM   C18F12201   4.131   0.425   8.349  0.2152  0.5019 -0.8469
  116OSM   H18F12202   4.071   0.507   8.394 -0.2069  0.1449 -0.7461
  116OSM   H18G12203   4.145   0.442   8.240  0.6116 -1.9530 -1.2399
  116OSM   H18H12204   4.223   0.432   8.410  0.5843  2.3541 -1.5592
  117OSM      N12205   0.155   1.416   5.864 -0.1354  0.7707 -0.8767
  117OSM    C1512206   0.068   1.519   5.796  0.2357  0.8115  0.5844
  117OSM   H15A12207   0.099   1.622   5.812 -0.0240  0.9685  0.0736
  117OSM   H15B12208  -0.035   1.513   5.828  0.2027  0.0227  0.3495
  117OSM   H15C12209   0.071   1.497   5.691  0.0393 -2.4220  1.1649
  117OSM    C1412210   0.104   1.278   5.828  0.2383  0.1953  0.2760
  117OSM   H14A12211   0.122   1.253   5.724  1.2779 -0.0358  0.5072
  117OSM   H14B12212  -0.002   1.274   5.847  0.5584  0.2351  2.1991
  117OSM   H14C12213   0.158   1.204   5.883 -0.7937  0.0498  1.1377
  117OSM    C1312214   0.293   1.432   5.817 -0.0003  0.2938 -0.4093
  117OSM   H13A12215   0.322   1.533   5.843 -1.3727  0.8145 -0.8551
  117OSM   H13B12216   0.298   1.420   5.710 -1.2063  0.5595 -0.5096
  117OSM   H13C12217   0.360   1.360   5.863  1.6634  1.7953 -0.3934
  117OSM    C1212218   0.159   1.418   6.020 -0.4406 -0.1191 -1.0008
  117OSM   H12A12219   0.056   1.398   6.044 -0.4450 -1.2050 -1.8512
  117OSM   H12B12220   0.194   1.517   6.046  1.8171 -0.8417 -1.0218
  117OSM    C1112221   0.255   1.314   6.103  0.1440  0.2719  0.0305
  117OSM   H11A12222   0.242   1.213   6.060  0.8742  0.2784 -0.2233
  117OSM   H11B12223   0.228   1.307   6.211  1.0776  1.0852  0.3427
  117OSM      P12224   0.464   1.460   6.158  0.4766  0.3648 -0.5746
  117OSM    O1312225   0.611   1.452   6.124  0.2710 -0.2853  0.4475
  117OSM    O1412226   0.388   1.582   6.129 -0.4117 -0.1612 -0.0329
  117OSM    O1112227   0.444   1.412   6.314  0.1521 -0.1021  0.4247
  117OSM    O1212228   0.393   1.341   6.084  0.1377  0.2921 -0.2209
  117OSM    C1S12229   0.369   1.504   6.400 -0.2382 -0.3611  0.5060
  117OSM    H1S12230   0.264   1.485   6.369 -0.0850  0.8030 -0.7990
  117OSM    H1T12231   0.403   1.608   6.384  1.6582 -0.9852  0.1934
  117OSM     NF12232   0.288   1.524   6.640 -0.2049 -0.0117 -0.1408
  117OSM    HNF12233   0.315   1.604   6.693  0.2743  0.6854 -1.3965
  117OSM    C2S12234   0.389   1.469   6.553 -0.2713 -0.4049 -0.7948
  117OSM    H2S12235   0.373   1.361   6.572  3.0475 -0.7683  0.7924
  117OSM    C3S12236   0.534   1.505   6.603 -0.4379 -0.5205  0.5789
  117OSM    H3S12237   0.542   1.615   6.590 -1.0589 -0.3766  1.3732
  117OSM     O312238   0.632   1.462   6.514 -0.1683  0.5764  0.5712
  117OSM    HO312239   0.588   1.427   6.436 -0.1842  0.1190  0.7785
  117OSM    C4S12240   0.558   1.469   6.745  0.7218 -0.7682 -0.4867
  117OSM    H4S12241   0.516   1.551   6.806  0.0674  0.9077 -3.0285
  117OSM    C5S12242   0.600   1.353   6.801 -0.3268 -0.1533 -0.3959
  117OSM    H5S12243   0.616   1.267   6.734 -0.8064 -1.9268  1.6433
  117OSM    C6S12244   0.596   1.312   6.951  0.1977  0.1167  0.7513
  117OSM    H6S12245   0.696   1.272   6.976 -0.2138 -0.6873  1.1254
  117OSM    H6T12246   0.536   1.220   6.968  2.2068 -1.0259  1.9544
  117OSM    C7S12247   0.567   1.416   7.057  0.9140 -0.2799  0.5773
  117OSM    H7S12248   0.457   1.433   7.060  0.8278 -0.9422  1.4287
  117OSM    H7T12249   0.615   1.508   7.016  0.1103  0.1143  0.5029
  117OSM    C8S12250   0.617   1.383   7.201 -0.4253 -0.6438  0.2172
  117OSM    H8S12251   0.726   1.361   7.203  0.0605  1.3822 -0.9077
  117OSM    H8T12252   0.547   1.305   7.238 -0.5090 -0.9283 -0.5154
  117OSM    C9S12253   0.595   1.503   7.290  0.5437 -0.0962  0.3888
  117OSM    H9S12254   0.486   1.526   7.293  0.7429  1.6575 -2.1634
  117OSM    H9T12255   0.640   1.596   7.249  0.7333 -0.2987  0.1401
  117OSM   C10S12256   0.649   1.480   7.430 -0.7206  0.6550  0.1526
  117OSM   H10S12257   0.759   1.484   7.417 -0.9448  1.4456 -1.8707
  117OSM   H10T12258   0.603   1.382   7.455 -0.3578  0.3010 -0.5309
  117OSM   C11S12259   0.615   1.586   7.531  0.4900 -0.6863  0.0329
  117OSM   H11S12260   0.511   1.563   7.563 -0.8596  4.2857  0.0474
  117OSM   H11T12261   0.617   1.690   7.490 -0.4561  0.2942  2.3328
  117OSM   C12S12262   0.715   1.587   7.652 -0.3348 -0.0438  0.5373
  117OSM   H12S12263   0.814   1.628   7.621  0.4219 -2.2005 -0.1095
  117OSM   H12T12264   0.729   1.479   7.676 -1.0036 -0.0069  1.1255
  117OSM   C13S12265   0.657   1.667   7.769 -0.4079  0.3476  0.7288
  117OSM   H13S12266   0.564   1.612   7.796  0.5640 -1.2319  0.9717
  117OSM   H13T12267   0.640   1.774   7.746 -1.3426  0.4978  2.0166
  117OSM   C14S12268   0.749   1.651   7.889  0.6840 -0.2467  0.3174
  117OSM   H14S12269   0.848   1.701   7.881  0.7364 -0.5423 -1.0825
  117OSM   H14T12270   0.766   1.542   7.901 -3.5095 -1.4045 -2.4406
  117OSM   C15S12271   0.694   1.717   8.017 -0.6298 -0.1302  0.4415
  117OSM   H15S12272   0.597   1.666   8.036  0.1138 -1.3070  1.1252
  117OSM   H15T12273   0.681   1.828   8.012 -0.1252 -0.1161 -1.8181
  117OSM   C16S12274   0.785   1.686   8.134 -0.4212 -0.6704  0.6317
  117OSM   H16S12275   0.765   1.751   8.222 -0.4986 -2.5967  2.0927
  117OSM   H16T12276   0.886   1.715   8.101 -0.9448  0.2059 -0.2428
  117OSM   C17S12277   0.788   1.548   8.191 -0.6149 -0.0402 -0.5269
  117OSM   H17S12278   0.803   1.477   8.107 -2.0347 -0.2764 -0.6038
  117OSM   H17T12279   0.689   1.523   8.236  0.1744 -0.3444  1.0978
  117OSM   C18S12280   0.902   1.527   8.288  0.2854 -0.1395  0.5533
  117OSM   H18S12281   0.918   1.610   8.360  0.2577  0.0400  0.3566
  117OSM   H18T12282   0.995   1.528   8.228 -0.2943 -3.4671 -0.6457
  117OSM   H18U12283   0.904   1.427   8.336 -0.2601  0.3341  1.5878
  117OSM    C1F12284   0.158   1.495   6.633 -0.7054 -0.1433  0.3251
  117OSM     OF12285   0.122   1.401   6.565 -0.1622  0.5923 -0.3758
  117OSM    C2F12286   0.070   1.585   6.718 -0.6727 -0.3677 -0.6434
  117OSM    H2F12287   0.039   1.678   6.666  0.8818  1.3372  1.2939
  117OSM    H2G12288   0.134   1.607   6.806 -0.0565 -0.5962 -1.0292
  117OSM    C3F12289  -0.064   1.517   6.767  0.4821 -0.4492 -0.2565
  117OSM    H3F12290  -0.036   1.441   6.844 -1.6668  0.0247  1.0629
  117OSM    H3G12291  -0.112   1.468   6.680  3.5519 -1.6394 -1.4255
  117OSM    C4F12292  -0.163   1.609   6.838  0.2146 -0.5359  0.0660
  117OSM    H4F12293  -0.249   1.550   6.876 -0.1479 -0.3590 -0.4864
  117OSM    H4G12294  -0.196   1.694   6.776 -1.3655 -0.4257  0.9910
  117OSM    C5F12295  -0.102   1.688   6.962  0.0407  0.3153  0.2512
  117OSM    H5F12296  -0.046   1.777   6.925 -0.2104  0.7416  0.8775
  117OSM    H5G12297  -0.035   1.616   7.013 -0.2174  0.8373  1.3626
  117OSM    C6F12298  -0.205   1.753   7.058 -1.0787  0.0216  0.0727
  117OSM    H6F12299  -0.255   1.667   7.107  1.1226 -0.4276  1.6875
  117OSM    H6G12300  -0.276   1.815   7.000 -0.1474  0.4205 -0.6858
  117OSM    C7F12301  -0.132   1.822   7.173 -0.7103 -0.0862  0.1550
  117OSM    H7F12302  -0.053   1.890   7.134 -0.3638 -0.5898 -0.0365
  117OSM    H7G12303  -0.074   1.740   7.220 -0.5506  0.2422  0.5359
  117OSM    C8F12304  -0.227   1.866   7.286 -0.9841 -0.1573  0.7982
  117OSM    H8F12305  -0.160   1.877   7.374  0.2259 -1.8399  0.1332
  117OSM    H8G12306  -0.302   1.787   7.309  0.6213 -1.6652  1.0424
  117OSM    C9F12307  -0.298   1.994   7.249 -0.2398  0.0731 -0.1852
  117OSM    H9F12308  -0.296   2.028   7.145 -0.3548 -1.4772 -0.7179
  117OSM   C10F12309  -0.340   2.084   7.346 -0.9596  0.0426 -0.5420
  117OSM   H10F12310  -0.388   2.174   7.306 -0.9398 -0.1972 -1.1137
  117OSM   C11F12311  -0.324   2.078   7.500 -0.3484 -0.6209 -0.0306
  117OSM   H11F12312  -0.279   1.981   7.532 -0.4448 -0.2310  1.3149
  117OSM   H11G12313  -0.429   2.082   7.534 -0.1756 -0.5125  0.4948
  117OSM   C12F12314  -0.262   2.201   7.571 -0.3019 -1.0732  0.5724
  117OSM   H12F12315  -0.308   2.199   7.672  2.4097 -0.6678  1.9054
  117OSM   H12G12316  -0.279   2.301   7.526  0.8980 -1.3015 -0.4321
  117OSM   C13F12317  -0.112   2.175   7.596  0.2500  0.1936  0.1580
  117OSM   H13F12318  -0.067   2.139   7.501 -0.0723 -1.0654  0.4643
  117OSM   H13G12319  -0.094   2.091   7.666  0.6951  0.6303  0.5712
  117OSM   C14F12320  -0.028   2.296   7.642 -0.9139 -0.2462 -0.3400
  117OSM   H14F12321  -0.034   2.379   7.568  0.3218  0.0418 -0.1379
  117OSM   H14G12322   0.074   2.254   7.652 -0.5817  0.0259 -2.2230
  117OSM   C15F12323  -0.085   2.375   7.762  0.9071 -0.4210 -0.0148
  117OSM   H15F12324  -0.190   2.405   7.741  1.9629  2.0939 -2.2701
  117OSM   H15G12325  -0.024   2.465   7.784 -0.4127  0.2154  1.2483
  117OSM   C16F12326  -0.082   2.292   7.892 -0.0161 -0.2441  0.8456
  117OSM   H16F12327   0.023   2.279   7.926 -0.3006 -0.2041  1.7439
  117OSM   H16G12328  -0.131   2.199   7.855 -2.1499  0.7400  1.0576
  117OSM   C17F12329  -0.159   2.365   7.995 -0.0839 -0.6121 -0.2615
  117OSM   H17F12330  -0.118   2.468   8.007  1.8921 -1.5214  1.2554
  117OSM   H17G12331  -0.262   2.379   7.954 -0.0072  0.1903 -0.2096
  117OSM   C18F12332  -0.162   2.294   8.126  0.0612 -0.2711 -0.5087
  117OSM   H18F12333  -0.209   2.355   8.206 -0.9380 -2.3620  0.5692
  117OSM   H18G12334  -0.062   2.262   8.163 -0.1697  0.5802  0.9343
  117OSM   H18H12335  -0.230   2.208   8.112 -0.9866  0.3337  0.6432
  118OSM      N12336   3.226   4.072   6.294  0.5891  0.1961  0.2610
  118OSM    C1512337   3.255   4.164   6.407  0.3372 -0.5552 -0.8970
  118OSM   H15A12338   3.168   4.222   6.436  0.4790 -1.7625  2.3258
  118OSM   H15B12339   3.329   4.234   6.372  1.4540 -1.1371  0.2135
  118OSM   H15C12340   3.293   4.115   6.495 -0.6195 -0.0634 -0.1855
  118OSM    C1412341   3.201   4.153   6.173  1.1734 -0.3933  0.1590
  118OSM   H14A12342   3.204   4.106   6.076 -0.2857  1.3986 -0.8269
  118OSM   H14B12343   3.269   4.236   6.168  0.6542  0.2023  2.0413
  118OSM   H14C12344   3.110   4.212   6.178  2.2878  1.4665 -0.4338
  118OSM    C1312345   3.345   3.985   6.255  0.0440 -0.1516 -0.1570
  118OSM   H13A12346   3.349   3.913   6.335  1.2567 -0.8818 -0.8393
  118OSM   H13B12347   3.436   4.042   6.247 -0.3532  0.2699 -2.1440
  118OSM   H13C12348   3.321   3.932   6.164  2.2711 -2.5246  0.5136
  118OSM    C1212349   3.109   3.980   6.316  0.9328  0.0241 -0.1480
  118OSM   H12A12350   3.095   3.905   6.240  1.7304 -1.5301  1.1594
  118OSM   H12B12351   3.024   4.046   6.316 -1.0777 -2.3620  1.5853
  118OSM    C1112352   3.117   3.891   6.439 -1.0085  1.0180 -0.2446
  118OSM   H11A12353   3.027   3.834   6.472  0.0023  0.7278  2.2367
  118OSM   H11B12354   3.151   3.953   6.525  0.5115  0.2780 -0.2745
  118OSM      P12355   3.211   3.664   6.336 -0.0252 -0.2802 -0.2830
  118OSM    O1312356   3.131   3.697   6.216 -0.1043 -0.2465  0.5614
  118OSM    O1412357   3.345   3.612   6.306 -0.4781 -0.1860  0.4460
  118OSM    O1112358   3.128   3.567   6.429 -0.4191 -0.5181 -0.4608
  118OSM    O1212359   3.225   3.796   6.421 -0.6989  0.1882 -0.5324
  118OSM    C1S12360   3.190   3.470   6.518 -0.0342  0.7819  0.1336
  118OSM    H1S12361   3.290   3.440   6.481  0.0444  1.2919 -0.0804
  118OSM    H1T12362   3.133   3.375   6.520 -0.9608  1.3329  0.3898
  118OSM     NF12363   3.279   3.415   6.747 -1.0780  1.1601  0.1319
  118OSM    HNF12364   3.238   3.334   6.788  1.6028 -1.1588 -1.3963
  118OSM    C2S12365   3.188   3.501   6.673  0.2367 -0.1029 -0.5124
  118OSM    H2S12366   3.221   3.607   6.678 -2.0858  0.7322 -1.2777
  118OSM    C3S12367   3.046   3.499   6.734  0.2371  0.3209  0.0638
  118OSM    H3S12368   2.985   3.413   6.699  0.5544 -0.7289  1.9639
  118OSM     O312369   2.975   3.616   6.695 -0.7893 -0.5983  0.5273
  118OSM    HO312370   3.026   3.674   6.638 -1.6127 -0.4480 -0.0845
  118OSM    C4S12371   3.051   3.506   6.883  0.3923 -0.0210  0.3099
  118OSM    H4S12372   3.081   3.602   6.926  1.2987  0.1830 -0.7372
  118OSM    C5S12373   3.007   3.408   6.964  0.1245  0.1178  0.1728
  118OSM    H5S12374   2.979   3.318   6.906  1.3997  0.6688 -1.3733
  118OSM    C6S12375   3.010   3.409   7.112 -0.3117  0.3973  1.0984
  118OSM    H6S12376   3.022   3.303   7.142 -2.6307  0.1422  1.3379
  118OSM    H6T12377   2.906   3.433   7.144 -0.8064  0.3674 -0.4284
  118OSM    C7S12378   3.106   3.501   7.190  0.0635 -0.1636 -0.0619
  118OSM    H7S12379   3.080   3.604   7.159  2.0124  0.3221 -0.2470
  118OSM    H7T12380   3.214   3.481   7.168  0.3718 -0.8862  1.9279
  118OSM    C8S12381   3.092   3.489   7.346 -0.2214 -0.1837 -0.8216
  118OSM    H8S12382   3.150   3.571   7.393 -1.4774  1.8299 -2.5801
  118OSM    H8T12383   3.135   3.388   7.363 -3.1804 -1.2981  0.7698
  118OSM    C9S12384   2.953   3.494   7.409  0.2039 -0.4085  0.4490
  118OSM    H9S12385   2.887   3.416   7.367 -0.7317 -1.1256  3.0162
  118OSM    H9T12386   2.910   3.595   7.390  1.2775  0.0062  0.1364
  118OSM   C10S12387   2.964   3.466   7.559 -0.0213 -0.2188 -0.1913
  118OSM   H10S12388   3.015   3.551   7.610  0.5610  1.3330 -3.0688
  118OSM   H10T12389   3.026   3.376   7.577  0.4212 -0.2162 -1.5414
  118OSM   C11S12390   2.825   3.436   7.612  0.6071 -0.2467 -0.3808
  118OSM   H11S12391   2.786   3.366   7.534 -0.0327 -2.0973  1.5042
  118OSM   H11T12392   2.763   3.528   7.610 -0.9307 -1.2408 -0.3716
  118OSM   C12S12393   2.828   3.378   7.746 -0.3588  0.1036 -0.3281
  118OSM   H12S12394   2.819   3.458   7.823 -2.3652  0.6568 -1.0635
  118OSM   H12T12395   2.918   3.317   7.768 -1.7352 -1.0770  2.5402
  118OSM   C13S12396   2.714   3.282   7.783  1.0593 -0.4044  0.4221
  118OSM   H13S12397   2.724   3.189   7.722  0.0534  0.0273 -0.4294
  118OSM   H13T12398   2.623   3.329   7.740 -0.4307 -3.6536 -0.2436
  118OSM   C14S12399   2.730   3.263   7.937  0.8191 -0.0494 -0.0199
  118OSM   H14S12400   2.834   3.274   7.976  0.0714 -2.9078  3.2767
  118OSM   H14T12401   2.702   3.159   7.963  0.8567 -0.2511 -0.7495
  118OSM   C15S12402   2.633   3.361   8.007  0.1576 -0.2543 -0.3425
  118OSM   H15S12403   2.531   3.358   7.961  0.6309 -1.9955 -1.3419
  118OSM   H15T12404   2.675   3.464   8.001  0.6228 -0.3292  1.2784
  118OSM   C16S12405   2.622   3.325   8.153 -0.2112  0.0410  0.2885
  118OSM   H16S12406   2.723   3.295   8.189 -0.2827 -1.0902 -0.4041
  118OSM   H16T12407   2.558   3.235   8.164  0.1458 -0.1335  1.0482
  118OSM   C17S12408   2.557   3.435   8.232  0.1238  0.1503  0.6555
  118OSM   H17S12409   2.453   3.445   8.196  0.2391 -0.3961  0.1534
  118OSM   H17T12410   2.595   3.533   8.196 -2.2662  0.7986 -0.2723
  118OSM   C18S12411   2.554   3.415   8.373 -0.1734 -0.7916 -0.6736
  118OSM   H18S12412   2.490   3.483   8.433 -0.7377 -2.2996  0.5094
  118OSM   H18T12413   2.652   3.432   8.422  0.0356 -0.1842 -1.2851
  118OSM   H18U12414   2.514   3.313   8.391  1.5047 -1.1064  1.7071
  118OSM    C1F12415   3.416   3.417   6.737  0.7774  0.5212 -0.3823
  118OSM     OF12416   3.471   3.519   6.715 -0.6520  0.2822  1.2431
  118OSM    C2F12417   3.484   3.291   6.772 -0.5384 -0.6551 -0.3286
  118OSM    H2F12418   3.588   3.290   6.733  0.1960  2.2909  1.2405
  118OSM    H2G12419   3.430   3.201   6.735 -2.4957 -0.3601  1.6164
  118OSM    C3F12420   3.498   3.274   6.923 -0.1900  0.5478 -0.0783
  118OSM    H3F12421   3.540   3.172   6.933 -1.0055  0.2914  0.7827
  118OSM    H3G12422   3.399   3.277   6.974 -0.5433  0.5907 -0.7590
  118OSM    C4F12423   3.582   3.375   6.986 -0.4349  0.4051  0.4699
  118OSM    H4F12424   3.522   3.469   6.985  0.6751  1.1772 -1.5941
  118OSM    H4G12425   3.670   3.401   6.924 -2.4608  1.9603 -1.9608
  118OSM    C5F12426   3.621   3.340   7.137  0.6897  0.4430 -0.4211
  118OSM    H5F12427   3.700   3.413   7.168  1.4964 -0.4354 -0.3505
  118OSM    H5G12428   3.652   3.233   7.136 -1.6841 -0.2865 -0.1335
  118OSM    C6F12429   3.507   3.339   7.231  0.6595  0.0156 -0.3692
  118OSM    H6F12430   3.425   3.269   7.205 -0.6459  1.1988  0.4632
  118OSM    H6G12431   3.461   3.438   7.255 -0.1684 -0.4062 -0.1872
  118OSM    C7F12432   3.553   3.270   7.360  0.2713  0.3276 -0.4007
  118OSM    H7F12433   3.649   3.316   7.389  0.2475  1.6891 -2.3056
  118OSM    H7G12434   3.579   3.163   7.344  0.6726  0.5528 -1.2982
  118OSM    C8F12435   3.437   3.266   7.470 -0.6125  0.9872  0.6833
  118OSM    H8F12436   3.470   3.186   7.539  0.6075  0.6401 -0.2700
  118OSM    H8G12437   3.341   3.240   7.421 -0.2000  0.7486 -0.0142
  118OSM    C9F12438   3.420   3.397   7.538 -0.1247 -0.2463 -0.6764
  118OSM    H9F12439   3.481   3.483   7.505  0.2318  0.3509  1.3552
  118OSM   C10F12440   3.352   3.415   7.658  0.0220 -0.3327  0.0384
  118OSM   H10F12441   3.336   3.513   7.705 -1.8083  0.7871 -2.6701
  118OSM   C11F12442   3.269   3.308   7.737  0.7644  0.0478  0.6996
  118OSM   H11F12443   3.249   3.223   7.669 -1.5309  0.9217  0.2055
  118OSM   H11G12444   3.170   3.351   7.763 -0.8216 -1.6177 -2.0800
  118OSM   C12F12445   3.349   3.259   7.853  0.2604 -0.4269 -0.4409
  118OSM   H12F12446   3.413   3.329   7.910 -0.6954  0.0585  0.0572
  118OSM   H12G12447   3.422   3.182   7.821  0.6733 -0.6572  1.0140
  118OSM   C13F12448   3.256   3.207   7.966 -0.2410  0.2581 -0.0058
  118OSM   H13F12449   3.310   3.131   8.027  1.5435  2.3112  1.1068
  118OSM   H13G12450   3.176   3.145   7.921 -0.3560 -0.3279  0.9580
  118OSM   C14F12451   3.200   3.303   8.073 -0.1897  0.6520 -0.2524
  118OSM   H14F12452   3.134   3.380   8.027  0.8133  2.4838  1.2462
  118OSM   H14G12453   3.288   3.358   8.112  2.1019 -1.8288 -1.5494
  118OSM   C15F12454   3.118   3.230   8.180  0.1614 -0.0744  0.6708
  118OSM   H15F12455   3.160   3.132   8.211  0.4861 -0.2109 -0.1586
  118OSM   H15G12456   3.024   3.208   8.124  1.5120  2.5932 -3.0174
  118OSM   C16F12457   3.084   3.327   8.297 -0.5493  0.0433 -0.0696
  118OSM   H16F12458   3.032   3.411   8.246  1.4481  1.3682 -0.0325
  118OSM   H16G12459   3.176   3.363   8.347  0.4840 -0.6960 -1.3744
  118OSM   C17F12460   2.994   3.264   8.404  0.1877  0.7197 -0.0881
  118OSM   H17F12461   3.053   3.185   8.455 -1.2906 -1.3000 -1.3248
  118OSM   H17G12462   2.918   3.195   8.361 -1.3487  1.2390  1.6376
  118OSM   C18F12463   2.932   3.361   8.507 -0.0301  0.1212 -0.5806
  118OSM   H18F12464   2.853   3.305   8.562  0.9281 -2.5560 -1.7664
  118OSM   H18G12465   2.885   3.447   8.455  1.1172  0.2225 -1.4982
  118OSM   H18H12466   3.003   3.404   8.582 -2.0043  0.5771  1.1303
  119OSM      N12467   4.004   2.863   5.727 -0.7303  0.1115 -0.3630
  119OSM    C1512468   3.950   2.885   5.587  0.1734  0.0718 -0.2766
  119OSM   H15A12469   3.869   2.956   5.585  0.2919  0.2216  0.0978
  119OSM   H15B12470   3.904   2.797   5.544 -0.8375  1.7892 -2.9067
  119OSM   H15C12471   4.024   2.930   5.524  0.1952  0.4189 -0.0064
  119OSM    C1412472   4.072   2.991   5.771 -0.6258  0.9373 -0.4479
  119OSM   H14A12473   4.162   2.994   5.712 -0.2273 -1.0965 -0.0131
  119OSM   H14B12474   4.090   2.996   5.878 -2.4433  0.3951 -0.0725
  119OSM   H14C12475   4.019   3.084   5.756 -0.6820  1.1878  1.1067
  119OSM    C1312476   3.885   2.848   5.817  0.7937  0.0025 -0.2016
  119OSM   H13A12477   3.836   2.944   5.823 -1.3156 -1.0109 -0.4821
  119OSM   H13B12478   3.906   2.819   5.919 -0.5004  0.6779  0.2835
  119OSM   H13C12479   3.815   2.779   5.773  0.9525  1.1970 -2.5162
  119OSM    C1212480   4.102   2.744   5.739  0.2200 -0.5817  0.5205
  119OSM   H12A12481   4.053   2.649   5.722  0.3460 -0.3543 -1.3365
  119OSM   H12B12482   4.131   2.734   5.843 -2.5383 -0.9979  1.3538
  119OSM    C1112483   4.232   2.755   5.646 -0.7788  0.3905 -0.4410
  119OSM   H11A12484   4.187   2.800   5.554  0.4264  0.7585 -0.8666
  119OSM   H11B12485   4.285   2.662   5.617 -1.3421 -0.5440  1.4191
  119OSM      P12486   4.433   2.807   5.801  0.5254  0.2057  0.4629
  119OSM    O1312487   4.483   2.673   5.770 -0.2282 -0.2979  0.6909
  119OSM    O1412488   4.538   2.908   5.810  0.4843 -0.2261 -0.1494
  119OSM    O1112489   4.342   2.796   5.931 -0.0298  0.1863 -0.2355
  119OSM    O1212490   4.322   2.851   5.698  0.0905  0.5361 -0.0128
  119OSM    C1S12491   4.396   2.754   6.056 -0.2138  0.4170  0.2439
  119OSM    H1S12492   4.494   2.704   6.040 -1.2436 -1.0069 -2.1874
  119OSM    H1T12493   4.321   2.684   6.098 -0.4035  1.2159  1.2790
  119OSM     NF12494   4.465   2.816   6.282  0.1309  0.0703 -0.3452
  119OSM    HNF12495   4.400   2.827   6.357  0.0070  1.1116 -0.5909
  119OSM    C2S12496   4.413   2.870   6.157 -0.2596  0.1021  0.3349
  119OSM    H2S12497   4.493   2.940   6.124  0.9087 -0.9223  0.9091
  119OSM    C3S12498   4.290   2.955   6.179  0.0512  0.4642  0.8303
  119OSM    H3S12499   4.218   2.896   6.239 -2.8629 -1.1181 -3.7079
  119OSM     O312500   4.207   2.978   6.063 -0.3443 -0.1928 -0.2542
  119OSM    HO312501   4.230   2.905   6.005 -1.2096  1.1970 -2.4456
  119OSM    C4S12502   4.320   3.085   6.248 -0.0464 -0.1580 -0.2669
  119OSM    H4S12503   4.299   3.088   6.356  0.6567  2.1683 -0.1426
  119OSM    C5S12504   4.351   3.199   6.190 -0.0557 -0.1761  0.2720
  119OSM    H5S12505   4.351   3.214   6.081 -3.9530 -1.1282 -0.0194
  119OSM    C6S12506   4.378   3.327   6.271  0.4670 -0.4700  0.4874
  119OSM    H6S12507   4.319   3.414   6.237  0.7570  0.0495  1.2865
  119OSM    H6T12508   4.476   3.371   6.243  0.2242 -0.2381 -0.0138
  119OSM    C7S12509   4.380   3.307   6.425 -0.2389 -1.6147 -0.0510
  119OSM    H7S12510   4.445   3.221   6.450 -0.0575 -1.0321  1.6534
  119OSM    H7T12511   4.278   3.272   6.454 -1.7018  0.0281 -2.8167
  119OSM    C8S12512   4.429   3.423   6.508 -0.2364  0.2761 -0.0862
  119OSM    H8S12513   4.383   3.516   6.467  3.0732  1.5626 -1.2762
  119OSM    H8T12514   4.540   3.432   6.518 -0.1272 -2.3659  2.2964
  119OSM    C9S12515   4.396   3.401   6.656 -0.1153  0.7830  0.0964
  119OSM    H9S12516   4.420   3.299   6.693 -0.1761  0.1476 -1.5132
  119OSM    H9T12517   4.285   3.407   6.658 -0.3477 -2.0769 -0.1957
  119OSM   C10S12518   4.441   3.520   6.745 -0.1309  0.2616 -0.0803
  119OSM   H10S12519   4.417   3.617   6.697  3.5399  1.7562  0.7311
  119OSM   H10T12520   4.552   3.525   6.749 -0.1894  0.8996  1.0309
  119OSM   C11S12521   4.383   3.507   6.888 -0.2915  0.3825  0.0637
  119OSM   H11S12522   4.389   3.400   6.917  1.0870 -0.0164 -1.4986
  119OSM   H11T12523   4.274   3.525   6.894 -0.2284  1.1982 -0.9868
  119OSM   C12S12524   4.466   3.588   6.990 -0.0541 -0.7890  0.4333
  119OSM   H12S12525   4.454   3.696   6.967  2.0646 -0.0994  2.2197
  119OSM   H12T12526   4.575   3.567   6.980 -0.1807 -0.4355 -2.9800
  119OSM   C13S12527   4.437   3.574   7.134 -0.5083  0.6690 -0.5016
  119OSM   H13S12528   4.444   3.472   7.178  1.1191  1.7123  1.8415
  119OSM   H13T12529   4.334   3.614   7.147 -0.8688 -0.4512  0.3459
  119OSM   C14S12530   4.522   3.667   7.220  0.1431  0.7194  0.4408
  119OSM   H14S12531   4.493   3.771   7.197  0.1207  1.0847  2.0121
  119OSM   H14T12532   4.628   3.656   7.190 -0.4590 -1.0993 -1.2865
  119OSM   C15S12533   4.513   3.634   7.367 -0.6496  0.0485  0.4498
  119OSM   H15S12534   4.573   3.544   7.394  0.3028  0.2231 -1.0008
  119OSM   H15T12535   4.409   3.605   7.393 -0.5246 -0.4067  0.4634
  119OSM   C16S12536   4.577   3.733   7.458 -0.8675 -0.2507  0.1882
  119OSM   H16S12537   4.564   3.726   7.568  0.3780  1.1811  0.4687
  119OSM   H16T12538   4.535   3.832   7.430  1.3252  0.9155  0.7554
  119OSM   C17S12539   4.726   3.750   7.433 -0.3434 -0.3064 -0.3709
  119OSM   H17S12540   4.741   3.773   7.326 -1.1262  0.8689 -0.2589
  119OSM   H17T12541   4.785   3.656   7.432  0.4586  0.0217  2.9087
  119OSM   C18S12542   4.799   3.853   7.523  0.2522 -0.3389 -0.1266
  119OSM   H18S12543   4.902   3.872   7.485  0.1836  2.3060  0.8159
  119OSM   H18T12544   4.809   3.807   7.624  2.5546 -1.1557 -0.6449
  119OSM   H18U12545   4.746   3.951   7.521 -0.2746 -0.6285 -0.5576
  119OSM    C1F12546   4.589   2.771   6.296  0.0663 -0.0119 -0.1857
  119OSM     OF12547   4.662   2.768   6.203  0.1901 -0.4845 -0.8509
  119OSM    C2F12548   4.625   2.727   6.436  0.2238  1.1631  0.6782
  119OSM    H2F12549   4.556   2.642   6.453  1.2693 -0.5592 -2.7824
  119OSM    H2G12550   4.602   2.813   6.503  1.7199  0.2274  2.4701
  119OSM    C3F12551   4.769   2.688   6.458  0.5469 -0.1010 -0.2534
  119OSM    H3F12552   4.831   2.773   6.424 -1.4476  1.4993 -0.1205
  119OSM    H3G12553   4.793   2.598   6.397  0.1835 -0.2120 -0.2406
  119OSM    C4F12554   4.793   2.673   6.603  0.5658  0.0371 -0.3233
  119OSM    H4F12555   4.765   2.757   6.671  1.6796  0.8414 -0.8261
  119OSM    H4G12556   4.903   2.671   6.620  0.4229  0.1102  0.6676
  119OSM    C5F12557   4.744   2.538   6.659 -0.4265 -0.0426 -0.5458
  119OSM    H5F12558   4.785   2.453   6.601 -0.5060 -2.0715  2.1845
  119OSM    H5G12559   4.634   2.524   6.648 -0.4627  0.1265 -0.4072
  119OSM    C6F12560   4.786   2.528   6.808 -0.7485 -0.0371  0.6661
  119OSM    H6F12561   4.724   2.446   6.851 -0.2318 -1.5299 -1.2986
  119OSM    H6G12562   4.765   2.622   6.862  1.1278 -0.8931  3.0591
  119OSM    C7F12563   4.932   2.490   6.834 -0.2786  0.1171 -0.3216
  119OSM    H7F12564   4.994   2.582   6.840  0.6495 -0.5044 -0.0766
  119OSM    H7G12565   4.976   2.428   6.753  1.3366  0.1477  0.4923
  119OSM    C8F12566   4.957   2.421   6.967 -0.8387  0.3425 -0.2157
  119OSM    H8F12567   4.909   2.322   6.953  1.1708 -0.8773  0.9326
  119OSM    H8G12568   4.898   2.466   7.050 -1.9204 -0.6309 -0.4341
  119OSM    C9F12569   5.105   2.418   6.991 -0.4131 -0.1710 -0.7753
  119OSM    H9F12570   5.145   2.321   6.956 -0.8375 -0.6161 -0.0607
  119OSM   C10F12571   5.179   2.497   7.066 -0.4130 -0.2947 -0.5431
  119OSM   H10F12572   5.287   2.481   7.064 -0.0495  1.8411 -2.1455
  119OSM   C11F12573   5.127   2.612   7.152 -0.4011  0.6301  0.5461
  119OSM   H11F12574   5.032   2.660   7.119 -1.9983 -1.0532  2.4169
  119OSM   H11G12575   5.193   2.701   7.153 -0.6542  0.8652 -0.7968
  119OSM   C12F12576   5.104   2.554   7.297 -0.4971 -0.8625 -0.0514
  119OSM   H12F12577   5.035   2.466   7.296  0.4726 -1.6957  1.6685
  119OSM   H12G12578   5.041   2.624   7.356 -0.7139  0.0838 -1.3619
  119OSM   C13F12579   5.233   2.531   7.372 -0.5484  0.4758  0.1905
  119OSM   H13F12580   5.305   2.614   7.353  1.1491 -0.9900 -0.0065
  119OSM   H13G12581   5.287   2.439   7.342  0.7846  1.1644  0.3686
  119OSM   C14F12582   5.224   2.517   7.524  0.5790  0.2450 -0.2090
  119OSM   H14F12583   5.174   2.596   7.584  2.1083 -0.8529  2.7004
  119OSM   H14G12584   5.331   2.514   7.554  0.5656 -1.8273 -0.2621
  119OSM   C15F12585   5.163   2.389   7.572 -0.3198 -0.1561 -0.3986
  119OSM   H15F12586   5.228   2.304   7.541 -1.6402 -2.0068  1.5993
  119OSM   H15G12587   5.062   2.368   7.532 -1.3088  1.9898  0.8147
  119OSM   C16F12588   5.154   2.376   7.726  0.3421  0.7528 -0.2799
  119OSM   H16F12589   5.112   2.275   7.744 -0.5492  1.4659  2.0487
  119OSM   H16G12590   5.079   2.447   7.768 -1.2460 -1.3373  0.5621
  119OSM   C17F12591   5.285   2.390   7.800  0.0627  0.3123  0.1668
  119OSM   H17F12592   5.326   2.487   7.763 -0.3775  0.3527 -0.2301
  119OSM   H17G12593   5.353   2.313   7.759 -0.1464  0.2323 -0.0344
  119OSM   C18F12594   5.269   2.394   7.948 -0.3665  0.4299 -0.0664
  119OSM   H18F12595   5.262   2.497   7.990  0.2548  0.2717  0.4334
  119OSM   H18G12596   5.362   2.359   7.997  0.8407  0.1162 -2.4361
  119OSM   H18H12597   5.187   2.324   7.973 -1.3711  0.9614 -1.6948
  120OSM      N12598   2.072   0.550   6.586 -0.0041 -0.2844 -0.1767
  120OSM    C1512599   2.138   0.681   6.552  0.1724 -0.3042 -0.3373
  120OSM   H15A12600   2.103   0.762   6.615  2.2019  0.1768  0.2700
  120OSM   H15B12601   2.134   0.699   6.446 -0.5287  3.2064  0.1628
  120OSM   H15C12602   2.245   0.673   6.567 -0.0939 -2.6605  0.7076
  120OSM    C1412603   2.057   0.544   6.739  0.6595 -0.0917  0.6204
  120OSM   H14A12604   2.147   0.565   6.795  1.0422  1.0558 -0.3807
  120OSM   H14B12605   2.039   0.441   6.764  2.6248 -1.6696 -3.5767
  120OSM   H14C12606   1.986   0.612   6.784  0.6351 -1.2236  2.3671
  120OSM    C1312607   1.938   0.551   6.526 -0.2620  0.3066 -0.0041
  120OSM   H13A12608   1.872   0.625   6.568 -2.6040 -1.9154  0.4813
  120OSM   H13B12609   1.883   0.458   6.521  2.8604 -1.7282  0.4042
  120OSM   H13C12610   1.951   0.578   6.422  1.9942 -0.6021 -0.0284
  120OSM    C1212611   2.148   0.436   6.532 -0.2734  0.5037 -0.0131
  120OSM   H12A12612   2.158   0.435   6.425  0.7892 -1.6671  0.0374
  120OSM   H12B12613   2.093   0.350   6.568  0.6827  0.2479  0.8852
  120OSM    C1112614   2.293   0.427   6.576 -0.3247 -0.3358  0.3961
  120OSM   H11A12615   2.332   0.323   6.571 -0.5874 -0.4309  0.3461
  120OSM   H11B12616   2.300   0.455   6.683  0.5518 -0.6080  0.4146
  120OSM      P12617   2.499   0.464   6.421 -0.0826  0.3512 -0.4131
  120OSM    O1312618   2.439   0.375   6.316  0.6921 -0.5053 -0.0238
  120OSM    O1412619   2.592   0.572   6.384 -0.5123 -0.4965  0.2412
  120OSM    O1112620   2.571   0.378   6.535  0.3605 -0.0273 -0.7598
  120OSM    O1212621   2.373   0.519   6.493  0.2951 -0.0574 -0.0631
  120OSM    C1S12622   2.606   0.434   6.663  0.0070 -0.0705  0.2045
  120OSM    H1S12623   2.527   0.485   6.722  0.0718 -0.9481  1.0720
  120OSM    H1T12624   2.679   0.515   6.640  0.8790 -1.3566 -1.8163
  120OSM     NF12625   2.708   0.398   6.890  0.2390 -0.4073  0.0366
  120OSM    HNF12626   2.798   0.440   6.904  1.4046 -2.8733  0.5626
  120OSM    C2S12627   2.683   0.336   6.756  0.0210 -0.1848 -0.1633
  120OSM    H2S12628   2.611   0.251   6.758  0.2276 -0.3432  0.9917
  120OSM    C3S12629   2.819   0.290   6.691 -1.2622 -0.0525 -0.4298
  120OSM    H3S12630   2.873   0.386   6.676  0.6312 -1.0070 -0.1038
  120OSM     O312631   2.816   0.228   6.562 -0.0417 -0.2040 -0.3410
  120OSM    HO312632   2.732   0.258   6.528 -0.2918  1.9199  1.8761
  120OSM    C4S12633   2.899   0.199   6.781 -0.5360 -0.2872 -0.1199
  120OSM    H4S12634   2.848   0.106   6.811 -1.1794  0.1608  0.2054
  120OSM    C5S12635   3.023   0.216   6.834 -0.2526 -0.2207  1.0719
  120OSM    H5S12636   3.075   0.312   6.821 -0.0147 -0.4741 -0.0124
  120OSM    C6S12637   3.078   0.125   6.932  0.4770  0.1845  0.4129
  120OSM    H6S12638   3.188   0.115   6.919  0.5428  0.4041  0.8036
  120OSM    H6T12639   3.032   0.024   6.941  1.4958 -0.2102  1.4862
  120OSM    C7S12640   3.059   0.188   7.074 -0.1005 -0.1275 -0.4611
  120OSM    H7S12641   2.951   0.202   7.095  0.0172 -2.1871  1.9421
  120OSM    H7T12642   3.107   0.288   7.070 -2.6805  1.2923  1.4061
  120OSM    C8S12643   3.112   0.098   7.188  0.3262 -0.0921 -0.1877
  120OSM    H8S12644   3.219   0.070   7.181  0.5022  0.5911 -0.3450
  120OSM    H8T12645   3.055   0.003   7.194 -1.1158  0.7846  0.4304
  120OSM    C9S12646   3.092   0.161   7.324 -0.0949 -0.2054 -0.8222
  120OSM    H9S12647   2.982   0.177   7.334 -0.1705 -0.0077 -1.8978
  120OSM    H9T12648   3.149   0.256   7.327  2.0129 -1.4243 -0.3039
  120OSM   C10S12649   3.151   0.073   7.439  0.0481  0.6997 -0.0990
  120OSM   H10S12650   3.256   0.040   7.427 -0.8150 -2.6124  0.3799
  120OSM   H10T12651   3.093  -0.022   7.441  2.9988 -1.2894 -1.8923
  120OSM   C11S12652   3.146   0.149   7.572 -0.2545  0.5183 -0.1996
  120OSM   H11S12653   3.038   0.173   7.579 -0.1379  1.1893 -0.6289
  120OSM   H11T12654   3.204   0.244   7.574 -1.3534  1.2011  0.8471
  120OSM   C12S12655   3.194   0.051   7.684 -0.3087 -0.2758  0.3905
  120OSM   H12S12656   3.305   0.052   7.688 -0.1900  1.2905 -1.6920
  120OSM   H12T12657   3.147  -0.049   7.673 -2.9857  0.6768  2.1330
  120OSM   C13S12658   3.155   0.103   7.831  0.1942  0.3652  0.0836
  120OSM   H13S12659   3.045   0.094   7.828  0.3725 -3.8728 -2.2645
  120OSM   H13T12660   3.178   0.211   7.822 -4.5013  1.4900 -0.6412
  120OSM   C14S12661   3.222   0.028   7.944  0.1636 -0.0752 -0.1365
  120OSM   H14S12662   3.194   0.072   8.042  2.3872  1.3459 -0.0595
  120OSM   H14T12663   3.332   0.039   7.935  0.1684 -0.6238 -0.8632
  120OSM   C15S12664   3.184  -0.117   7.950  0.0479  0.0491 -0.0095
  120OSM   H15S12665   3.208  -0.163   7.852 -0.6383  0.3411 -0.3264
  120OSM   H15T12666   3.075  -0.138   7.961  0.0768 -0.4548 -0.6441
  120OSM   C16S12667   3.257  -0.173   8.077  0.1074  0.6984 -0.4679
  120OSM   H16S12668   3.365  -0.151   8.069 -0.2011  1.8467 -1.9389
  120OSM   H16T12669   3.240  -0.282   8.066 -0.8644  0.9679 -1.8505
  120OSM   C17S12670   3.200  -0.131   8.216 -1.1709  0.2448  0.7955
  120OSM   H17S12671   3.098  -0.170   8.236 -2.3306  2.6761 -0.0377
  120OSM   H17T12672   3.171  -0.024   8.213 -5.2337 -0.7199 -1.3015
  120OSM   C18S12673   3.296  -0.167   8.335 -0.0687 -0.3557  0.1408
  120OSM   H18S12674   3.391  -0.109   8.326  2.1377 -3.5562  0.7548
  120OSM   H18T12675   3.347  -0.266   8.327  2.2405  0.4302  3.1033
  120OSM   H18U12676   3.240  -0.159   8.430 -0.3473  1.0633 -0.1317
  120OSM    C1F12677   2.613   0.407   6.984  0.3051  0.0667  0.2511
  120OSM     OF12678   2.498   0.369   6.957 -0.2991  0.1451 -0.1219
  120OSM    C2F12679   2.654   0.463   7.119  0.1207 -0.4285 -0.1720
  120OSM    H2F12680   2.583   0.544   7.146  0.4079 -0.3484  0.3647
  120OSM    H2G12681   2.753   0.512   7.105 -0.2223  0.2139 -0.3756
  120OSM    C3F12682   2.669   0.363   7.236 -0.4618  0.5578  0.1603
  120OSM    H3F12683   2.740   0.281   7.214  0.8724  1.8166 -0.4301
  120OSM    H3G12684   2.569   0.315   7.238  0.3289 -1.1846 -0.2207
  120OSM    C4F12685   2.696   0.427   7.375 -0.8092 -0.1395  0.7114
  120OSM    H4F12686   2.606   0.489   7.393  0.2215  2.1483 -1.4213
  120OSM    H4G12687   2.786   0.488   7.354 -2.2711  1.9614  0.2705
  120OSM    C5F12688   2.722   0.320   7.482 -0.3724  0.4191  0.4469
  120OSM    H5F12689   2.808   0.255   7.456 -0.2430  0.4363  0.8120
  120OSM    H5G12690   2.635   0.250   7.483  0.7379 -1.0275  1.8806
  120OSM    C6F12691   2.752   0.368   7.626  0.7288 -0.1877 -0.7211
  120OSM    H6F12692   2.813   0.460   7.618 -0.3144  0.5950  0.0504
  120OSM    H6G12693   2.800   0.297   7.697 -0.2851  0.7073  0.8962
  120OSM    C7F12694   2.619   0.402   7.705  0.3368  0.4507 -0.3713
  120OSM    H7F12695   2.563   0.309   7.728  2.7846 -0.6261  1.6174
  120OSM    H7G12696   2.553   0.465   7.641  0.4948 -0.7953 -1.8211
  120OSM    C8F12697   2.635   0.478   7.845 -0.0365 -0.3730 -0.0555
  120OSM    H8F12698   2.535   0.510   7.878  0.2018  1.2851 -0.8549
  120OSM    H8G12699   2.695   0.569   7.823  0.6030 -0.6819  0.3602
  120OSM    C9F12700   2.696   0.388   7.951 -0.0020 -0.1026  0.1981
  120OSM    H9F12701   2.632   0.307   7.988  1.7328 -1.2268  0.8682
  120OSM   C10F12702   2.816   0.386   8.010  0.4982  0.0378 -0.3255
  120OSM   H10F12703   2.826   0.314   8.093  0.1668  0.7382  0.3370
  120OSM   C11F12704   2.927   0.482   7.989  0.0648  0.6633  0.6066
  120OSM   H11F12705   2.904   0.557   7.911  0.8658  1.2700  0.9341
  120OSM   H11G12706   3.009   0.413   7.958 -0.2798  0.6444 -0.2822
  120OSM   C12F12707   2.975   0.559   8.110  0.0252 -0.1459 -0.2223
  120OSM   H12F12708   3.062   0.623   8.083 -0.2882  0.2304 -0.3481
  120OSM   H12G12709   3.015   0.492   8.189 -0.7626  0.4588  0.7200
  120OSM   C13F12710   2.867   0.647   8.180 -0.2164 -0.0161  0.6369
  120OSM   H13F12711   2.777   0.589   8.211 -0.6307 -0.6206 -1.5109
  120OSM   H13G12712   2.843   0.724   8.104  0.1693 -0.0940  0.4371
  120OSM   C14F12713   2.927   0.719   8.298 -0.6256  0.3496 -0.2743
  120OSM   H14F12714   2.864   0.802   8.337  0.9356  1.4632 -0.0306
  120OSM   H14G12715   3.021   0.768   8.266 -1.2004  2.0094  0.5045
  120OSM   C15F12716   2.945   0.628   8.425 -0.2212  0.5605  0.7395
  120OSM   H15F12717   3.013   0.543   8.404  1.2004  1.5206  1.2707
  120OSM   H15G12718   2.844   0.588   8.444  0.0975 -0.9666 -0.5904
  120OSM   C16F12719   2.997   0.687   8.553 -0.3157 -0.6807 -0.3939
  120OSM   H16F12720   3.101   0.724   8.539 -1.1444  2.6911  1.2526
  120OSM   H16G12721   3.002   0.612   8.635  1.1934  0.1362  0.3002
  120OSM   C17F12722   2.907   0.803   8.606 -0.3091  0.4509  0.0698
  120OSM   H17F12723   2.932   0.812   8.715 -2.4342 -2.1649  0.8683
  120OSM   H17G12724   2.800   0.776   8.597 -0.0188 -0.3158 -1.3255
  120OSM   C18F12725   2.947   0.943   8.554 -0.4030  0.2853  0.1117
  120OSM   H18F12726   2.892   1.025   8.604 -1.5097  0.5603 -1.4879
  120OSM   H18G12727   2.938   0.962   8.445 -1.0162  0.2384  0.1491
  120OSM   H18H12728   3.057   0.940   8.571 -0.2067 -0.8630 -1.1695
  121OSM      N12729   5.462   3.302   6.058 -0.2180  0.0939 -0.4071
  121OSM    C1512730   5.426   3.292   6.202  0.5529 -0.1407 -0.5325
  121OSM   H15A12731   5.434   3.389   6.249 -0.6466  1.1109 -2.7630
  121OSM   H15B12732   5.476   3.222   6.267  1.6928  0.9897 -0.1419
  121OSM   H15C12733   5.319   3.276   6.196  0.3611 -0.1686  1.9310
  121OSM    C1412734   5.404   3.429   6.010 -0.7593  0.5712  0.4767
  121OSM   H14A12735   5.296   3.433   6.007 -0.8596 -0.8056  1.1683
  121OSM   H14B12736   5.437   3.450   5.910 -0.0900 -1.9823  0.0880
  121OSM   H14C12737   5.441   3.518   6.059 -0.6495  1.3756 -1.0200
  121OSM    C1312738   5.609   3.307   6.075  0.2136  0.0533 -0.8600
  121OSM   H13A12739   5.650   3.246   6.154 -1.8947 -0.1269  0.1594
  121OSM   H13B12740   5.633   3.409   6.101 -1.9791  0.4173 -0.0299
  121OSM   H13C12741   5.651   3.285   5.978 -0.3933  0.1996 -1.1587
  121OSM    C1212742   5.426   3.184   5.973 -0.1264 -0.1011  0.3939
  121OSM   H12A12743   5.472   3.095   6.014 -0.0957 -0.0093  0.5583
  121OSM   H12B12744   5.465   3.197   5.873  0.7574  1.8672  0.9412
  121OSM    C1112745   5.275   3.143   5.967 -0.7391 -0.1196  0.3408
  121OSM   H11A12746   5.208   3.223   5.929 -0.2697 -0.6861 -1.8018
  121OSM   H11B12747   5.239   3.121   6.069 -0.0208 -0.3412  0.5550
  121OSM      P12748   5.290   2.880   5.950  0.0608  0.1374  0.1895
  121OSM    O1312749   5.183   2.794   5.885 -0.2154  0.5270  0.1654
  121OSM    O1412750   5.429   2.838   5.928  0.0449 -0.1319  0.1872
  121OSM    O1112751   5.257   2.891   6.105  0.0132  0.3863  0.8813
  121OSM    O1212752   5.275   3.027   5.885 -0.0229  0.1139  0.2735
  121OSM    C1S12753   5.353   2.869   6.198 -0.9279  0.3229  0.2406
  121OSM    H1S12754   5.441   2.931   6.170  1.0564 -1.3918  2.2279
  121OSM    H1T12755   5.385   2.763   6.193 -0.5619  0.3774  1.1864
  121OSM     NF12756   5.421   2.904   6.437  0.4426 -0.0433 -0.6044
  121OSM    HNF12757   5.405   2.829   6.501  0.4370 -0.2081 -0.7971
  121OSM    C2S12758   5.310   2.914   6.348  0.2413  0.1302 -0.4115
  121OSM    H2S12759   5.289   3.023   6.351 -2.4528 -0.3483  0.7110
  121OSM    C3S12760   5.183   2.836   6.389 -0.9095  0.2076  0.4738
  121OSM    H3S12761   5.200   2.727   6.389  0.6137  0.4055 -0.8144
  121OSM     O312762   5.078   2.850   6.295  0.1993  0.2707  0.2379
  121OSM    HO312763   5.122   2.892   6.221  0.9446  0.8412  0.9892
  121OSM    C4S12764   5.136   2.882   6.524  0.2888  0.3310  0.3142
  121OSM    H4S12765   5.098   2.985   6.532 -1.3884 -0.2799  0.6696
  121OSM    C5S12766   5.142   2.799   6.632  0.0298  0.0967  0.7599
  121OSM    H5S12767   5.178   2.695   6.626 -0.9247 -0.2441  0.8457
  121OSM    C6S12768   5.109   2.829   6.775  0.2309 -0.2206  0.0442
  121OSM    H6S12769   5.154   2.752   6.841 -2.0875  0.1213  2.1555
  121OSM    H6T12770   5.001   2.823   6.800  0.0191 -2.0941 -1.1694
  121OSM    C7S12771   5.159   2.964   6.815  0.9651 -0.4234 -0.4899
  121OSM    H7S12772   5.126   3.051   6.754  1.9567 -1.2979 -2.3720
  121OSM    H7T12773   5.270   2.962   6.820  0.9789  0.3775 -0.4376
  121OSM    C8S12774   5.098   3.004   6.953 -0.4772  0.4838 -0.1342
  121OSM    H8S12775   5.110   2.920   7.025  3.8343 -1.0018 -2.2282
  121OSM    H8T12776   4.988   3.022   6.957 -0.6512 -0.5696  3.5043
  121OSM    C9S12777   5.175   3.129   7.011  0.3253 -0.3897 -0.1521
  121OSM    H9S12778   5.143   3.222   6.959 -0.3988 -0.3432  0.3598
  121OSM    H9T12779   5.285   3.116   7.003  0.4635  0.5786 -0.0007
  121OSM   C10S12780   5.152   3.148   7.159 -0.4916 -0.5191  0.2399
  121OSM   H10S12781   5.042   3.152   7.178 -0.9355  1.6808 -2.1958
  121OSM   H10T12782   5.201   3.247   7.171 -0.6423 -0.4328  0.1434
  121OSM   C11S12783   5.215   3.034   7.246 -0.3472 -0.4652  0.3076
  121OSM   H11S12784   5.320   3.026   7.209 -0.8235  1.6828 -1.7534
  121OSM   H11T12785   5.154   2.943   7.228  0.1254 -0.6596 -0.3503
  121OSM   C12S12786   5.211   3.071   7.392  0.3584 -0.7321 -0.8031
  121OSM   H12S12787   5.105   3.096   7.416  1.1218  0.6141  1.5029
  121OSM   H12T12788   5.268   3.163   7.415 -0.0551 -0.7144  0.1934
  121OSM   C13S12789   5.241   2.960   7.495 -1.0752  0.0374 -0.4115
  121OSM   H13S12790   5.345   2.923   7.484 -1.0281  0.1633 -0.3972
  121OSM   H13T12791   5.176   2.880   7.453  1.2893 -1.0442 -2.1837
  121OSM   C14S12792   5.197   2.995   7.639  0.3250  0.2444 -0.0177
  121OSM   H14S12793   5.087   3.007   7.650  0.4435  0.7064  0.6926
  121OSM   H14T12794   5.229   3.097   7.670 -0.8356  0.3510  0.9242
  121OSM   C15S12795   5.253   2.893   7.741  0.5972 -0.2094  0.2834
  121OSM   H15S12796   5.364   2.882   7.740  0.7502  1.1078  0.1217
  121OSM   H15T12797   5.213   2.795   7.707  0.4977 -0.4034  0.9462
  121OSM   C16S12798   5.195   2.910   7.882  0.4604  0.0962  0.4859
  121OSM   H16S12799   5.099   2.855   7.892  1.2361 -1.5353 -0.6889
  121OSM   H16T12800   5.169   3.017   7.900  1.8267  0.4296  0.5669
  121OSM   C17S12801   5.284   2.870   7.997 -0.2346  0.5274 -0.1486
  121OSM   H17S12802   5.304   2.762   7.981  0.7211  0.6923 -0.0854
  121OSM   H17T12803   5.223   2.892   8.088 -0.3745  0.2487 -0.1725
  121OSM   C18S12804   5.419   2.945   8.005 -0.3172 -1.1253 -0.3282
  121OSM   H18S12805   5.482   2.916   7.918  2.3842  0.1527  1.0884
  121OSM   H18T12806   5.463   2.897   8.095 -0.8837 -2.2469 -0.6231
  121OSM   H18U12807   5.408   3.055   8.007  2.0711 -0.8309 -0.1923
  121OSM    C1F12808   5.533   2.982   6.437  0.1631 -0.2543  0.1670
  121OSM     OF12809   5.541   3.094   6.392  0.5671  0.3346 -0.0105
  121OSM    C2F12810   5.650   2.926   6.511  0.3432  0.4522  0.7169
  121OSM    H2F12811   5.685   2.833   6.462 -1.3976  0.3184 -0.3613
  121OSM    H2G12812   5.609   2.914   6.614  1.0406  2.6547  1.3218
  121OSM    C3F12813   5.773   3.021   6.526  0.6077  0.4611  0.7561
  121OSM    H3F12814   5.745   3.116   6.576  1.3061  0.0413  1.9566
  121OSM    H3G12815   5.801   3.057   6.425  0.7583  0.6014  0.8496
  121OSM    C4F12816   5.900   2.971   6.591 -0.4786  0.3459 -0.2684
  121OSM    H4F12817   5.982   3.044   6.571  1.7382 -1.4065  1.8694
  121OSM    H4G12818   5.940   2.879   6.542  2.8471 -0.1101  2.9146
  121OSM    C5F12819   5.881   2.945   6.748  0.4723  0.2418  0.2050
  121OSM    H5F12820   5.801   2.870   6.764 -1.8786  2.7333  1.0761
  121OSM    H5G12821   5.853   3.034   6.810 -0.4108 -0.1324  0.3637
  121OSM    C6F12822   6.010   2.887   6.811 -1.0484 -0.6000  0.9001
  121OSM    H6F12823   6.103   2.941   6.785 -1.4109  0.5008  1.7961
  121OSM    H6G12824   6.020   2.782   6.777  0.7707 -0.2201  0.1816
  121OSM    C7F12825   5.992   2.864   6.964 -0.4358 -0.1437 -0.0448
  121OSM    H7F12826   6.059   2.784   7.002  1.8549  0.6464 -2.1932
  121OSM    H7G12827   5.896   2.815   6.990 -1.1540  1.0070 -0.4647
  121OSM    C8F12828   6.011   2.994   7.054  0.6349  0.1424  0.2082
  121OSM    H8F12829   5.913   3.037   7.022  0.7853 -0.2117 -0.7800
  121OSM    H8G12830   6.094   3.052   7.009  1.7130 -1.1672  0.4583
  121OSM    C9F12831   6.032   2.990   7.204  0.3473 -0.4265  0.1963
  121OSM    H9F12832   6.006   2.896   7.255 -1.9136 -1.9303 -3.3373
  121OSM   C10F12833   6.071   3.094   7.282 -0.1504 -0.9671  0.1561
  121OSM   H10F12834   6.087   3.079   7.390  4.0053  0.8268 -0.0145
  121OSM   C11F12835   6.100   3.235   7.245  0.2761  0.2304  0.0083
  121OSM   H11F12836   6.175   3.245   7.164  0.1312 -0.7366 -0.2665
  121OSM   H11G12837   6.154   3.285   7.328  2.9638 -1.0161 -0.8476
  121OSM   C12F12838   5.972   3.303   7.215  0.3313 -0.7771  0.0197
  121OSM   H12F12839   5.909   3.298   7.306  1.1577  0.9075  0.7370
  121OSM   H12G12840   5.931   3.247   7.128  0.9137 -1.3113  0.0896
  121OSM   C13F12841   5.987   3.457   7.186 -0.2862 -0.8511 -0.1119
  121OSM   H13F12842   6.056   3.502   7.259  0.1145 -0.2581 -0.8365
  121OSM   H13G12843   5.893   3.512   7.209  1.2827  2.3853 -0.9197
  121OSM   C14F12844   6.033   3.479   7.040 -0.4511  0.0717  1.2338
  121OSM   H14F12845   5.957   3.444   6.967 -0.8188  1.8112  0.7425
  121OSM   H14G12846   6.126   3.420   7.026 -1.1870 -0.5108 -1.9779
  121OSM   C15F12847   6.068   3.623   7.014 -0.0708 -0.2952  0.1954
  121OSM   H15F12848   6.140   3.662   7.089 -1.3504  3.8355 -0.4673
  121OSM   H15G12849   5.981   3.681   7.050  1.6722 -0.4210  5.4017
  121OSM   C16F12850   6.109   3.654   6.871 -0.1554 -0.0707  0.5754
  121OSM   H16F12851   6.034   3.613   6.800 -0.7945  1.4446  0.3255
  121OSM   H16G12852   6.198   3.597   6.838 -0.0504  0.3343  0.1375
  121OSM   C17F12853   6.130   3.800   6.836  0.1002  0.0939 -0.0245
  121OSM   H17F12854   6.226   3.828   6.885 -1.0857 -0.4680  2.7898
  121OSM   H17G12855   6.044   3.854   6.880 -0.9641  0.7098 -2.6662
  121OSM   C18F12856   6.132   3.833   6.688 -0.3545 -0.2669 -0.1509
  121OSM   H18F12857   6.150   3.941   6.674  1.8842 -0.5933 -0.2050
  121OSM   H18G12858   6.036   3.810   6.637  0.3111  0.7714 -1.9823
  121OSM   H18H12859   6.215   3.771   6.647 -0.6233 -0.9176  0.2746
  122OSM      N12860   4.129   3.717   5.555 -0.4065 -0.4056  0.1465
  122OSM    C1512861   4.128   3.591   5.471  0.7804  0.0112 -0.5197
  122OSM   H15A12862   4.155   3.615   5.370 -0.3096  0.1698 -0.7855
  122OSM   H15B12863   4.030   3.545   5.467 -0.2542  2.2135 -2.2048
  122OSM   H15C12864   4.195   3.515   5.509  1.6786  0.5070 -1.0915
  122OSM    C1412865   4.258   3.791   5.541 -0.1440 -0.5624 -0.6756
  122OSM   H14A12866   4.280   3.817   5.438  0.6648 -1.0888 -0.6415
  122OSM   H14B12867   4.343   3.742   5.587 -0.5060  0.3989  1.1214
  122OSM   H14C12868   4.257   3.882   5.600 -1.4145 -1.1097  0.1662
  122OSM    C1312869   4.011   3.792   5.505  0.1743  0.0156  0.5022
  122OSM   H13A12870   3.923   3.733   5.525  0.5592 -0.3573  1.1516
  122OSM   H13B12871   4.017   3.806   5.398 -0.8072 -0.7447  0.3349
  122OSM   H13C12872   4.000   3.893   5.543 -1.1133  0.7585 -1.6494
  122OSM    C1212873   4.108   3.675   5.704  0.2008 -0.8528  0.7170
  122OSM   H12A12874   4.196   3.624   5.741  0.3856 -1.2902 -0.2961
  122OSM   H12B12875   4.032   3.600   5.716 -0.1718 -0.2031  3.1324
  122OSM    C1112876   4.074   3.787   5.802 -0.0838  0.7497 -0.5643
  122OSM   H11A12877   4.157   3.859   5.784 -0.6768  1.6158  0.0714
  122OSM   H11B12878   4.071   3.745   5.905 -0.7062  0.5165 -0.6752
  122OSM      P12879   3.820   3.841   5.857 -0.1842 -0.0115  0.3754
  122OSM    O1312880   3.739   3.964   5.837 -0.1041 -0.3812 -0.4710
  122OSM    O1412881   3.747   3.712   5.827 -0.0380  0.5295 -0.5397
  122OSM    O1112882   3.867   3.826   6.004 -0.0063  0.2136 -0.4266
  122OSM    O1212883   3.951   3.858   5.771 -0.2128  0.4096 -0.6429
  122OSM    C1S12884   3.816   3.714   6.082  0.7885  0.7400 -0.9209
  122OSM    H1S12885   3.880   3.627   6.055  0.8508  0.4425  0.1642
  122OSM    H1T12886   3.714   3.674   6.063  0.0862  1.3775  1.2386
  122OSM     NF12887   3.797   3.605   6.292 -0.1076  0.3820 -0.6974
  122OSM    HNF12888   3.718   3.588   6.351  0.7473 -0.7041  0.1668
  122OSM    C2S12889   3.811   3.731   6.238  0.4744 -0.8786 -0.5283
  122OSM    H2S12890   3.901   3.786   6.272  1.0857 -0.1251 -3.1639
  122OSM    C3S12891   3.695   3.828   6.277  0.2299  0.2249  0.2767
  122OSM    H3S12892   3.603   3.772   6.252 -1.4633  2.1193  1.9122
  122OSM     O312893   3.689   3.951   6.203 -0.2918  0.1483  0.1138
  122OSM    HO312894   3.769   3.944   6.151 -0.9957 -2.3392 -0.7555
  122OSM    C4S12895   3.691   3.854   6.423 -0.2736 -0.1386 -0.3845
  122OSM    H4S12896   3.791   3.875   6.465 -1.0355 -0.6327  1.8514
  122OSM    C5S12897   3.579   3.841   6.497 -0.5321  0.5808  0.4751
  122OSM    H5S12898   3.499   3.792   6.439  1.5259 -0.2511 -1.8774
  122OSM    C6S12899   3.563   3.856   6.649 -0.2267  0.4641  0.3062
  122OSM    H6S12900   3.656   3.901   6.690  1.4777 -2.3402 -0.2139
  122OSM    H6T12901   3.547   3.753   6.687 -0.5412  0.3650 -0.0936
  122OSM    C7S12902   3.437   3.938   6.682 -0.1484  0.6668  0.1281
  122OSM    H7S12903   3.350   3.885   6.636  0.4668  1.4093 -2.0193
  122OSM    H7T12904   3.440   4.040   6.639  0.7674  0.2869 -0.7533
  122OSM    C8S12905   3.407   3.931   6.838  0.0623  0.5589  1.0137
  122OSM    H8S12906   3.310   3.983   6.850 -0.8170 -0.5916 -0.7487
  122OSM    H8T12907   3.479   3.995   6.894  2.7425 -0.7494 -0.6835
  122OSM    C9S12908   3.403   3.790   6.891 -0.8207 -0.1656  0.2265
  122OSM    H9S12909   3.503   3.747   6.914 -1.3583 -2.3579 -1.1956
  122OSM    H9T12910   3.359   3.722   6.815  1.7876 -0.9552 -0.6661
  122OSM   C10S12911   3.317   3.773   7.023  0.1216 -0.6803 -0.3651
  122OSM   H10S12912   3.267   3.674   7.030 -0.8095 -0.2557 -0.7367
  122OSM   H10T12913   3.237   3.851   7.024  0.6382 -0.1132 -1.3358
  122OSM   C11S12914   3.405   3.791   7.155  0.9038 -0.1178  0.1652
  122OSM   H11S12915   3.451   3.889   7.131  0.4284 -0.0766 -0.6290
  122OSM   H11T12916   3.477   3.707   7.163  1.1494  0.1479  0.8206
  122OSM   C12S12917   3.316   3.810   7.277 -0.5942  0.2847 -0.4156
  122OSM   H12S12918   3.251   3.721   7.288  0.2654 -0.3142 -0.1041
  122OSM   H12T12919   3.247   3.897   7.265 -2.3559 -0.7674  1.3996
  122OSM   C13S12920   3.396   3.833   7.400 -0.0476  0.1971 -0.0517
  122OSM   H13S12921   3.463   3.919   7.380  2.3020 -1.9552 -2.2594
  122OSM   H13T12922   3.460   3.742   7.406 -0.7477 -0.2395  1.1338
  122OSM   C14S12923   3.326   3.843   7.535 -0.0671  0.1006 -0.4090
  122OSM   H14S12924   3.256   3.756   7.529  3.0096 -2.4891 -2.8241
  122OSM   H14T12925   3.280   3.943   7.540  0.9713  0.6158 -0.8470
  122OSM   C15S12926   3.416   3.815   7.648 -0.2007  0.0970 -0.4734
  122OSM   H15S12927   3.487   3.898   7.663  0.0062 -0.0157 -0.8256
  122OSM   H15T12928   3.473   3.720   7.635  0.4693  0.6406 -1.6324
  122OSM   C16S12929   3.340   3.793   7.782 -0.3186  0.1353  0.0699
  122OSM   H16S12930   3.254   3.723   7.773 -1.5714  1.5575  0.6003
  122OSM   H16T12931   3.296   3.889   7.815 -3.7873 -2.0242  2.3865
  122OSM   C17S12932   3.438   3.754   7.897 -0.3713  0.2818  0.8211
  122OSM   H17S12933   3.530   3.814   7.915  0.4568 -0.9041  0.6519
  122OSM   H17T12934   3.470   3.653   7.864 -1.6120  0.7963 -2.2561
  122OSM   C18S12935   3.361   3.757   8.028 -0.0535 -0.0199 -0.6206
  122OSM   H18S12936   3.253   3.743   8.009  0.0281  0.4007 -1.4328
  122OSM   H18T12937   3.373   3.855   8.078 -1.9357 -0.4677  0.8067
  122OSM   H18U12938   3.389   3.683   8.106 -0.2480 -0.6756 -1.1557
  122OSM    C1F12939   3.892   3.514   6.295 -0.1145  0.0254  0.5988
  122OSM     OF12940   4.004   3.544   6.251 -0.2375 -0.2173  0.2733
  122OSM    C2F12941   3.864   3.375   6.348 -0.0626  0.1630 -0.4468
  122OSM    H2F12942   3.800   3.317   6.278  1.4550 -0.8506 -1.0794
  122OSM    H2G12943   3.809   3.381   6.444 -1.1677  0.2716 -1.0728
  122OSM    C3F12944   3.987   3.295   6.382 -0.5368 -0.1151  0.7484
  122OSM    H3F12945   4.030   3.360   6.461  2.6169  0.7085 -1.4323
  122OSM    H3G12946   4.068   3.295   6.305 -0.7597 -1.4014  0.4921
  122OSM    C4F12947   3.958   3.151   6.429  0.0859  0.3455 -0.1356
  122OSM    H4F12948   4.052   3.098   6.458 -1.1319 -2.4187 -0.8775
  122OSM    H4G12949   3.933   3.090   6.339  1.0157 -0.2088 -0.0339
  122OSM    C5F12950   3.851   3.141   6.539  0.7112  0.4424  0.7160
  122OSM    H5F12951   3.838   3.036   6.571  0.7553  0.3686  0.4989
  122OSM    H5G12952   3.753   3.166   6.493  0.5183 -1.0378  0.2634
  122OSM    C6F12953   3.885   3.214   6.667  0.3386 -0.4948  0.3284
  122OSM    H6F12954   3.812   3.187   6.746 -1.3295 -0.4664 -1.1418
  122OSM    H6G12955   3.883   3.323   6.647  1.5837 -0.5273 -0.0930
  122OSM    C7F12956   4.020   3.168   6.729 -0.3562 -0.1981 -0.4752
  122OSM    H7F12957   4.095   3.169   6.647 -0.3504  1.9323 -0.4994
  122OSM    H7G12958   4.013   3.070   6.780  0.1821  0.2734  0.5378
  122OSM    C8F12959   4.066   3.268   6.832 -0.0333  0.0450 -0.2167
  122OSM    H8F12960   4.072   3.365   6.778 -2.6222  0.4911  0.1529
  122OSM    H8G12961   4.171   3.242   6.856  0.0013  0.9233  0.6441
  122OSM    C9F12962   3.981   3.283   6.956 -0.8251 -0.2565  0.0021
  122OSM    H9F12963   3.876   3.312   6.937 -1.3828 -1.5041  1.0695
  122OSM   C10F12964   4.023   3.279   7.081  0.4663 -0.4421 -0.4296
  122OSM   H10F12965   3.944   3.266   7.156  0.1224 -0.7790 -0.8424
  122OSM   C11F12966   4.164   3.238   7.133 -0.5079 -0.1779  0.0909
  122OSM   H11F12967   4.218   3.334   7.146 -0.4464  0.0722 -1.8181
  122OSM   H11G12968   4.221   3.169   7.067 -0.9071 -2.8895  2.3847
  122OSM   C12F12969   4.168   3.170   7.267  0.0570  0.0772  0.0032
  122OSM   H12F12970   4.122   3.069   7.267  0.3421 -0.0873 -1.4468
  122OSM   H12G12971   4.108   3.232   7.337  0.0937 -0.1044  0.1930
  122OSM   C13F12972   4.306   3.147   7.316  0.2947  0.0002  0.3236
  122OSM   H13F12973   4.358   3.245   7.312 -0.3677  0.3802 -3.8724
  122OSM   H13G12974   4.372   3.081   7.255  0.2033  1.2316 -1.1662
  122OSM   C14F12975   4.323   3.095   7.459  0.3547  0.0907  0.7847
  122OSM   H14F12976   4.258   3.158   7.525 -1.4087 -0.2055 -0.5985
  122OSM   H14G12977   4.429   3.105   7.490  0.8650 -0.1369 -0.8185
  122OSM   C15F12978   4.283   2.947   7.476 -0.2933 -0.2850  0.0753
  122OSM   H15F12979   4.344   2.886   7.407  0.2258  1.4229 -1.0386
  122OSM   H15G12980   4.181   2.947   7.432  0.3011 -1.1131 -1.3460
  122OSM   C16F12981   4.285   2.918   7.620  0.4699  0.1215 -0.0376
  122OSM   H16F12982   4.214   2.838   7.652  0.6951  0.0353  0.2556
  122OSM   H16G12983   4.251   3.001   7.686 -1.6001 -1.3425  0.8882
  122OSM   C17F12984   4.420   2.877   7.673 -0.4324 -0.0533  0.2248
  122OSM   H17F12985   4.491   2.959   7.650 -0.8545  0.0827 -0.6294
  122OSM   H17G12986   4.449   2.784   7.619 -2.3168 -2.4021  2.9708
  122OSM   C18F12987   4.412   2.844   7.821  0.3542 -0.4138  0.4959
  122OSM   H18F12988   4.502   2.800   7.868  1.0988 -0.6815 -1.1195
  122OSM   H18G12989   4.338   2.762   7.824 -0.9450  0.6697 -0.5872
  122OSM   H18H12990   4.382   2.933   7.880 -0.7421 -0.7761  0.5071
  123OSM      N12991   1.489   5.959   6.018  0.0711 -0.1671  1.3293
  123OSM    C1512992   1.488   5.866   5.890  0.5376  0.3880 -0.6775
  123OSM   H15A12993   1.421   5.784   5.912 -0.8724  1.6985  0.0835
  123OSM   H15B12994   1.587   5.825   5.873 -0.2529 -2.2583  0.4411
  123OSM   H15C12995   1.454   5.913   5.799  1.5141  0.2730 -1.1079
  123OSM    C1412996   1.577   6.081   5.992  0.3442  0.2333 -0.3557
  123OSM   H14A12997   1.558   6.151   5.912  1.3325 -1.2880 -2.0031
  123OSM   H14B12998   1.678   6.044   5.986  0.2536 -1.3864  4.2913
  123OSM   H14C12999   1.581   6.137   6.084 -1.8227 -0.5267  0.2689
  123OSM    C1313000   1.358   6.004   6.051  0.3622 -0.3537 -0.3418
  123OSM   H13A13001   1.316   5.928   6.115 -0.0738  1.1034  1.1939
  123OSM   H13B13002   1.299   6.010   5.961 -1.4190 -2.9377  0.5429
  123OSM   H13C13003   1.350   6.100   6.100 -0.7788  0.3399 -1.8057
  123OSM    C1213004   1.552   5.884   6.136 -0.0012 -0.1260  0.6568
  123OSM   H12A13005   1.551   5.957   6.214  0.8010  1.5128 -0.7962
  123OSM   H12B13006   1.649   5.852   6.098 -0.2900 -1.3258  0.8697
  123OSM    C1113007   1.470   5.759   6.195  0.2060  0.0690  0.5974
  123OSM   H11A13008   1.531   5.689   6.256 -0.9540  0.6957  2.5481
  123OSM   H11B13009   1.458   5.698   6.103 -1.0029  2.4356 -0.8940
  123OSM      P13010   1.320   5.792   6.402  0.0356  0.2962  0.1177
  123OSM    O1313011   1.188   5.855   6.419  0.4282 -0.3316  0.3172
  123OSM    O1413012   1.345   5.662   6.465  0.5837  0.0781  0.0147
  123OSM    O1113013   1.422   5.897   6.459 -0.5305 -0.5445  0.1109
  123OSM    O1213014   1.342   5.789   6.244 -0.2546 -0.0159  0.0972
  123OSM    C1S13015   1.395   5.949   6.585 -0.1909  0.0956 -0.3050
  123OSM    H1S13016   1.287   5.936   6.610 -1.2119  1.6796 -3.3800
  123OSM    H1T13017   1.411   6.059   6.581 -0.6999  0.3365  2.3574
  123OSM     NF13018   1.430   5.913   6.831 -0.3129  0.0209 -0.7715
  123OSM    HNF13019   1.475   5.986   6.883 -0.9549 -0.5080  0.5712
  123OSM    C2S13020   1.478   5.880   6.696 -0.1182  0.2668 -0.1025
  123OSM    H2S13021   1.478   5.769   6.689  0.6668  0.3358 -1.7560
  123OSM    C3S13022   1.626   5.911   6.676 -0.0923  0.1342 -0.3853
  123OSM    H3S13023   1.639   6.018   6.704  1.0232 -0.5862  2.0986
  123OSM     O313024   1.671   5.900   6.541  0.1341 -0.2223  0.4091
  123OSM    HO313025   1.587   5.913   6.496 -0.6165 -0.1432  1.7716
  123OSM    C4S13026   1.715   5.830   6.767 -0.0862 -0.0691 -0.6357
  123OSM    H4S13027   1.735   5.723   6.750  0.4995 -0.3502  1.5324
  123OSM    C5S13028   1.789   5.886   6.867  0.0303 -0.0222  0.4935
  123OSM    H5S13029   1.793   5.994   6.890  0.6933  0.2443 -0.7493
  123OSM    C6S13030   1.887   5.809   6.957  0.3542  0.3179  1.4141
  123OSM    H6S13031   1.992   5.811   6.921 -0.1397 -1.6498 -0.3301
  123OSM    H6T13032   1.851   5.705   6.949 -0.5079  0.7080 -0.6932
  123OSM    C7S13033   1.892   5.859   7.098 -0.3079 -0.0166  0.4532
  123OSM    H7S13034   1.797   5.889   7.148  0.1985  1.7732  0.4163
  123OSM    H7T13035   1.950   5.954   7.092  1.9596 -1.3608  0.2521
  123OSM    C8S13036   1.958   5.747   7.185 -0.1698 -0.1424  0.1202
  123OSM    H8S13037   2.047   5.705   7.135 -0.2859  1.0093 -1.1130
  123OSM    H8T13038   1.879   5.670   7.197 -1.0951  0.8877  0.8585
  123OSM    C9S13039   1.978   5.788   7.332 -0.1992  0.3459 -0.0221
  123OSM    H9S13040   1.878   5.819   7.369 -0.8950 -0.5479 -1.0951
  123OSM    H9T13041   2.025   5.888   7.328  0.8029 -0.0867  0.4316
  123OSM   C10S13042   2.043   5.679   7.433 -0.6239  0.2958  0.4826
  123OSM   H10S13043   2.140   5.645   7.391 -0.1960 -0.2649  1.8855
  123OSM   H10T13044   1.976   5.591   7.425  0.0274 -0.2219  0.6730
  123OSM   C11S13045   2.065   5.731   7.573  0.1628 -0.8446  0.9221
  123OSM   H11S13046   1.977   5.787   7.609  0.8263  0.7010  0.2187
  123OSM   H11T13047   2.144   5.808   7.584 -0.8597  0.0546  2.4077
  123OSM   C12S13048   2.115   5.627   7.671  0.9316 -0.6138 -0.1309
  123OSM   H12S13049   2.203   5.578   7.626 -0.4186  1.0303 -5.1511
  123OSM   H12T13050   2.037   5.547   7.677 -1.2625  1.4480  0.6850
  123OSM   C13S13051   2.131   5.677   7.816 -0.3721 -1.1558 -0.1175
  123OSM   H13S13052   2.203   5.761   7.818 -3.1447  1.3710 -0.2205
  123OSM   H13T13053   2.166   5.604   7.892 -1.8387  1.8620  3.7828
  123OSM   C14S13054   1.994   5.728   7.880 -1.2192  0.6418  0.3975
  123OSM   H14S13055   1.929   5.770   7.801 -1.8280 -0.2502  0.4143
  123OSM   H14T13056   2.017   5.811   7.949 -0.7933  1.2285 -0.4366
  123OSM   C15S13057   1.926   5.613   7.963  0.8527 -0.3411 -0.4208
  123OSM   H15S13058   2.004   5.574   8.032 -0.4188 -2.4235 -0.0617
  123OSM   H15T13059   1.908   5.539   7.882  0.2737 -1.4083  0.6482
  123OSM   C16S13060   1.803   5.650   8.039 -0.4622  0.0090 -0.1925
  123OSM   H16S13061   1.742   5.676   7.951  0.0042 -1.3199 -0.9350
  123OSM   H16T13062   1.820   5.744   8.096 -0.7892 -0.4319  0.6575
  123OSM   C17S13063   1.736   5.528   8.114  0.6673  0.2937 -0.0852
  123OSM   H17S13064   1.727   5.446   8.040 -0.4156 -0.9886  1.4030
  123OSM   H17T13065   1.634   5.555   8.147  0.7286  0.1193  0.2557
  123OSM   C18S13066   1.812   5.464   8.234  0.7730  0.2566  0.4041
  123OSM   H18S13067   1.773   5.360   8.247 -1.4250  1.0747  0.9013
  123OSM   H18T13068   1.786   5.519   8.327  1.7028  1.2462  0.0968
  123OSM   H18U13069   1.922   5.456   8.218  0.9169  1.8457  0.4694
  123OSM    C1F13070   1.313   5.872   6.879 -0.0338 -0.3141 -0.5024
  123OSM     OF13071   1.241   5.798   6.807 -0.0756  0.4199  0.3221
  123OSM    C2F13072   1.264   5.928   7.011  0.7654 -0.8424  0.4026
  123OSM    H2F13073   1.188   6.005   6.983  2.3445  0.9528  0.8096
  123OSM    H2G13074   1.348   5.969   7.072 -0.7723  0.1398  1.9695
  123OSM    C3F13075   1.198   5.810   7.090 -0.0111 -0.3831  0.1011
  123OSM    H3F13076   1.264   5.720   7.091  1.0988  0.4044  0.0319
  123OSM    H3G13077   1.099   5.799   7.041  0.7171 -1.0914 -1.2830
  123OSM    C4F13078   1.177   5.847   7.239  0.4987 -0.1775  0.4133
  123OSM    H4F13079   1.103   5.929   7.252 -0.2375 -0.8786  0.7929
  123OSM    H4G13080   1.275   5.883   7.279  2.0054 -0.4770 -2.7421
  123OSM    C5F13081   1.129   5.724   7.317 -1.0134  0.2595 -0.2789
  123OSM    H5F13082   1.210   5.649   7.304 -0.6388  0.0235  2.6381
  123OSM    H5G13083   1.036   5.698   7.262  1.3301 -0.6519 -4.2495
  123OSM    C6F13084   1.105   5.743   7.470 -0.8570  0.1279  0.1797
  123OSM    H6F13085   1.021   5.815   7.481 -1.4670 -0.2752 -1.5630
  123OSM    H6G13086   1.196   5.800   7.497  0.1363 -0.8835 -0.8884
  123OSM    C7F13087   1.096   5.609   7.544  0.2564  0.3788  0.0854
  123OSM    H7F13088   1.154   5.630   7.637  0.2259  1.9404 -0.2051
  123OSM    H7G13089   1.157   5.530   7.496 -0.5320 -0.9697  1.2308
  123OSM    C8F13090   0.959   5.551   7.572  0.5235 -0.2754  0.6444
  123OSM    H8F13091   0.971   5.444   7.601 -2.5886 -0.8069  0.2331
  123OSM    H8G13092   0.889   5.555   7.486  2.0156 -1.3882 -0.7143
  123OSM    C9F13093   0.886   5.624   7.687 -0.3542  0.2091 -0.7498
  123OSM    H9F13094   0.851   5.726   7.665 -0.2741  1.2495  3.0737
  123OSM   C10F13095   0.867   5.579   7.812 -1.1362  0.6130 -0.1921
  123OSM   H10F13096   0.805   5.636   7.882 -0.7070 -0.7948  1.3987
  123OSM   C11F13097   0.920   5.450   7.872 -0.3984 -0.3244  0.1087
  123OSM   H11F13098   1.029   5.428   7.878  0.0762  1.6361 -0.5618
  123OSM   H11G13099   0.875   5.362   7.822 -0.4731 -1.5018  2.1174
  123OSM   C12F13100   0.871   5.438   8.018 -0.1564 -0.5961 -0.1551
  123OSM   H12F13101   0.902   5.335   8.047  0.9167 -0.6613 -1.4543
  123OSM   H12G13102   0.761   5.445   8.030 -0.0012 -0.4164  1.3684
  123OSM   C13F13103   0.920   5.536   8.125  0.3002  0.4042 -1.0281
  123OSM   H13F13104   0.888   5.635   8.087 -2.6505  0.5413  1.3756
  123OSM   H13G13105   1.026   5.525   8.156 -0.3584  0.7012  1.6172
  123OSM   C14F13106   0.849   5.512   8.256 -0.0114  0.1320 -0.7836
  123OSM   H14F13107   0.742   5.542   8.248  0.0276  0.9201  1.0926
  123OSM   H14G13108   0.892   5.570   8.341  1.3389 -0.6141 -0.9335
  123OSM   C15F13109   0.857   5.357   8.302 -0.1043 -0.2583  0.6387
  123OSM   H15F13110   0.790   5.302   8.234  0.2421  0.3502 -0.2068
  123OSM   H15G13111   0.811   5.336   8.401 -0.9161 -0.0060  0.3158
  123OSM   C16F13112   1.002   5.289   8.307 -0.1873  0.1253  0.3824
  123OSM   H16F13113   1.059   5.335   8.391  2.7439 -0.0290 -1.3536
  123OSM   H16G13114   1.057   5.314   8.213 -1.3437  2.4124  0.2528
  123OSM   C17F13115   1.008   5.144   8.347  0.7462 -0.0332 -0.2840
  123OSM   H17F13116   0.947   5.128   8.438  1.5820  0.6781  0.4037
  123OSM   H17G13117   1.115   5.117   8.361  1.6189  2.1966 -1.9257
  123OSM   C18F13118   0.947   5.045   8.238  0.0390 -0.0250 -0.4061
  123OSM   H18F13119   0.948   4.936   8.261 -0.6760  0.2368  0.9228
  123OSM   H18G13120   1.010   5.046   8.146  1.9306  0.2397  0.8351
  123OSM   H18H13121   0.843   5.066   8.204  0.0039 -0.8821 -0.8585
  124OSM      N13122   2.358   2.019   5.950  0.4080  0.2559 -0.6830
  124OSM    C1513123   2.257   2.129   5.970  0.2884  0.3671 -0.6447
  124OSM   H15A13124   2.159   2.092   5.997  0.5392 -0.4885 -0.8646
  124OSM   H15B13125   2.237   2.177   5.876 -0.0393  0.8650 -0.3288
  124OSM   H15C13126   2.296   2.197   6.044 -0.7914  0.3538 -0.0408
  124OSM    C1413127   2.292   1.902   5.882  1.0898 -0.5282 -0.8490
  124OSM   H14A13128   2.216   1.927   5.810 -1.5280 -2.0486  1.2114
  124OSM   H14B13129   2.239   1.850   5.961  0.5634 -0.7122 -1.3254
  124OSM   H14C13130   2.366   1.838   5.837  0.9126 -1.4549  0.1248
  124OSM    C1313131   2.473   2.064   5.869  0.1826  0.1443  0.2444
  124OSM   H13A13132   2.547   1.986   5.880  0.7481  0.2080 -2.5499
  124OSM   H13B13133   2.524   2.148   5.914  2.7617 -2.5630  2.8521
  124OSM   H13C13134   2.436   2.094   5.772 -2.7843 -2.6037  0.3819
  124OSM    C1213135   2.409   1.974   6.093  0.1324  0.2311  0.5380
  124OSM   H12A13136   2.323   1.961   6.157 -2.6363 -0.6525 -3.0438
  124OSM   H12B13137   2.471   2.058   6.119  0.1806  0.1612  0.6469
  124OSM    C1113138   2.488   1.841   6.097  0.5891  0.7715  0.7531
  124OSM   H11A13139   2.434   1.761   6.043 -0.0458  0.5711  1.6721
  124OSM   H11B13140   2.507   1.798   6.197  0.9830 -0.6037  0.1070
  124OSM      P13141   2.758   1.869   6.102  0.3220 -0.0420 -0.0406
  124OSM    O1313142   2.807   1.737   6.156 -0.3693 -0.6056  1.2580
  124OSM    O1413143   2.856   1.936   6.006  0.1573 -0.0030 -0.0378
  124OSM    O1113144   2.738   1.975   6.219 -0.4366 -0.8710  0.0034
  124OSM    O1213145   2.618   1.862   6.031  0.4509 -0.0781 -0.6928
  124OSM    C1S13146   2.802   1.953   6.344 -0.4701  0.6080  0.9357
  124OSM    H1S13147   2.912   1.944   6.325 -0.7790 -1.0482 -0.4229
  124OSM    H1T13148   2.773   1.856   6.390  0.0399  0.3233  0.6746
  124OSM     NF13149   2.868   2.028   6.569 -0.8292  0.0346 -0.3333
  124OSM    HNF13150   2.819   1.986   6.644  0.8692  2.0627  2.0906
  124OSM    C2S13151   2.785   2.064   6.454 -0.3810  0.2616 -0.1331
  124OSM    H2S13152   2.828   2.159   6.416 -0.5794  0.0666 -0.8640
  124OSM    C3S13153   2.647   2.085   6.491  0.6522 -0.2802 -0.0550
  124OSM    H3S13154   2.596   1.989   6.516  0.3309  0.5752  2.9945
  124OSM     O313155   2.576   2.156   6.390  0.9621  0.2398 -0.7854
  124OSM    HO313156   2.633   2.122   6.320  1.8737 -0.1900  0.1408
  124OSM    C4S13157   2.631   2.172   6.617  0.2714 -0.6320  0.1492
  124OSM    H4S13158   2.643   2.280   6.594  1.0385 -0.9716 -1.1978
  124OSM    C5S13159   2.601   2.129   6.740  0.1902  0.1572  0.4061
  124OSM    H5S13160   2.554   2.032   6.760 -1.0277  1.1034  2.4777
  124OSM    C6S13161   2.586   2.223   6.857 -0.6223  0.1924  0.1513
  124OSM    H6S13162   2.483   2.221   6.900 -0.7726 -1.8088 -0.1993
  124OSM    H6T13163   2.611   2.328   6.832  0.1170  0.2543  1.0926
  124OSM    C7S13164   2.673   2.179   6.963 -0.0479  0.1450  0.3218
  124OSM    H7S13165   2.663   2.261   7.038  0.6170  0.3924  0.1501
  124OSM    H7T13166   2.776   2.165   6.925 -0.5716 -1.1056 -0.6991
  124OSM    C8S13167   2.626   2.049   7.038 -1.1734 -0.1130  0.1227
  124OSM    H8S13168   2.612   1.960   6.974 -0.5923  0.0609 -0.2468
  124OSM    H8T13169   2.526   2.066   7.083 -0.9574 -1.5116  1.2003
  124OSM    C9S13170   2.726   2.014   7.158  0.6177 -0.5408  0.5658
  124OSM    H9S13171   2.830   2.035   7.126 -0.1026  3.8407  0.5554
  124OSM    H9T13172   2.715   1.906   7.182 -3.1756 -0.2298  0.8533
  124OSM   C10S13173   2.713   2.113   7.279 -0.1452 -0.5292  0.4431
  124OSM   H10S13174   2.605   2.111   7.301 -0.1455 -0.9720  0.4249
  124OSM   H10T13175   2.723   2.210   7.226 -1.8323 -1.4548 -1.7328
  124OSM   C11S13176   2.799   2.095   7.404 -0.3991  0.3015 -0.4757
  124OSM   H11S13177   2.855   2.190   7.417 -0.9873  0.6590 -0.5172
  124OSM   H11T13178   2.877   2.016   7.407  0.9740  1.6023 -0.5609
  124OSM   C12S13179   2.719   2.068   7.534  0.0745 -0.3303 -0.3553
  124OSM   H12S13180   2.676   1.966   7.530  1.4626 -0.9045 -2.3576
  124OSM   H12T13181   2.637   2.140   7.552 -0.8989 -1.4343 -0.2773
  124OSM   C13S13182   2.811   2.093   7.659 -0.5941 -0.5306 -0.4552
  124OSM   H13S13183   2.864   2.190   7.667  0.4549 -1.2563  2.7360
  124OSM   H13T13184   2.892   2.017   7.667  0.5796  0.8264  1.6212
  124OSM   C14S13185   2.719   2.070   7.786 -0.1617 -0.6495 -0.0484
  124OSM   H14S13186   2.650   1.986   7.761  0.0049 -0.6450 -0.5300
  124OSM   H14T13187   2.666   2.164   7.813  0.3855 -0.2471 -0.3452
  124OSM   C15S13188   2.797   2.043   7.913 -0.3113 -0.0848 -0.2984
  124OSM   H15S13189   2.857   1.951   7.902  0.6638  0.2443  1.7114
  124OSM   H15T13190   2.719   2.015   7.988  0.2187 -1.9397 -0.4007
  124OSM   C16S13191   2.884   2.166   7.949  0.2420  0.4216 -0.6094
  124OSM   H16S13192   2.816   2.249   7.977 -0.8481 -0.5900 -0.1444
  124OSM   H16T13193   2.950   2.192   7.863  0.1787 -1.7454 -1.3684
  124OSM   C17S13194   2.970   2.142   8.073  0.3971  0.8525  0.3794
  124OSM   H17S13195   3.032   2.233   8.088  1.5512 -0.0960  1.5937
  124OSM   H17T13196   3.042   2.058   8.067 -1.6656 -1.5283  4.7027
  124OSM   C18S13197   2.904   2.119   8.205  0.0882 -0.1514  0.5905
  124OSM   H18S13198   2.971   2.100   8.291  1.3541  1.6357  0.0540
  124OSM   H18T13199   2.827   2.042   8.184  1.1582 -0.8262 -1.0886
  124OSM   H18U13200   2.844   2.200   8.252  1.2349  1.2333 -0.2656
  124OSM    C1F13201   2.998   2.011   6.568 -0.1907 -0.1834 -0.0085
  124OSM     OF13202   3.064   2.045   6.470 -0.1749 -0.3533 -0.2927
  124OSM    C2F13203   3.061   1.944   6.693 -0.6735 -0.1796 -0.3990
  124OSM    H2F13204   3.083   1.836   6.684 -0.5004 -0.3066  1.2232
  124OSM    H2G13205   2.986   1.932   6.774 -1.1232 -0.4777 -0.8496
  124OSM    C3F13206   3.198   2.009   6.719  0.1289  0.1624 -0.3418
  124OSM    H3F13207   3.188   2.118   6.701 -1.7888  0.0181 -0.3483
  124OSM    H3G13208   3.266   1.981   6.636 -1.3011 -2.3831 -0.7532
  124OSM    C4F13209   3.265   1.983   6.854  0.4313 -0.3431  0.5678
  124OSM    H4F13210   3.361   2.039   6.861  0.3438 -0.0825 -0.2176
  124OSM    H4G13211   3.281   1.874   6.866  1.2440 -0.5147 -1.6356
  124OSM    C5F13212   3.190   2.036   6.974 -0.2119 -0.0129 -0.4288
  124OSM    H5F13213   3.085   2.001   6.963 -0.0693  0.0621 -2.4115
  124OSM    H5G13214   3.186   2.145   6.993  3.5694 -0.2201  2.9046
  124OSM    C6F13215   3.244   1.987   7.107 -0.4299  0.9294  0.2517
  124OSM    H6F13216   3.333   2.049   7.130  1.1120 -1.8163  2.2883
  124OSM    H6G13217   3.278   1.881   7.112  3.2435  1.8255 -1.6678
  124OSM    C7F13218   3.154   2.009   7.233 -0.2386  0.4433  0.0803
  124OSM    H7F13219   3.052   1.968   7.214  0.2960 -0.5869 -0.6080
  124OSM    H7G13220   3.147   2.118   7.254 -0.8179  0.3810  0.2251
  124OSM    C8F13221   3.210   1.949   7.359  0.2420  0.1865  0.2790
  124OSM    H8F13222   3.233   1.843   7.335  0.1997 -0.0212  1.1030
  124OSM    H8G13223   3.134   1.952   7.440  0.2570 -0.7616  0.3391
  124OSM    C9F13224   3.343   2.007   7.398  0.7535 -0.3247 -0.3621
  124OSM    H9F13225   3.353   2.114   7.375  0.2219  0.2131  1.6497
  124OSM   C10F13226   3.429   1.946   7.484  0.6811  0.1811  0.0664
  124OSM   H10F13227   3.526   1.993   7.504  0.6679  0.5315 -0.6642
  124OSM   C11F13228   3.409   1.801   7.534 -0.3305 -0.7406  0.4634
  124OSM   H11F13229   3.420   1.722   7.456 -1.5105  0.8446 -1.3912
  124OSM   H11G13230   3.305   1.774   7.564 -1.2468 -1.0861 -2.6785
  124OSM   C12F13231   3.478   1.773   7.666 -0.4308 -0.0085 -0.6907
  124OSM   H12F13232   3.442   1.674   7.700  1.7904 -0.0109  2.0729
  124OSM   H12G13233   3.447   1.851   7.739 -2.1015 -0.9069 -0.4015
  124OSM   C13F13234   3.634   1.765   7.659  0.2380 -0.2851 -0.2373
  124OSM   H13F13235   3.675   1.864   7.629  0.9313 -0.1573  1.0258
  124OSM   H13G13236   3.674   1.688   7.590 -2.5063 -0.9449 -1.2186
  124OSM   C14F13237   3.703   1.744   7.797 -0.4100 -0.6121  0.9421
  124OSM   H14F13238   3.653   1.660   7.850 -0.3738 -0.4285  1.2642
  124OSM   H14G13239   3.686   1.836   7.857  2.2412  0.2823  0.4726
  124OSM   C15F13240   3.864   1.744   7.800 -0.5387 -0.1682 -0.7252
  124OSM   H15F13241   3.887   1.846   7.839  1.6852 -0.9171  0.0339
  124OSM   H15G13242   3.909   1.731   7.700 -2.1469  0.6458 -1.6039
  124OSM   C16F13243   3.918   1.631   7.884 -0.6283 -0.1441  0.0900
  124OSM   H16F13244   4.027   1.621   7.866 -0.7559  0.5104 -1.1678
  124OSM   H16G13245   3.869   1.533   7.867  0.0637 -0.5557  0.4207
  124OSM   C17F13246   3.895   1.650   8.027 -0.1689 -0.1896  0.3077
  124OSM   H17F13247   3.789   1.646   8.062  0.0134 -0.6273  0.8175
  124OSM   H17G13248   3.924   1.754   8.053  0.2294 -0.6342  1.7317
  124OSM   C18F13249   3.968   1.537   8.098  0.1950  0.7303  0.3574
  124OSM   H18F13250   3.952   1.542   8.208 -0.1216  2.4938  0.2563
  124OSM   H18G13251   4.075   1.548   8.072 -0.0074 -1.4607 -1.6972
  124OSM   H18H13252   3.928   1.446   8.049  0.3729  0.3109  0.9782
  125OSM      N13253   5.022   2.486   6.059  0.3141 -0.2047  0.3395
  125OSM    C1513254   4.876   2.510   6.085 -0.0856 -0.5443  0.0873
  125OSM   H15A13255   4.834   2.471   6.177  2.9834  0.2301  1.9301
  125OSM   H15B13256   4.828   2.468   5.998 -0.5979 -0.4379  0.3139
  125OSM   H15C13257   4.850   2.615   6.085  0.1593 -0.4065  2.7226
  125OSM    C1413258   5.034   2.339   6.048 -0.6946  0.0805 -0.3743
  125OSM   H14A13259   4.982   2.292   5.966 -1.4401 -0.4071  0.3536
  125OSM   H14B13260   4.991   2.287   6.133 -1.9514 -1.9464 -2.1362
  125OSM   H14C13261   5.140   2.320   6.047 -1.0558 -2.1654 -0.5454
  125OSM    C1313262   5.044   2.545   5.919  0.6373 -0.3333 -0.3223
  125OSM   H13A13263   5.148   2.573   5.909  0.1207  1.3501 -1.5390
  125OSM   H13B13264   4.998   2.643   5.923  1.0949 -0.1384  2.0207
  125OSM   H13C13265   5.011   2.480   5.840 -1.1968  2.5639 -2.1075
  125OSM    C1213266   5.122   2.540   6.165  0.2533 -0.6055  0.4361
  125OSM   H12A13267   5.075   2.635   6.188 -0.8435 -1.4460  1.8551
  125OSM   H12B13268   5.219   2.558   6.121  1.9809 -1.3545  3.5482
  125OSM    C1113269   5.155   2.466   6.301  0.1695  0.7816 -0.6388
  125OSM   H11A13270   5.058   2.434   6.346  0.7930 -0.5370 -0.1668
  125OSM   H11B13271   5.197   2.534   6.377  0.1789 -0.2067  0.2694
  125OSM      P13272   5.375   2.354   6.208 -0.0945  0.1486 -0.0633
  125OSM    O1313273   5.402   2.219   6.154 -0.1764  0.6378  0.2757
  125OSM    O1413274   5.391   2.461   6.103  0.2251 -0.3253 -0.2694
  125OSM    O1113275   5.476   2.373   6.332  0.0640  0.1232  0.1287
  125OSM    O1213276   5.231   2.348   6.280 -0.4623 -0.4246  0.8038
  125OSM    C1S13277   5.450   2.312   6.461  0.1424  0.1698 -0.2845
  125OSM    H1S13278   5.480   2.205   6.458  2.6363  0.8386 -2.0488
  125OSM    H1T13279   5.344   2.325   6.492 -0.1839  0.0172 -1.2888
  125OSM     NF13280   5.521   2.291   6.692  0.1183 -0.3870 -0.1208
  125OSM    HNF13281   5.439   2.291   6.749 -0.9023  0.3323 -1.5057
  125OSM    C2S13282   5.532   2.383   6.574  0.4219 -0.2633 -0.1228
  125OSM    H2S13283   5.638   2.405   6.548  0.5087 -1.5848 -1.0005
  125OSM    C3S13284   5.458   2.513   6.598  0.4174 -0.7886  0.6025
  125OSM    H3S13285   5.355   2.503   6.637  0.1957 -0.6720  0.0540
  125OSM     O313286   5.446   2.595   6.487  1.0002  0.4507  0.1434
  125OSM    HO313287   5.463   2.536   6.414 -0.1754 -0.4734  0.5919
  125OSM    C4S13288   5.532   2.592   6.703  0.3136 -0.3291 -0.1721
  125OSM    H4S13289   5.622   2.638   6.660 -0.2938 -0.5687 -1.7929
  125OSM    C5S13290   5.506   2.605   6.834 -0.3515  0.1214  0.6021
  125OSM    H5S13291   5.430   2.540   6.880 -0.2956 -1.0036 -0.8035
  125OSM    C6S13292   5.590   2.697   6.921 -0.0100 -0.1909 -0.2383
  125OSM    H6S13293   5.648   2.763   6.853 -0.4369 -1.2224 -1.6489
  125OSM    H6T13294   5.672   2.641   6.971 -0.3951 -0.6253 -0.0748
  125OSM    C7S13295   5.490   2.772   7.010  0.0938 -0.1387 -0.2157
  125OSM    H7S13296   5.447   2.703   7.086 -0.6763  2.4598  1.8440
  125OSM    H7T13297   5.401   2.810   6.955 -0.1522  0.9450  0.8890
  125OSM    C8S13298   5.556   2.876   7.088  0.0091 -0.7932 -0.0790
  125OSM    H8S13299   5.489   2.960   7.118 -0.4306 -1.2641  0.2682
  125OSM    H8T13300   5.622   2.936   7.021  2.1954 -2.5032  0.4025
  125OSM    C9S13301   5.639   2.822   7.207  0.1886  0.1820  0.5205
  125OSM    H9S13302   5.714   2.746   7.175 -1.4786 -1.2811 -0.0910
  125OSM    H9T13303   5.555   2.766   7.252 -0.2324  0.0066 -0.4453
  125OSM   C10S13304   5.681   2.932   7.309 -0.1253 -0.3847 -0.0908
  125OSM   H10S13305   5.585   2.973   7.349 -1.4507 -2.6791 -0.7632
  125OSM   H10T13306   5.730   3.019   7.260 -2.5094  1.2941  0.2980
  125OSM   C11S13307   5.759   2.889   7.437  0.1133  0.6264  0.1529
  125OSM   H11S13308   5.777   2.978   7.501 -1.3706  1.2454 -0.2381
  125OSM   H11T13309   5.856   2.841   7.410 -1.0932 -1.3390 -0.9004
  125OSM   C12S13310   5.678   2.790   7.526 -0.4504  0.0590 -0.6288
  125OSM   H12S13311   5.671   2.694   7.470 -2.6008  0.8453 -1.8014
  125OSM   H12T13312   5.574   2.828   7.533 -1.3085 -2.1776 -0.1656
  125OSM   C13S13313   5.745   2.774   7.665  0.3565  0.1316  0.4683
  125OSM   H13S13314   5.677   2.700   7.713 -0.2279  0.1477 -0.3104
  125OSM   H13T13315   5.745   2.861   7.734  0.1333 -0.6413  1.4604
  125OSM   C14S13316   5.876   2.691   7.670  0.4068  0.2392  0.4194
  125OSM   H14S13317   5.960   2.758   7.644 -0.3720  0.1343 -2.8592
  125OSM   H14T13318   5.873   2.613   7.591  1.6050  1.7261 -1.1598
  125OSM   C15S13319   5.908   2.632   7.805  0.3319  0.7088  0.3097
  125OSM   H15S13320   5.875   2.705   7.882 -1.7584  0.3924 -0.2444
  125OSM   H15T13321   6.018   2.613   7.800 -0.0426 -1.4540 -1.5912
  125OSM   C16S13322   5.845   2.490   7.831 -0.1012  0.2548  0.6169
  125OSM   H16S13323   5.869   2.429   7.741 -0.5759 -1.1278  1.4079
  125OSM   H16T13324   5.738   2.516   7.845  0.3578  2.3878  0.4823
  125OSM   C17S13325   5.911   2.442   7.960  0.1354  0.5591  0.0113
  125OSM   H17S13326   5.879   2.518   8.035 -0.0944  0.5288 -0.0580
  125OSM   H17T13327   6.022   2.450   7.958  0.3601 -0.4155  2.9177
  125OSM   C18S13328   5.867   2.305   8.005 -0.9173 -0.1624  0.3933
  125OSM   H18S13329   5.932   2.275   8.090 -1.7954  0.4575  1.3041
  125OSM   H18T13330   5.862   2.218   7.937 -1.4034  0.4056 -0.3101
  125OSM   H18U13331   5.761   2.313   8.037 -1.3030 -0.8179 -0.6825
  125OSM    C1F13332   5.602   2.180   6.700 -0.6323 -0.0033  0.1985
  125OSM     OF13333   5.685   2.169   6.615 -0.5377 -0.4795  0.1846
  125OSM    C2F13334   5.574   2.075   6.794 -0.5285  0.8021  0.2156
  125OSM    H2F13335   5.585   1.981   6.735 -1.2595  1.0372 -0.3194
  125OSM    H2G13336   5.474   2.084   6.841 -0.9278 -1.8714  0.0774
  125OSM    C3F13337   5.676   2.072   6.918  0.5210 -0.0971  0.7553
  125OSM    H3F13338   5.686   2.175   6.958 -2.2173  0.4407  0.3151
  125OSM    H3G13339   5.780   2.053   6.883  1.5097  2.0924  2.2720
  125OSM    C4F13340   5.642   1.972   7.021  0.5919 -0.2508  0.2560
  125OSM    H4F13341   5.716   1.968   7.104 -0.7357  2.1909  1.6996
  125OSM    H4G13342   5.645   1.871   6.975 -0.5576 -0.0793 -0.2362
  125OSM    C5F13343   5.512   1.991   7.098  0.9451 -0.3297  0.2614
  125OSM    H5F13344   5.415   1.959   7.054 -0.3339  0.3242  2.4480
  125OSM    H5G13345   5.504   2.100   7.115 -0.3336 -0.3078 -0.4253
  125OSM    C6F13346   5.515   1.933   7.241  0.5071  0.2931  0.3611
  125OSM    H6F13347   5.423   1.969   7.291 -1.7995 -0.9274 -2.7332
  125OSM    H6G13348   5.593   1.984   7.301  0.0381  0.7515  0.5893
  125OSM    C7F13349   5.530   1.783   7.249 -0.2151  0.2476 -1.0633
  125OSM    H7F13350   5.618   1.754   7.188  1.4266  0.9368  0.8710
  125OSM    H7G13351   5.432   1.747   7.210  0.5105 -0.6171 -2.1200
  125OSM    C8F13352   5.549   1.729   7.393  0.5565 -0.1031  0.3499
  125OSM    H8F13353   5.455   1.758   7.444  0.0710  0.4964 -0.8520
  125OSM    H8G13354   5.620   1.789   7.453 -0.6277 -0.6450  2.3923
  125OSM    C9F13355   5.571   1.580   7.408 -0.5446 -0.3180 -0.1434
  125OSM    H9F13356   5.623   1.540   7.320 -0.6077  0.4579 -0.5330
  125OSM   C10F13357   5.547   1.510   7.526 -0.3298 -0.2051 -0.4334
  125OSM   H10F13358   5.549   1.400   7.534 -1.4718 -0.3569 -1.7626
  125OSM   C11F13359   5.498   1.576   7.656 -0.5369  0.5173 -0.9446
  125OSM   H11F13360   5.390   1.557   7.669 -0.0911 -0.5555  2.1894
  125OSM   H11G13361   5.515   1.686   7.643 -0.7561  1.0772  2.5142
  125OSM   C12F13362   5.557   1.533   7.797  0.9237 -0.4789 -0.0494
  125OSM   H12F13363   5.664   1.563   7.805  0.2356  2.0066  0.8465
  125OSM   H12G13364   5.548   1.425   7.820  0.7359 -0.3384  0.5591
  125OSM   C13F13365   5.492   1.605   7.912  0.0806  0.0732 -0.4339
  125OSM   H13F13366   5.383   1.600   7.892  0.2091 -0.7276 -1.0385
  125OSM   H13G13367   5.522   1.711   7.924  0.4469 -0.0907  0.1305
  125OSM   C14F13368   5.497   1.538   8.055  0.2490 -0.7826 -0.1418
  125OSM   H14F13369   5.461   1.433   8.056 -0.6369 -0.4853  0.3764
  125OSM   H14G13370   5.417   1.589   8.113  0.9112 -0.7850  0.7916
  125OSM   C15F13371   5.624   1.552   8.132 -0.7037 -0.3316 -0.6351
  125OSM   H15F13372   5.674   1.645   8.097 -2.3572  0.5252 -0.8094
  125OSM   H15G13373   5.690   1.468   8.101  1.1000  0.9377 -0.3800
  125OSM   C16F13374   5.616   1.540   8.285  0.1609 -0.1109 -0.2128
  125OSM   H16F13375   5.531   1.471   8.305 -0.9273 -0.0301 -3.9651
  125OSM   H16G13376   5.581   1.640   8.318 -1.1740 -0.1188 -1.5130
  125OSM   C17F13377   5.743   1.499   8.357  0.3705 -0.9627  0.4304
  125OSM   H17F13378   5.770   1.395   8.326 -0.2075 -0.5994 -1.4438
  125OSM   H17G13379   5.716   1.499   8.464  2.1176  0.3772  0.9204
  125OSM   C18F13380   5.851   1.612   8.339 -0.0513 -0.1329  0.2394
  125OSM   H18F13381   5.820   1.713   8.372  2.8442  0.4928  1.3919
  125OSM   H18G13382   5.880   1.620   8.232 -0.1776  2.3449  0.3242
  125OSM   H18H13383   5.944   1.584   8.394 -0.3815 -3.1452 -0.5700
  126OSM      N13384   3.923   5.421   6.329 -0.4125 -0.1208 -0.2017
  126OSM    C1513385   3.945   5.275   6.315 -0.6242  0.1624 -0.0163
  126OSM   H15A13386   3.996   5.244   6.405 -3.7047 -1.1519  1.4022
  126OSM   H15B13387   4.008   5.251   6.230  0.3571 -0.8127  0.9458
  126OSM   H15C13388   3.854   5.219   6.306 -0.8676  0.8285 -2.3991
  126OSM    C1413389   3.870   5.483   6.206 -0.2982  0.7843  1.1218
  126OSM   H14A13390   3.781   5.434   6.168 -0.6307  2.4262 -0.3138
  126OSM   H14B13391   3.928   5.465   6.116 -3.4366  0.3430 -0.9747
  126OSM   H14C13392   3.854   5.589   6.219  2.8215  1.4049  0.7843
  126OSM    C1313393   3.813   5.434   6.421  0.2947  0.1727  0.1913
  126OSM   H13A13394   3.825   5.357   6.495  1.0977 -0.5585 -0.6708
  126OSM   H13B13395   3.724   5.411   6.365  0.8000 -1.0027 -0.1596
  126OSM   H13C13396   3.803   5.529   6.472 -0.0343  0.9420 -1.2344
  126OSM    C1213397   4.052   5.496   6.368 -0.0282 -0.7671  0.5505
  126OSM   H12A13398   4.100   5.449   6.453  0.1279  1.0427  1.5017
  126OSM   H12B13399   4.026   5.595   6.404  0.4341 -1.2689  2.3808
  126OSM    C1113400   4.167   5.500   6.264 -0.4584  0.0115  0.9501
  126OSM   H11A13401   4.253   5.565   6.289  1.5240 -1.3274 -1.9063
  126OSM   H11B13402   4.128   5.522   6.163  0.0238 -1.9894  0.2861
  126OSM      P13403   4.332   5.311   6.354  0.2692 -0.3695 -0.1179
  126OSM    O1313404   4.335   5.161   6.342 -0.8187 -0.1444 -0.0278
  126OSM    O1413405   4.455   5.386   6.320 -0.0078 -0.3456  0.0006
  126OSM    O1113406   4.278   5.347   6.498 -0.2046  0.0423  0.4349
  126OSM    O1213407   4.219   5.367   6.256 -0.8452 -0.6531  0.3254
  126OSM    C1S13408   4.352   5.317   6.615  0.2089  0.5737  0.5425
  126OSM    H1S13409   4.460   5.342   6.602  0.8296 -1.1936  1.8338
  126OSM    H1T13410   4.353   5.206   6.625 -2.1908  0.4114 -0.4592
  126OSM     NF13411   4.388   5.365   6.858  0.6570 -0.3980 -0.6827
  126OSM    HNF13412   4.375   5.298   6.930 -3.4270  2.7114  1.9359
  126OSM    C2S13413   4.289   5.373   6.747 -0.3653 -0.1394 -0.6362
  126OSM    H2S13414   4.272   5.480   6.724  0.7090 -0.0364 -1.0152
  126OSM    C3S13415   4.153   5.297   6.775 -0.7418 -0.5013 -0.1993
  126OSM    H3S13416   4.173   5.189   6.784 -1.9563 -0.8011 -0.7679
  126OSM     O313417   4.056   5.314   6.672  0.2666  0.0303  0.5618
  126OSM    HO313418   4.113   5.360   6.610  1.5440 -0.7846  1.1086
  126OSM    C4S13419   4.086   5.343   6.900  0.1690  0.0181  0.0635
  126OSM    H4S13420   4.046   5.445   6.900  0.4311  0.1262 -0.4793
  126OSM    C5S13421   4.064   5.272   7.010  0.3662  0.3237 -0.3857
  126OSM    H5S13422   4.073   5.163   7.005  1.1053  0.4264 -1.8318
  126OSM    C6S13423   3.991   5.343   7.122 -0.7654 -0.4569  0.5448
  126OSM    H6S13424   3.896   5.289   7.138 -0.9580  0.1003  1.2914
  126OSM    H6T13425   3.966   5.447   7.092  1.7084 -0.2047 -1.0262
  126OSM    C7S13426   4.060   5.354   7.263  0.6660 -0.0309 -0.1761
  126OSM    H7S13427   4.000   5.417   7.332  1.1194 -0.9894  1.1386
  126OSM    H7T13428   4.152   5.412   7.241 -0.1736  0.6627 -1.9685
  126OSM    C8S13429   4.083   5.226   7.341 -0.4100  0.6899 -0.2056
  126OSM    H8S13430   4.159   5.162   7.291  2.3441  1.5445  2.5836
  126OSM    H8T13431   3.988   5.169   7.342  1.4110 -2.6057 -0.1739
  126OSM    C9S13432   4.137   5.248   7.479 -0.0491 -0.1828  0.6544
  126OSM    H9S13433   4.087   5.339   7.520 -0.7919  1.2182 -2.9298
  126OSM    H9T13434   4.246   5.265   7.493 -0.5021  2.0384  2.0183
  126OSM   C10S13435   4.096   5.129   7.561  0.5374  0.1445  0.0804
  126OSM   H10S13436   4.139   5.039   7.513 -3.2704 -0.9562 -1.6067
  126OSM   H10T13437   3.986   5.121   7.549  0.3265  1.9952  0.4364
  126OSM   C11S13438   4.128   5.146   7.708 -0.1623  0.8381 -0.2763
  126OSM   H11S13439   4.103   5.247   7.747 -0.8254  0.3731  0.5527
  126OSM   H11T13440   4.238   5.130   7.713 -0.2698 -0.6079 -1.7642
  126OSM   C12S13441   4.064   5.040   7.804 -0.4843 -0.9493  0.4711
  126OSM   H12S13442   4.109   4.950   7.758  0.5841 -0.7245  1.0305
  126OSM   H12T13443   3.953   5.042   7.804 -0.5042 -1.3175 -0.7962
  126OSM   C13S13444   4.111   5.064   7.952 -0.0492 -0.4743 -0.0608
  126OSM   H13S13445   4.057   5.145   8.005  0.6178 -0.4670  0.6328
  126OSM   H13T13446   4.220   5.085   7.956 -0.6679  3.3280  0.1766
  126OSM   C14S13447   4.065   4.941   8.043 -0.0559 -0.2987 -0.2271
  126OSM   H14S13448   4.114   4.845   8.014 -0.1716  0.6089 -3.8982
  126OSM   H14T13449   3.956   4.927   8.028  0.2375 -0.4162 -2.8843
  126OSM   C15S13450   4.093   4.947   8.193  0.2784  0.0568  0.2247
  126OSM   H15S13451   4.031   5.030   8.234 -0.2623 -0.8149  1.2450
  126OSM   H15T13452   4.199   4.966   8.218  0.2396  2.1008 -0.9622
  126OSM   C16S13453   4.058   4.829   8.279  0.2699  0.3300 -0.6023
  126OSM   H16S13454   4.115   4.739   8.248  0.9742  0.5804 -0.0564
  126OSM   H16T13455   3.952   4.806   8.256 -0.0488  2.2227 -1.2104
  126OSM   C17S13456   4.069   4.853   8.433 -0.0821 -0.7753  0.3215
  126OSM   H17S13457   4.049   4.962   8.446 -2.0284 -1.2245  1.4475
  126OSM   H17T13458   4.177   4.837   8.456 -0.0193 -2.7048 -1.1223
  126OSM   C18S13459   3.959   4.785   8.516 -0.1628 -0.3177 -0.2374
  126OSM   H18S13460   3.971   4.817   8.622 -0.6471  0.0889 -0.3001
  126OSM   H18T13461   3.964   4.674   8.520 -3.2378 -0.5003  0.7221
  126OSM   H18U13462   3.856   4.809   8.482  0.1268  0.4783 -0.5808
  126OSM    C1F13463   4.494   5.445   6.857 -0.4229  0.5398 -0.6553
  126OSM     OF13464   4.501   5.528   6.768  0.3661 -0.0902  0.4628
  126OSM    C2F13465   4.595   5.421   6.968 -0.1816 -0.0638  0.0060
  126OSM    H2F13466   4.664   5.508   6.970  0.9617 -0.8783 -1.6165
  126OSM    H2G13467   4.655   5.334   6.932 -1.9378 -0.8378 -1.1953
  126OSM    C3F13468   4.522   5.392   7.097  0.1159  0.0502  0.2255
  126OSM    H3F13469   4.466   5.296   7.103 -0.2951  0.3492  1.3805
  126OSM    H3G13470   4.453   5.477   7.114 -0.0243  0.2750 -1.3766
  126OSM    C4F13471   4.622   5.387   7.219 -0.7354  0.4275  0.4005
  126OSM    H4F13472   4.695   5.471   7.216  0.6933 -0.7872 -0.4305
  126OSM    H4G13473   4.696   5.305   7.211  0.0922  1.2209 -0.2221
  126OSM    C5F13474   4.556   5.363   7.352  0.1852  0.3542 -0.1884
  126OSM    H5F13475   4.511   5.262   7.359  0.0261  0.4139 -0.3279
  126OSM    H5G13476   4.476   5.440   7.356 -0.2515  0.0362 -1.7637
  126OSM    C6F13477   4.646   5.385   7.479 -0.5859 -0.5485  0.1167
  126OSM    H6F13478   4.704   5.478   7.459 -1.4938 -0.2469 -1.3619
  126OSM    H6G13479   4.723   5.305   7.482  0.3973  0.3744  3.7170
  126OSM    C7F13480   4.573   5.385   7.612  0.4044 -0.4539  0.2695
  126OSM    H7F13481   4.515   5.291   7.619 -1.1729  0.5018  0.6392
  126OSM    H7G13482   4.510   5.477   7.610 -0.3364 -0.9594 -0.0380
  126OSM    C8F13483   4.665   5.411   7.733 -0.4215 -0.2558  0.1868
  126OSM    H8F13484   4.598   5.448   7.814 -0.1911  0.2361  0.1557
  126OSM    H8G13485   4.730   5.499   7.713  0.7973 -1.8782 -3.7703
  126OSM    C9F13486   4.751   5.301   7.787 -0.6437  0.4369  0.1905
  126OSM    H9F13487   4.860   5.304   7.771 -0.4645 -4.5087 -1.1985
  126OSM   C10F13488   4.716   5.194   7.862  0.1581 -0.1773  0.4360
  126OSM   H10F13489   4.798   5.127   7.893  1.0492  0.3906 -0.6021
  126OSM   C11F13490   4.574   5.164   7.899  0.7087 -0.1622  0.3167
  126OSM   H11F13491   4.498   5.239   7.867 -1.5827 -3.1281 -1.7521
  126OSM   H11G13492   4.556   5.170   8.009 -2.8946 -2.5661  0.0544
  126OSM   C12F13493   4.514   5.030   7.837  0.4512 -0.5940  0.2224
  126OSM   H12F13494   4.524   5.028   7.726  0.8045 -0.7955  0.2560
  126OSM   H12G13495   4.407   5.037   7.864 -0.0715  0.2475 -1.8450
  126OSM   C13F13496   4.574   4.894   7.879  0.2112 -0.1147  0.3740
  126OSM   H13F13497   4.682   4.896   7.854 -0.1077  0.1989 -1.0849
  126OSM   H13G13498   4.521   4.810   7.829 -1.7519  0.5392  1.2644
  126OSM   C14F13499   4.577   4.874   8.036  0.1736 -0.2828  0.1054
  126OSM   H14F13500   4.472   4.889   8.067 -0.2654 -0.7350 -1.0970
  126OSM   H14G13501   4.639   4.950   8.089 -0.8844 -0.1565  1.2186
  126OSM   C15F13502   4.636   4.746   8.083  0.3696  0.6690 -0.6988
  126OSM   H15F13503   4.733   4.719   8.035 -0.0113  0.3572 -1.3068
  126OSM   H15G13504   4.567   4.661   8.064 -0.6588  1.6103 -1.2711
  126OSM   C16F13505   4.665   4.743   8.237 -0.0487 -0.1277  0.0581
  126OSM   H16F13506   4.590   4.813   8.278 -0.5528  0.3476 -1.6384
  126OSM   H16G13507   4.766   4.787   8.256 -0.3919  1.1687 -0.9547
  126OSM   C17F13508   4.655   4.602   8.309  0.0662  0.2735 -0.0674
  126OSM   H17F13509   4.552   4.566   8.286  0.0543 -0.0069  0.4163
  126OSM   H17G13510   4.659   4.618   8.419 -0.9076 -1.2923  0.2330
  126OSM   C18F13511   4.759   4.492   8.271 -0.0014 -0.2556 -0.0551
  126OSM   H18F13512   4.865   4.514   8.293 -0.1087 -0.9305  1.2411
  126OSM   H18G13513   4.737   4.461   8.167  2.3472 -1.8127 -0.1514
  126OSM   H18H13514   4.732   4.404   8.333  0.7250 -0.9261 -0.6805
  127OSM      N13515   2.182   5.675   5.833  0.2123 -0.1970  0.1479
  127OSM    C1513516   2.176   5.813   5.886 -0.2115 -0.4712 -0.0716
  127OSM   H15A13517   2.092   5.877   5.861 -0.2788 -0.3997  0.3263
  127OSM   H15B13518   2.259   5.865   5.840  4.1697 -2.6896  4.4185
  127OSM   H15C13519   2.194   5.821   5.992 -3.0760 -0.8751  0.5190
  127OSM    C1413520   2.193   5.686   5.681  0.0850 -0.6788 -0.2256
  127OSM   H14A13521   2.186   5.595   5.623 -1.0867 -0.5227 -0.3470
  127OSM   H14B13522   2.281   5.738   5.645 -0.0006 -1.0969 -1.0617
  127OSM   H14C13523   2.117   5.749   5.639  0.5456 -1.4313 -2.3236
  127OSM    C1313524   2.311   5.608   5.883 -0.4563 -0.8930 -0.2586
  127OSM   H13A13525   2.404   5.653   5.852 -0.9107  0.0180 -0.3432
  127OSM   H13B13526   2.314   5.510   5.838  0.1264 -0.9018 -0.2128
  127OSM   H13C13527   2.309   5.605   5.991  1.3375 -0.1541 -0.1669
  127OSM    C1213528   2.058   5.599   5.871 -0.1255  0.6334  0.3829
  127OSM   H12A13529   2.056   5.506   5.818  3.1077 -0.0253  1.1675
  127OSM   H12B13530   1.970   5.656   5.843 -0.4912 -0.6703 -1.2300
  127OSM    C1113531   2.047   5.555   6.018 -0.3535 -0.0095  0.3839
  127OSM   H11A13532   2.137   5.501   6.054 -0.5465 -0.2359  0.5371
  127OSM   H11B13533   1.978   5.471   6.043 -2.2369  0.9403 -1.3368
  127OSM      P13534   1.890   5.711   6.154  0.0818 -0.4108 -0.0896
  127OSM    O1313535   1.906   5.845   6.216  0.2335  0.5326 -0.0010
  127OSM    O1413536   1.801   5.717   6.032  0.5637 -0.3834 -0.6029
  127OSM    O1113537   1.842   5.614   6.267  0.1643  0.2588  0.0992
  127OSM    O1213538   2.029   5.656   6.116  0.2179 -0.0862  0.2132
  127OSM    C1S13539   1.931   5.559   6.364  0.5800  0.9007  0.4789
  127OSM    H1S13540   2.029   5.611   6.362 -0.3622  2.7441 -1.0715
  127OSM    H1T13541   1.946   5.451   6.345  2.1248  1.3568 -1.2629
  127OSM     NF13542   1.950   5.535   6.599  0.3716 -0.1082 -0.2581
  127OSM    HNF13543   1.955   5.444   6.641  0.8100 -0.3064 -0.7272
  127OSM    C2S13544   1.860   5.559   6.491  0.7483  0.6882 -0.8335
  127OSM    H2S13545   1.819   5.660   6.514  1.5873  0.7682  0.3826
  127OSM    C3S13546   1.737   5.466   6.496 -0.7084 -0.3388  0.2248
  127OSM    H3S13547   1.765   5.360   6.476  0.4850 -0.0182  0.0798
  127OSM     O313548   1.640   5.493   6.401  0.3031 -0.3380 -0.2349
  127OSM    HO313549   1.686   5.550   6.340  0.3091  1.2459  1.1826
  127OSM    C4S13550   1.659   5.471   6.621  0.9645 -0.6991 -0.0554
  127OSM    H4S13551   1.629   5.575   6.641  3.5220  0.4190 -1.5607
  127OSM    C5S13552   1.630   5.381   6.707  0.3899  0.1421 -0.3874
  127OSM    H5S13553   1.666   5.277   6.694  0.0749 -0.1881  1.0952
  127OSM    C6S13554   1.546   5.404   6.832  1.1010 -0.4890  0.1320
  127OSM    H6S13555   1.588   5.337   6.910  0.1790 -1.5468 -0.2447
  127OSM    H6T13556   1.439   5.376   6.818  0.7869  1.2260 -1.4100
  127OSM    C7S13557   1.569   5.535   6.901 -0.0475  0.8320  0.0867
  127OSM    H7S13558   1.540   5.625   6.842 -0.8684  1.9653  2.0815
  127OSM    H7T13559   1.677   5.537   6.929 -0.2108 -0.8441  0.9819
  127OSM    C8S13560   1.484   5.544   7.026 -0.2039  0.0835  0.0018
  127OSM    H8S13561   1.477   5.441   7.067  0.3925  0.6893  1.6890
  127OSM    H8T13562   1.378   5.564   6.997  0.0888 -0.0402 -1.2024
  127OSM    C9S13563   1.546   5.644   7.136 -0.5638 -0.9090  0.3042
  127OSM    H9S13564   1.524   5.749   7.108 -0.9373 -0.2949  2.6277
  127OSM    H9T13565   1.656   5.635   7.124 -0.0795  1.6964  1.9459
  127OSM   C10S13566   1.521   5.621   7.284 -0.0374 -0.1190 -0.3059
  127OSM   H10S13567   1.529   5.514   7.310 -0.1091  0.3027  1.5723
  127OSM   H10T13568   1.420   5.653   7.317 -0.2488  0.8584 -1.7638
  127OSM   C11S13569   1.626   5.692   7.373  0.1999  0.0871 -0.2889
  127OSM   H11S13570   1.611   5.802   7.370  0.3292  0.1005 -0.4994
  127OSM   H11T13571   1.720   5.675   7.316  0.2743 -2.9890  0.6060
  127OSM   C12S13572   1.635   5.642   7.518 -0.3421  0.4452 -0.2228
  127OSM   H12S13573   1.729   5.666   7.571 -1.6188 -0.8588  2.8602
  127OSM   H12T13574   1.627   5.532   7.520 -0.6621  0.4630  1.9139
  127OSM   C13S13575   1.513   5.686   7.601  0.0473 -0.0034 -0.3311
  127OSM   H13S13576   1.419   5.654   7.552 -0.4843  1.0230 -0.0092
  127OSM   H13T13577   1.524   5.796   7.591 -0.3204  0.2706  1.8324
  127OSM   C14S13578   1.532   5.644   7.742  0.5479  0.1447 -0.2046
  127OSM   H14S13579   1.603   5.702   7.806  0.0935 -0.0696  0.5128
  127OSM   H14T13580   1.565   5.538   7.734 -3.6089 -1.3430 -0.1968
  127OSM   C15S13581   1.406   5.640   7.822  0.4860  0.3733  0.2226
  127OSM   H15S13582   1.326   5.572   7.784  0.5822  0.4672 -0.1553
  127OSM   H15T13583   1.353   5.737   7.834  1.1298  0.9356 -1.2152
  127OSM   C16S13584   1.428   5.599   7.968 -0.4972 -0.1767 -0.5800
  127OSM   H16S13585   1.504   5.668   8.010  0.4618 -1.5280 -0.0482
  127OSM   H16T13586   1.471   5.497   7.961 -2.2556 -0.8824 -2.2832
  127OSM   C17S13587   1.307   5.587   8.056 -0.1708  0.6076  0.5754
  127OSM   H17S13588   1.262   5.490   8.027  1.8415 -0.2021 -0.0036
  127OSM   H17T13589   1.237   5.672   8.038 -1.4043 -0.3970  0.5111
  127OSM   C18S13590   1.346   5.580   8.203 -0.8906 -0.0142  0.2910
  127OSM   H18S13591   1.393   5.485   8.237 -0.9905  0.6052  2.3192
  127OSM   H18T13592   1.258   5.576   8.270 -1.0793 -0.2506  0.0317
  127OSM   H18U13593   1.410   5.668   8.227  0.0888 -0.8967  1.0007
  127OSM    C1F13594   2.049   5.608   6.640  0.9314 -0.4503 -0.4630
  127OSM     OF13595   2.046   5.731   6.619 -0.7118 -0.1724 -0.7780
  127OSM    C2F13596   2.165   5.540   6.704  0.7690 -0.1944 -0.0988
  127OSM    H2F13597   2.250   5.606   6.676  1.1989 -0.7131 -0.0290
  127OSM    H2G13598   2.178   5.445   6.648 -1.7696  0.5689 -2.1981
  127OSM    C3F13599   2.147   5.523   6.854 -0.4414 -0.4468 -0.3281
  127OSM    H3F13600   2.064   5.449   6.860 -0.9533  0.0106 -1.5410
  127OSM    H3G13601   2.124   5.620   6.903 -3.6856  0.2380 -2.8939
  127OSM    C4F13602   2.264   5.448   6.924  0.2417 -0.0718  0.0772
  127OSM    H4F13603   2.344   5.524   6.934  0.4357 -0.3717  0.8718
  127OSM    H4G13604   2.297   5.364   6.859 -1.3068 -2.0223  1.6813
  127OSM    C5F13605   2.219   5.385   7.060  0.2652 -0.3305 -0.9799
  127OSM    H5F13606   2.154   5.296   7.047  1.8189 -1.3880 -1.7520
  127OSM    H5G13607   2.165   5.464   7.117  0.7986 -1.6503  1.5060
  127OSM    C6F13608   2.337   5.335   7.153 -0.8001 -0.2126 -0.3091
  127OSM    H6F13609   2.405   5.418   7.180 -0.0870 -0.6481 -0.7473
  127OSM    H6G13610   2.387   5.249   7.103 -0.5580 -1.4810  1.9737
  127OSM    C7F13611   2.288   5.282   7.291 -0.2407  0.6662 -0.0232
  127OSM    H7F13612   2.214   5.200   7.274  1.5594 -0.7339 -1.6180
  127OSM    H7G13613   2.229   5.359   7.344 -0.1860 -0.5189  1.8589
  127OSM    C8F13614   2.404   5.230   7.379 -0.2683  0.1857  0.7728
  127OSM    H8F13615   2.475   5.313   7.399 -0.1887  0.1069  0.8216
  127OSM    H8G13616   2.453   5.158   7.310 -0.1836  1.5898 -0.6725
  127OSM    C9F13617   2.352   5.182   7.512 -0.3518  0.2592 -0.4857
  127OSM    H9F13618   2.293   5.090   7.507 -1.4574  0.9551 -0.6989
  127OSM   C10F13619   2.360   5.234   7.636 -0.6803  0.5191  0.3106
  127OSM   H10F13620   2.304   5.187   7.719 -1.8357  1.3184  0.0031
  127OSM   C11F13621   2.436   5.349   7.688 -0.6930 -0.0808 -0.5825
  127OSM   H11F13622   2.356   5.405   7.741 -2.2296 -1.5465 -1.2615
  127OSM   H11G13623   2.467   5.415   7.605 -4.0114  0.0132 -1.8955
  127OSM   C12F13624   2.553   5.326   7.784 -0.0926 -0.3041  0.1697
  127OSM   H12F13625   2.611   5.421   7.782 -2.7499  1.4245 -0.9848
  127OSM   H12G13626   2.616   5.253   7.728 -0.3550  0.0020 -0.5367
  127OSM   C13F13627   2.501   5.290   7.924  0.4979  0.0929 -0.1293
  127OSM   H13F13628   2.414   5.220   7.925  1.0743 -0.6239  0.4328
  127OSM   H13G13629   2.476   5.379   7.986  0.6447  0.1215 -0.1112
  127OSM   C14F13630   2.611   5.220   8.004 -0.0215  0.0490  0.4644
  127OSM   H14F13631   2.693   5.289   8.032  1.6266 -1.8873  0.6194
  127OSM   H14G13632   2.667   5.148   7.941 -1.5513  0.9264 -2.0913
  127OSM   C15F13633   2.560   5.140   8.127 -0.3716  0.0408 -0.0952
  127OSM   H15F13634   2.640   5.071   8.161 -0.3645  0.7366  1.3958
  127OSM   H15G13635   2.470   5.078   8.105 -0.6407  0.4897 -0.2685
  127OSM   C16F13636   2.535   5.237   8.246  0.0571  0.0088  0.1404
  127OSM   H16F13637   2.432   5.278   8.245  0.3490  1.1154  3.1680
  127OSM   H16G13638   2.616   5.312   8.241  1.9294 -1.8079  1.3402
  127OSM   C17F13639   2.542   5.169   8.384  0.6209 -0.4459  0.8868
  127OSM   H17F13640   2.642   5.124   8.398  0.8428 -0.1868  0.1741
  127OSM   H17G13641   2.472   5.089   8.414 -0.8546  0.5842  0.3070
  127OSM   C18F13642   2.542   5.271   8.502 -0.4712  0.0496  0.4651
  127OSM   H18F13643   2.464   5.239   8.573 -0.7898 -2.1100 -0.7507
  127OSM   H18G13644   2.511   5.369   8.460 -0.4069  0.0656  0.4540
  127OSM   H18H13645   2.645   5.284   8.543 -1.1298 -0.8975  2.5076
  128OSM      N13646   1.706   3.455   6.108 -0.0832 -0.1223  0.2050
  128OSM    C1513647   1.852   3.440   6.103 -0.1167 -0.3183 -0.0827
  128OSM   H15A13648   1.894   3.380   6.023  0.4756  0.4272 -0.3426
  128OSM   H15B13649   1.897   3.390   6.187  2.3984  1.7671 -0.0727
  128OSM   H15C13650   1.905   3.534   6.106  0.9954 -0.9501  3.0554
  128OSM    C1413651   1.665   3.540   5.987 -0.6084  0.6983  0.1285
  128OSM   H14A13652   1.697   3.640   6.014 -3.1653  1.4416  0.6754
  128OSM   H14B13653   1.558   3.547   5.977 -0.5249  1.3372 -0.3688
  128OSM   H14C13654   1.698   3.502   5.892 -0.2440 -0.5354  0.7327
  128OSM    C1313655   1.647   3.319   6.091  0.6226 -0.4664  0.5231
  128OSM   H13A13656   1.545   3.336   6.124  1.4025  0.6062  2.5663
  128OSM   H13B13657   1.692   3.244   6.155  2.2611  0.4499  0.4741
  128OSM   H13C13658   1.649   3.293   5.987  2.2817  1.4490  0.0249
  128OSM    C1213659   1.659   3.518   6.237  0.9200 -0.1998 -0.1112
  128OSM   H12A13660   1.714   3.477   6.321 -0.1597 -0.2276  0.6077
  128OSM   H12B13661   1.558   3.495   6.269 -0.0299  1.6135 -1.6496
  128OSM    C1113662   1.684   3.673   6.256 -0.2837  0.1115  0.1157
  128OSM   H11A13663   1.639   3.704   6.354 -1.4881  0.2164 -0.4499
  128OSM   H11B13664   1.624   3.717   6.174 -0.3001 -1.4416 -0.7167
  128OSM      P13665   1.890   3.815   6.143  0.3145  0.2183  0.0528
  128OSM    O1313666   2.027   3.838   6.190 -0.4458 -0.4616 -0.4913
  128OSM    O1413667   1.878   3.761   6.004  0.1185  0.1567  0.4679
  128OSM    O1113668   1.798   3.939   6.167 -0.2304  0.0658  0.4062
  128OSM    O1213669   1.823   3.706   6.246 -0.0872  0.2890  0.0128
  128OSM    C1S13670   1.784   3.980   6.307 -0.2960 -0.6344 -0.0847
  128OSM    H1S13671   1.874   4.005   6.368 -2.4429  0.4016  2.9109
  128OSM    H1T13672   1.746   3.892   6.364  1.8881 -0.9163  1.0843
  128OSM     NF13673   1.664   4.123   6.472  0.3096  0.1712  0.0421
  128OSM    HNF13674   1.605   4.060   6.521  1.2163 -2.6750 -2.2229
  128OSM    C2S13675   1.679   4.097   6.328 -0.3393 -0.3708  0.2965
  128OSM    H2S13676   1.718   4.184   6.270  1.2063 -2.4312 -1.9890
  128OSM    C3S13677   1.544   4.054   6.261  0.3955 -0.5332  0.3637
  128OSM    H3S13678   1.508   3.971   6.326  0.2435 -0.8047 -0.0674
  128OSM     O313679   1.550   3.996   6.132  0.1594 -0.2380 -0.1073
  128OSM    HO313680   1.644   3.988   6.113  0.3606 -1.6472  1.2865
  128OSM    C4S13681   1.447   4.172   6.271  0.3519 -0.6529 -0.4484
  128OSM    H4S13682   1.406   4.183   6.373 -0.6495 -1.2291 -0.7775
  128OSM    C5S13683   1.394   4.248   6.173 -0.3144  0.2277 -0.0196
  128OSM    H5S13684   1.413   4.219   6.068 -1.9861  1.5979 -0.7519
  128OSM    C6S13685   1.297   4.363   6.180 -0.4150 -0.1550  0.0873
  128OSM    H6S13686   1.209   4.352   6.112  0.6092  0.3231 -1.3685
  128OSM    H6T13687   1.358   4.441   6.128 -1.0515  0.3761  0.1254
  128OSM    C7S13688   1.255   4.430   6.312  0.3554 -0.3142  0.2877
  128OSM    H7S13689   1.348   4.473   6.354  1.6333 -0.2059 -2.4619
  128OSM    H7T13690   1.212   4.355   6.382 -0.8506 -0.6591 -0.7739
  128OSM    C8S13691   1.159   4.546   6.289 -0.1473  0.1268 -0.5365
  128OSM    H8S13692   1.153   4.566   6.180 -0.1291 -1.4216 -0.8396
  128OSM    H8T13693   1.211   4.635   6.330 -2.2596  0.7821  0.9125
  128OSM    C9S13694   1.024   4.520   6.348 -0.1093  0.2508 -0.0834
  128OSM    H9S13695   0.983   4.429   6.301  2.6756 -1.0103 -0.2804
  128OSM    H9T13696   0.962   4.610   6.325 -1.5061 -0.9429 -1.1915
  128OSM   C10S13697   1.011   4.501   6.504 -0.4816  0.3129 -0.1242
  128OSM   H10S13698   1.030   4.396   6.534 -1.4704 -0.0891 -0.8588
  128OSM   H10T13699   0.909   4.532   6.536 -0.8604 -1.3967  0.4264
  128OSM   C11S13700   1.113   4.593   6.572 -0.1937 -0.1767 -0.0469
  128OSM   H11S13701   1.110   4.697   6.534  0.7089 -0.3606 -0.6607
  128OSM   H11T13702   1.211   4.541   6.558 -0.2027 -0.0023 -0.7843
  128OSM   C12S13703   1.082   4.604   6.724 -0.1984 -0.2300  0.3523
  128OSM   H12S13704   1.022   4.514   6.751 -1.7102  1.4990  3.2555
  128OSM   H12T13705   1.013   4.687   6.748  1.6164  1.2672  0.6179
  128OSM   C13S13706   1.208   4.610   6.821 -0.0643 -0.3625 -0.3444
  128OSM   H13S13707   1.297   4.634   6.759  0.9275  0.0068  1.1633
  128OSM   H13T13708   1.228   4.508   6.861 -0.6007  0.0227  0.9616
  128OSM   C14S13709   1.212   4.716   6.936  0.2705  0.9732  0.7227
  128OSM   H14S13710   1.234   4.819   6.902 -2.9298  0.9144 -2.1181
  128OSM   H14T13711   1.302   4.683   6.992  1.2403 -2.9125 -2.5565
  128OSM   C15S13712   1.103   4.699   7.035  1.0063 -0.3015  0.1279
  128OSM   H15S13713   1.124   4.600   7.081  1.0428  0.6673  2.2792
  128OSM   H15T13714   1.002   4.696   6.988  1.0821  3.0362 -0.4439
  128OSM   C16S13715   1.119   4.807   7.151  0.0430  0.2851  0.0125
  128OSM   H16S13716   1.112   4.906   7.102  0.1076 -0.2349 -1.0681
  128OSM   H16T13717   1.223   4.820   7.189 -0.1394  2.6150 -0.1113
  128OSM   C17S13718   1.030   4.776   7.269  0.2608 -0.2336  0.6462
  128OSM   H17S13719   1.067   4.829   7.360  0.1218  1.4281 -0.2334
  128OSM   H17T13720   1.051   4.671   7.298 -1.2042 -0.6306  0.2981
  128OSM   C18S13721   0.877   4.794   7.245 -0.4007  0.3976 -0.2727
  128OSM   H18S13722   0.832   4.736   7.162 -1.7685  0.8692  0.1141
  128OSM   H18T13723   0.857   4.901   7.224 -3.1951 -0.1034 -0.6302
  128OSM   H18U13724   0.823   4.768   7.339 -0.0306  0.0605 -0.1519
  128OSM    C1F13725   1.765   4.189   6.525 -0.2083 -0.4414 -0.0278
  128OSM     OF13726   1.850   4.235   6.451  0.4528  0.0231 -0.1090
  128OSM    C2F13727   1.779   4.194   6.675 -0.4163  0.0487  0.6452
  128OSM    H2F13728   1.846   4.282   6.694  0.0364 -0.3985  1.1604
  128OSM    H2G13729   1.827   4.101   6.711 -0.4444  0.7178  2.5555
  128OSM    C3F13730   1.648   4.224   6.754 -0.2010 -0.7487  0.6564
  128OSM    H3F13731   1.563   4.159   6.725 -0.7675  0.0172  0.5556
  128OSM    H3G13732   1.615   4.329   6.738  0.3653 -0.5446  0.7984
  128OSM    C4F13733   1.683   4.216   6.904  0.2820 -0.0171  0.6111
  128OSM    H4F13734   1.597   4.266   6.954 -0.1445  0.8459 -0.9415
  128OSM    H4G13735   1.770   4.280   6.930  1.3072 -0.5527 -1.3352
  128OSM    C5F13736   1.693   4.068   6.962 -0.4762  0.9551 -0.2639
  128OSM    H5F13737   1.775   4.017   6.906  0.3795  1.9671  0.0258
  128OSM    H5G13738   1.602   4.006   6.949  1.0759 -1.7335  0.7731
  128OSM    C6F13739   1.744   4.065   7.102 -0.7570  0.3020  0.3902
  128OSM    H6F13740   1.685   4.132   7.168 -0.9799 -0.8883  1.4271
  128OSM    H6G13741   1.845   4.111   7.105 -1.4880  2.2355 -1.5886
  128OSM    C7F13742   1.735   3.934   7.174  0.3601  0.2560  0.3215
  128OSM    H7F13743   1.806   3.869   7.118 -0.6299 -0.7118  0.1370
  128OSM    H7G13744   1.642   3.875   7.156  0.3185  0.7208 -1.1533
  128OSM    C8F13745   1.767   3.949   7.321  0.2040  0.0246 -0.3115
  128OSM    H8F13746   1.679   3.969   7.386 -0.1800 -0.7644 -0.5797
  128OSM    H8G13747   1.846   4.026   7.335  1.5822 -0.8933 -2.5992
  128OSM    C9F13748   1.837   3.821   7.365 -0.5008  0.0989 -0.5774
  128OSM    H9F13749   1.872   3.759   7.280  1.5111  0.8863 -0.3887
  128OSM   C10F13750   1.867   3.777   7.489  1.0959 -0.2801  0.4174
  128OSM   H10F13751   1.910   3.676   7.497  0.1381 -0.7634 -0.2369
  128OSM   C11F13752   1.832   3.848   7.620 -0.1587 -0.0777 -0.0102
  128OSM   H11F13753   1.765   3.936   7.616 -0.4222 -0.2945 -0.5043
  128OSM   H11G13754   1.926   3.871   7.675 -1.1633 -0.7068  2.0894
  128OSM   C12F13755   1.744   3.744   7.709 -0.1004 -0.4728  0.5216
  128OSM   H12F13756   1.779   3.639   7.721  2.2667  0.2319  0.2911
  128OSM   H12G13757   1.638   3.750   7.676 -0.2371 -0.4547  0.9605
  128OSM   C13F13758   1.740   3.808   7.848  0.0175  0.4669  0.2682
  128OSM   H13F13759   1.642   3.785   7.895  0.0889 -0.9987 -0.2550
  128OSM   H13G13760   1.751   3.919   7.843  1.7550  0.2816 -0.4717
  128OSM   C14F13761   1.846   3.743   7.938  0.5964  0.0507 -0.1273
  128OSM   H14F13762   1.937   3.786   7.891 -0.3223  1.3189 -0.8036
  128OSM   H14G13763   1.846   3.633   7.923 -0.7172  0.3436 -2.9913
  128OSM   C15F13764   1.851   3.789   8.083  0.7761 -0.0406  0.5175
  128OSM   H15F13765   1.868   3.898   8.079 -1.8292  0.4100 -0.6200
  128OSM   H15G13766   1.925   3.748   8.154  1.0959  1.7360  1.2516
  128OSM   C16F13767   1.711   3.772   8.155 -0.2405  0.1255 -0.2309
  128OSM   H16F13768   1.686   3.665   8.170  0.2748 -0.0649 -0.7006
  128OSM   H16G13769   1.621   3.812   8.104 -1.6579  1.0919  2.8144
  128OSM   C17F13770   1.685   3.841   8.288 -0.2548  0.3482 -0.6838
  128OSM   H17F13771   1.665   3.949   8.270  1.8141  1.4930  2.9675
  128OSM   H17G13772   1.773   3.854   8.355 -0.1117  0.0910 -0.8216
  128OSM   C18F13773   1.567   3.778   8.370  0.0080 -0.7456 -0.5305
  128OSM   H18F13774   1.476   3.782   8.306 -1.7813  2.0691  1.9264
  128OSM   H18G13775   1.542   3.843   8.457  0.7530  1.1266 -1.6604
  128OSM   H18H13776   1.600   3.673   8.384  4.4768  0.5492  0.0744
  129OSM      N13777   6.059   3.775   5.954 -0.2767  0.0530  0.7120
  129OSM    C1513778   5.953   3.783   6.062  0.1229  0.5950  0.4035
  129OSM   H15A13779   5.972   3.855   6.141 -0.8606  0.1823  1.0428
  129OSM   H15B13780   5.949   3.687   6.111 -1.2821 -0.6806 -2.0362
  129OSM   H15C13781   5.854   3.809   6.029 -0.4645 -1.2669  0.5839
  129OSM    C1413782   6.184   3.730   6.026 -0.1955  0.2741 -0.3774
  129OSM   H14A13783   6.157   3.634   6.067 -0.5298  0.9570  1.0822
  129OSM   H14B13784   6.219   3.789   6.110 -0.4016 -0.7155  0.4326
  129OSM   H14C13785   6.264   3.721   5.954 -0.4805 -0.3981 -0.6251
  129OSM    C1313786   6.024   3.665   5.855 -0.2265 -0.5462 -1.3050
  129OSM   H13A13787   6.014   3.562   5.888  1.7058 -0.8636 -1.6121
  129OSM   H13B13788   6.104   3.660   5.783  1.6218  2.8346  0.2873
  129OSM   H13C13789   5.933   3.690   5.801  0.1262  3.7912 -0.2386
  129OSM    C1213790   6.082   3.905   5.877  0.3221 -0.0173  0.0329
  129OSM   H12A13791   6.158   3.885   5.802  0.4966  1.0863 -0.1036
  129OSM   H12B13792   6.122   3.981   5.942  2.6896 -0.4822 -0.7677
  129OSM    C1113793   5.966   3.977   5.807  0.7915  0.1567 -0.1189
  129OSM   H11A13794   5.916   3.899   5.746 -0.1844  2.1218 -1.9796
  129OSM   H11B13795   6.017   4.045   5.736  2.0789 -1.3627 -0.7037
  129OSM      P13796   5.918   4.181   5.960 -0.1119 -0.2098  0.4774
  129OSM    O1313797   6.030   4.154   6.051  0.3533  0.5661 -0.0068
  129OSM    O1413798   5.947   4.284   5.855 -0.2503  0.3049  0.1229
  129OSM    O1113799   5.789   4.232   6.036  0.0143 -0.0965  0.0946
  129OSM    O1213800   5.874   4.040   5.899 -0.0160 -0.2299  0.1104
  129OSM    C1S13801   5.728   4.151   6.132 -0.0017 -0.0871 -0.4748
  129OSM    H1S13802   5.736   4.043   6.110 -3.1185 -1.1819  2.8820
  129OSM    H1T13803   5.617   4.163   6.132 -0.0254 -0.2213 -1.1451
  129OSM     NF13804   5.732   4.078   6.373  0.3219  0.2665 -0.1352
  129OSM    HNF13805   5.642   4.094   6.413 -0.0173  0.7357 -1.0446
  129OSM    C2S13806   5.776   4.183   6.277 -0.3355  0.5729 -0.2889
  129OSM    H2S13807   5.886   4.175   6.270 -0.2824  0.0974  0.8188
  129OSM    C3S13808   5.731   4.322   6.328 -0.1699  0.3149  0.8412
  129OSM    H3S13809   5.622   4.340   6.320 -0.2103  0.3381  1.3747
  129OSM     O313810   5.773   4.432   6.246 -0.7383  0.0057  0.0273
  129OSM    HO313811   5.820   4.391   6.174 -1.2069 -0.0488 -0.2503
  129OSM    C4S13812   5.766   4.336   6.472 -0.0306  0.0628  0.0306
  129OSM    H4S13813   5.676   4.314   6.532 -1.3623  0.8437 -1.5791
  129OSM    C5S13814   5.887   4.368   6.527  0.1599  0.5189  0.3705
  129OSM    H5S13815   5.972   4.386   6.460 -1.4188 -1.9916 -2.5612
  129OSM    C6S13816   5.917   4.376   6.674  0.2555 -0.4262  0.2375
  129OSM    H6S13817   5.821   4.410   6.719 -2.2600 -4.1682 -1.8424
  129OSM    H6T13818   5.995   4.447   6.710  0.5190  0.3736 -1.8180
  129OSM    C7S13819   5.952   4.234   6.738 -0.1110 -0.8252  0.7217
  129OSM    H7S13820   6.028   4.186   6.672  0.1641  1.3757 -0.6660
  129OSM    H7T13821   5.860   4.172   6.739  0.6067 -1.9057  0.6288
  129OSM    C8S13822   6.002   4.253   6.885  0.7411 -0.1902  0.5429
  129OSM    H8S13823   5.909   4.288   6.935 -1.0884 -1.1747 -1.9468
  129OSM    H8T13824   6.077   4.335   6.885  1.3665 -0.7340 -0.6089
  129OSM    C9S13825   6.047   4.118   6.937 -0.0505  0.1375 -0.7676
  129OSM    H9S13826   6.135   4.079   6.882  0.4005  0.7876 -0.5233
  129OSM    H9T13827   5.962   4.048   6.923 -1.9928  2.0656  0.7505
  129OSM   C10S13828   6.082   4.120   7.088  0.1033 -0.4007  0.5717
  129OSM   H10S13829   5.985   4.150   7.135 -0.3174 -1.9799  0.7764
  129OSM   H10T13830   6.158   4.200   7.103 -0.1374  0.0744 -0.6133
  129OSM   C11S13831   6.128   3.982   7.141  0.5800 -0.0334  0.0216
  129OSM   H11S13832   6.229   3.962   7.099  0.8710  0.3202  0.5570
  129OSM   H11T13833   6.052   3.904   7.116  1.0283 -0.8136  1.0390
  129OSM   C12S13834   6.144   3.989   7.295  0.1331 -0.3373 -0.2485
  129OSM   H12S13835   6.039   4.015   7.319 -0.2482  1.6120 -3.4096
  129OSM   H12T13836   6.222   4.064   7.322 -0.7435  0.3097  0.5802
  129OSM   C13S13837   6.176   3.848   7.352  0.4390 -0.7856 -0.0541
  129OSM   H13S13838   6.276   3.822   7.310  2.2207  2.7485  1.6055
  129OSM   H13T13839   6.102   3.773   7.316 -0.1540 -0.3011  0.1454
  129OSM   C14S13840   6.176   3.850   7.502 -0.0559  0.6018  0.2285
  129OSM   H14S13841   6.079   3.889   7.537 -1.2005 -1.7184 -0.1435
  129OSM   H14T13842   6.254   3.916   7.545  0.8922 -1.7087  2.3409
  129OSM   C15S13843   6.220   3.710   7.556 -0.8393  0.1024 -0.0587
  129OSM   H15S13844   6.247   3.724   7.662 -0.8302 -2.2258  0.3084
  129OSM   H15T13845   6.311   3.671   7.504 -0.8240  1.7880 -1.4019
  129OSM   C16S13846   6.108   3.602   7.556  0.2780 -0.4041  1.1478
  129OSM   H16S13847   6.092   3.571   7.450  0.3097  0.3274  0.9231
  129OSM   H16T13848   6.013   3.656   7.578 -0.2763 -0.8959  0.0325
  129OSM   C17S13849   6.143   3.483   7.638  0.8235 -0.0592 -0.6504
  129OSM   H17S13850   6.155   3.513   7.744 -0.7849  0.3385 -0.5462
  129OSM   H17T13851   6.236   3.437   7.598 -0.1594 -4.6128  1.6097
  129OSM   C18S13852   6.034   3.376   7.641  0.2658  0.0732  0.6995
  129OSM   H18S13853   6.059   3.306   7.723 -1.0713 -2.2670 -0.7747
  129OSM   H18T13854   6.026   3.329   7.541  0.6579  1.7510 -0.1721
  129OSM   H18U13855   5.937   3.426   7.663  0.1369  1.2845 -2.1800
  129OSM    C1F13856   5.782   3.951   6.375  0.0390  0.6545 -0.5235
  129OSM     OF13857   5.882   3.932   6.314 -0.5531  0.1739  0.3498
  129OSM    C2F13858   5.690   3.855   6.456 -1.0172 -0.0499 -0.0949
  129OSM    H2F13859   5.610   3.808   6.395  1.9144 -1.0896 -3.4457
  129OSM    H2G13860   5.642   3.917   6.536 -0.3855 -1.6889  1.6336
  129OSM    C3F13861   5.780   3.749   6.529  0.2472 -0.4409  0.9374
  129OSM    H3F13862   5.850   3.810   6.590 -0.3611  0.2963  0.9122
  129OSM    H3G13863   5.832   3.693   6.449 -2.1384 -0.7440 -0.4657
  129OSM    C4F13864   5.712   3.656   6.630  0.1520 -0.0526 -0.2551
  129OSM    H4F13865   5.793   3.607   6.690  1.6156 -0.2067 -2.2440
  129OSM    H4G13866   5.668   3.569   6.577 -0.7497  0.0831  0.2684
  129OSM    C5F13867   5.593   3.703   6.717  0.4621 -0.1650  0.7675
  129OSM    H5F13868   5.539   3.615   6.758  2.0299 -0.5738  2.0647
  129OSM    H5G13869   5.518   3.746   6.647 -1.3823 -1.4344  1.8660
  129OSM    C6F13870   5.617   3.821   6.817  0.0720 -0.1414  0.3684
  129OSM    H6F13871   5.519   3.853   6.859 -0.3675  0.4918 -1.0461
  129OSM    H6G13872   5.661   3.907   6.763  2.2031 -0.8644  0.8308
  129OSM    C7F13873   5.722   3.795   6.921  0.0513 -0.4158  0.2549
  129OSM    H7F13874   5.826   3.792   6.882  1.3805  1.5435  3.2233
  129OSM    H7G13875   5.690   3.709   6.983 -1.5147 -0.7184 -0.9071
  129OSM    C8F13876   5.726   3.916   7.021 -0.0976  0.0620  0.1039
  129OSM    H8F13877   5.726   4.012   6.965 -2.3994 -0.4149 -0.8136
  129OSM    H8G13878   5.825   3.913   7.072 -0.0813  0.8854  0.1310
  129OSM    C9F13879   5.607   3.907   7.112  0.3086 -0.3067  0.3116
  129OSM    H9F13880   5.525   3.969   7.073 -0.0076 -2.2846 -2.4754
  129OSM   C10F13881   5.585   3.826   7.216  0.1282 -0.1923  0.3929
  129OSM   H10F13882   5.487   3.838   7.265 -0.7578  0.0013 -1.3698
  129OSM   C11F13883   5.681   3.722   7.272  0.0419 -1.0435  0.2883
  129OSM   H11F13884   5.771   3.722   7.207 -1.4036  0.8739 -1.8706
  129OSM   H11G13885   5.631   3.623   7.266 -1.6253 -0.1517 -1.9093
  129OSM   C12F13886   5.710   3.746   7.417 -0.1099 -0.0009 -0.2110
  129OSM   H12F13887   5.774   3.830   7.451  0.7279 -0.8449  0.3521
  129OSM   H12G13888   5.765   3.654   7.448 -0.6359  0.2101  1.4952
  129OSM   C13F13889   5.583   3.736   7.505  0.0028 -0.5192  0.6731
  129OSM   H13F13890   5.518   3.658   7.462 -2.4205  1.8201 -0.2126
  129OSM   H13G13891   5.530   3.834   7.496 -0.1595 -0.6845 -0.1802
  129OSM   C14F13892   5.626   3.720   7.651  0.1408 -0.4881 -1.0085
  129OSM   H14F13893   5.688   3.809   7.674 -0.4369 -0.5361  0.9133
  129OSM   H14G13894   5.700   3.641   7.674  0.0943 -0.2055  0.1631
  129OSM   C15F13895   5.514   3.712   7.751 -0.1528  0.4104  0.3833
  129OSM   H15F13896   5.490   3.605   7.766  0.1337  0.2547 -0.2592
  129OSM   H15G13897   5.426   3.770   7.715  0.8195  1.8453  0.2074
  129OSM   C16F13898   5.551   3.762   7.891  0.0799  0.0752  0.1720
  129OSM   H16F13899   5.566   3.872   7.884  2.0811 -0.0947  1.0861
  129OSM   H16G13900   5.653   3.723   7.913  0.9609  3.1797  2.3739
  129OSM   C17F13901   5.448   3.730   8.000 -0.2449 -0.1362  0.2397
  129OSM   H17F13902   5.473   3.774   8.099  0.1642 -0.0681  0.1074
  129OSM   H17G13903   5.425   3.622   8.013 -1.2232  0.2113  1.5430
  129OSM   C18F13904   5.311   3.773   7.968  0.3762 -0.2350  0.5206
  129OSM   H18F13905   5.299   3.880   7.940  0.9407 -0.2975  0.0144
  129OSM   H18G13906   5.246   3.771   8.058  0.7845  1.8276  0.9116
  129OSM   H18H13907   5.268   3.699   7.897 -0.9895 -0.9545  2.0394
  130OSM      N13908   1.440   2.322   6.477 -0.2828  0.8337 -0.2167
  130OSM    C1513909   1.591   2.316   6.456 -0.0796  0.8809  0.4357
  130OSM   H15A13910   1.631   2.218   6.476 -1.4736  0.1595 -0.1252
  130OSM   H15B13911   1.646   2.384   6.519 -0.2044  0.5704  0.8947
  130OSM   H15C13912   1.616   2.332   6.353 -0.4427  0.2740  0.2441
  130OSM    C1413913   1.366   2.223   6.389 -0.1285  0.4969 -0.2708
  130OSM   H14A13914   1.262   2.223   6.415 -0.8137  3.4450 -2.4318
  130OSM   H14B13915   1.408   2.124   6.394  0.2309  0.5918 -1.3017
  130OSM   H14C13916   1.373   2.250   6.285 -0.0924  1.7635  0.0428
  130OSM    C1313917   1.416   2.275   6.618 -0.3896 -0.3726  0.5494
  130OSM   H13A13918   1.310   2.283   6.635  0.1285  3.2770  3.2207
  130OSM   H13B13919   1.478   2.330   6.687 -0.8616  0.5090  0.2871
  130OSM   H13C13920   1.442   2.171   6.622  1.0951 -0.1091 -0.9055
  130OSM    C1213921   1.396   2.468   6.470 -0.0068 -1.1801  0.5278
  130OSM   H12A13922   1.446   2.527   6.545  0.1386 -0.2098 -0.3045
  130OSM   H12B13923   1.289   2.462   6.488 -0.9353  0.9884 -3.0892
  130OSM    C1113924   1.407   2.546   6.334 -0.8714 -0.3437  0.2153
  130OSM   H11A13925   1.514   2.547   6.305 -1.1012  3.0970 -0.9457
  130OSM   H11B13926   1.374   2.651   6.346  0.2899  0.2469 -1.4285
  130OSM      P13927   1.249   2.536   6.127  0.2249 -0.3947  0.0120
  130OSM    O1313928   1.294   2.677   6.101 -0.4786 -0.3877 -0.1013
  130OSM    O1413929   1.224   2.450   6.009 -0.6433  0.8210  0.4195
  130OSM    O1113930   1.108   2.555   6.203  0.4481  0.2066 -0.8250
  130OSM    O1213931   1.339   2.466   6.231  0.1800 -0.4443  0.1057
  130OSM    C1S13932   1.033   2.454   6.271 -0.8066  0.3483  0.0494
  130OSM    H1S13933   1.097   2.387   6.333  0.8222  1.3567 -0.4962
  130OSM    H1T13934   0.975   2.390   6.201 -0.7049  0.0022  0.2787
  130OSM     NF13935   0.874   2.436   6.468  0.2399  0.3052 -0.2945
  130OSM    HNF13936   0.789   2.391   6.443  0.6913 -2.1917  2.1731
  130OSM    C2S13937   0.929   2.527   6.365 -0.4820  0.0264  0.3373
  130OSM    H2S13938   0.989   2.604   6.418  1.6469 -2.7367  2.2330
  130OSM    C3S13939   0.825   2.612   6.279 -0.5154 -0.4468 -0.4563
  130OSM    H3S13940   0.781   2.545   6.201 -1.0978 -0.0120 -0.5055
  130OSM     O313941   0.886   2.707   6.190 -0.1985  0.2673  0.0037
  130OSM    HO313942   0.978   2.682   6.183 -0.2832 -0.3049  0.8396
  130OSM    C4S13943   0.711   2.669   6.363  0.5434 -1.1240 -0.3982
  130OSM    H4S13944   0.619   2.616   6.336  0.4025 -2.1573  1.8396
  130OSM    C5S13945   0.712   2.760   6.462  0.5455  0.0182 -0.2069
  130OSM    H5S13946   0.809   2.802   6.495  2.3434 -2.0976 -2.4216
  130OSM    C6S13947   0.584   2.811   6.535 -0.9375 -0.2890  0.0829
  130OSM    H6S13948   0.547   2.905   6.489 -0.0501  0.2408  0.4384
  130OSM    H6T13949   0.606   2.845   6.638 -2.5956  2.3599 -0.3237
  130OSM    C7S13950   0.466   2.701   6.550 -0.2298 -0.5321 -0.0407
  130OSM    H7S13951   0.488   2.621   6.624 -1.2372 -0.3172  0.5095
  130OSM    H7T13952   0.465   2.656   6.448  0.4585 -1.6352  0.4113
  130OSM    C8S13953   0.335   2.778   6.583  0.2112  0.8751  0.5951
  130OSM    H8S13954   0.311   2.835   6.491 -0.6385 -0.0935  0.2013
  130OSM    H8T13955   0.355   2.852   6.663  1.8951  1.7281 -0.5613
  130OSM    C9S13956   0.213   2.682   6.600  0.4078  0.2691 -0.0893
  130OSM    H9S13957   0.220   2.643   6.704 -2.7360 -0.3009  0.0116
  130OSM    H9T13958   0.226   2.604   6.521  0.3027 -0.3894  0.5329
  130OSM   C10S13959   0.065   2.730   6.585 -0.1944 -0.0482 -0.4294
  130OSM   H10S13960  -0.012   2.650   6.573 -1.0887  0.5936  0.8394
  130OSM   H10T13961   0.056   2.787   6.490 -0.2987 -0.2620 -0.5501
  130OSM   C11S13962   0.025   2.832   6.694  0.0132 -0.0375 -0.1071
  130OSM   H11S13963   0.103   2.907   6.716 -1.1834  1.2400 -0.0681
  130OSM   H11T13964  -0.008   2.775   6.784 -1.5973 -1.3031 -1.4359
  130OSM   C12S13965  -0.101   2.913   6.655  0.2714  0.1297  0.1893
  130OSM   H12S13966  -0.191   2.849   6.657  0.3509 -0.0209 -0.5938
  130OSM   H12T13967  -0.080   2.947   6.551  1.5939 -0.6315  0.1784
  130OSM   C13S13968  -0.139   3.032   6.746 -0.4983  0.2931 -0.0960
  130OSM   H13S13969  -0.065   3.115   6.739 -0.3443  0.3478  1.6482
  130OSM   H13T13970  -0.118   2.994   6.848  0.2787  1.6306  0.2716
  130OSM   C14S13971  -0.276   3.093   6.733  0.4732  0.4215  0.0624
  130OSM   H14S13972  -0.309   3.057   6.633 -1.1749  3.0674 -0.4176
  130OSM   H14T13973  -0.270   3.203   6.718 -1.2130  0.3879 -1.0696
  130OSM   C15S13974  -0.374   3.062   6.845 -0.1213 -0.1446 -0.2256
  130OSM   H15S13975  -0.344   3.115   6.938 -0.4875  0.5283 -0.4852
  130OSM   H15T13976  -0.350   2.958   6.878 -0.9009  0.1891  1.4937
  130OSM   C16S13977  -0.517   3.103   6.812  0.5202 -0.3380 -0.0586
  130OSM   H16S13978  -0.588   3.069   6.891 -0.4177  0.8864 -0.3404
  130OSM   H16T13979  -0.545   3.065   6.712 -0.0538 -0.0449 -0.0156
  130OSM   C17S13980  -0.527   3.254   6.801 -0.4659  0.3410  0.4745
  130OSM   H17S13981  -0.451   3.276   6.723  0.9315 -0.2374  1.6387
  130OSM   H17T13982  -0.482   3.310   6.886  0.9168  0.5776 -0.3768
  130OSM   C18S13983  -0.670   3.303   6.778 -0.5255 -0.5574 -0.7928
  130OSM   H18S13984  -0.717   3.254   6.690  0.5373 -0.0593 -1.6635
  130OSM   H18T13985  -0.655   3.411   6.758  2.5232 -0.7516 -0.0020
  130OSM   H18U13986  -0.739   3.285   6.864 -1.8476 -0.2896 -1.7587
  130OSM    C1F13987   0.939   2.368   6.559  0.0192  0.7199 -0.0174
  130OSM     OF13988   1.066   2.368   6.559 -0.2545  0.0241  0.4017
  130OSM    C2F13989   0.852   2.279   6.647 -0.3790 -0.4215  0.2211
  130OSM    H2F13990   0.835   2.177   6.607  2.2104 -0.2201 -1.6062
  130OSM    H2G13991   0.750   2.318   6.667 -0.1632 -0.4845  1.5780
  130OSM    C3F13992   0.909   2.250   6.788  0.0006 -0.4795 -0.0716
  130OSM    H3F13993   0.826   2.202   6.844 -0.1781 -0.0383  0.0403
  130OSM    H3G13994   0.921   2.344   6.845  1.6625  0.0779 -1.2841
  130OSM    C4F13995   1.034   2.165   6.787  0.3889 -0.5448 -0.3021
  130OSM    H4F13996   1.113   2.222   6.735 -0.6390  0.3078 -0.9896
  130OSM    H4G13997   1.015   2.070   6.733 -0.7340  1.6873 -4.2204
  130OSM    C5F13998   1.089   2.121   6.927  0.2202  0.1025 -0.5627
  130OSM    H5F13999   1.185   2.065   6.919  1.7629  1.7182  3.6772
  130OSM    H5G14000   1.012   2.052   6.968 -0.3387  0.6356 -0.7055
  130OSM    C6F14001   1.111   2.229   7.030 -0.2317 -0.7826  0.0661
  130OSM    H6F14002   1.026   2.300   7.020  0.2097 -0.2202  0.2735
  130OSM    H6G14003   1.190   2.298   6.993 -2.2353  0.3227 -2.5341
  130OSM    C7F14004   1.121   2.189   7.176  0.1279 -0.2230 -0.2960
  130OSM    H7F14005   1.196   2.108   7.175 -0.9096 -1.2503  1.3563
  130OSM    H7G14006   1.025   2.145   7.210 -0.2513  1.7158  1.3840
  130OSM    C8F14007   1.173   2.294   7.275 -0.1180 -0.2828  0.8298
  130OSM    H8F14008   1.092   2.368   7.292 -0.1400 -0.1991  0.3914
  130OSM    H8G14009   1.258   2.347   7.227 -0.2960 -0.7477 -0.0287
  130OSM    C9F14010   1.231   2.229   7.394  0.7865  0.6475  0.7183
  130OSM    H9F14011   1.271   2.128   7.377 -0.7133  0.2309 -0.5430
  130OSM   C10F14012   1.231   2.270   7.518  1.0156 -0.2374 -0.6256
  130OSM   H10F14013   1.287   2.218   7.597  2.8971  1.6769 -0.6108
  130OSM   C11F14014   1.181   2.401   7.574  0.4531  0.3231 -0.5214
  130OSM   H11F14015   1.071   2.390   7.582  0.7141 -1.6034  1.5821
  130OSM   H11G14016   1.191   2.484   7.501  1.4595  0.6169 -0.0777
  130OSM   C12F14017   1.237   2.427   7.721 -0.0110 -0.0923  0.8825
  130OSM   H12F14018   1.344   2.456   7.711  0.5208 -1.8724  1.1909
  130OSM   H12G14019   1.236   2.338   7.787 -2.2235 -0.5707  0.2637
  130OSM   C13F14020   1.149   2.531   7.794  0.0236  0.8498  0.0221
  130OSM   H13F14021   1.167   2.625   7.738 -0.1538  0.9946  0.2040
  130OSM   H13G14022   1.185   2.543   7.899 -3.0822 -0.1768  1.3559
  130OSM   C14F14023   0.996   2.502   7.809  0.1920  0.4849 -0.3026
  130OSM   H14F14024   0.986   2.408   7.867 -0.4462  0.9796  0.4123
  130OSM   H14G14025   0.963   2.492   7.703  1.8998 -4.0294 -0.6268
  130OSM   C15F14026   0.917   2.603   7.891  0.1025  0.6115  0.8013
  130OSM   H15F14027   0.808   2.582   7.884  0.3511 -0.5439  0.0075
  130OSM   H15G14028   0.936   2.695   7.832 -0.7278 -1.1866 -2.5630
  130OSM   C16F14029   0.963   2.627   8.041  0.3596 -0.0477  0.2885
  130OSM   H16F14030   0.900   2.713   8.072  0.1809 -0.0562 -0.0452
  130OSM   H16G14031   1.071   2.652   8.039  1.2865 -3.5711 -0.5779
  130OSM   C17F14032   0.944   2.512   8.134  0.0990 -0.0263 -0.1211
  130OSM   H17F14033   0.993   2.423   8.089 -1.0923 -1.2774  0.9535
  130OSM   H17G14034   0.836   2.490   8.151 -0.4613  0.6842 -2.3558
  130OSM   C18F14035   1.008   2.543   8.271 -0.0339 -0.0880  0.4673
  130OSM   H18F14036   0.985   2.462   8.344  2.1741 -0.2252  1.0879
  130OSM   H18G14037   0.965   2.635   8.318  0.4821  1.1329 -1.3453
  130OSM   H18H14038   1.117   2.563   8.263  0.7164 -2.9766  1.9327
  131OSM      N14039   5.132   0.644   5.833 -0.0714  0.0719 -0.5619
  131OSM    C1514040   5.023   0.735   5.791 -0.0855 -0.1116  0.1173
  131OSM   H15A14041   4.928   0.684   5.787 -0.2646  0.1692  0.5974
  131OSM   H15B14042   5.035   0.771   5.690  0.8857  3.7867  1.4518
  131OSM   H15C14043   5.023   0.818   5.861  1.2764 -1.7147  2.1316
  131OSM    C1414044   5.116   0.610   5.971 -1.0876 -1.1400 -0.2326
  131OSM   H14A14045   5.150   0.696   6.027  0.0121 -1.3678 -0.5231
  131OSM   H14B14046   5.177   0.526   6.001  0.4956  0.8151  2.5415
  131OSM   H14C14047   5.017   0.585   6.004 -1.1250 -0.2885  0.3554
  131OSM    C1314048   5.126   0.516   5.752  0.0739 -0.2121  0.6325
  131OSM   H13A14049   5.215   0.460   5.778  0.6216  1.3628  2.3086
  131OSM   H13B14050   5.127   0.538   5.646  0.1693 -1.0981  0.4413
  131OSM   H13C14051   5.038   0.461   5.783 -0.1740 -0.9292 -1.1811
  131OSM    C1214052   5.272   0.698   5.809  0.1779 -0.6761 -0.2061
  131OSM   H12A14053   5.285   0.692   5.702 -0.7304  0.5574 -0.4142
  131OSM   H12B14054   5.346   0.636   5.858  0.2879 -1.0864 -0.8768
  131OSM    C1114055   5.285   0.846   5.844 -0.2360 -0.0544 -0.3205
  131OSM   H11A14056   5.222   0.910   5.779  0.1119  0.7480  0.1214
  131OSM   H11B14057   5.389   0.872   5.818 -0.7676 -0.2264 -2.9516
  131OSM      P14058   5.173   0.994   6.029  0.8390 -0.1394 -0.0859
  131OSM    O1314059   5.160   1.099   5.922  0.1615  0.9953  0.3018
  131OSM    O1414060   5.046   0.941   6.087  0.1356  0.1920  0.3030
  131OSM    O1114061   5.259   1.058   6.146 -0.1473  0.5966 -0.2458
  131OSM    O1214062   5.265   0.870   5.984 -0.2799  0.1985  0.1811
  131OSM    C1S14063   5.338   0.993   6.241 -0.5603  0.0734 -0.4497
  131OSM    H1S14064   5.440   0.979   6.201 -0.3286 -1.0985  0.4947
  131OSM    H1T14065   5.286   0.903   6.281  1.7441  0.0663  2.9222
  131OSM     NF14066   5.433   1.005   6.466 -0.1552 -0.0766 -0.4280
  131OSM    HNF14067   5.391   0.941   6.529  0.4792 -1.9956 -1.8775
  131OSM    C2S14068   5.353   1.086   6.371 -0.1816  0.5353  0.2103
  131OSM    H2S14069   5.417   1.170   6.336  0.1830 -0.2047 -0.9588
  131OSM    C3S14070   5.216   1.125   6.423  0.6220 -0.0617  0.0706
  131OSM    H3S14071   5.150   1.038   6.442  1.4810 -0.7926 -0.2029
  131OSM     O314072   5.138   1.208   6.338 -0.5309 -0.1425 -0.5803
  131OSM    HO314073   5.195   1.219   6.261  0.3153  0.1920  0.0776
  131OSM    C4S14074   5.223   1.200   6.551  0.7679 -0.0899  0.0277
  131OSM    H4S14075   5.279   1.294   6.536  0.4259  0.3435  1.3907
  131OSM    C5S14076   5.166   1.168   6.666  0.1140  0.5383  0.3061
  131OSM    H5S14077   5.112   1.072   6.670  3.3761 -1.4104  2.8425
  131OSM    C6S14078   5.176   1.246   6.796 -0.5550 -0.5590  0.1366
  131OSM    H6S14079   5.246   1.190   6.862 -0.1271 -0.3924 -0.1673
  131OSM    H6T14080   5.084   1.232   6.856  0.1922 -1.6637  1.0633
  131OSM    C7S14081   5.233   1.391   6.779 -0.1716 -0.2976  0.0136
  131OSM    H7S14082   5.184   1.451   6.700  1.8939  0.0399 -1.0666
  131OSM    H7T14083   5.341   1.379   6.753 -0.2282  1.0183 -0.9287
  131OSM    C8S14084   5.234   1.463   6.915  0.1802 -0.0545 -0.2179
  131OSM    H8S14085   5.304   1.548   6.904  1.3249 -1.0028 -0.5552
  131OSM    H8T14086   5.288   1.407   6.994  2.8016  1.1755 -1.0209
  131OSM    C9S14087   5.101   1.506   6.950 -0.2849 -0.8998 -0.3345
  131OSM    H9S14088   5.027   1.424   6.944 -0.7952 -0.4984  0.2920
  131OSM    H9T14089   5.064   1.591   6.890 -0.0823 -0.3938  0.2361
  131OSM   C10S14090   5.090   1.564   7.093  0.4479  0.1932  0.0095
  131OSM   H10S14091   4.995   1.620   7.086 -0.0908 -0.6986  0.0494
  131OSM   H10T14092   5.180   1.628   7.103 -0.5034  1.6153 -0.2078
  131OSM   C11S14093   5.093   1.457   7.201  0.1228  0.6163 -0.6011
  131OSM   H11S14094   5.161   1.377   7.166 -0.7635  0.1080 -1.2061
  131OSM   H11T14095   4.991   1.415   7.188 -0.4779  2.1723 -1.2615
  131OSM   C12S14096   5.114   1.512   7.342  0.3969 -0.0779 -0.1867
  131OSM   H12S14097   5.082   1.618   7.340  0.8656  0.1188 -3.5239
  131OSM   H12T14098   5.221   1.535   7.358  0.3399 -0.0185  0.1150
  131OSM   C13S14099   5.064   1.422   7.455 -0.0711  0.1234  0.4023
  131OSM   H13S14100   5.111   1.322   7.447  1.9381  1.0083  0.4908
  131OSM   H13T14101   4.956   1.401   7.444 -0.2319 -0.4687  2.7765
  131OSM   C14S14102   5.086   1.496   7.589  0.3339  0.3962  0.0344
  131OSM   H14S14103   5.042   1.597   7.574 -0.1958  0.3625  1.2679
  131OSM   H14T14104   5.195   1.517   7.594  0.3485  0.1847  0.6394
  131OSM   C15S14105   5.034   1.415   7.712  0.4719  0.1025  0.6550
  131OSM   H15S14106   5.042   1.304   7.703 -1.2108  0.0723 -1.1477
  131OSM   H15T14107   4.928   1.440   7.731 -0.2554 -1.9803 -0.3269
  131OSM   C16S14108   5.113   1.467   7.826 -0.2509  0.1608 -0.2325
  131OSM   H16S14109   5.077   1.572   7.833  0.2099  0.2276  1.7896
  131OSM   H16T14110   5.220   1.470   7.797 -1.0858 -0.7328 -3.9140
  131OSM   C17S14111   5.090   1.387   7.962 -0.4812  0.4151  0.2819
  131OSM   H17S14112   5.159   1.300   7.971  0.2806  0.8037 -1.4030
  131OSM   H17T14113   4.985   1.352   7.955 -0.4488  0.5029 -0.7686
  131OSM   C18S14114   5.110   1.479   8.083 -0.2526 -0.2500  0.5070
  131OSM   H18S14115   5.091   1.432   8.182 -2.4878  0.9227  0.6956
  131OSM   H18T14116   5.039   1.564   8.073 -0.0924  0.0615  1.8555
  131OSM   H18U14117   5.215   1.515   8.089 -0.6409  0.9957  0.1793
  131OSM    C1F14118   5.569   0.987   6.470  0.0028 -0.6136 -0.9937
  131OSM     OF14119   5.639   1.045   6.391 -0.0088 -0.3190 -0.4456
  131OSM    C2F14120   5.624   0.902   6.588 -0.1401 -0.6000 -0.2718
  131OSM    H2F14121   5.644   0.799   6.554  0.2164 -0.5632 -0.1763
  131OSM    H2G14122   5.555   0.890   6.674  3.8351 -1.0671  3.1697
  131OSM    C3F14123   5.754   0.950   6.655 -0.3304  0.5526  0.4510
  131OSM    H3F14124   5.834   0.950   6.578 -1.6266 -1.1903 -0.9726
  131OSM    H3G14125   5.783   0.871   6.728 -2.7710  0.8398  1.8518
  131OSM    C4F14126   5.746   1.093   6.713  0.0245 -0.1480 -0.0953
  131OSM    H4F14127   5.706   1.158   6.632 -0.3712  1.0358  1.0203
  131OSM    H4G14128   5.848   1.134   6.728  0.6316 -1.9777  1.0451
  131OSM    C5F14129   5.662   1.105   6.840  0.4374  0.6813 -0.0445
  131OSM    H5F14130   5.688   1.030   6.918  0.0721  0.7757  0.1733
  131OSM    H5G14131   5.554   1.095   6.816  0.8303 -1.1798 -1.2218
  131OSM    C6F14132   5.676   1.245   6.908  0.1360  0.3865 -0.1815
  131OSM    H6F14133   5.784   1.266   6.922  0.7738 -0.1977 -3.4628
  131OSM    H6G14134   5.639   1.231   7.012  1.8416 -0.1003  0.3981
  131OSM    C7F14135   5.590   1.362   6.856  0.2349 -0.2401  0.6269
  131OSM    H7F14136   5.488   1.341   6.894 -0.2433 -1.2997 -1.1285
  131OSM    H7G14137   5.600   1.350   6.746  2.5170  0.0387  0.7495
  131OSM    C8F14138   5.636   1.504   6.906 -0.5610  0.9734 -0.4592
  131OSM    H8F14139   5.631   1.516   7.016 -0.7195  3.0984 -0.6585
  131OSM    H8G14140   5.565   1.574   6.858  0.7878  2.6029 -0.1888
  131OSM    C9F14141   5.774   1.532   6.845 -0.3923 -0.1102 -0.1272
  131OSM    H9F14142   5.789   1.496   6.742  2.0002  1.7014 -0.5036
  131OSM   C10F14143   5.876   1.590   6.907  0.2142 -1.0688  0.0644
  131OSM   H10F14144   5.959   1.612   6.838 -0.1222 -0.0586 -0.0326
  131OSM   C11F14145   5.884   1.644   7.045 -0.2441  1.0358 -0.1580
  131OSM   H11F14146   5.786   1.613   7.089 -0.9361  0.8291 -1.7763
  131OSM   H11G14147   5.892   1.755   7.045  1.6064  0.9548  1.4754
  131OSM   C12F14148   6.002   1.577   7.111  0.2354  0.3070 -0.4903
  131OSM   H12F14149   6.094   1.628   7.074  1.1938 -0.9132  0.1244
  131OSM   H12G14150   6.006   1.467   7.105 -1.6790  0.1279  0.8113
  131OSM   C13F14151   5.994   1.603   7.266  0.2243  0.3906 -0.0330
  131OSM   H13F14152   5.899   1.558   7.300  0.0031  0.1499 -0.9518
  131OSM   H13G14153   5.987   1.712   7.284 -1.1364 -0.0546  2.6404
  131OSM   C14F14154   6.123   1.568   7.332 -0.7012  0.4103 -0.2890
  131OSM   H14F14155   6.202   1.628   7.283 -1.9385  0.4487 -2.3692
  131OSM   H14G14156   6.142   1.459   7.328 -0.5891  0.4464 -0.8231
  131OSM   C15F14157   6.135   1.603   7.484 -0.0110 -0.7244  0.2621
  131OSM   H15F14158   6.143   1.714   7.478 -3.4207 -0.4191 -1.1726
  131OSM   H15G14159   6.232   1.558   7.514  2.2206  3.0681 -0.6140
  131OSM   C16F14160   6.021   1.566   7.577  0.1327  0.0224 -0.2230
  131OSM   H16F14161   5.928   1.612   7.538  0.6419  1.6771  0.4495
  131OSM   H16G14162   6.046   1.602   7.679  1.4823 -1.3958 -0.0100
  131OSM   C17F14163   6.001   1.407   7.578 -0.0571 -0.9037  0.1410
  131OSM   H17F14164   6.094   1.362   7.620  1.0434  0.9392 -0.2268
  131OSM   H17G14165   5.996   1.377   7.471 -0.3278  0.1293 -0.1397
  131OSM   C18F14166   5.884   1.353   7.669 -0.4564 -0.1658  0.5580
  131OSM   H18F14167   5.794   1.418   7.655  1.1483  1.8265 -1.1716
  131OSM   H18G14168   5.910   1.345   7.776 -0.3663 -2.0353  0.4277
  131OSM   H18H14169   5.863   1.249   7.635 -1.5003  0.3406 -0.4285
  132OSM      N14170   2.010   4.309   6.115  0.1153 -0.1392 -0.4613
  132OSM    C1514171   2.097   4.400   6.032 -0.1052 -0.5154  0.2441
  132OSM   H15A14172   2.104   4.502   6.068 -0.0137 -0.2961 -0.3901
  132OSM   H15B14173   2.066   4.404   5.929 -1.6296  0.2904  0.7031
  132OSM   H15C14174   2.190   4.346   6.027 -0.1751 -0.6319  0.1860
  132OSM    C1414175   1.878   4.372   6.130 -0.6412 -0.3607 -0.0359
  132OSM   H14A14176   1.860   4.411   6.228 -1.4417  1.6670 -0.9382
  132OSM   H14B14177   1.802   4.297   6.115 -0.5996 -0.8409  1.9728
  132OSM   H14C14178   1.880   4.453   6.058  2.3496  0.2164  0.5577
  132OSM    C1314179   2.007   4.174   6.054 -0.0045  0.3023 -0.0766
  132OSM   H13A14180   1.962   4.101   6.119 -0.8819  1.5011  0.7262
  132OSM   H13B14181   2.108   4.147   6.028 -0.6596 -2.5660  0.0271
  132OSM   H13C14182   1.960   4.168   5.956 -0.7485  0.3105  0.2752
  132OSM    C1214183   2.078   4.303   6.255 -0.0131 -0.0738  0.7898
  132OSM   H12A14184   2.009   4.262   6.328 -1.0228  0.9274  0.4188
  132OSM   H12B14185   2.093   4.403   6.294 -1.9433  0.2948  0.6461
  132OSM    C1114186   2.209   4.218   6.267  0.3518  0.0277 -0.8444
  132OSM   H11A14187   2.184   4.115   6.237 -0.5415 -0.1829  0.5514
  132OSM   H11B14188   2.238   4.232   6.374 -2.3049  0.9062 -0.1669
  132OSM      P14189   2.451   4.198   6.183  0.1526  0.2605  0.4495
  132OSM    O1314190   2.425   4.070   6.112  0.0942  0.7929 -1.0226
  132OSM    O1414191   2.549   4.294   6.120  0.3617  0.2797 -0.1392
  132OSM    O1114192   2.487   4.173   6.331 -0.1541 -0.2581 -0.6833
  132OSM    O1214193   2.314   4.271   6.184  0.1439 -0.0769 -0.2189
  132OSM    C1S14194   2.550   4.268   6.415  0.7372  0.3608 -0.0539
  132OSM    H1S14195   2.479   4.349   6.441  1.3814  0.5523  1.2180
  132OSM    H1T14196   2.638   4.310   6.362 -1.6131  1.5816 -3.2275
  132OSM     NF14197   2.658   4.302   6.637  0.1122  0.5100 -0.6341
  132OSM    HNF14198   2.754   4.285   6.654 -0.1038  0.3041  0.4621
  132OSM    C2S14199   2.601   4.202   6.548 -0.2554  0.3157 -0.2207
  132OSM    H2S14200   2.512   4.153   6.592  0.1039  0.9570  1.2883
  132OSM    C3S14201   2.696   4.087   6.522  0.2284 -0.0436 -0.3701
  132OSM    H3S14202   2.778   4.129   6.460 -1.6124  3.0969 -0.9016
  132OSM     O314203   2.632   3.986   6.443  0.2901 -0.1263 -0.8008
  132OSM    HO314204   2.573   4.035   6.385 -1.2652 -1.5046 -0.4459
  132OSM    C4S14205   2.749   4.013   6.642  0.7409  0.2894  0.1936
  132OSM    H4S14206   2.690   3.926   6.674  0.1219  0.0564 -1.5015
  132OSM    C5S14207   2.870   4.027   6.692 -0.5416  0.0068 -0.1206
  132OSM    H5S14208   2.942   4.100   6.651 -2.2328  0.9598 -1.5283
  132OSM    C6S14209   2.909   3.949   6.812  0.1956  0.3830 -0.3355
  132OSM    H6S14210   3.002   3.889   6.803  0.5814  1.0191 -0.6253
  132OSM    H6T14211   2.818   3.895   6.845 -1.8056  2.8956 -1.4200
  132OSM    C7S14212   2.947   4.055   6.924 -0.0979 -0.0038 -0.1235
  132OSM    H7S14213   2.857   4.109   6.959 -0.1291  0.0249 -0.2484
  132OSM    H7T14214   3.020   4.130   6.886 -0.4040  0.1294 -0.4576
  132OSM    C8S14215   3.002   3.990   7.043 -0.6989  0.0567 -0.0679
  132OSM    H8S14216   3.104   4.029   7.063 -0.8409  0.8258 -0.7790
  132OSM    H8T14217   3.005   3.880   7.029 -1.4297  0.1535 -1.0130
  132OSM    C9S14218   2.924   4.038   7.163 -0.3249  0.4373  0.0382
  132OSM    H9S14219   2.818   4.009   7.146  0.4094 -0.8030 -3.3129
  132OSM    H9T14220   2.929   4.146   7.187 -1.3538  0.6010 -0.4222
  132OSM   C10S14221   2.974   3.971   7.298  0.2301  0.3480  0.6048
  132OSM   H10S14222   3.072   4.018   7.321  0.1367  1.5011 -1.1216
  132OSM   H10T14223   2.967   3.862   7.279  2.3149  0.5812 -2.1033
  132OSM   C11S14224   2.879   4.006   7.416  1.2113 -0.4337 -0.1685
  132OSM   H11S14225   2.778   3.972   7.385  1.9364 -3.2656  0.3203
  132OSM   H11T14226   2.882   4.116   7.430  0.0114 -0.1962 -1.5832
  132OSM   C12S14227   2.926   3.944   7.543  0.7099  0.5619 -0.5947
  132OSM   H12S14228   3.026   3.977   7.577  0.8430 -0.0315 -0.4157
  132OSM   H12T14229   2.919   3.834   7.535  0.2638  0.3922  1.6744
  132OSM   C13S14230   2.841   3.993   7.675 -0.3707 -0.0409  0.1250
  132OSM   H13S14231   2.734   3.961   7.669 -1.3778  2.6400  2.0146
  132OSM   H13T14232   2.834   4.103   7.665 -0.5204 -0.0692 -0.0817
  132OSM   C14S14233   2.902   3.955   7.800 -0.6252  0.1879 -0.7650
  132OSM   H14S14234   2.860   4.011   7.886 -1.2759 -0.5916 -0.5588
  132OSM   H14T14235   3.011   3.967   7.784 -0.6132 -0.1034 -0.9166
  132OSM   C15S14236   2.870   3.806   7.815  0.0398 -0.3432 -1.1729
  132OSM   H15S14237   2.922   3.756   7.730  1.0704 -2.7911  0.7974
  132OSM   H15T14238   2.762   3.785   7.801 -0.1003 -1.0227  0.7228
  132OSM   C16S14239   2.937   3.743   7.939 -0.1037 -0.0878  0.0267
  132OSM   H16S14240   3.022   3.808   7.969 -0.8241  0.8094  0.1656
  132OSM   H16T14241   2.973   3.640   7.919  0.1060 -0.2397  1.1302
  132OSM   C17S14242   2.836   3.737   8.060 -0.5870  0.4875 -0.2998
  132OSM   H17S14243   2.736   3.698   8.030 -0.1913 -1.2755  0.5247
  132OSM   H17T14244   2.824   3.844   8.085  0.3891  0.7994 -1.1136
  132OSM   C18S14245   2.888   3.669   8.189  0.0916 -0.0390 -0.1714
  132OSM   H18S14246   2.987   3.717   8.210 -0.3557 -0.3479  3.3849
  132OSM   H18T14247   2.909   3.562   8.170 -0.3372 -0.7850  3.0042
  132OSM   H18U14248   2.836   3.678   8.287  0.9627 -1.5022  0.4563
  132OSM    C1F14249   2.578   4.386   6.699  0.5158 -0.2049 -0.5925
  132OSM     OF14250   2.462   4.414   6.667 -0.5491 -0.3273  0.1986
  132OSM    C2F14251   2.634   4.439   6.828 -0.2586 -0.3874  1.0290
  132OSM    H2F14252   2.745   4.426   6.825 -0.2543 -0.2251 -0.5134
  132OSM    H2G14253   2.595   4.382   6.914 -1.2328 -1.3087  0.0054
  132OSM    C3F14254   2.599   4.586   6.834 -0.4636 -0.2425 -0.1485
  132OSM    H3F14255   2.495   4.594   6.872 -1.2553 -0.8947 -2.0711
  132OSM    H3G14256   2.610   4.644   6.740  1.5398  0.9224  0.7250
  132OSM    C4F14257   2.676   4.670   6.941 -0.3767 -0.4458  0.1426
  132OSM    H4F14258   2.652   4.778   6.948  3.5371  0.8286 -2.6157
  132OSM    H4G14259   2.782   4.670   6.908 -0.4316  0.9562 -0.0834
  132OSM    C5F14260   2.664   4.610   7.089  0.3492 -0.0205  0.3910
  132OSM    H5F14261   2.710   4.509   7.085 -0.2184 -0.2824  0.2739
  132OSM    H5G14262   2.553   4.604   7.094  0.1574 -1.2618 -2.8133
  132OSM    C6F14263   2.723   4.702   7.195 -0.9275 -0.3084 -0.3118
  132OSM    H6F14264   2.674   4.801   7.186 -1.2729 -0.4815 -0.3662
  132OSM    H6G14265   2.828   4.727   7.170 -1.0050 -0.6293 -0.9791
  132OSM    C7F14266   2.715   4.655   7.341 -0.0407  0.5844 -0.8302
  132OSM    H7F14267   2.784   4.568   7.346 -0.5258  0.2701  0.9107
  132OSM    H7G14268   2.616   4.616   7.375  0.1349  0.6133 -0.2812
  132OSM    C8F14269   2.771   4.750   7.451  0.2403  0.1828 -0.6442
  132OSM    H8F14270   2.877   4.780   7.438 -0.1883  1.8667 -0.5125
  132OSM    H8G14271   2.762   4.708   7.553 -1.0589  0.5946 -0.5666
  132OSM    C9F14272   2.690   4.881   7.443  0.0648  0.0084  0.4114
  132OSM    H9F14273   2.744   4.961   7.389  0.3921 -0.5282 -0.0662
  132OSM   C10F14274   2.563   4.892   7.496  0.3325  0.1834 -0.4228
  132OSM   H10F14275   2.496   4.970   7.457 -0.6934 -1.5659 -2.3421
  132OSM   C11F14276   2.489   4.787   7.565  1.5844  0.4191 -1.1764
  132OSM   H11F14277   2.544   4.691   7.569  0.5468 -0.1722 -0.9218
  132OSM   H11G14278   2.401   4.763   7.502  0.6800  0.2516  0.1179
  132OSM   C12F14279   2.446   4.827   7.710  0.0485 -0.4396 -0.4045
  132OSM   H12F14280   2.374   4.747   7.739  0.5669 -1.4383 -1.7699
  132OSM   H12G14281   2.396   4.925   7.698 -1.6352 -1.3173 -0.8730
  132OSM   C13F14282   2.553   4.848   7.814  0.1271 -0.1280 -0.6586
  132OSM   H13F14283   2.529   4.934   7.880  0.2214 -0.4346 -0.2200
  132OSM   H13G14284   2.646   4.874   7.760 -0.9598  1.9420 -1.6562
  132OSM   C14F14285   2.580   4.721   7.907 -0.2521 -0.8045  0.0007
  132OSM   H14F14286   2.659   4.662   7.856 -0.7419 -2.0460  0.6495
  132OSM   H14G14287   2.493   4.652   7.913 -0.0459 -1.0130  0.5699
  132OSM   C15F14288   2.620   4.761   8.044 -0.7369  0.6581  0.1619
  132OSM   H15F14289   2.534   4.806   8.097 -0.1226  0.9099  0.9616
  132OSM   H15G14290   2.700   4.837   8.052  0.4671 -0.5368 -0.0459
  132OSM   C16F14291   2.656   4.647   8.133  0.1655  1.0870  0.5582
  132OSM   H16F14292   2.732   4.588   8.077 -1.0472 -1.0648  1.0393
  132OSM   H16G14293   2.568   4.587   8.165  0.2051  1.5239  1.5281
  132OSM   C17F14294   2.723   4.690   8.270 -0.3932 -1.0055 -0.7162
  132OSM   H17F14295   2.821   4.729   8.237  0.4745 -1.8838  0.7284
  132OSM   H17G14296   2.740   4.598   8.330 -1.2016 -0.4336  0.4150
  132OSM   C18F14297   2.646   4.794   8.360  0.4544  0.5779 -1.0110
  132OSM   H18F14298   2.703   4.806   8.454 -0.7877  1.3137 -0.3260
  132OSM   H18G14299   2.549   4.748   8.388  0.8120  0.5228  0.2178
  132OSM   H18H14300   2.636   4.896   8.318 -0.4347  0.9470  0.0326
  133SAPE     N14301   4.769   4.403  10.485 -0.3553  1.0644  0.2511
  133SAPE   HN114302   4.666   4.411  10.500 -0.4707 -1.2282  1.0733
  133SAPE   HN214303   4.798   4.489  10.435  0.2668  0.4331 -0.4780
  133SAPE   HN314304   4.788   4.328  10.415 -3.3580  0.3309  0.0844
  133SAPE   C1214305   4.849   4.366  10.606  0.0079 -0.0128  0.0851
  133SAPE  H12A14306   4.825   4.443  10.682 -0.2775  0.1246 -0.1454
  133SAPE  H12B14307   4.955   4.378  10.573 -0.9231  0.0449 -3.2125
  133SAPE   C1114308   4.823   4.216  10.647  0.0716 -0.4089  0.7627
  133SAPE  H11A14309   4.719   4.209  10.684  0.0964  0.7879  1.1099
  133SAPE  H11B14310   4.889   4.192  10.733  1.4915  0.5749  0.0031
  133SAPE     P14311   4.933   4.002  10.546 -0.1227 -0.2729  0.2573
  133SAPE   O1314312   5.080   4.028  10.559  0.5457 -0.3331 -0.6193
  133SAPE   O1414313   4.868   3.902  10.633 -0.1804  0.7620 -0.6486
  133SAPE   O1214314   4.844   4.131  10.533 -0.6773 -0.0128  0.4491
  133SAPE   O1114315   4.909   3.956  10.396 -0.2115  0.3140  0.6886
  133SAPE    C114316   4.781   3.940  10.341 -0.3823  0.6866 -0.0391
  133SAPE    HA14317   4.703   3.985  10.407 -1.5337 -0.6026 -0.4714
  133SAPE    HB14318   4.770   3.997  10.246  1.3746  0.6468 -0.2957
  133SAPE    C214319   4.749   3.794  10.300 -0.1019 -0.3334  0.1427
  133SAPE    HS14320   4.749   3.725  10.388  1.8379 -1.8686 -0.9607
  133SAPE   O2114321   4.857   3.749  10.203  0.6415 -0.7495 -0.0701
  133SAPE   C2114322   4.901   3.627  10.228 -0.2264 -1.2721  0.3526
  133SAPE   O2214323   4.879   3.561  10.329 -0.0852 -0.2628 -0.2303
  133SAPE   C2214324   5.012   3.587  10.127  0.4829 -0.0649  1.2982
  133SAPE   H2R14325   5.105   3.609  10.185  1.5831  0.4514 -0.5789
  133SAPE   H2S14326   5.007   3.479  10.103  0.8178  0.5915 -2.2123
  133SAPE    C314327   4.604   3.794  10.240 -0.1439 -0.1083  0.6550
  133SAPE    HX14328   4.525   3.847  10.297 -0.5944 -1.3965  1.2699
  133SAPE    HY14329   4.566   3.691  10.222  0.9312 -0.7259  1.7840
  133SAPE   O3114330   4.619   3.862  10.108  0.2461 -0.5836 -0.4335
  133SAPE   C3114331   4.625   3.785  10.005 -0.9871  0.4835 -0.4272
  133SAPE   O3214332   4.661   3.669  10.008  0.1136 -0.4175 -0.1502
  133SAPE   C3214333   4.599   3.871   9.879 -0.0738 -0.4563  0.0388
  133SAPE   H2X14334   4.558   3.969   9.910 -0.7427 -1.1955  1.5905
  133SAPE   H2Y14335   4.525   3.806   9.828  1.9945 -2.3722 -0.7355
  133SAPE   C2314336   4.997   3.671   9.997  0.8163  0.3534  0.0777
  133SAPE   H3R14337   4.977   3.780  10.008 -1.6419  0.1277 -1.3429
  133SAPE   H3S14338   4.906   3.629   9.949  1.0483 -1.6120  1.2625
  133SAPE   C2414339   5.125   3.683   9.907 -0.0799 -0.7015 -0.1566
  133SAPE   H4R14340   5.196   3.746   9.965  0.4907 -1.6004  0.1340
  133SAPE   H4S14341   5.097   3.733   9.811  1.4955 -0.1202 -0.3505
  133SAPE   C2514342   5.187   3.554   9.862  0.0218  0.3150  0.3753
  133SAPE   H5R14343   5.138   3.460   9.893  1.7708 -0.9566 -0.6122
  133SAPE   C2614344   5.287   3.552   9.770 -0.2292  0.1320  0.3015
  133SAPE   H6R14345   5.311   3.456   9.723  2.1392  0.6552  0.3067
  133SAPE   C2714346   5.346   3.678   9.709 -0.3735 -0.5771  0.4101
  133SAPE   H7R14347   5.358   3.756   9.787 -0.2014 -0.3458  0.1521
  133SAPE   H7S14348   5.269   3.711   9.636 -0.7813  1.6631  1.7732
  133SAPE   C2814349   5.481   3.659   9.644 -0.0103 -0.1726  0.7157
  133SAPE   H8R14350   5.552   3.626   9.721  0.1683  1.6253  1.3709
  133SAPE   C2914351   5.511   3.660   9.512 -0.0485 -0.0306  0.3483
  133SAPE   H9R14352   5.612   3.645   9.473 -0.8580  1.9451 -2.9838
  133SAPE  C21014353   5.415   3.702   9.400  0.0806 -0.2193 -0.0256
  133SAPE  H10R14354   5.309   3.705   9.435  0.1126 -3.1412  0.5749
  133SAPE  H10S14355   5.421   3.618   9.327 -0.9019  1.2704 -1.9388
  133SAPE  C21114356   5.459   3.828   9.330 -0.4889  0.9557  0.0963
  133SAPE  H11R14357   5.502   3.906   9.394  0.3475  0.5731  0.0173
  133SAPE  C21214358   5.480   3.844   9.198 -0.5816 -0.0774  0.2864
  133SAPE  H12R14359   5.514   3.943   9.163  1.1908  0.0751  2.2640
  133SAPE  C21314360   5.450   3.745   9.092 -0.1954  0.0412  0.0414
  133SAPE  H13R14361   5.428   3.796   8.996 -2.4296  0.7988  0.9062
  133SAPE  H13S14362   5.352   3.695   9.108  0.3358 -2.0328 -2.4053
  133SAPE  C21414363   5.560   3.644   9.078  0.0010  0.0630  0.4863
  133SAPE  H14R14364   5.607   3.611   9.172 -1.5205  1.3848  1.7544
  133SAPE  C21514365   5.604   3.573   8.969 -0.0064 -0.1765 -0.3512
  133SAPE  H15R14366   5.694   3.511   8.987  0.3174  0.7067  1.2840
  133SAPE  C21614367   5.556   3.581   8.826 -0.1487 -0.1900 -0.4533
  133SAPE  H16R14368   5.644   3.598   8.760 -0.4916  1.8580 -0.4747
  133SAPE  H16S14369   5.472   3.647   8.797  0.5014  0.5686 -0.6538
  133SAPE  C21714370   5.509   3.443   8.778  0.3414 -0.4801 -0.4166
  133SAPE  H17R14371   5.595   3.374   8.792 -0.5706 -1.5738 -0.0178
  133SAPE  H17S14372   5.494   3.429   8.669 -1.1693 -1.0299 -0.1734
  133SAPE  C21814373   5.381   3.394   8.845  0.5811  1.0324 -0.2399
  133SAPE  H18R14374   5.287   3.450   8.825  0.9175  0.9923 -2.1735
  133SAPE  H18S14375   5.392   3.402   8.955  0.2269 -2.0320  0.0954
  133SAPE  C21914376   5.350   3.246   8.817  0.2965 -0.1538  0.0314
  133SAPE  H19R14377   5.432   3.188   8.865  0.6783  0.4561  0.1324
  133SAPE  H19S14378   5.363   3.234   8.708 -2.3323  0.6669 -0.4370
  133SAPE  C22014379   5.212   3.199   8.868 -0.1059  0.1295 -0.1629
  133SAPE  H20R14380   5.195   3.090   8.868 -1.0752  0.2358 -2.4759
  133SAPE  H20S14381   5.128   3.251   8.817 -0.2679  1.3043  1.2376
  133SAPE  H20T14382   5.206   3.232   8.974 -3.2994 -1.5111  0.2658
  133SAPE   C3314383   4.714   3.890   9.781 -0.4077 -0.2915  0.8708
  133SAPE   H3X14384   4.754   3.791   9.750  2.4462  0.8978  0.4483
  133SAPE   H3Y14385   4.790   3.944   9.841  0.3631  0.5511 -0.8081
  133SAPE   C3414386   4.681   3.961   9.652 -0.2823  0.1246  0.1039
  133SAPE   H4X14387   4.657   4.066   9.679  2.1523  0.9218 -0.6128
  133SAPE   H4Y14388   4.593   3.914   9.603  0.4783  0.6792 -1.9021
  133SAPE   C3514389   4.778   3.955   9.532 -0.6090 -0.2950  0.3711
  133SAPE   H5X14390   4.740   4.035   9.465 -2.5377  0.2601  2.0600
  133SAPE   H5Y14391   4.764   3.858   9.479 -0.9587  1.3291 -2.7761
  133SAPE   C3614392   4.929   3.980   9.554  0.3439  0.1191 -1.2067
  133SAPE   H6X14393   4.969   3.909   9.630 -0.1861  1.2360  0.1442
  133SAPE   H6Y14394   4.942   4.081   9.598 -2.3738  0.3526 -0.7856
  133SAPE   C3714395   5.007   3.979   9.425  0.1334 -0.1466  0.0566
  133SAPE   H7X14396   5.108   4.015   9.452  0.0038  0.1551  0.1459
  133SAPE   H7Y14397   4.955   4.045   9.352  2.4107  1.3220 -0.3178
  133SAPE   C3814398   5.015   3.835   9.361  0.2143 -0.1663  0.8611
  133SAPE   H8X14399   4.917   3.805   9.319 -0.1010  2.3268 -0.3843
  133SAPE   H8Y14400   5.046   3.758   9.435  0.0412 -4.3283 -2.9123
  133SAPE   C3914401   5.110   3.835   9.241 -0.5527  0.5664 -0.4890
  133SAPE   H9X14402   5.184   3.752   9.240 -1.7209 -0.5235 -1.0054
  133SAPE   H9Y14403   5.172   3.926   9.230  1.2656 -0.7674 -2.0924
  133SAPE  C31014404   5.037   3.819   9.102  1.0094  0.1153  0.4604
  133SAPE  H10X14405   5.121   3.799   9.031 -0.7557  0.2121 -1.7622
  133SAPE  H10Y14406   5.009   3.925   9.080  3.2910  0.6749 -0.1113
  133SAPE  C31114407   4.922   3.718   9.077 -0.0021  0.0816 -0.6491
  133SAPE  H11X14408   4.825   3.752   9.119  0.8796  0.5500  1.0950
  133SAPE  H11Y14409   4.955   3.624   9.126  0.7748  1.4808  1.7027
  133SAPE  C31214410   4.890   3.693   8.927 -0.1491 -0.4425 -1.4384
  133SAPE  H12X14411   4.856   3.790   8.886 -0.5583  0.4154  0.8267
  133SAPE  H12Y14412   4.798   3.630   8.918 -0.7000 -0.1792  1.4176
  133SAPE  C31314413   5.005   3.639   8.842  0.0223 -0.1969 -0.1300
  133SAPE  H13X14414   5.054   3.552   8.891  1.8485  1.7275  1.6676
  133SAPE  H13Y14415   5.076   3.724   8.837  0.1251 -0.2753 -0.0097
  133SAPE  C31414416   4.964   3.594   8.707  0.3285  0.1464  0.0438
  133SAPE  H14X14417   4.900   3.677   8.670  0.7773  0.6908  0.4486
  133SAPE  H14Y14418   4.913   3.496   8.702  2.6234 -1.1078 -0.2550
  133SAPE  C31514419   5.085   3.571   8.610 -0.6453  0.2131  0.0020
  133SAPE  H15X14420   5.125   3.468   8.625  1.6639  0.9947 -0.4132
  133SAPE  H15Y14421   5.165   3.646   8.626 -0.6664  0.4043 -0.7703
  133SAPE  C31614422   5.038   3.581   8.468  0.1321  0.3869  0.7602
  133SAPE  H16X14423   4.980   3.674   8.450  1.1182  1.3991  2.4944
  133SAPE  H16Y14424   4.972   3.492   8.456  1.0228 -0.2619  0.5178
  133SAPE  C31714425   5.152   3.564   8.366  0.0581  0.2371 -0.6270
  133SAPE  H17X14426   5.113   3.525   8.270 -1.4672 -1.2405  0.5451
  133SAPE  H17Y14427   5.226   3.487   8.397  2.1124  1.5440 -2.0510
  133SAPE  C31814428   5.226   3.692   8.329  0.0944  0.0418  0.3990
  133SAPE  H18X14429   5.275   3.671   8.232 -0.0858  0.6958  0.1588
  133SAPE  H18Y14430   5.301   3.721   8.406 -1.4826  1.2034  1.5835
  133SAPE  H18Z14431   5.155   3.778   8.323 -0.0762 -0.0680  0.8089
  134SAPE     N14432   1.333   4.863  10.865 -0.1557 -0.2119  0.2591
  134SAPE   HN114433   1.279   4.774  10.872  0.0179 -0.4310 -0.9701
  134SAPE   HN214434   1.353   4.908  10.956  0.4716  0.3240 -0.1387
  134SAPE   HN314435   1.269   4.919  10.806 -0.5271 -0.4112  0.4638
  134SAPE   C1214436   1.456   4.837  10.781 -0.0859  0.1596 -0.1309
  134SAPE  H12A14437   1.522   4.787  10.855  0.1385 -0.9773 -1.0608
  134SAPE  H12B14438   1.502   4.935  10.757  0.4227 -0.3318 -1.2210
  134SAPE   C1114439   1.437   4.742  10.663 -0.2057 -0.2575 -0.2884
  134SAPE  H11A14440   1.540   4.725  10.624 -0.2596 -1.0217 -0.1218
  134SAPE  H11B14441   1.375   4.783  10.580  1.2986  0.1482 -1.2561
  134SAPE     P14442   1.238   4.581  10.706  0.3659  0.0452  0.1064
  134SAPE   O1314443   1.218   4.439  10.725  0.4499  0.1929  0.2940
  134SAPE   O1414444   1.177   4.670  10.807  0.1582 -0.4266 -0.1887
  134SAPE   O1214445   1.388   4.615  10.697 -0.0480 -0.7708 -0.0591
  134SAPE   O1114446   1.183   4.617  10.562  0.6533  0.1215 -0.3198
  134SAPE    C114447   1.247   4.562  10.450  0.3466 -0.4079 -0.2958
  134SAPE    HA14448   1.341   4.617  10.428 -1.0363  2.0915 -0.2672
  134SAPE    HB14449   1.261   4.452  10.458  0.4710 -0.4004 -0.4059
  134SAPE    C214450   1.156   4.580  10.326  0.1820  0.2967  0.0640
  134SAPE    HS14451   1.118   4.684  10.334 -1.4185 -0.3599  1.5716
  134SAPE   O2114452   1.047   4.490  10.338  0.1228 -0.2174  0.5648
  134SAPE   C2114453   0.951   4.506  10.245 -0.2233 -0.3168 -0.1086
  134SAPE   O2214454   0.947   4.607  10.176 -0.1457 -0.3405 -0.4356
  134SAPE   C2214455   0.846   4.390  10.249  0.0936 -0.5241 -0.1151
  134SAPE   H2R14456   0.867   4.328  10.339  0.6609 -0.7920 -0.4328
  134SAPE   H2S14457   0.746   4.436  10.266 -0.6497 -0.6882 -3.4130
  134SAPE    C314458   1.235   4.542  10.190 -0.5264  0.2092  0.0007
  134SAPE    HX14459   1.315   4.617  10.175  1.0705 -1.1505  1.4214
  134SAPE    HY14460   1.169   4.551  10.101 -1.0670 -1.0402  0.2599
  134SAPE   O3114461   1.286   4.415  10.188 -0.4447 -0.0555 -0.1512
  134SAPE   C3114462   1.387   4.392  10.109  0.4817 -0.1316 -0.3118
  134SAPE   O3214463   1.446   4.474  10.040  0.1119 -0.3562  0.5883
  134SAPE   C3214464   1.418   4.238  10.121  0.3782  0.5324 -0.4226
  134SAPE   H2X14465   1.322   4.182  10.127  0.8773 -0.3515 -0.6661
  134SAPE   H2Y14466   1.468   4.231  10.220 -1.8119  0.1147  0.7355
  134SAPE   C2314467   0.844   4.324  10.113 -0.2402 -0.1439  0.0017
  134SAPE   H3R14468   0.827   4.401  10.034 -2.3021 -0.6003 -0.0480
  134SAPE   H3S14469   0.772   4.240  10.108 -0.3710 -0.0221 -0.1886
  134SAPE   C2414470   0.984   4.260  10.073 -0.9347 -0.1984  0.3146
  134SAPE   H4R14471   0.988   4.179  10.149 -3.4089  1.4270  2.3694
  134SAPE   H4S14472   1.069   4.329  10.093  0.8535 -2.7716  2.2377
  134SAPE   C2514473   0.975   4.202   9.933 -0.3444 -0.6164 -0.2328
  134SAPE   H5R14474   0.935   4.102   9.913 -1.5689  0.6267 -5.4720
  134SAPE   C2614475   1.008   4.281   9.825  0.3202  0.5323  0.4244
  134SAPE   H6R14476   1.000   4.248   9.721  0.6612  2.5953 -0.2889
  134SAPE   C2714477   1.054   4.424   9.834  0.5598  0.8281  0.5565
  134SAPE   H7R14478   1.138   4.443   9.764 -0.4246 -1.9415 -1.5219
  134SAPE   H7S14479   1.089   4.464   9.932  0.3572  0.6294  0.7109
  134SAPE   C2814480   0.940   4.520   9.801  0.0808  0.8000  0.3495
  134SAPE   H8R14481   0.927   4.606   9.868 -1.4177  0.1798  0.9087
  134SAPE   C2914482   0.848   4.536   9.701  0.2922  0.5321 -0.5268
  134SAPE   H9R14483   0.779   4.620   9.716 -0.0776 -0.0646  1.4631
  134SAPE  C21014484   0.821   4.462   9.578  0.0032  1.0195 -0.1990
  134SAPE  H10R14485   0.710   4.460   9.570 -0.2217  0.0993  2.3783
  134SAPE  H10S14486   0.858   4.358   9.574 -1.1356  0.5466  1.0733
  134SAPE  C21114487   0.878   4.529   9.456  0.6507 -0.1998  0.1277
  134SAPE  H11R14488   0.845   4.633   9.448 -1.1407 -0.7313  0.1434
  134SAPE  C21214489   0.969   4.476   9.374 -0.5233 -0.4753  0.2383
  134SAPE  H12R14490   1.010   4.540   9.294 -2.2277 -0.1546 -0.4160
  134SAPE  C21314491   1.023   4.336   9.380  0.5010 -0.5640 -0.0294
  134SAPE  H13R14492   0.942   4.268   9.414 -0.9648  1.7054  1.2384
  134SAPE  H13S14493   1.107   4.341   9.453 -1.5293  1.6275  2.3360
  134SAPE  C21414494   1.072   4.292   9.244  0.4218  0.5185  0.0794
  134SAPE  H14R14495   1.173   4.248   9.248  0.1793 -0.0384  0.1360
  134SAPE  C21514496   1.006   4.272   9.124 -0.1888 -0.1975  0.4571
  134SAPE  H15R14497   1.050   4.218   9.039 -2.9315 -4.4545  1.4122
  134SAPE  C21614498   0.864   4.306   9.097  0.3471  0.3496 -0.3460
  134SAPE  H16R14499   0.866   4.369   9.006 -1.0992 -0.1944 -0.7941
  134SAPE  H16S14500   0.818   4.352   9.188 -0.4317 -1.9330  0.4963
  134SAPE  C21714501   0.778   4.178   9.064  0.4219 -0.0867 -0.1364
  134SAPE  H17R14502   0.671   4.207   9.065  1.2256  3.3295 -0.1515
  134SAPE  H17S14503   0.796   4.098   9.139  0.7304  0.2075  0.1058
  134SAPE  C21814504   0.825   4.111   8.929  0.0658 -0.5830  0.0797
  134SAPE  H18R14505   0.932   4.084   8.936  0.5053  1.2145  0.7838
  134SAPE  H18S14506   0.799   4.175   8.842  0.2226  1.7973  1.6912
  134SAPE  C21914507   0.761   3.974   8.900 -0.2363 -0.9692  0.4106
  134SAPE  H19R14508   0.651   3.982   8.892 -0.0585  1.1814 -0.4772
  134SAPE  H19S14509   0.780   3.898   8.980 -0.5084  0.1682  1.5983
  134SAPE  C22014510   0.814   3.925   8.769  0.2636 -0.1844 -0.4134
  134SAPE  H20R14511   0.924   3.921   8.753  0.2875 -0.3597 -0.2173
  134SAPE  H20S14512   0.779   3.995   8.690 -0.7611  0.9988  1.0399
  134SAPE  H20T14513   0.773   3.824   8.745 -0.3264 -0.0021 -0.1719
  134SAPE   C3314514   1.498   4.185  10.002  0.5718 -0.2660  0.5637
  134SAPE   H3X14515   1.517   4.078  10.021 -1.4409 -1.2812 -2.2824
  134SAPE   H3Y14516   1.590   4.246   9.989 -0.5969  1.3280 -0.9353
  134SAPE   C3414517   1.411   4.201   9.875  0.2561 -0.6579 -0.3525
  134SAPE   H4X14518   1.392   4.310   9.868  0.7973 -0.4837  0.6352
  134SAPE   H4Y14519   1.313   4.152   9.889 -0.2828  0.3690 -0.4322
  134SAPE   C3514520   1.476   4.143   9.752  0.5216 -0.0549 -0.3438
  134SAPE   H5X14521   1.512   4.041   9.776 -0.5939 -0.5837 -0.8635
  134SAPE   H5Y14522   1.568   4.200   9.726 -1.2050  3.0446 -0.2461
  134SAPE   C3614523   1.389   4.146   9.623 -0.4957  0.5536 -1.2267
  134SAPE   H6X14524   1.318   4.230   9.642  1.1748  1.3498  2.4691
  134SAPE   H6Y14525   1.322   4.058   9.622  0.9326 -0.6887  1.4338
  134SAPE   C3714526   1.459   4.161   9.495  0.0361 -0.6287 -0.2804
  134SAPE   H7X14527   1.532   4.078   9.482  0.1961 -0.2919 -1.6682
  134SAPE   H7Y14528   1.523   4.251   9.486 -1.3429  0.3759 -0.3118
  134SAPE   C3814529   1.376   4.172   9.367  0.1165  0.5535  0.5610
  134SAPE   H8X14530   1.332   4.274   9.359 -0.1817  0.2965 -1.9667
  134SAPE   H8Y14531   1.293   4.098   9.363  1.2626 -0.7254 -1.6463
  134SAPE   C3914532   1.466   4.152   9.243 -0.1300  0.1244 -0.5644
  134SAPE   H9X14533   1.503   4.048   9.258  4.1538  1.4079 -0.9832
  134SAPE   H9Y14534   1.555   4.218   9.239 -1.8774  2.9170  2.1012
  134SAPE  C31014535   1.405   4.151   9.102 -0.0522  0.1107 -0.2726
  134SAPE  H10X14536   1.372   4.253   9.074 -1.1639 -0.2134 -0.1777
  134SAPE  H10Y14537   1.326   4.074   9.089  0.4974 -0.6111  0.6094
  134SAPE  C31114538   1.514   4.109   9.005 -0.1263 -0.3724 -0.4037
  134SAPE  H11X14539   1.541   4.005   9.035 -1.1255 -0.4035  0.4468
  134SAPE  H11Y14540   1.603   4.176   9.010 -2.3922  2.7636  2.4135
  134SAPE  C31214541   1.465   4.097   8.861  0.5302  0.5531  0.6024
  134SAPE  H12X14542   1.372   4.038   8.864 -0.2718  1.8196  2.9202
  134SAPE  H12Y14543   1.543   4.038   8.808 -0.7100 -0.6443  0.0523
  134SAPE  C31314544   1.442   4.222   8.785  0.9172 -0.5630 -0.2552
  134SAPE  H13X14545   1.399   4.300   8.852  0.8456 -0.7065 -0.1336
  134SAPE  H13Y14546   1.388   4.196   8.692  1.3569 -1.9845 -0.1357
  134SAPE  C31414547   1.582   4.284   8.746 -0.2723 -0.1935 -0.2151
  134SAPE  H14X14548   1.656   4.285   8.830  1.1388  4.2142 -1.2039
  134SAPE  H14Y14549   1.571   4.393   8.728  0.2566  0.4120  2.5534
  134SAPE  C31514550   1.646   4.217   8.632  0.6171  0.1029 -0.3975
  134SAPE  H15X14551   1.571   4.216   8.549  1.5261 -0.2020 -1.2316
  134SAPE  H15Y14552   1.664   4.110   8.655 -2.6051 -0.1769  1.4224
  134SAPE  C31614553   1.761   4.290   8.570  0.8505 -0.4306  0.2873
  134SAPE  H16X14554   1.822   4.335   8.651  1.6734 -1.0508  0.0276
  134SAPE  H16Y14555   1.715   4.372   8.512 -1.1458 -2.7591 -1.6175
  134SAPE  C31714556   1.849   4.200   8.474 -0.0330 -0.2876  0.0814
  134SAPE  H17X14557   1.916   4.268   8.418 -0.4011 -1.1071 -1.4126
  134SAPE  H17Y14558   1.779   4.155   8.400 -1.7096  1.9085  0.2281
  134SAPE  C31814559   1.926   4.085   8.538 -0.2024 -0.1570  0.6412
  134SAPE  H18X14560   1.982   4.027   8.461 -0.4894 -0.0980  0.3860
  134SAPE  H18Y14561   1.860   4.003   8.575 -0.9458  0.5210  0.8413
  134SAPE  H18Z14562   1.997   4.120   8.615 -0.1429  0.4358  0.3182
  135SAPE     N14563   0.052   1.876  10.788  0.1418  0.3681  0.6692
  135SAPE   HN114564   0.083   1.799  10.850  0.2231 -1.4110 -1.4284
  135SAPE   HN214565   0.126   1.948  10.792 -1.7617  2.5464 -0.7842
  135SAPE   HN314566  -0.031   1.907  10.843  1.5545  1.8779  2.0199
  135SAPE   C1214567   0.042   1.821  10.645 -0.2243  0.2750 -0.5630
  135SAPE  H12A14568  -0.029   1.736  10.653 -2.7138  2.2822 -0.1087
  135SAPE  H12B14569   0.141   1.782  10.613 -0.5718 -2.4425  1.3058
  135SAPE   C1114570  -0.008   1.940  10.549  0.5083  0.3479 -0.1680
  135SAPE  H11A14571  -0.090   1.991  10.604  0.1919  0.9087 -1.1543
  135SAPE  H11B14572  -0.049   1.907  10.452 -0.6124  0.4084  0.2682
  135SAPE     P14573   0.187   2.033  10.397  0.1976 -0.2959 -0.0969
  135SAPE   O1314574   0.302   1.941  10.429  0.4779  0.2248  0.8027
  135SAPE   O1414575   0.102   2.005  10.276  0.1586 -0.1980 -0.6388
  135SAPE   O1214576   0.105   2.028  10.525  0.7033 -0.7475 -0.4929
  135SAPE   O1114577   0.228   2.188  10.408 -0.1208 -0.4853  0.0804
  135SAPE    C114578   0.189   2.285  10.307  0.4482  0.3785  0.1320
  135SAPE    HA14579   0.079   2.282  10.292  0.5330 -0.5664 -0.4072
  135SAPE    HB14580   0.200   2.390  10.340 -3.3857  0.6187  1.0850
  135SAPE    C214581   0.264   2.267  10.168 -0.0479 -0.1428 -1.0673
  135SAPE    HS14582   0.219   2.175  10.125 -0.7754 -1.4147  2.1485
  135SAPE   O2114583   0.403   2.249  10.200 -0.6622 -0.5515 -0.8123
  135SAPE   C2114584   0.470   2.188  10.103  0.0121 -0.1124  0.1772
  135SAPE   O2214585   0.416   2.138  10.011 -0.0513 -0.0735  0.8462
  135SAPE   C2214586   0.624   2.211  10.126  0.4162 -0.0025  0.0311
  135SAPE   H2R14587   0.654   2.318  10.132  2.9084 -0.6452 -0.0566
  135SAPE   H2S14588   0.638   2.161  10.224  0.8613 -1.1033 -0.5772
  135SAPE    C314589   0.243   2.394  10.083  0.0440  0.2927 -0.2412
  135SAPE    HX14590   0.302   2.480  10.120 -0.5967  0.6727 -0.0771
  135SAPE    HY14591   0.139   2.430  10.102 -0.4814 -0.2774 -1.8928
  135SAPE   O3114592   0.252   2.370   9.938  0.4068 -0.4983  0.1582
  135SAPE   C3114593   0.356   2.431   9.875  0.9011 -0.1309 -0.4147
  135SAPE   O3214594   0.448   2.490   9.927  0.0073 -0.9112 -0.5752
  135SAPE   C3214595   0.319   2.442   9.730  0.6638 -0.1392 -0.1482
  135SAPE   H2X14596   0.242   2.521   9.719  0.4105 -0.3424  0.1606
  135SAPE   H2Y14597   0.270   2.345   9.708 -0.2818 -0.0891  1.6229
  135SAPE   C2314598   0.715   2.132  10.031  0.1745 -0.0755  0.2039
  135SAPE   H3R14599   0.685   2.027  10.010  0.4391 -0.1510  0.1875
  135SAPE   H3S14600   0.817   2.129  10.076 -0.8108 -0.8916  2.5449
  135SAPE   C2414601   0.732   2.199   9.896 -0.5810  0.4149 -0.2040
  135SAPE   H4R14602   0.772   2.301   9.917  1.0636 -0.5462  1.7558
  135SAPE   H4S14603   0.630   2.202   9.854 -1.6690 -0.1678  2.2019
  135SAPE   C2514604   0.836   2.139   9.799 -0.4288  0.9258  0.2566
  135SAPE   H5R14605   0.917   2.079   9.842  0.5496  2.5316  0.7116
  135SAPE   C2614606   0.840   2.138   9.664  0.0919  0.1890  0.0162
  135SAPE   H6R14607   0.922   2.088   9.610 -0.6940 -0.1100 -0.9146
  135SAPE   C2714608   0.738   2.195   9.568 -0.4578  0.5594  0.2733
  135SAPE   H7R14609   0.677   2.263   9.631  2.2395 -0.6459  4.5984
  135SAPE   H7S14610   0.675   2.115   9.525 -0.0382 -0.8937  2.2317
  135SAPE   C2814611   0.793   2.258   9.443 -0.2346  0.0506  0.3724
  135SAPE   H8R14612   0.805   2.367   9.449  0.3467 -0.0081  0.3602
  135SAPE   C2914613   0.829   2.192   9.330  0.4595  0.2985 -0.3414
  135SAPE   H9R14614   0.875   2.252   9.250 -1.5602  1.8473 -0.4141
  135SAPE  C21014615   0.809   2.042   9.307 -0.0620  0.0634  0.1078
  135SAPE  H10R14616   0.701   2.014   9.299 -0.2672  0.6813  0.6752
  135SAPE  H10S14617   0.860   1.973   9.379 -0.6789 -0.5377 -0.0126
  135SAPE  C21114618   0.882   1.989   9.180  0.3350 -0.2485 -1.1399
  135SAPE  H11R14619   0.972   1.926   9.191  1.2169  1.1526  0.1782
  135SAPE  C21214620   0.839   2.016   9.060 -0.4110 -0.0966  0.5872
  135SAPE  H12R14621   0.893   1.975   8.974 -1.2201 -0.8499  0.4286
  135SAPE  C21314622   0.721   2.110   9.028  0.4866  0.2974 -0.3999
  135SAPE  H13R14623   0.678   2.146   9.124 -1.2378  0.9007 -1.3451
  135SAPE  H13S14624   0.641   2.054   8.975  0.3840  1.1167 -1.1202
  135SAPE  C21414625   0.772   2.232   8.953 -0.0015  0.8588  0.3901
  135SAPE  H14R14626   0.849   2.292   9.004 -0.4431  0.4946  1.5261
  135SAPE  C21514627   0.747   2.269   8.828 -0.2554  0.5231  0.4232
  135SAPE  H15R14628   0.777   2.363   8.780 -1.4586  1.8135  2.0654
  135SAPE  C21614629   0.650   2.194   8.742  0.0173 -0.2160  0.0209
  135SAPE  H16R14630   0.616   2.263   8.662 -0.7800 -0.4552  0.1376
  135SAPE  H16S14631   0.563   2.149   8.794 -1.8161  1.5736 -1.3100
  135SAPE  C21714632   0.711   2.074   8.668 -0.3157 -0.8701  0.0622
  135SAPE  H17R14633   0.641   2.019   8.600 -2.5895  2.3742 -0.4288
  135SAPE  H17S14634   0.738   1.994   8.741  1.1118  0.8779  1.5358
  135SAPE  C21814635   0.838   2.094   8.594 -0.4287 -1.0238  0.0612
  135SAPE  H18R14636   0.915   2.107   8.673 -0.0061 -0.6819 -0.4007
  135SAPE  H18S14637   0.837   2.190   8.538 -1.1857 -0.1399  1.5266
  135SAPE  C21914638   0.859   1.986   8.482 -0.0264 -0.4324 -0.5160
  135SAPE  H19R14639   0.773   1.981   8.413 -1.0697  0.2180  0.6968
  135SAPE  H19S14640   0.852   1.888   8.533 -2.2517  1.2811  2.8795
  135SAPE  C22014641   0.991   2.002   8.411 -0.7680 -0.1498  0.2560
  135SAPE  H20R14642   1.008   1.920   8.339 -1.2362  0.6649 -0.8153
  135SAPE  H20S14643   1.079   2.007   8.478  0.3095 -0.9961 -1.0639
  135SAPE  H20T14644   0.995   2.088   8.340  2.9415 -0.2878  0.0945
  135SAPE   C3314645   0.428   2.459   9.628 -0.1893  0.0625  0.4841
  135SAPE   H3X14646   0.501   2.377   9.639 -0.9892 -0.6098  0.9214
  135SAPE   H3Y14647   0.480   2.555   9.649  1.3541 -0.7511  0.4591
  135SAPE   C3414648   0.372   2.459   9.485  0.3515 -0.2282  0.1581
  135SAPE   H4X14649   0.289   2.533   9.478  1.2421  1.1363  2.7463
  135SAPE   H4Y14650   0.320   2.363   9.465 -1.3518  0.1577  2.3538
  135SAPE   C3514651   0.467   2.489   9.370 -0.0110 -0.2299  0.1649
  135SAPE   H5X14652   0.554   2.420   9.378 -1.2966 -1.8211  0.9297
  135SAPE   H5Y14653   0.514   2.589   9.384  2.9032 -1.5094  0.2753
  135SAPE   C3614654   0.407   2.482   9.227 -0.2211 -0.0474  0.3090
  135SAPE   H6X14655   0.320   2.549   9.242 -0.7507 -0.8936  1.1728
  135SAPE   H6Y14656   0.370   2.380   9.203 -0.4595  0.4897 -1.8059
  135SAPE   C3714657   0.483   2.549   9.114 -0.1214  0.5295  0.0570
  135SAPE   H7X14658   0.594   2.544   9.120  0.1994 -2.8413 -3.9111
  135SAPE   H7Y14659   0.454   2.655   9.104 -0.8390  0.2574 -0.9082
  135SAPE   C3814660   0.464   2.472   8.982  0.1978  0.3797 -0.0220
  135SAPE   H8X14661   0.458   2.363   9.004  1.6767 -0.3703 -2.8289
  135SAPE   H8Y14662   0.541   2.496   8.905  0.0761 -3.5248 -1.6493
  135SAPE   C3914663   0.327   2.505   8.916  0.0006  0.2882  0.9297
  135SAPE   H9X14664   0.327   2.615   8.904  2.7835  0.5330  2.3192
  135SAPE   H9Y14665   0.239   2.475   8.977 -0.5937  1.4939  0.6869
  135SAPE  C31014666   0.304   2.440   8.777  0.1930  0.3265 -0.1077
  135SAPE  H10X14667   0.289   2.330   8.782  1.9170  0.0089 -1.1881
  135SAPE  H10Y14668   0.394   2.466   8.717 -0.2167  1.8158 -0.1138
  135SAPE  C31114669   0.179   2.502   8.712  0.5615 -0.3160  0.3562
  135SAPE  H11X14670   0.185   2.612   8.697  1.1371 -0.3338  0.4499
  135SAPE  H11Y14671   0.092   2.483   8.779  0.3594 -1.4252 -0.1887
  135SAPE  C31214672   0.142   2.448   8.574  0.8999 -0.3993  0.0519
  135SAPE  H12X14673   0.088   2.352   8.583 -0.7632  0.5862  1.2415
  135SAPE  H12Y14674   0.232   2.435   8.510  1.4296 -0.5690  0.8139
  135SAPE  C31314675   0.052   2.543   8.498  0.2177 -0.4471 -0.2285
  135SAPE  H13X14676   0.081   2.650   8.507  1.0976 -0.5451 -1.6790
  135SAPE  H13Y14677  -0.046   2.524   8.547 -0.3322  0.9274 -0.7556
  135SAPE  C31414678   0.039   2.511   8.358 -0.3472  0.4069  0.7067
  135SAPE  H14X14679  -0.010   2.414   8.337  0.6411  0.5950 -3.1730
  135SAPE  H14Y14680   0.140   2.486   8.320 -0.3363 -1.2944  1.7279
  135SAPE  C31514681  -0.022   2.632   8.272 -0.4096 -0.3081  0.1175
  135SAPE  H15X14682  -0.021   2.614   8.162 -1.4391 -1.7785  0.3330
  135SAPE  H15Y14683   0.047   2.718   8.289  0.7158 -1.2737  0.5668
  135SAPE  C31614684  -0.167   2.655   8.302  0.9435 -0.5910  0.0649
  135SAPE  H16X14685  -0.220   2.566   8.343  1.3971 -0.5638  0.7226
  135SAPE  H16Y14686  -0.226   2.670   8.208 -0.4951 -0.6228  0.9333
  135SAPE  C31714687  -0.199   2.773   8.394 -0.0494 -0.6536  0.6131
  135SAPE  H17X14688  -0.127   2.853   8.367 -1.6534  0.8752  0.6852
  135SAPE  H17Y14689  -0.167   2.740   8.495  0.9456 -1.0682  0.1771
  135SAPE  C31814690  -0.338   2.823   8.411 -0.3546  0.2598 -0.4110
  135SAPE  H18X14691  -0.343   2.896   8.495 -4.5886 -1.9326  1.5479
  135SAPE  H18Y14692  -0.410   2.741   8.429  0.8924 -0.9718 -0.8532
  135SAPE  H18Z14693  -0.372   2.879   8.321  1.8921  2.6317  0.0746
  136SAPE     N14694   3.755   2.624  11.239  0.5332 -0.0081 -0.7494
  136SAPE   HN114695   3.685   2.694  11.206 -0.5966 -0.1573  1.1559
  136SAPE   HN214696   3.741   2.623  11.342  2.9172  0.3175 -0.3795
  136SAPE   HN314697   3.850   2.662  11.223  0.5383  0.4834  0.3319
  136SAPE   C1214698   3.731   2.486  11.189 -0.1523 -0.2508  0.2567
  136SAPE  H12A14699   3.638   2.450  11.238 -1.1294 -1.1453 -2.0974
  136SAPE  H12B14700   3.819   2.419  11.205 -0.8200 -0.8629  1.5679
  136SAPE   C1114701   3.699   2.466  11.037  0.1437  0.3126  0.2167
  136SAPE  H11A14702   3.617   2.536  11.012  0.1501  0.4447  0.5522
  136SAPE  H11B14703   3.664   2.363  11.017 -2.5527  1.7094 -3.2834
  136SAPE     P14704   3.837   2.610  10.872 -0.1581  0.0270 -0.4367
  136SAPE   O1314705   3.774   2.728  10.942 -0.1593 -0.1384 -0.2951
  136SAPE   O1414706   3.980   2.628  10.834  0.5895 -0.3858 -0.3243
  136SAPE   O1214707   3.821   2.481  10.961  0.2823 -0.0807  0.2055
  136SAPE   O1114708   3.762   2.572  10.738  0.1639 -0.0165 -0.5816
  136SAPE    C114709   3.625   2.544  10.718 -0.0258 -0.4186  0.2416
  136SAPE    HA14710   3.612   2.434  10.727 -1.3309 -0.2494  0.7638
  136SAPE    HB14711   3.564   2.594  10.797  1.5848  3.2196 -0.6112
  136SAPE    C214712   3.580   2.566  10.577 -0.2109 -0.7331  0.4982
  136SAPE    HS14713   3.654   2.519  10.509 -0.7476 -0.7696 -0.0718
  136SAPE   O2114714   3.568   2.710  10.556 -0.5446  0.2859  0.4004
  136SAPE   C2114715   3.664   2.761  10.480  0.1374  0.1041 -0.4794
  136SAPE   O2214716   3.762   2.704  10.444 -0.7829  0.0744 -0.0066
  136SAPE   C2214717   3.637   2.900  10.446  0.1191 -1.1448 -0.4870
  136SAPE   H2R14718   3.581   2.952  10.527  3.2337 -0.2326  1.2017
  136SAPE   H2S14719   3.737   2.947  10.438 -0.5715  0.8306  1.3249
  136SAPE    C314720   3.446   2.505  10.542 -0.1960 -0.0280 -0.4406
  136SAPE    HX14721   3.366   2.547  10.607  0.1709  0.4393 -0.2817
  136SAPE    HY14722   3.445   2.399  10.576 -1.9376 -0.5065 -1.8261
  136SAPE   O3114723   3.421   2.504  10.407 -0.2467  0.2707 -0.0354
  136SAPE   C3114724   3.346   2.593  10.351  0.4148  0.0565 -0.1580
  136SAPE   O3214725   3.268   2.668  10.401 -0.2060 -0.8099 -0.1898
  136SAPE   C3214726   3.394   2.607  10.210  0.4524  0.9889  0.4628
  136SAPE   H2X14727   3.400   2.505  10.166  3.0503  0.8253  1.0676
  136SAPE   H2Y14728   3.497   2.648  10.209 -0.0033  2.1812 -0.0997
  136SAPE   C2314729   3.559   2.908  10.311 -0.0520 -0.0175 -0.8660
  136SAPE   H3R14730   3.464   2.860  10.343  1.5824 -1.0040  3.1888
  136SAPE   H3S14731   3.609   2.849  10.232  1.5776  0.3406 -0.1531
  136SAPE   C2414732   3.536   3.054  10.271 -0.5047  0.2599  0.3348
  136SAPE   H4R14733   3.497   3.126  10.345  0.2458  0.9934  0.0339
  136SAPE   H4S14734   3.467   3.050  10.184 -0.1826 -0.2275  0.0955
  136SAPE   C2514735   3.662   3.118  10.227  0.0293  1.0073 -0.2086
  136SAPE   H5R14736   3.738   3.140  10.303  0.7366  0.7849 -0.8409
  136SAPE   C2614737   3.696   3.150  10.098  0.0716 -0.1826  0.2694
  136SAPE   H6R14738   3.790   3.203  10.078 -0.4743 -0.0241 -2.2661
  136SAPE   C2714739   3.617   3.113   9.976 -0.1746 -0.3727  0.9588
  136SAPE   H7R14740   3.517   3.076  10.005 -0.3564 -0.2286  0.5227
  136SAPE   H7S14741   3.668   3.028   9.926  0.0200  0.0994  0.3312
  136SAPE   C2814742   3.605   3.233   9.877  0.8887  0.6879 -0.7021
  136SAPE   H8R14743   3.626   3.331   9.922  2.0289 -0.5858  1.8027
  136SAPE   C2914744   3.584   3.222   9.743 -0.3063  0.5260 -0.0558
  136SAPE   H9R14745   3.557   3.310   9.682 -1.0158 -0.2348 -0.8800
  136SAPE  C21014746   3.565   3.087   9.673 -0.4604  0.3351  0.4887
  136SAPE  H10R14747   3.480   3.088   9.602 -1.2563 -1.4067  1.3689
  136SAPE  H10S14748   3.540   3.007   9.746  0.8009 -0.9151 -0.3981
  136SAPE  C21114749   3.691   3.040   9.606 -0.3636 -0.0884 -0.3700
  136SAPE  H11R14750   3.756   2.997   9.684  2.1372 -1.8692 -3.2084
  136SAPE  C21214751   3.717   3.023   9.474  0.1280 -0.4539 -0.0635
  136SAPE  H12R14752   3.816   2.984   9.446  0.8385  0.7619  0.6282
  136SAPE  C21314753   3.619   3.054   9.361  0.2726  0.1812  0.5175
  136SAPE  H13R14754   3.514   3.031   9.391 -0.5541 -1.1558 -2.8803
  136SAPE  H13S14755   3.631   2.987   9.273 -2.5590  0.7658 -0.4496
  136SAPE  C21414756   3.642   3.201   9.312 -0.2340  0.5287  0.4529
  136SAPE  H14R14757   3.708   3.263   9.376  2.4408 -1.2425 -0.4329
  136SAPE  C21514758   3.602   3.253   9.195  0.1277 -0.3751  0.1273
  136SAPE  H15R14759   3.620   3.360   9.174 -1.3488  0.1744  1.4074
  136SAPE  C21614760   3.513   3.198   9.081  0.0885  0.9233  0.8341
  136SAPE  H16R14761   3.436   3.274   9.057  2.8411  4.1862  1.6326
  136SAPE  H16S14762   3.470   3.099   9.108  1.9868 -0.0406  0.4644
  136SAPE  C21714763   3.592   3.172   8.946 -0.5170  0.4114 -0.5769
  136SAPE  H17R14764   3.658   3.086   8.972 -1.2528 -0.2526 -0.8683
  136SAPE  H17S14765   3.642   3.264   8.908  0.7427  0.4826  1.1765
  136SAPE  C21814766   3.506   3.129   8.823  0.1933  0.1303 -0.7816
  136SAPE  H18R14767   3.419   3.194   8.800 -2.3821 -3.0732 -0.7515
  136SAPE  H18S14768   3.475   3.023   8.834 -0.8050  0.3592 -1.2488
  136SAPE  C21914769   3.593   3.120   8.693  1.1359  0.0550  0.1050
  136SAPE  H19R14770   3.682   3.056   8.713  2.1345  1.5376  0.5080
  136SAPE  H19S14771   3.633   3.221   8.669 -0.5307  1.1519  1.7488
  136SAPE  C22014772   3.510   3.069   8.572  1.1153  0.0120  0.1776
  136SAPE  H20R14773   3.578   3.074   8.484 -0.0574  3.7742 -0.6724
  136SAPE  H20S14774   3.416   3.125   8.554  0.9030  0.2866  1.9766
  136SAPE  H20T14775   3.474   2.965   8.593  2.0088 -0.3615 -0.0901
  136SAPE   C3314776   3.306   2.701  10.122 -0.4445  0.4806 -0.0632
  136SAPE   H3X14777   3.306   2.802  10.170 -0.8965  0.3892  0.1422
  136SAPE   H3Y14778   3.199   2.672  10.133 -1.1548  1.8388 -2.5868
  136SAPE   C3414779   3.348   2.706   9.970  0.1375  0.1208  0.1022
  136SAPE   H4X14780   3.325   2.607   9.925  3.1703 -1.2504  1.3509
  136SAPE   H4Y14781   3.455   2.725   9.950  0.5016 -1.3843  0.5114
  136SAPE   C3514782   3.263   2.810   9.890  0.4438 -0.7020 -0.1720
  136SAPE   H5X14783   3.300   2.909   9.925 -0.9988  0.6594 -2.2701
  136SAPE   H5Y14784   3.155   2.797   9.909  0.5318  0.2967  1.1274
  136SAPE   C3614785   3.295   2.804   9.737 -0.2344  0.0810 -0.5964
  136SAPE   H6X14786   3.404   2.808   9.715 -0.2595  0.9407 -0.5775
  136SAPE   H6Y14787   3.253   2.898   9.695  0.0417 -0.3923 -1.9952
  136SAPE   C3714788   3.239   2.684   9.661 -0.2634  0.1387  0.3110
  136SAPE   H7X14789   3.128   2.682   9.671 -0.6684  0.6148 -3.0526
  136SAPE   H7Y14790   3.277   2.591   9.709 -2.1255 -1.2397 -0.7625
  136SAPE   C3814791   3.262   2.679   9.506 -0.4150  0.0425 -0.7673
  136SAPE   H8X14792   3.226   2.578   9.479 -3.2456  0.4192  1.2401
  136SAPE   H8Y14793   3.370   2.690   9.482  0.1511  0.1444  1.6339
  136SAPE   C3914794   3.204   2.785   9.417 -0.1466  0.1451  0.0148
  136SAPE   H9X14795   3.238   2.886   9.448 -0.2566  1.0206 -2.5021
  136SAPE   H9Y14796   3.093   2.780   9.411 -0.3333  2.5998  0.3284
  136SAPE  C31014797   3.260   2.776   9.270  0.1313 -0.7819 -0.1780
  136SAPE  H10X14798   3.369   2.793   9.281 -0.0572  0.5983 -0.3319
  136SAPE  H10Y14799   3.218   2.862   9.215 -0.8739 -1.4144 -0.4367
  136SAPE  C31114800   3.239   2.643   9.197  0.4935 -0.1408 -0.2256
  136SAPE  H11X14801   3.132   2.617   9.187  0.1920  1.2409 -0.8263
  136SAPE  H11Y14802   3.291   2.564   9.255 -0.0441  0.8083  1.5987
  136SAPE  C31214803   3.313   2.639   9.061 -0.1776  0.4144  0.1915
  136SAPE  H12X14804   3.422   2.643   9.084  0.0867 -1.1642 -0.6255
  136SAPE  H12Y14805   3.284   2.729   9.002 -0.8861 -0.9119 -1.5886
  136SAPE  C31314806   3.293   2.504   8.992  0.0952 -0.1602 -0.0093
  136SAPE  H13X14807   3.193   2.464   9.017 -0.0728 -0.8316 -1.6152
  136SAPE  H13Y14808   3.357   2.421   9.029  2.1066 -0.1716 -3.1366
  136SAPE  C31414809   3.316   2.518   8.837 -0.3181 -0.2460 -0.1657
  136SAPE  H14X14810   3.414   2.563   8.809 -0.8527  0.1662 -1.4832
  136SAPE  H14Y14811   3.239   2.582   8.789 -0.8453 -2.0051 -1.7683
  136SAPE  C31514812   3.294   2.392   8.755 -0.3297 -0.3724  0.1113
  136SAPE  H15X14813   3.206   2.336   8.793  1.0462 -1.9151  1.1817
  136SAPE  H15Y14814   3.373   2.320   8.786 -0.5245 -0.8347 -0.4458
  136SAPE  C31614815   3.312   2.410   8.601 -0.1912 -0.0463 -0.2514
  136SAPE  H16X14816   3.331   2.307   8.565  2.6343  0.1140  0.4951
  136SAPE  H16Y14817   3.403   2.472   8.590 -0.2815  0.8703  3.0237
  136SAPE  C31714818   3.188   2.470   8.538 -0.1352 -0.1431 -0.2213
  136SAPE  H17X14819   3.170   2.567   8.589  0.3924 -0.8648  1.4025
  136SAPE  H17Y14820   3.109   2.393   8.549 -0.9101  0.5275 -0.9214
  136SAPE  C31814821   3.204   2.518   8.390  1.0365  0.4988 -0.2781
  136SAPE  H18X14822   3.296   2.571   8.357  1.0340  1.2734  0.9058
  136SAPE  H18Y14823   3.115   2.577   8.360 -0.0112 -1.2460 -0.7871
  136SAPE  H18Z14824   3.202   2.423   8.332  0.7389 -0.9923  2.0193
  137SAPE     N14825   2.150   5.826  10.713  0.1975 -0.3727  0.2041
  137SAPE   HN114826   2.086   5.878  10.776 -1.5321 -2.3057  0.1405
  137SAPE   HN214827   2.128   5.724  10.707  0.6666 -0.3687 -2.6006
  137SAPE   HN314828   2.245   5.834  10.754  0.4743 -0.6116 -0.3777
  137SAPE   C1214829   2.148   5.887  10.582  0.2501 -0.1275 -0.1362
  137SAPE  H12A14830   2.045   5.874  10.542  0.6408  1.3471 -1.6846
  137SAPE  H12B14831   2.223   5.842  10.514 -0.4366 -0.4463 -0.6985
  137SAPE   C1114832   2.179   6.037  10.597 -0.6885  0.7722  0.1067
  137SAPE  H11A14833   2.162   6.080  10.496 -1.9112  1.5214  0.6003
  137SAPE  H11B14834   2.286   6.050  10.623 -0.3110 -1.6146 -0.0597
  137SAPE     P14835   2.067   6.253  10.695 -0.4595  0.0314  0.0544
  137SAPE   O1314836   1.937   6.270  10.764 -0.0511 -0.4797  0.2161
  137SAPE   O1414837   2.187   6.321  10.741  0.2271  0.1609  0.4234
  137SAPE   O1214838   2.106   6.102  10.702  0.1711  0.2173  0.2134
  137SAPE   O1114839   2.051   6.286  10.546  0.4603 -0.1426 -0.0690
  137SAPE    C114840   1.920   6.281  10.479 -0.3857  0.1302 -0.1946
  137SAPE    HA14841   1.833   6.295  10.547  0.3242  1.5493  0.4634
  137SAPE    HB14842   1.908   6.356  10.398  0.2823 -0.1345 -0.5457
  137SAPE    C214843   1.897   6.146  10.403  0.3480  0.4672  0.4600
  137SAPE    HS14844   1.930   6.072  10.479 -0.6553  1.8527  2.3292
  137SAPE   O2114845   1.973   6.143  10.280 -0.4450  0.0718  0.0546
  137SAPE   C2114846   2.006   6.021  10.235 -0.9311  0.0159  0.2847
  137SAPE   O2214847   2.004   5.917  10.297  0.0495  0.0443  0.0854
  137SAPE   C2214848   2.074   6.026  10.098  0.7804 -0.3333 -0.4527
  137SAPE   H2R14849   2.005   6.086  10.035  0.5775 -0.9706 -0.8584
  137SAPE   H2S14850   2.170   6.080  10.085  0.6016 -0.1734 -1.1656
  137SAPE    C314851   1.746   6.119  10.375 -0.3274 -0.0670 -0.9198
  137SAPE    HX14852   1.708   6.115  10.479  0.8864 -0.2873 -0.4657
  137SAPE    HY14853   1.735   6.014  10.341  0.8428 -0.3027 -0.6317
  137SAPE   O3114854   1.663   6.212  10.301 -0.1107  0.5787 -0.1864
  137SAPE   C3114855   1.664   6.184  10.176 -0.0502  0.4686  0.4266
  137SAPE   O3214856   1.748   6.107  10.122  0.1344 -0.1638 -0.0804
  137SAPE   C3214857   1.535   6.234  10.119 -0.3546  0.2310 -0.2568
  137SAPE   H2X14858   1.501   6.331  10.161 -0.2190  1.0177 -1.8742
  137SAPE   H2Y14859   1.456   6.158  10.136  0.0244 -0.0980  0.0388
  137SAPE   C2314860   2.098   5.893  10.022  0.0505 -0.2847 -0.0548
  137SAPE   H3R14861   2.009   5.827  10.016  0.4759 -0.8337 -0.4854
  137SAPE   H3S14862   2.175   5.835  10.079 -1.8872 -2.0924  0.9001
  137SAPE   C2414863   2.149   5.909   9.872  0.0455  0.3427 -0.2921
  137SAPE   H4R14864   2.229   5.987   9.868  0.5201 -0.1583 -0.8139
  137SAPE   H4S14865   2.078   5.961   9.804 -0.9178 -0.3038  0.2064
  137SAPE   C2514866   2.225   5.791   9.811  0.0404  0.2852 -0.8308
  137SAPE   H5R14867   2.254   5.724   9.894 -1.8064  1.0996  0.5375
  137SAPE   C2614868   2.252   5.755   9.683  0.5155 -0.5620 -0.3778
  137SAPE   H6R14869   2.316   5.667   9.664  0.1776 -1.1828  1.2125
  137SAPE   C2714870   2.212   5.828   9.552  0.7760  1.2150 -0.0085
  137SAPE   H7R14871   2.102   5.847   9.552  0.2951 -1.1621  1.3552
  137SAPE   H7S14872   2.219   5.756   9.467 -0.8614  0.4367  0.4638
  137SAPE   C2814873   2.296   5.950   9.521  0.0861 -0.2955  0.3087
  137SAPE   H8R14874   2.395   5.951   9.569  0.2947  0.6449 -0.1272
  137SAPE   C2914875   2.262   6.050   9.436 -0.3072  0.2256 -0.3962
  137SAPE   H9R14876   2.332   6.134   9.439  1.1372 -0.8729 -1.8665
  137SAPE  C21014877   2.132   6.075   9.356 -0.7472 -0.4076 -0.2271
  137SAPE  H10R14878   2.084   5.980   9.323 -1.0674 -0.0930 -0.6819
  137SAPE  H10S14879   2.159   6.122   9.259 -0.0743 -1.0402 -0.3527
  137SAPE  C21114880   2.046   6.160   9.445 -0.7410  0.1996 -0.2808
  137SAPE  H11R14881   2.093   6.221   9.523 -2.8421 -0.6186  1.7147
  137SAPE  C21214882   1.913   6.176   9.433 -0.5959  0.0875  0.1084
  137SAPE  H12R14883   1.854   6.241   9.498 -0.5966  0.3091 -0.1117
  137SAPE  C21314884   1.823   6.103   9.336  0.2473 -0.1434 -0.3375
  137SAPE  H13R14885   1.749   6.041   9.391  0.4769 -0.7554 -0.7070
  137SAPE  H13S14886   1.889   6.047   9.265  1.9967  0.5368  0.6931
  137SAPE  C21414887   1.750   6.210   9.263  0.0378  0.0681  0.7690
  137SAPE  H14R14888   1.818   6.284   9.217  1.4959 -0.9313  1.2274
  137SAPE  C21514889   1.617   6.219   9.244 -0.1615 -0.2236  0.0784
  137SAPE  H15R14890   1.575   6.311   9.200  2.4637  1.0589  0.0626
  137SAPE  C21614891   1.516   6.131   9.296  0.2952  0.3148 -0.3178
  137SAPE  H16R14892   1.548   6.077   9.387  1.4395 -0.4509 -1.1428
  137SAPE  H16S14893   1.487   6.049   9.226  1.2807 -0.2598 -0.0599
  137SAPE  C21714894   1.378   6.205   9.326  0.2994 -0.0887 -0.4853
  137SAPE  H17R14895   1.321   6.121   9.372 -0.4017  1.4824  1.6810
  137SAPE  H17S14896   1.332   6.241   9.232  0.6334 -2.9695 -1.8541
  137SAPE  C21814897   1.379   6.326   9.428  0.3907 -0.8594 -0.0277
  137SAPE  H18R14898   1.457   6.323   9.506 -1.1261  1.7366  1.7223
  137SAPE  H18S14899   1.292   6.316   9.496 -1.0700 -2.3351 -1.9637
  137SAPE  C21914900   1.368   6.468   9.367  0.4505  0.5743 -0.4247
  137SAPE  H19R14901   1.300   6.464   9.279  1.5146 -1.1668 -1.2274
  137SAPE  H19S14902   1.469   6.504   9.339  2.3584 -0.9670  3.7177
  137SAPE  C22014903   1.308   6.568   9.458  0.1952  0.2773 -1.6278
  137SAPE  H20R14904   1.304   6.674   9.425 -0.4464  1.0712  0.7772
  137SAPE  H20S14905   1.362   6.570   9.555 -1.1354  1.0919 -0.8693
  137SAPE  H20T14906   1.204   6.542   9.488  1.0722  1.0549  2.9389
  137SAPE   C3314907   1.535   6.260   9.963 -0.3610  0.7113 -0.5744
  137SAPE   H3X14908   1.433   6.280   9.924 -1.7336  0.4151  2.5178
  137SAPE   H3Y14909   1.574   6.164   9.924  0.9768  1.6267 -1.5943
  137SAPE   C3414910   1.632   6.377   9.932  0.1330 -0.1999 -0.0432
  137SAPE   H4X14911   1.728   6.353   9.983 -1.1180 -0.2768  2.4056
  137SAPE   H4Y14912   1.598   6.473   9.977 -0.0177 -0.3569  0.1796
  137SAPE   C3514913   1.640   6.401   9.786 -0.0536  0.2213 -0.3577
  137SAPE   H5X14914   1.545   6.452   9.758 -0.2976  1.0527  1.7622
  137SAPE   H5Y14915   1.645   6.306   9.730 -0.6953 -0.8975  1.4087
  137SAPE   C3614916   1.754   6.494   9.753 -0.6665 -0.3731 -0.4589
  137SAPE   H6X14917   1.850   6.445   9.780 -0.6641 -0.0433  0.1509
  137SAPE   H6Y14918   1.743   6.582   9.820  1.8696  0.6409 -1.2584
  137SAPE   C3714919   1.750   6.550   9.609 -0.2661  0.5213 -0.3885
  137SAPE   H7X14920   1.645   6.585   9.595 -0.1943  0.1770 -1.9719
  137SAPE   H7Y14921   1.779   6.465   9.543 -3.1755 -0.7309 -0.2042
  137SAPE   C3814922   1.837   6.668   9.602 -0.4410  0.1891  0.2372
  137SAPE   H8X14923   1.943   6.635   9.600  0.2718  2.3374 -0.1014
  137SAPE   H8Y14924   1.824   6.735   9.689  0.1884 -1.2208  1.4531
  137SAPE   C3914925   1.812   6.753   9.471  0.1617  0.4358 -0.1188
  137SAPE   H9X14926   1.884   6.836   9.454  0.3656  0.4172  0.6150
  137SAPE   H9Y14927   1.714   6.802   9.488  0.4832  0.8293  0.6408
  137SAPE  C31014928   1.796   6.671   9.337 -0.1811 -0.4433  0.4725
  137SAPE  H10X14929   1.742   6.733   9.262  1.4815 -0.5104 -0.8627
  137SAPE  H10Y14930   1.728   6.584   9.344 -1.9310  0.6960 -1.3376
  137SAPE  C31114931   1.924   6.611   9.283  0.1993  0.5248 -0.4340
  137SAPE  H11X14932   1.972   6.544   9.358 -0.5544 -0.0101 -0.4225
  137SAPE  H11Y14933   1.995   6.693   9.262 -0.5275  0.5686 -2.9624
  137SAPE  C31214934   1.909   6.548   9.144  0.4230 -0.5042 -0.4311
  137SAPE  H12X14935   1.875   6.628   9.076  0.2535  0.9847  1.3315
  137SAPE  H12Y14936   1.819   6.483   9.157 -1.2657  1.7545 -0.2271
  137SAPE  C31314937   2.038   6.483   9.099  0.0079 -0.4546 -0.2730
  137SAPE  H13X14938   2.066   6.405   9.173 -0.2400 -0.8756 -0.6146
  137SAPE  H13Y14939   2.116   6.562   9.108  0.1322 -0.3086 -2.2074
  137SAPE  C31414940   2.033   6.431   8.957  0.7108  0.2800 -0.0645
  137SAPE  H14X14941   2.021   6.517   8.888  0.2756  1.5190  1.5161
  137SAPE  H14Y14942   1.944   6.370   8.932  1.5252 -0.6462 -0.8403
  137SAPE  C31514943   2.161   6.355   8.917  0.4851  0.4725 -0.1511
  137SAPE  H15X14944   2.241   6.432   8.922 -0.4260  1.5163 -1.1337
  137SAPE  H15Y14945   2.176   6.327   8.811  0.9010  0.3840 -0.0683
  137SAPE  C31614946   2.189   6.226   9.007  0.3250 -0.2583 -0.6054
  137SAPE  H16X14947   2.122   6.140   8.985 -1.0899  0.6190  0.1433
  137SAPE  H16Y14948   2.176   6.254   9.114 -1.1977  1.9634 -1.3144
  137SAPE  C31714949   2.338   6.178   9.000  0.4254 -0.4609  0.1987
  137SAPE  H17X14950   2.400   6.260   9.040  0.6148 -1.0444  1.1306
  137SAPE  H17Y14951   2.358   6.177   8.891 -4.4253  0.1784 -0.9233
  137SAPE  C31814952   2.366   6.050   9.074 -0.4756  0.4329  0.5408
  137SAPE  H18X14953   2.298   5.971   9.039  1.1150 -0.3588 -0.9037
  137SAPE  H18Y14954   2.360   6.060   9.185 -1.7428 -0.3345  0.5502
  137SAPE  H18Z14955   2.462   6.010   9.036 -0.4433 -0.7319  1.8093
  138SAPE     N14956   5.322   6.779  10.863 -0.5180  0.1108  0.1768
  138SAPE   HN114957   5.350   6.796  10.764  0.9922 -1.0556  0.3723
  138SAPE   HN214958   5.412   6.773  10.915  0.0371  2.0590 -0.4540
  138SAPE   HN314959   5.283   6.683  10.856 -0.6646  0.1939 -0.1278
  138SAPE   C1214960   5.231   6.883  10.908  0.1775  0.6732  0.4492
  138SAPE  H12A14961   5.290   6.976  10.920 -0.5637  1.3019 -0.6250
  138SAPE  H12B14962   5.188   6.851  11.006 -0.4392 -1.6737 -0.5221
  138SAPE   C1114963   5.118   6.896  10.807 -0.0107 -0.0791  0.5180
  138SAPE  H11A14964   5.048   6.977  10.838 -0.0896  0.5708 -1.2408
  138SAPE  H11B14965   5.055   6.805  10.814 -0.7793  0.5288  1.8313
  138SAPE     P14966   5.083   6.867  10.548 -0.0171 -0.3253 -0.4888
  138SAPE   O1314967   5.092   6.720  10.561 -0.3385  0.8286  0.1913
  138SAPE   O1414968   4.955   6.927  10.538  0.3039  0.0912  0.5607
  138SAPE   O1214969   5.161   6.927  10.669  0.2784 -0.5353  0.5295
  138SAPE   O1114970   5.183   6.907  10.430 -0.2724  0.1099  0.9871
  138SAPE    C114971   5.170   7.051  10.394  0.4276  0.2227  0.5811
  138SAPE    HA14972   5.152   7.109  10.487 -1.1277  0.3932  0.1975
  138SAPE    HB14973   5.270   7.085  10.360 -0.6922  1.3049 -1.9455
  138SAPE    C214974   5.055   7.080  10.294 -0.1201  0.3815  0.6452
  138SAPE    HS14975   4.959   7.034  10.322  0.4497 -0.8204  0.6946
  138SAPE   O2114976   5.102   7.028  10.166 -0.4334 -0.3227 -0.6337
  138SAPE   C2114977   5.063   6.908  10.131  0.2544 -0.4442  0.0453
  138SAPE   O2214978   4.997   6.833  10.195  0.4430 -0.4262  0.2546
  138SAPE   C2214979   5.136   6.866  10.001 -0.1964  0.6884 -0.3962
  138SAPE   H2R14980   5.243   6.888  10.020 -0.8863  2.9894  1.3778
  138SAPE   H2S14981   5.108   6.762   9.976  0.1125  1.0439 -2.3899
  138SAPE    C314982   5.048   7.234  10.273  0.1167  0.0656  1.0255
  138SAPE    HX14983   5.143   7.276  10.233 -0.2623 -0.0738 -0.0593
  138SAPE    HY14984   5.034   7.274  10.376 -0.8942 -0.2177  1.0116
  138SAPE   O3114985   4.931   7.268  10.189  0.2479 -0.4095 -0.4283
  138SAPE   C3114986   4.928   7.401  10.170 -0.5377  0.5385 -0.4752
  138SAPE   O3214987   4.987   7.486  10.235  0.5856 -0.4799  0.0884
  138SAPE   C3214988   4.846   7.432  10.046 -0.3169  0.5345  0.6686
  138SAPE   H2X14989   4.766   7.501  10.078  1.2385  3.0719 -0.6132
  138SAPE   H2Y14990   4.800   7.336  10.013  3.7708 -1.7028  0.6961
  138SAPE   C2314991   5.087   6.938   9.876  0.4916 -0.1529 -0.1311
  138SAPE   H3R14992   5.130   6.887   9.787 -0.2850  0.2939 -0.7766
  138SAPE   H3S14993   5.124   7.043   9.872  0.3525  0.0586  2.3534
  138SAPE   C2414994   4.928   6.935   9.866 -0.5118 -0.3996 -0.3615
  138SAPE   H4R14995   4.912   6.981   9.766 -1.4575 -2.0269 -1.0128
  138SAPE   H4S14996   4.890   7.002   9.946  0.0136  0.5988 -0.9350
  138SAPE   C2514997   4.853   6.804   9.884  0.2247  0.2122 -0.4086
  138SAPE   H5R14998   4.864   6.750   9.978  2.2399 -1.1044 -1.3351
  138SAPE   C2614999   4.770   6.751   9.797  0.1560 -0.2146 -0.6549
  138SAPE   H6R15000   4.710   6.662   9.823 -2.6924  2.0375  1.0704
  138SAPE   C2715001   4.720   6.801   9.665  0.1637  0.3082 -1.0226
  138SAPE   H7R15002   4.717   6.912   9.672  0.6859  0.2520  0.4532
  138SAPE   H7S15003   4.611   6.780   9.670  0.5019 -1.5727 -0.8505
  138SAPE   C2815004   4.801   6.757   9.539  0.3600  0.3218  0.2946
  138SAPE   H8R15005   4.895   6.710   9.571  0.1323  0.4123  1.1343
  138SAPE   C2915006   4.770   6.752   9.413 -0.6458  0.2771  0.4758
  138SAPE   H9R15007   4.854   6.732   9.344  0.0747  4.4663 -0.1067
  138SAPE  C21015008   4.643   6.799   9.350 -0.5102  0.0854  0.2065
  138SAPE  H10R15009   4.664   6.872   9.269 -0.3519  0.6652  0.7616
  138SAPE  H10S15010   4.591   6.855   9.431  2.2913 -0.1777  2.3412
  138SAPE  C21115011   4.572   6.673   9.293  0.0690 -0.7192  0.3009
  138SAPE  H11R15012   4.618   6.574   9.305  0.0873 -0.4804  2.6596
  138SAPE  C21215013   4.454   6.672   9.236 -0.3357 -0.3806 -0.0953
  138SAPE  H12R15014   4.422   6.584   9.178 -0.1979 -0.1301 -0.5516
  138SAPE  C21315015   4.363   6.790   9.225 -0.9585  0.0702  0.5658
  138SAPE  H13R15016   4.428   6.877   9.203 -0.1527 -0.5836  0.3326
  138SAPE  H13S15017   4.327   6.813   9.328 -0.5080  0.9724  0.5354
  138SAPE  C21415018   4.248   6.786   9.126  0.8794 -0.7658 -1.1898
  138SAPE  H14R15019   4.155   6.834   9.163  0.6009 -0.8286 -1.7994
  138SAPE  C21515020   4.241   6.748   8.995 -0.6210  0.1714 -0.1193
  138SAPE  H15R15021   4.146   6.749   8.940 -0.0278 -0.0048 -1.1650
  138SAPE  C21615022   4.350   6.691   8.910  0.4180  0.3363 -0.3859
  138SAPE  H16R15023   4.435   6.648   8.967 -2.0318 -1.6182  2.0184
  138SAPE  H16S15024   4.398   6.770   8.848 -0.3863  0.0742 -1.3695
  138SAPE  C21715025   4.321   6.569   8.829 -0.4089  0.5659  0.4313
  138SAPE  H17R15026   4.264   6.492   8.886  1.2408 -0.6055  0.5706
  138SAPE  H17S15027   4.420   6.524   8.808 -0.0442  1.2050  0.7719
  138SAPE  C21815028   4.242   6.593   8.705  0.1176 -0.3142 -0.3658
  138SAPE  H18R15029   4.141   6.632   8.730  0.9405  2.4206 -0.9309
  138SAPE  H18S15030   4.225   6.497   8.651 -0.1226  0.0597 -0.9678
  138SAPE  C21915031   4.314   6.688   8.599  1.0006 -0.5854 -0.5697
  138SAPE  H19R15032   4.418   6.650   8.589  0.1544 -2.4965 -2.9298
  138SAPE  H19S15033   4.305   6.780   8.660 -1.8716 -1.1198 -0.0455
  138SAPE  C22015034   4.236   6.702   8.465  0.3083 -0.7034  0.6189
  138SAPE  H20R15035   4.301   6.753   8.392 -1.5070 -2.6000 -2.5570
  138SAPE  H20S15036   4.150   6.771   8.481 -1.8906 -3.3488  1.0906
  138SAPE  H20T15037   4.206   6.602   8.426  2.1040  0.0397 -3.0543
  138SAPE   C3315038   4.927   7.503   9.938  0.4078  0.4306  0.5226
  138SAPE   H3X15039   5.004   7.434   9.899 -0.2748  0.0545 -0.1813
  138SAPE   H3Y15040   4.983   7.584   9.989 -0.9207  1.8180 -0.1374
  138SAPE   C3415041   4.840   7.576   9.831  1.0735 -0.1689 -0.1936
  138SAPE   H4X15042   4.783   7.661   9.874  0.9470 -1.5712  2.6045
  138SAPE   H4Y15043   4.775   7.506   9.775  0.0333  0.1486  0.5981
  138SAPE   C3515044   4.925   7.636   9.718 -0.7333 -0.6203  0.1854
  138SAPE   H5X15045   4.987   7.551   9.682 -2.3611 -1.4550 -0.7300
  138SAPE   H5Y15046   4.997   7.708   9.763  0.9820 -1.9379 -0.3247
  138SAPE   C3615047   4.856   7.683   9.594 -0.0939 -0.5041  0.8271
  138SAPE   H6X15048   4.805   7.778   9.620 -0.4919 -0.8973  1.4946
  138SAPE   H6Y15049   4.780   7.605   9.572 -0.9741  0.8317 -1.2115
  138SAPE   C3715050   4.950   7.701   9.476 -0.8510  0.2299  0.3363
  138SAPE   H7X15051   5.000   7.604   9.455 -1.8713 -1.0244  3.0865
  138SAPE   H7Y15052   5.028   7.773   9.507  0.2282 -0.4033 -0.8388
  138SAPE   C3815053   4.881   7.749   9.346 -1.6728  0.2564  0.6391
  138SAPE   H8X15054   4.966   7.787   9.287 -3.4513 -0.3778 -2.5639
  138SAPE   H8Y15055   4.807   7.827   9.372 -1.3220  0.9031 -0.2770
  138SAPE   C3915056   4.814   7.641   9.268  0.4157  0.1384  0.6722
  138SAPE   H9X15057   4.749   7.568   9.322  1.3481 -1.8231 -0.7503
  138SAPE   H9Y15058   4.893   7.572   9.231 -0.4943  0.2393 -1.6230
  138SAPE  C31015059   4.736   7.699   9.147 -0.2414 -0.3288 -0.1722
  138SAPE  H10X15060   4.650   7.759   9.184  0.2104 -0.7920  1.7456
  138SAPE  H10Y15061   4.688   7.621   9.083  0.5382 -1.7370  0.9183
  138SAPE  C31115062   4.823   7.793   9.050  0.2771  0.2244 -0.2112
  138SAPE  H11X15063   4.923   7.749   9.029  0.7021  0.7988  0.5435
  138SAPE  H11Y15064   4.844   7.886   9.107  2.6187  0.2772 -1.0597
  138SAPE  C31215065   4.762   7.839   8.914  0.9937 -0.4191  0.2844
  138SAPE  H12X15066   4.809   7.932   8.876  0.7122 -0.4713 -0.2089
  138SAPE  H12Y15067   4.656   7.856   8.944  1.1256  2.0487 -0.4850
  138SAPE  C31315068   4.771   7.737   8.803  0.0902  0.4995  0.3930
  138SAPE  H13X15069   4.726   7.639   8.832 -0.3700  1.1978  2.2050
  138SAPE  H13Y15070   4.882   7.727   8.797 -0.0164 -0.4167 -0.2933
  138SAPE  C31415071   4.721   7.794   8.670 -1.1196  0.6724 -0.4455
  138SAPE  H14X15072   4.784   7.881   8.642  0.3869  0.3531  1.6917
  138SAPE  H14Y15073   4.622   7.841   8.688 -1.2967 -0.1167  0.7736
  138SAPE  C31515074   4.720   7.692   8.551  0.1830  0.9306  0.0554
  138SAPE  H15X15075   4.826   7.657   8.549 -0.3961 -0.9585  0.3846
  138SAPE  H15Y15076   4.699   7.744   8.455  0.8295 -1.5295 -1.5242
  138SAPE  C31615077   4.613   7.578   8.571 -0.0072 -0.3977  0.0493
  138SAPE  H16X15078   4.585   7.563   8.677  0.3300 -1.3515  0.0110
  138SAPE  H16Y15079   4.652   7.482   8.531 -0.1095 -1.1972  1.8024
  138SAPE  C31715080   4.489   7.624   8.489  0.8728  0.7362  0.7277
  138SAPE  H17X15081   4.531   7.623   8.386  1.5898 -3.0845  0.9014
  138SAPE  H17Y15082   4.463   7.730   8.511  0.6437  0.7403  0.4454
  138SAPE  C31815083   4.365   7.531   8.516  0.4509  0.1307 -0.0593
  138SAPE  H18X15084   4.383   7.424   8.492 -0.8270 -1.1109  3.8208
  138SAPE  H18Y15085   4.280   7.573   8.459  0.6924 -1.1495 -1.4468
  138SAPE  H18Z15086   4.342   7.516   8.624 -1.0776 -3.2841 -0.7069
  139SAPE     N15087   4.264   5.432  10.350 -0.3080 -0.1621 -0.3482
  139SAPE   HN115088   4.367   5.437  10.338  0.2625  0.8184  3.5355
  139SAPE   HN215089   4.210   5.449  10.263  0.7616 -0.2656 -1.0444
  139SAPE   HN315090   4.257   5.513  10.415 -0.3411  0.4465 -1.0971
  139SAPE   C1215091   4.217   5.297  10.403 -0.5432 -0.6643 -0.0326
  139SAPE  H12A15092   4.258   5.269  10.502  0.9992 -2.4783 -1.1019
  139SAPE  H12B15093   4.261   5.228  10.328 -2.4086  0.1117 -1.9586
  139SAPE   C1115094   4.065   5.279  10.382  0.1985  0.4354  0.0629
  139SAPE  H11A15095   4.031   5.175  10.400  1.0063  0.4613  1.9709
  139SAPE  H11B15096   4.038   5.299  10.276  0.5768 -0.7717 -0.2706
  139SAPE     P15097   3.842   5.338  10.510  0.1195 -0.0491  0.0040
  139SAPE   O1315098   3.856   5.241  10.620 -0.4436 -0.2967 -0.0164
  139SAPE   O1415099   3.777   5.467  10.549  0.4140 -0.0559  0.6692
  139SAPE   O1215100   3.991   5.363  10.463 -0.3147 -0.0060 -0.5069
  139SAPE   O1115101   3.786   5.276  10.371 -0.5922  0.9858  0.3845
  139SAPE    C115102   3.707   5.341  10.278 -0.5640 -0.7419 -0.1337
  139SAPE    HA15103   3.616   5.288  10.241  0.1356 -0.7718 -1.8483
  139SAPE    HB15104   3.659   5.425  10.333 -2.4982 -2.6514  1.3024
  139SAPE    C215105   3.780   5.400  10.148 -0.7032  0.6427  0.1905
  139SAPE    HS15106   3.705   5.423  10.070  0.1477  3.2632  0.0267
  139SAPE   O2115107   3.873   5.304  10.093 -0.0430 -0.4434  0.4961
  139SAPE   C2115108   3.820   5.197  10.036  0.4463  0.1233 -0.4454
  139SAPE   O2215109   3.706   5.185  10.002  0.0510 -0.4639 -0.2521
  139SAPE   C2215110   3.933   5.096  10.016  0.1992 -0.2110  0.1041
  139SAPE   H2R15111   3.980   5.075  10.115 -3.1073 -2.4754  1.3726
  139SAPE   H2S15112   3.881   5.002   9.989  2.5647 -1.4301 -0.4830
  139SAPE    C315113   3.858   5.534  10.182 -1.1784  0.2216  0.5642
  139SAPE    HX15114   3.926   5.509  10.266  1.6377 -0.3530 -1.7364
  139SAPE    HY15115   3.783   5.608  10.216 -2.9181 -0.4381 -1.5466
  139SAPE   O3115116   3.921   5.596  10.060  0.2320  0.6015  0.0179
  139SAPE   C3115117   4.054   5.579  10.053  0.4382 -0.3228  0.1954
  139SAPE   O3215118   4.120   5.513  10.135 -0.2734 -0.4233 -0.1505
  139SAPE   C3215119   4.108   5.647   9.924  0.3519  0.7546 -0.0404
  139SAPE   H2X15120   4.060   5.746   9.913 -0.9425  0.3606  1.7271
  139SAPE   H2Y15121   4.085   5.589   9.832 -2.0133  0.4365  0.6917
  139SAPE   C2315122   4.040   5.123   9.907 -0.1538  0.1722 -0.1384
  139SAPE   H3R15123   4.137   5.072   9.920 -0.3840 -0.5826 -1.2088
  139SAPE   H3S15124   4.073   5.228   9.918  3.0008 -0.7075 -0.3906
  139SAPE   C2415125   4.003   5.104   9.758 -0.0711  0.5987 -0.0045
  139SAPE   H4R15126   3.908   5.157   9.735  0.5693  1.6116 -0.3492
  139SAPE   H4S15127   3.986   4.995   9.743 -1.1742  0.8322 -0.5672
  139SAPE   C2515128   4.122   5.147   9.670  0.2782  0.5013  0.1220
  139SAPE   H5R15129   4.219   5.102   9.695 -0.8721 -2.5656 -0.5042
  139SAPE   C2615130   4.122   5.254   9.586  0.9874 -0.0443 -0.0697
  139SAPE   H6R15131   4.209   5.262   9.520  0.2663 -0.6527 -1.1233
  139SAPE   C2715132   4.004   5.340   9.545 -0.2329  0.6798 -0.0681
  139SAPE   H7R15133   3.933   5.274   9.489  0.0334  0.2693  0.0775
  139SAPE   H7S15134   4.025   5.419   9.469 -0.7671  0.4129 -0.5066
  139SAPE   C2815135   3.939   5.416   9.654 -0.1198  1.1473 -0.2466
  139SAPE   H8R15136   4.005   5.438   9.740  0.1257 -2.4583  0.6317
  139SAPE   C2915137   3.816   5.459   9.664 -0.6041 -0.4569  0.2831
  139SAPE   H9R15138   3.779   5.518   9.749 -2.0824 -0.2864 -0.4411
  139SAPE  C21015139   3.708   5.442   9.561 -0.1882 -0.2384 -0.5179
  139SAPE  H10R15140   3.745   5.476   9.462  0.0776  0.9195 -0.0375
  139SAPE  H10S15141   3.630   5.516   9.589  2.0618  2.4553 -0.9344
  139SAPE  C21115142   3.653   5.300   9.545  0.1326 -0.1443 -0.1430
  139SAPE  H11R15143   3.663   5.237   9.635 -1.4543 -1.6745 -0.9684
  139SAPE  C21215144   3.584   5.251   9.435 -0.6354 -0.1183 -0.2818
  139SAPE  H12R15145   3.553   5.147   9.448  0.7575 -0.6350 -0.9001
  139SAPE  C21315146   3.572   5.323   9.299  0.5996 -0.4057  0.0082
  139SAPE  H13R15147   3.659   5.307   9.233 -0.3592  3.1738 -2.4184
  139SAPE  H13S15148   3.557   5.431   9.322  1.2172 -1.1801  5.2771
  139SAPE  C21415149   3.444   5.267   9.228  0.4352 -0.0661  0.3079
  139SAPE  H14R15150   3.367   5.236   9.301 -0.0516  1.5497  0.5360
  139SAPE  C21515151   3.421   5.239   9.101  0.3833 -0.7856 -0.5408
  139SAPE  H15R15152   3.322   5.193   9.084 -0.3239  0.5457 -0.2036
  139SAPE  C21615153   3.513   5.262   8.981  0.0057  0.0823  0.2314
  139SAPE  H16R15154   3.602   5.324   9.005 -1.5273  2.0758  1.1553
  139SAPE  H16S15155   3.463   5.320   8.900  0.4764  0.3480  0.1264
  139SAPE  C21715156   3.548   5.131   8.902  0.2196 -0.0157  0.3993
  139SAPE  H17R15157   3.607   5.057   8.960 -1.8053 -2.1296 -0.1195
  139SAPE  H17S15158   3.629   5.158   8.831 -0.0365 -1.6284 -0.5570
  139SAPE  C21815159   3.441   5.071   8.811 -0.5679  0.1729  0.1357
  139SAPE  H18R15160   3.386   5.161   8.779  2.2110  2.4194  1.2212
  139SAPE  H18S15161   3.370   5.003   8.862  0.5114 -1.3342 -0.2634
  139SAPE  C21915162   3.489   5.012   8.680 -0.2938  0.1675 -0.0425
  139SAPE  H19R15163   3.597   5.036   8.667  0.7644 -3.6649  0.3811
  139SAPE  H19S15164   3.429   5.048   8.594 -0.4973 -0.6200 -0.2400
  139SAPE  C22015165   3.488   4.856   8.669 -0.1838  0.1069 -0.6563
  139SAPE  H20R15166   3.537   4.824   8.574 -0.6133  0.1405 -0.8897
  139SAPE  H20S15167   3.380   4.833   8.660  0.3372 -2.9978 -0.2414
  139SAPE  H20T15168   3.540   4.811   8.757  1.7316  3.5070  0.1305
  139SAPE   C3315169   4.260   5.656   9.934 -0.6686 -0.0822  0.3231
  139SAPE   H3X15170   4.308   5.556   9.932  0.6860  0.5428  0.5629
  139SAPE   H3Y15171   4.301   5.694  10.030  1.7740  0.6672 -0.9138
  139SAPE   C3415172   4.321   5.737   9.818 -0.2719  0.3695  0.2026
  139SAPE   H4X15173   4.427   5.767   9.835  0.7227 -2.1999 -1.0402
  139SAPE   H4Y15174   4.260   5.829   9.807  0.0869  0.5874  0.0013
  139SAPE   C3515175   4.317   5.650   9.691 -0.4112  0.3985  0.4761
  139SAPE   H5X15176   4.209   5.633   9.671 -0.1535  0.1836 -0.8357
  139SAPE   H5Y15177   4.376   5.558   9.709 -0.7562 -0.0871 -0.7782
  139SAPE   C3615178   4.374   5.730   9.574  0.1036 -0.3388  0.0913
  139SAPE   H6X15179   4.484   5.713   9.573  0.4975  1.9022 -0.4564
  139SAPE   H6Y15180   4.346   5.836   9.589 -1.6102 -0.8244  0.5987
  139SAPE   C3715181   4.299   5.668   9.451  0.6389  0.2294 -0.9958
  139SAPE   H7X15182   4.189   5.684   9.460  0.5085 -0.6331 -1.0007
  139SAPE   H7Y15183   4.315   5.558   9.453 -0.5976 -0.0568  3.2764
  139SAPE   C3815184   4.334   5.755   9.327  0.4656  0.2679 -0.4368
  139SAPE   H8X15185   4.335   5.861   9.360 -0.9256  0.5594 -1.2536
  139SAPE   H8Y15186   4.264   5.747   9.241 -1.6787 -0.7486  1.3079
  139SAPE   C3915187   4.477   5.740   9.275  0.1056  0.0683  0.4500
  139SAPE   H9X15188   4.479   5.642   9.223 -0.8606  0.1898  0.1663
  139SAPE   H9Y15189   4.555   5.744   9.355 -1.4219 -0.9650  2.0530
  139SAPE  C31015190   4.521   5.833   9.160 -0.2484  0.0689  0.0628
  139SAPE  H10X15191   4.532   5.937   9.197 -1.8385  0.9626 -1.7464
  139SAPE  H10Y15192   4.442   5.825   9.081  0.6970 -2.8420 -0.6924
  139SAPE  C31115193   4.649   5.791   9.092  0.1553 -0.3362 -0.2352
  139SAPE  H11X15194   4.649   5.683   9.066 -0.9548 -0.6121  0.8123
  139SAPE  H11Y15195   4.730   5.817   9.164 -0.6626 -1.3591  1.0979
  139SAPE  C31215196   4.689   5.855   8.955 -0.3620 -0.1578  0.1662
  139SAPE  H12X15197   4.681   5.963   8.977  1.8253 -0.0293  0.5353
  139SAPE  H12Y15198   4.618   5.815   8.879  0.1357 -1.6174  0.4203
  139SAPE  C31315199   4.837   5.820   8.911  0.0488  0.6448 -0.8291
  139SAPE  H13X15200   4.867   5.731   8.971  3.9397  0.3219 -2.9735
  139SAPE  H13Y15201   4.910   5.898   8.942  1.2051 -0.4953 -0.5980
  139SAPE  C31415202   4.856   5.795   8.760  0.6984  0.0252 -0.5314
  139SAPE  H14X15203   4.812   5.881   8.705  0.6983  0.7766  0.6200
  139SAPE  H14Y15204   4.807   5.699   8.733 -2.8414  0.6148  2.9006
  139SAPE  C31515205   5.000   5.772   8.719  1.1146 -0.9422 -0.2118
  139SAPE  H15X15206   5.033   5.666   8.729 -0.8608 -1.5010  0.9860
  139SAPE  H15Y15207   5.063   5.830   8.789  0.1126 -0.7596  0.5592
  139SAPE  C31615208   5.015   5.835   8.576 -0.5268  1.0982 -0.7868
  139SAPE  H16X15209   5.111   5.796   8.536  0.5087  0.1735  2.2561
  139SAPE  H16Y15210   4.928   5.809   8.512 -0.5039  2.5028 -1.4287
  139SAPE  C31715211   5.026   5.986   8.578  0.1965  0.2780  0.3711
  139SAPE  H17X15212   5.124   6.014   8.622  0.8889 -0.4905 -0.6462
  139SAPE  H17Y15213   4.937   6.026   8.631  0.1077 -0.2268  0.6115
  139SAPE  C31815214   5.008   6.042   8.434 -0.3882  0.3286 -0.8035
  139SAPE  H18X15215   5.020   6.152   8.434  0.0511  0.2898 -0.0265
  139SAPE  H18Y15216   4.907   6.012   8.399 -0.7532 -1.9049  1.8174
  139SAPE  H18Z15217   5.080   6.005   8.358  1.9784  1.8708  0.5447
  140SAPE     N15218   0.218   0.734  10.785  0.3291  0.1322  0.5830
  140SAPE   HN115219   0.189   0.748  10.884 -0.3857 -1.0093  0.5497
  140SAPE   HN215220   0.204   0.824  10.735  1.4605  0.7539  1.3205
  140SAPE   HN315221   0.155   0.660  10.749  0.3338 -0.9671  2.6779
  140SAPE   C1215222   0.354   0.678  10.788  1.1675  0.0544  0.1158
  140SAPE  H12A15223   0.396   0.678  10.685  1.3997 -1.2683  0.1828
  140SAPE  H12B15224   0.345   0.572  10.821 -1.2258 -0.1905 -1.1030
  140SAPE   C1115225   0.441   0.746  10.890 -0.0783 -0.0099  0.0989
  140SAPE  H11A15226   0.545   0.709  10.902  0.2521  1.1127  0.8502
  140SAPE  H11B15227   0.404   0.719  10.991  0.9779  0.4939  0.6364
  140SAPE     P15228   0.586   0.965  10.873  0.0725 -0.2798 -0.4182
  140SAPE   O1315229   0.560   1.107  10.879  0.0940 -0.0852  0.1716
  140SAPE   O1415230   0.676   0.904  10.977  0.1531  0.1531 -0.3564
  140SAPE   O1215231   0.437   0.888  10.881 -0.3451  0.1105 -0.1552
  140SAPE   O1115232   0.638   0.933  10.726 -0.0947  0.0499 -0.5161
  140SAPE    C115233   0.555   0.936  10.611  0.0989  0.3840  0.4771
  140SAPE    HA15234   0.527   0.832  10.582  2.1898 -0.3511  0.9444
  140SAPE    HB15235   0.455   0.981  10.630 -0.6939 -1.5402  1.1959
  140SAPE    C215236   0.627   1.005  10.491  0.4281  0.0943 -0.0823
  140SAPE    HS15237   0.574   0.978  10.397  2.0010  0.5021 -1.1316
  140SAPE   O2115238   0.773   0.973  10.492  0.5258 -0.4885 -0.1743
  140SAPE   C2115239   0.830   0.969  10.371  0.7150 -0.1758 -0.3878
  140SAPE   O2215240   0.764   0.975  10.268  0.1520 -0.9187  1.1185
  140SAPE   C2215241   0.977   0.956  10.379  0.4126  0.0371 -0.0074
  140SAPE   H2R15242   1.022   1.010  10.293 -0.4591  2.0859  0.7418
  140SAPE   H2S15243   1.013   1.003  10.473  2.8697 -0.9514 -0.3839
  140SAPE    C315244   0.613   1.156  10.507  0.7521 -0.0465  0.1094
  140SAPE    HX15245   0.681   1.192  10.587 -0.0309 -0.8819  1.1810
  140SAPE    HY15246   0.509   1.175  10.541 -0.1905 -0.5764 -2.2544
  140SAPE   O3115247   0.645   1.233  10.392  0.2082 -0.4749  0.7824
  140SAPE   C3115248   0.556   1.233  10.295 -0.2807  0.1189  0.3496
  140SAPE   O3215249   0.441   1.186  10.292  0.2354 -0.7006 -0.3707
  140SAPE   C3215250   0.625   1.295  10.176  0.0376  0.6127 -0.6331
  140SAPE   H2X15251   0.713   1.231  10.150  0.0595  0.3657  0.0192
  140SAPE   H2Y15252   0.676   1.389  10.206 -0.6542  0.5536  0.8346
  140SAPE   C2315253   1.040   0.809  10.376 -0.0538 -0.8762  0.3914
  140SAPE   H3R15254   0.983   0.737  10.439 -1.1268 -1.5056 -1.2239
  140SAPE   H3S15255   1.145   0.799  10.412 -0.0968 -1.2603  0.4233
  140SAPE   C2415256   1.033   0.756  10.228 -0.7729  0.6526 -0.8039
  140SAPE   H4R15257   1.077   0.833  10.162  1.5616 -3.4769 -4.6615
  140SAPE   H4S15258   0.926   0.745  10.201 -1.2903 -2.4396  1.8427
  140SAPE   C2515259   1.094   0.622  10.218  0.3747  0.0864  0.0586
  140SAPE   H5R15260   1.114   0.568  10.312  0.1011 -1.3342 -0.6683
  140SAPE   C2615261   1.121   0.567  10.098  0.1863 -0.0868  0.1239
  140SAPE   H6R15262   1.168   0.470  10.076 -1.8353 -0.5852 -2.5514
  140SAPE   C2715263   1.081   0.639   9.972 -0.3725 -0.2707 -0.4641
  140SAPE   H7R15264   1.120   0.743   9.967 -0.7186 -0.1111  0.1432
  140SAPE   H7S15265   0.972   0.659   9.976 -0.1062  1.5838 -1.5089
  140SAPE   C2815266   1.128   0.568   9.846 -0.0679 -0.7715  0.0058
  140SAPE   H8R15267   1.104   0.461   9.846  0.8103 -0.9750 -0.0999
  140SAPE   C2915268   1.180   0.621   9.735  0.2157 -0.4078 -0.2050
  140SAPE   H9R15269   1.205   0.554   9.652  0.8180 -0.9865  0.4240
  140SAPE  C21015270   1.204   0.768   9.705  0.0264 -0.4510  0.6671
  140SAPE  H10R15271   1.220   0.822   9.801 -0.9511  2.0599 -0.4793
  140SAPE  H10S15272   1.115   0.819   9.661 -1.6918 -2.4817  1.6499
  140SAPE  C21115273   1.336   0.798   9.628  0.0339 -0.4601 -0.2769
  140SAPE  H11R15274   1.427   0.803   9.690 -0.3593  0.8428  0.2408
  140SAPE  C21215275   1.347   0.802   9.496  0.0747 -0.3715 -0.2309
  140SAPE  H12R15276   1.446   0.816   9.451  0.0994 -0.3656 -0.1751
  140SAPE  C21315277   1.237   0.786   9.393  0.1256  0.4355  0.5661
  140SAPE  H13R15278   1.139   0.785   9.446  0.1719 -1.1842  0.6645
  140SAPE  H13S15279   1.232   0.689   9.339 -1.0313 -0.5935  2.4057
  140SAPE  C21415280   1.233   0.908   9.299 -0.3095  0.1018  0.3238
  140SAPE  H14R15281   1.221   1.006   9.348  0.2579  0.4290 -0.1752
  140SAPE  C21515282   1.222   0.903   9.160 -0.4106  0.3653 -0.3634
  140SAPE  H15R15283   1.228   0.997   9.104  1.1588  2.2325  2.6831
  140SAPE  C21615284   1.214   0.778   9.075 -0.7773  0.1587 -0.0178
  140SAPE  H16R15285   1.246   0.691   9.136 -0.8076  0.7641  0.8812
  140SAPE  H16S15286   1.290   0.792   8.996 -2.0826  3.1846 -0.8785
  140SAPE  C21715287   1.088   0.751   8.998 -0.0535  0.0751  0.5772
  140SAPE  H17R15288   1.122   0.687   8.914  3.0518  1.2399  0.8057
  140SAPE  H17S15289   1.062   0.847   8.948  1.8900 -0.4762 -1.6782
  140SAPE  C21815290   0.948   0.706   9.071  0.2395  0.1195 -0.3659
  140SAPE  H18R15291   0.885   0.689   8.981 -0.5002  0.4162  0.0862
  140SAPE  H18S15292   0.919   0.797   9.127  0.7120  0.0717 -0.0380
  140SAPE  C21915293   0.942   0.591   9.170 -0.4087 -0.5178 -0.1850
  140SAPE  H19R15294   0.993   0.628   9.261  1.4703  0.7854 -1.6854
  140SAPE  H19S15295   1.009   0.510   9.134  0.6999  0.3116 -0.0248
  140SAPE  C22015296   0.801   0.558   9.201  0.2184  0.0142 -0.3764
  140SAPE  H20R15297   0.738   0.563   9.110  0.2149  0.6418 -0.3400
  140SAPE  H20S15298   0.762   0.616   9.287 -1.2136  1.6459 -2.0564
  140SAPE  H20T15299   0.794   0.452   9.233  0.2095  0.3793  0.8971
  140SAPE   C3315300   0.533   1.318  10.053  0.1376  0.1553  0.5076
  140SAPE   H3X15301   0.475   1.412  10.061  0.1776  0.4058 -1.5871
  140SAPE   H3Y15302   0.459   1.234  10.049  0.6515 -0.2600 -1.7108
  140SAPE   C3415303   0.605   1.306   9.921 -0.5276  1.3423 -0.5509
  140SAPE   H4X15304   0.677   1.221   9.923 -0.2271  1.6039  0.0070
  140SAPE   H4Y15305   0.660   1.401   9.907  1.6607 -0.1469 -2.6531
  140SAPE   C3515306   0.519   1.292   9.793  0.9946  0.2085 -0.2727
  140SAPE   H5X15307   0.445   1.374   9.802  1.2001  0.6459 -2.2400
  140SAPE   H5Y15308   0.476   1.190   9.805 -2.2263  1.3763 -0.9971
  140SAPE   C3615309   0.609   1.309   9.669  0.4431 -0.0609 -0.6436
  140SAPE   H6X15310   0.684   1.227   9.661  0.5422  0.1163 -1.7742
  140SAPE   H6Y15311   0.667   1.402   9.685 -0.9662  0.8363 -0.6235
  140SAPE   C3715312   0.541   1.313   9.536 -0.3578 -0.2088 -0.3081
  140SAPE   H7X15313   0.479   1.405   9.526 -0.1614 -0.3456 -4.2473
  140SAPE   H7Y15314   0.484   1.219   9.516 -2.6351  1.1710 -0.6353
  140SAPE   C3815315   0.638   1.310   9.416 -0.7915  0.9744 -0.0261
  140SAPE   H8X15316   0.697   1.216   9.422 -2.6123 -0.2250 -0.1120
  140SAPE   H8Y15317   0.699   1.403   9.424  1.3876 -0.2958 -1.0908
  140SAPE   C3915318   0.554   1.321   9.281  0.3225 -0.4848  0.0889
  140SAPE   H9X15319   0.504   1.420   9.283  1.4905  0.1388 -0.4847
  140SAPE   H9Y15320   0.471   1.248   9.296  0.1751 -0.3253  0.0510
  140SAPE  C31015321   0.630   1.295   9.152 -0.0632  0.2646 -0.6167
  140SAPE  H10X15322   0.695   1.205   9.168 -0.1790  0.3089  0.1501
  140SAPE  H10Y15323   0.700   1.381   9.144  3.0319 -1.7938  1.6196
  140SAPE  C31115324   0.543   1.281   9.029 -0.2972 -0.2065 -0.5812
  140SAPE  H11X15325   0.484   1.375   9.023  0.8552  0.7657  1.8637
  140SAPE  H11Y15326   0.471   1.200   9.055  1.3380 -1.3830  0.5377
  140SAPE  C31215327   0.611   1.252   8.899 -0.2781  0.0107 -0.1169
  140SAPE  H12X15328   0.662   1.345   8.865 -1.7452  0.2045 -1.8854
  140SAPE  H12Y15329   0.530   1.223   8.829  1.0521 -1.1243 -1.2797
  140SAPE  C31315330   0.711   1.136   8.908  0.7317 -0.4032 -0.0079
  140SAPE  H13X15331   0.664   1.063   8.977  1.4084  0.5124  1.4697
  140SAPE  H13Y15332   0.804   1.160   8.964  1.6925 -1.7176 -1.0032
  140SAPE  C31415333   0.748   1.067   8.776 -0.9594  0.1331  0.0970
  140SAPE  H14X15334   0.796   1.132   8.701  1.0477 -0.8042  0.5019
  140SAPE  H14Y15335   0.657   1.027   8.725 -0.5291 -1.6338  0.6621
  140SAPE  C31515336   0.851   0.960   8.795 -0.1690  0.8706 -0.4930
  140SAPE  H15X15337   0.802   0.862   8.812  1.3077  0.3415  0.9287
  140SAPE  H15Y15338   0.907   0.984   8.887 -0.4584 -0.8959  0.1962
  140SAPE  C31615339   0.956   0.946   8.672  0.9007  0.9433 -0.3827
  140SAPE  H16X15340   1.031   0.866   8.688 -1.0236 -0.5581  1.6660
  140SAPE  H16Y15341   1.011   1.042   8.665  1.6323  0.7659  2.1032
  140SAPE  C31715342   0.883   0.925   8.537 -0.5073 -0.6667  0.1225
  140SAPE  H17X15343   0.807   1.003   8.516 -2.0089 -1.4523  2.3104
  140SAPE  H17Y15344   0.828   0.829   8.546 -0.7450 -0.3272  3.5479
  140SAPE  C31815345   0.994   0.906   8.421  0.9767 -0.5765  0.2452
  140SAPE  H18X15346   1.058   0.996   8.407 -0.4515  0.6024  0.8892
  140SAPE  H18Y15347   0.947   0.891   8.321 -1.7367 -0.7990  1.4677
  140SAPE  H18Z15348   1.067   0.826   8.445  2.5852  0.5759 -0.6188
  141SAPE     N15349   1.243   3.268  10.747 -0.7921 -0.3472  0.1614
  141SAPE   HN115350   1.188   3.189  10.787 -1.3867  0.4094  0.8550
  141SAPE   HN215351   1.271   3.333  10.823 -1.6019  0.2985 -0.0753
  141SAPE   HN315352   1.181   3.318  10.681  2.5906  1.3822 -2.0071
  141SAPE   C1215353   1.352   3.189  10.685 -0.3663  0.9443 -0.0199
  141SAPE  H12A15354   1.417   3.141  10.762  0.5691  0.9583 -0.7778
  141SAPE  H12B15355   1.412   3.267  10.634 -1.8846  2.2222  0.0835
  141SAPE   C1115356   1.287   3.081  10.597  0.1330 -0.0082  0.2369
  141SAPE  H11A15357   1.359   3.004  10.563 -0.5495 -1.0083  1.0064
  141SAPE  H11B15358   1.249   3.133  10.507  2.0715  1.3517  0.1334
  141SAPE     P15359   1.144   2.868  10.658 -0.2270  0.2013  0.1014
  141SAPE   O1315360   1.227   2.793  10.756  0.1136  0.1756  0.1677
  141SAPE   O1415361   0.997   2.860  10.679 -0.5212  0.0105  0.1733
  141SAPE   O1215362   1.174   3.023  10.663  0.1482  0.3259  0.4531
  141SAPE   O1115363   1.178   2.829  10.509 -0.2927 -0.3867 -0.1749
  141SAPE    C115364   1.126   2.884  10.390 -0.3983  0.1025 -0.3115
  141SAPE    HA15365   1.052   2.962  10.416  1.5064  2.6259 -2.0299
  141SAPE    HB15366   1.219   2.928  10.350  0.5779  0.0117  1.7182
  141SAPE    C215367   1.073   2.775  10.294 -0.1331  0.2153 -0.2700
  141SAPE    HS15368   0.994   2.726  10.354  0.7582  0.2465  0.9704
  141SAPE   O2115369   1.181   2.681  10.254  0.0254 -0.5296 -0.0371
  141SAPE   C2115370   1.136   2.566  10.213 -0.3204 -0.1481 -0.0225
  141SAPE   O2215371   1.020   2.530  10.207 -0.9466 -0.4545 -0.4426
  141SAPE   C2215372   1.255   2.472  10.185 -0.7479 -0.5740 -0.0512
  141SAPE   H2R15373   1.347   2.533  10.195 -0.6013 -0.9249  0.8611
  141SAPE   H2S15374   1.260   2.392  10.262  0.7507  1.1748  1.7952
  141SAPE    C315375   1.019   2.854  10.173  0.0938 -0.2861 -0.3732
  141SAPE    HX15376   1.104   2.920  10.147 -0.6467  0.2342 -1.5499
  141SAPE    HY15377   0.940   2.925  10.204 -0.4890 -0.4537 -1.4097
  141SAPE   O3115378   0.969   2.773  10.066 -0.1652  0.1826  0.1673
  141SAPE   C3115379   0.855   2.710  10.081  0.3239 -0.5736 -0.0715
  141SAPE   O3215380   0.786   2.711  10.180  0.0191 -0.1278  0.3060
  141SAPE   C3215381   0.816   2.654   9.943 -0.1474  0.2957  0.2275
  141SAPE   H2X15382   0.712   2.615   9.946 -0.0803  0.0731 -0.2118
  141SAPE   H2Y15383   0.893   2.579   9.914  1.5854  2.4484 -1.0403
  141SAPE   C2315384   1.247   2.422  10.042 -0.6836 -0.1166  0.3824
  141SAPE   H3R15385   1.199   2.502   9.981  3.5298  0.9676 -1.8750
  141SAPE   H3S15386   1.191   2.326  10.049  0.8613 -1.2664 -1.9680
  141SAPE   C2415387   1.385   2.382   9.980 -0.4665 -0.6419 -0.0997
  141SAPE   H4R15388   1.397   2.298   9.908 -1.0058 -0.7122 -0.1079
  141SAPE   H4S15389   1.439   2.346  10.070  0.5069  2.0781  0.5194
  141SAPE   C2515390   1.452   2.505   9.924  0.0071 -0.3179  0.3722
  141SAPE   H5R15391   1.489   2.578   9.998 -0.4572  0.3040 -0.0012
  141SAPE   C2615392   1.465   2.537   9.792 -0.3386 -0.2020  0.6479
  141SAPE   H6R15393   1.521   2.626   9.762 -0.3327 -0.5695 -0.4698
  141SAPE   C2715394   1.418   2.447   9.674  0.9959  0.0890 -0.1370
  141SAPE   H7R15395   1.464   2.349   9.697  1.1695  0.0977 -0.4445
  141SAPE   H7S15396   1.472   2.484   9.584  2.8811  0.2861  1.0204
  141SAPE   C2815397   1.270   2.427   9.663  0.1282 -0.3537  0.5297
  141SAPE   H8R15398   1.224   2.417   9.763  1.4109  0.3158  1.2047
  141SAPE   C2915399   1.195   2.413   9.547 -0.2124 -0.9707 -0.2659
  141SAPE   H9R15400   1.087   2.404   9.565  0.0127 -0.3468  1.6304
  141SAPE  C21015401   1.247   2.416   9.411  0.2634 -0.1789 -0.2923
  141SAPE  H10R15402   1.356   2.435   9.412  0.5352 -1.6030 -0.3462
  141SAPE  H10S15403   1.199   2.500   9.357 -1.3907  0.5932  2.2005
  141SAPE  C21115404   1.223   2.279   9.353  0.1475 -0.4020  0.6763
  141SAPE  H11R15405   1.192   2.194   9.416 -0.4410 -0.0758  0.8294
  141SAPE  C21215406   1.216   2.253   9.223  0.7148  0.9422  1.0804
  141SAPE  H12R15407   1.186   2.153   9.190 -0.3663  1.1657  1.3437
  141SAPE  C21315408   1.223   2.347   9.104 -0.3297 -0.0566  0.5416
  141SAPE  H13R15409   1.259   2.448   9.133  1.4905  0.3487 -2.6062
  141SAPE  H13S15410   1.122   2.353   9.060  0.5148 -1.5589 -1.8016
  141SAPE  C21415411   1.330   2.283   9.011  0.4774 -0.2874  0.4828
  141SAPE  H14R15412   1.431   2.273   9.055 -0.2947 -0.8157  2.2011
  141SAPE  C21515413   1.312   2.270   8.879 -0.6997 -1.0642 -1.1020
  141SAPE  H15R15414   1.388   2.224   8.814 -0.7944 -2.2154 -0.4307
  141SAPE  C21615415   1.187   2.311   8.797 -0.4863 -0.2907  0.0336
  141SAPE  H16R15416   1.099   2.274   8.853  0.3402 -0.4359  1.2739
  141SAPE  H16S15417   1.182   2.255   8.701 -1.2554 -0.2552  0.0495
  141SAPE  C21715418   1.201   2.463   8.771  1.0143  0.2830  0.8223
  141SAPE  H17R15419   1.259   2.507   8.854  0.9687 -2.1934  2.2691
  141SAPE  H17S15420   1.101   2.512   8.760  1.9064  1.9992  0.0399
  141SAPE  C21815421   1.277   2.491   8.637 -0.2013  0.2674 -0.1392
  141SAPE  H18R15422   1.263   2.411   8.560  1.5191 -1.7056  1.4619
  141SAPE  H18S15423   1.385   2.485   8.663 -0.2187  0.5276 -0.0100
  141SAPE  C21915424   1.249   2.631   8.588  0.2739  0.0523 -0.2469
  141SAPE  H19R15425   1.265   2.705   8.669 -3.3193 -0.0954  0.7745
  141SAPE  H19S15426   1.144   2.641   8.552  0.1922 -1.0532 -0.3391
  141SAPE  C22015427   1.332   2.671   8.462  0.3025 -0.3373 -0.1213
  141SAPE  H20R15428   1.322   2.593   8.384  0.8807 -0.5979  0.0572
  141SAPE  H20S15429   1.437   2.683   8.495  0.5999 -0.7261 -0.9163
  141SAPE  H20T15430   1.292   2.768   8.427  0.5548  0.1221  0.8269
  141SAPE   C3315431   0.824   2.763   9.827 -0.0618 -0.1037 -0.2458
  141SAPE   H3X15432   0.926   2.806   9.818  0.2774 -0.7577  0.3078
  141SAPE   H3Y15433   0.757   2.844   9.861 -0.8487 -0.5231 -0.7786
  141SAPE   C3415434   0.773   2.712   9.692  0.2319  0.2612 -0.3131
  141SAPE   H4X15435   0.739   2.803   9.638 -0.0693 -0.0452 -0.6581
  141SAPE   H4Y15436   0.686   2.642   9.689  1.0526 -0.7656 -1.1656
  141SAPE   C3515437   0.879   2.635   9.609  0.0001 -0.3472 -0.0920
  141SAPE   H5X15438   0.842   2.533   9.585 -1.0708  0.0385 -0.1119
  141SAPE   H5Y15439   0.961   2.629   9.684  0.4337 -0.7581 -0.5870
  141SAPE   C3615440   0.914   2.718   9.480  0.5494  0.4324 -0.0680
  141SAPE   H6X15441   1.007   2.670   9.441  0.3555 -0.7152  0.8383
  141SAPE   H6Y15442   0.934   2.820   9.519 -0.7865  0.6862 -0.0314
  141SAPE   C3715443   0.799   2.708   9.378 -0.2430  0.0355 -0.0136
  141SAPE   H7X15444   0.706   2.748   9.425 -0.9130 -0.6082 -0.7675
  141SAPE   H7Y15445   0.777   2.600   9.365  1.4085 -0.1588 -1.4347
  141SAPE   C3815446   0.833   2.751   9.230  0.0941  0.0474 -1.0377
  141SAPE   H8X15447   0.862   2.858   9.219  1.7386 -0.2293  0.1970
  141SAPE   H8Y15448   0.734   2.736   9.183 -0.0681 -2.3607 -0.0735
  141SAPE   C3915449   0.943   2.660   9.165 -0.3956  0.1435  0.4759
  141SAPE   H9X15450   0.903   2.558   9.146  0.3376 -0.2904  1.2066
  141SAPE   H9Y15451   1.035   2.655   9.227  0.3009 -1.6593 -0.6326
  141SAPE  C31015452   0.999   2.700   9.022  0.3190  0.8121 -0.7562
  141SAPE  H10X15453   1.105   2.669   9.006  0.4131 -0.9578  2.3958
  141SAPE  H10Y15454   1.000   2.810   9.033 -0.9493  0.6260  2.0901
  141SAPE  C31115455   0.908   2.666   8.906  0.3886 -0.0944  0.2565
  141SAPE  H11X15456   0.801   2.664   8.936 -0.8898  0.8656 -3.6626
  141SAPE  H11Y15457   0.928   2.564   8.866  0.1816 -0.1001  0.1630
  141SAPE  C31215458   0.908   2.772   8.792 -0.1431  0.2533 -0.4260
  141SAPE  H12X15459   1.017   2.774   8.773  0.0708  2.1158  0.7627
  141SAPE  H12Y15460   0.878   2.870   8.835 -0.1281  0.0159  0.1393
  141SAPE  C31315461   0.826   2.733   8.666 -0.2224  0.2640 -0.1271
  141SAPE  H13X15462   0.874   2.647   8.615 -2.0898 -1.3126  0.6285
  141SAPE  H13Y15463   0.827   2.814   8.590  1.3247  0.6588  0.2963
  141SAPE  C31415464   0.682   2.700   8.704  0.0317  0.9042  0.1725
  141SAPE  H14X15465   0.642   2.799   8.736  0.6271  2.1689 -2.6626
  141SAPE  H14Y15466   0.679   2.627   8.788 -1.2651  2.5185  1.6244
  141SAPE  C31515467   0.602   2.653   8.583 -0.2453 -0.1948  0.1075
  141SAPE  H15X15468   0.504   2.619   8.623  2.1646 -4.3906  3.2603
  141SAPE  H15Y15469   0.653   2.557   8.559  0.4810 -0.3925  2.2342
  141SAPE  C31615470   0.586   2.761   8.465 -0.2718 -0.1335 -0.1640
  141SAPE  H16X15471   0.688   2.788   8.432 -0.7731  0.1676 -1.5487
  141SAPE  H16Y15472   0.550   2.853   8.517 -1.8923 -0.5746 -0.4435
  141SAPE  C31715473   0.502   2.724   8.346  0.0080  0.7656 -0.5481
  141SAPE  H17X15474   0.538   2.630   8.300 -0.2754  1.8841 -3.2747
  141SAPE  H17Y15475   0.512   2.807   8.272 -3.5313  0.7104 -1.2645
  141SAPE  C31815476   0.357   2.710   8.379  0.5348  0.3121 -0.8460
  141SAPE  H18X15477   0.321   2.613   8.420  0.8367  0.9259  0.9649
  141SAPE  H18Y15478   0.293   2.722   8.289 -0.7863  0.4651  0.0832
  141SAPE  H18Z15479   0.332   2.790   8.451 -2.1854 -1.5809  0.4898
  142SAPE     N15480   1.785   1.361  11.018  0.7206  0.5089  0.2198
  142SAPE   HN115481   1.769   1.463  11.007 -1.8216  0.0024 -1.9271
  142SAPE   HN215482   1.775   1.321  10.922 -0.0514  2.3631 -0.5224
  142SAPE   HN315483   1.723   1.319  11.090  0.6351  0.7315  0.2766
  142SAPE   C1215484   1.927   1.333  11.049 -0.2502 -0.1505  0.4583
  142SAPE  H12A15485   1.938   1.223  11.040  1.1586 -0.1740  1.9701
  142SAPE  H12B15486   1.944   1.363  11.154  0.8081 -1.7083  0.7653
  142SAPE   C1115487   2.035   1.404  10.962 -0.0941  0.1190 -0.0370
  142SAPE  H11A15488   2.013   1.513  10.961  0.1419  0.1732  0.4715
  142SAPE  H11B15489   2.014   1.382  10.855 -0.4076 -2.6827  0.5201
  142SAPE     P15490   2.267   1.467  11.063 -0.1278  0.1915  0.2107
  142SAPE   O1315491   2.229   1.506  11.196  0.0058  0.1806  0.8299
  142SAPE   O1415492   2.407   1.419  11.072  0.4003 -0.0082 -0.2767
  142SAPE   O1215493   2.172   1.359  11.001 -0.6047 -0.2098 -0.0787
  142SAPE   O1115494   2.257   1.594  10.967  0.2069  0.6044  1.1225
  142SAPE    C115495   2.351   1.632  10.866 -0.6291  0.3989  0.1169
  142SAPE    HA15496   2.368   1.741  10.877 -0.6246  0.3935  0.1667
  142SAPE    HB15497   2.446   1.576  10.872 -0.8584 -0.4755 -2.9508
  142SAPE    C215498   2.295   1.592  10.720  0.3604 -0.7512 -0.2519
  142SAPE    HS15499   2.359   1.649  10.650  0.4531  1.7423  1.7040
  142SAPE   O2115500   2.155   1.624  10.711 -0.5631 -0.3459  0.9304
  142SAPE   C2115501   2.125   1.750  10.674  0.3791  0.1321 -0.0865
  142SAPE   O2215502   2.206   1.836  10.637  0.3674  0.4249 -0.4456
  142SAPE   C2215503   1.979   1.766  10.669 -0.3965  0.7441  0.2408
  142SAPE   H2R15504   1.926   1.681  10.717 -2.2585  0.4582 -2.1463
  142SAPE   H2S15505   1.967   1.851  10.738  0.5290 -1.0739  2.7874
  142SAPE    C315506   2.314   1.443  10.684 -0.4837  0.1169 -0.3545
  142SAPE    HX15507   2.288   1.367  10.760  0.8034 -0.6246 -0.6289
  142SAPE    HY15508   2.425   1.432  10.688 -0.5018  0.1079  0.2700
  142SAPE   O3115509   2.259   1.402  10.555 -0.4491 -0.0134 -0.0058
  142SAPE   C3115510   2.133   1.375  10.539 -0.5335 -0.3960 -0.0511
  142SAPE   O3215511   2.052   1.371  10.627  0.3376 -0.2046 -0.0250
  142SAPE   C3215512   2.097   1.365  10.388  0.0332  0.0754  0.4644
  142SAPE   H2X15513   2.183   1.310  10.343  1.6057  1.9682  1.0221
  142SAPE   H2Y15514   2.095   1.469  10.350 -0.2043 -0.0021  0.2639
  142SAPE   C2315515   1.912   1.791  10.537  0.4131 -0.1777  0.5513
  142SAPE   H3R15516   1.958   1.881  10.491  1.9887 -0.6477  1.1047
  142SAPE   H3S15517   1.803   1.804  10.547  0.7011  2.0830  1.1775
  142SAPE   C2415518   1.923   1.669  10.442 -0.0559 -0.3134 -0.7629
  142SAPE   H4R15519   1.881   1.582  10.496 -2.3505  1.3361  0.2536
  142SAPE   H4S15520   2.032   1.656  10.425  0.2188 -0.1781  0.7702
  142SAPE   C2515521   1.857   1.686  10.306 -0.3728  0.0936  0.3929
  142SAPE   H5R15522   1.755   1.645  10.307 -0.8214  1.1852  1.4403
  142SAPE   C2615523   1.903   1.726  10.184  0.3955 -0.1165 -0.0132
  142SAPE   H6R15524   1.830   1.744  10.104 -0.6225  0.1643  0.9359
  142SAPE   C2715525   2.046   1.784  10.163  0.1726  0.3226 -0.9640
  142SAPE   H7R15526   2.097   1.805  10.259  0.5453  1.5952 -1.4279
  142SAPE   H7S15527   2.034   1.871  10.095 -0.2870  1.2447  0.2407
  142SAPE   C2815528   2.118   1.666  10.094  0.6023 -0.7965 -0.1090
  142SAPE   H8R15529   2.139   1.572  10.146 -2.0331 -1.2575  0.2404
  142SAPE   C2915530   2.167   1.678   9.967  0.5593  0.2839  0.4241
  142SAPE   H9R15531   2.225   1.595   9.924 -1.3229 -2.7415  3.2654
  142SAPE  C21015532   2.159   1.799   9.872  0.2281  0.2710  0.0982
  142SAPE  H10R15533   2.209   1.884   9.922 -0.3066  1.4062 -1.2351
  142SAPE  H10S15534   2.053   1.819   9.846  0.2968 -1.6194 -2.0010
  142SAPE  C21115535   2.234   1.782   9.744  0.2443  0.0359 -0.5394
  142SAPE  H11R15536   2.339   1.749   9.749  0.1838 -0.3896 -1.7425
  142SAPE  C21215537   2.176   1.796   9.630  1.2708  0.0789  0.2978
  142SAPE  H12R15538   2.238   1.769   9.543 -0.3477 -2.6455 -0.1315
  142SAPE  C21315539   2.027   1.834   9.588 -1.1586 -0.0009  0.6530
  142SAPE  H13R15540   2.036   1.870   9.483  1.4304 -1.7037  0.1961
  142SAPE  H13S15541   1.989   1.920   9.647  0.9077 -1.1970  3.9586
  142SAPE  C21415542   1.933   1.721   9.593  0.4909 -0.3840 -0.4452
  142SAPE  H14R15543   1.934   1.671   9.691  1.6497  1.5181  0.5782
  142SAPE  C21515544   1.848   1.682   9.498  0.3428  0.1087  0.7985
  142SAPE  H15R15545   1.804   1.581   9.494  0.9197 -0.2228  2.2361
  142SAPE  C21615546   1.828   1.746   9.360 -0.3273  0.0547 -0.4373
  142SAPE  H16R15547   1.904   1.699   9.294  0.1020 -0.7707  0.6212
  142SAPE  H16S15548   1.859   1.853   9.367  2.3250 -0.4737 -2.4235
  142SAPE  C21715549   1.694   1.731   9.297 -0.0522  0.6425 -0.2997
  142SAPE  H17R15550   1.697   1.765   9.191  1.2240  0.0589 -0.4591
  142SAPE  H17S15551   1.619   1.792   9.351 -1.7918 -3.2210  2.0657
  142SAPE  C21815552   1.642   1.593   9.292  0.5482  0.2545  0.8149
  142SAPE  H18R15553   1.622   1.557   9.396 -0.8678 -1.9979 -0.1439
  142SAPE  H18S15554   1.713   1.523   9.244 -0.8656 -0.7613  0.1310
  142SAPE  C21915555   1.511   1.575   9.211 -0.3228 -0.2032  0.0353
  142SAPE  H19R15556   1.524   1.592   9.102  1.6029 -1.1813  0.0745
  142SAPE  H19S15557   1.430   1.644   9.243 -0.9124 -1.4048  1.2093
  142SAPE  C22015558   1.446   1.428   9.215 -0.5794 -0.4307  0.4212
  142SAPE  H20R15559   1.449   1.380   9.315  1.5435  2.8320  2.1304
  142SAPE  H20S15560   1.478   1.359   9.134 -0.2648  0.9333 -0.6561
  142SAPE  H20T15561   1.338   1.442   9.190 -0.5981 -1.8981 -0.4155
  142SAPE   C3315562   1.958   1.293  10.356  0.4803  0.3447  0.4967
  142SAPE   H3X15563   1.885   1.337  10.428  0.0151  4.7463 -2.3246
  142SAPE   H3Y15564   1.953   1.182  10.362 -0.6213  0.3572  0.1005
  142SAPE   C3415565   1.905   1.322  10.220  0.3756 -0.2924  0.0016
  142SAPE   H4X15566   1.938   1.425  10.193  1.0931 -0.4012  0.4476
  142SAPE   H4Y15567   1.794   1.318  10.211  0.2927  1.6251 -0.1999
  142SAPE   C3515568   1.956   1.224  10.109 -0.1227  0.1957  0.5048
  142SAPE   H5X15569   1.885   1.223  10.023 -0.2330 -0.5306  0.5951
  142SAPE   H5Y15570   1.962   1.120  10.147  0.9483  0.5223  1.2559
  142SAPE   C3615571   2.085   1.274  10.039 -0.1825  0.3888 -0.7531
  142SAPE   H6X15572   2.157   1.271  10.124 -1.7215 -1.5329  0.5772
  142SAPE   H6Y15573   2.082   1.385  10.025 -1.0787  0.6787  1.3115
  142SAPE   C3715574   2.135   1.204   9.915 -0.0425 -0.1684 -0.3076
  142SAPE   H7X15575   2.114   1.096   9.930 -0.1910  0.0420  1.1786
  142SAPE   H7Y15576   2.241   1.225   9.889  0.8537 -1.1149  2.3226
  142SAPE   C3815577   2.052   1.247   9.792 -0.3262 -0.4078 -0.5887
  142SAPE   H8X15578   2.067   1.356   9.775  1.3008 -0.0521  2.4349
  142SAPE   H8Y15579   1.947   1.246   9.829  0.4269  0.6617  1.7604
  142SAPE   C3915580   2.072   1.160   9.665  0.2720  0.5224 -0.6609
  142SAPE   H9X15581   2.047   1.055   9.691 -0.2836  1.5364  3.6181
  142SAPE   H9Y15582   2.181   1.166   9.644  0.3191  0.2090 -0.5020
  142SAPE  C31015583   1.991   1.223   9.548 -0.9333 -0.4172 -0.3654
  142SAPE  H10X15584   1.910   1.293   9.577  1.3342  2.4998 -0.6471
  142SAPE  H10Y15585   1.945   1.145   9.484 -0.6575  1.6720 -3.2681
  142SAPE  C31115586   2.084   1.308   9.463  0.6240  0.3606 -0.1459
  142SAPE  H11X15587   2.158   1.238   9.418  2.0997  1.4348  0.5364
  142SAPE  H11Y15588   2.150   1.381   9.514  1.7494 -0.8210  0.1505
  142SAPE  C31215589   2.005   1.367   9.344  0.4161 -0.1532  0.2661
  142SAPE  H12X15590   1.937   1.444   9.387  1.1030 -0.0368  1.1701
  142SAPE  H12Y15591   1.947   1.280   9.305  1.8586 -1.3607  0.7349
  142SAPE  C31315592   2.103   1.409   9.234  0.1148 -0.4920 -0.2630
  142SAPE  H13X15593   2.194   1.464   9.269 -0.6366  0.1628  0.7195
  142SAPE  H13Y15594   2.050   1.489   9.179  1.2038 -0.2814 -1.0457
  142SAPE  C31415595   2.145   1.306   9.128 -0.5147 -0.8284 -0.2189
  142SAPE  H14X15596   2.203   1.226   9.178 -1.0664 -0.2752  1.3683
  142SAPE  H14Y15597   2.218   1.351   9.058  1.0719 -2.6585  0.1706
  142SAPE  C31515598   2.036   1.244   9.044 -0.3195 -0.0578  0.2700
  142SAPE  H15X15599   1.954   1.319   9.045 -0.3413 -0.0772  0.0523
  142SAPE  H15Y15600   2.004   1.151   9.097  0.5210 -1.0482 -0.8996
  142SAPE  C31615601   2.073   1.216   8.900 -0.5853 -0.1425 -0.0924
  142SAPE  H16X15602   2.162   1.150   8.909 -0.7209 -0.0948  2.3838
  142SAPE  H16Y15603   2.105   1.307   8.846 -1.3550  0.9839  1.2831
  142SAPE  C31715604   1.968   1.135   8.824 -0.0152 -0.4070  0.0891
  142SAPE  H17X15605   1.977   1.150   8.714  0.2861  1.0658  0.2847
  142SAPE  H17Y15606   1.869   1.175   8.856 -0.1037 -1.8061  1.7307
  142SAPE  C31815607   1.979   0.987   8.855  0.9855  0.0214  0.0527
  142SAPE  H18X15608   1.963   0.970   8.964 -1.5407  0.8412 -0.1234
  142SAPE  H18Y15609   2.081   0.949   8.833  1.0069 -0.5380  1.0422
  142SAPE  H18Z15610   1.910   0.912   8.810 -0.3236  0.6586  0.9388
  143SAPE     N15611   2.915   0.790  11.308  0.5568  0.0407  0.2064
  143SAPE   HN115612   2.860   0.708  11.276 -0.5706  0.3115  1.3831
  143SAPE   HN215613   2.850   0.857  11.353  1.8414 -1.2503  4.4956
  143SAPE   HN315614   2.972   0.841  11.238 -2.0539  0.6356 -1.6224
  143SAPE   C1215615   3.012   0.746  11.407  0.1828 -0.1242  0.1091
  143SAPE  H12A15616   2.950   0.705  11.490 -0.2770  0.1988 -0.0695
  143SAPE  H12B15617   3.061   0.837  11.449  1.1531 -0.2020 -0.8111
  143SAPE   C1115618   3.115   0.650  11.349 -0.3404 -0.1253 -0.1885
  143SAPE  H11A15619   3.071   0.550  11.327 -2.2483  0.6355 -0.0321
  143SAPE  H11B15620   3.190   0.632  11.429 -0.3405  0.0207 -0.1568
  143SAPE     P15621   3.170   0.651  11.080 -0.0608  0.3140 -0.0609
  143SAPE   O1315622   3.254   0.738  11.000 -0.6489 -0.8108  0.1627
  143SAPE   O1415623   3.204   0.502  11.088 -0.2476 -0.4246  0.1668
  143SAPE   O1215624   3.168   0.712  11.231 -0.3497  0.5613 -0.2021
  143SAPE   O1115625   3.018   0.673  11.040 -0.2064 -0.1473 -0.6050
  143SAPE    C115626   2.953   0.625  10.924  0.5465 -0.1081 -0.0763
  143SAPE    HA15627   3.009   0.549  10.864 -0.1241  0.4869 -1.4963
  143SAPE    HB15628   2.859   0.579  10.960  0.3159  0.9610  0.7081
  143SAPE    C215629   2.923   0.740  10.817  0.0158  0.2139 -0.0269
  143SAPE    HS15630   2.858   0.695  10.738  1.6811 -0.6998 -0.9259
  143SAPE   O2115631   3.040   0.795  10.752  0.4500 -0.2262 -0.4570
  143SAPE   C2115632   3.089   0.717  10.660  0.4784 -0.4952  0.6613
  143SAPE   O2215633   3.038   0.618  10.615 -0.1745  0.1370 -0.1821
  143SAPE   C2215634   3.203   0.795  10.591 -0.7551 -0.5022  0.9056
  143SAPE   H2R15635   3.243   0.856  10.675  0.8201 -0.1364 -0.0809
  143SAPE   H2S15636   3.265   0.706  10.570 -0.3636  0.1486 -0.8352
  143SAPE    C315637   2.831   0.853  10.890 -0.8139  0.2770 -0.1831
  143SAPE    HX15638   2.898   0.919  10.950 -0.0334 -1.5455  1.0218
  143SAPE    HY15639   2.757   0.805  10.957 -0.9569  0.5813 -0.1195
  143SAPE   O3115640   2.752   0.925  10.797 -0.1434 -0.3009  0.0681
  143SAPE   C3115641   2.788   1.042  10.758 -0.4043  0.5685  0.2310
  143SAPE   O3215642   2.896   1.096  10.784  0.7337  0.1920 -0.2578
  143SAPE   C3215643   2.683   1.108  10.677  0.0382  0.4025  0.5194
  143SAPE   H2X15644   2.695   1.218  10.680 -0.7031  0.5640 -1.3176
  143SAPE   H2Y15645   2.584   1.077  10.717 -0.7243  0.3318 -1.3089
  143SAPE   C2315646   3.140   0.887  10.471  0.6487  0.3940 -0.7787
  143SAPE   H3R15647   3.070   0.956  10.524  2.2722  0.7294  1.0607
  143SAPE   H3S15648   3.091   0.827  10.392  1.5299  0.0181 -1.0455
  143SAPE   C2415649   3.248   0.963  10.394 -0.3822 -1.1315  0.3116
  143SAPE   H4R15650   3.199   1.013  10.308  1.8524 -1.1022 -1.0247
  143SAPE   H4S15651   3.330   0.899  10.356 -0.6804  0.1779 -2.8260
  143SAPE   C2515652   3.312   1.069  10.484  0.3745 -0.2272 -0.4231
  143SAPE   H5R15653   3.256   1.111  10.570  0.1503 -1.1801 -0.0898
  143SAPE   C2615654   3.442   1.115  10.474  0.1320  0.3981  0.2166
  143SAPE   H6R15655   3.473   1.196  10.542  3.7094 -0.4250 -0.2296
  143SAPE   C2715656   3.549   1.083  10.371  0.6486  1.6384 -0.1694
  143SAPE   H7R15657   3.515   0.994  10.313  0.1434 -0.5136  3.0853
  143SAPE   H7S15658   3.630   1.042  10.435  0.5189 -0.5882 -1.3431
  143SAPE   C2815659   3.606   1.195  10.288 -0.0551 -0.4930 -0.2381
  143SAPE   H8R15660   3.667   1.273  10.335 -0.4085  0.5907 -1.5074
  143SAPE   C2915661   3.576   1.219  10.162 -0.0622  0.1277  1.2247
  143SAPE   H9R15662   3.612   1.312  10.115 -0.7838 -0.5557 -0.7752
  143SAPE  C21015663   3.474   1.147  10.078  0.2728  0.4524 -0.5317
  143SAPE  H10R15664   3.396   1.219  10.045  1.2595  2.4575  1.3029
  143SAPE  H10S15665   3.416   1.077  10.142 -0.1647  1.9220  0.7210
  143SAPE  C21115666   3.539   1.066   9.967  0.3416  0.6458  0.1128
  143SAPE  H11R15667   3.616   0.999  10.007  1.4739  1.7736 -0.0920
  143SAPE  C21215668   3.514   1.079   9.836  0.5271  0.2698 -0.4193
  143SAPE  H12R15669   3.560   1.019   9.756  0.8013  0.4636 -0.4053
  143SAPE  C21315670   3.415   1.181   9.781  1.0405 -0.1893  0.4227
  143SAPE  H13R15671   3.456   1.235   9.693 -0.3963  0.0359 -0.1360
  143SAPE  H13S15672   3.385   1.264   9.848 -3.7043  0.5743 -2.2033
  143SAPE  C21415673   3.279   1.127   9.735  0.0738  0.5782  0.9528
  143SAPE  H14R15674   3.202   1.131   9.812  1.5055  0.3173  2.4527
  143SAPE  C21515675   3.233   1.096   9.612  0.9874 -0.8614  0.1083
  143SAPE  H15R15676   3.126   1.071   9.601  0.8782  0.2430 -1.7514
  143SAPE  C21615677   3.310   1.121   9.484 -0.2485  0.0816 -0.3581
  143SAPE  H16R15678   3.412   1.077   9.495 -0.9318 -1.2768  0.9059
  143SAPE  H16S15679   3.328   1.230   9.468  1.1044  0.2610  1.8455
  143SAPE  C21715680   3.259   1.054   9.358  0.0640  0.1292  0.8790
  143SAPE  H17R15681   3.174   1.109   9.313 -0.0562  0.2459  1.2465
  143SAPE  H17S15682   3.232   0.947   9.374 -0.2281 -0.0548 -0.6822
  143SAPE  C21815683   3.364   1.054   9.247  0.3858  0.4023 -0.3214
  143SAPE  H18R15684   3.460   1.015   9.287  0.6865  0.4449 -0.9937
  143SAPE  H18S15685   3.386   1.160   9.219  2.1858 -0.4281 -2.2942
  143SAPE  C21915686   3.324   0.963   9.128  0.8505  0.0476 -0.3384
  143SAPE  H19R15687   3.222   0.983   9.089 -0.1127  0.2317  2.1174
  143SAPE  H19S15688   3.327   0.857   9.157  1.3062  0.0242 -0.4629
  143SAPE  C22015689   3.413   0.979   9.007 -0.0743  0.1181 -0.0836
  143SAPE  H20R15690   3.393   1.073   8.952 -2.6559  1.0582  2.2292
  143SAPE  H20S15691   3.398   0.888   8.946 -2.3905 -1.8837  3.1138
  143SAPE  H20T15692   3.521   0.982   9.034  0.1240  1.6726 -0.9968
  143SAPE   C3315693   2.679   1.057  10.534  0.4254 -0.6160  0.2124
  143SAPE   H3X15694   2.599   1.111  10.478  0.0700 -1.1656  0.1830
  143SAPE   H3Y15695   2.660   0.948  10.526 -1.5260 -0.2132 -1.6533
  143SAPE   C3415696   2.809   1.101  10.454  0.3023  0.7686  0.1944
  143SAPE   H4X15697   2.862   1.003  10.457 -2.3040 -0.7546  0.1703
  143SAPE   H4Y15698   2.860   1.185  10.505  1.6482  0.5011 -0.6570
  143SAPE   C3515699   2.795   1.127  10.300 -0.1055 -0.1974 -0.2742
  143SAPE   H5X15700   2.749   1.038  10.253 -1.5399 -0.0425  0.7936
  143SAPE   H5Y15701   2.897   1.143  10.258  0.4842  0.0841  1.2199
  143SAPE   C3615702   2.710   1.253  10.273 -0.2512  0.7685  0.3120
  143SAPE   H6X15703   2.760   1.336  10.328  0.6534  0.6544 -0.3070
  143SAPE   H6Y15704   2.610   1.241  10.320 -1.6709  1.2964 -2.3935
  143SAPE   C3715705   2.699   1.289  10.124 -0.1640  0.6138 -0.3128
  143SAPE   H7X15706   2.675   1.202  10.059  2.1686  0.1839 -0.6868
  143SAPE   H7Y15707   2.792   1.321  10.072 -0.0574  1.4402  0.3646
  143SAPE   C3815708   2.594   1.399  10.114  0.0675  0.1932 -0.3685
  143SAPE   H8X15709   2.636   1.482  10.174  0.5904 -0.8852  0.7956
  143SAPE   H8Y15710   2.506   1.365  10.172  0.1324  0.2654 -0.2265
  143SAPE   C3915711   2.570   1.448   9.968  0.3149 -0.1580 -0.3682
  143SAPE   H9X15712   2.665   1.489   9.928  0.1438 -0.9786 -1.6519
  143SAPE   H9Y15713   2.494   1.529   9.969 -0.4230 -0.8178  1.1371
  143SAPE  C31015714   2.514   1.341   9.874  0.3232  0.4574  0.1992
  143SAPE  H10X15715   2.438   1.294   9.940 -0.0019  2.5691  1.4289
  143SAPE  H10Y15716   2.584   1.258   9.851  0.2262 -0.4868  2.9338
  143SAPE  C31115717   2.440   1.388   9.747  0.7250  0.2343 -0.3133
  143SAPE  H11X15718   2.372   1.474   9.768 -0.4157 -0.4838 -0.9960
  143SAPE  H11Y15719   2.386   1.297   9.715  3.9022 -1.2431 -1.9023
  143SAPE  C31215720   2.532   1.436   9.632  0.2294 -0.0843  0.0637
  143SAPE  H12X15721   2.622   1.371   9.625  0.7529  0.7517 -2.0142
  143SAPE  H12Y15722   2.571   1.536   9.659 -0.0893 -0.3193  1.4732
  143SAPE  C31315723   2.460   1.438   9.498 -0.3947  0.3727  0.1113
  143SAPE  H13X15724   2.404   1.534   9.495 -1.6545 -0.3419 -0.0800
  143SAPE  H13Y15725   2.385   1.356   9.488 -0.9604  0.9638 -0.6482
  143SAPE  C31415726   2.565   1.438   9.382  0.8861  0.2042 -0.2337
  143SAPE  H14X15727   2.618   1.342   9.395  0.9072  0.1460 -0.7102
  143SAPE  H14Y15728   2.625   1.532   9.392  0.9026  0.3085 -1.1939
  143SAPE  C31515729   2.497   1.444   9.246 -0.3259  0.3732  0.0407
  143SAPE  H15X15730   2.423   1.526   9.258 -0.6277 -0.0010  0.8340
  143SAPE  H15Y15731   2.440   1.355   9.212 -0.7438  1.1238 -1.2984
  143SAPE  C31615732   2.585   1.485   9.128  0.1915 -0.0770  0.1039
  143SAPE  H16X15733   2.674   1.418   9.127  0.0288 -0.3073 -1.3456
  143SAPE  H16Y15734   2.630   1.582   9.156 -0.4388  0.5060 -0.8434
  143SAPE  C31715735   2.527   1.489   8.981 -0.6341 -0.3816  0.2726
  143SAPE  H17X15736   2.481   1.391   8.954 -1.6479 -0.0190  0.6275
  143SAPE  H17Y15737   2.607   1.515   8.909 -1.2539 -0.8496 -0.6085
  143SAPE  C31815738   2.422   1.594   8.967  0.6589  0.4760 -0.1374
  143SAPE  H18X15739   2.377   1.590   8.865  0.4221 -0.0301 -0.0161
  143SAPE  H18Y15740   2.469   1.692   8.992  1.6478 -0.1185  0.3934
  143SAPE  H18Z15741   2.336   1.575   9.034 -0.2916 -0.6710 -1.6196
  144SAPE     N15742   6.609   0.714  10.909 -0.0145  0.2772 -0.0557
  144SAPE   HN115743   6.661   0.781  10.970 -1.4064  2.1856 -0.8614
  144SAPE   HN215744   6.650   0.699  10.815 -0.0628  0.2547 -0.0727
  144SAPE   HN315745   6.514   0.754  10.895  0.8403  2.6862  0.4543
  144SAPE   C1215746   6.607   0.590  10.991  0.5093 -0.0420  0.6293
  144SAPE  H12A15747   6.521   0.530  10.954  1.0391 -0.7072  0.4697
  144SAPE  H12B15748   6.595   0.614  11.099 -1.7776 -0.4505  0.5292
  144SAPE   C1115749   6.732   0.506  10.961 -0.4371  0.2582  0.8077
  144SAPE  H11A15750   6.733   0.416  11.027 -1.5121 -0.2731  0.1242
  144SAPE  H11B15751   6.826   0.564  10.974  0.2683  0.3976 -3.4386
  144SAPE     P15752   6.859   0.379  10.777 -0.4816 -0.3819 -0.2042
  144SAPE   O1315753   6.955   0.487  10.739  0.1475  0.4447  0.2654
  144SAPE   O1415754   6.897   0.278  10.875  0.2482  0.2385 -0.5788
  144SAPE   O1215755   6.726   0.457  10.828 -0.6065 -0.7776 -0.2127
  144SAPE   O1115756   6.819   0.304  10.647 -0.4448 -0.7701  0.0210
  144SAPE    C115757   6.725   0.371  10.559 -0.2203  0.5622 -0.4692
  144SAPE    HA15758   6.662   0.447  10.611  0.9560  2.0064 -1.1013
  144SAPE    HB15759   6.776   0.419  10.474 -0.1072 -0.7072 -1.1384
  144SAPE    C215760   6.629   0.265  10.483  0.7284 -0.3215 -0.6990
  144SAPE    HS15761   6.587   0.215  10.573  0.6406  2.5477  0.9745
  144SAPE   O2115762   6.708   0.182  10.393  0.1848  0.4710 -0.0480
  144SAPE   C2115763   6.639   0.071  10.355 -0.2027  0.7309  0.2236
  144SAPE   O2215764   6.533   0.027  10.408  0.3139 -0.2510  0.3143
  144SAPE   C2215765   6.713   0.001  10.243  0.2449 -0.3400 -0.3477
  144SAPE   H2R15766   6.792   0.073  10.212 -0.6004 -0.2699 -2.4986
  144SAPE   H2S15767   6.761  -0.088  10.289  0.9058  0.2922  0.2275
  144SAPE    C315768   6.507   0.338  10.414 -0.0624 -0.3219  0.5229
  144SAPE    HX15769   6.443   0.391  10.487  1.2716  1.5635  0.3847
  144SAPE    HY15770   6.439   0.267  10.361  1.4089 -2.4296  1.3201
  144SAPE   O3115771   6.558   0.439  10.320 -0.4985  0.3009  0.3291
  144SAPE   C3115772   6.582   0.560  10.366 -0.3264  0.0536 -0.1472
  144SAPE   O3215773   6.556   0.603  10.476 -0.1977 -0.2715 -0.0144
  144SAPE   C3215774   6.647   0.643  10.260  0.5249 -0.2543  0.5372
  144SAPE   H2X15775   6.567   0.651  10.183  1.1338  1.8805  0.0656
  144SAPE   H2Y15776   6.740   0.589  10.231 -0.9071 -3.7874  1.9142
  144SAPE   C2315777   6.627  -0.039  10.132  0.3594  0.2099  0.0449
  144SAPE   H3R15778   6.565  -0.126  10.162  2.6875 -0.4544  3.5067
  144SAPE   H3S15779   6.684  -0.080  10.045 -0.6521 -1.3817  0.0794
  144SAPE   C2415780   6.535   0.069  10.082  0.7173 -0.2968  0.1072
  144SAPE   H4R15781   6.481   0.119  10.164 -0.1171 -0.6822 -0.1946
  144SAPE   H4S15782   6.452   0.025  10.022 -0.6528 -0.3301  1.9458
  144SAPE   C2515783   6.598   0.171   9.992 -0.5595 -0.2967  0.4384
  144SAPE   H5R15784   6.611   0.269  10.040  3.5461 -1.2434  1.6726
  144SAPE   C2615785   6.636   0.152   9.860 -0.2119  1.3282  0.0973
  144SAPE   H6R15786   6.675   0.242   9.809 -1.2787  3.1762  2.3494
  144SAPE   C2715787   6.632   0.034   9.769  0.3365 -0.9425  0.2694
  144SAPE   H7R15788   6.538  -0.024   9.782 -0.1666 -0.2464 -0.1911
  144SAPE   H7S15789   6.700  -0.040   9.816 -1.1930 -2.3514  0.3742
  144SAPE   C2815790   6.656   0.045   9.624 -0.2470 -0.2490  0.7108
  144SAPE   H8R15791   6.750  -0.009   9.602 -1.0090 -1.5984  0.6250
  144SAPE   C2915792   6.597   0.128   9.534  0.4231  0.1478  0.0125
  144SAPE   H9R15793   6.631   0.111   9.430  0.5772  0.3142  0.0359
  144SAPE  C21015794   6.483   0.221   9.560 -0.6034  0.6743 -0.3146
  144SAPE  H10R15795   6.452   0.220   9.666 -2.1503  1.0144 -0.7516
  144SAPE  H10S15796   6.395   0.176   9.510  0.2466 -0.0854 -1.1757
  144SAPE  C21115797   6.503   0.360   9.507 -0.4104  0.2144  0.2553
  144SAPE  H11R15798   6.519   0.424   9.594 -1.2866 -0.6208  1.0505
  144SAPE  C21215799   6.523   0.408   9.388  0.3204  0.3710  0.3888
  144SAPE  H12R15800   6.546   0.516   9.385 -2.1483  0.9278 -1.6910
  144SAPE  C21315801   6.525   0.331   9.253 -0.0966 -0.1353  0.3362
  144SAPE  H13R15802   6.451   0.377   9.183 -0.3829 -1.4769 -0.2751
  144SAPE  H13S15803   6.475   0.232   9.257  0.8147 -0.5649  1.6196
  144SAPE  C21415804   6.666   0.305   9.194 -0.4384 -0.1534  1.3956
  144SAPE  H14R15805   6.709   0.227   9.259 -2.2635 -1.8104  0.6996
  144SAPE  C21515806   6.723   0.348   9.079 -0.4232 -0.4798  0.0692
  144SAPE  H15R15807   6.826   0.319   9.056  0.5713 -0.3852  3.7536
  144SAPE  C21615808   6.657   0.440   8.982 -0.0214 -0.0427 -0.4251
  144SAPE  H16R15809   6.733   0.515   8.953 -0.8146  0.4707 -1.2462
  144SAPE  H16S15810   6.575   0.498   9.031 -1.4751 -2.6337  0.4201
  144SAPE  C21715811   6.596   0.366   8.861  0.3446 -0.1960  0.2705
  144SAPE  H17R15812   6.503   0.307   8.872  0.9779 -1.3026 -0.1464
  144SAPE  H17S15813   6.668   0.294   8.816  1.9121 -0.7716  3.4065
  144SAPE  C21815814   6.561   0.468   8.754 -0.2226 -0.0836  0.4959
  144SAPE  H18R15815   6.639   0.539   8.719  0.5202 -0.1804  1.8571
  144SAPE  H18S15816   6.472   0.524   8.792  0.1182  0.4809  0.4723
  144SAPE  C21915817   6.511   0.407   8.626  0.3423 -0.0465 -0.0453
  144SAPE  H19R15818   6.449   0.317   8.646  1.9955 -0.9244  1.4441
  144SAPE  H19S15819   6.601   0.370   8.572  0.2450  2.7562 -2.4058
  144SAPE  C22015820   6.441   0.509   8.538 -0.6482 -0.3204  0.7038
  144SAPE  H20R15821   6.361   0.550   8.603 -0.0720 -0.0210  1.2317
  144SAPE  H20S15822   6.399   0.475   8.441 -0.5017  0.7683  0.2441
  144SAPE  H20T15823   6.504   0.595   8.507 -1.1905  0.3677  1.4706
  144SAPE   C3315824   6.685   0.792  10.298  1.0589 -0.7430  0.3262
  144SAPE   H3X15825   6.771   0.791  10.368  0.7206  2.3675  0.9472
  144SAPE   H3Y15826   6.607   0.850  10.351  1.5796 -0.4144  0.7377
  144SAPE   C3415827   6.728   0.869  10.176  0.2704 -0.1888  0.0719
  144SAPE   H4X15828   6.755   0.973  10.203 -1.5387 -0.0026  1.3683
  144SAPE   H4Y15829   6.643   0.875  10.105 -0.6491  0.5146  1.1896
  144SAPE   C3515830   6.850   0.808  10.110 -0.3007  0.9697 -0.4010
  144SAPE   H5X15831   6.810   0.719  10.057 -0.4074  0.4521  0.5350
  144SAPE   H5Y15832   6.925   0.768  10.181 -1.4353  0.0452  0.3024
  144SAPE   C3615833   6.921   0.905  10.015 -0.2250 -0.6888  0.4051
  144SAPE   H6X15834   7.022   0.875   9.979  0.0319  0.9268 -0.3374
  144SAPE   H6Y15835   6.937   0.997  10.076  1.3510 -1.4455  1.1845
  144SAPE   C3715836   6.835   0.941   9.895 -0.0394  0.3277  0.2495
  144SAPE   H7X15837   6.871   1.034   9.847  0.2613  1.4172  2.4726
  144SAPE   H7Y15838   6.735   0.979   9.924  0.1829  0.7956  0.4028
  144SAPE   C3815839   6.820   0.823   9.797  0.2131  0.2947 -0.0653
  144SAPE   H8X15840   6.777   0.737   9.854 -0.3724  0.6933  0.1008
  144SAPE   H8Y15841   6.927   0.792   9.789  1.0887  2.7537  1.3501
  144SAPE   C3915842   6.737   0.859   9.674  0.1281  0.3578 -0.1416
  144SAPE   H9X15843   6.798   0.940   9.630  1.2314 -0.4923 -0.2064
  144SAPE   H9Y15844   6.638   0.899   9.705  0.4806  1.7505 -0.7541
  144SAPE  C31015845   6.734   0.742   9.578  0.4033  0.8530  0.3482
  144SAPE  H10X15846   6.654   0.672   9.608  0.1649  1.0662  0.2118
  144SAPE  H10Y15847   6.828   0.682   9.570  0.5122  1.0697 -0.0216
  144SAPE  C31115848   6.692   0.784   9.434  0.0180 -0.1398 -1.0120
  144SAPE  H11X15849   6.596   0.840   9.436 -0.8023 -1.4851  0.7233
  144SAPE  H11Y15850   6.673   0.686   9.387 -2.6553 -0.9969  1.5229
  144SAPE  C31215851   6.805   0.855   9.357 -0.1083  0.3024 -0.1101
  144SAPE  H12X15852   6.896   0.793   9.346 -0.5134 -0.4363  0.5735
  144SAPE  H12Y15853   6.832   0.950   9.408 -0.7697  0.4837 -0.0909
  144SAPE  C31315854   6.755   0.906   9.219  0.5153 -0.1748  0.4606
  144SAPE  H13X15855   6.823   0.992   9.197  1.3491 -0.6533  1.1117
  144SAPE  H13Y15856   6.646   0.927   9.223  0.3863  0.0105 -2.0691
  144SAPE  C31415857   6.753   0.791   9.117  0.5820 -0.6139  0.9304
  144SAPE  H14X15858   6.703   0.699   9.152 -0.0772 -0.3732  0.6272
  144SAPE  H14Y15859   6.859   0.763   9.098  1.3252  1.0843  2.3544
  144SAPE  C31515860   6.675   0.825   8.984 -0.1717 -0.4766 -0.0928
  144SAPE  H15X15861   6.570   0.839   9.017 -0.2021  1.4332 -0.8554
  144SAPE  H15Y15862   6.675   0.728   8.930  1.3016 -1.1765  1.0961
  144SAPE  C31615863   6.735   0.948   8.910  0.0459  0.4847  0.0448
  144SAPE  H16X15864   6.845   0.939   8.924  0.1853  2.3397  0.3938
  144SAPE  H16Y15865   6.705   1.041   8.962  1.5163  0.0078  1.8573
  144SAPE  C31715866   6.711   0.937   8.758  0.3815  0.1902  0.4843
  144SAPE  H17X15867   6.721   0.830   8.730 -0.5255  0.0748  0.5742
  144SAPE  H17Y15868   6.797   0.996   8.719 -0.9949  0.7159 -1.9264
  144SAPE  C31815869   6.578   0.996   8.708  0.2018 -0.5806 -0.3042
  144SAPE  H18X15870   6.564   1.104   8.727  0.3293 -0.8755  1.8019
  144SAPE  H18Y15871   6.491   0.940   8.748 -1.9264  2.3638 -0.4962
  144SAPE  H18Z15872   6.577   0.981   8.598  0.1517 -2.8634 -0.0459
  145SAPE     N15873   3.171   1.471  11.056  0.3322 -0.1159 -0.1693
  145SAPE   HN115874   3.110   1.508  11.133  0.1257  0.2236 -0.4948
  145SAPE   HN215875   3.175   1.550  10.989  0.9664  1.8800  2.0650
  145SAPE   HN315876   3.131   1.382  11.021  0.7961 -0.5586  0.4144
  145SAPE   C1215877   3.309   1.458  11.120  0.2442  0.1852  0.0893
  145SAPE  H12A15878   3.369   1.425  11.032 -3.0036 -0.3866 -2.1286
  145SAPE  H12B15879   3.299   1.379  11.197  0.2879 -1.5542 -1.6088
  145SAPE   C1115880   3.368   1.592  11.156  0.2303 -0.3001  0.8044
  145SAPE  H11A15881   3.379   1.659  11.068  1.6085 -1.1930  0.2502
  145SAPE  H11B15882   3.474   1.571  11.181 -0.2948 -3.1994  0.9114
  145SAPE     P15883   3.170   1.751  11.259 -0.3808 -0.2056  0.1089
  145SAPE   O1315884   3.056   1.665  11.221  0.1894  0.7047 -0.8708
  145SAPE   O1415885   3.168   1.816  11.394 -0.4002  0.0575 -0.0057
  145SAPE   O1215886   3.302   1.658  11.255 -0.2250 -0.8801 -0.8179
  145SAPE   O1115887   3.197   1.863  11.153  0.0920  0.0434  0.3964
  145SAPE    C115888   3.087   1.915  11.079 -0.1309  0.6563  0.4604
  145SAPE    HA15889   2.993   1.906  11.137  1.3222 -1.2133  2.6804
  145SAPE    HB15890   3.106   2.023  11.061 -0.2416  0.4383 -1.1290
  145SAPE    C215891   3.057   1.847  10.937  0.0445 -0.2818  0.2022
  145SAPE    HS15892   2.986   1.907  10.876 -0.6805 -2.0037 -0.7077
  145SAPE   O2115893   3.005   1.715  10.948  0.1653  0.8358 -0.0026
  145SAPE   C2115894   2.884   1.704  10.996  0.9200  0.2498 -0.3126
  145SAPE   O2215895   2.811   1.793  11.038  0.0283  0.0824 -0.6861
  145SAPE   C2215896   2.831   1.554  10.989 -0.0939  0.4739  0.3894
  145SAPE   H2R15897   2.890   1.488  11.056 -2.8651 -3.1090 -0.3541
  145SAPE   H2S15898   2.723   1.562  11.013 -0.5816  0.7669 -1.6827
  145SAPE    C315899   3.189   1.847  10.849 -0.4122  0.5799 -0.0628
  145SAPE    HX15900   3.264   1.812  10.923 -0.8153  1.0925  0.6017
  145SAPE    HY15901   3.191   1.957  10.832  0.8303  0.6267  0.2681
  145SAPE   O3115902   3.181   1.771  10.722 -0.1048 -0.0043 -0.0847
  145SAPE   C3115903   3.201   1.643  10.721 -0.0633 -1.0173  0.1338
  145SAPE   O3215904   3.235   1.570  10.818  0.3440 -0.0996 -0.2964
  145SAPE   C3215905   3.171   1.591  10.584  0.9227 -0.1471  0.4715
  145SAPE   H2X15906   3.209   1.666  10.511  2.7538  0.0911  1.6027
  145SAPE   H2Y15907   3.060   1.582  10.576  0.9562 -0.1088 -0.0656
  145SAPE   C2315908   2.853   1.492  10.846  0.4319  0.0236  0.6723
  145SAPE   H3R15909   2.861   1.382  10.859 -0.8098 -0.0633  0.8966
  145SAPE   H3S15910   2.953   1.518  10.807  0.3346 -2.5769 -1.5716
  145SAPE   C2415911   2.740   1.512  10.737  0.4840  0.0313 -0.1753
  145SAPE   H4R15912   2.644   1.486  10.787  0.2485  2.8895  1.0372
  145SAPE   H4S15913   2.770   1.435  10.663  0.6230 -0.0947  0.0101
  145SAPE   C2515914   2.732   1.658  10.696 -0.2422 -0.1784 -0.5605
  145SAPE   H5R15915   2.755   1.740  10.766 -1.8677 -0.3562  0.2287
  145SAPE   C2615916   2.701   1.705  10.571  0.1286  0.0799  0.3859
  145SAPE   H6R15917   2.710   1.812  10.546  0.0695  0.2755  1.1814
  145SAPE   C2715918   2.669   1.613  10.454  0.5794 -0.3585  0.3245
  145SAPE   H7R15919   2.683   1.505  10.476 -1.6785 -0.9968 -1.1249
  145SAPE   H7S15920   2.743   1.638  10.375  0.2791  0.8588  0.3976
  145SAPE   C2815921   2.532   1.633  10.392  0.0327  0.3069 -0.0574
  145SAPE   H8R15922   2.456   1.569  10.439 -0.4100  0.5264 -0.4657
  145SAPE   C2915923   2.498   1.711  10.284  0.7947 -0.0638  0.4316
  145SAPE   H9R15924   2.399   1.698  10.237  0.6758  1.1521  0.3018
  145SAPE  C21015925   2.590   1.798  10.203  0.4773 -0.4724  0.4430
  145SAPE  H10R15926   2.626   1.728  10.124  1.2362  0.9994 -0.5552
  145SAPE  H10S15927   2.682   1.820  10.261  0.3961 -0.6322  0.6337
  145SAPE  C21115928   2.534   1.932  10.165  0.1028 -0.3703 -0.5213
  145SAPE  H11R15929   2.519   1.990  10.258  0.4545 -0.4782 -0.3948
  145SAPE  C21215930   2.518   1.977  10.040  0.5888 -0.0905  0.0228
  145SAPE  H12R15931   2.476   2.077  10.023 -0.6840 -0.3968  1.1877
  145SAPE  C21315932   2.553   1.909   9.916  0.2439  0.4974  0.0030
  145SAPE  H13R15933   2.483   1.948   9.840 -0.8406 -0.4989  0.4686
  145SAPE  H13S15934   2.529   1.801   9.918 -0.4244  0.6462 -0.0892
  145SAPE  C21415935   2.692   1.932   9.872 -0.5618 -0.2718 -0.2641
  145SAPE  H14R15936   2.763   1.970   9.947 -1.2092  0.9791 -0.2713
  145SAPE  C21515937   2.744   1.894   9.757 -0.1944  0.4691  0.2909
  145SAPE  H15R15938   2.839   1.943   9.731  1.7602 -4.2074 -2.7210
  145SAPE  C21615939   2.680   1.829   9.636  0.2791 -0.0552  0.0998
  145SAPE  H16R15940   2.571   1.821   9.655  0.6063 -0.6833  1.9661
  145SAPE  H16S15941   2.719   1.727   9.615  2.4583  0.3075  1.9859
  145SAPE  C21715942   2.694   1.911   9.504  0.8113  0.2364  0.2410
  145SAPE  H17R15943   2.799   1.921   9.467  1.0422 -0.5087  0.6698
  145SAPE  H17S15944   2.645   2.009   9.524 -2.3317 -1.5919  2.1603
  145SAPE  C21815945   2.606   1.847   9.388  0.1669 -0.4497 -0.3201
  145SAPE  H18R15946   2.503   1.826   9.424  0.8099 -0.4546  1.6563
  145SAPE  H18S15947   2.650   1.750   9.358  2.8635  0.9223 -1.1469
  145SAPE  C21915948   2.598   1.954   9.281  0.1562  0.7471 -0.1490
  145SAPE  H19R15949   2.697   1.988   9.243  0.8255  1.0763  1.7901
  145SAPE  H19S15950   2.544   2.042   9.322  1.1341  2.0434 -1.5090
  145SAPE  C22015951   2.509   1.905   9.165  0.3467 -0.4499  0.4466
  145SAPE  H20R15952   2.480   1.984   9.092 -2.3163 -1.2805  0.5004
  145SAPE  H20S15953   2.412   1.856   9.190  0.4653  0.0278  1.9288
  145SAPE  H20T15954   2.571   1.837   9.102  2.4082  0.2014  1.6666
  145SAPE   C3315955   3.228   1.455  10.545  0.1530 -0.3804  0.5732
  145SAPE   H3X15956   3.211   1.379  10.625  0.2982 -0.4335  0.5552
  145SAPE   H3Y15957   3.339   1.457  10.533  0.1100  0.8669  0.2943
  145SAPE   C3415958   3.151   1.409  10.419 -0.5776  0.4025  0.0400
  145SAPE   H4X15959   3.042   1.424  10.433 -0.5920  0.3187  0.0180
  145SAPE   H4Y15960   3.168   1.299  10.422  0.2424  0.5290  2.7224
  145SAPE   C3515961   3.199   1.457  10.281 -0.0381  0.0536  0.1981
  145SAPE   H5X15962   3.304   1.430  10.260 -0.0475 -1.5117  1.8103
  145SAPE   H5Y15963   3.199   1.567  10.276 -2.5117  0.2008  1.5671
  145SAPE   C3615964   3.108   1.392  10.180 -0.2629 -0.0835  0.1399
  145SAPE   H6X15965   3.002   1.418  10.200  0.1934  1.3186  0.8204
  145SAPE   H6Y15966   3.128   1.282  10.182  1.0415  0.0232 -2.3510
  145SAPE   C3715967   3.127   1.446  10.030 -0.7920 -0.1641  0.7376
  145SAPE   H7X15968   3.206   1.391   9.975 -0.7628 -1.1188  1.7101
  145SAPE   H7Y15969   3.141   1.556  10.025 -0.3949 -0.2608 -3.0629
  145SAPE   C3815970   3.011   1.421   9.934 -0.4407 -0.6650  0.6319
  145SAPE   H8X15971   2.920   1.474   9.970 -0.8726 -0.6337 -0.4641
  145SAPE   H8Y15972   2.996   1.313   9.912  2.1362 -0.8826 -0.4297
  145SAPE   C3915973   3.036   1.476   9.789  0.2524  0.0880 -0.4732
  145SAPE   H9X15974   3.118   1.415   9.745  0.2116  0.4630 -1.0712
  145SAPE   H9Y15975   3.060   1.584   9.782 -1.2807  0.5214  0.5375
  145SAPE  C31015976   2.921   1.443   9.698  1.4022 -0.0468  0.0475
  145SAPE  H10X15977   2.836   1.495   9.748  0.9777 -1.4291  0.8217
  145SAPE  H10Y15978   2.904   1.333   9.698 -1.0033  0.1992 -2.8169
  145SAPE  C31115979   2.929   1.482   9.551  0.5613 -0.0488  0.1315
  145SAPE  H11X15980   2.935   1.592   9.556  0.6738  0.0291 -1.2939
  145SAPE  H11Y15981   2.830   1.450   9.511  1.6243  0.0578 -2.8754
  145SAPE  C31215982   3.038   1.418   9.468 -0.2664 -0.2343 -0.2165
  145SAPE  H12X15983   3.055   1.319   9.517  0.7085  0.2657  0.4845
  145SAPE  H12Y15984   3.137   1.468   9.472  0.0199 -0.8378  0.9883
  145SAPE  C31315985   2.995   1.390   9.323 -0.1661  0.9087 -0.1891
  145SAPE  H13X15986   3.082   1.367   9.257 -0.2846 -1.1479  0.3037
  145SAPE  H13Y15987   2.937   1.476   9.284 -1.1437 -0.3225 -1.5307
  145SAPE  C31415988   2.915   1.268   9.309  0.2424 -0.1792  0.2704
  145SAPE  H14X15989   2.820   1.282   9.366 -0.2375  0.4657 -0.6610
  145SAPE  H14Y15990   2.953   1.172   9.351 -0.5004 -0.5376  0.1563
  145SAPE  C31515991   2.884   1.251   9.159 -0.3091 -0.0555  0.3477
  145SAPE  H15X15992   2.895   1.349   9.107  1.6710 -0.5001 -0.1669
  145SAPE  H15Y15993   2.785   1.206   9.140  1.0579 -2.7993 -0.8717
  145SAPE  C31615994   2.981   1.161   9.085 -0.0993  0.3781  0.7023
  145SAPE  H16X15995   2.972   1.063   9.137  0.3079  0.0020  0.0850
  145SAPE  H16Y15996   3.086   1.197   9.089 -0.4193  1.7521 -1.3679
  145SAPE  C31715997   2.947   1.157   8.938 -0.0613 -0.6510  0.2964
  145SAPE  H17X15998   2.880   1.243   8.914  0.8163 -0.3100 -1.0157
  145SAPE  H17Y15999   2.879   1.074   8.910  0.9592 -1.0773 -1.0158
  145SAPE  C31816000   3.063   1.166   8.846  0.5342 -0.0870 -0.0944
  145SAPE  H18X16001   3.046   1.117   8.748 -0.8488  1.2706 -0.5779
  145SAPE  H18Y16002   3.151   1.121   8.896  0.5397  0.1153  0.0798
  145SAPE  H18Z16003   3.095   1.271   8.828  0.3619  0.3747  2.0202
  146SAPE     N16004   0.266   0.126  10.844  0.4312 -0.4773  0.0536
  146SAPE   HN116005   0.178   0.183  10.847  1.9548  2.0867 -0.7200
  146SAPE   HN216006   0.347   0.186  10.870 -1.9206  3.5528 -0.9803
  146SAPE   HN316007   0.277   0.097  10.745  0.8413  0.2474 -0.1212
  146SAPE   C1216008   0.278  -0.002  10.922 -0.0262  0.1647  0.4026
  146SAPE  H12A16009   0.203  -0.074  10.883  0.1905  1.5810 -2.9216
  146SAPE  H12B16010   0.250   0.028  11.026 -2.5090  2.9593 -0.9343
  146SAPE   C1116011   0.422  -0.059  10.919  0.1521  0.1779 -0.0718
  146SAPE  H11A16012   0.433  -0.149  10.983  1.0591  0.7854  0.6556
  146SAPE  H11B16013   0.474   0.029  10.963 -0.5202  1.1954 -1.2309
  146SAPE     P16014   0.408  -0.212  10.703  0.1150  0.0961  0.2201
  146SAPE   O1316015   0.459  -0.336  10.762 -0.1048  0.5648 -0.5142
  146SAPE   O1416016   0.264  -0.190  10.672  0.2575 -0.1698 -0.5516
  146SAPE   O1216017   0.462  -0.082  10.783  0.9260 -0.1478 -0.1489
  146SAPE   O1116018   0.480  -0.191  10.567 -0.5580 -0.3214  0.5669
  146SAPE    C116019   0.519  -0.068  10.512  0.4796 -0.4338 -0.6447
  146SAPE    HA16020   0.424  -0.014  10.491  0.9673  0.0023 -1.8260
  146SAPE    HB16021   0.573  -0.007  10.588  0.2019 -0.4321 -0.4483
  146SAPE    C216022   0.623  -0.078  10.392  0.7405 -0.3943 -0.5762
  146SAPE    HS16023   0.682   0.014  10.376 -0.0149 -0.3057 -3.2619
  146SAPE   O2116024   0.556  -0.112  10.269  0.6699 -0.0456 -0.6060
  146SAPE   C2116025   0.490  -0.008  10.218 -0.2883 -0.6394  0.1536
  146SAPE   O2216026   0.468   0.097  10.270 -0.8154 -0.3984  0.0222
  146SAPE   C2216027   0.445  -0.034  10.080 -0.7688  0.0906  0.4832
  146SAPE   H2R16028   0.524  -0.090  10.027  1.4243  2.0414  1.5172
  146SAPE   H2S16029   0.358  -0.102  10.094  0.3660 -1.3760  0.6618
  146SAPE    C316030   0.723  -0.190  10.426 -0.1030  0.5329  0.3331
  146SAPE    HX16031   0.666  -0.285  10.428  0.6259  0.0369 -1.0522
  146SAPE    HY16032   0.753  -0.170  10.532 -0.7305  1.6450  0.3170
  146SAPE   O3116033   0.835  -0.198  10.334  0.0515 -0.1119 -0.4491
  146SAPE   C3116034   0.917  -0.298  10.354  0.1836  0.6324 -0.4226
  146SAPE   O3216035   0.907  -0.385  10.441 -0.4599  0.0010  0.3167
  146SAPE   C3216036   1.023  -0.299  10.255  0.1195  0.3196 -0.2383
  146SAPE   H2X16037   1.113  -0.283  10.319 -1.3363 -2.2227  2.7126
  146SAPE   H2Y16038   1.019  -0.218  10.180  0.4565 -0.6691 -1.3554
  146SAPE   C2316039   0.403   0.089   9.999  0.1657  0.0259 -0.0365
  146SAPE   H3R16040   0.500   0.133   9.968  0.5922  0.1766  1.4233
  146SAPE   H3S16041   0.342   0.156  10.063 -1.5760 -0.8224 -0.7371
  146SAPE   C2416042   0.317   0.051   9.882 -0.1857  0.7515 -0.2977
  146SAPE   H4R16043   0.369  -0.011   9.806  3.2015  0.0720  2.3577
  146SAPE   H4S16044   0.294   0.137   9.815  0.1723  0.7188 -0.4625
  146SAPE   C2516045   0.187  -0.013   9.928  0.4681  0.2891  0.2289
  146SAPE   H5R16046   0.144   0.023  10.022 -0.2828 -0.5004  0.2019
  146SAPE   C2616047   0.117  -0.103   9.856  0.1709 -0.3556 -0.1433
  146SAPE   H6R16048   0.025  -0.147   9.898  0.2596 -1.4368 -1.0247
  146SAPE   C2716049   0.160  -0.156   9.722 -0.0260 -0.9290  1.0256
  146SAPE   H7R16050   0.263  -0.131   9.689 -0.6539 -1.9141 -1.9709
  146SAPE   H7S16051   0.101  -0.095   9.651  1.8890  0.7681  0.7800
  146SAPE   C2816052   0.138  -0.303   9.710 -0.3007 -0.0882 -0.2611
  146SAPE   H8R16053   0.129  -0.357   9.805  1.5837  1.6854  0.9838
  146SAPE   C2916054   0.130  -0.370   9.599  0.5203 -0.0956  0.5174
  146SAPE   H9R16055   0.116  -0.478   9.608 -0.7011 -0.0551 -0.6442
  146SAPE  C21016056   0.151  -0.322   9.458 -0.1462 -0.8486  0.2065
  146SAPE  H10R16057   0.248  -0.353   9.413  0.7391  1.1534  0.6119
  146SAPE  H10S16058   0.153  -0.211   9.455  1.3772 -0.7942  1.6184
  146SAPE  C21116059   0.034  -0.365   9.369  0.1794  0.0442 -0.5095
  146SAPE  H11R16060  -0.054  -0.300   9.382  0.5743  0.2414  1.5028
  146SAPE  C21216061   0.018  -0.480   9.301  0.1101  0.4910  1.1113
  146SAPE  H12R16062  -0.079  -0.506   9.255 -0.7513  0.9724  2.5810
  146SAPE  C21316063   0.124  -0.586   9.284 -0.4812 -0.1073  0.2526
  146SAPE  H13R16064   0.110  -0.662   9.364  0.3228 -1.7604 -1.1161
  146SAPE  H13S16065   0.222  -0.538   9.300 -0.5992  0.4032 -0.4889
  146SAPE  C21416066   0.141  -0.662   9.148 -0.0553 -0.2223  0.4461
  146SAPE  H14R16067   0.070  -0.746   9.135  0.0223  0.1691 -3.7916
  146SAPE  C21516068   0.206  -0.619   9.041 -0.2877 -0.7015  0.1259
  146SAPE  H15R16069   0.209  -0.683   8.951 -1.1715  1.2788 -1.3965
  146SAPE  C21616070   0.279  -0.489   9.029 -0.0036  0.0469  0.3617
  146SAPE  H16R16071   0.386  -0.492   9.056  0.1234  0.6045 -0.0458
  146SAPE  H16S16072   0.234  -0.404   9.086  1.3659  1.3262 -0.3907
  146SAPE  C21716073   0.282  -0.442   8.881 -0.8865 -0.1082 -0.3324
  146SAPE  H17R16074   0.177  -0.441   8.846 -0.8078 -1.4267 -0.6414
  146SAPE  H17S16075   0.335  -0.516   8.818 -1.3240 -1.3151  0.6782
  146SAPE  C21816076   0.348  -0.303   8.866  0.0235  0.3680 -1.1590
  146SAPE  H18R16077   0.456  -0.313   8.893 -0.3808  1.5880  1.0898
  146SAPE  H18S16078   0.300  -0.232   8.936  0.3220 -0.1329 -0.4325
  146SAPE  C21916079   0.357  -0.256   8.721  0.4384 -0.5263 -0.5834
  146SAPE  H19R16080   0.432  -0.308   8.658  1.5838  2.7321 -2.1516
  146SAPE  H19S16081   0.392  -0.151   8.726  0.3180 -0.5134  0.0860
  146SAPE  C22016082   0.221  -0.263   8.641  0.6450 -0.5213  0.3949
  146SAPE  H20R16083   0.243  -0.230   8.538 -1.2212  0.6432  0.3294
  146SAPE  H20S16084   0.140  -0.197   8.679  1.3320 -0.6507  2.2298
  146SAPE  H20T16085   0.187  -0.368   8.630 -1.6214  0.3028 -1.1908
  146SAPE   C3316086   1.030  -0.437  10.172 -0.1819 -0.5348 -0.4721
  146SAPE   H3X16087   0.923  -0.467  10.170 -0.2114 -0.6651  1.4870
  146SAPE   H3Y16088   1.079  -0.520  10.227  1.0689  1.8754  2.3418
  146SAPE   C3416089   1.063  -0.418  10.025 -0.9027 -0.4007  0.7072
  146SAPE   H4X16090   0.985  -0.354   9.979 -0.6759  1.4831  2.7578
  146SAPE   H4Y16091   1.066  -0.512   9.966  2.3306  1.3958 -2.3938
  146SAPE   C3516092   1.192  -0.328  10.000  0.8273 -1.0324 -0.0233
  146SAPE   H5X16093   1.278  -0.375  10.051  1.0183 -0.2809  0.3549
  146SAPE   H5Y16094   1.175  -0.225  10.038  3.1213 -1.3930  2.2066
  146SAPE   C3616095   1.235  -0.326   9.853  0.1312  0.0704 -0.6938
  146SAPE   H6X16096   1.143  -0.338   9.793 -0.0731  3.9307 -1.4226
  146SAPE   H6Y16097   1.306  -0.409   9.834 -0.1635 -0.3773  0.1383
  146SAPE   C3716098   1.298  -0.193   9.817  0.2381 -0.7500 -0.4858
  146SAPE   H7X16099   1.223  -0.117   9.848 -0.9784 -1.3734 -1.7500
  146SAPE   H7Y16100   1.295  -0.192   9.706 -0.3639 -0.2204 -0.4766
  146SAPE   C3816101   1.434  -0.141   9.872  1.1515  0.2867  0.0147
  146SAPE   H8X16102   1.502  -0.226   9.849 -1.1476 -1.0909 -2.2495
  146SAPE   H8Y16103   1.437  -0.143   9.983  0.0737  0.0354  0.0526
  146SAPE   C3916104   1.465   0.004   9.821 -0.4102 -0.4877  0.3410
  146SAPE   H9X16105   1.380   0.073   9.839 -1.7662 -1.0414 -3.1507
  146SAPE   H9Y16106   1.462  -0.008   9.711  0.1730 -1.6879  0.4376
  146SAPE  C31016107   1.597   0.061   9.862  0.4173 -0.0333 -0.3254
  146SAPE  H10X16108   1.681   0.002   9.819 -0.3726  0.4496 -2.6422
  146SAPE  H10Y16109   1.595   0.062   9.973 -2.6930  1.6631 -0.2801
  146SAPE  C31116110   1.623   0.207   9.820  0.8568  0.3368  0.3488
  146SAPE  H11X16111   1.706   0.242   9.886  0.3638  1.8616  0.2133
  146SAPE  H11Y16112   1.527   0.258   9.845 -1.2162 -2.0168 -2.2214
  146SAPE  C31216113   1.660   0.223   9.674  0.5610 -0.2330 -0.4561
  146SAPE  H12X16114   1.583   0.185   9.604  2.9527 -1.1837 -2.7617
  146SAPE  H12Y16115   1.744   0.155   9.648  0.2775 -0.7092 -0.1313
  146SAPE  C31316116   1.683   0.369   9.634  0.3354 -0.6191  0.3741
  146SAPE  H13X16117   1.748   0.389   9.547  0.8777  2.8127  1.4142
  146SAPE  H13Y16118   1.742   0.408   9.719 -0.1963  2.5051 -0.5604
  146SAPE  C31416119   1.554   0.452   9.627  0.0391 -0.6393  0.3277
  146SAPE  H14X16120   1.574   0.561   9.620  1.5592 -0.9548 -0.7616
  146SAPE  H14Y16121   1.491   0.446   9.718  0.4784  1.0484  0.7876
  146SAPE  C31516122   1.469   0.426   9.502  0.0210  0.1347  0.1096
  146SAPE  H15X16123   1.370   0.477   9.509 -0.9520 -1.7523  0.6120
  146SAPE  H15Y16124   1.448   0.317   9.502 -3.5956  0.6628 -1.3229
  146SAPE  C31616125   1.545   0.475   9.379 -0.1210 -0.6148 -0.8978
  146SAPE  H16X16126   1.646   0.429   9.374  0.0527 -0.3407 -0.0763
  146SAPE  H16Y16127   1.553   0.585   9.393 -1.1549 -0.6309 -0.0278
  146SAPE  C31716128   1.458   0.458   9.257  0.3085 -0.4021 -0.0840
  146SAPE  H17X16129   1.352   0.479   9.282  0.7104  3.4021 -0.9964
  146SAPE  H17Y16130   1.461   0.351   9.230 -0.2485  0.1354 -2.4694
  146SAPE  C31816131   1.503   0.550   9.139 -0.5388  0.4415  0.8482
  146SAPE  H18X16132   1.431   0.536   9.055 -0.9434  0.2514  1.2265
  146SAPE  H18Y16133   1.606   0.521   9.107 -0.6338  1.6812 -0.7290
  146SAPE  H18Z16134   1.503   0.657   9.170 -0.9049  0.0146  2.4048
  147SAPE     N16135   2.712   3.513   6.325 -0.3312  0.4204  1.1428
  147SAPE   HN116136   2.625   3.484   6.374  0.2230 -1.0333  1.3007
  147SAPE   HN216137   2.721   3.616   6.312  1.0311 -0.0572 -2.9345
  147SAPE   HN316138   2.708   3.468   6.232 -0.5323  0.7303  1.0005
  147SAPE   C1216139   2.831   3.462   6.406 -0.0999  0.0170  0.1251
  147SAPE  H12A16140   2.845   3.527   6.495 -0.0458 -0.8493  0.7652
  147SAPE  H12B16141   2.916   3.460   6.334  0.7727 -0.5457  1.1241
  147SAPE   C1116142   2.808   3.308   6.439 -0.3399 -0.1652  0.0114
  147SAPE  H11A16143   2.720   3.295   6.505 -2.0335  0.7860 -1.9171
  147SAPE  H11B16144   2.895   3.267   6.495 -1.3533 -3.2715 -0.5297
  147SAPE     P16145   2.902   3.190   6.217  0.1791 -0.2852 -0.4005
  147SAPE   O1316146   2.861   3.073   6.142  0.3999 -0.3415  0.4513
  147SAPE   O1416147   2.944   3.307   6.138  0.0224 -0.2055  0.0069
  147SAPE   O1216148   2.789   3.232   6.320  0.2445 -0.1346 -0.2777
  147SAPE   O1116149   3.033   3.166   6.309 -0.1029 -0.0022 -0.3594
  147SAPE    C116150   3.109   3.045   6.315  0.1065 -0.2240  0.3687
  147SAPE    HA16151   3.082   2.981   6.228  0.5103  0.2727 -0.1250
  147SAPE    HB16152   3.216   3.068   6.299  0.3121  0.2500  2.1765
  147SAPE    C216153   3.086   2.965   6.447 -0.3039  0.3882 -0.1037
  147SAPE    HS16154   3.145   2.871   6.450  0.7540  0.9749 -1.6568
  147SAPE   O2116155   2.945   2.939   6.462  0.2076  0.1044  0.5599
  147SAPE   C2116156   2.899   2.842   6.382  0.4423  0.3615  0.1388
  147SAPE   O2216157   2.971   2.779   6.309 -0.2805 -0.3889  0.3513
  147SAPE   C2216158   2.748   2.834   6.380 -0.1278 -0.4931 -0.0481
  147SAPE   H2R16159   2.700   2.836   6.480 -1.9464  1.8257 -0.8791
  147SAPE   H2S16160   2.723   2.930   6.331  0.6330 -0.6306 -0.7320
  147SAPE    C316161   3.131   3.046   6.577 -0.3043  0.0749  0.5304
  147SAPE    HX16162   3.050   3.120   6.597 -0.9535 -0.9501  1.8480
  147SAPE    HY16163   3.225   3.101   6.558 -0.0008 -0.0835  1.5221
  147SAPE   O3116164   3.152   2.959   6.692  0.4439 -0.2500  0.1287
  147SAPE   C3116165   3.169   3.030   6.802 -1.0892  0.5023  1.1253
  147SAPE   O3216166   3.170   3.155   6.802  0.9465  0.2912 -0.2993
  147SAPE   C3216167   3.178   2.933   6.925  0.0670  0.1793 -0.1528
  147SAPE   H2X16168   3.187   2.827   6.894 -2.2581 -0.0061 -0.4042
  147SAPE   H2Y16169   3.078   2.941   6.972 -0.6986 -0.1730 -1.6524
  147SAPE   C2316170   2.698   2.722   6.299 -0.1275  0.7181  0.3141
  147SAPE   H3R16171   2.742   2.719   6.197  2.9439  0.0594  1.5562
  147SAPE   H3S16172   2.591   2.746   6.279  0.2075  1.4436 -0.7213
  147SAPE   C2416173   2.707   2.583   6.365 -0.0319 -0.6010  0.0498
  147SAPE   H4R16174   2.812   2.577   6.402  0.4047  1.7730 -0.5935
  147SAPE   H4S16175   2.687   2.505   6.289  1.2886  0.2276 -1.2061
  147SAPE   C2516176   2.611   2.577   6.486 -0.4092  0.0636  0.0228
  147SAPE   H5R16177   2.504   2.580   6.461 -0.0625  2.7507 -1.4622
  147SAPE   C2616178   2.638   2.580   6.625  0.5332 -0.3982  0.6634
  147SAPE   H6R16179   2.558   2.558   6.697  1.2457 -2.7904  0.7809
  147SAPE   C2716180   2.773   2.605   6.685  0.4970 -0.4239 -0.1634
  147SAPE   H7R16181   2.824   2.685   6.628 -3.8142  1.7417 -1.4243
  147SAPE   H7S16182   2.827   2.510   6.668 -1.5660 -1.6421 -0.3019
  147SAPE   C2816183   2.756   2.644   6.837 -0.2684 -0.3879  0.1041
  147SAPE   H8R16184   2.674   2.717   6.848  0.5891  0.7045 -0.4687
  147SAPE   C2916185   2.849   2.619   6.933 -0.5959  0.2065 -0.1917
  147SAPE   H9R16186   2.825   2.647   7.037  1.5656 -1.6262  0.8752
  147SAPE  C21016187   2.972   2.532   6.916  0.2468 -0.4038 -0.0588
  147SAPE  H10R16188   3.045   2.596   6.970 -2.5653  2.1761  0.9647
  147SAPE  H10S16189   3.008   2.524   6.812  0.4311 -0.3156 -0.0018
  147SAPE  C21116190   2.968   2.395   6.975  0.8811  0.0740 -0.3868
  147SAPE  H11R16191   2.915   2.318   6.917 -1.8561  0.1292  1.8226
  147SAPE  C21216192   3.006   2.357   7.096  0.7467 -0.2506 -0.0094
  147SAPE  H12R16193   2.997   2.253   7.130  0.5414 -0.2038  0.0769
  147SAPE  C21316194   3.055   2.455   7.202 -0.0579  0.5834  0.2685
  147SAPE  H13R16195   3.107   2.542   7.157  0.9181 -0.6824 -1.1258
  147SAPE  H13S16196   3.133   2.401   7.259 -1.0603 -0.3998  0.7467
  147SAPE  C21416197   2.936   2.508   7.285 -0.1213  0.4253 -0.0667
  147SAPE  H14R16198   2.842   2.496   7.229  0.4678  0.0603 -1.0015
  147SAPE  C21516199   2.921   2.556   7.415 -0.5832  0.1308 -0.8646
  147SAPE  H15R16200   2.821   2.597   7.435 -0.7774 -0.1681 -1.1937
  147SAPE  C21616201   3.039   2.577   7.509 -0.8384  0.2660 -0.3078
  147SAPE  H16R16202   3.043   2.687   7.519 -1.0289  0.2393  0.0439
  147SAPE  H16S16203   3.139   2.541   7.473 -1.4960 -1.1311 -0.8114
  147SAPE  C21716204   3.002   2.527   7.644  0.0979  0.4894 -0.3321
  147SAPE  H17R16205   2.977   2.419   7.643 -0.0123  0.4564  1.7449
  147SAPE  H17S16206   2.914   2.577   7.691  0.8794  0.5848  1.1032
  147SAPE  C21816207   3.112   2.535   7.748 -0.6785  0.2727 -0.1729
  147SAPE  H18R16208   3.136   2.642   7.762 -0.1177  0.1279 -0.0030
  147SAPE  H18S16209   3.209   2.490   7.720  1.1005  1.4706  3.3754
  147SAPE  C21916210   3.066   2.479   7.885 -0.2671 -0.0601 -0.0772
  147SAPE  H19R16211   3.030   2.374   7.877  0.8086 -0.3358 -1.7531
  147SAPE  H19S16212   2.985   2.539   7.930  0.3229 -0.4520  1.5662
  147SAPE  C22016213   3.182   2.489   7.988  0.2992  0.7194  0.2605
  147SAPE  H20R16214   3.207   2.596   8.006 -0.4383  0.9163  0.1408
  147SAPE  H20S16215   3.282   2.457   7.951  0.1521 -1.4128  1.5431
  147SAPE  H20T16216   3.160   2.426   8.077 -0.3551 -0.0982 -0.4606
  147SAPE   C3316217   3.287   2.988   7.026 -0.2508 -0.1170 -0.5212
  147SAPE   H3X16218   3.228   3.073   7.067 -1.8843 -0.5930 -1.7639
  147SAPE   H3Y16219   3.382   3.008   6.972 -0.1483 -2.7273 -1.4173
  147SAPE   C3416220   3.300   2.887   7.140  0.5323 -0.1239 -0.3117
  147SAPE   H4X16221   3.361   2.800   7.106 -0.6939 -0.1953 -2.4776
  147SAPE   H4Y16222   3.195   2.867   7.168  0.0233  0.1356 -1.9543
  147SAPE   C3516223   3.353   2.944   7.278 -0.1485  0.0647  0.8155
  147SAPE   H5X16224   3.277   3.017   7.312 -3.0094 -0.8284 -2.9634
  147SAPE   H5Y16225   3.453   2.991   7.266 -0.6056  0.9904  0.5501
  147SAPE   C3616226   3.358   2.838   7.392 -0.2819  0.0411  0.8626
  147SAPE   H6X16227   3.434   2.761   7.366 -0.4933  0.1833 -0.2113
  147SAPE   H6Y16228   3.260   2.786   7.392 -0.8748  0.9964 -1.8370
  147SAPE   C3716229   3.405   2.893   7.527 -0.1705 -0.1976 -0.1108
  147SAPE   H7X16230   3.334   2.974   7.555  2.2215  1.5773  1.3021
  147SAPE   H7Y16231   3.499   2.951   7.514 -1.3613  1.6232 -1.0629
  147SAPE   C3816232   3.416   2.798   7.642  0.2194 -0.2746 -0.0769
  147SAPE   H8X16233   3.512   2.742   7.639 -0.0705 -0.7402 -1.6760
  147SAPE   H8Y16234   3.345   2.715   7.621  0.5577 -0.5929  0.0105
  147SAPE   C3916235   3.396   2.859   7.777  0.2386 -0.1501 -0.1239
  147SAPE   H9X16236   3.288   2.855   7.806  0.4867 -0.5518  0.7824
  147SAPE   H9Y16237   3.430   2.964   7.783  0.8508 -0.3245 -0.5143
  147SAPE  C31016238   3.452   2.762   7.887 -0.5702 -0.2437  0.0543
  147SAPE  H10X16239   3.562   2.774   7.880 -0.6941  0.6305 -0.6108
  147SAPE  H10Y16240   3.436   2.654   7.865  0.9970 -0.5340  0.2221
  147SAPE  C31116241   3.402   2.790   8.032 -0.6867  0.0868 -0.0840
  147SAPE  H11X16242   3.291   2.790   8.037 -0.6622  1.0940  1.1796
  147SAPE  H11Y16243   3.437   2.893   8.053  0.3352 -0.7246  2.5593
  147SAPE  C31216244   3.460   2.698   8.141  0.1273  0.5151  0.1283
  147SAPE  H12X16245   3.424   2.597   8.111 -2.2488  0.9363  1.2937
  147SAPE  H12Y16246   3.418   2.725   8.241 -1.3960 -2.8648  0.5601
  147SAPE  C31316247   3.611   2.698   8.158 -0.5226 -0.1194  0.5560
  147SAPE  H13X16248   3.642   2.799   8.191 -1.9543  0.7494 -0.6179
  147SAPE  H13Y16249   3.664   2.667   8.065  0.0302  0.7430  0.5772
  147SAPE  C31416250   3.668   2.586   8.252 -0.2340 -0.8318 -0.8512
  147SAPE  H14X16251   3.777   2.595   8.270  0.1206 -0.3892 -2.9150
  147SAPE  H14Y16252   3.666   2.486   8.203 -0.9661 -0.7158 -1.0779
  147SAPE  C31516253   3.596   2.589   8.389  0.2760  0.5884  0.7109
  147SAPE  H15X16254   3.489   2.569   8.371 -0.0956  1.6461  1.6306
  147SAPE  H15Y16255   3.604   2.689   8.437 -0.4963  1.3365 -0.6888
  147SAPE  C31616256   3.672   2.501   8.498  0.0399  0.3098  0.6998
  147SAPE  H16X16257   3.621   2.534   8.591 -1.1563  1.3878 -0.3098
  147SAPE  H16Y16258   3.778   2.533   8.491  0.1044  1.5428  4.7687
  147SAPE  C31716259   3.648   2.346   8.481 -0.5890 -0.4949 -0.2239
  147SAPE  H17X16260   3.711   2.312   8.396  0.8171 -0.3688  0.7312
  147SAPE  H17Y16261   3.545   2.336   8.440 -1.8907  1.1017  2.3738
  147SAPE  C31816262   3.684   2.262   8.606  0.4419  0.5097  0.0045
  147SAPE  H18X16263   3.615   2.283   8.691 -0.8112 -2.7700 -0.0302
  147SAPE  H18Y16264   3.783   2.301   8.637 -0.5384  1.7258  1.7909
  147SAPE  H18Z16265   3.675   2.152   8.590 -4.1622  0.7648 -0.4082
  148SAPE     N16266   2.176   1.000   6.254  0.6467  0.4084 -0.0075
  148SAPE   HN116267   2.100   0.934   6.279  2.5146 -1.9751 -0.2480
  148SAPE   HN216268   2.164   1.092   6.301  1.1571 -0.5022  1.9830
  148SAPE   HN316269   2.171   0.998   6.150 -0.7129 -0.4427  0.0496
  148SAPE   C1216270   2.313   0.950   6.297 -0.5618 -0.8733  0.3352
  148SAPE  H12A16271   2.375   0.978   6.210  0.1405 -1.6085  0.5896
  148SAPE  H12B16272   2.306   0.839   6.306  1.1066 -1.1849 -1.6991
  148SAPE   C1116273   2.371   1.017   6.416 -0.8117  0.0686 -0.3902
  148SAPE  H11A16274   2.466   0.965   6.442 -1.4213 -0.3652  1.0720
  148SAPE  H11B16275   2.309   0.999   6.506  0.2771  1.5416  0.6959
  148SAPE     P16276   2.296   1.258   6.457  0.2448 -0.1238  0.1503
  148SAPE   O1316277   2.356   1.394   6.446  0.0295 -0.1296 -0.7411
  148SAPE   O1416278   2.165   1.237   6.390  0.2807 -0.2401  0.0776
  148SAPE   O1216279   2.394   1.157   6.384  0.0991 -0.2787  0.9057
  148SAPE   O1116280   2.302   1.222   6.608 -0.3427 -0.0848 -0.9776
  148SAPE    C116281   2.369   1.300   6.710 -0.1642  0.0686  0.1924
  148SAPE    HA16282   2.367   1.410   6.691 -0.0433  0.4317  2.0893
  148SAPE    HB16283   2.325   1.294   6.811  0.6033  1.3794  0.6397
  148SAPE    C216284   2.519   1.256   6.731  0.5469  0.2840 -0.5786
  148SAPE    HS16285   2.562   1.209   6.639 -0.1918 -2.8233  0.5331
  148SAPE   O2116286   2.525   1.159   6.836  0.2582 -0.3781  1.0011
  148SAPE   C2116287   2.640   1.091   6.840 -0.2311  0.4345 -0.1690
  148SAPE   O2216288   2.740   1.119   6.775 -0.1887  0.8467 -0.2825
  148SAPE   C2216289   2.641   0.980   6.947 -0.3492 -0.3681  0.1062
  148SAPE   H2R16290   2.587   0.892   6.905  0.3908 -1.2336  0.9256
  148SAPE   H2S16291   2.746   0.945   6.943  0.7405  2.6777 -2.8739
  148SAPE    C316292   2.617   1.375   6.766  0.6016  0.4290  0.5455
  148SAPE    HX16293   2.610   1.437   6.675 -0.1968 -1.3968 -0.6879
  148SAPE    HY16294   2.723   1.340   6.770  0.2626 -1.0013 -1.3730
  148SAPE   O3116295   2.566   1.444   6.881 -0.4961 -0.3308  0.0254
  148SAPE   C3116296   2.661   1.535   6.923 -0.3160  0.0384 -0.4397
  148SAPE   O3216297   2.766   1.555   6.867  0.1903 -0.4739  0.2251
  148SAPE   C3216298   2.604   1.618   7.038  0.1752  0.7024 -0.5494
  148SAPE   H2X16299   2.494   1.628   7.031  0.0043  1.1555  1.9287
  148SAPE   H2Y16300   2.648   1.719   7.022 -0.3442  0.6115 -2.8072
  148SAPE   C2316301   2.579   1.020   7.094  0.3790 -0.5339  0.4303
  148SAPE   H3R16302   2.478   1.058   7.067  1.7881  2.8875 -0.6044
  148SAPE   H3S16303   2.631   1.113   7.127 -0.8298 -1.0779  4.4275
  148SAPE   C2416304   2.596   0.927   7.209  0.4521 -0.0095  0.4094
  148SAPE   H4R16305   2.578   0.983   7.303  1.2707 -0.0448  0.5932
  148SAPE   H4S16306   2.705   0.908   7.207  0.4153 -0.1834 -0.6870
  148SAPE   C2516307   2.513   0.805   7.189  0.1610  0.1899 -0.3286
  148SAPE   H5R16308   2.524   0.748   7.095  0.3163 -0.6090  0.1649
  148SAPE   C2616309   2.432   0.748   7.276  0.8658 -0.0450 -0.7718
  148SAPE   H6R16310   2.383   0.655   7.243 -0.4716  1.3260 -2.9146
  148SAPE   C2716311   2.411   0.796   7.421  0.0310 -0.1194 -0.2650
  148SAPE   H7R16312   2.455   0.895   7.447  1.0251 -0.9066  1.1286
  148SAPE   H7S16313   2.461   0.725   7.489 -0.7592 -1.8385 -1.4197
  148SAPE   C2816314   2.267   0.797   7.453  0.0995 -0.4583  0.2530
  148SAPE   H8R16315   2.188   0.758   7.388 -1.3937 -2.1725  2.9445
  148SAPE   C2916316   2.215   0.836   7.571 -0.8262  0.4796 -0.1381
  148SAPE   H9R16317   2.106   0.835   7.586 -0.7513 -0.7144  0.3945
  148SAPE  C21016318   2.292   0.882   7.694 -0.3876  0.0199 -0.4444
  148SAPE  H10R16319   2.230   0.962   7.739 -0.2501 -0.1440  0.0396
  148SAPE  H10S16320   2.392   0.923   7.666 -0.0687 -1.1065 -1.0096
  148SAPE  C21116321   2.287   0.776   7.802 -0.2345 -0.0972 -0.1682
  148SAPE  H11R16322   2.203   0.707   7.785 -2.1650  2.6147 -2.6394
  148SAPE  C21216323   2.376   0.766   7.903 -0.6668  0.2506  0.0273
  148SAPE  H12R16324   2.381   0.683   7.976 -0.1737 -0.1162 -0.4122
  148SAPE  C21316325   2.487   0.861   7.934  0.1408 -0.2525  0.0022
  148SAPE  H13R16326   2.497   0.923   7.842  3.9215  0.5644  0.8181
  148SAPE  H13S16327   2.585   0.815   7.957  0.0541  0.3688  1.8328
  148SAPE  C21416328   2.444   0.954   8.052  0.4991 -0.2611 -0.0696
  148SAPE  H14R16329   2.374   1.031   8.017  0.4765  0.3520  1.2782
  148SAPE  C21516330   2.478   0.946   8.182 -0.4782  0.2960 -0.6408
  148SAPE  H15R16331   2.438   1.017   8.256  0.4853 -2.5284  2.9389
  148SAPE  C21616332   2.577   0.844   8.245  0.4506  0.7804  0.4514
  148SAPE  H16R16333   2.672   0.892   8.278  1.6137 -1.0502 -0.1167
  148SAPE  H16S16334   2.604   0.770   8.167  0.4059 -0.9152  1.9716
  148SAPE  C21716335   2.534   0.746   8.358 -0.7225  0.2288  0.0866
  148SAPE  H17R16336   2.608   0.663   8.370  0.1207  0.8057 -0.9121
  148SAPE  H17S16337   2.452   0.679   8.324  0.1106 -1.5248  1.3260
  148SAPE  C21816338   2.511   0.816   8.495 -0.1185 -0.0870  0.1588
  148SAPE  H18R16339   2.465   0.916   8.479 -0.5130 -0.5105 -1.5023
  148SAPE  H18S16340   2.609   0.840   8.542  0.7634 -1.5964 -0.8510
  148SAPE  C21916341   2.408   0.748   8.586  0.1858  0.4439  0.1289
  148SAPE  H19R16342   2.310   0.747   8.534 -0.5601  1.8821  1.4236
  148SAPE  H19S16343   2.398   0.822   8.668  1.6556  0.4712  0.3270
  148SAPE  C22016344   2.447   0.607   8.629 -0.1710 -0.3396 -0.4872
  148SAPE  H20R16345   2.443   0.533   8.546  1.2733  0.0236 -0.8958
  148SAPE  H20S16346   2.376   0.559   8.700 -0.4256  1.4643  0.5434
  148SAPE  H20T16347   2.548   0.605   8.674  0.4190  0.4015 -1.7192
  148SAPE   C3316348   2.641   1.543   7.171 -0.2826  0.5129 -0.0759
  148SAPE   H3X16349   2.597   1.600   7.255  2.3345  2.0633  0.3470
  148SAPE   H3Y16350   2.749   1.527   7.189  0.1292  0.5597 -2.2699
  148SAPE   C3416351   2.568   1.413   7.186 -0.5727  0.0277 -0.0541
  148SAPE   H4X16352   2.614   1.336   7.122  0.8383 -0.0397  0.9932
  148SAPE   H4Y16353   2.465   1.434   7.148 -0.0101  0.7546 -1.2254
  148SAPE   C3516354   2.556   1.354   7.329 -0.5220  0.5487  0.4526
  148SAPE   H5X16355   2.498   1.259   7.331  0.4880 -0.0824  2.3309
  148SAPE   H5Y16356   2.528   1.418   7.416  0.5076 -2.0839  2.8940
  148SAPE   C3616357   2.698   1.309   7.367 -0.2982 -0.9039 -0.2201
  148SAPE   H6X16358   2.753   1.403   7.386 -0.8202 -0.5307 -0.5242
  148SAPE   H6Y16359   2.733   1.257   7.275 -0.5301 -2.0261  0.2991
  148SAPE   C3716360   2.714   1.220   7.492  1.0072 -0.1386  0.8738
  148SAPE   H7X16361   2.821   1.195   7.510  0.9716 -1.2180 -0.2441
  148SAPE   H7Y16362   2.653   1.127   7.478 -0.0689  0.3409  2.1446
  148SAPE   C3816363   2.651   1.278   7.619  0.3045  0.2846  0.5498
  148SAPE   H8X16364   2.656   1.212   7.708 -0.2406 -2.0317 -1.0391
  148SAPE   H8Y16365   2.542   1.292   7.602 -0.0416 -2.3276  0.2612
  148SAPE   C3916366   2.714   1.408   7.671  0.1734 -0.2276 -0.0470
  148SAPE   H9X16367   2.691   1.486   7.595  0.2785  0.1192  0.2761
  148SAPE   H9Y16368   2.824   1.402   7.685  0.1370 -2.6111 -0.3392
  148SAPE  C31016369   2.647   1.453   7.805  0.0180 -0.6650 -0.4321
  148SAPE  H10X16370   2.664   1.374   7.882 -2.5590 -1.8195 -0.9266
  148SAPE  H10Y16371   2.536   1.453   7.799 -0.1233  0.3372  1.2924
  148SAPE  C31116372   2.685   1.588   7.861  0.5932 -0.5276  0.0288
  148SAPE  H11X16373   2.627   1.650   7.788  1.3137  0.9889  0.6960
  148SAPE  H11Y16374   2.792   1.617   7.857  1.1951 -2.1886  2.3423
  148SAPE  C31216375   2.633   1.620   8.003  0.1039 -0.0396 -0.4820
  148SAPE  H12X16376   2.529   1.582   8.007 -0.5331  1.7060  1.5259
  148SAPE  H12Y16377   2.632   1.731   8.013 -0.7294 -0.1246  0.5206
  148SAPE  C31316378   2.744   1.564   8.100  0.1562 -0.0508  0.5015
  148SAPE  H13X16379   2.838   1.622   8.090  0.2136 -0.2957 -0.4658
  148SAPE  H13Y16380   2.766   1.456   8.083 -1.8334 -0.6155  1.2528
  148SAPE  C31416381   2.708   1.588   8.254 -0.3829  0.5221  0.1048
  148SAPE  H14X16382   2.797   1.551   8.309 -0.0822  2.3691  0.9276
  148SAPE  H14Y16383   2.619   1.525   8.281  0.3071 -0.2238  0.7106
  148SAPE  C31516384   2.687   1.734   8.300  0.3566 -0.3973  0.1509
  148SAPE  H15X16385   2.591   1.778   8.266  0.2037 -0.4847  0.4673
  148SAPE  H15Y16386   2.770   1.787   8.249  0.0323  0.8628  0.8936
  148SAPE  C31616387   2.711   1.756   8.450  0.1542  1.1083  0.5087
  148SAPE  H16X16388   2.808   1.708   8.476 -0.7824 -1.1109  0.0852
  148SAPE  H16Y16389   2.635   1.701   8.509  1.6302 -1.4996  0.1220
  148SAPE  C31716390   2.725   1.907   8.483  0.2525 -0.2965 -0.0815
  148SAPE  H17X16391   2.817   1.953   8.440 -0.1875  2.0124  1.2743
  148SAPE  H17Y16392   2.732   1.923   8.592 -0.9400  0.4350 -0.0997
  148SAPE  C31816393   2.607   1.989   8.426  0.0491  0.5432  0.0274
  148SAPE  H18X16394   2.619   2.004   8.317 -0.9521  0.3296 -0.1199
  148SAPE  H18Y16395   2.600   2.084   8.484  3.4548  0.4039  0.9116
  148SAPE  H18Z16396   2.516   1.930   8.445  0.3919 -0.6082 -1.7020
  149SAPE     N16397   1.382   0.476   6.406  0.3407  0.3102  0.0432
  149SAPE   HN116398   1.351   0.400   6.470  3.2612  0.4165  1.6982
  149SAPE   HN216399   1.309   0.485   6.332  1.5821 -1.9339 -1.5762
  149SAPE   HN316400   1.476   0.466   6.363 -0.1241  1.9383 -1.5020
  149SAPE   C1216401   1.367   0.605   6.485  0.7016  0.1571 -0.4252
  149SAPE  H12A16402   1.441   0.605   6.568 -0.3488  0.9791  0.5499
  149SAPE  H12B16403   1.264   0.616   6.524  1.3543  3.6107  0.6848
  149SAPE   C1116404   1.393   0.718   6.385 -0.7210 -0.4737  0.3619
  149SAPE  H11A16405   1.367   0.813   6.437 -2.9087 -0.6151 -0.3589
  149SAPE  H11B16406   1.320   0.715   6.301  2.0716  4.0195 -2.7137
  149SAPE     P16407   1.661   0.758   6.395  0.1501  0.5222  0.2828
  149SAPE   O1316408   1.654   0.712   6.534  0.4363 -0.3598 -0.0514
  149SAPE   O1416409   1.780   0.714   6.314  0.0048  0.0553 -0.0134
  149SAPE   O1216410   1.521   0.711   6.327 -0.4767  0.2246  0.3098
  149SAPE   O1116411   1.649   0.913   6.384  0.4981 -0.3299 -1.2224
  149SAPE    C116412   1.756   1.003   6.407  0.0336 -0.0438  0.4598
  149SAPE    HA16413   1.843   0.981   6.340 -1.6510 -0.6629 -1.6526
  149SAPE    HB16414   1.720   1.100   6.368 -2.8020 -1.1603  0.0420
  149SAPE    C216415   1.807   1.016   6.553 -0.3923 -0.3726 -0.0333
  149SAPE    HS16416   1.857   0.918   6.564 -1.3588 -0.7331  1.6378
  149SAPE   O2116417   1.693   1.030   6.635  0.2630 -0.6277 -0.1503
  149SAPE   C2116418   1.710   0.969   6.748 -0.3544 -0.1506  0.7183
  149SAPE   O2216419   1.807   0.900   6.776 -0.3106 -0.2984 -0.0804
  149SAPE   C2216420   1.586   0.986   6.832 -0.3106  0.5874  0.1472
  149SAPE   H2R16421   1.630   0.954   6.929 -0.0525  0.6074  0.0369
  149SAPE   H2S16422   1.566   1.095   6.841 -1.3350  0.4510 -0.3455
  149SAPE    C316423   1.914   1.128   6.576 -0.4606 -0.3590 -0.0455
  149SAPE    HX16424   1.874   1.230   6.561 -0.6136 -0.3393  0.4694
  149SAPE    HY16425   1.994   1.127   6.499  0.5492 -1.4149  0.9820
  149SAPE   O3116426   1.970   1.132   6.715 -0.1082  0.1790  0.0106
  149SAPE   C3116427   2.064   1.037   6.724  0.0745 -0.4809 -0.6412
  149SAPE   O3216428   2.095   0.955   6.636 -0.5510 -0.3312  0.4735
  149SAPE   C3216429   2.143   1.069   6.850  0.4797  0.2936  0.2430
  149SAPE   H2X16430   2.169   1.177   6.844  1.1252  0.2190  1.4826
  149SAPE   H2Y16431   2.239   1.015   6.855  0.9197  1.0162 -0.1547
  149SAPE   C2316432   1.472   0.898   6.779 -1.0023  0.0331 -0.2114
  149SAPE   H3R16433   1.510   0.799   6.744  1.5336  0.7946  0.2472
  149SAPE   H3S16434   1.425   0.952   6.694 -0.3382 -1.1335 -1.3616
  149SAPE   C2416435   1.376   0.871   6.893  1.0349 -0.1734  0.2500
  149SAPE   H4R16436   1.275   0.855   6.849  0.8011  0.0025  0.7093
  149SAPE   H4S16437   1.374   0.965   6.953 -0.3163  0.9143 -1.4006
  149SAPE   C2516438   1.422   0.758   6.985 -0.0046  0.2281 -0.8722
  149SAPE   H5R16439   1.486   0.683   6.938  1.8412 -0.1069  1.9416
  149SAPE   C2616440   1.408   0.753   7.119  0.3709  0.1622 -0.0217
  149SAPE   H6R16441   1.441   0.658   7.166 -2.5147 -0.2966  1.2606
  149SAPE   C2716442   1.345   0.849   7.210  0.6282 -0.7284  0.2024
  149SAPE   H7R16443   1.344   0.944   7.153 -2.0177 -1.6227 -1.4027
  149SAPE   H7S16444   1.396   0.870   7.307 -0.8054  1.5395  0.5330
  149SAPE   C2816445   1.206   0.807   7.247  0.6057  0.3082  0.5132
  149SAPE   H8R16446   1.134   0.839   7.170  0.9842  0.4758  0.2246
  149SAPE   C2916447   1.157   0.749   7.354 -0.1159  0.1984  0.2981
  149SAPE   H9R16448   1.049   0.748   7.373  0.1318  3.3148  2.7506
  149SAPE  C21016449   1.239   0.707   7.474 -0.4191 -0.0540 -0.3621
  149SAPE  H10R16450   1.336   0.674   7.431  0.1293  0.8625  0.1480
  149SAPE  H10S16451   1.192   0.614   7.514  0.4121 -0.9696 -1.4774
  149SAPE  C21116452   1.257   0.818   7.582  0.0325  0.0686  0.0377
  149SAPE  H11R16453   1.318   0.903   7.548  0.3437  0.4483  1.4773
  149SAPE  C21216454   1.211   0.821   7.708  0.0631  0.8006 -0.0948
  149SAPE  H12R16455   1.227   0.910   7.770 -2.0636 -0.6696  2.7702
  149SAPE  C21316456   1.129   0.704   7.767  0.5251 -0.0534 -0.1739
  149SAPE  H13R16457   1.130   0.610   7.706 -2.1245 -1.0726  1.1634
  149SAPE  H13S16458   1.023   0.737   7.765  1.2273  2.3419  0.1618
  149SAPE  C21416459   1.154   0.676   7.912  0.1383  1.0139 -0.1775
  149SAPE  H14R16460   1.188   0.572   7.918 -0.8658  0.5259 -2.1483
  149SAPE  C21516461   1.127   0.753   8.024  1.0810  0.4926 -0.7335
  149SAPE  H15R16462   1.142   0.699   8.118  0.2806  0.0143 -0.8763
  149SAPE  C21616463   1.084   0.898   8.031 -0.4517  0.2142  0.0207
  149SAPE  H16R16464   1.027   0.906   8.127 -0.8673 -0.1181 -0.1955
  149SAPE  H16S16465   1.020   0.922   7.944  1.4104  3.3710 -0.6050
  149SAPE  C21716466   1.196   1.003   8.044 -0.8161  0.4127  0.5293
  149SAPE  H17R16467   1.147   1.094   8.082 -0.1481  1.7416 -1.6119
  149SAPE  H17S16468   1.248   1.014   7.946  0.1946 -1.0225  0.8638
  149SAPE  C21816469   1.307   0.965   8.152  0.5801  0.3795 -0.3629
  149SAPE  H18R16470   1.368   0.878   8.121  0.0558 -1.4679  3.2283
  149SAPE  H18S16471   1.257   0.928   8.244  1.9270 -1.1918 -0.2218
  149SAPE  C21916472   1.395   1.083   8.195 -0.3586 -0.2093  1.2628
  149SAPE  H19R16473   1.468   1.054   8.274  0.9384  0.2453  0.2815
  149SAPE  H19S16474   1.335   1.175   8.214  2.3437  2.2431 -0.9935
  149SAPE  C22016475   1.477   1.128   8.068 -0.2158  0.0421 -0.6612
  149SAPE  H20R16476   1.546   1.049   8.033  1.9269  0.4974  2.1506
  149SAPE  H20S16477   1.543   1.213   8.095  1.7410 -1.2080 -1.3213
  149SAPE  H20T16478   1.404   1.172   7.996 -2.3862 -0.5353  1.0536
  149SAPE   C3316479   2.063   1.017   6.975 -0.4642  0.1083  0.1661
  149SAPE   H3X16480   2.045   0.908   6.971  1.3649 -0.5204  3.9514
  149SAPE   H3Y16481   1.968   1.075   6.984 -1.0406 -0.2605 -2.6837
  149SAPE   C3416482   2.145   1.035   7.107  0.6061  0.1871  0.0199
  149SAPE   H4X16483   2.246   0.990   7.101  0.5745 -0.4406  2.8223
  149SAPE   H4Y16484   2.099   0.973   7.187 -0.4913  2.0551  0.9021
  149SAPE   C3516485   2.158   1.177   7.162 -0.8040 -0.4644  0.2496
  149SAPE   H5X16486   2.061   1.231   7.167 -1.0325 -0.9159  0.8948
  149SAPE   H5Y16487   2.226   1.236   7.097 -0.8922  2.1683  2.4008
  149SAPE   C3616488   2.219   1.184   7.307  0.0031  0.9089 -0.0680
  149SAPE   H6X16489   2.291   1.268   7.315  1.6482 -0.4839  0.5699
  149SAPE   H6Y16490   2.290   1.099   7.315 -0.0522  0.8376 -0.3160
  149SAPE   C3716491   2.112   1.164   7.416 -0.4588 -0.0977  1.0067
  149SAPE   H7X16492   2.084   1.056   7.414  2.2260 -0.8650  1.1829
  149SAPE   H7Y16493   2.022   1.224   7.390 -0.9373  0.1944  3.1809
  149SAPE   C3816494   2.182   1.213   7.544  0.0151 -0.4442 -0.3780
  149SAPE   H8X16495   2.197   1.322   7.529 -1.1154 -0.1084  0.7441
  149SAPE   H8Y16496   2.278   1.161   7.564  0.7155  1.3964  1.3235
  149SAPE   C3916497   2.090   1.204   7.667  0.2564 -0.2587  0.1444
  149SAPE   H9X16498   2.064   1.101   7.699 -1.4749  0.8091  2.4736
  149SAPE   H9Y16499   1.992   1.243   7.631  0.7582  1.5285  0.5820
  149SAPE  C31016500   2.129   1.293   7.786 -0.4160 -0.0339  0.5916
  149SAPE  H10X16501   2.061   1.271   7.871 -0.8369  0.2078  0.3217
  149SAPE  H10Y16502   2.100   1.395   7.755 -1.7019 -0.6774 -0.4330
  149SAPE  C31116503   2.277   1.292   7.818 -0.0036  0.3998 -0.2345
  149SAPE  H11X16504   2.339   1.328   7.733  0.4290  1.6595  0.5872
  149SAPE  H11Y16505   2.312   1.188   7.837 -1.4043  0.0355  0.4304
  149SAPE  C31216506   2.313   1.373   7.948  0.0906 -0.2946  0.4577
  149SAPE  H12X16507   2.284   1.479   7.928 -1.5236 -0.7870  0.0897
  149SAPE  H12Y16508   2.423   1.369   7.963  0.2227 -0.7069 -0.5720
  149SAPE  C31316509   2.239   1.320   8.068  0.1049 -0.4093 -0.0642
  149SAPE  H13X16510   2.248   1.210   8.077 -0.7362 -0.3842  1.4003
  149SAPE  H13Y16511   2.128   1.330   8.059  0.0669  0.8642  1.3855
  149SAPE  C31416512   2.284   1.383   8.204  0.1122  0.3292  0.1111
  149SAPE  H14X16513   2.389   1.350   8.222 -0.4363  0.1660  3.6524
  149SAPE  H14Y16514   2.222   1.343   8.287 -0.0930  0.2457 -0.0819
  149SAPE  C31516515   2.275   1.540   8.200  0.3499  0.0909  0.1890
  149SAPE  H15X16516   2.171   1.559   8.164  0.0728  1.1543  1.4642
  149SAPE  H15Y16517   2.344   1.578   8.122  0.5145  2.2450  1.3076
  149SAPE  C31616518   2.298   1.601   8.334  0.0509  0.8759 -0.1717
  149SAPE  H16X16519   2.354   1.697   8.330 -0.8227  1.3939 -0.1472
  149SAPE  H16Y16520   2.361   1.532   8.393  1.3334  0.6502 -1.7589
  149SAPE  C31716521   2.163   1.630   8.411 -0.7028  0.3226  0.3260
  149SAPE  H17X16522   2.080   1.558   8.394 -1.5845  1.5485 -0.7760
  149SAPE  H17Y16523   2.130   1.729   8.371  0.1057  0.4195 -0.1375
  149SAPE  C31816524   2.186   1.651   8.556 -0.5742 -0.6790 -0.9287
  149SAPE  H18X16525   2.081   1.663   8.593 -0.1983  2.4618 -0.6091
  149SAPE  H18Y16526   2.245   1.741   8.584 -2.2697  0.2876 -0.3137
  149SAPE  H18Z16527   2.245   1.570   8.605 -1.5628 -0.8967 -0.0443
  150SAPE     N16528   2.310   3.839   6.225  0.6966 -0.5734  0.1310
  150SAPE   HN116529   2.214   3.860   6.191  1.7296  1.1971 -1.8390
  150SAPE   HN216530   2.372   3.914   6.189  0.3180 -0.2479  0.1556
  150SAPE   HN316531   2.336   3.742   6.198 -0.8990 -0.4566 -2.0695
  150SAPE   C1216532   2.304   3.848   6.372 -0.2943 -0.2523 -0.3187
  150SAPE  H12A16533   2.227   3.925   6.399 -0.1810  0.7906 -2.7389
  150SAPE  H12B16534   2.400   3.881   6.416 -0.5329 -1.2833  1.0435
  150SAPE   C1116535   2.256   3.714   6.429  0.3332  0.3567  0.7765
  150SAPE  H11A16536   2.163   3.693   6.372 -0.6606  3.5366  1.0647
  150SAPE  H11B16537   2.227   3.723   6.536 -0.7363  0.4243  0.4932
  150SAPE     P16538   2.347   3.499   6.293 -0.7089  0.0096 -0.0882
  150SAPE   O1316539   2.325   3.579   6.171  0.1073  0.3136 -0.1506
  150SAPE   O1416540   2.464   3.406   6.293 -0.1063  0.2967 -0.5173
  150SAPE   O1216541   2.349   3.604   6.413  0.4445 -0.2282  0.4613
  150SAPE   O1116542   2.217   3.412   6.306  0.4040  0.1576  0.0912
  150SAPE    C116543   2.184   3.346   6.436 -0.0235  0.0490  0.3154
  150SAPE    HA16544   2.203   3.237   6.431 -1.6716 -0.2877  0.8716
  150SAPE    HB16545   2.239   3.397   6.518  1.1259 -1.1021  0.2963
  150SAPE    C216546   2.032   3.367   6.476  0.3271  0.5090 -0.1128
  150SAPE    HS16547   1.987   3.342   6.377  2.1492  1.2908 -1.1913
  150SAPE   O2116548   2.013   3.501   6.510  0.5602 -0.4315  0.4193
  150SAPE   C2116549   1.895   3.543   6.518  0.4482 -0.1186  0.4920
  150SAPE   O2216550   1.792   3.478   6.504 -0.8052  0.0380 -0.0333
  150SAPE   C2216551   1.901   3.694   6.553 -0.3139 -0.1344 -0.0002
  150SAPE   H2R16552   1.999   3.710   6.604  0.5205 -1.9050 -0.9414
  150SAPE   H2S16553   1.910   3.747   6.456  2.5905 -0.2843  0.0989
  150SAPE    C316554   1.987   3.255   6.579 -0.7054 -0.8578 -0.5900
  150SAPE    HX16555   2.002   3.159   6.526 -1.0108 -1.6668  0.7443
  150SAPE    HY16556   1.879   3.276   6.601  0.0521  0.7005  2.1737
  150SAPE   O3116557   2.064   3.255   6.701  0.2659  0.1435  0.2755
  150SAPE   C3116558   2.065   3.136   6.768 -0.3540 -0.0867 -0.3183
  150SAPE   O3216559   2.010   3.039   6.725 -0.0679  0.3518  0.3731
  150SAPE   C3216560   2.130   3.153   6.905  0.4266  0.3495 -0.0397
  150SAPE   H2X16561   2.058   3.211   6.967  0.5616  2.8759 -2.0761
  150SAPE   H2Y16562   2.212   3.226   6.888  1.7209 -0.9089  0.5321
  150SAPE   C2316563   1.772   3.738   6.622 -0.8862 -0.5386 -0.3853
  150SAPE   H3R16564   1.687   3.695   6.565 -1.5504 -0.6718  0.6722
  150SAPE   H3S16565   1.757   3.847   6.630 -3.3758 -0.7997 -0.9099
  150SAPE   C2416566   1.754   3.687   6.769  0.4765  0.3246  0.5122
  150SAPE   H4R16567   1.722   3.581   6.756 -1.5032  1.1816 -3.1431
  150SAPE   H4S16568   1.671   3.740   6.820  0.2052  1.7803 -1.3325
  150SAPE   C2516569   1.873   3.687   6.857 -0.3677  0.4773 -0.1177
  150SAPE   H5R16570   1.921   3.785   6.854 -1.0874  0.8852  0.9636
  150SAPE   C2616571   1.931   3.591   6.924 -0.3427 -0.0381 -0.3450
  150SAPE   H6R16572   2.019   3.627   6.979 -2.0487  2.0603  1.1705
  150SAPE   C2716573   1.906   3.442   6.946  0.1993 -0.0958  0.3231
  150SAPE   H7R16574   1.974   3.420   7.031 -0.6074 -0.7452  0.8050
  150SAPE   H7S16575   1.947   3.385   6.859  2.2400 -1.7897  2.2726
  150SAPE   C2816576   1.769   3.398   6.978  0.1624  0.6065 -0.2408
  150SAPE   H8R16577   1.720   3.364   6.885  0.6358  1.9514 -1.0159
  150SAPE   C2916578   1.706   3.408   7.095  0.4816 -0.8854  0.0990
  150SAPE   H9R16579   1.610   3.357   7.113  0.1636 -0.5891 -0.6986
  150SAPE  C21016580   1.759   3.474   7.220 -0.1628  0.4113  0.2633
  150SAPE  H10R16581   1.784   3.581   7.202  0.8211  0.1404 -0.0093
  150SAPE  H10S16582   1.859   3.436   7.249 -0.3942 -1.1898 -0.9295
  150SAPE  C21116583   1.665   3.458   7.337  0.6363 -0.2741  0.0060
  150SAPE  H11R16584   1.595   3.541   7.354  0.7927 -0.4744  1.7784
  150SAPE  C21216585   1.657   3.354   7.420  0.0894  0.6874  0.0123
  150SAPE  H12R16586   1.574   3.349   7.493 -0.4559  2.1524 -0.4729
  150SAPE  C21316587   1.749   3.234   7.421  0.0963  0.0623  0.4834
  150SAPE  H13R16588   1.743   3.190   7.319 -1.2492 -1.0987  1.0318
  150SAPE  H13S16589   1.706   3.160   7.492  0.7695  1.8059  2.8124
  150SAPE  C21416590   1.895   3.260   7.453 -0.2707 -0.0366 -0.5699
  150SAPE  H14R16591   1.960   3.249   7.366 -0.7070 -3.5126 -0.5995
  150SAPE  C21516592   1.955   3.277   7.577  0.2809  0.0095 -0.0680
  150SAPE  H15R16593   2.065   3.280   7.583  0.3118 -1.3818  0.4482
  150SAPE  C21616594   1.872   3.270   7.703  0.5762 -0.0616  0.2312
  150SAPE  H16R16595   1.871   3.164   7.736  0.3217  0.3531  1.6149
  150SAPE  H16S16596   1.772   3.305   7.670  1.5661  1.0089 -1.7953
  150SAPE  C21716597   1.916   3.359   7.834  0.4077 -0.0767 -0.1954
  150SAPE  H17R16598   1.830   3.374   7.903  1.2400 -0.0959  0.8710
  150SAPE  H17S16599   1.934   3.463   7.800  0.0994  0.5092  1.3352
  150SAPE  C21816600   2.034   3.315   7.919 -0.3965  0.0237 -0.6340
  150SAPE  H18R16601   2.119   3.291   7.852  0.2346  0.1158  0.1091
  150SAPE  H18S16602   2.015   3.215   7.964  0.0142 -0.1855 -0.9194
  150SAPE  C21916603   2.076   3.410   8.030  0.8006  0.2669  0.6494
  150SAPE  H19R16604   2.110   3.507   7.987 -0.3894  0.8032  0.8728
  150SAPE  H19S16605   2.168   3.362   8.071  1.2923  0.9492  0.3806
  150SAPE  C22016606   1.978   3.424   8.143  0.3109 -0.0871 -0.3894
  150SAPE  H20R16607   2.027   3.469   8.232 -0.9892 -1.2932  0.9850
  150SAPE  H20S16608   1.940   3.323   8.167 -1.2719  0.0299 -2.1174
  150SAPE  H20T16609   1.886   3.482   8.119  0.0594 -1.1202 -2.0894
  150SAPE   C3316610   2.174   3.024   6.977 -0.2625 -0.5294 -0.3893
  150SAPE   H3X16611   2.244   2.971   6.909 -1.6419 -1.2846 -1.2578
  150SAPE   H3Y16612   2.098   2.944   6.989  1.9214 -2.6332  0.3984
  150SAPE   C3416613   2.254   3.038   7.110 -0.1966 -0.2627 -0.0203
  150SAPE   H4X16614   2.344   3.103   7.122 -0.0568 -0.8117  2.4684
  150SAPE   H4Y16615   2.275   2.934   7.143  0.3457 -0.6612 -1.5146
  150SAPE   C3516616   2.158   3.086   7.217 -0.8530  0.0580 -0.1190
  150SAPE   H5X16617   2.070   3.018   7.211  0.2289 -1.6147  1.6647
  150SAPE   H5Y16618   2.127   3.192   7.206  0.8935  0.5473 -0.6016
  150SAPE   C3616619   2.219   3.061   7.359 -0.1182 -0.9212 -0.9678
  150SAPE   H6X16620   2.247   2.954   7.368 -0.2082 -0.8352  0.5652
  150SAPE   H6Y16621   2.143   3.081   7.438  2.2110  0.7055  1.0326
  150SAPE   C3716622   2.336   3.155   7.401  0.1676  0.2133  0.2945
  150SAPE   H7X16623   2.306   3.258   7.428  0.2338  0.1639  0.5619
  150SAPE   H7Y16624   2.399   3.164   7.310 -0.9118 -2.1785 -0.7826
  150SAPE   C3816625   2.406   3.105   7.526 -0.0792 -0.1849  0.0397
  150SAPE   H8X16626   2.510   3.141   7.540 -0.4360  0.7876  0.2088
  150SAPE   H8Y16627   2.413   2.994   7.525  0.6749 -0.1644  1.3315
  150SAPE   C3916628   2.329   3.145   7.652  0.2049  0.2665  0.5437
  150SAPE   H9X16629   2.220   3.124   7.647  0.5093 -1.1116 -2.4268
  150SAPE   H9Y16630   2.336   3.251   7.684 -2.2822  0.3413  1.0715
  150SAPE  C31016631   2.395   3.077   7.773  0.3865  0.1580  0.1381
  150SAPE  H10X16632   2.501   3.107   7.790  0.1009  0.7232  0.9931
  150SAPE  H10Y16633   2.405   2.969   7.749  2.2300  0.1128  0.9298
  150SAPE  C31116634   2.312   3.093   7.902 -0.3225 -0.2672  0.7691
  150SAPE  H11X16635   2.204   3.075   7.880 -1.0355 -1.1247  4.2824
  150SAPE  H11Y16636   2.335   3.197   7.932  2.2243  0.0273 -1.8363
  150SAPE  C31216637   2.351   3.000   8.019  0.0421  0.3838 -0.2328
  150SAPE  H12X16638   2.462   3.001   8.024 -0.0111  0.5777  1.6635
  150SAPE  H12Y16639   2.323   2.899   7.985 -1.0791  0.6316 -0.0821
  150SAPE  C31316640   2.279   3.040   8.145  0.2283 -0.1750  0.4302
  150SAPE  H13X16641   2.179   3.080   8.120  0.0371  0.9310  2.6912
  150SAPE  H13Y16642   2.332   3.119   8.201  0.8614  0.0023 -0.4069
  150SAPE  C31416643   2.241   2.923   8.237  0.4435  0.3824 -0.1551
  150SAPE  H14X16644   2.179   2.848   8.183  0.1660 -0.3753  1.1579
  150SAPE  H14Y16645   2.192   2.968   8.326  0.1055  1.4845 -0.8881
  150SAPE  C31516646   2.361   2.843   8.286 -0.3177  0.3443  0.4914
  150SAPE  H15X16647   2.454   2.904   8.284  0.9602 -1.5363  0.4284
  150SAPE  H15Y16648   2.368   2.755   8.218  0.3676  0.7432  0.0312
  150SAPE  C31616649   2.343   2.781   8.426 -0.0582  1.1970 -0.0189
  150SAPE  H16X16650   2.247   2.727   8.409  0.6667  0.2327 -1.2356
  150SAPE  H16Y16651   2.335   2.865   8.498  0.7011  0.7881  0.5638
  150SAPE  C31716652   2.441   2.664   8.470  0.2712 -0.7374  0.2316
  150SAPE  H17X16653   2.444   2.595   8.383 -0.4270 -0.4171 -0.0516
  150SAPE  H17Y16654   2.381   2.615   8.549  0.2180 -2.7089 -0.9569
  150SAPE  C31816655   2.579   2.717   8.516  0.4489  0.6665 -0.3518
  150SAPE  H18X16656   2.658   2.639   8.511  0.8823  0.8548  2.0618
  150SAPE  H18Y16657   2.578   2.760   8.619  1.7903  0.8782 -0.4101
  150SAPE  H18Z16658   2.623   2.803   8.461  0.3893  1.2261  0.4598
  151SAPE     N16659   4.634   0.738   6.264 -0.0339 -0.2310  0.4766
  151SAPE   HN116660   4.561   0.664   6.259 -2.7114  2.2900 -0.7196
  151SAPE   HN216661   4.705   0.729   6.189 -2.0877  2.2861 -2.0011
  151SAPE   HN316662   4.676   0.742   6.359  0.1340  0.2659  0.3855
  151SAPE   C1216663   4.579   0.869   6.235  0.1659 -0.5235 -0.3165
  151SAPE  H12A16664   4.551   0.862   6.128  0.9026  0.3827 -0.5823
  151SAPE  H12B16665   4.645   0.958   6.239 -1.4804  0.8416 -1.5167
  151SAPE   C1116666   4.441   0.892   6.316  0.1904 -0.8776  0.6422
  151SAPE  H11A16667   4.389   0.981   6.273  0.8111 -0.1460  1.3580
  151SAPE  H11B16668   4.470   0.926   6.417  0.3152 -1.3732  0.7703
  151SAPE     P16669   4.208   0.767   6.330  0.3730  0.5177 -0.1070
  151SAPE   O1316670   4.143   0.890   6.267 -0.0229 -0.4627 -0.1502
  151SAPE   O1416671   4.159   0.637   6.279  0.1271  1.1339  0.4877
  151SAPE   O1216672   4.364   0.778   6.311 -0.2496 -0.2457  0.5040
  151SAPE   O1116673   4.184   0.770   6.487 -0.1353 -0.6683 -0.2368
  151SAPE    C116674   4.277   0.706   6.570  0.4223  0.3848 -0.7116
  151SAPE    HA16675   4.310   0.611   6.523  0.6084 -1.0849  2.1641
  151SAPE    HB16676   4.370   0.765   6.585  1.2591 -1.0267 -0.1558
  151SAPE    C216677   4.220   0.686   6.712 -0.1851  0.3391  0.4460
  151SAPE    HS16678   4.279   0.739   6.790  0.9021 -2.3359  1.5935
  151SAPE   O2116679   4.218   0.548   6.741 -0.1230  0.0834 -0.5240
  151SAPE   C2116680   4.338   0.500   6.761 -0.1947 -0.7130  0.1665
  151SAPE   O2216681   4.443   0.570   6.748  0.1213  0.6816  0.2939
  151SAPE   C2216682   4.324   0.348   6.795  0.5543 -0.3066 -0.1085
  151SAPE   H2R16683   4.230   0.337   6.853  0.3432 -1.4683 -0.6445
  151SAPE   H2S16684   4.321   0.294   6.698  0.7554 -0.8202  0.1689
  151SAPE    C316685   4.085   0.750   6.729  0.5518 -0.7303  0.0822
  151SAPE    HX16686   4.023   0.710   6.646  0.1744 -1.0166  0.5030
  151SAPE    HY16687   4.100   0.857   6.704 -0.3373  0.2109  3.1568
  151SAPE   O3116688   4.032   0.743   6.864  0.1996 -0.6468  0.2613
  151SAPE   C3116689   3.931   0.654   6.883 -0.4515  0.1877  0.1555
  151SAPE   O3216690   3.881   0.585   6.797 -1.0586 -0.0111  0.1377
  151SAPE   C3216691   3.896   0.642   7.033  0.2892  0.5019 -0.0571
  151SAPE   H2X16692   3.818   0.563   7.038 -0.4956  0.8573 -3.6940
  151SAPE   H2Y16693   3.842   0.731   7.073 -1.1064 -0.6877  0.7918
  151SAPE   C2316694   4.441   0.298   6.879  0.9295 -0.1526 -0.1800
  151SAPE   H3R16695   4.528   0.300   6.809  0.9952  1.2244 -0.0896
  151SAPE   H3S16696   4.410   0.192   6.891 -0.6299  0.1881 -0.9216
  151SAPE   C2416697   4.490   0.361   7.006 -0.8349 -0.4703 -0.0985
  151SAPE   H4R16698   4.526   0.462   6.977  0.0572 -0.8744 -0.4668
  151SAPE   H4S16699   4.581   0.306   7.040 -0.3801 -0.0399 -0.5928
  151SAPE   C2516700   4.380   0.366   7.106  0.1348  0.1944  0.3231
  151SAPE   H5R16701   4.285   0.408   7.071  0.2961 -0.0701 -0.4607
  151SAPE   C2616702   4.393   0.327   7.236  0.6942 -0.1516  0.2023
  151SAPE   H6R16703   4.318   0.352   7.312 -0.3061  1.9832 -1.3769
  151SAPE   C2716704   4.523   0.283   7.306  0.1291  0.3286 -0.2508
  151SAPE   H7R16705   4.594   0.368   7.310 -2.8783  2.9882  1.5655
  151SAPE   H7S16706   4.573   0.209   7.241  0.3241  0.8012 -0.6372
  151SAPE   C2816707   4.503   0.217   7.443 -0.0011  0.1069 -0.2110
  151SAPE   H8R16708   4.473   0.111   7.436 -1.4630  0.3100  1.8420
  151SAPE   C2916709   4.510   0.273   7.564 -0.3656  0.5416 -0.4274
  151SAPE   H9R16710   4.468   0.216   7.648  0.4609  1.9871  1.0314
  151SAPE  C21016711   4.535   0.413   7.618 -0.8364 -0.7232 -0.1244
  151SAPE  H10R16712   4.458   0.432   7.696 -1.9091 -0.7406 -1.1576
  151SAPE  H10S16713   4.497   0.483   7.542 -0.5433  0.0517  0.4295
  151SAPE  C21116714   4.682   0.440   7.656  0.0656 -0.2993  0.3399
  151SAPE  H11R16715   4.743   0.450   7.565 -0.8881  2.8096 -0.0728
  151SAPE  C21216716   4.739   0.462   7.778  0.1028  0.2102 -0.5467
  151SAPE  H12R16717   4.848   0.460   7.792  0.3575 -1.1312 -2.4222
  151SAPE  C21316718   4.663   0.465   7.909  0.7365  0.2581 -0.3960
  151SAPE  H13R16719   4.567   0.521   7.902  0.9069  0.5743 -0.2147
  151SAPE  H13S16720   4.730   0.514   7.982  0.6314 -0.7590  0.4076
  151SAPE  C21416721   4.648   0.319   7.967 -0.2593 -0.6457 -0.0215
  151SAPE  H14R16722   4.666   0.237   7.896  0.9870 -0.2003 -0.2521
  151SAPE  C21516723   4.607   0.302   8.094 -0.1542  0.1760 -0.1143
  151SAPE  H15R16724   4.601   0.199   8.134  2.7057 -0.2628 -0.5725
  151SAPE  C21616725   4.566   0.412   8.192 -0.3736  0.5572 -0.9739
  151SAPE  H16R16726   4.462   0.450   8.197 -0.0097  1.4760  0.8580
  151SAPE  H16S16727   4.626   0.506   8.182 -0.2881  0.7594  1.0297
  151SAPE  C21716728   4.600   0.370   8.343  0.0199 -0.3218  0.7184
  151SAPE  H17R16729   4.611   0.465   8.399  0.9417  0.9422 -1.4848
  151SAPE  H17S16730   4.703   0.327   8.343 -0.2336 -0.9460  0.2242
  151SAPE  C21816731   4.510   0.254   8.392 -0.0557 -0.3575 -1.2117
  151SAPE  H18R16732   4.531   0.157   8.341  0.4748 -0.3700 -0.9843
  151SAPE  H18S16733   4.407   0.289   8.374 -0.5291  0.0690  1.7912
  151SAPE  C21916734   4.517   0.225   8.544 -0.0840 -0.0045 -0.1631
  151SAPE  H19R16735   4.621   0.214   8.582  0.3007  1.9592 -0.5176
  151SAPE  H19S16736   4.461   0.131   8.561 -1.4316  0.8580  0.3656
  151SAPE  C22016737   4.447   0.326   8.637 -0.2420 -0.1691  0.0860
  151SAPE  H20R16738   4.496   0.326   8.737  0.5406  1.8761 -0.2673
  151SAPE  H20S16739   4.456   0.431   8.603 -1.7869 -0.5413 -1.5987
  151SAPE  H20T16740   4.340   0.298   8.653 -0.2174  0.6120  1.8443
  151SAPE   C3316741   4.008   0.615   7.132 -0.0619  0.2794  0.0773
  151SAPE   H3X16742   4.085   0.696   7.127 -0.9664  1.0941 -1.2287
  151SAPE   H3Y16743   4.068   0.522   7.121  0.8499  0.3105  3.4896
  151SAPE   C3416744   3.963   0.614   7.280 -0.6637  0.0825  0.3866
  151SAPE   H4X16745   3.903   0.521   7.293 -0.9449  0.2255  0.1258
  151SAPE   H4Y16746   3.892   0.699   7.293 -0.4040  1.0275 -3.3441
  151SAPE   C3516747   4.078   0.619   7.385 -0.5388 -1.1949 -0.1915
  151SAPE   H5X16748   4.122   0.721   7.377 -0.5049 -1.2843 -1.4041
  151SAPE   H5Y16749   4.161   0.547   7.371  0.0947 -0.4381 -0.4022
  151SAPE   C3616750   4.036   0.604   7.528  0.3227  0.8079 -0.5592
  151SAPE   H6X16751   3.957   0.525   7.531 -1.1502  2.1986 -1.1954
  151SAPE   H6Y16752   3.970   0.690   7.553 -1.2619 -0.6604  0.5679
  151SAPE   C3716753   4.155   0.587   7.629  0.4208  0.2951  0.4138
  151SAPE   H7X16754   4.228   0.671   7.631  2.9830 -1.6369 -2.6878
  151SAPE   H7Y16755   4.207   0.490   7.616 -0.6554 -0.1884 -0.4200
  151SAPE   C3816756   4.097   0.568   7.773 -0.1115  0.3949  0.1588
  151SAPE   H8X16757   4.025   0.483   7.774  0.1868  0.1429  1.1589
  151SAPE   H8Y16758   4.030   0.652   7.803  0.5722  1.3148 -0.8023
  151SAPE   C3916759   4.204   0.551   7.878 -0.0460 -0.0312  0.6294
  151SAPE   H9X16760   4.288   0.482   7.851  0.5025  1.1015 -0.6838
  151SAPE   H9Y16761   4.140   0.505   7.956  0.2142 -0.4337  0.6106
  151SAPE  C31016762   4.257   0.681   7.929 -0.3472  0.0387  0.4321
  151SAPE  H10X16763   4.180   0.761   7.925 -0.8310 -0.4373  0.0289
  151SAPE  H10Y16764   4.338   0.718   7.863  0.4744 -0.5374  1.0891
  151SAPE  C31116765   4.301   0.681   8.066 -0.0630 -0.1934 -0.6586
  151SAPE  H11X16766   4.403   0.638   8.068 -0.1901 -0.5041 -0.8372
  151SAPE  H11Y16767   4.248   0.621   8.142  0.4989 -0.3094 -0.3562
  151SAPE  C31216768   4.302   0.819   8.130 -0.3650  0.5684 -0.1478
  151SAPE  H12X16769   4.298   0.808   8.240 -1.5722 -1.3132 -0.3501
  151SAPE  H12Y16770   4.206   0.869   8.105 -0.4825 -0.4388 -1.8402
  151SAPE  C31316771   4.430   0.896   8.098  0.0883 -0.4164 -0.6652
  151SAPE  H13X16772   4.440   0.916   7.989  0.9405 -1.0536 -0.7175
  151SAPE  H13Y16773   4.517   0.830   8.115  1.0605  1.1093  0.5169
  151SAPE  C31416774   4.428   1.039   8.164 -0.3391  0.0533  0.4669
  151SAPE  H14X16775   4.533   1.077   8.166  0.1773 -1.3073  0.3418
  151SAPE  H14Y16776   4.400   1.024   8.270 -0.5086  0.8273  0.5367
  151SAPE  C31516777   4.325   1.132   8.088 -0.6763 -0.0556  0.0361
  151SAPE  H15X16778   4.230   1.078   8.065 -0.4530 -0.8887  1.0252
  151SAPE  H15Y16779   4.370   1.160   7.990  1.3634  2.5364  1.5808
  151SAPE  C31616780   4.293   1.261   8.156  1.1706 -0.3555 -0.5921
  151SAPE  H16X16781   4.248   1.329   8.081  1.2606  0.3016 -0.0675
  151SAPE  H16Y16782   4.379   1.318   8.199 -0.9659  3.3841 -0.8397
  151SAPE  C31716783   4.181   1.256   8.266  0.1268  0.1305 -0.6670
  151SAPE  H17X16784   4.159   1.360   8.298  1.2547 -0.2823  1.6548
  151SAPE  H17Y16785   4.212   1.201   8.357  1.2039  1.5536 -0.1267
  151SAPE  C31816786   4.055   1.183   8.214 -0.3089 -0.6355 -0.4864
  151SAPE  H18X16787   3.980   1.155   8.291 -1.0949 -1.5008 -1.5440
  151SAPE  H18Y16788   4.085   1.086   8.170  1.3238 -1.1383  1.5589
  151SAPE  H18Z16789   4.014   1.246   8.133  0.9751 -0.8114 -1.2985
  152SAPE     N16790   1.849   5.030   6.029  0.0915 -0.5080  0.8943
  152SAPE   HN116791   1.828   5.095   5.950 -1.1934 -2.0765 -0.1241
  152SAPE   HN216792   1.810   5.065   6.119  0.8639 -0.3131  1.1596
  152SAPE   HN316793   1.952   5.016   6.032  0.2113 -0.0312 -0.1890
  152SAPE   C1216794   1.772   4.896   6.010  0.3433 -0.2158  0.2038
  152SAPE  H12A16795   1.788   4.860   5.906  0.3271  1.9620 -0.5903
  152SAPE  H12B16796   1.666   4.924   6.020  0.2529 -0.5850  0.3154
  152SAPE   C1116797   1.806   4.786   6.123 -0.1312 -0.1085  0.0896
  152SAPE  H11A16798   1.725   4.713   6.105  0.2612  0.1317 -3.5076
  152SAPE  H11B16799   1.783   4.818   6.227  0.0080  0.0941  0.0615
  152SAPE     P16800   2.057   4.778   6.163  0.0253 -0.0587 -0.1805
  152SAPE   O1316801   2.175   4.689   6.143 -0.1127 -0.3062 -0.0777
  152SAPE   O1416802   2.074   4.916   6.115  0.1462  0.2779  0.1113
  152SAPE   O1216803   1.930   4.725   6.088  0.7876  0.2827  0.2985
  152SAPE   O1116804   2.017   4.780   6.314 -0.1685  0.4584 -0.1795
  152SAPE    C116805   1.998   4.654   6.387  0.1404  0.9396 -0.2883
  152SAPE    HA16806   1.904   4.603   6.358 -0.2047  0.8185  0.9752
  152SAPE    HB16807   2.080   4.582   6.370 -1.1287 -0.7132  0.3286
  152SAPE    C216808   1.994   4.672   6.542  0.0261 -0.2912  0.6584
  152SAPE    HS16809   1.924   4.757   6.561 -0.8800 -0.4389 -1.7034
  152SAPE   O2116810   2.136   4.691   6.568 -0.1214 -0.1528 -0.7432
  152SAPE   C2116811   2.169   4.819   6.553 -0.3075 -0.0658 -0.1467
  152SAPE   O2216812   2.088   4.915   6.553 -0.2488  0.2791 -0.6910
  152SAPE   C2216813   2.321   4.837   6.534  0.0619 -0.3046 -0.6917
  152SAPE   H2R16814   2.373   4.781   6.615 -0.4736  1.1779  0.7443
  152SAPE   H2S16815   2.346   4.791   6.437 -0.5736 -0.4758 -0.7753
  152SAPE    C316816   1.933   4.554   6.625 -0.0827 -0.6491  0.3195
  152SAPE    HX16817   1.992   4.460   6.615  0.4145 -0.1753 -1.4773
  152SAPE    HY16818   1.835   4.521   6.586  0.0382 -0.4302 -0.1824
  152SAPE   O3116819   1.910   4.610   6.761 -0.2664 -0.1550  0.5051
  152SAPE   C3116820   1.991   4.556   6.856 -0.7426 -0.2800  0.3323
  152SAPE   O3216821   2.072   4.466   6.837  0.0225 -0.5132 -0.2378
  152SAPE   C3216822   1.978   4.640   6.980  0.1351 -0.1631 -0.1336
  152SAPE   H2X16823   1.966   4.750   6.970  0.2352 -0.1501 -0.1159
  152SAPE   H2Y16824   2.077   4.644   7.030 -0.6516 -1.6391  1.6428
  152SAPE   C2316825   2.367   4.985   6.538 -0.0429  0.8273  0.1167
  152SAPE   H3R16826   2.310   5.049   6.467 -1.7627 -0.6058  0.1340
  152SAPE   H3S16827   2.465   4.976   6.486  0.0837  0.8144  0.3586
  152SAPE   C2416828   2.395   5.054   6.673 -0.2513 -0.4370  0.3939
  152SAPE   H4R16829   2.451   5.148   6.652  0.8755 -0.8964  1.2550
  152SAPE   H4S16830   2.478   5.005   6.728 -1.3274 -1.4209  1.1794
  152SAPE   C2516831   2.272   5.083   6.752  0.0151 -0.7101  0.5781
  152SAPE   H5R16832   2.210   5.163   6.710  0.6074  0.1469  1.3128
  152SAPE   C2616833   2.228   5.018   6.862  0.5815 -0.4980  0.7810
  152SAPE   H6R16834   2.126   5.049   6.890  0.3140  0.7493 -1.3960
  152SAPE   C2716835   2.286   4.893   6.927 -0.1426  0.2331 -0.6773
  152SAPE   H7R16836   2.344   4.826   6.860 -0.0603 -1.3912  0.9294
  152SAPE   H7S16837   2.202   4.828   6.960 -1.7337  1.5274 -2.0146
  152SAPE   C2816838   2.380   4.938   7.031 -0.4844 -0.0400  0.1736
  152SAPE   H8R16839   2.461   5.006   6.999 -0.1932 -0.8666 -0.9105
  152SAPE   C2916840   2.375   4.907   7.160 -0.6326  0.2158 -0.2931
  152SAPE   H9R16841   2.448   4.953   7.228 -2.8390  2.2586  0.8945
  152SAPE  C21016842   2.273   4.824   7.235 -0.7780 -0.6550 -0.0298
  152SAPE  H10R16843   2.313   4.786   7.331  1.8915 -1.7940 -1.4698
  152SAPE  H10S16844   2.248   4.737   7.171 -0.1803 -0.7207 -0.1850
  152SAPE  C21116845   2.151   4.912   7.258  0.6515  0.8330  0.6188
  152SAPE  H11R16846   2.111   4.956   7.166  0.2968 -1.5472 -0.4488
  152SAPE  C21216847   2.064   4.921   7.359  0.1168  0.4399  0.0354
  152SAPE  H12R16848   1.976   4.985   7.350  0.3471  0.9543  1.2720
  152SAPE  C21316849   2.062   4.845   7.489  0.2355 -0.5040  0.6684
  152SAPE  H13R16850   1.969   4.885   7.534 -1.0570  0.7025 -2.7568
  152SAPE  H13S16851   2.141   4.881   7.559 -0.2127  1.4572  0.2411
  152SAPE  C21416852   2.063   4.692   7.492  0.1440 -0.6317  0.6170
  152SAPE  H14R16853   2.046   4.650   7.392 -0.2037  1.7019 -0.3628
  152SAPE  C21516854   2.062   4.604   7.595  0.5019 -0.1586  0.5755
  152SAPE  H15R16855   2.073   4.496   7.577  0.5806 -0.0312 -0.1978
  152SAPE  C21616856   2.069   4.648   7.741  0.0406  1.3527  0.2884
  152SAPE  H16R16857   1.966   4.636   7.782  0.9679 -0.0674  2.3624
  152SAPE  H16S16858   2.108   4.749   7.762 -0.0115  1.4388 -0.0199
  152SAPE  C21716859   2.163   4.560   7.813  0.2490 -0.4696  0.8349
  152SAPE  H17R16860   2.267   4.556   7.774 -0.7482 -2.5466 -1.9699
  152SAPE  H17S16861   2.122   4.457   7.797 -0.7831  0.1052 -0.3826
  152SAPE  C21816862   2.171   4.578   7.965 -0.1268 -0.2414  0.1672
  152SAPE  H18R16863   2.071   4.595   8.011  1.0663  3.0236  1.8840
  152SAPE  H18S16864   2.226   4.674   7.964  0.4592 -0.5759 -1.0999
  152SAPE  C21916865   2.235   4.462   8.036 -0.5896 -0.2548 -0.1150
  152SAPE  H19R16866   2.343   4.465   8.010 -1.0825 -2.2015 -2.8898
  152SAPE  H19S16867   2.201   4.363   7.998  1.2362 -0.0080 -2.6677
  152SAPE  C22016868   2.242   4.483   8.187  0.0691  0.5779  0.3948
  152SAPE  H20R16869   2.310   4.413   8.241  1.3920  1.9263  0.5275
  152SAPE  H20S16870   2.141   4.484   8.233 -0.7441  1.9971 -1.3151
  152SAPE  H20T16871   2.279   4.584   8.212 -1.3325  1.3147 -0.4314
  152SAPE   C3316872   1.874   4.576   7.080 -0.4914  0.1073  0.0741
  152SAPE   H3X16873   1.778   4.565   7.025 -0.8258 -1.8509  0.9424
  152SAPE   H3Y16874   1.861   4.646   7.166  1.5784 -0.6118  1.0366
  152SAPE   C3416875   1.919   4.448   7.148 -0.2164  0.2566  0.0081
  152SAPE   H4X16876   2.026   4.452   7.175 -0.5077 -1.3164  1.5634
  152SAPE   H4Y16877   1.907   4.369   7.071 -1.9172  0.6794 -0.2150
  152SAPE   C3516878   1.842   4.417   7.273  0.1422 -0.1215 -0.1490
  152SAPE   H5X16879   1.739   4.382   7.251 -0.3763  1.2118  0.0404
  152SAPE   H5Y16880   1.837   4.506   7.339  0.5535 -1.6397  2.0689
  152SAPE   C3616881   1.911   4.313   7.371  0.1846 -0.2907 -0.8222
  152SAPE   H6X16882   1.987   4.368   7.429 -0.3397  0.6317 -0.9855
  152SAPE   H6Y16883   1.954   4.234   7.306  0.0180 -2.4940  1.5737
  152SAPE   C3716884   1.806   4.264   7.470  0.0205  0.4325 -0.0930
  152SAPE   H7X16885   1.858   4.177   7.513 -1.0232 -0.5318 -0.7186
  152SAPE   H7Y16886   1.705   4.246   7.425  0.1363 -0.6518  0.0769
  152SAPE   C3816887   1.788   4.361   7.588  0.1488 -0.8109  0.5724
  152SAPE   H8X16888   1.738   4.453   7.551  1.9584  0.5861  1.4345
  152SAPE   H8Y16889   1.884   4.401   7.628  0.2265 -0.8534  0.4300
  152SAPE   C3916890   1.707   4.303   7.711  0.2225  0.1952 -0.3991
  152SAPE   H9X16891   1.717   4.372   7.797  1.4392 -1.9980  1.3348
  152SAPE   H9Y16892   1.756   4.205   7.733  1.4318  1.0439  0.8776
  152SAPE  C31016893   1.556   4.279   7.677  0.0728 -0.5991 -0.0519
  152SAPE  H10X16894   1.551   4.208   7.591  0.8915 -0.7085 -0.0122
  152SAPE  H10Y16895   1.520   4.380   7.648  0.3579 -0.3404  0.4901
  152SAPE  C31116896   1.466   4.219   7.787  0.2566  0.2701  0.0894
  152SAPE  H11X16897   1.359   4.210   7.760  0.4491 -1.0909 -0.2820
  152SAPE  H11Y16898   1.459   4.294   7.869  0.8276 -0.1118  0.4975
  152SAPE  C31216899   1.525   4.079   7.827 -0.8364 -0.2558  0.4906
  152SAPE  H12X16900   1.618   4.093   7.886  0.7994  1.6229 -2.3159
  152SAPE  H12Y16901   1.555   4.026   7.734 -0.5628 -1.9505  1.5040
  152SAPE  C31316902   1.414   4.004   7.898  0.4442  0.0722  0.0984
  152SAPE  H13X16903   1.454   3.900   7.899 -1.2886 -0.6481 -0.8886
  152SAPE  H13Y16904   1.322   4.005   7.836  0.0804  0.2892  0.6382
  152SAPE  C31416905   1.384   4.054   8.042  0.5970 -0.2653  0.1029
  152SAPE  H14X16906   1.330   4.150   8.033  0.6438 -0.2023  0.4910
  152SAPE  H14Y16907   1.486   4.088   8.068  0.7016  1.5599 -2.3039
  152SAPE  C31516908   1.311   3.962   8.136 -0.3586 -0.2920 -0.2301
  152SAPE  H15X16909   1.361   3.863   8.139 -2.3734 -1.3694 -0.2625
  152SAPE  H15Y16910   1.219   3.937   8.080  0.2669 -3.0372 -0.1890
  152SAPE  C31616911   1.303   4.019   8.282 -0.7313  0.1402 -0.4408
  152SAPE  H16X16912   1.280   4.126   8.266  0.3914  0.1416 -2.4240
  152SAPE  H16Y16913   1.404   4.035   8.325 -1.4673  1.1887  0.9694
  152SAPE  C31716914   1.201   3.963   8.383 -0.1734 -0.4681  0.3857
  152SAPE  H17X16915   1.247   3.867   8.414  3.7890  0.8530 -0.8605
  152SAPE  H17Y16916   1.106   3.941   8.329 -1.9976  2.4604  2.1368
  152SAPE  C31816917   1.174   4.057   8.497  0.5025  0.0349 -0.6164
  152SAPE  H18X16918   1.137   4.151   8.451 -1.9333 -1.3136 -1.5967
  152SAPE  H18Y16919   1.268   4.062   8.557  0.5893 -0.3431 -0.7188
  152SAPE  H18Z16920   1.093   4.012   8.559 -0.5663  1.1365 -1.1885
  153SAPE     N16921   4.503   4.976   6.289 -0.4100  0.6785 -0.1254
  153SAPE   HN116922   4.467   4.880   6.272  2.6478 -0.5260 -0.5687
  153SAPE   HN216923   4.426   5.045   6.297  0.5663  1.7752  0.1708
  153SAPE   HN316924   4.559   5.006   6.206 -0.7899  0.4858 -0.4527
  153SAPE   C1216925   4.579   4.992   6.420  0.1411  0.2546  0.0547
  153SAPE  H12A16926   4.508   4.956   6.498  2.0183 -2.5893  0.6242
  153SAPE  H12B16927   4.614   5.097   6.427  1.4558 -0.1793  0.4091
  153SAPE   C1116928   4.712   4.916   6.419 -0.0551  0.2881  0.3057
  153SAPE  H11A16929   4.755   4.929   6.521 -1.7574 -0.6090  1.1676
  153SAPE  H11B16930   4.780   4.957   6.341 -1.2487  1.2747 -0.2566
  153SAPE     P16931   4.810   4.684   6.328 -0.1651 -0.0478  0.5546
  153SAPE   O1316932   4.764   4.543   6.326  0.7129 -0.4395  0.8129
  153SAPE   O1416933   4.858   4.734   6.198 -0.7021  0.3147 -0.2819
  153SAPE   O1216934   4.696   4.778   6.397  0.5181  0.2199  0.7614
  153SAPE   O1116935   4.923   4.698   6.440  0.7405  0.1268 -0.2455
  153SAPE    C116936   5.006   4.809   6.469 -0.1805  0.9093  0.2987
  153SAPE    HA16937   4.988   4.886   6.392 -0.5590 -0.7674 -1.3575
  153SAPE    HB16938   4.965   4.849   6.565 -0.1171  0.5540  0.4753
  153SAPE    C216939   5.152   4.746   6.469  1.3977 -0.3132  0.9264
  153SAPE    HS16940   5.169   4.713   6.364 -2.2868  0.8439 -0.2013
  153SAPE   O2116941   5.164   4.638   6.560  0.2974  0.4608 -0.3198
  153SAPE   C2116942   5.268   4.561   6.545 -0.3609  0.9482  0.4158
  153SAPE   O2216943   5.347   4.571   6.450 -0.2886  0.1149  0.0653
  153SAPE   C2216944   5.284   4.459   6.656  0.1861 -0.1769  0.1906
  153SAPE   H2R16945   5.230   4.495   6.746 -1.2913  0.0776 -0.7604
  153SAPE   H2S16946   5.224   4.370   6.628 -0.6753  0.6213 -0.5558
  153SAPE    C316947   5.247   4.859   6.511 -0.4486  0.5541 -0.2784
  153SAPE    HX16948   5.231   4.956   6.459  4.2882  0.7861 -1.7982
  153SAPE    HY16949   5.353   4.837   6.484 -0.8105 -2.0598  0.1299
  153SAPE   O3116950   5.218   4.873   6.652  0.3895  0.3683  0.2465
  153SAPE   C3116951   5.317   4.852   6.743  0.2670  0.5560 -0.0664
  153SAPE   O3216952   5.430   4.835   6.716 -0.1654 -0.6525  0.1313
  153SAPE   C3216953   5.263   4.866   6.890  0.2965  0.0007  0.4845
  153SAPE   H2X16954   5.248   4.759   6.915  0.6261  0.0285  0.8229
  153SAPE   H2Y16955   5.166   4.919   6.880  0.7546  0.4926 -1.8789
  153SAPE   C2316956   5.431   4.412   6.686  0.3558 -0.1368 -0.1857
  153SAPE   H3R16957   5.482   4.504   6.721 -0.6386  0.3639 -0.0086
  153SAPE   H3S16958   5.483   4.381   6.593 -0.3681  1.5647 -1.1920
  153SAPE   C2416959   5.429   4.296   6.789  0.2166 -0.1663  0.1883
  153SAPE   H4R16960   5.375   4.210   6.745 -1.3629 -0.4836  2.5408
  153SAPE   H4S16961   5.359   4.320   6.873  1.4598 -1.7898  1.7649
  153SAPE   C2516962   5.568   4.266   6.853 -0.1175 -0.9329  0.3339
  153SAPE   H5R16963   5.636   4.246   6.768 -1.4900 -4.1346 -0.1308
  153SAPE   C2616964   5.611   4.267   6.980 -0.3709  0.3678 -0.0510
  153SAPE   H6R16965   5.719   4.250   6.996  0.1729  1.2413 -2.4045
  153SAPE   C2716966   5.530   4.299   7.103  0.5365  0.9949  0.5792
  153SAPE   H7R16967   5.554   4.228   7.184 -0.7345 -0.0219  0.0975
  153SAPE   H7S16968   5.423   4.297   7.076  1.0451 -0.9934 -1.6548
  153SAPE   C2816969   5.538   4.444   7.147  0.2507 -0.1774  0.1490
  153SAPE   H8R16970   5.514   4.517   7.069  0.8362  0.1953  0.3173
  153SAPE   C2916971   5.572   4.487   7.271  0.0254 -0.5856 -0.8793
  153SAPE   H9R16972   5.580   4.596   7.283 -2.6813 -0.3003 -1.1609
  153SAPE  C21016973   5.618   4.394   7.383  0.1477 -0.0228  0.6880
  153SAPE  H10R16974   5.718   4.357   7.353 -0.0380  0.7515 -1.0231
  153SAPE  H10S16975   5.554   4.304   7.388  0.1054 -0.2550 -2.2467
  153SAPE  C21116976   5.628   4.449   7.523 -0.7099  0.8653  0.1511
  153SAPE  H11R16977   5.644   4.558   7.531  2.8170  0.3281  2.7767
  153SAPE  C21216978   5.620   4.376   7.633 -0.0089  0.8490 -0.7310
  153SAPE  H12R16979   5.620   4.432   7.727  4.0989  1.8267 -1.1491
  153SAPE  C21316980   5.599   4.220   7.643 -0.2555 -0.3229  0.9746
  153SAPE  H13R16981   5.510   4.191   7.583 -0.4606  0.4769  0.8760
  153SAPE  H13S16982   5.564   4.197   7.746  0.3030 -0.0419  1.2285
  153SAPE  C21416983   5.715   4.146   7.587  0.4844 -0.8406  0.9982
  153SAPE  H14R16984   5.719   4.129   7.478 -1.5716  0.6586  0.6316
  153SAPE  C21516985   5.811   4.081   7.659  0.1724 -0.7178 -0.7760
  153SAPE  H15R16986   5.876   4.011   7.605 -2.3879 -0.8514 -4.0125
  153SAPE  C21616987   5.824   4.084   7.812  0.7217 -0.7622  0.7435
  153SAPE  H16R16988   5.747   4.018   7.858  0.5861 -0.8080  0.4561
  153SAPE  H16S16989   5.826   4.189   7.848  1.7325 -0.7625  0.7060
  153SAPE  C21716990   5.965   4.033   7.864 -0.0588 -0.0935  0.3280
  153SAPE  H17R16991   5.966   4.039   7.975 -0.0286  0.5562  0.2978
  153SAPE  H17S16992   6.050   4.084   7.813  1.2993 -0.6538  1.9290
  153SAPE  C21816993   5.978   3.876   7.846  0.9484 -0.1043 -0.1683
  153SAPE  H18R16994   6.008   3.858   7.740 -1.4844 -0.2659 -0.9028
  153SAPE  H18S16995   5.876   3.836   7.868  1.5226 -0.3117  2.3419
  153SAPE  C21916996   6.084   3.808   7.928 -0.3488  0.5787 -0.7261
  153SAPE  H19R16997   6.108   3.714   7.875  0.6628 -0.0552  0.7933
  153SAPE  H19S16998   6.049   3.786   8.032 -0.9999  2.3015 -0.5407
  153SAPE  C22016999   6.209   3.898   7.933 -0.6286 -0.4346  0.2039
  153SAPE  H20R17000   6.199   3.993   7.988  0.2668 -0.9875  1.3454
  153SAPE  H20S17001   6.239   3.924   7.829 -0.0735  0.1383  0.5044
  153SAPE  H20T17002   6.293   3.846   7.983  1.7568  1.2484 -1.7780
  153SAPE   C3317003   5.354   4.927   7.000 -0.8100  0.1503 -0.3407
  153SAPE   H3X17004   5.349   5.038   6.996  2.2665  0.5112  2.3097
  153SAPE   H3Y17005   5.458   4.909   6.966 -0.5046  0.5117  0.3726
  153SAPE   C3417006   5.336   4.866   7.134  0.2061  0.1711  0.1624
  153SAPE   H4X17007   5.332   4.755   7.131  1.8727  0.0026  1.9338
  153SAPE   H4Y17008   5.237   4.893   7.177  0.4414  2.2232 -0.4773
  153SAPE   C3517009   5.436   4.897   7.237  0.2712 -0.7766 -0.6005
  153SAPE   H5X17010   5.433   5.006   7.262  0.1084 -0.8795 -0.1627
  153SAPE   H5Y17011   5.530   4.870   7.185 -0.0238 -0.1168 -1.4980
  153SAPE   C3617012   5.404   4.835   7.374 -0.1680  0.2094  0.2669
  153SAPE   H6X17013   5.400   4.724   7.370 -2.4439  0.2497 -2.8582
  153SAPE   H6Y17014   5.304   4.871   7.405  0.3764 -0.2496  2.7598
  153SAPE   C3717015   5.501   4.885   7.483 -0.4295 -0.2344 -0.2931
  153SAPE   H7X17016   5.502   4.994   7.504  1.1675 -0.2544 -0.1329
  153SAPE   H7Y17017   5.607   4.856   7.466 -0.2854  0.4832 -0.6451
  153SAPE   C3817018   5.472   4.817   7.618  0.3344  0.4891  0.1746
  153SAPE   H8X17019   5.444   4.710   7.608  2.2469 -0.0834  0.4762
  153SAPE   H8Y17020   5.382   4.863   7.664 -0.0640 -0.9525  0.8872
  153SAPE   C3917021   5.594   4.828   7.707 -0.0147 -0.0269  0.7763
  153SAPE   H9X17022   5.641   4.929   7.709 -2.1078  1.0292  0.2411
  153SAPE   H9Y17023   5.664   4.752   7.667 -0.6205  0.5899 -1.6121
  153SAPE  C31017024   5.542   4.779   7.839 -0.5699 -0.2919 -0.0432
  153SAPE  H10X17025   5.455   4.711   7.823 -0.6583 -0.0452 -0.6356
  153SAPE  H10Y17026   5.498   4.871   7.881  1.1448  0.2335  0.6493
  153SAPE  C31117027   5.641   4.740   7.955  0.7447 -0.3905 -0.1841
  153SAPE  H11X17028   5.605   4.777   8.053 -0.0451  0.4458 -0.7768
  153SAPE  H11Y17029   5.735   4.785   7.917  0.0701  1.4652  0.2803
  153SAPE  C31217030   5.658   4.588   7.979 -0.1703  0.2521  0.0640
  153SAPE  H12X17031   5.715   4.574   8.074 -2.1424 -0.2021  1.2386
  153SAPE  H12Y17032   5.724   4.539   7.905 -1.1717  2.3206 -2.3302
  153SAPE  C31317033   5.525   4.509   7.990  0.2850  0.1717  0.2891
  153SAPE  H13X17034   5.465   4.524   7.897  0.2611  2.0624  0.5708
  153SAPE  H13Y17035   5.470   4.559   8.072 -1.1669 -2.2998  0.8949
  153SAPE  C31417036   5.541   4.364   8.023  0.1174 -0.7692  0.1218
  153SAPE  H14X17037   5.617   4.355   8.103  0.5704 -0.1842 -0.2333
  153SAPE  H14Y17038   5.578   4.312   7.932 -0.1821 -1.7638  0.5543
  153SAPE  C31517039   5.413   4.290   8.070 -0.6369 -0.1747  0.0658
  153SAPE  H15X17040   5.384   4.324   8.172 -1.3118 -0.4236 -0.0392
  153SAPE  H15Y17041   5.421   4.180   8.075 -0.4122 -0.1808 -0.3795
  153SAPE  C31617042   5.296   4.313   7.974 -0.3913 -0.3556 -0.3264
  153SAPE  H16X17043   5.319   4.281   7.870 -1.2149 -0.8609 -0.3646
  153SAPE  H16Y17044   5.284   4.423   7.973 -1.7989 -0.4053  2.1612
  153SAPE  C31717045   5.168   4.246   8.024 -0.3588  0.1143  0.1961
  153SAPE  H17X17046   5.193   4.162   8.093  0.8706 -1.8351 -2.4308
  153SAPE  H17Y17047   5.122   4.195   7.937  1.1430 -1.5496  0.3216
  153SAPE  C31817048   5.057   4.343   8.071  0.4316 -0.9097  0.1849
  153SAPE  H18X17049   5.090   4.406   8.157  1.0349 -0.7123 -0.1810
  153SAPE  H18Y17050   4.968   4.285   8.101 -2.2925  2.3081 -1.0412
  153SAPE  H18Z17051   5.034   4.415   7.990  0.6593 -0.8947  0.1305
  154SAPE     N17052   4.608   4.336   6.239 -0.0606  0.0181 -0.2808
  154SAPE   HN117053   4.624   4.424   6.291  0.2893 -0.5243  0.5552
  154SAPE   HN217054   4.690   4.288   6.196 -0.5776 -1.8083  0.6951
  154SAPE   HN317055   4.544   4.369   6.163 -0.3522  0.2938  0.0821
  154SAPE   C1217056   4.516   4.253   6.319  0.2802 -0.8814 -0.0291
  154SAPE  H12A17057   4.428   4.321   6.328  0.1113 -0.9256 -1.2806
  154SAPE  H12B17058   4.558   4.237   6.421 -0.4754  3.6984  1.2186
  154SAPE   C1117059   4.479   4.123   6.243  0.4165 -0.2475  0.2938
  154SAPE  H11A17060   4.423   4.061   6.317 -1.6629  1.3773  0.1774
  154SAPE  H11B17061   4.574   4.074   6.212  1.5525  0.6887  2.1298
  154SAPE     P17062   4.337   4.021   6.042  0.2201  0.5419 -0.0353
  154SAPE   O1317063   4.248   4.079   5.935  0.5789  0.0440 -0.3106
  154SAPE   O1417064   4.441   3.925   5.998 -0.0648 -0.5365 -0.3826
  154SAPE   O1217065   4.407   4.142   6.119 -0.1830 -0.7170 -0.1760
  154SAPE   O1117066   4.251   3.964   6.160  0.0366 -0.1180  0.2217
  154SAPE    C117067   4.113   4.009   6.163  0.3493  0.6786 -0.4879
  154SAPE    HA17068   4.084   4.091   6.093 -1.0629  0.3012 -0.3802
  154SAPE    HB17069   4.049   3.919   6.150  2.0334 -0.8758  1.2808
  154SAPE    C217070   4.072   4.073   6.297 -0.2621  0.3542  0.0843
  154SAPE    HS17071   4.157   4.139   6.325  1.0374 -1.5793  0.8723
  154SAPE   O2117072   4.049   3.958   6.380 -0.0278  0.7879 -0.4157
  154SAPE   C2117073   4.116   3.969   6.493  0.1329  1.1830 -1.0278
  154SAPE   O2217074   4.182   4.061   6.535  0.0220 -0.5446  0.6579
  154SAPE   C2217075   4.115   3.831   6.567  0.4933  0.4106 -0.1039
  154SAPE   H2R17076   4.043   3.761   6.519 -1.1497  1.2427  1.0728
  154SAPE   H2S17077   4.214   3.781   6.555 -0.1694 -0.9406 -0.2261
  154SAPE    C317078   3.939   4.161   6.288 -0.7942 -1.1443  0.1009
  154SAPE    HX17079   3.876   4.098   6.221 -5.1923  2.4109  0.4104
  154SAPE    HY17080   3.969   4.254   6.236  1.7964 -0.9516  1.7553
  154SAPE   O3117081   3.882   4.169   6.419  1.1188  0.1152 -0.0357
  154SAPE   C3117082   3.767   4.233   6.420 -0.0004 -0.7523  0.5354
  154SAPE   O3217083   3.706   4.289   6.326 -0.4671  0.6717  0.5580
  154SAPE   C3217084   3.722   4.252   6.560  0.5094 -0.2393 -0.1098
  154SAPE   H2X17085   3.617   4.214   6.555  1.1328 -2.1177  0.0292
  154SAPE   H2Y17086   3.729   4.361   6.577  0.4392 -0.0140 -1.3962
  154SAPE   C2317087   4.089   3.856   6.717  0.1806  0.3675  0.3249
  154SAPE   H3R17088   3.998   3.918   6.730 -0.8589 -1.0073 -0.1580
  154SAPE   H3S17089   4.177   3.910   6.759 -0.7450  1.2321  1.2084
  154SAPE   C2417090   4.071   3.722   6.788  0.5169  0.1430 -0.1257
  154SAPE   H4R17091   4.094   3.728   6.897  0.7776 -2.8706  0.0783
  154SAPE   H4S17092   4.151   3.653   6.752  0.0914  1.0268 -2.9697
  154SAPE   C2517093   3.935   3.649   6.765 -0.1525 -0.3638  0.0682
  154SAPE   H5R17094   3.938   3.576   6.682 -0.9681  0.9600 -1.1645
  154SAPE   C2617095   3.818   3.668   6.822  0.0829  1.0585  0.3296
  154SAPE   H6R17096   3.728   3.610   6.794  0.0604  0.5336  1.4395
  154SAPE   C2717097   3.802   3.767   6.938 -0.0447 -0.0658  0.2112
  154SAPE   H7R17098   3.724   3.842   6.912 -0.2304  0.6057  2.5110
  154SAPE   H7S17099   3.895   3.820   6.966 -0.0446  0.1204 -0.1335
  154SAPE   C2817100   3.743   3.700   7.062 -0.4466  0.7258 -0.8090
  154SAPE   H8R17101   3.639   3.666   7.054 -0.1693  0.0990 -2.1527
  154SAPE   C2917102   3.811   3.676   7.179  0.2894  0.2741  0.4511
  154SAPE   H9R17103   3.745   3.637   7.258 -2.1026  1.0151 -1.0667
  154SAPE  C21017104   3.950   3.714   7.211  0.7623 -0.0445 -0.7543
  154SAPE  H10R17105   3.930   3.805   7.272  2.2960  0.8275 -1.4823
  154SAPE  H10S17106   4.014   3.739   7.123  0.2546 -0.2358 -1.1844
  154SAPE  C21117107   4.000   3.590   7.281 -0.3443  0.2660 -0.8958
  154SAPE  H11R17108   4.056   3.519   7.219  1.5136  0.4537  0.4743
  154SAPE  C21217109   4.000   3.567   7.413 -0.2273  0.3693  0.6553
  154SAPE  H12R17110   4.028   3.467   7.446 -3.4525 -0.8488  0.0872
  154SAPE  C21317111   3.940   3.653   7.529  0.1179 -0.1327 -0.0109
  154SAPE  H13R17112   3.837   3.619   7.549 -0.1635  0.9100  0.3753
  154SAPE  H13S17113   3.937   3.758   7.494 -0.2769 -0.1089  0.0912
  154SAPE  C21417114   4.036   3.661   7.651  1.1156  0.2220  0.5046
  154SAPE  H14R17115   4.075   3.764   7.659 -2.0568  1.5387  0.4372
  154SAPE  C21517116   4.078   3.560   7.725 -0.0029  0.5246 -0.1510
  154SAPE  H15R17117   4.133   3.592   7.815 -3.9028 -0.1895  2.7475
  154SAPE  C21617118   4.025   3.422   7.715  0.2948 -0.1271  0.0201
  154SAPE  H16R17119   4.096   3.351   7.668 -0.2303  0.8566 -2.3740
  154SAPE  H16S17120   3.937   3.423   7.647 -0.8356  0.0644  1.4237
  154SAPE  C21717121   3.983   3.365   7.850 -0.2009  0.8911  0.4842
  154SAPE  H17R17122   3.908   3.430   7.900  0.6245  1.1924  1.3739
  154SAPE  H17S17123   4.069   3.372   7.920 -0.1210 -0.5046  0.5444
  154SAPE  C21817124   3.935   3.221   7.851 -0.2742 -0.5098 -0.5746
  154SAPE  H18R17125   3.867   3.207   7.937  1.3703 -1.1163  0.6697
  154SAPE  H18S17126   4.023   3.156   7.867  0.8081  1.1795  0.7321
  154SAPE  C21917127   3.867   3.183   7.722  0.3660  0.1450  0.4933
  154SAPE  H19R17128   3.848   3.074   7.714  0.2373  0.2606 -1.0097
  154SAPE  H19S17129   3.928   3.215   7.635 -0.8863  0.5205 -0.2712
  154SAPE  C22017130   3.726   3.249   7.705 -0.3677  0.4114  0.5422
  154SAPE  H20R17131   3.651   3.217   7.781 -1.6266 -0.6031 -1.0445
  154SAPE  H20S17132   3.666   3.222   7.615 -0.0435 -0.9916  0.7242
  154SAPE  H20T17133   3.750   3.357   7.698  2.6351 -0.2476 -0.6563
  154SAPE   C3317134   3.800   4.182   6.678 -0.1021 -0.2874 -0.0656
  154SAPE   H3X17135   3.904   4.218   6.666 -1.2250  2.9341 -1.1702
  154SAPE   H3Y17136   3.806   4.071   6.667 -0.4543 -0.5442  1.8891
  154SAPE   C3417137   3.739   4.200   6.815 -0.0024  0.1420  0.0550
  154SAPE   H4X17138   3.644   4.142   6.815 -0.1353  0.2651 -2.2791
  154SAPE   H4Y17139   3.709   4.306   6.825 -3.6213 -0.7419  0.2179
  154SAPE   C3517140   3.831   4.156   6.935  0.1887 -0.3672  0.4769
  154SAPE   H5X17141   3.896   4.240   6.967 -0.7828  0.8363 -0.5803
  154SAPE   H5Y17142   3.895   4.070   6.907 -1.0692 -0.6769 -1.7411
  154SAPE   C3617143   3.742   4.140   7.064 -0.0893 -0.5904  0.5799
  154SAPE   H6X17144   3.659   4.070   7.043 -1.0695  1.3877 -2.9677
  154SAPE   H6Y17145   3.695   4.240   7.076  2.1752  1.2104 -3.4750
  154SAPE   C3717146   3.821   4.105   7.185  0.3448  0.1962 -1.1106
  154SAPE   H7X17147   3.914   4.165   7.186  0.1336  0.5354 -1.4094
  154SAPE   H7Y17148   3.844   3.997   7.195 -1.5620 -0.4358 -2.7526
  154SAPE   C3817149   3.743   4.143   7.310  0.1929 -0.0576 -0.2465
  154SAPE   H8X17150   3.645   4.093   7.318  0.3937 -0.2025  1.9447
  154SAPE   H8Y17151   3.731   4.254   7.316  2.0785  0.1279  1.1166
  154SAPE   C3917152   3.815   4.096   7.439 -0.1465 -0.5741  0.2862
  154SAPE   H9X17153   3.902   4.162   7.461 -1.9933  2.4357 -0.8133
  154SAPE   H9Y17154   3.859   4.000   7.405 -2.3504 -1.6363  0.2842
  154SAPE  C31017155   3.730   4.080   7.560 -0.4242  0.0169 -0.1874
  154SAPE  H10X17156   3.638   4.022   7.537  0.9295 -1.6480 -1.6807
  154SAPE  H10Y17157   3.710   4.187   7.585  1.8935  0.8499 -1.5946
  154SAPE  C31117158   3.799   4.035   7.680 -0.3089 -0.3440 -0.6872
  154SAPE  H11X17159   3.894   4.092   7.697 -1.6762  1.3533  1.9647
  154SAPE  H11Y17160   3.828   3.929   7.668  1.7126  0.0878  0.0010
  154SAPE  C31217161   3.716   4.056   7.812 -0.3268  0.1017  0.6089
  154SAPE  H12X17162   3.616   4.007   7.808  0.2257 -0.9558 -1.7169
  154SAPE  H12Y17163   3.683   4.161   7.805 -0.2485  0.0284 -1.5914
  154SAPE  C31317164   3.792   4.031   7.940  0.6701  0.4834  0.2095
  154SAPE  H13X17165   3.734   4.068   8.028 -2.5333 -1.6920 -0.8349
  154SAPE  H13Y17166   3.884   4.092   7.928  1.3396 -0.7579 -1.3295
  154SAPE  C31417167   3.833   3.888   7.973  0.4237  0.7829 -0.3205
  154SAPE  H14X17168   3.867   3.835   7.881 -0.9409 -1.9973  0.6529
  154SAPE  H14Y17169   3.743   3.834   8.009  0.9651 -0.7980 -1.2131
  154SAPE  C31517170   3.959   3.879   8.071  0.7928 -0.6741 -0.1061
  154SAPE  H15X17171   3.923   3.911   8.171 -2.5046 -0.0046 -1.3637
  154SAPE  H15Y17172   4.038   3.948   8.035  0.8828 -0.9896 -0.5183
  154SAPE  C31617173   4.026   3.741   8.078  0.6254  0.9918 -0.2124
  154SAPE  H16X17174   4.074   3.713   7.982  1.1941 -1.3010  0.6674
  154SAPE  H16Y17175   3.942   3.673   8.105  2.0369  0.3407  2.9511
  154SAPE  C31717176   4.131   3.709   8.181 -0.5231 -0.6421 -0.5914
  154SAPE  H17X17177   4.227   3.758   8.158 -0.8257  0.3617  0.2099
  154SAPE  H17Y17178   4.152   3.600   8.174 -1.0713 -0.9458  1.6057
  154SAPE  C31817179   4.100   3.751   8.325  0.1457  0.5907 -0.6126
  154SAPE  H18X17180   4.112   3.860   8.338  0.0988  0.3427  2.1574
  154SAPE  H18Y17181   4.169   3.696   8.393 -1.2795 -1.6743 -0.8803
  154SAPE  H18Z17182   3.997   3.719   8.351 -0.0467  1.6847 -0.0053
  155SAPE     N17183   3.021   5.251   5.943 -0.3388 -0.5576 -0.4837
  155SAPE   HN117184   3.089   5.196   5.999  2.3522  3.0499  0.1265
  155SAPE   HN217185   2.954   5.183   5.902 -0.3958  0.0502 -1.4232
  155SAPE   HN317186   3.083   5.294   5.872 -1.4310  2.7417  0.3679
  155SAPE   C1217187   2.935   5.350   6.021  0.0956 -0.4684 -0.0051
  155SAPE  H12A17188   2.853   5.391   5.959  2.9680  3.5184 -1.5968
  155SAPE  H12B17189   2.996   5.441   6.039  0.7437 -1.3554  2.9899
  155SAPE   C1117190   2.898   5.281   6.153  0.2829 -0.3078  0.5122
  155SAPE  H11A17191   2.828   5.202   6.118 -0.5146  0.9371 -0.8327
  155SAPE  H11B17192   2.848   5.346   6.227  2.0150  0.0123  1.4638
  155SAPE     P17193   3.011   5.155   6.355 -0.1516 -0.0490  0.2575
  155SAPE   O1317194   2.894   5.063   6.368 -0.1603 -0.2056 -0.2399
  155SAPE   O1417195   3.147   5.098   6.373 -0.1261 -0.2354 -0.3749
  155SAPE   O1217196   3.016   5.222   6.208  0.1119  0.5008  0.2351
  155SAPE   O1117197   2.983   5.282   6.447  0.1867  0.3352  0.4109
  155SAPE    C117198   3.074   5.393   6.452 -0.6853  0.0404 -0.4593
  155SAPE    HA17199   3.112   5.425   6.352 -2.5559 -0.0145 -1.2234
  155SAPE    HB17200   3.028   5.476   6.510 -0.0711 -0.6752  1.0818
  155SAPE    C217201   3.207   5.356   6.534  0.4532  0.1125  0.3605
  155SAPE    HS17202   3.268   5.290   6.468 -1.3458  0.3376 -1.6364
  155SAPE   O2117203   3.160   5.279   6.646 -0.2640 -0.3845 -0.2205
  155SAPE   C2117204   3.254   5.190   6.696 -0.4899  0.3159 -0.1618
  155SAPE   O2217205   3.366   5.183   6.654  0.2220 -0.5118 -0.3222
  155SAPE   C2217206   3.193   5.095   6.801  0.6738 -0.6367  0.0368
  155SAPE   H2R17207   3.146   5.148   6.886 -0.7685 -0.4757 -0.8242
  155SAPE   H2S17208   3.105   5.056   6.745  0.8536 -0.5273 -0.3274
  155SAPE    C317209   3.285   5.488   6.572  0.2111 -0.4074  0.5410
  155SAPE    HX17210   3.318   5.540   6.480  2.3589 -0.6268  1.1182
  155SAPE    HY17211   3.382   5.459   6.619  0.9083 -0.4675 -0.8869
  155SAPE   O3117212   3.209   5.582   6.650  0.6052 -0.4562 -0.1407
  155SAPE   C3117213   3.235   5.580   6.781  0.5969  0.0523  0.0751
  155SAPE   O3217214   3.304   5.494   6.834 -0.1196 -0.1598  0.0622
  155SAPE   C3217215   3.146   5.689   6.861  0.2232  0.9331  1.2502
  155SAPE   H2X17216   3.042   5.649   6.872 -0.5543  2.2635 -0.6940
  155SAPE   H2Y17217   3.144   5.783   6.801  4.8882  1.2344  1.2187
  155SAPE   C2317218   3.287   4.982   6.853  0.5529 -0.3276  0.3769
  155SAPE   H3R17219   3.367   5.014   6.923  0.3316  1.7549 -0.2455
  155SAPE   H3S17220   3.357   4.945   6.775 -0.4181  0.5281 -0.9399
  155SAPE   C2417221   3.225   4.860   6.935  0.0958  0.3726  0.3623
  155SAPE   H4R17222   3.313   4.795   6.953  0.7861  0.9975 -0.5892
  155SAPE   H4S17223   3.154   4.804   6.871  2.1620  0.3515 -2.1039
  155SAPE   C2517224   3.142   4.886   7.056  0.0909 -0.5362  0.4194
  155SAPE   H5R17225   3.037   4.906   7.032  0.3068 -1.1887 -1.1834
  155SAPE   C2617226   3.181   4.879   7.181 -0.2463  0.6708 -0.3686
  155SAPE   H6R17227   3.104   4.874   7.259 -2.0101 -2.5839 -2.1220
  155SAPE   C2717228   3.323   4.831   7.232 -0.4187 -0.2739  0.4833
  155SAPE   H7R17229   3.391   4.816   7.146  0.7232  0.4461  1.2324
  155SAPE   H7S17230   3.313   4.741   7.295 -2.0441 -0.7353 -0.3783
  155SAPE   C2817231   3.375   4.955   7.306 -0.5735 -0.1795 -0.2246
  155SAPE   H8R17232   3.369   5.050   7.250 -1.9951  0.4117  0.8688
  155SAPE   C2917233   3.396   4.966   7.440  0.4648 -0.9145 -0.3413
  155SAPE   H9R17234   3.426   5.064   7.479 -0.1998 -0.9968  0.3931
  155SAPE  C21017235   3.389   4.846   7.527  0.2644 -0.8583  0.1422
  155SAPE  H10R17236   3.449   4.760   7.491  0.3926  0.9668 -4.6715
  155SAPE  H10S17237   3.284   4.810   7.528  0.0827 -0.5039  3.3538
  155SAPE  C21117238   3.440   4.882   7.669  0.3173  0.7732 -0.0214
  155SAPE  H11R17239   3.495   4.976   7.679 -0.0034  0.8152  1.8449
  155SAPE  C21217240   3.412   4.815   7.785  0.0977 -0.3676 -0.6377
  155SAPE  H12R17241   3.454   4.856   7.878  2.5036 -0.1306 -1.7605
  155SAPE  C21317242   3.324   4.697   7.797 -0.3385  0.5022 -0.3082
  155SAPE  H13R17243   3.335   4.646   7.895 -0.9996 -1.0643 -1.0140
  155SAPE  H13S17244   3.347   4.625   7.716 -0.2811  1.7710 -1.4376
  155SAPE  C21417245   3.177   4.741   7.777  0.5687  0.0463 -0.1731
  155SAPE  H14R17246   3.162   4.821   7.702  0.3427  0.4531  0.3034
  155SAPE  C21517247   3.072   4.685   7.834  0.3540 -0.5996 -0.0213
  155SAPE  H15R17248   2.974   4.729   7.810  1.2037  2.2458  1.2830
  155SAPE  C21617249   3.079   4.566   7.923  0.6587 -0.1819 -0.2260
  155SAPE  H16R17250   3.176   4.513   7.910 -1.4754 -4.4565 -0.5333
  155SAPE  H16S17251   3.004   4.494   7.884 -1.2367  1.7107 -0.2422
  155SAPE  C21717252   3.045   4.601   8.073 -0.1288  0.1710  0.6030
  155SAPE  H17R17253   3.006   4.512   8.128  2.4119 -0.7627  1.0370
  155SAPE  H17S17254   2.961   4.673   8.072 -2.2086 -2.1075  0.1351
  155SAPE  C21817255   3.168   4.655   8.146 -0.6172  0.4923 -0.1767
  155SAPE  H18R17256   3.208   4.753   8.110  1.1162  0.2923  1.0802
  155SAPE  H18S17257   3.253   4.586   8.123 -0.7940 -0.5261  2.0590
  155SAPE  C21917258   3.152   4.663   8.295 -0.4587 -0.0735 -0.5067
  155SAPE  H19R17259   3.139   4.564   8.343  1.3250 -0.0127  0.1766
  155SAPE  H19S17260   3.053   4.712   8.311 -1.6079 -0.5601 -4.7696
  155SAPE  C22017261   3.265   4.744   8.369  0.0199  0.3604  0.0314
  155SAPE  H20R17262   3.265   4.845   8.323 -4.0795  1.4531  1.9576
  155SAPE  H20S17263   3.358   4.686   8.346  0.5089  1.0617  0.2231
  155SAPE  H20T17264   3.238   4.755   8.476 -0.3273 -1.0588  0.1178
  155SAPE   C3317265   3.182   5.738   6.995 -0.1797 -0.0200  0.4803
  155SAPE   H3X17266   3.131   5.835   7.012 -0.7377 -0.2551  0.1674
  155SAPE   H3Y17267   3.292   5.754   6.998 -0.2229  0.5679 -0.6147
  155SAPE   C3417268   3.123   5.650   7.100 -0.4521  0.2140 -0.3848
  155SAPE   H4X17269   3.168   5.548   7.099 -0.8243  0.0461 -0.3171
  155SAPE   H4Y17270   3.013   5.637   7.090 -0.3296 -1.9066  0.4528
  155SAPE   C3517271   3.154   5.704   7.244  0.2078 -0.6314  0.0603
  155SAPE   H5X17272   3.105   5.803   7.233 -0.0724 -1.0528 -3.3411
  155SAPE   H5Y17273   3.260   5.724   7.270  0.0193 -1.3296  1.4600
  155SAPE   C3617274   3.083   5.641   7.366 -0.0321 -0.4586  0.1641
  155SAPE   H6X17275   3.129   5.542   7.385  1.1844  0.3651  1.7386
  155SAPE   H6Y17276   2.980   5.628   7.327  0.5261 -3.4590 -0.5623
  155SAPE   C3717277   3.075   5.727   7.494  0.3778 -0.0302  0.5628
  155SAPE   H7X17278   2.999   5.672   7.553  1.4406 -2.0906  0.0821
  155SAPE   H7Y17279   3.013   5.817   7.473 -2.1529 -1.0306  3.1220
  155SAPE   C3817280   3.200   5.756   7.583 -0.0476  0.2402  0.3810
  155SAPE   H8X17281   3.271   5.815   7.522 -1.2953 -0.2184 -1.6033
  155SAPE   H8Y17282   3.249   5.658   7.602 -0.9573 -0.3953 -0.5230
  155SAPE   C3917283   3.176   5.819   7.727 -0.4712  0.8458  0.3405
  155SAPE   H9X17284   3.119   5.915   7.727  1.6931  2.2359 -0.8483
  155SAPE   H9Y17285   3.281   5.842   7.755  0.6339  0.2474 -2.9135
  155SAPE  C31017286   3.146   5.711   7.832 -0.0442 -0.1208 -0.4385
  155SAPE  H10X17287   3.219   5.627   7.828  0.6237  0.4068  0.3297
  155SAPE  H10Y17288   3.047   5.666   7.809 -0.4419  0.1859  0.6309
  155SAPE  C31117289   3.134   5.770   7.975 -0.2594 -0.3318  0.6770
  155SAPE  H11X17290   3.098   5.695   8.048 -1.9850 -0.3580 -0.1462
  155SAPE  H11Y17291   3.055   5.849   7.975 -0.4677 -0.5401  0.9894
  155SAPE  C31217292   3.276   5.808   8.018  0.3412  0.2038 -0.2694
  155SAPE  H12X17293   3.326   5.891   7.963  1.4736  0.7933  1.5640
  155SAPE  H12Y17294   3.346   5.726   7.994  0.9567  1.0759 -1.5477
  155SAPE  C31317295   3.288   5.850   8.161 -0.5495  0.1919  0.1169
  155SAPE  H13X17296   3.269   5.756   8.217  0.4055 -1.5669 -2.3178
  155SAPE  H13Y17297   3.214   5.926   8.193 -2.3562 -0.6122 -1.9284
  155SAPE  C31417298   3.427   5.892   8.188 -0.9219 -0.0303 -0.0289
  155SAPE  H14X17299   3.434   5.996   8.150 -0.2713 -0.1055 -0.1274
  155SAPE  H14Y17300   3.494   5.819   8.138 -0.7209  1.3895 -1.9520
  155SAPE  C31517301   3.472   5.880   8.336 -0.4316 -0.7506  0.0950
  155SAPE  H15X17302   3.458   5.772   8.355 -2.2453 -0.8551 -1.5388
  155SAPE  H15Y17303   3.400   5.949   8.385 -0.5104 -0.1118 -0.8792
  155SAPE  C31617304   3.618   5.935   8.360  0.3832  0.5451 -0.5414
  155SAPE  H16X17305   3.611   6.042   8.388  1.2728  0.0718  1.6759
  155SAPE  H16Y17306   3.683   5.930   8.270 -0.1198  0.8920 -0.9284
  155SAPE  C31717307   3.689   5.869   8.485 -0.5959 -0.3561  0.8859
  155SAPE  H17X17308   3.733   5.774   8.448 -1.7820 -0.9859  1.0644
  155SAPE  H17Y17309   3.617   5.840   8.564 -1.0323 -2.0315 -0.0747
  155SAPE  C31817310   3.801   5.958   8.536 -0.0688  0.1292  0.1636
  155SAPE  H18X17311   3.759   6.060   8.552  0.2347  0.5190 -1.3099
  155SAPE  H18Y17312   3.878   5.960   8.455  0.3682 -1.2695  0.5149
  155SAPE  H18Z17313   3.852   5.935   8.632 -0.1704  1.5725  0.5934
  156SAPE     N17314   0.488   5.662   6.072 -0.9019 -0.3255 -0.4911
  156SAPE   HN117315   0.404   5.609   6.106 -0.2800  0.1198  1.9634
  156SAPE   HN217316   0.515   5.740   6.136  1.9299 -0.5149 -1.3298
  156SAPE   HN317317   0.480   5.708   5.979 -0.4085  1.0799  0.1312
  156SAPE   C1217318   0.611   5.583   6.079  0.5365  0.6015 -0.9666
  156SAPE  H12A17319   0.698   5.652   6.077  0.5554  0.7666  1.8032
  156SAPE  H12B17320   0.611   5.519   5.988 -1.0846 -0.1897 -0.4475
  156SAPE   C1117321   0.613   5.495   6.206 -0.6314 -0.1617  0.3115
  156SAPE  H11A17322   0.602   5.565   6.292 -1.9509 -0.4375  0.3989
  156SAPE  H11B17323   0.710   5.440   6.206 -1.2862 -1.3713  0.5486
  156SAPE     P17324   0.446   5.324   6.332  0.2138 -0.2729 -0.1374
  156SAPE   O1317325   0.350   5.403   6.409  0.0723  0.2090 -0.2822
  156SAPE   O1417326   0.382   5.205   6.278  0.2984 -0.0200  0.0666
  156SAPE   O1217327   0.504   5.402   6.205 -0.0177 -0.2272  0.1629
  156SAPE   O1117328   0.579   5.291   6.422  0.1115 -0.0408 -0.2119
  156SAPE    C117329   0.573   5.182   6.513  0.0758 -0.2778 -0.7905
  156SAPE    HA17330   0.488   5.113   6.497 -0.4077  0.2322 -0.4510
  156SAPE    HB17331   0.671   5.130   6.521 -0.4098 -1.1928 -0.6485
  156SAPE    C217332   0.560   5.251   6.658  0.0095  0.3774  0.1247
  156SAPE    HS17333   0.482   5.330   6.656  1.2281  1.6207  0.2247
  156SAPE   O2117334   0.695   5.308   6.686 -0.0605 -0.1827  0.1856
  156SAPE   C2117335   0.696   5.412   6.767 -0.0370  0.3074 -0.4617
  156SAPE   O2217336   0.599   5.466   6.821  0.3027  0.4833  0.0039
  156SAPE   C2217337   0.843   5.469   6.766 -0.0906 -0.1334 -0.1106
  156SAPE   H2R17338   0.906   5.380   6.746 -0.4086 -1.2754  3.2824
  156SAPE   H2S17339   0.857   5.535   6.678  1.4334 -1.0781 -0.6076
  156SAPE    C317340   0.525   5.136   6.758  0.3595  0.0417  0.0203
  156SAPE    HX17341   0.607   5.062   6.765 -1.6004 -2.1313  1.5381
  156SAPE    HY17342   0.443   5.078   6.708  0.3873 -1.5233  1.6942
  156SAPE   O3117343   0.498   5.189   6.886 -0.2520 -0.2453 -0.6627
  156SAPE   C3117344   0.383   5.239   6.901  0.3682 -0.1303  0.7475
  156SAPE   O3217345   0.292   5.245   6.814 -0.1606  0.8241 -0.0477
  156SAPE   C3217346   0.385   5.286   7.048  0.1714 -0.1030 -0.7328
  156SAPE   H2X17347   0.418   5.392   7.052  0.1317 -0.0969 -0.5494
  156SAPE   H2Y17348   0.458   5.221   7.101 -0.2770  0.4609  0.5963
  156SAPE   C2317349   0.881   5.536   6.899  0.4143 -0.5209  0.2711
  156SAPE   H3R17350   0.803   5.506   6.972  0.8554 -3.3422 -0.3113
  156SAPE   H3S17351   0.886   5.647   6.893 -2.0029 -0.4091 -0.9527
  156SAPE   C2417352   1.019   5.482   6.955 -0.0265 -0.1548  0.2874
  156SAPE   H4R17353   1.037   5.543   7.047 -0.1528 -1.0898  0.9462
  156SAPE   H4S17354   1.096   5.522   6.885 -0.4078 -0.9077 -0.5714
  156SAPE   C2517355   1.040   5.337   6.978  0.1733  0.2779  0.6225
  156SAPE   H5R17356   1.088   5.275   6.900 -0.2260  0.4661  0.2200
  156SAPE   C2617357   0.990   5.273   7.087  0.1079  0.5645  0.3102
  156SAPE   H6R17358   1.013   5.171   7.118  0.7627  1.0531  1.4968
  156SAPE   C2717359   0.915   5.353   7.196  0.1804 -0.0957  0.2672
  156SAPE   H7R17360   0.938   5.462   7.190 -1.3507  0.3494  1.5595
  156SAPE   H7S17361   0.955   5.324   7.295 -0.1316  1.0040  0.7342
  156SAPE   C2817362   0.764   5.323   7.210 -0.2258 -0.1094  0.1079
  156SAPE   H8R17363   0.705   5.332   7.118 -2.8710  0.8511  1.8064
  156SAPE   C2917364   0.697   5.276   7.315  0.7062  0.2116 -0.6265
  156SAPE   H9R17365   0.597   5.233   7.300  0.4565 -0.3414  2.1329
  156SAPE  C21017366   0.753   5.247   7.456 -0.2324 -0.2958 -0.1707
  156SAPE  H10R17367   0.665   5.245   7.524  0.2005  2.2009  0.5346
  156SAPE  H10S17368   0.812   5.335   7.489 -1.6763  0.4473  0.4969
  156SAPE  C21117369   0.820   5.120   7.463 -0.7421 -0.1472 -0.2212
  156SAPE  H11R17370   0.869   5.105   7.366  0.6265  0.8159  0.3025
  156SAPE  C21217371   0.825   5.032   7.560  0.3793 -0.8081  0.5272
  156SAPE  H12R17372   0.876   4.937   7.540 -1.3833 -1.5072 -1.0028
  156SAPE  C21317373   0.754   5.051   7.695 -0.6148  0.0714  0.1652
  156SAPE  H13R17374   0.644   5.055   7.678 -0.6913 -2.3430 -0.2648
  156SAPE  H13S17375   0.780   5.146   7.745 -0.8182  0.6769 -0.8500
  156SAPE  C21417376   0.784   4.942   7.802 -0.0305 -0.6566  0.0531
  156SAPE  H14R17377   0.693   4.891   7.838  0.3068 -2.3288 -1.3133
  156SAPE  C21517378   0.899   4.893   7.858 -0.5499  0.2202 -0.2051
  156SAPE  H15R17379   0.896   4.808   7.928  0.6690  0.1276 -0.2543
  156SAPE  C21617380   1.040   4.924   7.831 -1.1457 -0.0432 -0.0922
  156SAPE  H16R17381   1.079   4.981   7.917  1.8505 -1.6079 -0.2670
  156SAPE  H16S17382   1.059   4.992   7.745 -0.7753 -0.8326 -0.6500
  156SAPE  C21717383   1.143   4.810   7.822  0.0591 -0.3596  0.2673
  156SAPE  H17R17384   1.137   4.749   7.915 -1.5649 -0.8712 -0.1314
  156SAPE  H17S17385   1.245   4.845   7.794 -0.6027  2.1215  0.7298
  156SAPE  C21817386   1.113   4.702   7.713 -0.1805  0.1353 -0.0138
  156SAPE  H18R17387   1.115   4.751   7.613  1.2231 -1.2779 -0.7216
  156SAPE  H18S17388   1.010   4.667   7.738 -0.3752 -0.8780 -1.9952
  156SAPE  C21917389   1.209   4.584   7.714 -0.6145 -0.3115  0.7509
  156SAPE  H19R17390   1.203   4.547   7.818  1.2078  0.1675  1.0670
  156SAPE  H19S17391   1.313   4.602   7.680 -1.2717 -0.9886 -1.8464
  156SAPE  C22017392   1.158   4.470   7.616  0.6628 -0.8563  0.2377
  156SAPE  H20R17393   1.220   4.379   7.634  1.9826  0.2815  1.6790
  156SAPE  H20S17394   1.160   4.518   7.516  0.1677 -0.1882  0.5433
  156SAPE  H20T17395   1.053   4.437   7.632  0.4837 -0.3345  0.1526
  156SAPE   C3317396   0.242   5.286   7.104  0.1631  0.5650  0.4558
  156SAPE   H3X17397   0.214   5.179   7.092  0.0976  0.4199  1.7627
  156SAPE   H3Y17398   0.185   5.347   7.031 -1.0273 -0.1143  0.7901
  156SAPE   C3417399   0.203   5.314   7.251 -0.2094  0.6621  0.3052
  156SAPE   H4X17400   0.094   5.294   7.259 -0.3808  0.0385 -2.5960
  156SAPE   H4Y17401   0.230   5.419   7.277  1.7127  0.1960  0.3709
  156SAPE   C3517402   0.273   5.225   7.349 -0.3394  0.6952 -0.7646
  156SAPE   H5X17403   0.382   5.247   7.359 -0.2657 -0.6076  2.4358
  156SAPE   H5Y17404   0.260   5.123   7.307 -1.4474  0.7380 -0.5511
  156SAPE   C3617405   0.217   5.235   7.493 -0.6194  0.1116 -0.1218
  156SAPE   H6X17406   0.239   5.338   7.530  2.6293  0.2059 -1.9704
  156SAPE   H6Y17407   0.284   5.167   7.550  0.0453  0.5524 -0.3818
  156SAPE   C3717408   0.079   5.185   7.521  0.1853  0.1767 -0.1848
  156SAPE   H7X17409   0.070   5.079   7.489 -3.6831  0.2841 -0.0003
  156SAPE   H7Y17410   0.007   5.241   7.458  1.2178 -0.7708 -2.2933
  156SAPE   C3817411   0.028   5.196   7.667  0.6699 -0.2287  0.6979
  156SAPE   H8X17412  -0.074   5.239   7.668  0.5899 -0.3719 -0.5292
  156SAPE   H8Y17413   0.095   5.270   7.717 -0.3709  1.3346 -0.1587
  156SAPE   C3917414   0.012   5.065   7.747  0.3992  0.6854 -0.1844
  156SAPE   H9X17415   0.109   5.029   7.787  1.8643  1.4670 -2.8123
  156SAPE   H9Y17416  -0.024   4.986   7.677 -1.5475  1.9051 -0.6602
  156SAPE  C31017417  -0.086   5.073   7.865  0.1238  0.2950  0.9398
  156SAPE  H10X17418  -0.188   5.107   7.836  0.7606  1.4152 -0.0562
  156SAPE  H10Y17419  -0.058   5.160   7.928 -0.9953  1.0439  0.4281
  156SAPE  C31117420  -0.087   4.954   7.955  0.0566 -0.0803 -0.5851
  156SAPE  H11X17421  -0.178   4.944   8.018 -0.5445 -2.7894 -1.7622
  156SAPE  H11Y17422  -0.003   4.975   8.025  2.0238 -0.1143 -2.8388
  156SAPE  C31217423  -0.069   4.813   7.898  0.9226  0.1778  0.3455
  156SAPE  H12X17424  -0.065   4.753   7.991  0.7944  1.0764  0.9475
  156SAPE  H12Y17425   0.023   4.808   7.837  0.5154 -1.2078 -0.1831
  156SAPE  C31317426  -0.185   4.763   7.804 -0.2691  1.4637 -0.1221
  156SAPE  H13X17427  -0.194   4.842   7.727 -1.0453  1.6673  0.1713
  156SAPE  H13Y17428  -0.280   4.736   7.853 -0.2735 -0.8251 -1.2458
  156SAPE  C31417429  -0.148   4.634   7.727  0.1582 -0.2873  0.4925
  156SAPE  H14X17430  -0.051   4.653   7.678 -0.2594 -1.0630 -0.6818
  156SAPE  H14Y17431  -0.218   4.629   7.640  0.9052  1.7220 -0.2853
  156SAPE  C31517432  -0.135   4.512   7.815 -0.3485 -0.2781  0.0382
  156SAPE  H15X17433  -0.235   4.489   7.858 -0.8922 -2.5425 -2.1907
  156SAPE  H15Y17434  -0.065   4.535   7.898  0.6119 -1.2088 -0.4850
  156SAPE  C31617435  -0.083   4.391   7.737  0.8504 -0.4890 -0.7997
  156SAPE  H16X17436  -0.016   4.348   7.814 -0.6631  2.5191  2.4859
  156SAPE  H16Y17437  -0.015   4.427   7.656  1.9496 -0.7545 -0.0223
  156SAPE  C31717438  -0.187   4.292   7.699  0.3385 -0.3014 -0.3870
  156SAPE  H17X17439  -0.243   4.285   7.795 -0.4603  3.4348 -0.4235
  156SAPE  H17Y17440  -0.131   4.198   7.680  0.4038 -0.2298 -0.5492
  156SAPE  C31817441  -0.274   4.329   7.578 -0.0299 -0.2060  0.6382
  156SAPE  H18X17442  -0.326   4.234   7.552  0.3896 -0.2300 -0.1550
  156SAPE  H18Y17443  -0.201   4.357   7.499  1.6041  0.3329  2.2750
  156SAPE  H18Z17444  -0.344   4.413   7.598  1.5202  1.2754  0.0572
  157SAPE     N17445   5.714   0.585   5.878 -0.0077 -1.0155  0.7173
  157SAPE   HN117446   5.634   0.527   5.844  0.2766 -1.0881  0.1565
  157SAPE   HN217447   5.755   0.630   5.793 -1.3612 -1.3305 -0.1458
  157SAPE   HN317448   5.779   0.525   5.933  1.0344 -1.7886 -1.2536
  157SAPE   C1217449   5.655   0.699   5.944 -0.2738 -0.2464 -0.4783
  157SAPE  H12A17450   5.612   0.773   5.873 -1.6678 -0.0649  0.5255
  157SAPE  H12B17451   5.735   0.749   6.003  0.5995  0.8414 -2.4523
  157SAPE   C1117452   5.544   0.652   6.042 -0.2720 -0.1408  0.7105
  157SAPE  H11A17453   5.488   0.740   6.081 -1.8465 -0.7599 -0.0638
  157SAPE  H11B17454   5.603   0.609   6.125  3.0643 -0.3367 -1.5848
  157SAPE     P17455   5.460   0.403   6.024  0.0638  0.3446  0.0580
  157SAPE   O1317456   5.342   0.347   5.962  0.3235 -0.3434  0.4817
  157SAPE   O1417457   5.598   0.353   5.990  0.3721  0.2528 -0.3688
  157SAPE   O1217458   5.457   0.556   5.982  0.2476  1.1259 -0.2901
  157SAPE   O1117459   5.440   0.400   6.177  0.6924  0.4995  0.1345
  157SAPE    C117460   5.353   0.483   6.250 -0.1828  0.4845 -0.2144
  157SAPE    HA17461   5.315   0.573   6.197  0.4029 -0.3985 -2.1941
  157SAPE    HB17462   5.268   0.420   6.284 -0.5521  1.6448  1.1309
  157SAPE    C217463   5.415   0.538   6.388  0.0773 -0.0958  0.0437
  157SAPE    HS17464   5.474   0.626   6.353  1.8202 -2.5541 -3.8714
  157SAPE   O2117465   5.500   0.436   6.448  0.8330 -0.3062 -0.3032
  157SAPE   C2117466   5.616   0.475   6.486 -0.1519 -0.1620  0.2564
  157SAPE   O2217467   5.661   0.589   6.467 -0.0253 -0.2415 -0.5741
  157SAPE   C2217468   5.694   0.357   6.542  0.0845  0.1447  0.8754
  157SAPE   H2R17469   5.620   0.302   6.604  0.3538 -0.5784  0.5719
  157SAPE   H2S17470   5.710   0.290   6.454  0.8810  0.7440  0.5474
  157SAPE    C317471   5.303   0.573   6.492  0.1370 -0.9852  0.1788
  157SAPE    HX17472   5.232   0.488   6.489 -2.4493  0.9028  2.9194
  157SAPE    HY17473   5.252   0.665   6.456  2.4339  0.3835  0.2049
  157SAPE   O3117474   5.355   0.586   6.627 -0.0743  0.3891 -0.3318
  157SAPE   C3117475   5.336   0.707   6.687 -0.4090 -0.1878  0.3154
  157SAPE   O3217476   5.286   0.809   6.637  0.2415 -0.0032 -0.8343
  157SAPE   C3217477   5.394   0.695   6.827 -0.6640 -0.1400 -0.1274
  157SAPE   H2X17478   5.504   0.680   6.816 -0.4747  2.4400 -2.8061
  157SAPE   H2Y17479   5.353   0.603   6.875  0.4433 -1.1361 -1.0274
  157SAPE   C2317480   5.825   0.398   6.615  0.2206  0.4677 -0.1420
  157SAPE   H3R17481   5.896   0.464   6.562  1.2464 -0.9627 -0.6324
  157SAPE   H3S17482   5.873   0.298   6.629  0.4262  0.8195  1.9366
  157SAPE   C2417483   5.796   0.442   6.760 -0.3763  1.0067  0.2407
  157SAPE   H4R17484   5.738   0.362   6.812  1.1653  0.0975  0.6285
  157SAPE   H4S17485   5.744   0.540   6.756  1.1938  2.0803  2.9759
  157SAPE   C2517486   5.926   0.472   6.833 -0.1797  0.0884 -0.0500
  157SAPE   H5R17487   6.004   0.517   6.770 -0.7202  0.7149 -0.2746
  157SAPE   C2617488   5.964   0.442   6.954 -0.3971 -0.1766  0.0267
  157SAPE   H6R17489   6.063   0.471   6.993 -0.0560 -3.7174  2.2407
  157SAPE   C2717490   5.879   0.371   7.052 -0.4281  0.3380  0.4701
  157SAPE   H7R17491   5.877   0.261   7.043  0.4058  0.3748 -0.3179
  157SAPE   H7S17492   5.772   0.400   7.043 -0.5067  0.0042  0.3090
  157SAPE   C2817493   5.928   0.383   7.196 -0.1935 -0.3878 -0.1937
  157SAPE   H8R17494   5.967   0.290   7.241  2.0980 -0.4240 -2.0340
  157SAPE   C2917495   5.948   0.500   7.265 -0.3107 -0.2514 -0.0061
  157SAPE   H9R17496   5.987   0.516   7.367 -0.8530  2.4873 -0.1446
  157SAPE  C21017497   5.910   0.636   7.207  0.1521 -0.1877  0.9788
  157SAPE  H10R17498   5.819   0.641   7.144 -0.3876 -0.9648  1.6759
  157SAPE  H10S17499   5.988   0.680   7.142 -1.2219  1.2863  0.2506
  157SAPE  C21117500   5.902   0.735   7.312 -0.2945 -0.1946 -0.4608
  157SAPE  H11R17501   5.998   0.726   7.366  0.7058 -2.5708 -2.4740
  157SAPE  C21217502   5.802   0.822   7.343 -0.4845  0.4408 -0.0197
  157SAPE  H12R17503   5.808   0.902   7.418  1.5108  0.9586 -0.6716
  157SAPE  C21317504   5.669   0.826   7.275 -0.0283  0.1533 -0.0038
  157SAPE  H13R17505   5.593   0.790   7.348 -0.2692  1.5963  0.4854
  157SAPE  H13S17506   5.646   0.750   7.197 -1.1023 -0.0845  0.5210
  157SAPE  C21417507   5.639   0.956   7.217  0.0027  0.5689  0.6229
  157SAPE  H14R17508   5.712   0.991   7.142 -0.6546  0.1130 -0.2574
  157SAPE  C21517509   5.536   1.040   7.238  0.1775 -0.0133 -0.2799
  157SAPE  H15R17510   5.523   1.136   7.187  0.5055  1.1089  1.6501
  157SAPE  C21617511   5.421   1.016   7.334 -0.0543 -0.0848  0.0481
  157SAPE  H16R17512   5.438   0.916   7.378 -1.8889 -0.3119  0.3093
  157SAPE  H16S17513   5.324   1.019   7.281 -0.5383  0.5895  0.9492
  157SAPE  C21717514   5.429   1.111   7.455 -0.2147  0.7178 -0.2873
  157SAPE  H17R17515   5.397   1.213   7.427  0.2733  0.0881 -3.5451
  157SAPE  H17S17516   5.532   1.122   7.496  0.4134  2.6325 -2.2270
  157SAPE  C21817517   5.321   1.061   7.550  0.5678  0.0524  0.0664
  157SAPE  H18R17518   5.341   0.956   7.580 -2.1692 -0.5178  0.2103
  157SAPE  H18S17519   5.226   1.055   7.493  1.0292 -0.1951 -0.6973
  157SAPE  C21917520   5.291   1.155   7.673  0.3011 -0.4967 -0.7123
  157SAPE  H19R17521   5.182   1.147   7.696  0.0996 -1.2305 -1.8275
  157SAPE  H19S17522   5.292   1.257   7.628  0.6178  0.0422  0.4872
  157SAPE  C22017523   5.381   1.127   7.796 -0.1495  0.3338 -0.1576
  157SAPE  H20R17524   5.374   1.210   7.870 -1.2165 -0.5121  0.7070
  157SAPE  H20S17525   5.488   1.135   7.766  0.0314  0.3277  0.4825
  157SAPE  H20T17526   5.373   1.029   7.846  0.7288  0.3000 -0.0626
  157SAPE   C3317527   5.378   0.820   6.920  0.5530 -0.3482  0.0454
  157SAPE   H3X17528   5.446   0.897   6.878  1.6043 -0.8353  0.8031
  157SAPE   H3Y17529   5.414   0.802   7.024  2.6233  0.9204 -0.3904
  157SAPE   C3417530   5.242   0.880   6.940  0.0443 -0.3062  0.7753
  157SAPE   H4X17531   5.209   0.917   6.840  0.4142 -2.2047 -0.1110
  157SAPE   H4Y17532   5.240   0.973   7.000  0.1711  1.0907 -1.2591
  157SAPE   C3517533   5.136   0.788   6.995 -0.1361 -0.4191 -0.0210
  157SAPE   H5X17534   5.169   0.753   7.095 -1.4264  1.7906  1.2522
  157SAPE   H5Y17535   5.124   0.712   6.914  3.2170  1.4823 -2.5377
  157SAPE   C3617536   5.004   0.865   7.023 -0.1554  0.2098 -0.0252
  157SAPE   H6X17537   4.920   0.793   7.014 -1.3086  1.6644 -1.9106
  157SAPE   H6Y17538   4.978   0.931   6.937 -1.8119  0.0213  0.2898
  157SAPE   C3717539   4.993   0.947   7.144 -0.1005  0.7388  0.2088
  157SAPE   H7X17540   5.057   1.038   7.149  0.6663  0.1954  0.3360
  157SAPE   H7Y17541   5.022   0.892   7.235 -0.4062  0.1661 -0.0376
  157SAPE   C3817542   4.843   0.991   7.154 -0.3704  0.2313  0.8168
  157SAPE   H8X17543   4.778   0.903   7.136 -0.3333  0.3058  0.3051
  157SAPE   H8Y17544   4.825   1.064   7.071  0.9654 -0.8819 -0.5020
  157SAPE   C3917545   4.815   1.045   7.290  0.6280  0.2116  0.4377
  157SAPE   H9X17546   4.715   1.092   7.303  0.8064  0.4140  1.0939
  157SAPE   H9Y17547   4.887   1.127   7.311 -1.3607  1.5332  2.6115
  157SAPE  C31017548   4.812   0.933   7.401  0.2083  0.1232  0.2690
  157SAPE  H10X17549   4.826   0.834   7.353  0.0718  0.2292  0.0049
  157SAPE  H10Y17550   4.716   0.929   7.458 -1.0208  0.4620 -1.6624
  157SAPE  C31117551   4.920   0.947   7.510 -0.2011  0.1382 -0.4550
  157SAPE  H11X17552   5.020   0.950   7.461 -1.0477  1.5882 -2.2374
  157SAPE  H11Y17553   4.894   0.863   7.577  0.5253 -0.2089 -0.5929
  157SAPE  C31217554   4.897   1.070   7.601  0.1636  0.1738 -0.3007
  157SAPE  H12X17555   4.908   1.168   7.550 -0.2831  0.2833 -0.1905
  157SAPE  H12Y17556   4.987   1.065   7.667 -0.7728  1.9267  1.2146
  157SAPE  C31317557   4.771   1.076   7.690  0.2161 -0.5109  0.9752
  157SAPE  H13X17558   4.688   1.108   7.623 -0.8713 -1.1283  1.9873
  157SAPE  H13Y17559   4.775   1.167   7.754 -0.3195  0.0256  0.2749
  157SAPE  C31417560   4.733   0.946   7.757 -0.3677 -0.0981  0.3749
  157SAPE  H14X17561   4.723   0.862   7.684 -2.9974  0.6573 -0.2265
  157SAPE  H14Y17562   4.629   0.953   7.794  0.0129 -1.9361  1.9714
  157SAPE  C31517563   4.833   0.900   7.866  0.3489  0.6092 -0.3203
  157SAPE  H15X17564   4.936   0.886   7.826 -0.1207 -1.6741 -0.8797
  157SAPE  H15Y17565   4.791   0.804   7.904 -3.3819  2.3479  0.2964
  157SAPE  C31617566   4.845   1.006   7.973 -0.0746 -0.1362 -0.1561
  157SAPE  H16X17567   4.745   1.042   8.006 -0.0459  0.3522 -0.5845
  157SAPE  H16Y17568   4.896   1.097   7.933  0.7992  0.0404  1.3020
  157SAPE  C31717569   4.924   0.973   8.094 -0.2912 -0.3818  0.3714
  157SAPE  H17X17570   4.930   1.064   8.156 -1.2662  0.4263 -0.6836
  157SAPE  H17Y17571   5.027   0.942   8.063 -0.8041 -0.1335 -1.7958
  157SAPE  C31817572   4.863   0.853   8.173  0.0642  0.1496  0.0733
  157SAPE  H18X17573   4.758   0.872   8.204  0.1035  0.9165 -0.2359
  157SAPE  H18Y17574   4.922   0.830   8.264  1.0816  2.9957  0.2478
  157SAPE  H18Z17575   4.868   0.765   8.105 -0.6717  0.0166  0.1880
  158SAPE     N17576   0.298   5.215   6.016  0.5381  0.8705  0.0802
  158SAPE   HN117577   0.307   5.319   6.014 -1.1487  1.1285  2.3229
  158SAPE   HN217578   0.210   5.187   5.968 -0.3059  0.2654  1.8856
  158SAPE   HN317579   0.284   5.185   6.115  0.1736 -0.0995 -0.2511
  158SAPE   C1217580   0.408   5.144   5.952  0.7016 -0.1724 -0.7782
  158SAPE  H12A17581   0.497   5.167   6.014 -0.3572  0.5551  0.5161
  158SAPE  H12B17582   0.431   5.185   5.851  1.2690  0.3946 -0.4271
  158SAPE   C1117583   0.379   4.992   5.959 -0.1171  0.3385  0.9335
  158SAPE  H11A17584   0.470   4.940   5.922 -0.5293 -0.2128  0.6752
  158SAPE  H11B17585   0.300   4.969   5.885  0.8936  1.8128 -0.6761
  158SAPE     P17586   0.342   4.800   6.123 -0.3485  0.0229  0.1412
  158SAPE   O1317587   0.261   4.733   6.026 -0.2384 -0.2056  0.0213
  158SAPE   O1417588   0.488   4.761   6.126 -0.7898  0.3557  0.2178
  158SAPE   O1217589   0.336   4.951   6.092 -0.0833 -0.9887 -0.5387
  158SAPE   O1117590   0.273   4.783   6.264 -0.2112 -0.1968 -0.4496
  158SAPE    C117591   0.295   4.863   6.383 -0.3982  0.3725 -0.2721
  158SAPE    HA17592   0.377   4.937   6.379  1.7903 -1.8594  1.0921
  158SAPE    HB17593   0.201   4.913   6.416 -0.5500 -0.0862 -0.0093
  158SAPE    C217594   0.348   4.788   6.508 -0.0282 -0.4220 -0.9062
  158SAPE    HS17595   0.297   4.689   6.510 -2.3198  0.6967 -0.1965
  158SAPE   O2117596   0.319   4.859   6.634 -0.2965 -0.7512 -0.3046
  158SAPE   C2117597   0.192   4.853   6.664 -0.2093  0.2704 -0.5543
  158SAPE   O2217598   0.108   4.782   6.605 -0.6754 -0.2159 -0.3018
  158SAPE   C2217599   0.164   4.938   6.779 -0.3425  0.1212 -0.9371
  158SAPE   H2R17600   0.242   4.912   6.855 -0.4549 -0.9623 -1.1785
  158SAPE   H2S17601   0.179   5.048   6.768 -3.1234  0.5919 -0.7058
  158SAPE    C317602   0.499   4.755   6.493 -0.2673 -0.2487 -0.3822
  158SAPE    HX17603   0.551   4.847   6.458 -0.4617 -0.5571 -1.5187
  158SAPE    HY17604   0.512   4.698   6.399 -1.8118  0.4892 -1.0671
  158SAPE   O3117605   0.562   4.684   6.606  0.5472 -0.0598 -0.2421
  158SAPE   C3117606   0.654   4.759   6.666  0.3036 -0.3328 -0.0616
  158SAPE   O3217607   0.695   4.867   6.629 -0.2682  0.4974 -0.8916
  158SAPE   C3217608   0.708   4.692   6.791 -0.4331 -0.5774 -0.8381
  158SAPE   H2X17609   0.792   4.752   6.832 -0.6445 -0.8473  0.0055
  158SAPE   H2Y17610   0.756   4.604   6.745  1.5529 -0.3336  0.6302
  158SAPE   C2317611   0.025   4.924   6.842  0.0125  0.6342 -0.7784
  158SAPE   H3R17612   0.010   4.815   6.855  0.9089  0.7816  2.1418
  158SAPE   H3S17613  -0.039   4.971   6.765  0.1852  2.1830 -0.0154
  158SAPE   C2417614   0.008   4.998   6.975  0.2337  0.0171 -0.3857
  158SAPE   H4R17615   0.027   5.107   6.964  1.3329  0.2104  2.4541
  158SAPE   H4S17616   0.083   4.970   7.052  0.6601  0.8234 -0.5010
  158SAPE   C2517617  -0.133   4.987   7.023  1.2441 -0.0266 -0.0110
  158SAPE   H5R17618  -0.199   5.061   6.975  0.8058  0.9530  1.9720
  158SAPE   C2617619  -0.185   4.882   7.092 -0.1960 -0.2722 -0.3752
  158SAPE   H6R17620  -0.292   4.875   7.115 -0.2403 -0.0475 -0.4997
  158SAPE   C2717621  -0.106   4.760   7.141  0.0500 -0.7420  0.7537
  158SAPE   H7R17622  -0.011   4.757   7.084 -1.5700  0.6475 -2.2152
  158SAPE   H7S17623  -0.159   4.666   7.115 -0.3385 -0.6532  1.1859
  158SAPE   C2817624  -0.083   4.766   7.285 -0.7486  0.0742  0.2393
  158SAPE   H8R17625  -0.094   4.863   7.336  2.6098  1.5075 -1.4137
  158SAPE   C2917626  -0.037   4.663   7.362 -0.2458  0.0263 -0.1967
  158SAPE   H9R17627  -0.025   4.689   7.468 -0.3352 -0.6885 -0.0034
  158SAPE  C21017628   0.001   4.519   7.333 -0.6063  0.1535  0.8696
  158SAPE  H10R17629  -0.083   4.491   7.266 -0.2729  0.1054  0.4721
  158SAPE  H10S17630  -0.017   4.461   7.426 -1.9603 -3.7114 -1.5886
  158SAPE  C21117631   0.131   4.483   7.263  0.0545  0.0620  0.7838
  158SAPE  H11R17632   0.136   4.520   7.159 -2.1443  0.7126  0.8561
  158SAPE  C21217633   0.234   4.417   7.322  0.5713 -0.4435 -0.6110
  158SAPE  H12R17634   0.322   4.389   7.261 -1.0479 -0.4594 -3.1107
  158SAPE  C21317635   0.234   4.377   7.464 -0.1459  0.0893  0.4096
  158SAPE  H13R17636   0.192   4.464   7.520 -2.5052  0.8264 -2.2860
  158SAPE  H13S17637   0.343   4.371   7.483 -0.0998 -1.0829 -0.1495
  158SAPE  C21417638   0.153   4.250   7.485 -0.2414 -0.2508  0.8489
  158SAPE  H14R17639   0.106   4.217   7.391 -1.5214 -1.0135  1.7144
  158SAPE  C21517640   0.135   4.168   7.584 -0.3222  0.1728  0.5575
  158SAPE  H15R17641   0.078   4.076   7.567 -0.2356 -0.2883  2.4664
  158SAPE  C21617642   0.188   4.177   7.724 -0.2900 -0.3588  0.3561
  158SAPE  H16R17643   0.108   4.187   7.800  0.6343  1.4049  1.1657
  158SAPE  H16S17644   0.263   4.258   7.735 -1.2150  0.9466 -2.1715
  158SAPE  C21717645   0.263   4.049   7.784  0.4636  0.5380  0.2918
  158SAPE  H17R17646   0.344   4.015   7.716 -0.3296 -2.9606  0.8967
  158SAPE  H17S17647   0.189   3.966   7.788  0.6270  0.4205  0.9547
  158SAPE  C21817648   0.316   4.078   7.932  0.5014  0.6179  0.2957
  158SAPE  H18R17649   0.227   4.110   7.991  0.5223 -0.1249  0.7388
  158SAPE  H18S17650   0.392   4.158   7.924  1.0909 -0.0385 -1.0133
  158SAPE  C21917651   0.372   3.960   7.997 -0.5312  0.9326 -0.4167
  158SAPE  H19R17652   0.298   3.878   7.981 -0.3131 -0.3024  3.7283
  158SAPE  H19S17653   0.372   3.973   8.108  1.1423  2.5002 -0.5506
  158SAPE  C22017654   0.507   3.910   7.956  0.5266  0.7336  0.1983
  158SAPE  H20R17655   0.582   3.988   7.978 -1.4018  3.2520 -1.5383
  158SAPE  H20S17656   0.505   3.886   7.847 -1.1661  0.8786  0.1646
  158SAPE  H20T17657   0.519   3.815   8.012  0.1845 -0.0166 -0.9486
  158SAPE   C3317658   0.605   4.655   6.903 -0.2718 -0.0201 -0.6128
  158SAPE   H3X17659   0.659   4.596   6.979 -2.9402 -2.3622 -0.3527
  158SAPE   H3Y17660   0.525   4.587   6.866 -0.0881  0.1721 -1.3966
  158SAPE   C3417661   0.536   4.774   6.972  0.6035 -0.0147  0.5984
  158SAPE   H4X17662   0.448   4.820   6.922  0.1452 -2.0424 -0.5689
  158SAPE   H4Y17663   0.602   4.862   6.988 -0.0217  0.2678  1.7546
  158SAPE   C3517664   0.478   4.717   7.103 -0.2689  0.0648 -0.0471
  158SAPE   H5X17665   0.558   4.674   7.167  0.6961  2.0667  0.1982
  158SAPE   H5Y17666   0.412   4.634   7.071  1.4484 -1.5424  0.3656
  158SAPE   C3617667   0.388   4.813   7.175 -0.5687  0.6732 -0.3437
  158SAPE   H6X17668   0.283   4.808   7.138 -1.2850  0.4385  1.5918
  158SAPE   H6Y17669   0.417   4.919   7.158 -1.2466  0.8377 -0.5162
  158SAPE   C3717670   0.369   4.777   7.319  0.1690  0.1090  0.2805
  158SAPE   H7X17671   0.287   4.835   7.367  1.0182 -0.1883  2.1673
  158SAPE   H7Y17672   0.340   4.671   7.331 -0.3147  0.3805  1.6799
  158SAPE   C3817673   0.491   4.824   7.404  0.0304  0.4083 -1.0884
  158SAPE   H8X17674   0.517   4.931   7.390  1.9426 -0.0312 -1.2117
  158SAPE   H8Y17675   0.581   4.769   7.370 -0.2529 -1.4463  0.9263
  158SAPE   C3917676   0.472   4.800   7.557 -0.3503 -0.7190  0.9224
  158SAPE   H9X17677   0.565   4.813   7.616 -0.4213  1.3029  0.6669
  158SAPE   H9Y17678   0.427   4.699   7.566 -0.1904 -0.9550 -0.7121
  158SAPE  C31017679   0.357   4.884   7.620  0.5000 -0.6865  0.3552
  158SAPE  H10X17680   0.258   4.844   7.590  1.3113 -1.6089 -1.1993
  158SAPE  H10Y17681   0.364   4.983   7.570 -1.9534 -1.0932 -0.9509
  158SAPE  C31117682   0.371   4.891   7.777 -0.0861 -0.6122 -0.1401
  158SAPE  H11X17683   0.305   4.973   7.814  0.6184  0.7362 -1.7152
  158SAPE  H11Y17684   0.470   4.916   7.821 -0.7147 -1.5543  1.9165
  158SAPE  C31217685   0.332   4.752   7.841  0.2043 -0.7777 -0.0866
  158SAPE  H12X17686   0.407   4.684   7.794 -0.0139 -1.1566  0.1216
  158SAPE  H12Y17687   0.231   4.744   7.796  0.1458  1.0300 -0.3809
  158SAPE  C31317688   0.322   4.759   7.987  0.5878  0.6820  0.5727
  158SAPE  H13X17689   0.230   4.814   8.016  0.4639 -0.3569  2.3193
  158SAPE  H13Y17690   0.410   4.810   8.033  1.1723  1.2359 -1.0863
  158SAPE  C31417691   0.318   4.617   8.059  0.0585 -0.1706 -0.0092
  158SAPE  H14X17692   0.338   4.629   8.167  0.6155  2.3738 -0.3316
  158SAPE  H14Y17693   0.398   4.566   8.001  0.6197  0.2104  0.4187
  158SAPE  C31517694   0.182   4.542   8.034 -0.4376  1.0814 -0.1821
  158SAPE  H15X17695   0.157   4.534   7.926 -0.4646  0.5424 -0.1413
  158SAPE  H15Y17696   0.095   4.597   8.077  0.6045  1.6488  1.2625
  158SAPE  C31617697   0.188   4.405   8.087 -0.6154  0.0473 -0.0586
  158SAPE  H16X17698   0.260   4.398   8.172  0.2366 -0.2782 -0.7938
  158SAPE  H16Y17699   0.220   4.332   8.010 -1.5439  2.0068 -2.4662
  158SAPE  C31717700   0.060   4.362   8.144  0.6374 -0.1738 -0.1637
  158SAPE  H17X17701   0.062   4.251   8.153  0.7575 -0.2208 -0.7355
  158SAPE  H17Y17702  -0.026   4.385   8.078  0.8025  0.7153 -0.0778
  158SAPE  C31817703   0.026   4.417   8.282  0.1801 -0.2010 -0.2413
  158SAPE  H18X17704   0.104   4.388   8.355 -2.0136 -0.8322  2.0129
  158SAPE  H18Y17705  -0.071   4.384   8.326  0.9916 -0.9052  1.0634
  158SAPE  H18Z17706   0.018   4.528   8.282 -0.1790 -0.2037  1.1754
  159SAPE     N17707   6.722   0.451   6.373  0.3378  0.5159 -0.1103
  159SAPE   HN117708   6.769   0.417   6.460  0.0552 -2.9623 -1.1432
  159SAPE   HN217709   6.649   0.522   6.391 -0.6132 -0.4785  0.0953
  159SAPE   HN317710   6.665   0.370   6.340 -0.1107  0.5449  0.5763
  159SAPE   C1217711   6.819   0.491   6.264 -0.7013 -0.5877  0.0281
  159SAPE  H12A17712   6.878   0.398   6.254 -0.2756 -0.6926  2.9074
  159SAPE  H12B17713   6.879   0.576   6.303  1.5766 -1.7905 -0.6905
  159SAPE   C1117714   6.738   0.541   6.136  0.2781  0.0420 -0.2387
  159SAPE  H11A17715   6.691   0.456   6.083  0.3758  1.0307 -1.9814
  159SAPE  H11B17716   6.812   0.584   6.065 -0.4581 -1.0983 -1.7339
  159SAPE     P17717   6.666   0.801   6.163  0.0155 -0.2728  0.2399
  159SAPE   O1317718   6.770   0.848   6.252 -0.4536 -0.2390 -0.1332
  159SAPE   O1417719   6.672   0.838   6.020  0.9149 -0.0028 -0.2656
  159SAPE   O1217720   6.642   0.638   6.177 -0.0136 -0.4109 -0.2134
  159SAPE   O1117721   6.520   0.861   6.223 -0.3455  0.3954 -0.0846
  159SAPE    C117722   6.530   0.961   6.324 -0.5757 -0.2530  0.6647
  159SAPE    HA17723   6.609   1.038   6.317  1.2930 -2.1768 -0.3637
  159SAPE    HB17724   6.433   1.015   6.330 -0.5396 -0.1934  0.7074
  159SAPE    C217725   6.532   0.886   6.462  0.0279 -0.2045  0.5500
  159SAPE    HS17726   6.616   0.814   6.469  2.3424  2.4206  1.9894
  159SAPE   O2117727   6.401   0.831   6.479 -0.1583 -0.5559 -0.3555
  159SAPE   C2117728   6.390   0.719   6.558  0.5559 -1.0458 -0.6000
  159SAPE   O2217729   6.479   0.654   6.615  0.2782 -0.0164 -0.2670
  159SAPE   C2217730   6.241   0.687   6.572  0.3400  0.4844  0.4119
  159SAPE   H2R17731   6.205   0.653   6.472  0.1268  1.7010  0.0538
  159SAPE   H2S17732   6.220   0.610   6.648 -1.2758 -0.8581 -1.3025
  159SAPE    C317733   6.556   0.992   6.575 -0.1216 -0.0781  0.7364
  159SAPE    HX17734   6.478   1.072   6.570 -0.0212 -0.0370 -0.4230
  159SAPE    HY17735   6.654   1.041   6.557  1.9941 -3.9614  0.7944
  159SAPE   O3117736   6.550   0.933   6.708  0.4193 -0.2553  0.4102
  159SAPE   C3117737   6.665   0.881   6.746  0.7166  0.5171 -0.0381
  159SAPE   O3217738   6.768   0.890   6.678 -0.3915 -0.4569  0.4626
  159SAPE   C3217739   6.651   0.812   6.881  0.1973  0.2023 -0.2723
  159SAPE   H2X17740   6.651   0.704   6.857 -3.8692 -0.1925  0.8174
  159SAPE   H2Y17741   6.548   0.830   6.917  0.2404 -0.5598  0.2500
  159SAPE   C2317742   6.155   0.819   6.610 -0.1913 -0.3394  0.1784
  159SAPE   H3R17743   6.047   0.795   6.617 -0.2357 -0.8189 -1.7031
  159SAPE   H3S17744   6.164   0.909   6.547  2.2118  0.2527  1.2422
  159SAPE   C2417745   6.199   0.848   6.758 -0.1781  0.3639 -0.6531
  159SAPE   H4R17746   6.306   0.876   6.776  0.2916 -0.7015 -1.6782
  159SAPE   H4S17747   6.187   0.752   6.812  2.4470 -0.7989 -1.9629
  159SAPE   C2517748   6.107   0.959   6.812  0.6252  0.4462 -0.0301
  159SAPE   H5R17749   6.062   1.035   6.747  1.8848  4.0326  2.8980
  159SAPE   C2617750   6.081   0.977   6.946 -0.4738  0.1465  0.7924
  159SAPE   H6R17751   6.014   1.059   6.976  0.7173  0.7695  1.8395
  159SAPE   C2717752   6.140   0.901   7.062  0.4428 -0.1084  0.5484
  159SAPE   H7R17753   6.138   0.794   7.032 -2.3277 -0.4848  1.7792
  159SAPE   H7S17754   6.060   0.912   7.138 -0.5805  2.0999 -0.7455
  159SAPE   C2817755   6.274   0.934   7.114 -0.0314 -0.3273 -0.1068
  159SAPE   H8R17756   6.354   0.927   7.039 -0.7951 -0.5859 -0.9045
  159SAPE   C2917757   6.299   0.971   7.238  0.0295  0.3179  0.1187
  159SAPE   H9R17758   6.405   0.979   7.268  0.1202 -0.0096 -0.1058
  159SAPE  C21017759   6.206   1.009   7.349  0.1365  0.3491  0.0145
  159SAPE  H10R17760   6.119   0.940   7.349  0.3144 -0.0146  3.1705
  159SAPE  H10S17761   6.165   1.112   7.343 -1.0941  0.0089  1.7442
  159SAPE  C21117762   6.268   0.989   7.487 -0.1622  0.3561  0.1517
  159SAPE  H11R17763   6.377   0.975   7.482 -0.1957 -0.3450  1.1622
  159SAPE  C21217764   6.208   0.965   7.603  0.0826 -0.2156 -0.3314
  159SAPE  H12R17765   6.265   0.970   7.697 -0.4854  2.8439 -0.0623
  159SAPE  C21317766   6.059   0.964   7.629  0.7960  0.2439  0.3262
  159SAPE  H13R17767   6.000   0.937   7.539  0.2324 -0.7657  0.9822
  159SAPE  H13S17768   6.022   1.064   7.661  1.7503  1.0318 -0.8863
  159SAPE  C21417769   6.014   0.866   7.740  0.2380  0.5028  1.1945
  159SAPE  H14R17770   6.037   0.762   7.715 -1.7069  0.3976 -0.4772
  159SAPE  C21517771   5.969   0.886   7.871 -0.0250 -0.6429  0.5463
  159SAPE  H15R17772   5.950   0.795   7.930 -0.8003 -1.5353 -1.0159
  159SAPE  C21617773   5.945   1.024   7.931 -0.6616  0.4025 -0.3478
  159SAPE  H16R17774   5.847   1.012   7.983 -0.6529 -1.1208 -0.6195
  159SAPE  H16S17775   5.918   1.106   7.862 -1.5747 -0.0040 -0.4981
  159SAPE  C21717776   6.063   1.057   8.029  0.9367  0.0243  0.2776
  159SAPE  H17R17777   6.160   1.074   7.978  0.7694 -1.6800 -0.6669
  159SAPE  H17S17778   6.087   0.970   8.093  1.0429 -0.3641 -0.2883
  159SAPE  C21817779   6.025   1.183   8.106 -0.0756  0.4841 -0.6325
  159SAPE  H18R17780   5.931   1.164   8.163  0.8509 -0.5344  0.6074
  159SAPE  H18S17781   6.005   1.258   8.026 -0.9407 -0.2090 -1.0851
  159SAPE  C21917782   6.131   1.214   8.212  0.2179 -0.8919  0.8734
  159SAPE  H19R17783   6.230   1.225   8.163  0.9742 -0.9970  2.3305
  159SAPE  H19S17784   6.148   1.121   8.271  0.0401 -0.1484  2.1407
  159SAPE  C22017785   6.090   1.323   8.303 -0.4017  0.3249  0.0434
  159SAPE  H20R17786   6.111   1.425   8.263 -1.1089  0.2703 -0.4842
  159SAPE  H20S17787   6.148   1.316   8.397  0.8577 -0.2970 -0.7452
  159SAPE  H20T17788   5.984   1.324   8.336 -0.4998  0.0514 -0.2561
  159SAPE   C3317789   6.764   0.860   6.981  0.0406  0.4611 -0.6003
  159SAPE   H3X17790   6.753   0.970   6.992 -2.5095  0.3342 -1.2006
  159SAPE   H3Y17791   6.868   0.832   6.954  0.3959  1.0019  0.1773
  159SAPE   C3417792   6.719   0.804   7.120  0.3660  0.3398 -0.8730
  159SAPE   H4X17793   6.742   0.696   7.135 -0.7496 -0.2971 -3.3574
  159SAPE   H4Y17794   6.611   0.817   7.143 -0.1456 -1.9323 -1.7767
  159SAPE   C3517795   6.783   0.889   7.240 -0.5217  0.1127  1.1122
  159SAPE   H5X17796   6.794   0.997   7.216  2.5836 -0.0342  1.4429
  159SAPE   H5Y17797   6.891   0.869   7.255 -0.0681  1.6207  0.0216
  159SAPE   C3617798   6.722   0.882   7.378  0.5192  0.2764  0.1223
  159SAPE   H6X17799   6.724   0.776   7.413 -0.4179 -0.5742 -2.1857
  159SAPE   H6Y17800   6.613   0.903   7.376  0.7474  1.4953 -0.5386
  159SAPE   C3717801   6.776   0.965   7.482 -0.5554  0.4854 -0.0579
  159SAPE   H7X17802   6.774   1.071   7.447  1.7415  0.6810  0.2350
  159SAPE   H7Y17803   6.882   0.932   7.492 -0.0390  2.2016  0.7117
  159SAPE   C3817804   6.693   0.950   7.611  0.5558 -0.3757 -0.0380
  159SAPE   H8X17805   6.701   0.844   7.644 -0.7182 -0.8623 -1.1881
  159SAPE   H8Y17806   6.589   0.980   7.586  0.8121  1.9394  1.4085
  159SAPE   C3917807   6.743   1.041   7.728  0.1285 -0.2364  0.2523
  159SAPE   H9X17808   6.745   1.148   7.696  2.1854 -0.0658  0.7713
  159SAPE   H9Y17809   6.848   1.012   7.752  0.6799  0.9190 -0.6392
  159SAPE  C31017810   6.665   1.030   7.855 -0.0929 -0.1167  0.0727
  159SAPE  H10X17811   6.736   1.067   7.933  1.7132  0.1345 -1.6149
  159SAPE  H10Y17812   6.652   0.922   7.880  1.8960 -0.3620  0.2709
  159SAPE  C31117813   6.531   1.105   7.854 -0.0276 -0.3589  0.3742
  159SAPE  H11X17814   6.459   1.039   7.908  0.0397 -1.1913 -0.5361
  159SAPE  H11Y17815   6.500   1.117   7.748  0.8024 -0.0561  0.1600
  159SAPE  C31217816   6.530   1.238   7.918  0.5155 -0.3105  0.1754
  159SAPE  H12X17817   6.609   1.303   7.875  0.4002 -0.1907  0.1445
  159SAPE  H12Y17818   6.555   1.230   8.026  1.1595  2.0536  0.2480
  159SAPE  C31317819   6.390   1.299   7.893  0.6996  0.0517 -0.4486
  159SAPE  H13X17820   6.330   1.238   7.963  2.2085  1.8892  2.6842
  159SAPE  H13Y17821   6.364   1.268   7.790  1.4117  1.6739 -1.1498
  159SAPE  C31417822   6.373   1.449   7.904 -0.4527 -0.8466 -0.3649
  159SAPE  H14X17823   6.439   1.500   7.831  0.3804 -1.9075 -0.3876
  159SAPE  H14Y17824   6.410   1.474   8.005  0.9563  1.5462 -1.3990
  159SAPE  C31517825   6.225   1.490   7.900  0.1549  0.3808  0.0083
  159SAPE  H15X17826   6.164   1.426   7.966  0.3667 -0.6977 -0.8097
  159SAPE  H15Y17827   6.175   1.474   7.802  0.1513 -0.0118  0.0745
  159SAPE  C31617828   6.206   1.641   7.939  0.2172 -0.2167 -0.3965
  159SAPE  H16X17829   6.257   1.708   7.866 -2.3190  0.3671 -1.7654
  159SAPE  H16Y17830   6.258   1.646   8.037  1.4015  0.9155 -1.0459
  159SAPE  C31717831   6.061   1.676   7.961  0.0999 -0.0696  0.3378
  159SAPE  H17X17832   6.014   1.605   8.033  2.1048 -0.2981  1.5018
  159SAPE  H17Y17833   6.003   1.667   7.867  0.8062  1.3256 -0.2594
  159SAPE  C31817834   6.045   1.817   8.023 -0.3165  0.0768  0.5231
  159SAPE  H18X17835   6.101   1.884   7.954  1.9763 -0.7653  1.4788
  159SAPE  H18Y17836   6.103   1.803   8.116  0.6831 -1.6133 -0.3047
  159SAPE  H18Z17837   5.942   1.853   8.047  0.1153  0.4399  1.9205
  160SAPE     N17838   0.198   5.836   6.477 -0.4631  0.3142 -0.2587
  160SAPE   HN117839   0.289   5.814   6.433 -0.1747  0.1390  0.4178
  160SAPE   HN217840   0.159   5.746   6.512  0.6513 -0.1038 -0.0657
  160SAPE   HN317841   0.136   5.888   6.412 -1.5612 -0.3643  0.2217
  160SAPE   C1217842   0.217   5.930   6.596  0.3815  1.2395  0.4963
  160SAPE  H12A17843   0.282   5.874   6.666 -0.3738  0.3536  0.5128
  160SAPE  H12B17844   0.116   5.943   6.640  1.1765  1.0022  2.4886
  160SAPE   C1117845   0.280   6.062   6.568 -1.1435  0.3512  0.4273
  160SAPE  H11A17846   0.381   6.043   6.525 -0.3242  0.0791  2.3518
  160SAPE  H11B17847   0.287   6.119   6.663  0.4777 -0.7186  0.9804
  160SAPE     P17848   0.226   6.277   6.413  0.1343 -0.0188 -0.2438
  160SAPE   O1317849   0.316   6.351   6.501 -0.6493  0.0864  0.3315
  160SAPE   O1417850   0.256   6.248   6.275 -0.2693 -0.0183  0.0665
  160SAPE   O1217851   0.199   6.144   6.487  0.5946 -0.1502 -0.4118
  160SAPE   O1117852   0.082   6.342   6.423  0.1738 -0.7973  0.0381
  160SAPE    C117853  -0.011   6.311   6.530  0.3944  0.1266  0.2247
  160SAPE    HA17854  -0.114   6.341   6.503 -0.0413 -2.2043 -0.9650
  160SAPE    HB17855  -0.012   6.204   6.561  0.8068  0.7409  2.5146
  160SAPE    C217856   0.027   6.391   6.663  0.2511  0.1617  0.3683
  160SAPE    HS17857   0.136   6.382   6.682  0.5842  1.1822 -0.8790
  160SAPE   O2117858  -0.053   6.356   6.778 -0.3613  0.3868 -0.0421
  160SAPE   C2117859  -0.000   6.252   6.843 -0.2234 -0.1481  0.5687
  160SAPE   O2217860   0.111   6.207   6.812  0.2925 -0.2267  0.2020
  160SAPE   C2217861  -0.097   6.214   6.958  0.4152 -0.6622  0.6045
  160SAPE   H2R17862  -0.165   6.298   6.986 -0.3550 -0.2256 -2.3120
  160SAPE   H2S17863  -0.156   6.129   6.919  0.5476  0.1272 -1.4440
  160SAPE    C317864   0.017   6.538   6.645 -0.3588 -0.5199  0.7120
  160SAPE    HX17865  -0.090   6.565   6.630 -1.1224 -3.1311  1.0875
  160SAPE    HY17866   0.070   6.570   6.553  1.9088 -3.0471  1.0326
  160SAPE   O3117867   0.073   6.609   6.761  0.3247  0.2229  0.0786
  160SAPE   C3117868   0.017   6.721   6.802 -0.1707  0.1490 -0.5321
  160SAPE   O3217869  -0.081   6.771   6.754 -0.1892 -0.2057 -0.5102
  160SAPE   C3217870   0.097   6.779   6.911 -0.0595 -0.0485  0.1569
  160SAPE   H2X17871   0.170   6.844   6.858 -0.0184  1.1614  1.6238
  160SAPE   H2Y17872   0.158   6.702   6.962  1.3407  1.1195  0.3060
  160SAPE   C2317873  -0.003   6.180   7.079  0.5266  0.3673 -0.0715
  160SAPE   H3R17874   0.058   6.091   7.056  1.0115  0.1989  1.6615
  160SAPE   H3S17875  -0.075   6.148   7.158  1.2463  1.1940  0.9561
  160SAPE   C2417876   0.082   6.296   7.130  0.1455 -0.4316 -0.1477
  160SAPE   H4R17877   0.154   6.328   7.052  0.3032  0.5167  0.3641
  160SAPE   H4S17878   0.146   6.247   7.206 -0.3774 -0.9901 -0.0670
  160SAPE   C2517879   0.010   6.420   7.178  0.4282  0.0202  0.3252
  160SAPE   H5R17880  -0.036   6.476   7.095 -1.2461  0.7804  1.6896
  160SAPE   C2617881  -0.004   6.468   7.302  0.0888 -0.6862  0.9116
  160SAPE   H6R17882  -0.068   6.553   7.328 -0.1192 -0.5865  0.1108
  160SAPE   C2717883   0.057   6.399   7.419 -0.4163 -0.2243 -0.1192
  160SAPE   H7R17884   0.154   6.449   7.437 -0.9066  0.6314  0.1714
  160SAPE   H7S17885   0.076   6.293   7.389 -2.1508 -0.1880 -1.5397
  160SAPE   C2817886  -0.029   6.400   7.536 -0.2474  0.1175 -1.1474
  160SAPE   H8R17887  -0.103   6.319   7.528 -2.9810  2.2426  0.7246
  160SAPE   C2917888  -0.023   6.489   7.637  0.3168 -0.5514 -0.1386
  160SAPE   H9R17889  -0.087   6.473   7.725  2.5300 -3.2007  1.1623
  160SAPE  C21017890   0.080   6.597   7.641  0.3838 -0.1073 -0.5356
  160SAPE  H10R17891   0.038   6.683   7.698  2.5543 -0.3702  1.5878
  160SAPE  H10S17892   0.093   6.642   7.540 -1.0218 -1.4489 -1.3574
  160SAPE  C21117893   0.208   6.564   7.713  0.1071 -0.8046 -0.0882
  160SAPE  H11R17894   0.212   6.476   7.780  0.2989 -1.5501 -1.0525
  160SAPE  C21217895   0.329   6.627   7.694  0.0876 -0.4803 -0.2377
  160SAPE  H12R17896   0.415   6.594   7.754  0.5715  2.1923  0.6532
  160SAPE  C21317897   0.342   6.743   7.604 -0.6121  0.0446  0.8098
  160SAPE  H13R17898   0.252   6.809   7.612 -1.0888 -0.3754 -0.7526
  160SAPE  H13S17899   0.344   6.710   7.498  1.9374 -0.5145  0.9848
  160SAPE  C21417900   0.463   6.823   7.644  0.1011  0.1404  0.4219
  160SAPE  H14R17901   0.547   6.805   7.575  0.8695 -3.3482  2.0635
  160SAPE  C21517902   0.474   6.919   7.733  0.4197 -0.1671 -0.0205
  160SAPE  H15R17903   0.571   6.965   7.754  0.3197  0.3882 -0.7171
  160SAPE  C21617904   0.362   6.962   7.822 -0.3816 -0.8914  1.1762
  160SAPE  H16R17905   0.274   6.895   7.807 -0.2990 -0.8645  0.5416
  160SAPE  H16S17906   0.323   7.060   7.786 -0.0853 -1.4879 -0.9190
  160SAPE  C21717907   0.411   6.947   7.963 -0.0336  0.1821 -0.0763
  160SAPE  H17R17908   0.491   7.023   7.975  1.5656 -0.5494 -4.2738
  160SAPE  H17S17909   0.452   6.847   7.989 -0.9131 -0.2017 -0.1452
  160SAPE  C21817910   0.301   6.979   8.059  0.1103 -0.6197 -0.1151
  160SAPE  H18R17911   0.250   7.076   8.041 -0.0416 -0.6501  0.1465
  160SAPE  H18S17912   0.336   6.983   8.164  0.2170  2.7256 -0.1635
  160SAPE  C21917913   0.191   6.872   8.064  0.1462 -0.0171  0.7054
  160SAPE  H19R17914   0.157   6.847   7.962 -0.1424  0.2675  0.7294
  160SAPE  H19S17915   0.103   6.919   8.114 -0.6892 -0.8327  0.0349
  160SAPE  C22017916   0.231   6.748   8.141  0.0379  0.2564  0.0233
  160SAPE  H20R17917   0.295   6.679   8.082  3.7276  1.5644  2.1955
  160SAPE  H20S17918   0.143   6.682   8.156  0.3006 -0.7230 -2.3260
  160SAPE  H20T17919   0.283   6.780   8.233  2.6325 -1.4713 -0.7262
  160SAPE   C3317920   0.014   6.860   7.017 -0.2402 -0.1312  0.4774
  160SAPE   H3X17921  -0.054   6.790   7.071 -0.0601  0.0634  0.9600
  160SAPE   H3Y17922  -0.048   6.933   6.961 -1.1050 -1.7403 -0.7295
  160SAPE   C3417923   0.108   6.934   7.115 -0.1479 -0.0096 -0.5599
  160SAPE   H4X17924   0.147   7.033   7.082 -1.0073  1.7168  3.0915
  160SAPE   H4Y17925   0.194   6.866   7.133  0.0901  0.0612 -1.3878
  160SAPE   C3517926   0.048   6.951   7.259 -0.1185  0.3149 -0.2008
  160SAPE   H5X17927   0.047   6.857   7.318 -0.3227  1.2434  1.3176
  160SAPE   H5Y17928  -0.058   6.981   7.246 -1.3641 -1.7071  3.7537
  160SAPE   C3617929   0.131   7.042   7.349  0.6850  0.6375  0.2255
  160SAPE   H6X17930   0.162   7.130   7.288 -0.5206  0.6965 -0.3313
  160SAPE   H6Y17931   0.222   6.987   7.382  2.0681  0.0770 -3.8546
  160SAPE   C3717932   0.054   7.089   7.479  0.2842 -0.4715  0.3826
  160SAPE   H7X17933   0.028   7.018   7.561 -1.8711  0.1854  0.3322
  160SAPE   H7Y17934  -0.035   7.138   7.435  0.8923  0.2580 -0.0424
  160SAPE   C3817935   0.143   7.192   7.557 -0.3105  0.3266  0.6946
  160SAPE   H8X17936   0.190   7.263   7.485 -3.2508  2.0263  0.2995
  160SAPE   H8Y17937   0.231   7.138   7.597  2.4122  3.1438 -1.0187
  160SAPE   C3917938   0.054   7.273   7.649 -0.6671  0.7970  0.3430
  160SAPE   H9X17939  -0.035   7.217   7.685  0.9610 -0.5745  2.4788
  160SAPE   H9Y17940   0.021   7.370   7.606 -0.1374  0.1565 -1.6161
  160SAPE  C31017941   0.129   7.285   7.786 -0.8950 -0.0447  0.1498
  160SAPE  H10X17942   0.231   7.316   7.756 -1.1914 -0.3784 -1.2806
  160SAPE  H10Y17943   0.144   7.188   7.836  0.8655 -0.5658 -1.2896
  160SAPE  C31117944   0.059   7.378   7.886 -0.2046  0.1629 -0.4834
  160SAPE  H11X17945  -0.042   7.339   7.910 -0.6947  3.1049  3.1198
  160SAPE  H11Y17946   0.055   7.482   7.845 -0.6630  0.2071 -0.3261
  160SAPE  C31217947   0.119   7.376   8.027 -0.8374 -0.0901 -0.1759
  160SAPE  H12X17948   0.226   7.400   8.012 -1.0184  0.2524 -0.9658
  160SAPE  H12Y17949   0.116   7.274   8.070  0.9419 -0.3390 -0.5764
  160SAPE  C31317950   0.049   7.474   8.124  0.5714  0.1548 -0.0496
  160SAPE  H13X17951  -0.061   7.469   8.108  0.5517  1.4153 -0.4275
  160SAPE  H13Y17952   0.077   7.579   8.098 -1.1587  0.4352 -0.9393
  160SAPE  C31417953   0.081   7.448   8.268 -0.2043 -0.1856  0.1638
  160SAPE  H14X17954   0.192   7.451   8.278 -0.2774  0.0719  0.9014
  160SAPE  H14Y17955   0.058   7.344   8.300  1.4080 -0.3726  0.7965
  160SAPE  C31517956   0.011   7.539   8.374 -0.0632  0.0327 -1.2884
  160SAPE  H15X17957  -0.093   7.561   8.343 -0.9422 -0.8983  0.7402
  160SAPE  H15Y17958   0.060   7.637   8.391 -0.4893  0.3334 -1.7732
  160SAPE  C31617959   0.008   7.463   8.509 -0.2241  0.2005 -0.1900
  160SAPE  H16X17960  -0.042   7.366   8.489  0.4476 -0.0818 -0.5272
  160SAPE  H16Y17961  -0.053   7.535   8.569  1.2155  1.7492 -0.5069
  160SAPE  C31717962   0.147   7.458   8.573 -0.3711  0.1459 -0.8602
  160SAPE  H17X17963   0.196   7.554   8.545  0.3555 -0.6294 -2.3552
  160SAPE  H17Y17964   0.203   7.370   8.537 -3.0083 -1.5172 -1.1384
  160SAPE  C31817965   0.138   7.447   8.724 -0.0023  0.5615  0.5131
  160SAPE  H18X17966   0.110   7.340   8.736 -3.1038  0.8570 -2.5029
  160SAPE  H18Y17967   0.064   7.512   8.776  1.7636  1.9414  1.4042
  160SAPE  H18Z17968   0.234   7.477   8.772  0.4220  0.5034 -0.2769
  161SOPE     N17969   0.803   3.036  10.707 -0.6660 -0.4195  0.0897
  161SOPE   HN117970   0.718   2.984  10.738  0.6265 -2.1973  0.8463
  161SOPE   HN217971   0.881   2.967  10.703  0.0124  0.3940 -1.2049
  161SOPE   HN317972   0.830   3.110  10.775 -0.1377  0.0070 -0.5814
  161SOPE   C1217973   0.787   3.090  10.566 -0.2363  0.2116  0.3654
  161SOPE  H12A17974   0.889   3.096  10.522 -0.4447  1.9516  0.0428
  161SOPE  H12B17975   0.751   3.195  10.569 -0.2185  0.2944 -1.3523
  161SOPE   C1117976   0.702   2.994  10.476 -0.0806  0.2779  1.3360
  161SOPE  H11A17977   0.765   2.904  10.457 -0.6703  0.2044 -0.4030
  161SOPE  H11B17978   0.680   3.034  10.375 -0.8633 -0.8629  1.0266
  161SOPE     P17979   0.455   3.030  10.534 -0.0314 -0.2128 -0.2296
  161SOPE   O1317980   0.485   3.162  10.590  0.4327 -0.3603  0.1036
  161SOPE   O1417981   0.354   2.953  10.605  0.2469  0.1039  0.3585
  161SOPE   O1217982   0.587   2.949  10.543  0.7990 -0.0921  0.0769
  161SOPE   O1117983   0.412   3.036  10.383 -0.0060  0.4341  0.4522
  161SOPE    C117984   0.370   2.917  10.312  0.7475  0.0165  0.3285
  161SOPE    HA17985   0.261   2.895  10.316  0.4061  1.6929  0.9738
  161SOPE    HB17986   0.433   2.832  10.345  0.4613  0.6437  2.6815
  161SOPE    C217987   0.398   2.940  10.159 -0.7063  0.5720  0.4336
  161SOPE    HS17988   0.503   2.976  10.153 -0.9088  1.0886 -0.0837
  161SOPE   O2117989   0.312   3.040  10.106 -0.3452 -0.4949  0.0469
  161SOPE   C2117990   0.368   3.137  10.023 -0.0678  0.7955 -0.0685
  161SOPE   O2217991   0.485   3.136  10.000 -0.8690  0.1510 -0.0982
  161SOPE   C2217992   0.261   3.226   9.967  0.2746  0.0702 -0.3537
  161SOPE   H2R17993   0.203   3.262  10.055  2.4075 -1.1264  1.6549
  161SOPE   H2S17994   0.190   3.165   9.908  1.0560  1.2558 -2.6525
  161SOPE    C317995   0.377   2.806  10.077  0.6674 -0.1758  0.8663
  161SOPE    HX17996   0.269   2.781  10.083  0.5866  0.4979  2.7343
  161SOPE    HY17997   0.437   2.728  10.126 -1.1530 -1.1860  1.5930
  161SOPE   O3117998   0.434   2.822   9.946  0.4188 -0.4180 -0.0895
  161SOPE   C3117999   0.349   2.847   9.846  0.4252  0.9696  1.3018
  161SOPE   O3218000   0.228   2.863   9.852  0.2237  0.6390 -0.7615
  161SOPE   C3218001   0.432   2.854   9.719  0.4841  0.1815 -0.3819
  161SOPE   H2X18002   0.468   2.748   9.718  1.2925  0.4133  1.0324
  161SOPE   H2Y18003   0.513   2.928   9.737 -1.1776  2.0129 -0.1035
  161SOPE   C2318004   0.313   3.339   9.871  0.6982 -0.4021  0.1521
  161SOPE   H3R18005   0.391   3.304   9.800  0.7188  1.1709 -0.6497
  161SOPE   H3S18006   0.354   3.427   9.925 -0.6600  1.2724 -1.4250
  161SOPE   C2418007   0.216   3.391   9.767 -0.3811 -0.5852  0.6648
  161SOPE   H4R18008   0.114   3.409   9.805 -1.3660 -1.4255 -1.4135
  161SOPE   H4S18009   0.257   3.490   9.738  0.1381 -1.2532 -1.0308
  161SOPE   C2518010   0.209   3.291   9.641  0.0177 -0.2849  0.2308
  161SOPE   H5R18011   0.312   3.270   9.604  0.4634  0.1896  1.1704
  161SOPE   H5S18012   0.169   3.194   9.679  2.1424 -0.9794  0.8736
  161SOPE   C2618013   0.117   3.342   9.529  0.0860 -0.6662  0.9474
  161SOPE   H6R18014   0.103   3.258   9.458  1.6241  0.3655 -0.6402
  161SOPE   H6S18015   0.021   3.372   9.577  0.8274  0.5847  1.6943
  161SOPE   C2718016   0.170   3.469   9.455  0.0634  0.4657  0.4800
  161SOPE   H7R18017   0.186   3.551   9.528  0.3453 -0.2154  1.1968
  161SOPE   H7S18018   0.269   3.442   9.413 -0.7866  0.1527 -1.4071
  161SOPE   C2818019   0.073   3.512   9.341  0.2041 -0.2701  0.1596
  161SOPE   H8R18020   0.056   3.428   9.271 -0.1313 -0.4092  0.4084
  161SOPE   H8S18021  -0.029   3.532   9.380 -0.0223 -0.7295 -0.1946
  161SOPE   C2918022   0.124   3.635   9.270  0.4302 -0.0423 -0.2752
  161SOPE   H9118023   0.234   3.640   9.278  0.4367  1.3204 -0.9012
  161SOPE  C21018024   0.057   3.740   9.219  0.1954  0.3355  0.0208
  161SOPE  H10118025   0.108   3.813   9.154  0.7829 -0.8096 -0.8469
  161SOPE  C21118026  -0.093   3.755   9.214  0.2141  0.4189  1.1735
  161SOPE  H11R18027  -0.130   3.843   9.272  0.5480  2.1772 -1.1348
  161SOPE  H11S18028  -0.148   3.666   9.251 -2.7846  1.5464 -0.2459
  161SOPE  C21218029  -0.135   3.764   9.065  0.6710 -0.8150  0.6935
  161SOPE  H12R18030  -0.108   3.666   9.020  1.5826 -0.5092  0.5682
  161SOPE  H12S18031  -0.071   3.835   9.009 -1.7705 -1.0614 -2.7896
  161SOPE  C21318032  -0.293   3.782   9.042 -0.3803 -0.6140  1.1052
  161SOPE  H13R18033  -0.335   3.859   9.111  2.0229  0.9638  0.9253
  161SOPE  H13S18034  -0.328   3.678   9.058  1.5335 -1.8390 -1.7881
  161SOPE  C21418035  -0.326   3.828   8.897  1.0579  0.2844 -0.1419
  161SOPE  H14R18036  -0.262   3.917   8.882 -1.2757  2.4071  1.5838
  161SOPE  H14S18037  -0.427   3.874   8.904  0.2640 -0.3259 -4.5140
  161SOPE  C21518038  -0.336   3.729   8.792 -0.4295  0.0098  0.2456
  161SOPE  H15R18039  -0.385   3.631   8.810 -0.1600 -0.1871 -0.0701
  161SOPE  H15S18040  -0.235   3.693   8.764 -0.6231 -0.2801 -0.0934
  161SOPE  C21618041  -0.398   3.784   8.666 -0.1464  0.3153 -0.3828
  161SOPE  H16R18042  -0.339   3.875   8.639 -0.1256  0.4050 -0.0420
  161SOPE  H16S18043  -0.502   3.808   8.697 -0.3872  0.4514 -1.2780
  161SOPE  C21718044  -0.408   3.688   8.541  0.1816  0.0921 -0.4764
  161SOPE  H17R18045  -0.485   3.610   8.559 -0.9224  1.1357 -0.5598
  161SOPE  H17S18046  -0.313   3.632   8.530  1.6069  2.2791  0.1896
  161SOPE  C21818047  -0.436   3.763   8.415  0.3208 -0.2137 -0.2832
  161SOPE  H18R18048  -0.347   3.806   8.365 -0.6252  4.9537  1.7994
  161SOPE  H18S18049  -0.503   3.851   8.426  2.6386  1.5831  0.3210
  161SOPE  H18T18050  -0.482   3.698   8.338 -0.7453  1.6594 -1.2900
  161SOPE   C3318051   0.336   2.898   9.601 -0.1276  0.1731 -0.4490
  161SOPE   H3X18052   0.273   2.986   9.626  0.1310 -0.1497  1.5492
  161SOPE   H3Y18053   0.261   2.816   9.599 -0.2075  0.2140  0.4586
  161SOPE   C3418054   0.407   2.913   9.465 -0.1266  0.1606  0.3417
  161SOPE   H4X18055   0.467   2.820   9.453  1.1847  0.8516  1.2131
  161SOPE   H4Y18056   0.479   2.997   9.476  0.4765 -0.3970  0.7856
  161SOPE   C3518057   0.305   2.959   9.358  0.3838  0.8375  0.4588
  161SOPE   H5X18058   0.238   3.034   9.405 -0.7445 -1.2482  2.4030
  161SOPE   H5Y18059   0.247   2.868   9.332  2.3398  0.4286 -3.0465
  161SOPE   C3618060   0.382   2.989   9.226 -0.1308 -0.9207 -0.4470
  161SOPE   H6X18061   0.309   3.004   9.143 -2.6300  0.5830  1.8362
  161SOPE   H6Y18062   0.447   2.901   9.206 -0.5065 -1.3250  0.0535
  161SOPE   C3718063   0.465   3.116   9.243  0.2140  0.0342  0.1888
  161SOPE   H7X18064   0.565   3.085   9.279 -0.3028 -0.8062  0.9628
  161SOPE   H7Y18065   0.424   3.180   9.323 -0.6367 -0.2588  0.0073
  161SOPE   C3818066   0.475   3.185   9.103  0.0574  0.0385  0.8756
  161SOPE   H8X18067   0.522   3.283   9.127 -2.5109  2.3346 -2.5699
  161SOPE   H8Y18068   0.379   3.203   9.050  1.7045  0.7140 -2.0490
  161SOPE   C3918069   0.557   3.109   8.999 -0.4316 -0.2435  0.1220
  161SOPE   H9X18070   0.480   3.033   8.971 -0.6846  0.8503 -2.4248
  161SOPE   H9Y18071   0.652   3.065   9.036 -0.1585  0.4107  0.2128
  161SOPE  C31018072   0.580   3.205   8.880  0.5179  0.7760 -1.0285
  161SOPE  H10X18073   0.640   3.290   8.920  0.0609  0.5738  0.1160
  161SOPE  H10Y18074   0.483   3.238   8.837 -1.8460 -2.9430  0.9976
  161SOPE  C31118075   0.651   3.135   8.768 -0.1019 -0.5093  0.7554
  161SOPE  H11X18076   0.579   3.084   8.699  1.5888  0.0637 -1.5450
  161SOPE  H11Y18077   0.724   3.057   8.799  1.7501  0.6862 -0.4538
  161SOPE  C31218078   0.731   3.229   8.681 -0.2526  0.0571  0.5480
  161SOPE  H12X18079   0.825   3.175   8.654 -0.0302  0.6782  0.0434
  161SOPE  H12Y18080   0.765   3.322   8.732  1.2915  0.8748 -1.7896
  161SOPE  C31318081   0.667   3.271   8.543  0.6267  0.1205 -0.7195
  161SOPE  H13X18082   0.627   3.191   8.477 -0.3978  0.8755 -1.0497
  161SOPE  H13Y18083   0.745   3.333   8.493  1.6763  2.8442  3.6856
  161SOPE  C31418084   0.551   3.367   8.561  0.3980 -0.3149  0.6017
  161SOPE  H14X18085   0.596   3.455   8.613  1.0493  1.1946 -2.3171
  161SOPE  H14Y18086   0.468   3.320   8.618 -0.6900  0.4043 -0.3525
  161SOPE  C31518087   0.479   3.423   8.433  0.2608  0.2696  0.0227
  161SOPE  H15X18088   0.404   3.353   8.390  0.3273 -0.5799  1.2353
  161SOPE  H15Y18089   0.556   3.453   8.359  0.2515 -0.3019 -0.2254
  161SOPE  C31618090   0.405   3.550   8.464  0.1674 -0.2108  0.7613
  161SOPE  H16X18091   0.471   3.629   8.505 -1.6299  2.6507 -1.4565
  161SOPE  H16Y18092   0.324   3.534   8.538 -2.0284  1.9794 -0.9856
  161SOPE  C31718093   0.338   3.601   8.338 -0.3276 -0.1008 -0.1534
  161SOPE  H17X18094   0.268   3.681   8.371 -1.5662 -1.1417 -0.2164
  161SOPE  H17Y18095   0.275   3.517   8.302  0.1084 -0.4702 -0.0611
  161SOPE  C31818096   0.423   3.668   8.231 -0.6534  0.5008  0.1556
  161SOPE  H18X18097   0.359   3.716   8.154 -1.9444 -0.3262  0.6790
  161SOPE  H18Y18098   0.497   3.596   8.190  0.3126  1.0406  0.8968
  161SOPE  H18Z18099   0.484   3.746   8.280 -0.0199 -0.5248  1.0470
  162SOPE     N18100   4.010   3.567  11.014 -0.5781 -0.4053  0.0781
  162SOPE   HN118101   4.108   3.602  11.013 -0.4588 -0.7008 -1.7196
  162SOPE   HN218102   4.001   3.533  10.916  0.5607 -2.0806  0.4994
  162SOPE   HN318103   3.940   3.640  11.039 -1.0552 -1.3039  1.5041
  162SOPE   C1218104   3.983   3.451  11.105  0.2559 -0.7906  0.2814
  162SOPE  H12A18105   3.878   3.423  11.085 -0.5449  3.3440 -2.5312
  162SOPE  H12B18106   3.982   3.487  11.210  1.5956  1.4894 -0.4147
  162SOPE   C1118107   4.086   3.333  11.093 -0.1268 -0.0249 -0.5245
  162SOPE  H11A18108   4.077   3.279  11.189  0.8794  4.0213  2.0638
  162SOPE  H11B18109   4.184   3.386  11.094  0.2069 -0.6431  0.3351
  162SOPE     P18110   4.184   3.153  10.922  0.1708  0.0740  0.0376
  162SOPE   O1318111   4.108   3.031  10.897 -0.2410 -0.1329  0.3993
  162SOPE   O1418112   4.304   3.151  11.010  1.3366  0.1377 -0.3618
  162SOPE   O1218113   4.077   3.254  10.976 -0.2004 -0.1851  0.2745
  162SOPE   O1118114   4.217   3.209  10.778  0.5998  0.0717 -0.3553
  162SOPE    C118115   4.120   3.282  10.702 -0.6191  0.2758 -0.0409
  162SOPE    HA18116   4.107   3.385  10.742 -1.6117  0.1491 -0.0037
  162SOPE    HB18117   4.017   3.243  10.690 -0.6654  0.7852 -1.5521
  162SOPE    C218118   4.175   3.286  10.554 -0.2025  0.0727 -0.0486
  162SOPE    HS18119   4.115   3.354  10.488  0.4301  0.7846  0.1023
  162SOPE   O2118120   4.179   3.148  10.510  0.2263 -0.2019 -0.2951
  162SOPE   C2118121   4.068   3.118  10.448 -0.3689  0.3848  0.2988
  162SOPE   O2218122   3.969   3.185  10.422  0.0016 -0.8516 -0.2276
  162SOPE   C2218123   4.073   2.975  10.410  0.0712  0.9753  0.5032
  162SOPE   H2R18124   3.972   2.935  10.385  0.0321  1.2878  0.1430
  162SOPE   H2S18125   4.109   2.918  10.498 -0.8580  0.3363  0.4798
  162SOPE    C318126   4.326   3.343  10.545 -0.1554 -0.3073  0.3380
  162SOPE    HX18127   4.390   3.296  10.623  0.4404  0.8607  0.5836
  162SOPE    HY18128   4.335   3.443  10.593  2.5526 -0.0632 -0.5258
  162SOPE   O3118129   4.369   3.361  10.408  0.0368 -0.1856  0.7167
  162SOPE   C3118130   4.446   3.264  10.370  0.0373  0.9901  0.3225
  162SOPE   O3218131   4.465   3.160  10.433 -0.1323 -0.0798  0.8345
  162SOPE   C3218132   4.511   3.290  10.234  0.3159 -0.5698 -0.8093
  162SOPE   H2X18133   4.582   3.207  10.215  0.2301 -0.7294 -0.4410
  162SOPE   H2Y18134   4.571   3.382  10.252 -0.2167 -0.2182 -0.8043
  162SOPE   C2318135   4.153   2.962  10.276  0.3377 -0.2088  0.4880
  162SOPE   H3R18136   4.175   2.853  10.265  2.0499  0.3061 -2.2361
  162SOPE   H3S18137   4.253   3.011  10.284 -0.1456  0.7788  0.5319
  162SOPE   C2418138   4.086   3.008  10.148 -0.0601  0.8275  0.2621
  162SOPE   H4R18139   4.002   2.937  10.131 -1.9575  2.6376  1.6215
  162SOPE   H4S18140   4.037   3.107  10.152  1.6264  1.8282 -1.6803
  162SOPE   C2518141   4.181   3.010  10.023 -0.0564  0.9009 -0.5828
  162SOPE   H5R18142   4.274   3.061  10.053  0.1487 -0.1005  0.5890
  162SOPE   H5S18143   4.213   2.905  10.002 -0.3414  0.8829 -0.9361
  162SOPE   C2618144   4.123   3.074   9.897 -0.0001  0.3629 -0.4584
  162SOPE   H6R18145   4.021   3.035   9.878  0.3363 -0.6227 -0.2495
  162SOPE   H6S18146   4.113   3.185   9.906 -1.8384  0.2827 -1.2102
  162SOPE   C2718147   4.215   3.045   9.778  0.0403  0.3217  0.1551
  162SOPE   H7R18148   4.310   3.099   9.798 -0.4313  0.5504  2.0069
  162SOPE   H7S18149   4.237   2.937   9.767  0.2422  0.4907 -1.1641
  162SOPE   C2818150   4.162   3.086   9.635  0.1680 -0.0615  0.6693
  162SOPE   H8R18151   4.077   3.016   9.617  2.3946 -2.8851  0.4116
  162SOPE   H8S18152   4.127   3.191   9.641 -1.6079 -0.4938 -0.9898
  162SOPE   C2918153   4.259   3.084   9.527 -0.1731 -0.3829 -0.0638
  162SOPE   H9118154   4.359   3.047   9.551 -0.1758 -0.1620  0.2943
  162SOPE  C21018155   4.231   3.136   9.409 -0.0777  0.4890 -0.7667
  162SOPE  H10118156   4.320   3.144   9.344  1.0477  1.6675  0.8501
  162SOPE  C21118157   4.104   3.195   9.352 -0.0101  0.9568  0.0145
  162SOPE  H11R18158   4.103   3.306   9.354 -3.9903  1.0614  1.6911
  162SOPE  H11S18159   4.015   3.165   9.412  0.4279  1.4947  0.9493
  162SOPE  C21218160   4.085   3.134   9.200  0.9626  0.3644 -0.6556
  162SOPE  H12R18161   4.062   3.028   9.225  0.4991  0.3855 -0.9833
  162SOPE  H12S18162   4.173   3.137   9.132  2.4975 -0.7095  1.1514
  162SOPE  C21318163   3.967   3.201   9.124  0.1883 -0.8153  0.4757
  162SOPE  H13R18164   3.881   3.197   9.195  0.7297 -1.7633  1.1053
  162SOPE  H13S18165   3.931   3.132   9.044 -0.2739  0.0298 -0.0552
  162SOPE  C21418166   3.991   3.341   9.062  0.5473  0.0178  0.3681
  162SOPE  H14R18167   4.039   3.392   9.148 -0.9833  1.5075  0.3964
  162SOPE  H14S18168   3.891   3.385   9.043 -0.5862 -2.0116  1.3090
  162SOPE  C21518169   4.075   3.330   8.936 -1.2582  0.9150  0.6570
  162SOPE  H15R18170   4.138   3.240   8.955 -2.3668 -0.0160  0.0678
  162SOPE  H15S18171   4.137   3.422   8.933 -0.5903  0.5546  2.3344
  162SOPE  C21618172   3.992   3.320   8.807  0.2250 -0.4332 -0.2564
  162SOPE  H16R18173   3.941   3.415   8.782 -0.6233 -0.1972  2.0945
  162SOPE  H16S18174   3.910   3.251   8.837 -1.5345  2.3522  1.8042
  162SOPE  C21718175   4.056   3.267   8.679  0.0788 -0.0124 -0.1468
  162SOPE  H17R18176   3.967   3.254   8.614 -0.5005  0.2174  0.5851
  162SOPE  H17S18177   4.100   3.165   8.685 -1.7759 -0.7670  1.7629
  162SOPE  C21818178   4.164   3.361   8.627 -0.6055  0.7534  0.3802
  162SOPE  H18R18179   4.260   3.332   8.676  0.9667  0.1408 -2.7714
  162SOPE  H18S18180   4.140   3.469   8.635  1.1226  1.3426 -1.4535
  162SOPE  H18T18181   4.177   3.354   8.517  0.0799  1.3601  0.4104
  162SOPE   C3318182   4.410   3.332  10.128 -1.3097 -0.1608  0.1554
  162SOPE   H3X18183   4.367   3.430  10.158  1.3355  0.7771  1.2254
  162SOPE   H3Y18184   4.323   3.265  10.115 -0.0141 -1.6844 -1.0134
  162SOPE   C3418185   4.487   3.362  10.003 -0.3991 -0.7138 -0.0637
  162SOPE   H4X18186   4.537   3.274   9.958  1.0273  0.1235 -0.1817
  162SOPE   H4Y18187   4.559   3.443  10.028 -1.1641 -0.2605  0.7421
  162SOPE   C3518188   4.394   3.416   9.889  0.5264  0.2672 -0.7404
  162SOPE   H5X18189   4.330   3.498   9.926 -1.0872 -1.2501 -0.0385
  162SOPE   H5Y18190   4.335   3.323   9.873  2.3105 -0.8266 -1.2504
  162SOPE   C3618191   4.453   3.464   9.754  0.0808  0.3611 -0.0797
  162SOPE   H6X18192   4.498   3.376   9.704  1.0440  1.9360 -2.1473
  162SOPE   H6Y18193   4.536   3.535   9.775 -1.0725  1.9275 -0.6081
  162SOPE   C3718194   4.348   3.525   9.661  0.1711  0.6868 -0.5285
  162SOPE   H7X18195   4.293   3.605   9.715  1.7076  1.1609  0.3741
  162SOPE   H7Y18196   4.283   3.440   9.629  0.7852 -0.2939  0.7328
  162SOPE   C3818197   4.398   3.576   9.527 -0.3566 -0.2756  0.2487
  162SOPE   H8X18198   4.476   3.652   9.547  0.0376 -0.3782 -0.8360
  162SOPE   H8Y18199   4.316   3.631   9.476 -1.1544  0.2514  2.0122
  162SOPE   C3918200   4.458   3.473   9.425  0.2297  0.2399  0.2771
  162SOPE   H9X18201   4.394   3.383   9.435 -0.4690  0.8671  1.6875
  162SOPE   H9Y18202   4.551   3.437   9.473  0.5285 -3.5913 -2.6424
  162SOPE  C31018203   4.467   3.527   9.284 -0.0430 -0.2320 -0.5236
  162SOPE  H10X18204   4.517   3.626   9.274  3.2668 -1.5867  0.9374
  162SOPE  H10Y18205   4.361   3.540   9.256 -0.7070  0.1861  1.8959
  162SOPE  C31118206   4.540   3.439   9.183  0.4901  0.1136  0.3641
  162SOPE  H11X18207   4.494   3.339   9.194 -0.6548  0.7754  1.8515
  162SOPE  H11Y18208   4.650   3.441   9.198  1.1149 -1.6841 -2.9458
  162SOPE  C31218209   4.510   3.507   9.045  0.3708  0.5450  0.6664
  162SOPE  H12X18210   4.564   3.604   9.046 -0.6293  1.1090  1.3888
  162SOPE  H12Y18211   4.402   3.530   9.030 -0.3520 -0.7360  3.2765
  162SOPE  C31318212   4.553   3.413   8.928 -0.0104  0.4596  0.3923
  162SOPE  H13X18213   4.481   3.331   8.912  2.1819 -1.2102 -1.6602
  162SOPE  H13Y18214   4.643   3.356   8.960 -0.0358  0.1781 -0.0315
  162SOPE  C31418215   4.573   3.479   8.797 -0.3183 -0.0343  0.3120
  162SOPE  H14X18216   4.645   3.563   8.790 -0.8408  0.6220  2.2634
  162SOPE  H14Y18217   4.475   3.521   8.765 -2.3498 -3.4762  1.3979
  162SOPE  C31518218   4.631   3.378   8.696 -0.2852 -0.8858  0.6729
  162SOPE  H15X18219   4.555   3.300   8.673 -1.3664  0.3232 -0.0444
  162SOPE  H15Y18220   4.725   3.330   8.730 -1.2483 -3.4360 -0.0433
  162SOPE  C31618221   4.645   3.431   8.552 -0.3848 -0.4921  0.0083
  162SOPE  H16X18222   4.698   3.528   8.546 -0.5579 -0.4640 -1.8273
  162SOPE  H16Y18223   4.541   3.460   8.526 -0.1080  2.5254  1.8533
  162SOPE  C31718224   4.717   3.331   8.456  0.3951 -0.3933  0.0810
  162SOPE  H17X18225   4.673   3.231   8.478  1.6914 -0.8792  0.5899
  162SOPE  H17Y18226   4.825   3.329   8.481  0.5688 -4.0737 -0.3800
  162SOPE  C31818227   4.704   3.374   8.309  0.3861  0.0764  1.1230
  162SOPE  H18X18228   4.788   3.323   8.258  0.3710  0.0550  1.1197
  162SOPE  H18Y18229   4.712   3.482   8.287 -1.2770  0.0880  0.4442
  162SOPE  H18Z18230   4.604   3.352   8.268  0.6297 -1.1326  1.1304
  163SOPE     N18231   5.933   0.879  10.807 -0.1227  0.1022 -0.3192
  163SOPE   HN118232   5.942   0.811  10.728 -0.9902  0.0506 -0.3875
  163SOPE   HN218233   6.032   0.900  10.830  0.0047  0.2589 -0.9880
  163SOPE   HN318234   5.888   0.835  10.889  0.0089  0.8798  0.1819
  163SOPE   C1218235   5.856   1.010  10.778 -0.6950 -0.1390  0.1846
  163SOPE  H12A18236   5.911   1.085  10.840  3.0228  0.4279 -3.3163
  163SOPE  H12B18237   5.753   0.993  10.814 -0.1569 -1.6680  1.1021
  163SOPE   C1118238   5.864   1.069  10.638  0.3516  0.0306  0.5444
  163SOPE  H11A18239   5.796   1.155  10.618 -0.5416 -0.6738  0.4918
  163SOPE  H11B18240   5.815   0.991  10.575 -0.1640  0.2329  0.6889
  163SOPE     P18241   6.055   1.250  10.617  0.2900  0.4104  0.0723
  163SOPE   O1318242   6.092   1.264  10.756  0.2225  0.1391 -0.1067
  163SOPE   O1418243   5.962   1.347  10.554 -0.1860  0.2096 -0.2301
  163SOPE   O1218244   5.999   1.103  10.595  0.7330 -0.3059  0.5275
  163SOPE   O1118245   6.176   1.248  10.529  0.0080  0.5352  0.3450
  163SOPE    C118246   6.263   1.137  10.518 -0.0919 -0.3646 -0.2603
  163SOPE    HA18247   6.225   1.051  10.576 -0.1985  0.7042  1.3104
  163SOPE    HB18248   6.362   1.165  10.560  0.9364 -0.6115 -2.3875
  163SOPE    C218249   6.284   1.089  10.368  0.6954 -0.3276  0.1857
  163SOPE    HS18250   6.330   0.989  10.380 -2.4145 -1.8202  0.8091
  163SOPE   O2118251   6.359   1.194  10.299 -0.0030  0.0838 -0.0829
  163SOPE   C2118252   6.485   1.195  10.335 -0.3051 -0.4996  0.2443
  163SOPE   O2218253   6.549   1.105  10.385  0.2864 -0.0503 -0.2727
  163SOPE   C2218254   6.558   1.319  10.282 -0.1499  0.6211 -0.0404
  163SOPE   H2R18255   6.637   1.322  10.360 -0.3411 -0.5512  0.2148
  163SOPE   H2S18256   6.482   1.400  10.285  0.0928  0.9768 -2.1741
  163SOPE    C318257   6.140   1.052  10.305 -0.3020  1.0790  0.5047
  163SOPE    HX18258   6.078   1.142  10.288 -3.8106 -1.5394 -1.9506
  163SOPE    HY18259   6.089   0.987  10.378 -0.4717  0.9630  0.2838
  163SOPE   O3118260   6.156   0.993  10.172  0.1132  0.0863  0.2335
  163SOPE   C3118261   6.169   0.859  10.167 -0.0520 -0.9854 -0.1299
  163SOPE   O3218262   6.155   0.780  10.259  0.0580  0.0419 -0.0866
  163SOPE   C3218263   6.187   0.815  10.019  0.0516 -0.0976  0.5321
  163SOPE   H2X18264   6.097   0.842   9.960  0.9468  1.9881  0.0318
  163SOPE   H2Y18265   6.204   0.706  10.029 -1.7925 -0.3115  1.7767
  163SOPE   C2318266   6.613   1.304  10.141  0.0781  0.2750 -0.7122
  163SOPE   H3R18267   6.656   1.202  10.143  0.2907  0.3607 -0.8819
  163SOPE   H3S18268   6.698   1.374  10.128  1.8541 -1.6269  0.1062
  163SOPE   C2418269   6.516   1.331  10.028  0.4577  1.1437 -0.4491
  163SOPE   H4R18270   6.422   1.277  10.049  1.0855  0.2204  0.0603
  163SOPE   H4S18271   6.488   1.438  10.030  1.7823  1.5142 -0.5378
  163SOPE   C2518272   6.583   1.291   9.900 -0.0906 -0.3629  0.1749
  163SOPE   H5R18273   6.676   1.350   9.887 -1.1451  1.2962 -0.1384
  163SOPE   H5S18274   6.597   1.182   9.884 -2.2281 -0.6096 -0.2655
  163SOPE   C2618275   6.494   1.343   9.781  0.2158 -0.1283  0.4603
  163SOPE   H6R18276   6.396   1.293   9.793  1.8161 -2.9478  3.5529
  163SOPE   H6S18277   6.486   1.453   9.792  2.2372 -0.0795  2.0686
  163SOPE   C2718278   6.557   1.317   9.655 -1.3094  0.1527  0.1606
  163SOPE   H7R18279   6.523   1.397   9.585 -1.5696 -0.3260 -0.2647
  163SOPE   H7S18280   6.664   1.340   9.674 -0.8023 -0.1161 -2.1180
  163SOPE   C2818281   6.537   1.179   9.605 -0.4344  0.5543  0.3104
  163SOPE   H8R18282   6.602   1.163   9.516  0.0320 -1.3054  0.9475
  163SOPE   H8S18283   6.575   1.113   9.686 -2.2169 -0.2164  0.5564
  163SOPE   C2918284   6.393   1.146   9.581  0.2797 -0.0930 -0.8252
  163SOPE   H9118285   6.335   1.147   9.674  0.0623 -0.4542 -0.9530
  163SOPE  C21018286   6.335   1.118   9.461  0.6315 -0.8489 -0.5244
  163SOPE  H10118287   6.231   1.081   9.461  0.7937 -1.3679  0.8370
  163SOPE  C21118288   6.409   1.118   9.327  0.0143  0.1986 -0.1905
  163SOPE  H11R18289   6.394   1.015   9.289 -2.4442  0.4195 -0.0347
  163SOPE  H11S18290   6.515   1.149   9.337  0.1310 -0.1357 -0.3944
  163SOPE  C21218291   6.349   1.226   9.234 -0.2605 -0.8094  0.6643
  163SOPE  H12R18292   6.392   1.321   9.270  0.8708 -1.6578  1.6320
  163SOPE  H12S18293   6.238   1.228   9.243 -0.1778  0.3061  1.5446
  163SOPE  C21318294   6.395   1.222   9.088  0.3053 -0.2435 -0.1994
  163SOPE  H13R18295   6.384   1.117   9.054 -2.8918  0.1327 -0.6126
  163SOPE  H13S18296   6.501   1.256   9.091  0.3558 -0.4480  0.4984
  163SOPE  C21418297   6.317   1.307   8.985 -0.1909 -0.0917 -0.5144
  163SOPE  H14R18298   6.372   1.294   8.890  2.2863  0.3483  0.7589
  163SOPE  H14S18299   6.305   1.416   9.003  1.0649  0.2835 -1.7603
  163SOPE  C21518300   6.181   1.256   8.947  0.8603  0.5039  0.0005
  163SOPE  H15R18301   6.103   1.285   9.020 -1.3883 -0.7265 -1.7824
  163SOPE  H15S18302   6.190   1.145   8.939 -1.3238  0.2317  0.6635
  163SOPE  C21618303   6.128   1.297   8.810 -0.0256 -0.0139 -0.3982
  163SOPE  H16R18304   6.208   1.278   8.735  0.8104 -0.9771  0.7083
  163SOPE  H16S18305   6.121   1.407   8.824 -0.7303 -0.1017 -0.0076
  163SOPE  C21718306   5.998   1.233   8.770 -0.2413  0.1525 -0.5469
  163SOPE  H17R18307   5.912   1.272   8.828  0.7040  0.0961  0.9421
  163SOPE  H17S18308   5.999   1.122   8.774  0.9671  0.1137 -1.2225
  163SOPE  C21818309   5.967   1.256   8.615  0.3169 -0.3981  0.2713
  163SOPE  H18R18310   5.883   1.191   8.582  1.3865 -1.4754 -0.4014
  163SOPE  H18S18311   6.054   1.225   8.553  0.0813 -0.8285  0.1534
  163SOPE  H18T18312   5.954   1.365   8.599 -1.7591 -0.0206  3.6581
  163SOPE   C3318313   6.312   0.872   9.946 -0.7226  0.0715 -0.5346
  163SOPE   H3X18314   6.395   0.873  10.019  0.0343 -0.6126 -1.3679
  163SOPE   H3Y18315   6.294   0.977   9.913 -1.4699 -0.3206 -1.4130
  163SOPE   C3418316   6.358   0.777   9.840  0.5330  0.3830  0.5385
  163SOPE   H4X18317   6.376   0.678   9.887  0.5768 -0.8189 -1.8624
  163SOPE   H4Y18318   6.453   0.818   9.800  0.4156  1.2582  1.1252
  163SOPE   C3518319   6.252   0.761   9.728  0.2750  0.7307  0.1443
  163SOPE   H5X18320   6.216   0.859   9.692  0.1706  0.2601 -1.0860
  163SOPE   H5Y18321   6.156   0.715   9.759  0.2111  1.7851  1.6138
  163SOPE   C3618322   6.304   0.696   9.599 -0.0063 -0.1313  0.5687
  163SOPE   H6X18323   6.316   0.588   9.623 -2.0938 -0.0657  2.1370
  163SOPE   H6Y18324   6.406   0.737   9.581  0.3879 -1.6066 -0.8887
  163SOPE   C3718325   6.219   0.728   9.477  0.4484  0.0525 -0.1650
  163SOPE   H7X18326   6.211   0.839   9.475 -2.4441  0.0010  2.1543
  163SOPE   H7Y18327   6.118   0.683   9.488  0.0766  0.7050 -0.8252
  163SOPE   C3818328   6.277   0.669   9.346  0.0872 -0.2989 -0.0756
  163SOPE   H8X18329   6.272   0.558   9.334 -0.7831 -0.0255 -3.3911
  163SOPE   H8Y18330   6.382   0.704   9.336 -0.0849  0.2620  0.0794
  163SOPE   C3918331   6.210   0.729   9.220  0.3985 -0.4466  0.0068
  163SOPE   H9X18332   6.215   0.840   9.227 -1.1767 -0.3170 -0.5626
  163SOPE   H9Y18333   6.099   0.721   9.220  0.1134  1.8844  2.3732
  163SOPE  C31018334   6.259   0.671   9.083  0.2850  0.2593 -0.2596
  163SOPE  H10X18335   6.238   0.562   9.086  0.6091  0.2128  1.4678
  163SOPE  H10Y18336   6.367   0.695   9.071  0.2114  0.8863  0.2640
  163SOPE  C31118337   6.193   0.751   8.968  0.5884  0.9150 -0.5146
  163SOPE  H11X18338   6.194   0.858   8.996 -1.2422  0.7106  0.5480
  163SOPE  H11Y18339   6.091   0.712   8.945  1.6043 -2.0788 -0.4453
  163SOPE  C31218340   6.275   0.736   8.835 -0.0568 -0.2244 -0.4020
  163SOPE  H12X18341   6.264   0.638   8.784 -1.1957 -0.2993 -0.0363
  163SOPE  H12Y18342   6.383   0.755   8.854 -0.5788  0.8381  1.7411
  163SOPE  C31318343   6.229   0.828   8.723 -0.0138 -0.3600 -0.0529
  163SOPE  H13X18344   6.306   0.863   8.651 -0.8917  1.0631 -0.3492
  163SOPE  H13Y18345   6.185   0.918   8.771 -0.9788 -2.2736  2.9192
  163SOPE  C31418346   6.101   0.776   8.643 -0.1710 -0.1065 -0.2447
  163SOPE  H14X18347   6.033   0.741   8.724 -0.7099 -1.6486 -1.3085
  163SOPE  H14Y18348   6.147   0.691   8.587  0.0033  0.8649 -1.6353
  163SOPE  C31518349   6.042   0.881   8.556  0.5545 -0.1073 -0.1695
  163SOPE  H15X18350   6.112   0.916   8.476 -1.0093  1.7484 -0.7870
  163SOPE  H15Y18351   6.008   0.963   8.622 -0.9785 -1.6235  0.9890
  163SOPE  C31618352   5.919   0.833   8.481 -0.7393 -0.4010  0.4576
  163SOPE  H16X18353   5.843   0.795   8.552  0.3208 -3.7202 -0.0181
  163SOPE  H16Y18354   5.939   0.739   8.425  0.4846 -0.2609  0.6288
  163SOPE  C31718355   5.872   0.935   8.370 -0.2462  0.8251  0.3530
  163SOPE  H17X18356   5.962   0.993   8.344  1.9545 -1.9340  1.2558
  163SOPE  H17Y18357   5.790   1.000   8.408 -2.4561 -0.1803 -2.3111
  163SOPE  C31818358   5.825   0.856   8.245  0.6426 -0.0086  0.0341
  163SOPE  H18X18359   5.907   0.797   8.199  3.3469  1.5494  2.4946
  163SOPE  H18Y18360   5.776   0.921   8.170  0.7144  0.5014  0.4209
  163SOPE  H18Z18361   5.748   0.784   8.280  1.1821  0.0405  1.4112
  164SOPE     N18362   2.666   5.143  10.774  0.0264  0.6176 -0.0758
  164SOPE   HN118363   2.719   5.081  10.710  0.9183  0.0000  1.2198
  164SOPE   HN218364   2.707   5.133  10.869 -1.5998 -2.5651  0.4308
  164SOPE   HN318365   2.570   5.103  10.770  0.3960 -0.3430  0.5449
  164SOPE   C1218366   2.653   5.284  10.723  0.2560  0.0283  0.3587
  164SOPE  H12A18367   2.756   5.303  10.686  0.9073 -1.8800  1.0883
  164SOPE  H12B18368   2.638   5.345  10.815  0.9913  2.3836 -0.9981
  164SOPE   C1118369   2.537   5.305  10.626  0.3596 -0.5753 -0.7784
  164SOPE  H11A18370   2.565   5.250  10.534  1.2502  0.8417 -1.3986
  164SOPE  H11B18371   2.546   5.410  10.592 -0.4180 -0.7981 -1.6935
  164SOPE     P18372   2.295   5.235  10.582 -0.2786  0.1970  0.2662
  164SOPE   O1318373   2.177   5.302  10.650 -0.1184 -1.1071 -0.0319
  164SOPE   O1418374   2.272   5.090  10.551  0.0781 -0.0947  0.1584
  164SOPE   O1218375   2.414   5.245  10.682  0.1210 -0.3636  0.1273
  164SOPE   O1118376   2.336   5.317  10.456  0.1643 -0.5303 -0.1680
  164SOPE    C118377   2.249   5.321  10.338  0.2435 -0.6481  0.4164
  164SOPE    HA18378   2.142   5.304  10.365 -0.3584  0.5840 -1.0374
  164SOPE    HB18379   2.285   5.240  10.273  1.0461 -0.3628  0.4945
  164SOPE    C218380   2.274   5.451  10.260 -0.9418 -0.1055  0.2352
  164SOPE    HS18381   2.241   5.533  10.327  0.8941 -0.0084  1.0834
  164SOPE   O2118382   2.221   5.464  10.129  0.2085  0.3020  0.3453
  164SOPE   C2118383   2.096   5.428  10.104 -0.3149 -0.8790  0.0879
  164SOPE   O2218384   2.018   5.379  10.185  0.2914  0.1929 -0.2312
  164SOPE   C2218385   2.057   5.463   9.967 -0.0589  0.7331  0.4720
  164SOPE   H2R18386   2.054   5.574   9.963  2.1828  0.8545 -3.0446
  164SOPE   H2S18387   1.955   5.422   9.953  0.0698 -0.4626  2.5814
  164SOPE    C318388   2.434   5.472  10.239 -0.0915 -0.8068  0.5541
  164SOPE    HX18389   2.466   5.376  10.193  0.6846  0.0577 -0.7822
  164SOPE    HY18390   2.498   5.470  10.330  0.0502 -2.5862  0.4542
  164SOPE   O3118391   2.464   5.592  10.161  0.1267 -0.1835 -0.0342
  164SOPE   C3118392   2.466   5.709  10.227  0.3121  0.6316 -0.3812
  164SOPE   O3218393   2.438   5.729  10.345 -0.1399 -0.9149 -0.0240
  164SOPE   C3218394   2.479   5.825  10.131 -0.7404 -0.3629 -0.0732
  164SOPE   H2X18395   2.383   5.821  10.074  0.9496  0.3572 -3.1936
  164SOPE   H2Y18396   2.563   5.810  10.059 -0.4337  0.4118  0.1196
  164SOPE   C2318397   2.150   5.393   9.859  0.6378  0.3943 -0.1073
  164SOPE   H3R18398   2.158   5.285   9.885 -0.4820  0.4050  0.3230
  164SOPE   H3S18399   2.254   5.431   9.851  1.2309 -1.3178 -1.3034
  164SOPE   C2418400   2.087   5.386   9.720 -0.5541  0.5051  0.1141
  164SOPE   H4R18401   2.001   5.315   9.728  1.2620 -1.8172  0.3371
  164SOPE   H4S18402   2.047   5.485   9.688 -0.2662  0.4294 -0.5031
  164SOPE   C2518403   2.191   5.318   9.616  0.7053 -0.9060 -0.0417
  164SOPE   H5R18404   2.286   5.374   9.627 -0.5875  1.4819 -0.4433
  164SOPE   H5S18405   2.205   5.208   9.628 -1.7249 -0.9902  3.5486
  164SOPE   C2618406   2.141   5.341   9.480  0.1057  0.9864  0.2590
  164SOPE   H6R18407   2.037   5.303   9.467  0.2844  0.4602  0.3721
  164SOPE   H6S18408   2.121   5.449   9.459 -4.4508  0.6718  1.8364
  164SOPE   C2718409   2.240   5.283   9.377 -0.7285 -0.6688 -0.2221
  164SOPE   H7R18410   2.337   5.334   9.395 -0.9071  0.1881 -1.5211
  164SOPE   H7S18411   2.268   5.177   9.393  1.3808 -0.1481 -0.2790
  164SOPE   C2818412   2.195   5.301   9.232 -0.0141 -0.0825  0.7560
  164SOPE   H8R18413   2.150   5.401   9.219 -0.4869 -0.4147 -0.3072
  164SOPE   H8S18414   2.282   5.297   9.163 -2.1338  1.5010 -2.2711
  164SOPE   C2918415   2.102   5.197   9.182  0.0886 -0.4651 -0.1159
  164SOPE   H9118416   2.052   5.138   9.260 -0.4514 -1.0994 -0.9158
  164SOPE  C21018417   2.078   5.148   9.060 -0.3806 -0.2499 -0.0448
  164SOPE  H10118418   1.997   5.075   9.051 -1.0180  0.4172  0.1933
  164SOPE  C21118419   2.154   5.182   8.938 -1.1418  0.1678  0.2684
  164SOPE  H11R18420   2.187   5.087   8.891  0.7932  0.7449  0.3563
  164SOPE  H11S18421   2.249   5.235   8.959 -1.4938  1.3273 -0.9280
  164SOPE  C21218422   2.072   5.277   8.854 -0.1074 -0.0953 -0.1304
  164SOPE  H12R18423   2.037   5.365   8.911  0.6553  0.5295 -0.5893
  164SOPE  H12S18424   1.991   5.214   8.811  0.4129 -1.5217  0.8848
  164SOPE  C21318425   2.170   5.313   8.737 -0.6134 -0.0312  0.0587
  164SOPE  H13R18426   2.182   5.217   8.683  0.7419  0.5055 -0.6369
  164SOPE  H13S18427   2.268   5.337   8.781 -0.8973  0.0484  0.6571
  164SOPE  C21418428   2.110   5.423   8.660 -0.4553  0.1002 -0.1874
  164SOPE  H14R18429   2.115   5.519   8.717 -1.0109  0.6146 -0.9747
  164SOPE  H14S18430   2.005   5.399   8.631 -0.1833 -1.7216  0.2328
  164SOPE  C21518431   2.192   5.454   8.536 -0.0268 -0.2021  0.2853
  164SOPE  H15R18432   2.212   5.359   8.482 -0.8048  1.3328 -2.9648
  164SOPE  H15S18433   2.286   5.511   8.553  0.3894 -0.3496 -1.3467
  164SOPE  C21618434   2.101   5.533   8.444  0.1775 -0.7305  0.2922
  164SOPE  H16R18435   2.092   5.627   8.503  1.0618 -1.2193  1.2401
  164SOPE  H16S18436   2.002   5.485   8.425  0.7575 -1.8723  0.0825
  164SOPE  C21718437   2.153   5.573   8.306  0.3613  0.2467 -0.2247
  164SOPE  H17R18438   2.084   5.657   8.283  0.5891  0.3776 -0.4316
  164SOPE  H17S18439   2.133   5.501   8.224 -2.0780  1.4646 -0.7984
  164SOPE  C21818440   2.301   5.616   8.298  0.1731  0.5820 -0.5365
  164SOPE  H18R18441   2.328   5.703   8.362  0.7636  0.4179 -0.5571
  164SOPE  H18S18442   2.324   5.661   8.200  2.3903  0.3527 -0.1894
  164SOPE  H18T18443   2.370   5.530   8.316 -0.6856  0.3167  1.8871
  164SOPE   C3318444   2.490   5.965  10.203  0.6355 -0.0180  0.1586
  164SOPE   H3X18445   2.498   5.959  10.314  1.8533  1.9625  0.2176
  164SOPE   H3Y18446   2.393   6.017  10.188  1.1756  0.8504 -0.3766
  164SOPE   C3418447   2.608   6.051  10.168 -0.0708  0.0854 -0.5214
  164SOPE   H4X18448   2.706   6.005  10.195  0.7108  1.9951  0.1211
  164SOPE   H4Y18449   2.599   6.148  10.223 -2.4441  0.5554 -1.6302
  164SOPE   C3518450   2.603   6.086  10.017 -0.4077 -0.0930 -0.2211
  164SOPE   H5X18451   2.507   6.133   9.984 -1.4606 -1.5390  0.6680
  164SOPE   H5Y18452   2.609   5.993   9.956 -0.4582 -0.7268  0.7300
  164SOPE   C3618453   2.723   6.169   9.975 -0.2556  0.1754  0.0145
  164SOPE   H6X18454   2.809   6.118  10.023  0.0465 -0.2127 -0.9089
  164SOPE   H6Y18455   2.710   6.270  10.019 -1.0865 -0.1413  0.5000
  164SOPE   C3718456   2.734   6.189   9.826 -0.1358 -0.7236  0.4749
  164SOPE   H7X18457   2.754   6.093   9.775 -0.1683 -1.3677  1.6476
  164SOPE   H7Y18458   2.817   6.262   9.815  0.9399 -1.6416  2.0926
  164SOPE   C3818459   2.610   6.245   9.741 -1.2779  1.1732 -0.2011
  164SOPE   H8X18460   2.556   6.323   9.799 -1.3298  0.3746  0.8472
  164SOPE   H8Y18461   2.551   6.151   9.738  1.3490 -0.6744  1.6073
  164SOPE   C3918462   2.643   6.278   9.592 -0.8092 -0.5200 -0.5365
  164SOPE   H9X18463   2.717   6.361   9.596  0.0686 -1.3292  0.3240
  164SOPE   H9Y18464   2.559   6.323   9.534  0.8884  4.6969  0.4805
  164SOPE  C31018465   2.704   6.157   9.514  0.9521  0.5093 -0.0483
  164SOPE  H10X18466   2.627   6.077   9.518  1.3086  0.1654 -0.0139
  164SOPE  H10Y18467   2.794   6.121   9.568  0.8315  2.2018  1.3333
  164SOPE  C31118468   2.726   6.190   9.367 -0.0660  0.0407 -0.1068
  164SOPE  H11X18469   2.743   6.300   9.360 -2.1208  0.3062 -4.4767
  164SOPE  H11Y18470   2.633   6.176   9.307  0.8912 -0.4943 -1.5102
  164SOPE  C31218471   2.840   6.122   9.294 -0.3012 -0.3451 -0.8578
  164SOPE  H12X18472   2.814   6.014   9.292 -2.2423  0.0787 -0.7211
  164SOPE  H12Y18473   2.929   6.133   9.360 -1.3256 -1.0163  0.6890
  164SOPE  C31318474   2.877   6.182   9.163  0.0710  0.2932 -0.0864
  164SOPE  H13X18475   2.963   6.140   9.106 -1.8491 -0.3269 -2.7171
  164SOPE  H13Y18476   2.894   6.292   9.165  1.2483  0.1916 -1.7896
  164SOPE  C31418477   2.757   6.159   9.067 -0.3475  0.0938  0.5906
  164SOPE  H14X18478   2.669   6.211   9.109 -1.2654 -2.4739  2.0354
  164SOPE  H14Y18479   2.720   6.055   9.055 -0.8429  0.0424  2.2948
  164SOPE  C31518480   2.783   6.223   8.927  0.3630  0.2178  0.0337
  164SOPE  H15X18481   2.837   6.145   8.869  0.2464  0.2063 -0.0600
  164SOPE  H15Y18482   2.842   6.315   8.949  0.0726  0.5969 -0.7171
  164SOPE  C31618483   2.654   6.263   8.858  0.6603 -0.2548 -0.3073
  164SOPE  H16X18484   2.593   6.329   8.923  0.7387 -3.0766  2.8901
  164SOPE  H16Y18485   2.594   6.170   8.851 -0.7096  0.6594 -1.2995
  164SOPE  C31718486   2.665   6.323   8.715 -0.8315 -0.0864  0.3864
  164SOPE  H17X18487   2.736   6.268   8.649 -0.1873  1.1305  0.0366
  164SOPE  H17Y18488   2.720   6.418   8.727  0.3522 -0.4746 -1.5354
  164SOPE  C31818489   2.532   6.340   8.644 -0.4130 -0.9096 -0.2605
  164SOPE  H18X18490   2.527   6.438   8.591 -0.7389 -1.0818 -0.5492
  164SOPE  H18Y18491   2.450   6.339   8.719 -0.5117 -0.7574 -0.3655
  164SOPE  H18Z18492   2.512   6.255   8.576  0.3044 -0.8099 -0.6094
  165SOPE     N18493   6.030   5.478  10.472 -0.0437  0.2579 -0.2688
  165SOPE   HN118494   6.106   5.460  10.541 -0.5318 -1.7041 -0.1851
  165SOPE   HN218495   6.061   5.542  10.395 -1.3067  0.6324 -0.4937
  165SOPE   HN318496   5.951   5.528  10.517 -0.7177  0.3540 -1.4944
  165SOPE   C1218497   6.012   5.346  10.406  0.3502  0.9026 -0.3310
  165SOPE  H12A18498   5.971   5.371  10.306 -1.3502 -0.2531  0.0227
  165SOPE  H12B18499   5.941   5.288  10.469 -1.9574  2.1676 -1.6397
  165SOPE   C1118500   6.147   5.270  10.386 -0.5097  0.1422 -0.2657
  165SOPE  H11A18501   6.222   5.336  10.336 -0.6045  2.5785  2.5435
  165SOPE  H11B18502   6.125   5.194  10.309 -2.5996 -0.8967  1.2830
  165SOPE     P18503   6.305   5.260  10.598 -0.2128  0.1924  0.0032
  165SOPE   O1318504   6.313   5.175  10.724  0.2588  0.3019  0.1028
  165SOPE   O1418505   6.292   5.406  10.605 -0.3504 -0.5803  0.5386
  165SOPE   O1218506   6.196   5.196  10.505  0.1390 -0.0660 -0.3705
  165SOPE   O1118507   6.428   5.215  10.516 -0.1289 -0.6876  0.8535
  165SOPE    C118508   6.553   5.275  10.541  0.1531 -0.1809 -0.0800
  165SOPE    HA18509   6.624   5.190  10.533 -2.0135 -2.1278  0.2975
  165SOPE    HB18510   6.575   5.324  10.638  0.7814  0.0257 -0.3219
  165SOPE    C218511   6.597   5.372  10.436 -0.0547  0.1407  0.4580
  165SOPE    HS18512   6.525   5.455  10.451  0.1128  0.2323  0.7635
  165SOPE   O2118513   6.582   5.314  10.309 -0.4026  0.2382 -0.2398
  165SOPE   C2118514   6.504   5.377  10.220  0.9685 -0.3178  0.1627
  165SOPE   O2218515   6.438   5.478  10.240  0.0629  0.0231 -0.5867
  165SOPE   C2218516   6.512   5.301  10.094  0.3246 -0.0881 -0.1788
  165SOPE   H2R18517   6.438   5.343  10.023  0.5418  0.3150 -0.1684
  165SOPE   H2S18518   6.469   5.200  10.111  0.2052 -0.3360 -1.8174
  165SOPE    C318519   6.737   5.430  10.457 -0.7991 -0.2388 -0.8956
  165SOPE    HX18520   6.815   5.350  10.456 -2.1638 -1.6516 -2.4325
  165SOPE    HY18521   6.730   5.471  10.560 -1.6743  1.2326 -1.5125
  165SOPE   O3118522   6.758   5.548  10.376 -0.5624 -0.0139  0.1881
  165SOPE   C3118523   6.833   5.518  10.273 -0.2058 -0.7369  0.2025
  165SOPE   O3218524   6.886   5.412  10.253 -0.0907  0.0355 -0.7119
  165SOPE   C3218525   6.834   5.640  10.183 -0.1696 -0.0330  0.5340
  165SOPE   H2X18526   6.939   5.673  10.194 -0.2020  0.2571 -0.0259
  165SOPE   H2Y18527   6.759   5.715  10.216  0.7029 -0.0078  2.6231
  165SOPE   C2318528   6.646   5.277  10.031 -0.0233 -0.6613 -0.8345
  165SOPE   H3R18529   6.695   5.193  10.085  1.1088 -0.0718 -0.9135
  165SOPE   H3S18530   6.706   5.370  10.041 -2.0648  0.5546  0.7273
  165SOPE   C2418531   6.648   5.249   9.883  0.3270  0.3602 -0.7086
  165SOPE   H4R18532   6.747   5.199   9.872  0.3155  0.1751 -0.0687
  165SOPE   H4S18533   6.567   5.179   9.855  0.4485 -0.0251 -0.1373
  165SOPE   C2518534   6.634   5.377   9.800  0.7380 -0.1472  0.1376
  165SOPE   H5R18535   6.526   5.403   9.803  0.3668 -1.1786 -2.1261
  165SOPE   H5S18536   6.684   5.464   9.848 -0.6733  0.4367  0.5870
  165SOPE   C2618537   6.696   5.353   9.657  0.2033 -0.9685 -0.0228
  165SOPE   H6R18538   6.807   5.358   9.656  0.2798 -1.1568 -3.3339
  165SOPE   H6S18539   6.667   5.247   9.640  1.0977 -1.4012  1.0363
  165SOPE   C2718540   6.641   5.427   9.540 -0.3302 -0.1786 -0.1581
  165SOPE   H7R18541   6.543   5.399   9.495 -0.5289  0.3200 -0.0460
  165SOPE   H7S18542   6.617   5.524   9.588 -0.1263  0.9667 -2.2946
  165SOPE   C2818543   6.739   5.443   9.421  0.5283 -0.8815  0.3375
  165SOPE   H8R18544   6.695   5.518   9.352  1.7260  0.9412  1.4739
  165SOPE   H8S18545   6.833   5.490   9.458  0.3948 -1.3255  1.2700
  165SOPE   C2918546   6.770   5.312   9.353 -0.1139 -1.1786 -0.3508
  165SOPE   H9118547   6.826   5.239   9.414  1.4436  0.8824  0.8096
  165SOPE  C21018548   6.737   5.274   9.230  0.2641 -0.4970 -0.0920
  165SOPE  H10118549   6.780   5.178   9.196  2.8024 -0.1082  1.7191
  165SOPE  C21118550   6.654   5.357   9.129 -0.6545 -0.0917  0.6398
  165SOPE  H11R18551   6.640   5.464   9.154  2.5591  0.7844 -0.7678
  165SOPE  H11S18552   6.554   5.314   9.106  0.3767 -1.2718 -2.1741
  165SOPE  C21218553   6.727   5.368   8.994  0.2830  0.4541  0.5957
  165SOPE  H12R18554   6.831   5.403   9.006  1.3998 -1.6782 -1.7829
  165SOPE  H12S18555   6.672   5.441   8.931  0.7793  2.3146  2.2332
  165SOPE  C21318556   6.741   5.238   8.908  0.1317  0.0622 -0.4637
  165SOPE  H13R18557   6.644   5.185   8.918  0.7646 -0.6956  3.2413
  165SOPE  H13S18558   6.815   5.178   8.965  1.5664  3.0841  1.0869
  165SOPE  C21418559   6.784   5.258   8.764  0.1843  0.3971 -0.0015
  165SOPE  H14R18560   6.699   5.308   8.712  1.3817  1.4909 -0.9834
  165SOPE  H14S18561   6.790   5.154   8.724 -1.5849  0.5050 -0.6637
  165SOPE  C21518562   6.913   5.335   8.728 -0.1193  0.4280 -0.0361
  165SOPE  H15R18563   6.995   5.273   8.769 -1.6856 -1.9503 -0.3061
  165SOPE  H15S18564   6.911   5.434   8.779  2.3912  0.4970  0.0213
  165SOPE  C21618565   6.952   5.360   8.583  0.4296  0.1556  0.1508
  165SOPE  H16R18566   7.053   5.407   8.575  1.1419 -1.3150  0.1162
  165SOPE  H16S18567   6.880   5.440   8.554  1.0243 -0.2953 -2.9392
  165SOPE  C21718568   6.927   5.248   8.482 -0.7031  0.7594 -0.3401
  165SOPE  H17R18569   6.818   5.232   8.473 -0.6186 -0.1156  0.0848
  165SOPE  H17S18570   6.971   5.153   8.519 -0.9597  0.8978  0.3402
  165SOPE  C21818571   6.973   5.299   8.341 -0.8381 -0.8050 -0.0395
  165SOPE  H18R18572   7.081   5.323   8.338 -0.8520 -0.1098  2.7324
  165SOPE  H18S18573   6.908   5.382   8.307  0.3601  0.3988  0.5385
  165SOPE  H18T18574   6.964   5.214   8.269  0.1579  0.5865 -1.8870
  165SOPE   C3318575   6.805   5.625  10.029  0.1143  0.0521  0.2547
  165SOPE   H3X18576   6.695   5.606  10.035  0.0489  0.0113 -0.8020
  165SOPE   H3Y18577   6.848   5.527   9.997 -0.5465  0.3969 -1.8290
  165SOPE   C3418578   6.852   5.731   9.936  0.2077  0.3305 -0.2933
  165SOPE   H4X18579   6.962   5.744   9.948 -0.0788  1.5482  1.3625
  165SOPE   H4Y18580   6.808   5.832   9.949 -0.1375  0.2375 -0.7062
  165SOPE   C3518581   6.838   5.698   9.788 -0.1332  0.4163  0.3675
  165SOPE   H5X18582   6.735   5.662   9.767  0.6864 -2.3983  0.8140
  165SOPE   H5Y18583   6.891   5.602   9.771 -1.7986 -0.9803  2.5136
  165SOPE   C3618584   6.888   5.801   9.688  0.5044 -0.5004 -0.0304
  165SOPE   H6X18585   6.997   5.807   9.707  0.8729 -0.8390 -1.8766
  165SOPE   H6Y18586   6.844   5.900   9.713  0.2979 -0.4448 -0.6001
  165SOPE   C3718587   6.868   5.770   9.538 -0.7515  0.6571  0.7397
  165SOPE   H7X18588   6.767   5.793   9.499 -0.2312 -1.2291 -2.0718
  165SOPE   H7Y18589   6.887   5.661   9.538 -0.1386  0.7589  0.9941
  165SOPE   C3818590   6.984   5.827   9.444 -0.1178  0.2004  0.4345
  165SOPE   H8X18591   7.077   5.770   9.464 -1.0572 -0.4255  3.6528
  165SOPE   H8Y18592   7.012   5.933   9.462 -0.2997  0.6321 -1.5764
  165SOPE   C3918593   6.941   5.834   9.296  0.2222 -0.0685  0.4252
  165SOPE   H9X18594   7.015   5.861   9.217 -0.5270 -1.5231 -0.8330
  165SOPE   H9Y18595   6.860   5.910   9.288 -3.3109 -3.2968  2.1362
  165SOPE  C31018596   6.890   5.698   9.240  0.1126  0.0396 -0.0169
  165SOPE  H10X18597   6.781   5.695   9.262 -0.0913  0.3850 -0.9286
  165SOPE  H10Y18598   6.937   5.615   9.298  0.6294  1.2587  1.3760
  165SOPE  C31118599   6.926   5.676   9.092  0.0434  0.1145  0.5358
  165SOPE  H11X18600   6.903   5.568   9.079  1.6408 -0.3687  1.5233
  165SOPE  H11Y18601   7.032   5.697   9.068  0.4267 -2.4499 -0.3072
  165SOPE  C31218602   6.836   5.759   9.006 -0.2569  0.3811 -0.0239
  165SOPE  H12X18603   6.839   5.868   9.026 -0.0751 -0.1634  3.4656
  165SOPE  H12Y18604   6.729   5.735   9.029  0.3145 -0.4100  2.0459
  165SOPE  C31318605   6.862   5.740   8.860 -0.4874 -0.2544 -0.0847
  165SOPE  H13X18606   6.814   5.642   8.841 -1.6703  0.1670  0.6036
  165SOPE  H13Y18607   6.972   5.729   8.859 -0.3794  0.3159  1.5627
  165SOPE  C31418608   6.811   5.852   8.758 -0.3539 -0.0777  0.1303
  165SOPE  H14X18609   6.835   5.950   8.804  1.6666  0.7243 -2.3852
  165SOPE  H14Y18610   6.703   5.850   8.733 -0.1915  1.1853 -0.7701
  165SOPE  C31518611   6.892   5.838   8.627 -0.4976 -0.4174 -0.3608
  165SOPE  H15X18612   6.900   5.729   8.603  1.6632 -0.2578 -0.5228
  165SOPE  H15Y18613   6.999   5.859   8.647 -0.9697  1.5652  0.2174
  165SOPE  C31618614   6.840   5.913   8.503  0.1934  0.2772 -0.4367
  165SOPE  H16X18615   6.837   6.019   8.537 -1.2375  0.0447  0.2458
  165SOPE  H16Y18616   6.730   5.895   8.498  0.0930  0.8310 -0.3000
  165SOPE  C31718617   6.904   5.868   8.370  0.1592  0.2178  0.4655
  165SOPE  H17X18618   7.006   5.835   8.399 -0.0449 -0.5960  0.3043
  165SOPE  H17Y18619   6.919   5.948   8.295 -0.2185 -1.3665 -1.3945
  165SOPE  C31818620   6.827   5.751   8.311 -0.1138  1.2666 -0.2106
  165SOPE  H18X18621   6.897   5.701   8.241 -1.3575  0.1086 -0.6951
  165SOPE  H18Y18622   6.730   5.778   8.264 -0.0727  0.2686 -0.9136
  165SOPE  H18Z18623   6.820   5.674   8.391  1.3575 -0.8105 -1.9732
  166SOPE     N18624   3.907   5.499  10.836 -1.0594 -0.3889  0.3209
  166SOPE   HN118625   3.918   5.596  10.801  0.2224 -0.5373  0.2797
  166SOPE   HN218626   3.843   5.447  10.772 -2.2628  1.8345 -0.3986
  166SOPE   HN318627   3.841   5.503  10.917  1.2046 -0.1075  2.2735
  166SOPE   C1218628   4.027   5.432  10.898  0.4838  0.6526  0.5732
  166SOPE  H12A18629   3.982   5.335  10.927 -2.4848  1.0428 -2.1412
  166SOPE  H12B18630   4.061   5.490  10.987 -0.5481 -0.0362  1.4413
  166SOPE   C1118631   4.136   5.418  10.786  0.5555 -0.1216 -0.1265
  166SOPE  H11A18632   4.090   5.399  10.687  1.0600  2.3356 -0.9014
  166SOPE  H11B18633   4.203   5.332  10.809 -0.2189 -0.3067  1.5733
  166SOPE     P18634   4.331   5.556  10.681 -0.1009  0.6827 -0.0379
  166SOPE   O1318635   4.389   5.419  10.652 -0.5298 -0.2416 -0.6334
  166SOPE   O1418636   4.435   5.654  10.721  0.8021 -0.2835  0.7308
  166SOPE   O1218637   4.210   5.538  10.787  0.2755 -0.0734 -0.0159
  166SOPE   O1118638   4.248   5.603  10.549 -0.0977 -0.4150  0.0947
  166SOPE    C118639   4.139   5.699  10.568 -0.2141 -0.2978  0.1404
  166SOPE    HA18640   4.158   5.772  10.649  0.0786  0.9342 -1.0034
  166SOPE    HB18641   4.049   5.638  10.594 -1.0237 -0.2679 -2.3478
  166SOPE    C218642   4.097   5.773  10.436  0.2464 -0.3932  0.1329
  166SOPE    HS18643   4.105   5.696  10.356 -3.2417 -0.3752 -0.3834
  166SOPE   O2118644   4.188   5.889  10.416 -0.1679  0.2815 -0.3573
  166SOPE   C2118645   4.291   5.856  10.345 -0.8150  0.1617 -0.3695
  166SOPE   O2218646   4.323   5.744  10.310  0.0943  0.0788  0.0255
  166SOPE   C2218647   4.380   5.982  10.327  0.1836  0.1106 -1.6400
  166SOPE   H2R18648   4.415   6.030  10.421  0.4596  1.0845 -2.2280
  166SOPE   H2S18649   4.314   6.064  10.293  1.7373  1.1605 -2.2486
  166SOPE    C318650   3.954   5.830  10.425 -1.1470 -0.0476 -0.2789
  166SOPE    HX18651   3.951   5.906  10.507 -3.1085 -0.1034 -0.2456
  166SOPE    HY18652   3.878   5.753  10.446  0.1319 -1.6106 -1.1902
  166SOPE   O3118653   3.928   5.882  10.292 -0.2631  0.3148  0.0145
  166SOPE   C3118654   3.923   6.014  10.276 -0.2572 -0.2196 -0.6178
  166SOPE   O3218655   3.971   6.100  10.351 -0.3619 -0.1240  0.2988
  166SOPE   C3218656   3.842   6.045  10.152 -0.4159  0.1792  0.2652
  166SOPE   H2X18657   3.850   6.150  10.115  0.6457 -0.1732 -0.5520
  166SOPE   H2Y18658   3.737   6.020  10.177 -0.2804 -0.5770  0.0968
  166SOPE   C2318659   4.494   5.957  10.227 -0.2654 -0.8532  0.2418
  166SOPE   H3R18660   4.456   5.925  10.128 -2.9911  0.2667  0.8398
  166SOPE   H3S18661   4.569   5.888  10.272  1.8471  1.1293 -0.0489
  166SOPE   C2418662   4.580   6.083  10.213 -0.1452  0.3450  0.1827
  166SOPE   H4R18663   4.504   6.162  10.193 -1.5308 -0.4722  1.9375
  166SOPE   H4S18664   4.630   6.117  10.307 -1.6077  2.0507  0.4106
  166SOPE   C2518665   4.678   6.083  10.101  0.0138  0.0468 -0.3627
  166SOPE   H5R18666   4.626   6.044  10.011  0.5332 -2.6101  0.4068
  166SOPE   H5S18667   4.714   6.188  10.088  0.6820 -0.1618 -0.2104
  166SOPE   C2618668   4.786   5.974  10.129  0.1677 -0.7363 -0.3334
  166SOPE   H6R18669   4.825   5.984  10.232 -0.1545 -2.7204  0.0221
  166SOPE   H6S18670   4.741   5.872  10.125 -1.1321 -0.1574 -1.0684
  166SOPE   C2718671   4.900   5.981  10.025  1.1953 -0.1876  0.4701
  166SOPE   H7R18672   4.941   6.084  10.031 -1.0725  0.7110  2.9882
  166SOPE   H7S18673   4.986   5.920  10.060  0.9401  0.8692  3.1707
  166SOPE   C2818674   4.853   5.948   9.880 -0.5565  0.0467 -0.7255
  166SOPE   H8R18675   4.806   5.848   9.890  0.7990 -0.7898 -2.1389
  166SOPE   H8S18676   4.777   6.021   9.847 -1.9827 -1.4911 -0.9834
  166SOPE   C2918677   4.961   5.936   9.774 -0.1180  0.4482 -0.2713
  166SOPE   H9118678   5.050   5.887   9.817  0.3450  0.2756 -1.3813
  166SOPE  C21018679   4.960   5.958   9.638 -0.4732  0.1166  0.0938
  166SOPE  H10118680   5.054   5.948   9.581  0.2467 -1.2681  1.4443
  166SOPE  C21118681   4.837   6.012   9.567  0.4631 -0.3820  0.0605
  166SOPE  H11R18682   4.799   6.107   9.610 -2.3449 -1.1434 -0.5544
  166SOPE  H11S18683   4.757   5.937   9.585 -0.2355  0.0807 -1.0096
  166SOPE  C21218684   4.846   6.052   9.416 -0.2483  0.4566  0.2153
  166SOPE  H12R18685   4.892   5.965   9.363 -0.5407  0.7300 -0.4960
  166SOPE  H12S18686   4.925   6.130   9.422  0.9211 -0.7971  4.0475
  166SOPE  C21318687   4.728   6.118   9.349  0.5344  0.3139 -0.4319
  166SOPE  H13R18688   4.689   6.201   9.413  2.1509  0.2741  0.6538
  166SOPE  H13S18689   4.642   6.050   9.331  1.4685 -1.5813  1.7755
  166SOPE  C21418690   4.779   6.173   9.216  0.8733 -1.1738 -0.4763
  166SOPE  H14R18691   4.797   6.100   9.135  0.6230  0.0384 -1.6543
  166SOPE  H14S18692   4.872   6.233   9.233 -1.2363  1.8657  1.2107
  166SOPE  C21518693   4.674   6.269   9.162 -0.6524  0.1402  0.1428
  166SOPE  H15R18694   4.669   6.360   9.225 -0.5578  2.5843 -3.1200
  166SOPE  H15S18695   4.582   6.206   9.161  0.7129 -1.9463  0.5379
  166SOPE  C21618696   4.688   6.329   9.025  0.9395  0.8436 -0.0174
  166SOPE  H16R18697   4.788   6.379   9.024  1.1313  0.4888  0.8397
  166SOPE  H16S18698   4.608   6.405   9.016  0.0124 -0.1877 -0.7608
  166SOPE  C21718699   4.667   6.219   8.923  0.2834  0.0643  0.6591
  166SOPE  H17R18700   4.576   6.163   8.950 -1.9911  4.3494  2.9344
  166SOPE  H17S18701   4.755   6.152   8.933  0.0431 -0.4501 -0.5607
  166SOPE  C21818702   4.647   6.267   8.774 -0.4582  0.5005  0.5096
  166SOPE  H18R18703   4.741   6.309   8.732 -0.3885  0.5389  0.7003
  166SOPE  H18S18704   4.564   6.341   8.776 -1.9970 -1.1713  2.3594
  166SOPE  H18T18705   4.630   6.177   8.710  3.5091 -1.4227  1.8585
  166SOPE   C3318706   3.885   5.951  10.029  0.1243  0.1698 -0.3251
  166SOPE   H3X18707   3.860   5.845  10.054  3.8619 -0.8640 -0.2566
  166SOPE   H3Y18708   3.996   5.955  10.024  0.4861 -1.6117  3.1842
  166SOPE   C3418709   3.802   5.966   9.902  0.2880  0.3908  0.0838
  166SOPE   H4X18710   3.828   6.069   9.873 -1.4506  0.4860 -1.2505
  166SOPE   H4Y18711   3.694   5.950   9.921  0.7675 -1.0382  2.0128
  166SOPE   C3518712   3.843   5.874   9.791 -0.1396  0.6280 -0.0573
  166SOPE   H5X18713   3.835   5.768   9.823 -3.1146 -0.7954 -4.5844
  166SOPE   H5Y18714   3.947   5.897   9.763  0.9012  0.5323  3.2447
  166SOPE   C3618715   3.752   5.896   9.668 -0.3264  0.5501  0.5818
  166SOPE   H6X18716   3.746   6.004   9.642  0.2360  0.0867 -1.7173
  166SOPE   H6Y18717   3.653   5.850   9.688 -0.4741  0.7679  0.3502
  166SOPE   C3718718   3.798   5.817   9.542 -0.6753  0.1193  0.8885
  166SOPE   H7X18719   3.774   5.713   9.575  1.9287 -1.2325 -1.0967
  166SOPE   H7Y18720   3.905   5.826   9.514 -1.0853 -0.8604 -1.1864
  166SOPE   C3818721   3.738   5.861   9.412  0.4820  0.0626  0.2653
  166SOPE   H8X18722   3.797   5.950   9.382 -2.4961  1.6032 -1.4831
  166SOPE   H8Y18723   3.637   5.904   9.425 -0.8584 -2.7769 -0.2036
  166SOPE   C3918724   3.726   5.758   9.303  0.4016 -0.2641  0.3912
  166SOPE   H9X18725   3.683   5.808   9.214  1.0428  0.2340  0.3568
  166SOPE   H9Y18726   3.657   5.673   9.325 -2.2668  1.8229  0.6880
  166SOPE  C31018727   3.866   5.711   9.258  0.2223  0.3782 -0.5165
  166SOPE  H10X18728   3.917   5.675   9.350  0.4515  1.6974 -0.0971
  166SOPE  H10Y18729   3.927   5.798   9.225  1.1488 -0.4670 -1.0520
  166SOPE  C31118730   3.874   5.585   9.164  0.3017  0.0966 -0.5414
  166SOPE  H11X18731   3.837   5.617   9.064 -2.6467 -1.3940 -0.0513
  166SOPE  H11Y18732   3.808   5.508   9.209  0.8743 -0.0805  0.0069
  166SOPE  C31218733   4.027   5.547   9.169  0.0190  0.1772  0.3726
  166SOPE  H12X18734   4.069   5.521   9.269 -0.6230 -2.7443 -0.0200
  166SOPE  H12Y18735   4.062   5.636   9.113 -0.4454  0.7384  0.9578
  166SOPE  C31318736   4.071   5.439   9.074  0.8499  0.9535  0.1731
  166SOPE  H13X18737   4.170   5.403   9.112  1.2214  1.5709 -0.1844
  166SOPE  H13Y18738   4.098   5.485   8.976  2.9816  0.6038  0.5281
  166SOPE  C31418739   3.978   5.316   9.062  0.4862 -0.8699  0.4053
  166SOPE  H14X18740   4.016   5.256   8.977 -0.2420  1.0955 -1.3703
  166SOPE  H14Y18741   3.873   5.344   9.038 -0.7000 -2.6786  2.9161
  166SOPE  C31518742   3.970   5.244   9.197 -0.0546  0.6238  0.4371
  166SOPE  H15X18743   3.906   5.305   9.264 -1.0997 -0.3435  0.3434
  166SOPE  H15Y18744   4.069   5.226   9.247 -0.2069  0.7748  0.7985
  166SOPE  C31618745   3.914   5.097   9.194 -0.1514 -0.3761  0.6004
  166SOPE  H16X18746   3.970   5.034   9.122 -0.2201  0.4010 -0.1563
  166SOPE  H16Y18747   3.814   5.099   9.144 -0.6714 -0.8266  1.6076
  166SOPE  C31718748   3.897   5.033   9.328  0.3356 -0.3186 -0.9442
  166SOPE  H17X18749   3.841   5.106   9.391  1.6803  0.2946 -0.4311
  166SOPE  H17Y18750   3.995   5.019   9.378 -0.0889 -0.9082 -0.2358
  166SOPE  C31818751   3.814   4.906   9.327 -0.3270 -0.2812  0.5527
  166SOPE  H18X18752   3.849   4.849   9.238  0.3872 -0.1805  0.7688
  166SOPE  H18Y18753   3.705   4.928   9.322  0.0807  1.6645 -1.4623
  166SOPE  H18Z18754   3.825   4.851   9.422  2.9763 -0.2131  0.3127
  167SOPE     N18755   3.926   2.176   6.086 -0.7990 -0.5582 -0.2426
  167SOPE   HN118756   3.925   2.261   6.027 -0.9844 -0.3260  0.0927
  167SOPE   HN218757   4.025   2.159   6.114 -0.3735  1.0744 -0.6362
  167SOPE   HN318758   3.888   2.089   6.044 -2.9805  0.3623 -0.2850
  167SOPE   C1218759   3.865   2.228   6.209  0.0599  0.4369 -0.5688
  167SOPE  H12A18760   3.942   2.271   6.278 -0.4904 -0.7195  0.8258
  167SOPE  H12B18761   3.833   2.135   6.262 -1.2176  0.7836 -0.7133
  167SOPE   C1118762   3.744   2.314   6.183 -0.6052 -0.2852 -0.7157
  167SOPE  H11A18763   3.677   2.298   6.270  0.3257 -0.0278  0.0684
  167SOPE  H11B18764   3.687   2.290   6.091  0.0511 -0.1466 -1.1652
  167SOPE     P18765   3.835   2.518   6.038  0.1795 -0.1670 -0.3585
  167SOPE   O1318766   3.714   2.558   5.960  0.1504 -0.1466  0.0449
  167SOPE   O1418767   3.934   2.430   5.974 -0.1615  0.3177  0.1536
  167SOPE   O1218768   3.787   2.454   6.175  0.0060  1.3505 -0.0872
  167SOPE   O1118769   3.909   2.643   6.077 -0.2890 -0.2165  0.1711
  167SOPE    C118770   3.885   2.718   6.203  0.8821 -0.4637 -0.4456
  167SOPE    HA18771   3.778   2.730   6.232  1.1439 -0.1499  0.4266
  167SOPE    HB18772   3.909   2.826   6.188 -0.1959 -0.3546 -1.6034
  167SOPE    C218773   3.958   2.672   6.327 -0.0540  0.5306  0.5597
  167SOPE    HS18774   4.048   2.614   6.297 -0.1399  0.9029 -0.4301
  167SOPE   O2118775   3.867   2.595   6.394 -0.0205 -0.1537 -0.0005
  167SOPE   C2118776   3.911   2.492   6.461  0.4647 -0.1936 -0.2085
  167SOPE   O2218777   4.029   2.451   6.472  0.1793 -0.4366  0.0483
  167SOPE   C2218778   3.792   2.423   6.525  0.3772  0.2275  0.2448
  167SOPE   H2R18779   3.716   2.397   6.448 -1.2541  0.1006  1.8327
  167SOPE   H2S18780   3.739   2.501   6.584  0.9938  1.3676 -0.6610
  167SOPE    C318781   3.993   2.794   6.409 -0.2147  0.6426  0.7378
  167SOPE    HX18782   3.895   2.845   6.422 -0.6714  0.7917 -2.4383
  167SOPE    HY18783   4.059   2.863   6.352  2.3419 -1.7474  0.6030
  167SOPE   O3118784   4.050   2.768   6.536  0.0235 -0.0471  0.1385
  167SOPE   C3118785   4.173   2.809   6.560 -0.1251 -0.3295  0.5562
  167SOPE   O3218786   4.246   2.853   6.482 -0.0367 -0.1937  0.4576
  167SOPE   C3218787   4.207   2.770   6.705 -0.4038 -0.3289  0.4121
  167SOPE   H2X18788   4.221   2.661   6.691 -2.3545 -0.6252  0.6152
  167SOPE   H2Y18789   4.119   2.783   6.771 -1.3890  0.9401 -1.0817
  167SOPE   C2318790   3.824   2.302   6.615  0.4892  0.0996  0.4952
  167SOPE   H3R18791   3.886   2.226   6.564  1.5465  0.1993  1.5823
  167SOPE   H3S18792   3.729   2.251   6.643  0.7114 -0.5667  0.0747
  167SOPE   C2418793   3.868   2.363   6.751 -0.5991  0.1072  0.2648
  167SOPE   H4R18794   3.958   2.428   6.746 -0.2952 -0.2534  0.9621
  167SOPE   H4S18795   3.790   2.431   6.789  0.7752  1.6482  0.4349
  167SOPE   C2518796   3.883   2.249   6.857  0.5152 -0.2042  0.3765
  167SOPE   H5R18797   3.789   2.192   6.869  0.6701 -0.8495 -1.1924
  167SOPE   H5S18798   3.948   2.164   6.826 -0.2099 -0.3247 -0.8842
  167SOPE   C2618799   3.939   2.307   6.980  0.1260 -0.2826 -0.8451
  167SOPE   H6R18800   4.046   2.329   6.962  0.8322  1.0797  3.8431
  167SOPE   H6S18801   3.891   2.405   7.000  0.7585 -0.0310 -0.5527
  167SOPE   C2718802   3.944   2.208   7.103  0.5401 -0.3836 -0.5165
  167SOPE   H7R18803   3.958   2.108   7.058  1.8198  1.1752 -3.8931
  167SOPE   H7S18804   4.026   2.240   7.170 -0.0992 -0.9209  0.5456
  167SOPE   C2818805   3.818   2.215   7.186  0.2246  0.6618 -1.3247
  167SOPE   H8R18806   3.814   2.302   7.255 -1.1701 -1.4947  1.4983
  167SOPE   H8S18807   3.730   2.232   7.120 -1.6021 -0.4113  0.7383
  167SOPE   C2918808   3.803   2.085   7.258  0.1619 -0.0600 -0.8113
  167SOPE   H9118809   3.790   1.995   7.195  2.1122 -1.2745  0.4142
  167SOPE  C21018810   3.814   2.059   7.391 -0.9977  0.2400 -0.4437
  167SOPE  H10118811   3.811   1.956   7.431  0.2722  0.5231  0.4422
  167SOPE  C21118812   3.838   2.167   7.499  0.2195  0.9002  0.5446
  167SOPE  H11R18813   3.742   2.170   7.556 -0.1485 -1.1954  0.1195
  167SOPE  H11S18814   3.864   2.257   7.440  0.7422 -0.6071 -1.6765
  167SOPE  C21218815   3.952   2.126   7.598  0.1220 -0.2780 -0.2353
  167SOPE  H12R18816   4.049   2.137   7.547  1.0404  1.0769  1.6737
  167SOPE  H12S18817   3.936   2.020   7.628 -0.4445  0.2984  1.6862
  167SOPE  C21318818   3.937   2.207   7.729  0.4923 -0.8697 -0.5687
  167SOPE  H13R18819   3.830   2.206   7.759  0.6532  1.4321  0.3261
  167SOPE  H13S18820   3.947   2.310   7.688 -0.3786  0.4755  2.2846
  167SOPE  C21418821   4.022   2.166   7.844  0.3083 -0.2713  0.1622
  167SOPE  H14R18822   4.132   2.173   7.838  0.2569  1.4628  0.4935
  167SOPE  H14S18823   3.996   2.058   7.845  2.1396 -0.7701 -1.1730
  167SOPE  C21518824   3.984   2.233   7.977 -0.1489 -0.0608 -0.1250
  167SOPE  H15R18825   3.875   2.254   7.973  0.1770  1.7001 -0.1932
  167SOPE  H15S18826   4.037   2.330   7.966 -1.4404  0.7279  0.4118
  167SOPE  C21618827   4.039   2.155   8.103  0.0863 -0.1626  0.1738
  167SOPE  H16R18828   4.150   2.163   8.097 -0.1044  3.0039 -0.8859
  167SOPE  H16S18829   4.017   2.048   8.085 -1.4416  0.2358 -0.4627
  167SOPE  C21718830   3.987   2.200   8.241  0.6793  0.5910 -0.4194
  167SOPE  H17R18831   3.876   2.206   8.241  0.6044 -0.5606 -0.4203
  167SOPE  H17S18832   4.018   2.307   8.243 -0.8793  1.1733 -2.7726
  167SOPE  C21818833   4.032   2.120   8.363 -0.3435  0.2712  0.1125
  167SOPE  H18R18834   3.994   2.173   8.453 -0.3277  0.7145 -0.1387
  167SOPE  H18S18835   4.142   2.108   8.374 -0.1556  1.1077 -0.7245
  167SOPE  H18T18836   3.996   2.015   8.358  2.1849 -0.8091  1.9711
  167SOPE   C3318837   4.341   2.840   6.747 -0.1103 -0.2389 -0.1983
  167SOPE   H3X18838   4.327   2.950   6.752  0.4898 -0.2060  1.4778
  167SOPE   H3Y18839   4.422   2.815   6.675  0.0314  1.1287 -0.5496
  167SOPE   C3418840   4.388   2.799   6.887  0.3094 -0.3703  0.6103
  167SOPE   H4X18841   4.428   2.696   6.873 -1.4836 -1.0240  0.0084
  167SOPE   H4Y18842   4.299   2.788   6.953  0.0205 -1.3315  0.0869
  167SOPE   C3518843   4.493   2.897   6.933 -0.6149 -0.8354  0.0072
  167SOPE   H5X18844   4.438   2.991   6.953  0.5664 -0.4987  1.9368
  167SOPE   H5Y18845   4.562   2.923   6.849 -1.5067 -0.9795 -0.7833
  167SOPE   C3618846   4.574   2.845   7.053  1.0130  0.4650  0.4272
  167SOPE   H6X18847   4.629   2.753   7.025 -1.7917 -1.5461  1.1127
  167SOPE   H6Y18848   4.502   2.817   7.132  1.7598  1.0351  1.3424
  167SOPE   C3718849   4.685   2.951   7.098 -0.3988 -0.7382  0.2260
  167SOPE   H7X18850   4.612   3.026   7.136 -0.1603  1.2110 -2.8667
  167SOPE   H7Y18851   4.731   2.992   7.006 -0.6113  1.5862  1.1017
  167SOPE   C3818852   4.792   2.894   7.194 -0.1471  0.0112  0.1398
  167SOPE   H8X18853   4.865   2.977   7.211  1.6902 -1.6120  0.5358
  167SOPE   H8Y18854   4.850   2.814   7.143 -0.2632  0.3431 -0.5173
  167SOPE   C3918855   4.729   2.848   7.329 -0.0199  0.2905  0.0312
  167SOPE   H9X18856   4.639   2.785   7.312 -2.2482  3.6035 -1.4193
  167SOPE   H9Y18857   4.686   2.940   7.373 -0.3526  0.1981 -0.0922
  167SOPE  C31018858   4.830   2.781   7.427  0.5101 -1.4632  0.0447
  167SOPE  H10X18859   4.919   2.846   7.440 -1.7984  1.5129  2.3083
  167SOPE  H10Y18860   4.853   2.681   7.383  0.5866 -2.5854  2.4190
  167SOPE  C31118861   4.772   2.772   7.567 -0.3290  0.2325  0.3414
  167SOPE  H11X18862   4.679   2.712   7.560  0.6929 -1.4127  0.3777
  167SOPE  H11Y18863   4.745   2.874   7.602  2.1594  1.2006 -0.3240
  167SOPE  C31218864   4.872   2.703   7.656 -0.3117  0.0766 -0.5161
  167SOPE  H12X18865   4.975   2.743   7.642 -0.2188  0.1161  0.2373
  167SOPE  H12Y18866   4.883   2.594   7.637 -0.8210 -0.2962  1.1076
  167SOPE  C31318867   4.834   2.719   7.803 -0.1330  0.2543 -0.3748
  167SOPE  H13X18868   4.725   2.731   7.823  0.6658  2.7762  3.6014
  167SOPE  H13Y18869   4.883   2.811   7.844  1.9348 -1.8860  2.3575
  167SOPE  C31418870   4.881   2.610   7.894 -0.0982  0.1918 -0.3305
  167SOPE  H14X18871   4.991   2.600   7.879  0.4152  0.9547  2.3361
  167SOPE  H14Y18872   4.838   2.511   7.866  1.1674 -0.0188 -1.7032
  167SOPE  C31518873   4.860   2.643   8.043 -0.1485 -0.0827 -0.2493
  167SOPE  H15X18874   4.752   2.660   8.060 -0.3189 -1.2524 -0.0804
  167SOPE  H15Y18875   4.917   2.737   8.065  1.2905 -0.7839 -0.8337
  167SOPE  C31618876   4.912   2.531   8.137 -0.8307 -0.1594  0.2399
  167SOPE  H16X18877   5.015   2.563   8.165 -1.3293  0.5805  1.2819
  167SOPE  H16Y18878   4.919   2.435   8.082 -3.6791 -0.0750 -0.4016
  167SOPE  C31718879   4.817   2.506   8.254  0.6168  0.3455  0.1680
  167SOPE  H17X18880   4.728   2.459   8.207  0.5894  1.7643 -1.2981
  167SOPE  H17Y18881   4.774   2.604   8.287 -1.8445  0.2839 -2.4223
  167SOPE  C31818882   4.862   2.428   8.383  0.2601 -0.2979  0.1715
  167SOPE  H18X18883   4.872   2.318   8.372 -4.5380 -0.6572 -4.5648
  167SOPE  H18Y18884   4.800   2.452   8.471  0.1274  2.3094 -0.5520
  167SOPE  H18Z18885   4.955   2.475   8.423 -0.6861  1.2926  0.5876
  168SOPE     N18886   3.723   6.711   6.158  0.0572 -0.0057 -0.0113
  168SOPE   HN118887   3.783   6.736   6.239 -1.5773  0.8696  0.9840
  168SOPE   HN218888   3.626   6.748   6.162  0.0996  0.0172  1.2078
  168SOPE   HN318889   3.721   6.608   6.165  0.9883  0.0193  0.8501
  168SOPE   C1218890   3.807   6.756   6.039  0.4768 -0.0891 -0.3273
  168SOPE  H12A18891   3.748   6.777   5.948  1.6119  1.4234 -0.7586
  168SOPE  H12B18892   3.862   6.665   6.007  0.1984 -0.0818 -0.8375
  168SOPE   C1118893   3.895   6.883   6.069 -0.2219  0.6690 -0.5296
  168SOPE  H11A18894   3.840   6.978   6.051  1.7557  1.7184 -1.2707
  168SOPE  H11B18895   3.985   6.878   6.004 -0.5267 -1.5686 -0.8800
  168SOPE     P18896   4.075   6.916   6.258  0.0167 -0.3616 -0.1029
  168SOPE   O1318897   4.093   7.063   6.251  0.3254 -0.1400 -0.4147
  168SOPE   O1418898   4.177   6.829   6.193  0.0228  0.1171  0.2126
  168SOPE   O1218899   3.939   6.875   6.200 -0.2094  0.4538  0.3403
  168SOPE   O1118900   4.060   6.896   6.413  0.7657  0.2149  0.4174
  168SOPE    C118901   4.181   6.874   6.491  0.5393 -0.3398  0.3082
  168SOPE    HA18902   4.248   6.962   6.482 -2.0297  1.8805  1.3724
  168SOPE    HB18903   4.238   6.785   6.456  0.6416  0.2116 -0.9665
  168SOPE    C218904   4.142   6.853   6.635 -0.1347  0.1030  0.1932
  168SOPE    HS18905   4.082   6.760   6.644 -1.6789  1.1250  0.6881
  168SOPE   O2118906   4.084   6.978   6.673  0.1561 -0.1419  0.4782
  168SOPE   C2118907   3.976   6.963   6.764 -0.2609 -0.2423  0.2992
  168SOPE   O2218908   3.935   6.857   6.808 -0.3395 -0.3435 -0.1916
  168SOPE   C2218909   3.910   7.091   6.797 -0.5071 -0.3206  0.6441
  168SOPE   H2R18910   3.830   7.106   6.722 -0.0023 -2.2686 -0.3534
  168SOPE   H2S18911   3.976   7.181   6.793  0.2158 -0.8414  0.5890
  168SOPE    C318912   4.256   6.821   6.727 -0.6381  1.1696 -0.4296
  168SOPE    HX18913   4.342   6.892   6.727  2.3426 -2.0724  1.8649
  168SOPE    HY18914   4.307   6.730   6.688  0.6248  0.7101  2.0798
  168SOPE   O3118915   4.213   6.794   6.864 -0.2833  0.6837  0.0918
  168SOPE   C3118916   4.319   6.777   6.941  0.5426  0.2480 -0.7690
  168SOPE   O3218917   4.434   6.790   6.907 -0.1588 -0.4527  0.8338
  168SOPE   C3218918   4.272   6.769   7.086  0.4954  0.6779 -0.1658
  168SOPE   H2X18919   4.180   6.707   7.091  1.0426 -0.1262  0.1646
  168SOPE   H2Y18920   4.237   6.873   7.103 -0.5170  0.1775  0.9850
  168SOPE   C2318921   3.873   7.092   6.945 -0.5108  0.1445  0.0593
  168SOPE   H3R18922   3.800   7.009   6.954 -1.2680  0.8621  0.7337
  168SOPE   H3S18923   3.828   7.189   6.976  1.0609  0.3117  2.0494
  168SOPE   C2418924   3.991   7.076   7.052  0.6837  0.1546 -0.7171
  168SOPE   H4R18925   4.053   6.987   7.027  0.2060 -0.4914  0.2957
  168SOPE   H4S18926   4.056   7.166   7.052  1.6482 -0.5265 -0.5837
  168SOPE   C2518927   3.922   7.060   7.189  0.1610 -0.3402 -0.3437
  168SOPE   H5R18928   3.846   7.140   7.195  0.5767  0.2751 -2.4801
  168SOPE   H5S18929   3.873   6.962   7.212 -1.0765  0.6474  1.4535
  168SOPE   C2618930   4.020   7.063   7.308 -0.3471 -0.3544  0.3776
  168SOPE   H6R18931   4.103   6.990   7.298 -0.9416 -0.9772 -0.1611
  168SOPE   H6S18932   4.072   7.161   7.306 -0.9921 -0.0088 -1.0341
  168SOPE   C2718933   3.940   7.078   7.438  0.2888 -0.0561  0.0573
  168SOPE   H7R18934   3.858   7.152   7.434  0.2457 -0.1104 -0.0618
  168SOPE   H7S18935   3.881   6.984   7.447  2.1868 -1.2539  0.6716
  168SOPE   C2818936   4.025   7.089   7.561  0.1015 -0.3895  0.2331
  168SOPE   H8R18937   4.091   7.178   7.555  0.1895 -0.4664  0.0668
  168SOPE   H8S18938   3.959   7.125   7.643  2.6814  1.1486  1.7627
  168SOPE   C2918939   4.096   6.967   7.607 -1.0750  0.7766 -0.5244
  168SOPE   H9118940   4.085   6.879   7.543  1.4029 -0.4399  0.5550
  168SOPE  C21018941   4.175   6.958   7.720  0.3164 -0.8522 -0.2796
  168SOPE  H10118942   4.220   6.859   7.735  0.9350 -0.4067  0.9469
  168SOPE  C21118943   4.194   7.072   7.814 -0.2635  0.8647 -0.5782
  168SOPE  H11R18944   4.164   7.170   7.771  2.0606  1.5359 -0.8117
  168SOPE  H11S18945   4.298   7.069   7.854 -1.3044 -1.5984  2.3646
  168SOPE  C21218946   4.106   7.044   7.936  1.1047  0.0347 -0.0132
  168SOPE  H12R18947   3.999   7.060   7.910  1.3496  1.3990 -0.2740
  168SOPE  H12S18948   4.131   7.114   8.018 -1.2604  0.5498  0.3468
  168SOPE  C21318949   4.105   6.900   7.997  0.7763 -0.0008  0.3534
  168SOPE  H13R18950   4.049   6.833   7.929  1.5442  0.0234 -0.3123
  168SOPE  H13S18951   4.042   6.903   8.089 -0.1605 -1.2369 -0.2296
  168SOPE  C21418952   4.250   6.848   8.030 -0.6091  0.4137  0.0925
  168SOPE  H14R18953   4.309   6.931   8.077 -0.8158  0.5496  0.1147
  168SOPE  H14S18954   4.302   6.827   7.934  0.7182  2.1264  0.3703
  168SOPE  C21518955   4.243   6.721   8.131 -0.5977 -0.7157  0.5530
  168SOPE  H15R18956   4.187   6.756   8.220 -0.3500  0.6809  0.1822
  168SOPE  H15S18957   4.348   6.703   8.164 -0.2397  1.8350  1.0263
  168SOPE  C21618958   4.192   6.597   8.058  0.3723  0.2062 -0.0370
  168SOPE  H16R18959   4.251   6.580   7.966  0.5593  1.4560 -0.1708
  168SOPE  H16S18960   4.084   6.616   8.039 -0.1057 -0.8748  1.4317
  168SOPE  C21718961   4.194   6.477   8.149  0.4207 -0.7105 -0.2096
  168SOPE  H17R18962   4.130   6.405   8.095  0.0273  0.8036 -1.8382
  168SOPE  H17S18963   4.155   6.516   8.246 -1.3455 -0.1310 -1.1064
  168SOPE  C21818964   4.327   6.403   8.162  0.1800  0.1878  0.2676
  168SOPE  H18R18965   4.293   6.316   8.221 -0.8473  1.4819  1.6592
  168SOPE  H18S18966   4.400   6.459   8.224  0.3429 -0.7622  0.9487
  168SOPE  H18T18967   4.362   6.375   8.060 -0.7566  0.7709 -0.2337
  168SOPE   C3318968   4.387   6.715   7.168 -0.9905  0.0553  0.2208
  168SOPE   H3X18969   4.470   6.788   7.155 -0.0005 -1.3664 -1.8473
  168SOPE   H3Y18970   4.420   6.621   7.120 -3.2423 -1.0658  0.7166
  168SOPE   C3418971   4.363   6.690   7.316  0.7536  0.6560 -0.6011
  168SOPE   H4X18972   4.287   6.610   7.327 -0.7523  2.1449  0.3699
  168SOPE   H4Y18973   4.319   6.782   7.359 -0.2451  0.2867 -0.8208
  168SOPE   C3518974   4.476   6.645   7.403 -0.0404  0.1654  0.7391
  168SOPE   H5X18975   4.543   6.733   7.405 -0.4801  0.4879  1.3438
  168SOPE   H5Y18976   4.534   6.556   7.370  3.0260  2.7787 -1.5020
  168SOPE   C3618977   4.433   6.623   7.544  0.6235 -0.1900 -0.1823
  168SOPE   H6X18978   4.428   6.513   7.560  1.2189 -0.1202  0.5902
  168SOPE   H6Y18979   4.332   6.666   7.560  0.1716 -0.4534 -2.1042
  168SOPE   C3718980   4.539   6.674   7.642  0.4937  0.2850  0.1472
  168SOPE   H7X18981   4.556   6.784   7.649  0.0124  0.3522  0.3229
  168SOPE   H7Y18982   4.631   6.618   7.615  1.6065  2.2665 -0.4106
  168SOPE   C3818983   4.500   6.637   7.789  0.2238 -0.1828  0.0022
  168SOPE   H8X18984   4.475   6.530   7.804 -2.4000  0.6070  2.2593
  168SOPE   H8Y18985   4.411   6.696   7.823  1.1887  0.1237  2.1712
  168SOPE   C3918986   4.611   6.681   7.885 -0.1215 -0.4622  0.1849
  168SOPE   H9X18987   4.613   6.792   7.881  2.0373 -0.4973 -1.1531
  168SOPE   H9Y18988   4.712   6.651   7.852 -0.2823 -0.8395  0.0317
  168SOPE  C31018989   4.591   6.623   8.028  0.0625  0.7512 -0.2776
  168SOPE  H10X18990   4.580   6.512   8.025 -0.7516  0.8115  0.1726
  168SOPE  H10Y18991   4.492   6.654   8.068  0.3504 -0.9189  1.9656
  168SOPE  C31118992   4.692   6.650   8.136  0.0286  0.2801  0.8172
  168SOPE  H11X18993   4.722   6.757   8.129  0.1631  0.1677 -0.5378
  168SOPE  H11Y18994   4.770   6.571   8.127 -0.6789 -0.4511  0.9706
  168SOPE  C31218995   4.640   6.641   8.280  0.4536  0.4875 -0.0616
  168SOPE  H12X18996   4.578   6.551   8.301 -1.5804  2.0855  1.1815
  168SOPE  H12Y18997   4.567   6.724   8.288 -0.3057  0.0315 -1.8618
  168SOPE  C31318998   4.747   6.667   8.389 -0.0128 -0.0625  0.2564
  168SOPE  H13X18999   4.813   6.753   8.362 -0.2520  0.0863  0.1446
  168SOPE  H13Y19000   4.807   6.574   8.381  0.0739  0.0941 -1.1351
  168SOPE  C31419001   4.686   6.677   8.531 -0.4801  0.1029  0.0582
  168SOPE  H14X19002   4.624   6.587   8.548  2.2099 -1.7616  0.7293
  168SOPE  H14Y19003   4.632   6.774   8.535 -0.6792  0.2261 -3.3197
  168SOPE  C31519004   4.790   6.686   8.648  0.3204 -0.3898  0.3014
  168SOPE  H15X19005   4.848   6.777   8.621  0.4468 -0.9472 -1.4191
  168SOPE  H15Y19006   4.855   6.597   8.645  1.6098  0.5268  0.0688
  168SOPE  C31619007   4.727   6.714   8.789 -0.5980  0.3097  0.0571
  168SOPE  H16X19008   4.692   6.612   8.814  0.8366 -0.5354 -1.1978
  168SOPE  H16Y19009   4.635   6.776   8.788  0.6958  2.3469  0.3047
  168SOPE  C31719010   4.819   6.792   8.886  0.5519  0.1089  0.1364
  168SOPE  H17X19011   4.863   6.880   8.833 -0.6761  0.8056  0.2472
  168SOPE  H17Y19012   4.900   6.718   8.905  1.2295  0.8567  0.2366
  168SOPE  C31819013   4.751   6.849   9.014 -0.0964 -0.7361 -0.0170
  168SOPE  H18X19014   4.829   6.913   9.059 -0.1771 -1.0883  0.6279
  168SOPE  H18Y19015   4.735   6.763   9.082  0.9091 -1.7294 -0.9947
  168SOPE  H18Z19016   4.663   6.913   8.989  0.5680 -0.3401 -1.4579
  169SOPE     N19017   6.518   2.181   6.222  0.3478 -0.3667 -0.2870
  169SOPE   HN119018   6.479   2.089   6.192 -0.2618 -1.1721  2.6881
  169SOPE   HN219019   6.442   2.251   6.209 -0.7363 -1.5061 -0.2882
  169SOPE   HN319020   6.603   2.201   6.165  1.1787 -1.1496  0.6302
  169SOPE   C1219021   6.557   2.199   6.365 -0.1300  0.8196  0.6375
  169SOPE  H12A19022   6.608   2.298   6.370 -1.5569  1.5942  0.5014
  169SOPE  H12B19023   6.635   2.127   6.396 -0.3059 -0.1467 -1.0971
  169SOPE   C1119024   6.425   2.183   6.444 -0.5436  0.5392 -0.1188
  169SOPE  H11A19025   6.444   2.201   6.552  0.3206 -1.6894  0.1746
  169SOPE  H11B19026   6.403   2.076   6.422  3.2223 -0.4126  0.0262
  169SOPE     P19027   6.171   2.227   6.374  0.3087 -0.1330  0.0359
  169SOPE   O1319028   6.172   2.089   6.312 -0.6639 -0.0133 -0.4323
  169SOPE   O1419029   6.085   2.329   6.306 -0.0190  0.3284  0.1989
  169SOPE   O1219030   6.321   2.269   6.387 -0.8751 -0.2538  0.5131
  169SOPE   O1119031   6.114   2.209   6.519  0.9781  0.6148  0.0606
  169SOPE    C119032   6.138   2.300   6.621 -0.3930  0.1122 -0.3038
  169SOPE    HA19033   6.245   2.322   6.638 -0.3525 -1.3571  1.6442
  169SOPE    HB19034   6.099   2.242   6.707 -0.8637 -3.2925 -2.6144
  169SOPE    C219035   6.061   2.434   6.605 -0.0505  0.1058  0.7070
  169SOPE    HS19036   6.081   2.465   6.500  0.3202 -2.4415 -0.0574
  169SOPE   O2119037   6.116   2.537   6.695  0.2732 -0.2562  0.3969
  169SOPE   C2119038   6.235   2.583   6.663 -0.2262 -1.2233 -0.4817
  169SOPE   O2219039   6.307   2.557   6.571  0.0287 -0.3633 -0.4438
  169SOPE   C2219040   6.274   2.682   6.777  0.0165 -0.1892  0.0594
  169SOPE   H2R19041   6.194   2.674   6.853 -1.0907 -1.6291 -1.1891
  169SOPE   H2S19042   6.273   2.786   6.737 -0.2973 -0.6714 -1.2441
  169SOPE    C319043   5.911   2.425   6.636  0.3857 -0.7222  0.3958
  169SOPE    HX19044   5.852   2.362   6.566 -0.3524 -0.1584  0.4974
  169SOPE    HY19045   5.846   2.514   6.627  1.4608  0.2165  1.4950
  169SOPE   O3119046   5.895   2.359   6.764 -0.2825 -0.0471 -0.4345
  169SOPE   C3119047   5.883   2.457   6.868 -0.1238 -0.0556 -0.2539
  169SOPE   O3219048   5.888   2.580   6.858 -0.0825  0.2280 -0.0537
  169SOPE   C3219049   5.890   2.382   6.997  0.8629  0.1553 -0.0348
  169SOPE   H2X19050   5.992   2.412   7.031  0.7703  4.1655 -2.5953
  169SOPE   H2Y19051   5.896   2.274   6.972  1.5864  0.9396 -4.0579
  169SOPE   C2319052   6.417   2.652   6.829 -0.2410  0.1115 -0.0907
  169SOPE   H3R19053   6.442   2.730   6.905  0.6162 -0.7592  0.5363
  169SOPE   H3S19054   6.502   2.652   6.758  0.1841 -1.1566  0.3912
  169SOPE   C2419055   6.438   2.516   6.898 -0.2768 -0.1119  0.1284
  169SOPE   H4R19056   6.448   2.440   6.818 -0.6077 -1.3914  1.2618
  169SOPE   H4S19057   6.541   2.507   6.940 -0.4499 -0.0578  0.5698
  169SOPE   C2519058   6.340   2.466   7.007 -0.1328 -0.3551  0.2336
  169SOPE   H5R19059   6.239   2.442   6.968  0.4056 -0.2420 -1.2958
  169SOPE   H5S19060   6.384   2.369   7.036 -0.2350  0.0450  1.8378
  169SOPE   C2619061   6.340   2.548   7.134 -0.7618  0.4650  0.5180
  169SOPE   H6R19062   6.444   2.575   7.162  0.3395 -0.8395 -1.9877
  169SOPE   H6S19063   6.292   2.642   7.099 -0.8181  0.7567  1.3530
  169SOPE   C2719064   6.251   2.487   7.251 -0.1924 -0.6339  0.7101
  169SOPE   H7R19065   6.158   2.445   7.206 -0.7649 -0.4448  1.6839
  169SOPE   H7S19066   6.319   2.411   7.295  0.8113  0.3529  0.9026
  169SOPE   C2819067   6.197   2.598   7.340 -0.1113 -0.6633  0.1256
  169SOPE   H8R19068   6.280   2.670   7.358  0.9643 -0.8033 -3.5040
  169SOPE   H8S19069   6.126   2.658   7.279 -1.5366 -2.5758 -0.1965
  169SOPE   C2919070   6.134   2.531   7.457  0.7381  0.2714 -0.1936
  169SOPE   H9119071   6.044   2.474   7.427  0.5973  0.3593  0.0643
  169SOPE  C21019072   6.175   2.530   7.582  0.1142 -0.0301 -0.3572
  169SOPE  H10119073   6.119   2.466   7.652 -0.2545 -0.7811 -1.2983
  169SOPE  C21119074   6.301   2.604   7.617 -0.3364 -1.2331 -0.7750
  169SOPE  H11R19075   6.274   2.711   7.630  0.0742 -1.2284  0.1165
  169SOPE  H11S19076   6.387   2.610   7.548 -0.1734 -1.5847 -0.6022
  169SOPE  C21219077   6.366   2.554   7.743  0.8135 -0.1510  0.2572
  169SOPE  H12R19078   6.472   2.588   7.744  0.9543 -0.6038  0.6053
  169SOPE  H12S19079   6.369   2.444   7.728 -2.5801 -0.5953  1.8890
  169SOPE  C21319080   6.300   2.592   7.876 -1.1676 -0.0636  0.2041
  169SOPE  H13R19081   6.194   2.561   7.885 -1.0753 -0.3352  0.3570
  169SOPE  H13S19082   6.295   2.703   7.878  1.2775  0.2488 -3.0220
  169SOPE  C21419083   6.379   2.531   7.993 -0.1213  0.2680  0.3495
  169SOPE  H14R19084   6.478   2.580   8.002  0.8474 -0.9179 -2.6083
  169SOPE  H14S19085   6.379   2.423   7.968  0.7222 -0.3242  2.7038
  169SOPE  C21519086   6.302   2.542   8.123 -0.5398 -0.7007 -0.0057
  169SOPE  H15R19087   6.204   2.496   8.098 -1.0080  0.3623 -0.1879
  169SOPE  H15S19088   6.288   2.649   8.150  3.4010  0.0081 -0.1974
  169SOPE  C21619089   6.358   2.454   8.238  0.3276 -0.0261  0.0847
  169SOPE  H16R19090   6.454   2.497   8.273  0.5484 -0.0402 -0.4850
  169SOPE  H16S19091   6.382   2.355   8.193  0.1127  0.0275 -0.1513
  169SOPE  C21719092   6.264   2.437   8.360  0.2923 -0.1127 -0.6508
  169SOPE  H17R19093   6.165   2.389   8.345  0.7488 -1.7895  1.3498
  169SOPE  H17S19094   6.261   2.544   8.390  1.2837 -0.1589 -0.3458
  169SOPE  C21819095   6.333   2.368   8.482 -0.0047  0.3480 -1.1014
  169SOPE  H18R19096   6.377   2.270   8.454  2.0069  1.2114 -1.1625
  169SOPE  H18S19097   6.261   2.358   8.566  2.7555 -2.1979  1.1906
  169SOPE  H18T19098   6.402   2.435   8.539 -0.9442 -0.3236  0.9348
  169SOPE   C3319099   5.781   2.418   7.098  0.4538  0.0040 -0.3513
  169SOPE   H3X19100   5.680   2.386   7.065  0.9656  1.4278 -3.8380
  169SOPE   H3Y19101   5.779   2.529   7.111 -1.4514 -0.1867  1.4859
  169SOPE   C3419102   5.820   2.359   7.234  0.8418 -0.0342  0.2036
  169SOPE   H4X19103   5.929   2.373   7.251  0.6640  0.1101  1.3161
  169SOPE   H4Y19104   5.797   2.251   7.230  0.7969  0.0180 -2.1489
  169SOPE   C3519105   5.746   2.429   7.348  0.2816 -0.5255  0.2940
  169SOPE   H5X19106   5.687   2.512   7.304 -1.6023 -2.2973 -0.6754
  169SOPE   H5Y19107   5.822   2.466   7.420  0.3926 -0.5890  0.2088
  169SOPE   C3619108   5.647   2.331   7.412  0.4636  0.0808 -0.6319
  169SOPE   H6X19109   5.594   2.268   7.338  2.9686 -0.9579 -1.6452
  169SOPE   H6Y19110   5.570   2.393   7.464  2.2072  2.4254 -0.6429
  169SOPE   C3719111   5.701   2.255   7.525 -0.4833 -0.1846 -0.5037
  169SOPE   H7X19112   5.713   2.327   7.609 -1.8281 -0.3453 -0.1666
  169SOPE   H7Y19113   5.798   2.204   7.505  1.8319  3.6190  0.0796
  169SOPE   C3819114   5.590   2.165   7.582 -0.1120  0.3230 -1.1952
  169SOPE   H8X19115   5.497   2.220   7.607 -0.6808 -1.1349  0.0525
  169SOPE   H8Y19116   5.567   2.088   7.506 -0.8721  0.0016 -0.6494
  169SOPE   C3919117   5.651   2.084   7.699  0.0098 -0.0852 -0.2539
  169SOPE   H9X19118   5.682   2.139   7.790 -0.6727 -0.7498  0.3919
  169SOPE   H9Y19119   5.747   2.038   7.667 -0.2259 -1.0118  0.3123
  169SOPE  C31019120   5.562   1.962   7.744  0.2952  0.0824 -1.1160
  169SOPE  H10X19121   5.640   1.895   7.787 -1.0384  0.5171  2.2787
  169SOPE  H10Y19122   5.521   1.921   7.649 -0.8515  0.0278 -0.6116
  169SOPE  C31119123   5.453   1.995   7.847  0.3099 -0.7285 -0.1937
  169SOPE  H11X19124   5.391   1.912   7.889 -1.8440  2.3770  3.4558
  169SOPE  H11Y19125   5.380   2.065   7.801 -0.7941  0.5159  3.1156
  169SOPE  C31219126   5.503   2.058   7.976 -0.9545 -0.1375 -0.7159
  169SOPE  H12X19127   5.419   2.074   8.047  0.1647  2.9008  0.0362
  169SOPE  H12Y19128   5.533   2.163   7.957 -0.7846 -0.3781 -1.8447
  169SOPE  C31319129   5.618   1.991   8.055 -0.6824 -0.3091 -0.0186
  169SOPE  H13X19130   5.714   2.000   7.999 -1.5945  0.7799 -1.4852
  169SOPE  H13Y19131   5.583   1.887   8.068 -3.2226  0.6392  1.5003
  169SOPE  C31419132   5.646   2.062   8.190 -0.3445  0.2203  0.0956
  169SOPE  H14X19133   5.565   2.042   8.264  1.8381  2.0655  3.2331
  169SOPE  H14Y19134   5.647   2.171   8.170  2.0051  0.2399 -0.0083
  169SOPE  C31519135   5.776   2.013   8.253 -0.5585 -0.2168  0.7483
  169SOPE  H15X19136   5.852   2.043   8.178 -0.2879  3.0659  2.1515
  169SOPE  H15Y19137   5.783   1.903   8.261  2.1021  0.0059  3.0356
  169SOPE  C31619138   5.821   2.085   8.381 -0.5648  0.4306  1.0858
  169SOPE  H16X19139   5.738   2.081   8.455 -1.5603  0.8645  0.0375
  169SOPE  H16Y19140   5.832   2.192   8.354  1.5523  0.2071  0.8833
  169SOPE  C31719141   5.949   2.047   8.444 -0.2133 -0.3219  0.0696
  169SOPE  H17X19142   6.021   2.021   8.363  0.6207 -0.8323  0.9551
  169SOPE  H17Y19143   5.937   1.948   8.491 -0.3954  0.6480  2.1947
  169SOPE  C31819144   6.005   2.150   8.544 -0.7584  0.6238  0.7610
  169SOPE  H18X19145   6.025   2.249   8.498  0.1392  0.6624  1.2022
  169SOPE  H18Y19146   6.105   2.111   8.574 -0.3836 -0.0776 -1.2046
  169SOPE  H18Z19147   5.939   2.148   8.633  0.2384  3.9793  1.7348
  170SOPE     N19148   0.430   0.046   5.907  0.2871  0.2252 -0.2278
  170SOPE   HN119149   0.457   0.106   5.826 -0.9692  0.3051 -0.6028
  170SOPE   HN219150   0.342   0.077   5.952 -1.4303  0.6313 -3.5544
  170SOPE   HN319151   0.512   0.028   5.968 -1.5085 -3.4292  1.3857
  170SOPE   C1219152   0.376  -0.091   5.884  0.2247  0.2348 -0.3371
  170SOPE  H12A19153   0.457  -0.158   5.849 -0.9410 -1.2881 -0.1983
  170SOPE  H12B19154   0.298  -0.085   5.805  1.8013  0.4724 -1.9471
  170SOPE   C1119155   0.323  -0.164   6.010  0.3284  0.8708  0.0580
  170SOPE  H11A19156   0.413  -0.179   6.074  0.4903  0.5066 -0.2513
  170SOPE  H11B19157   0.295  -0.269   5.986 -3.5280  1.3702  1.6319
  170SOPE     P19158   0.140  -0.145   6.195  0.8027  0.2487  0.3660
  170SOPE   O1319159   0.105  -0.284   6.170 -0.2404  0.5870 -0.5456
  170SOPE   O1419160   0.023  -0.060   6.213  0.0324 -0.2770  0.2569
  170SOPE   O1219161   0.220  -0.093   6.070  0.2294 -0.2832 -0.2985
  170SOPE   O1119162   0.239  -0.125   6.312 -0.9222 -0.4305 -0.1127
  170SOPE    C119163   0.306   0.002   6.344 -0.5898  0.6083  0.8145
  170SOPE    HA19164   0.273   0.082   6.274 -0.5401  0.6362  0.8237
  170SOPE    HB19165   0.417  -0.001   6.343 -0.5135  2.2710  0.7724
  170SOPE    C219166   0.273   0.045   6.489  0.2381  0.4521 -0.0750
  170SOPE    HS19167   0.332   0.136   6.514 -0.0809  0.8347 -0.6894
  170SOPE   O2119168   0.294  -0.063   6.583 -0.6164  0.2977 -0.1927
  170SOPE   C2119169   0.421  -0.089   6.595 -0.0956  0.1111  0.2594
  170SOPE   O2219170   0.516  -0.024   6.551 -0.1083  0.4165 -0.0209
  170SOPE   C2219171   0.440  -0.199   6.702  0.4167 -0.4551 -0.0610
  170SOPE   H2R19172   0.510  -0.276   6.662 -0.2473 -0.4852 -1.2259
  170SOPE   H2S19173   0.340  -0.241   6.726  0.5337 -0.3325  0.6603
  170SOPE    C319174   0.124   0.090   6.508  0.1101  0.3116  0.6077
  170SOPE    HX19175   0.066  -0.005   6.497 -2.2424  1.6491  0.7143
  170SOPE    HY19176   0.085   0.155   6.427  0.8883  1.0011  0.7833
  170SOPE   O3119177   0.108   0.140   6.642  0.0353  0.1187  0.6501
  170SOPE   C3119178   0.052   0.257   6.650 -0.2389 -0.0017 -0.0805
  170SOPE   O3219179   0.012   0.327   6.560  0.6063 -0.2081  0.1204
  170SOPE   C3219180   0.061   0.300   6.802  0.4947  0.1258  1.0982
  170SOPE   H2X19181   0.099   0.215   6.862 -2.0085 -1.8914  0.0353
  170SOPE   H2Y19182  -0.041   0.337   6.827 -0.4506 -2.2152  0.8954
  170SOPE   C2319183   0.491  -0.137   6.828  0.4782  0.5998  0.2172
  170SOPE   H3R19184   0.426  -0.055   6.864 -0.7543  0.0855 -0.7723
  170SOPE   H3S19185   0.588  -0.088   6.804  0.0578  1.3086 -0.0340
  170SOPE   C2419186   0.518  -0.237   6.942  0.9312  0.0899 -0.4417
  170SOPE   H4R19187   0.466  -0.331   6.912  0.7611  0.2340 -0.6035
  170SOPE   H4S19188   0.626  -0.255   6.956  0.6546 -0.6168  0.8654
  170SOPE   C2519189   0.446  -0.194   7.073 -0.0326  0.0915 -0.3245
  170SOPE   H5R19190   0.504  -0.106   7.106 -1.3623  0.9557 -0.2240
  170SOPE   H5S19191   0.344  -0.154   7.053 -1.1932 -2.2138  0.5067
  170SOPE   C2619192   0.431  -0.306   7.179  0.1853  0.0002 -0.2501
  170SOPE   H6R19193   0.376  -0.256   7.262 -0.8599  1.1990 -1.5995
  170SOPE   H6S19194   0.363  -0.384   7.139  0.0332  0.4881 -0.9812
  170SOPE   C2719195   0.574  -0.357   7.224 -0.0102  0.5469  0.0659
  170SOPE   H7R19196   0.600  -0.430   7.145  0.0084 -0.1945  0.7423
  170SOPE   H7S19197   0.641  -0.268   7.224 -0.5294  0.9485  0.6139
  170SOPE   C2819198   0.580  -0.419   7.366  0.1246 -0.0099  0.1590
  170SOPE   H8R19199   0.686  -0.407   7.398  0.6840  0.7763 -1.8113
  170SOPE   H8S19200   0.509  -0.365   7.431 -1.7454 -2.1542  0.0426
  170SOPE   C2919201   0.535  -0.560   7.377  0.1285 -0.0117  0.6791
  170SOPE   H9119202   0.512  -0.610   7.282 -2.6346 -0.0025  1.2678
  170SOPE  C21019203   0.535  -0.631   7.490  0.5144  0.3595 -0.7021
  170SOPE  H10119204   0.505  -0.737   7.488  0.6496  0.3129 -0.3196
  170SOPE  C21119205   0.561  -0.577   7.631 -0.1116  0.0173  0.4613
  170SOPE  H11R19206   0.524  -0.472   7.637 -2.2837 -0.6262 -0.5475
  170SOPE  H11S19207   0.670  -0.586   7.650 -0.3597  0.4966  2.3540
  170SOPE  C21219208   0.481  -0.650   7.749  0.3807  0.5014  0.4585
  170SOPE  H12R19209   0.490  -0.760   7.741 -0.6961  0.3906  0.5947
  170SOPE  H12S19210   0.375  -0.623   7.725  0.9291  1.2812 -1.2654
  170SOPE  C21319211   0.526  -0.588   7.882  0.3823  0.0725  0.6877
  170SOPE  H13R19212   0.518  -0.478   7.870 -1.7440 -0.1097 -0.0173
  170SOPE  H13S19213   0.626  -0.621   7.918  1.2985  2.8002  0.8030
  170SOPE  C21419214   0.429  -0.626   7.996  0.2282  0.1899 -0.6594
  170SOPE  H14R19215   0.428  -0.737   7.997 -0.8505  0.1654 -1.6289
  170SOPE  H14S19216   0.328  -0.591   7.964 -1.2696 -1.5106  1.8889
  170SOPE  C21519217   0.448  -0.548   8.128 -0.6294  0.5044 -0.0908
  170SOPE  H15R19218   0.442  -0.440   8.103  0.7461  0.1872 -1.9629
  170SOPE  H15S19219   0.549  -0.577   8.164 -0.8919 -3.9718 -2.2451
  170SOPE  C21619220   0.335  -0.575   8.229 -0.1814 -0.6386  0.0392
  170SOPE  H16R19221   0.238  -0.586   8.177  1.4063  1.9672 -4.0276
  170SOPE  H16S19222   0.334  -0.495   8.306  0.8579 -0.6697  0.1033
  170SOPE  C21719223   0.355  -0.699   8.317 -0.5750 -0.3471 -0.2666
  170SOPE  H17R19224   0.455  -0.700   8.364 -1.1962 -2.4809  1.1751
  170SOPE  H17S19225   0.343  -0.787   8.250 -0.0269  1.3208 -2.6660
  170SOPE  C21819226   0.244  -0.711   8.422 -0.6844 -0.3497 -0.3288
  170SOPE  H18R19227   0.245  -0.801   8.487  0.3327  1.5934  2.5576
  170SOPE  H18S19228   0.145  -0.707   8.373  0.5042  1.9917 -2.7980
  170SOPE  H18T19229   0.251  -0.625   8.491 -1.0666  0.0606 -0.7975
  170SOPE   C3319230   0.151   0.424   6.828  0.6242  0.4563  0.3803
  170SOPE   H3X19231   0.139   0.488   6.737 -2.4789  0.3656  0.6139
  170SOPE   H3Y19232   0.260   0.403   6.835  0.4136 -0.5433  0.8272
  170SOPE   C3419233   0.111   0.499   6.958 -0.2911 -0.4619  0.4733
  170SOPE   H4X19234   0.076   0.428   7.037 -1.0053 -1.4020 -0.6475
  170SOPE   H4Y19235   0.036   0.577   6.935 -1.1301 -1.5781 -0.7127
  170SOPE   C3519236   0.233   0.555   7.040  0.3128  0.8642 -0.3981
  170SOPE   H5X19237   0.293   0.611   6.965 -0.0310  1.3751 -0.2998
  170SOPE   H5Y19238   0.289   0.465   7.073  0.2392  1.4088  1.3607
  170SOPE   C3619239   0.187   0.625   7.165 -0.0823 -0.3144  0.1095
  170SOPE   H6X19240   0.087   0.585   7.192 -0.6924 -1.1313 -2.9460
  170SOPE   H6Y19241   0.175   0.731   7.134  0.8472  0.3277  1.8402
  170SOPE   C3719242   0.275   0.626   7.290  0.7899 -0.6463  0.5889
  170SOPE   H7X19243   0.383   0.633   7.263  0.4228 -0.5925 -0.9123
  170SOPE   H7Y19244   0.258   0.524   7.331  2.5822 -0.5245  1.7787
  170SOPE   C3819245   0.228   0.740   7.390  0.3981  0.0519  0.0967
  170SOPE   H8X19246   0.118   0.728   7.394  0.4563 -0.1959  1.1303
  170SOPE   H8Y19247   0.249   0.844   7.357 -0.8406  0.2571 -0.0710
  170SOPE   C3919248   0.278   0.716   7.532  0.2426  0.5335  0.1771
  170SOPE   H9X19249   0.385   0.747   7.533  0.0300  1.3697 -0.6804
  170SOPE   H9Y19250   0.276   0.607   7.550  2.2129  0.5712  0.7962
  170SOPE  C31019251   0.206   0.791   7.643 -0.0577 -0.5564 -0.1262
  170SOPE  H10X19252   0.097   0.772   7.649 -0.6575  2.8024  1.7221
  170SOPE  H10Y19253   0.203   0.897   7.610 -0.0222 -0.4256  0.2899
  170SOPE  C31119254   0.271   0.780   7.772  0.0355 -0.4175 -0.6415
  170SOPE  H11X19255   0.379   0.806   7.767 -0.5159  1.8970 -1.6206
  170SOPE  H11Y19256   0.257   0.679   7.817 -1.9932  1.4502  3.4519
  170SOPE  C31219257   0.221   0.872   7.878 -0.0628 -0.1722  0.6452
  170SOPE  H12X19258   0.118   0.834   7.898 -1.0745 -0.0176 -3.5065
  170SOPE  H12Y19259   0.206   0.976   7.842  2.3783 -0.7156 -2.2693
  170SOPE  C31319260   0.312   0.883   7.997 -0.2230  0.2621 -1.1261
  170SOPE  H13X19261   0.415   0.905   7.962 -1.2682  0.2999 -4.5118
  170SOPE  H13Y19262   0.323   0.778   8.031  1.5289  0.7806  0.0192
  170SOPE  C31419263   0.256   0.960   8.110  0.1221  0.2341 -0.0748
  170SOPE  H14X19264   0.148   0.978   8.095  0.3698  2.1094  0.1270
  170SOPE  H14Y19265   0.301   1.060   8.125  1.1197 -0.4433  1.7787
  170SOPE  C31519266   0.285   0.890   8.247 -0.4237  0.5427 -0.7047
  170SOPE  H15X19267   0.278   0.779   8.255 -0.2192  0.5818  0.1449
  170SOPE  H15Y19268   0.215   0.932   8.323  1.6861  0.4457  1.4397
  170SOPE  C31619269   0.435   0.924   8.285  0.4143  0.1196  0.2254
  170SOPE  H16X19270   0.450   1.033   8.265 -0.1827  0.2850  0.6540
  170SOPE  H16Y19271   0.494   0.864   8.213 -1.9679 -0.5872 -1.2418
  170SOPE  C31719272   0.477   0.886   8.423  0.0948  0.1615 -0.5042
  170SOPE  H17X19273   0.585   0.880   8.445  0.0611  0.6523 -0.1872
  170SOPE  H17Y19274   0.439   0.783   8.440  0.4570  0.1248  0.0864
  170SOPE  C31819275   0.420   0.985   8.524  0.6935 -0.2384  0.3775
  170SOPE  H18X19276   0.419   0.948   8.629  0.3416  2.8547  1.5534
  170SOPE  H18Y19277   0.318   1.014   8.491  0.9334  1.3922  1.0107
  170SOPE  H18Z19278   0.481   1.077   8.535  0.3502 -0.0983  1.2074
  171SOPE     N19279   0.742   3.037   6.078 -0.0230  0.1404  0.1312
  171SOPE   HN119280   0.648   3.018   6.039  0.1256 -1.0105  0.2936
  171SOPE   HN219281   0.786   3.121   6.036  0.7769 -1.3325 -2.1667
  171SOPE   HN319282   0.808   2.957   6.066 -0.0713 -0.5214  3.2691
  171SOPE   C1219283   0.734   3.064   6.221  0.1717  0.3806 -0.6608
  171SOPE  H12A19284   0.817   3.128   6.259 -0.5213  1.3327 -0.6938
  171SOPE  H12B19285   0.735   2.973   6.284  0.4010  1.8911  1.6502
  171SOPE   C1119286   0.613   3.153   6.238  0.5741 -0.7542 -0.4253
  171SOPE  H11A19287   0.614   3.178   6.346  1.9489 -1.0936 -0.3333
  171SOPE  H11B19288   0.512   3.111   6.223 -0.1120  0.8280 -0.4267
  171SOPE     P19289   0.553   3.399   6.185 -0.2589  0.1755  0.2383
  171SOPE   O1319290   0.421   3.383   6.121 -0.6021 -0.1881  0.6547
  171SOPE   O1419291   0.630   3.510   6.128 -0.3502  0.1228  0.1248
  171SOPE   O1219292   0.625   3.265   6.154  0.5990 -0.0067 -0.2640
  171SOPE   O1119293   0.542   3.416   6.343  0.0329  0.6868 -0.4406
  171SOPE    C119294   0.634   3.506   6.409  0.0060 -0.0414  0.1170
  171SOPE    HA19295   0.605   3.500   6.516  1.8312 -2.5325  0.5499
  171SOPE    HB19296   0.614   3.609   6.371 -1.6218 -1.5653 -3.6509
  171SOPE    C219297   0.784   3.467   6.395  0.4060 -0.1778  0.2174
  171SOPE    HS19298   0.809   3.435   6.292 -2.0216 -0.7934 -0.2240
  171SOPE   O2119299   0.811   3.359   6.490  0.4084  0.1245 -0.2594
  171SOPE   C2119300   0.927   3.310   6.488  0.3966 -0.6539  0.5680
  171SOPE   O2219301   1.005   3.316   6.393  0.1612 -0.1090  0.0583
  171SOPE   C2219302   0.950   3.240   6.623 -0.8659  0.0265 -0.2915
  171SOPE   H2R19303   1.032   3.301   6.667  2.3939 -1.8856 -3.2491
  171SOPE   H2S19304   0.984   3.136   6.604 -2.9953 -1.0763  1.4530
  171SOPE    C319305   0.865   3.599   6.425  0.6351  0.0724  0.3064
  171SOPE    HX19306   0.848   3.669   6.340  0.5341  1.4657  1.4491
  171SOPE    HY19307   0.974   3.579   6.421  0.7102  0.0442  2.0441
  171SOPE   O3119308   0.819   3.666   6.543 -0.3932  0.3760  0.6125
  171SOPE   C3119309   0.864   3.621   6.658 -0.1928 -0.2139 -0.2920
  171SOPE   O3219310   0.954   3.534   6.662 -0.3512  0.3157 -0.0452
  171SOPE   C3219311   0.781   3.683   6.777  0.0634 -0.3348  0.1202
  171SOPE   H2X19312   0.730   3.603   6.834  0.1121 -0.3285  0.1725
  171SOPE   H2Y19313   0.711   3.750   6.722  1.6562  0.9339 -0.4384
  171SOPE   C2319314   0.825   3.234   6.724  0.4055  0.6258  0.3021
  171SOPE   H3R19315   0.751   3.154   6.704 -0.3434  0.7715  2.3034
  171SOPE   H3S19316   0.762   3.323   6.704  2.4028  1.6163 -2.1685
  171SOPE   C2419317   0.869   3.247   6.866  0.8172 -1.0071 -0.3863
  171SOPE   H4R19318   0.919   3.157   6.905 -0.2954 -0.6960  1.9349
  171SOPE   H4S19319   0.929   3.340   6.876  0.6131 -0.7753 -1.1968
  171SOPE   C2519320   0.746   3.279   6.957 -0.2856  0.9752  0.0336
  171SOPE   H5R19321   0.697   3.369   6.914 -0.2002  0.5234 -1.0423
  171SOPE   H5S19322   0.681   3.189   6.956  0.8283  0.1290  0.9411
  171SOPE   C2619323   0.784   3.313   7.096  0.0885 -0.6592  0.7942
  171SOPE   H6R19324   0.841   3.224   7.131  1.4153 -0.8331 -1.6246
  171SOPE   H6S19325   0.862   3.392   7.099  0.9891 -1.5341  1.4997
  171SOPE   C2719326   0.664   3.351   7.182 -0.4532 -0.1975 -0.4526
  171SOPE   H7R19327   0.622   3.445   7.140  0.7135  0.2738 -0.5842
  171SOPE   H7S19328   0.600   3.261   7.169  1.2895 -1.4690 -0.4325
  171SOPE   C2819329   0.701   3.368   7.330 -0.1528 -0.2150  0.0025
  171SOPE   H8R19330   0.607   3.351   7.386  0.1538 -1.3342  0.2143
  171SOPE   H8S19331   0.757   3.280   7.369 -0.7179 -0.5821  0.0027
  171SOPE   C2919332   0.781   3.485   7.359  0.0860  0.0094 -0.0294
  171SOPE   H9119333   0.889   3.486   7.335  0.5698 -2.5925  1.5821
  171SOPE  C21019334   0.733   3.588   7.426  0.2652 -0.6258 -0.2542
  171SOPE  H10119335   0.816   3.655   7.453  1.5822 -2.5023  0.5405
  171SOPE  C21119336   0.599   3.619   7.486  0.1844  0.1737  0.1747
  171SOPE  H11R19337   0.522   3.615   7.406 -0.2062 -2.3861  0.5658
  171SOPE  H11S19338   0.608   3.725   7.518  1.3918 -0.1000  0.8072
  171SOPE  C21219339   0.547   3.542   7.610 -0.2275 -0.3127 -0.6148
  171SOPE  H12R19340   0.546   3.436   7.576  0.2098 -0.8401  0.9409
  171SOPE  H12S19341   0.444   3.567   7.643  0.4406 -1.6298  2.8907
  171SOPE  C21319342   0.623   3.576   7.738 -0.0723  0.6902 -0.0518
  171SOPE  H13R19343   0.593   3.681   7.756 -2.2101 -0.0214  0.8585
  171SOPE  H13S19344   0.731   3.566   7.714 -0.5972 -0.0459 -2.3578
  171SOPE  C21419345   0.567   3.486   7.851 -0.4169  0.3758 -0.1483
  171SOPE  H14R19346   0.580   3.380   7.822  0.8760  0.1284  1.2080
  171SOPE  H14S19347   0.457   3.499   7.860 -0.3413  0.7262  0.2992
  171SOPE  C21519348   0.648   3.504   7.985  0.2516 -0.2369 -0.0620
  171SOPE  H15R19349   0.591   3.451   8.064  0.3724 -1.0018 -0.4795
  171SOPE  H15S19350   0.658   3.614   7.998 -3.5898  0.4763 -1.8089
  171SOPE  C21619351   0.779   3.428   7.979  0.3347 -0.0503 -0.6892
  171SOPE  H16R19352   0.834   3.457   7.887  0.4590  1.9021 -0.0404
  171SOPE  H16S19353   0.760   3.319   7.979 -1.3741  0.2297 -1.6213
  171SOPE  C21719354   0.877   3.477   8.085 -0.2566 -0.6431  0.3198
  171SOPE  H17R19355   0.909   3.391   8.146  1.6569 -0.8707 -0.9262
  171SOPE  H17S19356   0.815   3.530   8.160 -0.0276 -0.8209  0.6370
  171SOPE  C21819357   0.986   3.567   8.023  0.5317  0.2454  0.6152
  171SOPE  H18R19358   1.071   3.597   8.088  0.9178  0.1421  0.1677
  171SOPE  H18S19359   0.950   3.663   7.981  0.9622 -1.0060 -2.9972
  171SOPE  H18T19360   1.029   3.501   7.944 -0.3666  0.3325  0.0390
  171SOPE   C3319361   0.866   3.767   6.870  0.5259  0.1615 -0.4763
  171SOPE   H3X19362   0.935   3.833   6.813  1.2190 -0.3090 -0.2004
  171SOPE   H3Y19363   0.930   3.695   6.927 -1.5221 -2.0526 -0.7962
  171SOPE   C3419364   0.775   3.838   6.973 -0.2852 -0.4385 -0.2424
  171SOPE   H4X19365   0.700   3.769   7.018  1.8971 -2.6314  0.2134
  171SOPE   H4Y19366   0.714   3.913   6.917 -1.9008 -0.7074  1.0848
  171SOPE   C3519367   0.848   3.899   7.095 -0.5675 -0.5886  0.3988
  171SOPE   H5X19368   0.791   3.982   7.141  1.6566  0.0924  2.1238
  171SOPE   H5Y19369   0.945   3.940   7.058  1.1053 -2.3471  2.5737
  171SOPE   C3619370   0.878   3.791   7.201 -0.2796  0.0781 -0.0865
  171SOPE   H6X19371   0.936   3.707   7.157  0.2019 -0.8196  2.1388
  171SOPE   H6Y19372   0.778   3.754   7.229 -1.0844  1.6072 -0.8435
  171SOPE   C3719373   0.962   3.852   7.320 -0.7145  0.7352  0.0705
  171SOPE   H7X19374   1.064   3.881   7.287 -1.1220  0.4850 -1.4397
  171SOPE   H7Y19375   0.979   3.771   7.394 -1.2416 -0.7936 -1.4388
  171SOPE   C3819376   0.892   3.976   7.381 -0.4618 -0.6983 -0.1540
  171SOPE   H8X19377   0.788   3.960   7.416 -1.1073  1.0707 -1.1330
  171SOPE   H8Y19378   0.898   4.058   7.307  0.6149 -1.2237 -0.6823
  171SOPE   C3919379   0.983   4.027   7.495  0.5953  0.1881  0.5569
  171SOPE   H9X19380   0.959   4.135   7.489  0.0006 -0.0039 -0.7885
  171SOPE   H9Y19381   1.090   4.037   7.467 -0.2157  1.3379 -2.6813
  171SOPE  C31019382   0.966   3.954   7.629 -0.6008  0.8057  0.1796
  171SOPE  H10X19383   1.035   3.868   7.626  1.4950  2.4234 -0.5704
  171SOPE  H10Y19384   0.861   3.919   7.631 -0.2526 -0.2458  0.7758
  171SOPE  C31119385   0.992   4.035   7.752  0.6493 -0.1590  0.2090
  171SOPE  H11X19386   0.944   4.134   7.744  1.1229  0.0163 -0.5162
  171SOPE  H11Y19387   1.102   4.051   7.749  0.5948  0.4123  0.9281
  171SOPE  C31219388   0.937   3.977   7.881 -0.3221 -0.0237  0.0558
  171SOPE  H12X19389   0.992   3.881   7.887 -1.6284 -0.7531  0.5412
  171SOPE  H12Y19390   0.827   3.964   7.882 -0.4414  0.8081  2.2737
  171SOPE  C31319391   0.974   4.071   7.995  0.1335  0.2254  0.2635
  171SOPE  H13X19392   0.916   4.166   7.993 -0.8829 -0.3786  0.3553
  171SOPE  H13Y19393   1.078   4.111   7.992  0.2828 -0.1446  0.4239
  171SOPE  C31419394   0.959   4.009   8.133  0.4417 -0.0526  0.2329
  171SOPE  H14X19395   0.996   4.084   8.206  0.2594  1.5326 -1.2414
  171SOPE  H14Y19396   1.014   3.913   8.127 -1.7431 -1.4124  0.8373
  171SOPE  C31519397   0.813   3.961   8.157 -0.1022 -0.6023 -0.5638
  171SOPE  H15X19398   0.797   3.880   8.083  0.2502  0.4705 -1.8521
  171SOPE  H15Y19399   0.745   4.047   8.138 -0.3367 -0.8807 -0.9927
  171SOPE  C31619400   0.787   3.919   8.302  0.1399  0.3910  0.1517
  171SOPE  H16X19401   0.677   3.909   8.310  0.2570 -1.9029 -0.3839
  171SOPE  H16Y19402   0.821   4.003   8.367  0.0264  0.3247  0.2974
  171SOPE  C31719403   0.861   3.791   8.330  0.1299 -0.0502  0.5207
  171SOPE  H17X19404   0.961   3.811   8.375  0.9190  1.0274 -1.5455
  171SOPE  H17Y19405   0.883   3.738   8.235  0.1621 -1.5207  1.3310
  171SOPE  C31819406   0.775   3.702   8.421 -0.7033 -1.0642 -0.3624
  171SOPE  H18X19407   0.671   3.711   8.381 -0.3882  0.7011 -0.8885
  171SOPE  H18Y19408   0.794   3.739   8.524  1.1308 -2.8109 -0.0290
  171SOPE  H18Z19409   0.828   3.605   8.415  2.7109  0.6136  0.3658
  172SOPE     N19410   1.378   5.407   6.461  0.3156  0.6971 -0.6781
  172SOPE   HN119411   1.360   5.509   6.473  0.4233  0.4943  1.6368
  172SOPE   HN219412   1.328   5.360   6.539  0.8868  1.4145  0.1360
  172SOPE   HN319413   1.479   5.418   6.480 -0.2184  1.4258  2.2824
  172SOPE   C1219414   1.349   5.358   6.326  0.1787  0.4081  0.4356
  172SOPE  H12A19415   1.403   5.423   6.254 -1.1402  0.9998 -0.0367
  172SOPE  H12B19416   1.243   5.369   6.297 -0.2073  0.5674  1.8456
  172SOPE   C1119417   1.406   5.211   6.310 -0.8977 -0.3341  0.1205
  172SOPE  H11A19418   1.381   5.175   6.208  1.2435 -1.4928 -0.0707
  172SOPE  H11B19419   1.358   5.144   6.385  1.1627 -2.2031 -0.1334
  172SOPE     P19420   1.632   5.077   6.312  0.3116  0.1639 -0.0147
  172SOPE   O1319421   1.766   5.105   6.261 -0.1215  0.2814  0.1327
  172SOPE   O1419422   1.558   4.970   6.241 -0.1460 -0.5165  0.4240
  172SOPE   O1219423   1.548   5.209   6.319 -0.4433 -0.4697  0.1037
  172SOPE   O1119424   1.632   5.027   6.464  0.0190 -0.3090  0.2074
  172SOPE    C119425   1.744   5.021   6.546  0.3791  0.0794 -0.0095
  172SOPE    HA19426   1.770   5.128   6.564 -0.8942  1.0282 -3.0737
  172SOPE    HB19427   1.826   4.963   6.498  1.0599  1.3044 -0.3677
  172SOPE    C219428   1.695   4.949   6.676 -0.2026 -1.1296  1.0229
  172SOPE    HS19429   1.654   4.852   6.640  0.1086 -0.6930 -0.5981
  172SOPE   O2119430   1.598   5.026   6.736  0.4424 -0.2995  0.2336
  172SOPE   C2119431   1.531   4.966   6.830 -0.0805 -0.1680  0.7362
  172SOPE   O2219432   1.527   4.848   6.862 -0.0458  0.0811  0.2600
  172SOPE   C2219433   1.432   5.070   6.889 -0.4109  1.0574  0.3816
  172SOPE   H2R19434   1.332   5.044   6.848  0.0546  1.5287 -1.1011
  172SOPE   H2S19435   1.457   5.172   6.854  3.0202  0.3274  0.3872
  172SOPE    C319436   1.806   4.927   6.787  0.0563  0.0857  0.2222
  172SOPE    HX19437   1.885   4.875   6.728 -1.8241 -1.1366 -1.3439
  172SOPE    HY19438   1.773   4.850   6.860 -0.7317 -1.3971 -1.5772
  172SOPE   O3119439   1.858   5.050   6.839  0.1297 -0.1770  0.2393
  172SOPE   C3119440   1.839   5.073   6.969  0.5669  0.1582  0.0115
  172SOPE   O3219441   1.800   4.993   7.050  0.1197 -0.1094 -0.3550
  172SOPE   C3219442   1.856   5.219   7.012 -0.3445  0.9558 -0.2668
  172SOPE   H2X19443   1.833   5.297   6.936 -1.7139  0.4538 -0.3980
  172SOPE   H2Y19444   1.965   5.222   7.034 -0.0178 -1.9672 -1.1803
  172SOPE   C2319445   1.432   5.061   7.043 -0.3304  0.0089 -0.2085
  172SOPE   H3R19446   1.530   5.079   7.091 -0.8306 -0.5852  1.0816
  172SOPE   H3S19447   1.407   4.960   7.081 -0.3603 -0.6692 -1.9618
  172SOPE   C2419448   1.330   5.156   7.107 -0.7131 -0.7876 -0.3259
  172SOPE   H4R19449   1.336   5.248   7.044 -0.3731 -0.7442 -0.2359
  172SOPE   H4S19450   1.231   5.106   7.110 -0.4021 -1.4309 -0.8429
  172SOPE   C2519451   1.371   5.194   7.253 -0.2252 -0.4348 -0.7978
  172SOPE   H5R19452   1.338   5.108   7.315  0.2831  0.9374  1.4705
  172SOPE   H5S19453   1.482   5.201   7.248 -0.2033 -1.3959 -2.3669
  172SOPE   C2619454   1.301   5.320   7.308  0.0328 -0.1367  0.6165
  172SOPE   H6R19455   1.319   5.402   7.236  1.0530  0.8614  1.9354
  172SOPE   H6S19456   1.191   5.309   7.318 -0.1265 -0.6958 -1.4944
  172SOPE   C2719457   1.364   5.365   7.443 -0.1290 -0.1129  0.1349
  172SOPE   H7R19458   1.469   5.339   7.465  0.4284  1.5484 -0.3771
  172SOPE   H7S19459   1.358   5.476   7.446  0.6718 -0.0436 -0.5594
  172SOPE   C2819460   1.277   5.322   7.565  0.5410  0.5737  0.1076
  172SOPE   H8R19461   1.302   5.380   7.656 -1.6875  1.1517  0.3972
  172SOPE   H8S19462   1.170   5.342   7.543  1.3447  0.8298 -4.8198
  172SOPE   C2919463   1.303   5.176   7.595 -0.0808  0.0976 -0.1034
  172SOPE   H9119464   1.286   5.109   7.509 -2.7733 -1.8442  1.7735
  172SOPE  C21019465   1.338   5.113   7.707  0.3954  0.2835 -0.4171
  172SOPE  H10119466   1.340   5.003   7.695 -0.5485 -0.0499  1.9606
  172SOPE  C21119467   1.361   5.189   7.841 -0.4760 -0.4687  0.3184
  172SOPE  H11R19468   1.291   5.159   7.922 -0.3459  0.6508  0.8631
  172SOPE  H11S19469   1.343   5.299   7.840 -2.4238 -0.7152 -1.7487
  172SOPE  C21219470   1.507   5.151   7.892  0.0361  0.6448 -0.5026
  172SOPE  H12R19471   1.543   5.230   7.962  1.4156 -0.3069 -0.1035
  172SOPE  H12S19472   1.590   5.136   7.820  0.9214 -0.6940  0.7431
  172SOPE  C21319473   1.506   5.020   7.975  0.8236  0.0771 -0.4672
  172SOPE  H13R19474   1.475   4.936   7.908 -0.3249  0.4538 -0.4191
  172SOPE  H13S19475   1.435   5.017   8.059  0.5286 -1.9636 -0.7214
  172SOPE  C21419476   1.650   4.988   8.032  0.8958  0.3149  0.5259
  172SOPE  H14R19477   1.656   5.031   8.135 -0.0374  2.0410 -0.1063
  172SOPE  H14S19478   1.717   5.049   7.968 -2.3677  1.7986 -1.7357
  172SOPE  C21519479   1.688   4.835   8.025 -0.7845  0.0900  0.0362
  172SOPE  H15R19480   1.742   4.820   7.929  0.4860 -2.2809  1.0333
  172SOPE  H15S19481   1.599   4.772   8.007 -0.0062 -0.1486 -3.6422
  172SOPE  C21619482   1.766   4.785   8.147 -0.4443 -0.4528 -0.7635
  172SOPE  H16R19483   1.706   4.818   8.234  0.7505 -0.4494  0.0752
  172SOPE  H16S19484   1.862   4.840   8.153  0.1469 -1.4576 -0.9375
  172SOPE  C21719485   1.798   4.633   8.152 -0.1688 -0.0217  0.8165
  172SOPE  H17R19486   1.878   4.600   8.084  1.0091  1.6802  1.3063
  172SOPE  H17S19487   1.706   4.578   8.121 -0.7095  1.5188 -0.4584
  172SOPE  C21819488   1.841   4.595   8.296  0.4893  0.1587  0.1453
  172SOPE  H18R19489   1.851   4.485   8.310 -0.1222  0.2849  1.8066
  172SOPE  H18S19490   1.778   4.639   8.376 -2.2131 -0.8946 -1.2606
  172SOPE  H18T19491   1.937   4.648   8.313 -0.4501  1.5325  1.3746
  172SOPE   C3319492   1.775   5.255   7.140 -0.9492  0.2031 -0.0734
  172SOPE   H3X19493   1.669   5.227   7.127 -1.1371  2.0786 -3.6561
  172SOPE   H3Y19494   1.778   5.366   7.137  1.9138  0.3058  2.0608
  172SOPE   C3419495   1.846   5.209   7.273 -0.6887  0.0680  0.5278
  172SOPE   H4X19496   1.957   5.220   7.263 -0.8620  0.7454 -0.8708
  172SOPE   H4Y19497   1.807   5.105   7.276  1.1954 -0.6777  2.3640
  172SOPE   C3519498   1.783   5.271   7.404  0.1617 -0.1718 -0.3590
  172SOPE   H5X19499   1.677   5.238   7.401 -0.1263  0.4965  1.2643
  172SOPE   H5Y19500   1.793   5.381   7.391  0.5533 -0.4906 -3.7867
  172SOPE   C3619501   1.848   5.228   7.528 -0.5728 -0.3869 -0.2249
  172SOPE   H6X19502   1.958   5.243   7.522 -0.3604 -0.2221  2.7270
  172SOPE   H6Y19503   1.833   5.121   7.555  1.7940 -0.7790 -0.2472
  172SOPE   C3719504   1.795   5.308   7.650 -0.4814  0.3426 -0.5923
  172SOPE   H7X19505   1.688   5.279   7.647  0.3014 -2.9104 -0.2715
  172SOPE   H7Y19506   1.808   5.419   7.645 -0.1888  0.5543  2.8781
  172SOPE   C3819507   1.849   5.255   7.784 -0.1612  0.1371  0.0527
  172SOPE   H8X19508   1.836   5.147   7.805  0.1030  0.3257  1.2137
  172SOPE   H8Y19509   1.805   5.311   7.869  0.4468 -0.1499  0.5672
  172SOPE   C3919510   2.004   5.268   7.803 -1.0420  0.9126  0.2722
  172SOPE   H9X19511   2.034   5.374   7.785 -1.5120  0.9258 -0.5279
  172SOPE   H9Y19512   2.056   5.203   7.729  1.7695 -0.5744  3.2890
  172SOPE  C31019513   2.048   5.226   7.946 -0.1559 -0.7205  0.8663
  172SOPE  H10X19514   1.995   5.300   8.009  1.4119  2.3804 -1.1935
  172SOPE  H10Y19515   2.157   5.247   7.950 -0.0493 -0.7678 -0.9755
  172SOPE  C31119516   2.027   5.082   7.974  0.3533 -0.0396 -0.1073
  172SOPE  H11X19517   2.043   5.014   7.888 -0.7502  1.1928 -1.3424
  172SOPE  H11Y19518   1.918   5.076   7.993  0.1855  1.0279 -0.6412
  172SOPE  C31219519   2.098   5.034   8.104  0.1852 -0.0417 -0.3076
  172SOPE  H12X19520   2.209   5.042   8.108  0.2104 -0.6173  0.2481
  172SOPE  H12Y19521   2.083   4.924   8.113  1.1971 -0.2196 -0.6375
  172SOPE  C31319522   2.025   5.093   8.224 -0.2412 -0.2317 -0.5684
  172SOPE  H13X19523   1.918   5.065   8.214 -0.3358 -0.3550  0.5571
  172SOPE  H13Y19524   2.028   5.202   8.206 -4.1171 -0.0674 -1.1286
  172SOPE  C31419525   2.089   5.061   8.359 -0.2617 -0.0753  0.1951
  172SOPE  H14X19526   2.071   5.144   8.430 -0.3692 -2.2856  2.9169
  172SOPE  H14Y19527   2.199   5.048   8.349  0.0506  0.0463  2.8394
  172SOPE  C31519528   2.028   4.948   8.426  0.0096  1.0277 -0.1625
  172SOPE  H15X19529   2.036   4.858   8.362 -1.3722  0.2678  0.6758
  172SOPE  H15Y19530   1.919   4.964   8.434 -0.2652  0.6985 -2.5318
  172SOPE  C31619531   2.072   4.920   8.568  0.6311  0.1887  0.2640
  172SOPE  H16X19532   2.043   4.996   8.643 -0.5874 -0.1910  0.1926
  172SOPE  H16Y19533   2.182   4.907   8.564  0.6189  0.3447 -0.8302
  172SOPE  C31719534   2.012   4.790   8.615  0.4823 -0.2996  0.8360
  172SOPE  H17X19535   2.029   4.701   8.550  0.8546  0.7448 -0.5452
  172SOPE  H17Y19536   1.904   4.805   8.636 -0.2864 -1.8898 -1.5191
  172SOPE  C31819537   2.062   4.730   8.751 -0.2938  0.6452  0.2687
  172SOPE  H18X19538   2.162   4.688   8.729 -1.7589 -1.7255 -2.3969
  172SOPE  H18Y19539   2.003   4.641   8.781 -0.2973  0.7184  0.4820
  172SOPE  H18Z19540   2.068   4.804   8.834  1.9922  0.4440  0.3354
  173SAPI   C1219541   3.125   4.437  10.598 -0.5730 -0.1531 -0.0104
  173SAPI    H219542   3.155   4.463  10.495 -1.1420 -0.0228 -0.1482
  173SAPI    O219543   3.034   4.538  10.643  0.1378 -0.2632  0.5472
  173SAPI   HO219544   3.026   4.609  10.579 -2.1722  0.2452  1.3142
  173SAPI   C1319545   3.054   4.305  10.601  0.3798  0.1151  0.1041
  173SAPI    H319546   3.131   4.226  10.592 -0.3696 -0.5333 -0.8482
  173SAPI    O319547   2.959   4.288  10.487  0.2886  0.1747 -0.4782
  173SAPI   HO319548   2.946   4.193  10.484  0.2335 -0.0150  2.7401
  173SAPI   C1419549   3.003   4.276  10.739 -0.4255  0.0922 -0.0364
  173SAPI    H419550   2.933   4.352  10.779 -1.0893 -0.7073  0.3702
  173SAPI    O419551   2.926   4.152  10.738  0.3914  0.1046 -0.0781
  173SAPI   HO419552   2.957   4.087  10.674  1.0774 -1.2247  1.5454
  173SAPI   C1519553   3.125   4.272  10.836 -0.0275  0.4704 -0.4241
  173SAPI    H519554   3.182   4.180  10.811  1.2218  1.4715 -1.3589
  173SAPI    O519555   3.082   4.251  10.966 -0.0736 -0.1716 -0.2574
  173SAPI   HO519556   3.165   4.260  11.013  0.7290 -1.0882 -1.4146
  173SAPI   C1619557   3.210   4.394  10.829  0.1955 -0.6576  0.0565
  173SAPI    H619558   3.156   4.478  10.876  0.2937 -0.9153  0.6353
  173SAPI    O619559   3.326   4.373  10.911  0.3024 -0.6975 -0.1340
  173SAPI   HO619560   3.385   4.448  10.900  1.4227 -1.4991  0.2730
  173SAPI   C1119561   3.244   4.434  10.686  0.4659  0.8786  0.0287
  173SAPI    H119562   3.308   4.351  10.647 -3.0699 -1.1892 -1.8789
  173SAPI     P19563   3.477   4.577  10.677 -0.2068  0.3891  0.0965
  173SAPI   O1319564   3.528   4.498  10.791  0.5559  0.0218 -0.0543
  173SAPI   O1419565   3.510   4.724  10.681 -0.2078  0.2564 -0.3265
  173SAPI   O1219566   3.312   4.560  10.666  0.4160  0.3858 -0.7555
  173SAPI   O1119567   3.525   4.518  10.542  0.0909  0.2743 -0.0554
  173SAPI    C119568   3.458   4.560  10.422  0.1405  0.2846  0.2088
  173SAPI    HA19569   3.349   4.542  10.419  0.0735  0.7787 -0.7534
  173SAPI    HB19570   3.463   4.671  10.412  0.0425  0.3560  0.8628
  173SAPI    C219571   3.529   4.503  10.297 -0.6862  0.2822  0.5810
  173SAPI    HS19572   3.636   4.528  10.311 -0.6511  1.7558 -1.6919
  173SAPI   O2119573   3.497   4.579  10.182 -0.4358 -0.5504 -0.3612
  173SAPI   C2119574   3.575   4.546  10.074  0.3431 -0.4317  0.4258
  173SAPI   O2219575   3.683   4.488  10.087 -0.2641 -0.1394  0.9614
  173SAPI   C2219576   3.516   4.613   9.947 -0.5383  0.0598  0.2567
  173SAPI   H2R19577   3.420   4.565   9.920 -1.2442  1.2302  0.6141
  173SAPI   H2S19578   3.502   4.719   9.980 -2.2453 -0.7704  2.4230
  173SAPI    C319579   3.496   4.359  10.289 -0.0979 -0.7519 -0.0531
  173SAPI    HX19580   3.505   4.325  10.395  1.1340  0.3768  0.2319
  173SAPI    HY19581   3.563   4.290  10.234 -0.2266 -1.3467  0.5184
  173SAPI   O3119582   3.358   4.347  10.248  0.6540 -0.6686  0.0688
  173SAPI   C3119583   3.325   4.256  10.150  1.2570 -0.4525 -0.0997
  173SAPI   O3219584   3.402   4.214  10.067 -0.6355  0.5983 -0.5358
  173SAPI   C3219585   3.174   4.236  10.152 -0.8956 -0.2905 -0.2219
  173SAPI   H2X19586   3.123   4.308  10.219  0.5005 -0.7103  1.3502
  173SAPI   H2Y19587   3.146   4.141  10.201 -2.7850  0.5918  0.5307
  173SAPI   C2319588   3.610   4.593   9.825  0.3114 -0.4688  0.4216
  173SAPI   H3R19589   3.641   4.487   9.818 -0.8562 -0.9255  1.7824
  173SAPI   H3S19590   3.694   4.661   9.850 -1.6921  1.9654  0.9776
  173SAPI   C2419591   3.538   4.651   9.700  0.4688 -0.4373  0.5337
  173SAPI   H4R19592   3.487   4.747   9.721  1.2389 -0.0553  0.6665
  173SAPI   H4S19593   3.454   4.585   9.670 -0.8294  1.2672  0.2688
  173SAPI   C2519594   3.631   4.667   9.583 -0.3583 -0.4902 -0.0865
  173SAPI   H5R19595   3.731   4.705   9.608 -0.4346 -0.0840 -0.3951
  173SAPI   C2619596   3.616   4.640   9.448 -0.2074  0.2004 -0.3485
  173SAPI   H6R19597   3.704   4.666   9.387  1.2141  2.7113  2.4872
  173SAPI   C2719598   3.493   4.592   9.369 -0.3837  0.2272 -0.2600
  173SAPI   H7R19599   3.459   4.494   9.409  1.0811 -0.5495 -0.8105
  173SAPI   H7S19600   3.510   4.545   9.269 -0.2876 -0.4525  0.0709
  173SAPI   C2819601   3.387   4.696   9.352  0.3581 -1.3031 -0.1219
  173SAPI   H8R19602   3.336   4.707   9.449  1.5874 -0.5760  0.4802
  173SAPI   C2919603   3.370   4.780   9.247  0.0685  0.6351  0.4595
  173SAPI   H9R19604   3.285   4.849   9.253 -1.1047 -0.7903  0.6603
  173SAPI  C21019605   3.447   4.783   9.114  0.1665 -0.5410  0.1156
  173SAPI  H10R19606   3.524   4.702   9.117  3.0443  1.9054 -1.5970
  173SAPI  H10S19607   3.503   4.879   9.114  3.0714 -2.1065  0.3987
  173SAPI  C21119608   3.353   4.769   8.996  0.6111  0.1562 -0.2056
  173SAPI  H11R19609   3.302   4.858   8.955  0.2215  0.8210  1.5999
  173SAPI  C21219610   3.331   4.655   8.917  0.4080 -1.2800 -0.0429
  173SAPI  H12R19611   3.262   4.665   8.832  0.3365  1.5968  0.2538
  173SAPI  C21319612   3.399   4.519   8.932  0.4015  0.0094 -0.1417
  173SAPI  H13R19613   3.311   4.454   8.951  1.2215 -1.1984 -0.3582
  173SAPI  H13S19614   3.451   4.506   9.029 -0.6854 -2.4020  0.1842
  173SAPI  C21419615   3.471   4.481   8.806  0.2404 -0.6973 -0.3553
  173SAPI  H14R19616   3.406   4.468   8.718 -0.3164  2.4499 -0.5219
  173SAPI  C21519617   3.607   4.491   8.788  1.1646 -0.1195  0.1949
  173SAPI  H15R19618   3.651   4.459   8.692 -2.5118  1.2321 -2.1773
  173SAPI  C21619619   3.700   4.537   8.892 -0.5603  0.5594  0.0534
  173SAPI  H16R19620   3.752   4.456   8.947  0.9904  1.4864 -0.0012
  173SAPI  H16S19621   3.657   4.597   8.975 -1.1462 -1.7141  1.5019
  173SAPI  C21719622   3.825   4.622   8.854  0.5840  0.5885 -0.8810
  173SAPI  H17R19623   3.800   4.721   8.810  0.1480  0.6651 -0.4618
  173SAPI  H17S19624   3.875   4.553   8.782 -0.0764  0.1351 -0.9162
  173SAPI  C21819625   3.917   4.644   8.971 -0.0957 -0.7611 -0.7424
  173SAPI  H18R19626   3.927   4.548   9.027 -0.8438  0.1430  1.0204
  173SAPI  H18S19627   3.861   4.715   9.036 -0.4763 -0.8563 -0.9652
  173SAPI  C21919628   4.055   4.698   8.940  0.3690 -0.1108 -0.7589
  173SAPI  H19R19629   4.034   4.755   8.847 -1.0901  2.0972  0.8246
  173SAPI  H19S19630   4.125   4.618   8.906 -0.8820 -1.4502 -0.2683
  173SAPI  C22019631   4.125   4.781   9.042 -0.0668  0.8127 -0.0619
  173SAPI  H20R19632   4.061   4.859   9.089 -1.4449 -0.2419 -0.1156
  173SAPI  H20S19633   4.213   4.834   9.001  0.7082  0.4037  1.0430
  173SAPI  H20T19634   4.160   4.728   9.133  1.6676  1.4153 -0.3461
  173SAPI   C3319635   3.118   4.239  10.014  0.0214  0.2277  0.4620
  173SAPI   H3X19636   3.012   4.206  10.015 -0.2013  0.6944 -2.1788
  173SAPI   H3Y19637   3.170   4.170   9.944 -0.8750  0.7907 -0.7945
  173SAPI   C3419638   3.116   4.379   9.954  0.6249 -0.3812 -0.7502
  173SAPI   H4X19639   3.218   4.422   9.949 -0.0098  1.2673 -0.2536
  173SAPI   H4Y19640   3.064   4.447  10.025  2.8205 -0.2376  0.7943
  173SAPI   C3519641   3.070   4.405   9.811 -0.5498 -0.1249 -0.1318
  173SAPI   H5X19642   3.077   4.514   9.792  0.4970  0.3950  2.7301
  173SAPI   H5Y19643   2.969   4.360   9.798  0.6392 -2.4247 -2.0766
  173SAPI   C3619644   3.162   4.319   9.722 -0.2566 -0.8482  0.8805
  173SAPI   H6X19645   3.141   4.210   9.730 -2.0669 -0.4999  1.5852
  173SAPI   H6Y19646   3.271   4.331   9.740 -0.4291  0.2468  1.2672
  173SAPI   C3719647   3.144   4.351   9.567  0.3719 -0.1042 -0.0928
  173SAPI   H7X19648   3.181   4.455   9.554 -0.4618  0.6578  2.8493
  173SAPI   H7Y19649   3.035   4.354   9.550  0.0829  0.0143  1.6146
  173SAPI   C3819650   3.216   4.254   9.479 -0.2961 -0.0390  0.5026
  173SAPI   H8X19651   3.188   4.152   9.512 -0.4104 -0.9122 -2.0229
  173SAPI   H8Y19652   3.325   4.273   9.489 -0.4993  0.4374  1.9814
  173SAPI   C3919653   3.162   4.266   9.332 -0.3218 -0.2850  0.4386
  173SAPI   H9X19654   3.173   4.370   9.294  0.2672 -1.3426 -2.5697
  173SAPI   H9Y19655   3.053   4.245   9.345 -0.3379  1.0203  2.9798
  173SAPI  C31019656   3.250   4.183   9.238  0.2179 -0.2828  0.5926
  173SAPI  H10X19657   3.218   4.077   9.248 -4.9045  0.8330 -0.8107
  173SAPI  H10Y19658   3.357   4.205   9.258  1.0759 -2.2876 -1.3728
  173SAPI  C31119659   3.222   4.221   9.089 -0.1402 -0.0035  0.9403
  173SAPI  H11X19660   3.244   4.327   9.064 -1.4730  0.4366  1.5188
  173SAPI  H11Y19661   3.115   4.204   9.064  0.1024 -1.3444  0.7585
  173SAPI  C31219662   3.304   4.148   8.975 -0.8245  0.1166  0.1781
  173SAPI  H12X19663   3.298   4.040   9.000 -1.3187  0.3938  1.3648
  173SAPI  H12Y19664   3.412   4.173   8.978 -0.8559  0.6090 -1.7764
  173SAPI  C31319665   3.243   4.173   8.839 -0.3532  0.1490  0.0962
  173SAPI  H13X19666   3.274   4.274   8.804 -1.5984  1.0079  1.3309
  173SAPI  H13Y19667   3.132   4.165   8.850 -0.5172 -1.3872 -2.0413
  173SAPI  C31419668   3.292   4.071   8.737  0.4016 -0.0445 -0.0025
  173SAPI  H14X19669   3.234   4.092   8.644  1.1714  0.1054 -0.4628
  173SAPI  H14Y19670   3.271   3.970   8.776  1.5491  0.1833  1.2823
  173SAPI  C31519671   3.445   4.076   8.706  0.3548 -0.5941 -0.5327
  173SAPI  H15X19672   3.500   4.099   8.800  1.0472  1.3563 -1.3605
  173SAPI  H15Y19673   3.456   4.161   8.636 -1.1955  0.9096  0.9351
  173SAPI  C31619674   3.499   3.953   8.628  0.1016 -0.6732  0.3515
  173SAPI  H16X19675   3.453   3.954   8.527  0.6243  1.1970  0.1014
  173SAPI  H16Y19676   3.478   3.858   8.681  0.4775 -1.0238 -0.1265
  173SAPI  C31719677   3.653   3.951   8.630 -0.6925 -0.0781  0.4647
  173SAPI  H17X19678   3.683   3.857   8.580 -0.7268 -0.6896  1.5602
  173SAPI  H17Y19679   3.687   3.929   8.733  0.0122  2.3938  0.8344
  173SAPI  C31819680   3.722   4.078   8.569 -0.2360  0.1044  0.7239
  173SAPI  H18X19681   3.751   4.157   8.642 -1.0337 -0.7411  1.9941
  173SAPI  H18Y19682   3.670   4.123   8.481  1.1676 -0.4895 -0.4606
  173SAPI  H18Z19683   3.819   4.045   8.525  0.0882 -1.2636  2.3672
  174SAPI   C1219684   0.689   5.563  10.505  0.1569 -0.3231  0.2736
  174SAPI    H219685   0.666   5.486  10.428 -2.9685 -0.9312  1.6590
  174SAPI    O219686   0.786   5.514  10.598  0.0869  0.2295 -0.4454
  174SAPI   HO219687   0.857   5.476  10.546 -1.7060 -1.6960 -1.6895
  174SAPI   C1319688   0.726   5.692  10.441 -0.3770 -0.0925 -0.3452
  174SAPI    H319689   0.636   5.727  10.386  0.0265  2.5362  0.5012
  174SAPI    O319690   0.833   5.673  10.355 -0.3796  0.0311  0.3048
  174SAPI   HO319691   0.860   5.760  10.325  2.0731 -1.3455 -1.8549
  174SAPI   C1419692   0.757   5.792  10.541  0.0356 -0.6931  0.5198
  174SAPI    H419693   0.839   5.764  10.609  2.3016 -0.8151 -2.0991
  174SAPI    O419694   0.790   5.919  10.474  0.1026  0.2116  0.6807
  174SAPI   HO419695   0.861   5.953  10.529 -0.6384 -0.2418  1.9693
  174SAPI   C1519696   0.627   5.821  10.622 -0.2683  0.2766  0.1172
  174SAPI    H519697   0.546   5.865  10.560 -1.7182  1.7731  2.8740
  174SAPI    O519698   0.651   5.927  10.719  0.0609  0.0306 -0.4107
  174SAPI   HO519699   0.691   5.998  10.668  1.2915 -0.7895 -0.6524
  174SAPI   C1619700   0.568   5.697  10.689 -0.8238  0.7326  0.1578
  174SAPI    H619701   0.638   5.670  10.770  1.5512  3.4695 -0.7803
  174SAPI    O619702   0.444   5.732  10.749 -0.2062  0.4144  0.6493
  174SAPI   HO619703   0.404   5.645  10.753  0.5746  0.0916  3.0638
  174SAPI   C1119704   0.557   5.588  10.579  0.4754 -0.3662 -0.2383
  174SAPI    H119705   0.492   5.624  10.497  0.1469 -0.2998  0.0500
  174SAPI     P19706   0.368   5.414  10.623 -0.2155 -0.2671  0.4370
  174SAPI   O1319707   0.292   5.520  10.684 -0.0096 -0.2674 -0.2172
  174SAPI   O1419708   0.354   5.283  10.683  0.0878 -0.0236 -0.5239
  174SAPI   O1219709   0.524   5.466  10.639 -0.1281  0.1630 -0.4732
  174SAPI   O1119710   0.344   5.404  10.464  0.4124 -0.0547 -0.3454
  174SAPI    C119711   0.320   5.291  10.391  0.0852  0.9480 -0.1249
  174SAPI    HA19712   0.279   5.205  10.447 -0.1228  1.0317 -0.1458
  174SAPI    HB19713   0.247   5.320  10.311 -0.8248 -1.1119 -0.1013
  174SAPI    C219714   0.455   5.226  10.344  0.7348 -0.0383 -0.2735
  174SAPI    HS19715   0.519   5.203  10.432  0.7349  3.2535  0.7021
  174SAPI   O2119716   0.520   5.307  10.243  0.2646  0.5476  0.2049
  174SAPI   C2119717   0.657   5.292  10.242  1.0807 -0.1064 -0.1569
  174SAPI   O2219718   0.720   5.220  10.313  0.3110  0.2619  0.0875
  174SAPI   C2219719   0.712   5.372  10.132  0.3371  0.1422  0.3859
  174SAPI   H2R19720   0.679   5.334  10.033  2.5313 -1.4018  0.1678
  174SAPI   H2S19721   0.693   5.480  10.151  3.1863  0.9589 -0.8104
  174SAPI    C319722   0.432   5.088  10.278 -0.5883 -0.3526 -0.7919
  174SAPI    HX19723   0.344   5.094  10.211 -1.0549 -0.8060 -0.2387
  174SAPI    HY19724   0.401   5.021  10.361  0.1000  0.6368  0.2962
  174SAPI   O3119725   0.550   5.042  10.208  0.0709  0.3065  0.5563
  174SAPI   C3119726   0.540   4.922  10.146  0.2926 -0.2292  0.3348
  174SAPI   O3219727   0.437   4.858  10.140 -0.1041 -0.1484  0.0341
  174SAPI   C3219728   0.673   4.877  10.078 -0.2745 -0.0375  0.8795
  174SAPI   H2X19729   0.742   4.822  10.145 -0.5057  0.1884  1.3036
  174SAPI   H2Y19730   0.722   4.972  10.050  1.3525 -1.1854 -0.3704
  174SAPI   C2319731   0.867   5.353  10.132 -0.2338 -0.4123  0.3265
  174SAPI   H3R19732   0.911   5.253  10.151  0.3371  0.1796  2.3157
  174SAPI   H3S19733   0.900   5.417  10.217  0.3818 -0.6008  0.2387
  174SAPI   C2419734   0.946   5.404  10.009 -0.7766 -0.2702 -0.8406
  174SAPI   H4R19735   0.921   5.331   9.929 -1.4550 -1.2848  0.2664
  174SAPI   H4S19736   1.055   5.393  10.029 -0.3108  1.2274 -2.3198
  174SAPI   C2519737   0.922   5.545   9.956  0.0611 -0.1390  0.0877
  174SAPI   H5R19738   0.930   5.627  10.029  2.2282 -0.4592  0.2792
  174SAPI   C2619739   0.899   5.581   9.826  0.8097 -0.0728 -0.2914
  174SAPI   H6R19740   0.905   5.684   9.786  0.8916 -0.4639 -1.3069
  174SAPI   C2719741   0.891   5.485   9.707  0.3131  0.5639  0.1788
  174SAPI   H7R19742   0.952   5.393   9.720  1.4413  1.4982  1.7182
  174SAPI   H7S19743   0.941   5.539   9.624 -0.8264  2.0669  0.4248
  174SAPI   C2819744   0.747   5.449   9.675  0.1842 -0.9159 -0.1154
  174SAPI   H8R19745   0.687   5.417   9.763 -0.7117 -1.3311 -0.8559
  174SAPI   C2919746   0.679   5.456   9.562  0.2164 -0.3689  0.6955
  174SAPI   H9R19747   0.578   5.413   9.551  0.0931  0.0429  0.1574
  174SAPI  C21019748   0.737   5.502   9.431 -0.6297 -1.1227  0.4904
  174SAPI  H10R19749   0.794   5.596   9.443  0.7813 -1.7444 -0.8245
  174SAPI  H10S19750   0.663   5.529   9.353  0.2031  0.1531  0.1069
  174SAPI  C21119751   0.847   5.419   9.364 -0.2733 -0.5602 -0.3460
  174SAPI  H11R19752   0.897   5.344   9.426 -2.2720 -0.5173  1.4390
  174SAPI  C21219753   0.895   5.443   9.239 -0.2118 -0.4144 -0.3654
  174SAPI  H12R19754   0.971   5.375   9.198  0.4213  1.0655 -1.7624
  174SAPI  C21319755   0.845   5.548   9.142  0.4381  0.0693  0.4418
  174SAPI  H13R19756   0.930   5.602   9.096  1.5924 -1.0021  1.2422
  174SAPI  H13S19757   0.785   5.626   9.194 -0.2681 -0.3736  0.2901
  174SAPI  C21419758   0.756   5.478   9.048  0.2941 -0.2072  0.1912
  174SAPI  H14R19759   0.652   5.482   9.084  1.1770  0.1247  3.0027
  174SAPI  C21519760   0.777   5.416   8.928 -0.8141  0.2000 -0.0218
  174SAPI  H15R19761   0.693   5.372   8.873 -0.1226 -0.4409 -0.5944
  174SAPI  C21619762   0.917   5.402   8.854  0.0651 -0.0303 -0.6930
  174SAPI  H16R19763   0.939   5.295   8.830 -2.0942 -0.3953 -1.2832
  174SAPI  H16S19764   1.004   5.429   8.917 -0.2779 -2.6263  1.0653
  174SAPI  C21719765   0.929   5.472   8.712  0.0859 -0.5374  0.1994
  174SAPI  H17R19766   0.826   5.476   8.671  1.1284  0.3126 -2.5771
  174SAPI  H17S19767   1.003   5.420   8.647 -0.6252 -1.3501  0.0166
  174SAPI  C21819768   0.966   5.612   8.734  0.0262  0.0115 -0.0042
  174SAPI  H18R19769   1.058   5.627   8.795 -0.0433  2.5352 -0.4290
  174SAPI  H18S19770   0.876   5.642   8.791 -0.3693 -2.2018  0.6608
  174SAPI  C21919771   0.977   5.700   8.619  0.1308 -0.7587 -0.3776
  174SAPI  H19R19772   0.875   5.714   8.577  0.9960 -0.2649 -2.4881
  174SAPI  H19S19773   1.057   5.655   8.557 -0.0125  0.0430 -1.1776
  174SAPI  C22019774   1.030   5.840   8.652 -0.1663  0.7433  0.6046
  174SAPI  H20R19775   1.137   5.842   8.682 -0.2095  0.7087  0.7639
  174SAPI  H20S19776   0.971   5.888   8.733  0.3416  1.9688  0.2774
  174SAPI  H20T19777   1.018   5.908   8.565 -0.7720 -0.4798 -0.2927
  174SAPI   C3319778   0.643   4.775   9.966 -0.5000  0.5941 -0.1971
  174SAPI   H3X19779   0.586   4.686  10.000  1.2883 -0.2535  0.6747
  174SAPI   H3Y19780   0.735   4.729   9.924 -0.0400  1.0272  0.3197
  174SAPI   C3419781   0.554   4.835   9.853 -0.4837  0.0854 -0.2451
  174SAPI   H4X19782   0.616   4.901   9.789 -0.8514  0.1728 -0.5108
  174SAPI   H4Y19783   0.470   4.893   9.895 -0.3949  0.7783 -1.0092
  174SAPI   C3519784   0.485   4.721   9.767 -0.2525  0.3841  0.1260
  174SAPI   H5X19785   0.377   4.720   9.792 -0.6930  3.4172 -1.2013
  174SAPI   H5Y19786   0.525   4.620   9.789  1.7470  1.2893  0.8341
  174SAPI   C3619787   0.499   4.752   9.618 -0.2130  1.6186 -0.5201
  174SAPI   H6X19788   0.602   4.787   9.596  0.4238 -0.4553 -1.0852
  174SAPI   H6Y19789   0.437   4.841   9.592  0.2412  1.7486 -1.1922
  174SAPI   C3719790   0.463   4.631   9.529  0.4241 -0.5426 -0.0619
  174SAPI   H7X19791   0.362   4.592   9.556  0.7245 -0.9079  0.5613
  174SAPI   H7Y19792   0.539   4.551   9.543  2.3717  1.3464  0.7645
  174SAPI   C3819793   0.448   4.665   9.380  0.0673 -0.5890 -0.1991
  174SAPI   H8X19794   0.407   4.767   9.363  0.1240 -0.5341 -0.0044
  174SAPI   H8Y19795   0.372   4.594   9.340 -0.4218 -0.1111 -0.1312
  174SAPI   C3919796   0.574   4.630   9.298 -0.3313 -0.3787  0.7257
  174SAPI   H9X19797   0.610   4.538   9.349 -1.4838 -0.4769  1.4054
  174SAPI   H9Y19798   0.651   4.710   9.303 -0.6317 -0.0578  0.2157
  174SAPI  C31019799   0.536   4.613   9.145  0.8796  0.3352 -0.2180
  174SAPI  H10X19800   0.453   4.681   9.116  0.3947  0.6094  1.6560
  174SAPI  H10Y19801   0.486   4.514   9.149  0.7853  0.4043  0.3261
  174SAPI  C31119802   0.647   4.641   9.049  0.0393  0.3238 -0.1094
  174SAPI  H11X19803   0.730   4.567   9.048 -0.5219 -0.4055 -3.4260
  174SAPI  H11Y19804   0.688   4.744   9.056 -0.1728  0.5431 -1.8032
  174SAPI  C31219805   0.590   4.619   8.913  0.2019 -0.5581 -0.2538
  174SAPI  H12X19806   0.660   4.651   8.833  0.0501 -2.1966 -1.0886
  174SAPI  H12Y19807   0.501   4.684   8.892 -0.1439 -0.8340  0.3488
  174SAPI  C31319808   0.558   4.480   8.877 -0.0694 -0.1119  0.5517
  174SAPI  H13X19809   0.498   4.422   8.951  0.2768 -0.3100  0.6820
  174SAPI  H13Y19810   0.651   4.421   8.895 -0.1964 -0.3073  0.5730
  174SAPI  C31419811   0.496   4.459   8.731  0.4147  0.7767 -0.1877
  174SAPI  H14X19812   0.582   4.492   8.668 -0.2428  1.2955 -0.8175
  174SAPI  H14Y19813   0.411   4.530   8.728  0.8192  1.3591  1.1908
  174SAPI  C31519814   0.469   4.312   8.697 -0.1358 -0.5004 -0.4606
  174SAPI  H15X19815   0.405   4.282   8.783 -2.9006  2.2940 -1.3176
  174SAPI  H15Y19816   0.563   4.254   8.704  0.4395  0.4030 -0.4947
  174SAPI  C31619817   0.406   4.292   8.564  0.1910  0.4504  0.3025
  174SAPI  H16X19818   0.325   4.364   8.540  0.7533  1.1041  0.3184
  174SAPI  H16Y19819   0.364   4.190   8.572  0.0262  0.3695 -1.2156
  174SAPI  C31719820   0.516   4.284   8.460 -0.2409  0.2847  0.3084
  174SAPI  H17X19821   0.597   4.211   8.481  1.5561  1.2973 -2.4848
  174SAPI  H17Y19822   0.563   4.384   8.466 -0.7167  0.4572  1.3843
  174SAPI  C31819823   0.463   4.237   8.327  0.0570 -0.3319  0.0483
  174SAPI  H18X19824   0.540   4.220   8.248  0.8758 -1.1507  0.9918
  174SAPI  H18Y19825   0.384   4.304   8.287  1.2748  1.7951  1.0523
  174SAPI  H18Z19826   0.416   4.137   8.337 -0.3177 -0.2994 -1.1639
  175SAPI   C1219827   1.875   1.522   6.164  0.7798  0.3035 -0.5638
  175SAPI    H219828   1.903   1.586   6.250 -0.0447 -1.1861  0.8808
  175SAPI    O219829   1.915   1.589   6.045  0.2620 -0.1051 -0.2606
  175SAPI   HO219830   1.973   1.664   6.065  0.4064 -0.0525 -0.8679
  175SAPI   C1319831   1.946   1.387   6.185 -0.2538 -0.2661  0.3970
  175SAPI    H319832   1.908   1.342   6.279 -2.9175  0.8642 -0.0285
  175SAPI    O319833   2.086   1.411   6.202  0.6178  0.0568  0.1633
  175SAPI   HO319834   2.117   1.339   6.257 -1.5565 -1.1944 -0.1284
  175SAPI   C1419835   1.909   1.280   6.077  0.0165 -0.4097  0.2647
  175SAPI    H419836   1.953   1.317   5.982 -0.7448 -0.7676 -0.2371
  175SAPI    O419837   1.970   1.156   6.108 -0.4092 -0.3139  0.7952
  175SAPI   HO419838   1.940   1.089   6.047 -1.1131  1.3902 -0.8137
  175SAPI   C1519839   1.758   1.276   6.071  0.2287 -0.1439 -0.6736
  175SAPI    H519840   1.729   1.231   6.169 -2.1343 -0.4437 -1.4546
  175SAPI    O519841   1.712   1.182   5.975 -0.2098 -0.5403  0.3950
  175SAPI   HO519842   1.654   1.120   6.021 -1.0175 -0.4830 -0.5010
  175SAPI   C1619843   1.689   1.411   6.064  0.3399  0.6408  0.1746
  175SAPI    H619844   1.716   1.457   5.966  2.3068 -1.6715 -0.4634
  175SAPI    O619845   1.544   1.390   6.058  0.0509  0.1027 -0.4990
  175SAPI   HO619846   1.496   1.455   6.109 -0.8884 -0.5222 -0.5505
  175SAPI   C1119847   1.719   1.504   6.178  0.3316  0.6065 -0.5586
  175SAPI    H119848   1.690   1.448   6.270 -0.6473  2.1094  0.0748
  175SAPI     P19849   1.510   1.666   6.237 -0.2979 -0.3758  0.0134
  175SAPI   O1319850   1.413   1.578   6.168  0.1335 -0.2740 -0.2122
  175SAPI   O1419851   1.481   1.817   6.237 -0.1951 -0.3611 -0.1012
  175SAPI   O1219852   1.662   1.637   6.173 -0.0988  0.4718 -0.4385
  175SAPI   O1119853   1.515   1.618   6.389 -0.5645 -0.8723  0.5025
  175SAPI    C119854   1.384   1.595   6.446  0.0245 -0.1441 -0.3657
  175SAPI    HA19855   1.309   1.671   6.416 -0.7864 -1.2376 -1.1928
  175SAPI    HB19856   1.359   1.489   6.423  1.8642 -1.6190  3.5041
  175SAPI    C219857   1.385   1.610   6.598 -0.2987  0.1106  0.1527
  175SAPI    HS19858   1.427   1.711   6.615  0.6004 -0.3838  1.0728
  175SAPI   O2119859   1.475   1.512   6.652 -1.3158 -0.7704 -0.2457
  175SAPI   C2119860   1.535   1.548   6.767  0.6507 -0.0086 -0.7615
  175SAPI   O2219861   1.535   1.662   6.814  0.3131 -0.6133  0.5664
  175SAPI   C2219862   1.588   1.428   6.841 -0.8712 -0.2005 -0.5183
  175SAPI   H2R19863   1.511   1.349   6.847 -0.1858 -0.9361 -1.1777
  175SAPI   H2S19864   1.668   1.384   6.778 -0.6405 -2.1000  1.0003
  175SAPI    C319865   1.238   1.598   6.656 -0.0889  0.0137  0.3820
  175SAPI    HX19866   1.207   1.501   6.611  0.7000  0.1644 -0.5073
  175SAPI    HY19867   1.170   1.675   6.615 -1.3482 -1.5319 -0.5670
  175SAPI   O3119868   1.244   1.587   6.802 -0.2876 -0.0872 -0.5093
  175SAPI   C3119869   1.238   1.709   6.862  0.3410  0.5803 -0.2527
  175SAPI   O3219870   1.225   1.813   6.805 -0.8102 -0.5440  0.0767
  175SAPI   C3219871   1.263   1.696   7.018 -0.4546  0.0573 -0.3499
  175SAPI   H2X19872   1.370   1.684   7.045 -1.2412  0.4115  3.4180
  175SAPI   H2Y19873   1.210   1.602   7.046 -0.6644  0.5990  1.1329
  175SAPI   C2319874   1.647   1.458   6.981  0.6650 -0.3042  0.8850
  175SAPI   H3R19875   1.566   1.504   7.041 -1.2917 -0.9973 -1.1005
  175SAPI   H3S19876   1.741   1.517   6.972  0.0823  0.7823  1.6852
  175SAPI   C2419877   1.696   1.327   7.047 -0.5495  0.1209  0.5990
  175SAPI   H4R19878   1.779   1.280   6.990 -1.4616 -0.4454 -0.2937
  175SAPI   H4S19879   1.615   1.253   7.034  2.3727 -3.3432  0.6944
  175SAPI   C2519880   1.740   1.339   7.189 -0.5441 -0.2630  0.3967
  175SAPI   H5R19881   1.763   1.441   7.224  2.2659 -0.0976 -1.5673
  175SAPI   C2619882   1.741   1.238   7.275 -0.4988  0.0657  0.1952
  175SAPI   H6R19883   1.777   1.263   7.375  0.8837 -0.7244 -0.0705
  175SAPI   C2719884   1.704   1.093   7.252 -0.6943 -0.3734  0.4756
  175SAPI   H7R19885   1.671   1.081   7.146 -2.3244  0.3788  0.8582
  175SAPI   H7S19886   1.614   1.079   7.315 -0.0039 -1.3078  1.2794
  175SAPI   C2819887   1.823   1.003   7.290  0.7947  0.0349 -0.2003
  175SAPI   H8R19888   1.910   1.013   7.223  0.6360 -1.7923 -0.7305
  175SAPI   C2919889   1.828   0.919   7.394 -0.4881  0.1245 -0.4589
  175SAPI   H9R19890   1.919   0.861   7.415 -1.0933 -0.9941 -0.8339
  175SAPI  C21019891   1.715   0.890   7.500 -0.0397 -0.6890  0.2079
  175SAPI  H10R19892   1.720   0.790   7.548  4.6036 -0.9298 -0.2662
  175SAPI  H10S19893   1.616   0.901   7.452 -0.0945 -0.4403  0.3776
  175SAPI  C21119894   1.714   1.004   7.605 -0.9212  0.6681  0.2827
  175SAPI  H11R19895   1.691   1.105   7.568 -0.6127  0.4844 -0.4302
  175SAPI  C21219896   1.748   0.996   7.736 -0.9024 -0.7466 -0.2618
  175SAPI  H12R19897   1.727   1.085   7.796  0.6536  2.0629 -3.5047
  175SAPI  C21319898   1.791   0.877   7.813  0.6160  0.3569 -0.4667
  175SAPI  H13R19899   1.782   0.778   7.764  2.3994 -1.4008  2.4562
  175SAPI  H13S19900   1.716   0.870   7.895  1.8484  1.0111  0.7698
  175SAPI  C21419901   1.922   0.896   7.869 -1.0332  0.3874 -0.0324
  175SAPI  H14R19902   2.004   0.909   7.797 -1.1668  1.8191  0.0553
  175SAPI  C21519903   1.956   0.896   8.004  0.5022 -0.4861  0.1642
  175SAPI  H15R19904   2.063   0.908   8.024  0.6086 -0.2557 -0.5234
  175SAPI  C21619905   1.867   0.877   8.129 -1.1158  0.0039  0.4285
  175SAPI  H16R19906   1.923   0.802   8.190  0.6487 -0.5903 -1.7926
  175SAPI  H16S19907   1.773   0.826   8.099  0.7688 -2.6386 -1.4633
  175SAPI  C21719908   1.858   1.011   8.211 -0.1150  0.0828 -0.6053
  175SAPI  H17R19909   1.790   1.009   8.299  2.8220 -0.5735  1.8032
  175SAPI  H17S19910   1.806   1.083   8.143  0.1992 -0.3320 -1.2962
  175SAPI  C21819911   1.987   1.068   8.281  0.2430  0.7319 -0.2508
  175SAPI  H18R19912   1.978   1.170   8.324 -0.7040  0.2638  0.7097
  175SAPI  H18S19913   2.059   1.084   8.198  0.8570 -1.5273 -0.2440
  175SAPI  C21919914   2.056   0.984   8.384  0.3090  0.1172 -0.2016
  175SAPI  H19R19915   2.097   0.892   8.336  2.5092  0.2121  1.3395
  175SAPI  H19S19916   1.991   0.934   8.459  2.0075 -1.6632  0.1797
  175SAPI  C22019917   2.179   1.056   8.454  0.3260  0.3404  0.2187
  175SAPI  H20R19918   2.209   1.001   8.545 -0.5757  2.1976  1.7130
  175SAPI  H20S19919   2.140   1.151   8.497 -0.7266 -0.1870  0.4581
  175SAPI  H20T19920   2.266   1.085   8.392 -0.9849  0.7502 -1.5225
  175SAPI   C3319921   1.198   1.803   7.111  0.3904  0.4493  0.1725
  175SAPI   H3X19922   1.090   1.785   7.088  0.3147  0.5021  0.4844
  175SAPI   H3Y19923   1.228   1.899   7.063  1.0535 -0.5354 -1.4782
  175SAPI   C3419924   1.221   1.776   7.257  0.2651  0.0702 -0.4324
  175SAPI   H4X19925   1.143   1.718   7.312  0.8168  0.9568  1.3842
  175SAPI   H4Y19926   1.220   1.875   7.308 -0.4666 -0.8519  1.4448
  175SAPI   C3519927   1.360   1.717   7.284  0.2416  0.2760  0.3128
  175SAPI   H5X19928   1.432   1.780   7.228 -3.2511  2.2883 -2.3087
  175SAPI   H5Y19929   1.353   1.615   7.241 -0.7166  0.2506  0.5193
  175SAPI   C3619930   1.393   1.715   7.431 -0.9499  0.2993  0.4340
  175SAPI   H6X19931   1.336   1.643   7.495 -2.7093  0.4867 -0.8519
  175SAPI   H6Y19932   1.384   1.814   7.481 -2.0986  0.6088 -0.3426
  175SAPI   C3719933   1.541   1.664   7.442 -0.3729  0.6849  0.4410
  175SAPI   H7X19934   1.603   1.737   7.386 -1.0610  0.0963 -1.1478
  175SAPI   H7Y19935   1.550   1.564   7.394  0.8742  0.2489  1.5246
  175SAPI   C3819936   1.584   1.667   7.588  0.0990  0.4478 -0.2251
  175SAPI   H8X19937   1.514   1.604   7.648  0.3995  0.0583 -0.2749
  175SAPI   H8Y19938   1.559   1.770   7.620 -1.4890 -0.1021  0.4658
  175SAPI   C3919939   1.724   1.631   7.605 -0.1169  0.2300 -0.1349
  175SAPI   H9X19940   1.791   1.699   7.548  0.6508 -1.3249 -1.1531
  175SAPI   H9Y19941   1.740   1.526   7.572  1.3316  0.2369  0.5105
  175SAPI  C31019942   1.781   1.645   7.747 -0.5669  0.2821  0.6350
  175SAPI  H10X19943   1.773   1.747   7.790  0.2359  0.4121  0.5009
  175SAPI  H10Y19944   1.892   1.641   7.741 -0.5776 -1.2608  0.9418
  175SAPI  C31119945   1.738   1.535   7.850 -0.2246  0.3430 -0.6691
  175SAPI  H11X19946   1.745   1.430   7.813  0.7101 -0.7183  2.1930
  175SAPI  H11Y19947   1.630   1.557   7.866 -0.8422 -2.5010 -0.1969
  175SAPI  C31219948   1.820   1.532   7.976  0.2327  0.4814 -0.0223
  175SAPI  H12X19949   1.825   1.639   8.008  0.6164  0.1207  1.1747
  175SAPI  H12Y19950   1.921   1.490   7.959 -0.6724 -1.1271 -1.7442
  175SAPI  C31319951   1.761   1.442   8.087  0.3930  0.3533 -0.5589
  175SAPI  H13X19952   1.765   1.334   8.062 -1.9927 -0.3545  1.6528
  175SAPI  H13Y19953   1.654   1.465   8.104  0.6045  0.9884 -0.0400
  175SAPI  C31419954   1.828   1.473   8.223  0.4884 -0.2449 -0.0042
  175SAPI  H14X19955   1.824   1.581   8.245  0.8217 -0.5437  1.7500
  175SAPI  H14Y19956   1.937   1.456   8.209  0.7641  1.4334 -0.1103
  175SAPI  C31519957   1.773   1.390   8.339  0.3907 -0.5136 -0.1230
  175SAPI  H15X19958   1.808   1.285   8.342 -3.0042 -1.7797  0.0407
  175SAPI  H15Y19959   1.665   1.366   8.326  0.4068 -0.2205 -0.8503
  175SAPI  C31619960   1.795   1.478   8.466 -0.1190  0.5595 -0.0108
  175SAPI  H16X19961   1.714   1.555   8.466  0.2575  0.9725 -1.0394
  175SAPI  H16Y19962   1.885   1.544   8.469  1.1073 -1.0738  0.7731
  175SAPI  C31719963   1.798   1.398   8.595  0.0543  0.0005  0.6046
  175SAPI  H17X19964   1.868   1.312   8.591 -0.9957 -0.8744  0.6280
  175SAPI  H17Y19965   1.700   1.349   8.613  0.0490  0.5252  2.1596
  175SAPI  C31819966   1.834   1.477   8.721  0.0166 -0.3941  0.1966
  175SAPI  H18X19967   1.768   1.566   8.730 -2.0104 -1.8342  0.4192
  175SAPI  H18Y19968   1.941   1.504   8.724 -0.0421  0.1518 -1.6086
  175SAPI  H18Z19969   1.805   1.416   8.809 -3.0909 -1.9647 -1.6997
  176SAPI   C1219970   0.875   0.106   6.315  0.4313  0.3088  0.2654
  176SAPI    H219971   0.901   0.141   6.417  0.9499 -0.7668  0.5201
  176SAPI    O219972   0.981   0.143   6.228  0.1981 -0.1164 -0.1479
  176SAPI   HO219973   0.965   0.222   6.178  0.2029 -0.3023 -0.4442
  176SAPI   C1319974   0.859  -0.040   6.328 -0.2584 -0.1225  0.1522
  176SAPI    H319975   0.781  -0.056   6.405 -0.7942  1.1901 -0.0962
  176SAPI    O319976   0.978  -0.107   6.377 -0.2162 -0.1620  0.4156
  176SAPI   HO319977   1.054  -0.061   6.341 -0.8899 -0.7231 -1.8728
  176SAPI   C1419978   0.813  -0.100   6.192  0.4732 -0.7090  0.2792
  176SAPI    H419979   0.894  -0.079   6.119 -0.3466  0.2143 -0.3856
  176SAPI    O419980   0.799  -0.243   6.209 -0.0732 -0.2985  0.2508
  176SAPI   HO419981   0.710  -0.251   6.243  1.0720  0.9548  3.9957
  176SAPI   C1519982   0.686  -0.037   6.140  0.4908 -0.0106 -0.0034
  176SAPI    H519983   0.594  -0.047   6.202  0.4071 -0.2560 -0.1665
  176SAPI    O519984   0.659  -0.091   6.016  0.5319  0.1780  0.3558
  176SAPI   HO519985   0.739  -0.096   5.962  0.8518 -1.9465  0.9062
  176SAPI   C1619986   0.709   0.120   6.136 -0.3225 -0.3303  0.2805
  176SAPI    H619987   0.787   0.142   6.060 -1.4332 -0.1009 -0.8353
  176SAPI    O619988   0.592   0.182   6.088  0.2615 -0.3411  0.5903
  176SAPI   HO619989   0.556   0.232   6.161  0.7635  1.9809 -0.6403
  176SAPI   C1119990   0.747   0.173   6.272  0.3875  0.3510  0.3561
  176SAPI    H119991   0.670   0.146   6.348  1.0862 -0.3293  0.8343
  176SAPI     P19992   0.763   0.396   6.421  0.1837  0.5129 -0.0788
  176SAPI   O1319993   0.672   0.318   6.511 -0.2919  0.2238  0.2174
  176SAPI   O1419994   0.729   0.535   6.379 -0.5493  0.3663 -0.2224
  176SAPI   O1219995   0.771   0.314   6.277 -0.2000 -0.7444 -0.3824
  176SAPI   O1119996   0.906   0.391   6.480  0.0213  0.2733 -0.4844
  176SAPI    C119997   0.972   0.494   6.554 -0.1901 -0.3578 -0.3145
  176SAPI    HA19998   1.071   0.503   6.505 -1.4604  0.5294 -2.8791
  176SAPI    HB19999   0.927   0.594   6.536 -2.0623 -1.3205 -1.2748
  176SAPI    C220000   0.988   0.468   6.707 -0.3863 -0.0856 -0.2463
  176SAPI    HS20001   1.063   0.386   6.709 -0.7864 -0.4700 -0.7650
  176SAPI   O2120002   0.867   0.435   6.774  0.7735  0.3587 -0.2074
  176SAPI   C2120003   0.871   0.342   6.860  0.2681  0.4560 -0.5230
  176SAPI   O2220004   0.975   0.287   6.890 -0.3800 -0.2934  0.2533
  176SAPI   C2220005   0.732   0.300   6.904  0.3266 -0.3440  1.1313
  176SAPI   H2R20006   0.681   0.390   6.944  1.3012  0.0728  1.4607
  176SAPI   H2S20007   0.666   0.258   6.825 -2.8267  2.4102  2.0352
  176SAPI    C320008   1.041   0.605   6.765  0.2731 -0.0561  0.0196
  176SAPI    HX20009   0.971   0.690   6.759  2.3485  1.7688  0.4878
  176SAPI    HY20010   1.129   0.633   6.703 -0.4981  0.0003 -1.0910
  176SAPI   O3120011   1.089   0.591   6.904 -0.2671  0.1573  0.1956
  176SAPI   C3120012   1.197   0.504   6.917 -1.1246 -0.3577  0.3654
  176SAPI   O3220013   1.276   0.486   6.824 -0.0639  0.5483  0.4654
  176SAPI   C3220014   1.196   0.455   7.065  0.1919 -0.0362 -0.2997
  176SAPI   H2X20015   1.091   0.434   7.096  0.2419 -1.0705 -0.7645
  176SAPI   H2Y20016   1.219   0.549   7.119  1.1190 -0.9965  1.0403
  176SAPI   C2320017   0.753   0.199   7.023 -0.3723  0.0422  0.3099
  176SAPI   H3R20018   0.827   0.244   7.094  0.1487  0.6408 -0.5968
  176SAPI   H3S20019   0.810   0.111   6.986  2.2122  2.0152 -0.7516
  176SAPI   C2420020   0.614   0.158   7.088  0.4851  0.2017  0.2412
  176SAPI   H4R20021   0.645   0.086   7.167 -1.3783  1.8582  2.6245
  176SAPI   H4S20022   0.550   0.098   7.019 -2.7384  1.8934  1.5468
  176SAPI   C2520023   0.540   0.276   7.146 -0.4562 -0.0037  0.0825
  176SAPI   H5R20024   0.504   0.352   7.075  0.0384  0.1358 -0.0215
  176SAPI   C2620025   0.501   0.287   7.277  0.1468  0.1214 -0.0327
  176SAPI   H6R20026   0.431   0.364   7.312 -1.3915 -0.6502 -1.2459
  176SAPI   C2720027   0.531   0.193   7.387  0.1887  1.0291  0.6092
  176SAPI   H7R20028   0.479   0.096   7.370  0.0354  1.2303 -0.0912
  176SAPI   H7S20029   0.480   0.226   7.479 -0.4814  0.0047  0.6287
  176SAPI   C2820030   0.675   0.168   7.442  0.3600 -0.4469 -0.2023
  176SAPI   H8R20031   0.706   0.065   7.466  0.0828 -0.4103  0.3119
  176SAPI   C2920032   0.770   0.262   7.456 -0.0414  0.5637 -0.1265
  176SAPI   H9R20033   0.868   0.239   7.500 -0.2219  0.1415  0.0587
  176SAPI  C21020034   0.748   0.404   7.433  0.5324 -0.5631  0.4282
  176SAPI  H10R20035   0.738   0.421   7.324 -1.1978 -1.6895  0.3737
  176SAPI  H10S20036   0.841   0.459   7.463 -0.1163  2.3872 -2.4392
  176SAPI  C21120037   0.634   0.472   7.500 -0.3412  0.3474 -0.1982
  176SAPI  H11R20038   0.545   0.485   7.438  0.3927  0.1995 -1.3084
  176SAPI  C21220039   0.628   0.530   7.623 -0.0403 -0.3512  0.8021
  176SAPI  H12R20040   0.537   0.584   7.652 -1.2829 -1.8036 -0.2436
  176SAPI  C21320041   0.739   0.528   7.726 -0.3772 -0.5355 -0.1865
  176SAPI  H13R20042   0.753   0.622   7.784 -1.4857 -0.8632  0.6469
  176SAPI  H13S20043   0.837   0.514   7.676  0.3729  0.0806  1.0582
  176SAPI  C21420044   0.726   0.404   7.813 -0.4016 -0.2899  0.1877
  176SAPI  H14R20045   0.741   0.314   7.752 -0.8151 -1.7445  2.1153
  176SAPI  C21520046   0.691   0.393   7.945 -0.5844  0.4415  0.4848
  176SAPI  H15R20047   0.681   0.290   7.983  0.1254 -0.3460 -1.3388
  176SAPI  C21620048   0.647   0.504   8.042  0.0441 -0.4742  0.3549
  176SAPI  H16R20049   0.619   0.589   7.977 -1.9743 -0.0691  1.6455
  176SAPI  H16S20050   0.714   0.536   8.125  0.4055 -0.4938  0.0733
  176SAPI  C21720051   0.508   0.467   8.103 -0.5603 -0.6578  0.7682
  176SAPI  H17R20052   0.434   0.423   8.033 -4.4050  3.6309  1.7383
  176SAPI  H17S20053   0.466   0.563   8.138 -1.2332 -1.3505  1.9079
  176SAPI  C21820054   0.511   0.374   8.222 -0.2589  0.3242 -0.9559
  176SAPI  H18R20055   0.602   0.392   8.283 -1.3853  0.4307  0.7724
  176SAPI  H18S20056   0.531   0.268   8.197 -0.7992  0.5651 -2.5650
  176SAPI  C21920057   0.389   0.395   8.310 -0.2922 -0.3741 -0.1013
  176SAPI  H19R20058   0.302   0.394   8.241  0.2674  2.6020 -0.9974
  176SAPI  H19S20059   0.393   0.495   8.359  0.8240 -1.2556  1.7361
  176SAPI  C22020060   0.366   0.295   8.420  0.4436  0.4012 -0.6575
  176SAPI  H20R20061   0.444   0.307   8.499 -0.3152 -2.5551  0.6796
  176SAPI  H20S20062   0.370   0.192   8.379  1.8574 -0.1497  0.7653
  176SAPI  H20T20063   0.266   0.307   8.465  0.7376 -3.5806  1.4555
  176SAPI   C3320064   1.310   0.348   7.087 -0.1861 -0.1249 -0.4682
  176SAPI   H3X20065   1.411   0.389   7.065 -0.6501  1.4125  0.0957
  176SAPI   H3Y20066   1.299   0.259   7.021 -1.3241  1.5880 -2.7430
  176SAPI   C3420067   1.314   0.314   7.239  0.0325 -0.0417  0.5992
  176SAPI   H4X20068   1.313   0.412   7.290  2.8534  1.4435 -1.8607
  176SAPI   H4Y20069   1.407   0.259   7.265 -2.1841 -3.7225  1.4051
  176SAPI   C3520070   1.194   0.232   7.298  0.0917  0.0122  0.1204
  176SAPI   H5X20071   1.206   0.132   7.250  1.8014 -0.1249  0.7536
  176SAPI   H5Y20072   1.096   0.283   7.284  0.4254  2.1402  4.1542
  176SAPI   C3620073   1.208   0.205   7.447 -0.3495  0.3731 -0.2993
  176SAPI   H6X20074   1.313   0.171   7.458 -0.0041  1.1415 -1.1396
  176SAPI   H6Y20075   1.156   0.115   7.487  0.1435  0.2866  0.1554
  176SAPI   C3720076   1.172   0.329   7.526  0.4803 -0.7038  0.2662
  176SAPI   H7X20077   1.071   0.368   7.504  1.6739  1.6131 -1.5087
  176SAPI   H7Y20078   1.241   0.411   7.496 -1.3773  1.2934  1.1949
  176SAPI   C3820079   1.195   0.308   7.676 -0.4956 -0.4023 -0.8984
  176SAPI   H8X20080   1.184   0.406   7.727 -0.4493 -0.9117  0.1030
  176SAPI   H8Y20081   1.296   0.267   7.691 -1.0659 -0.7227  2.9377
  176SAPI   C3920082   1.099   0.209   7.747  0.3275 -0.7088 -0.2000
  176SAPI   H9X20083   1.099   0.114   7.690 -2.2434  1.5324 -4.4072
  176SAPI   H9Y20084   0.994   0.241   7.730  0.4467  0.5162  1.1708
  176SAPI  C31020085   1.121   0.199   7.895  0.5971  0.6637 -0.4132
  176SAPI  H10X20086   1.109   0.299   7.943 -0.4289  0.3706 -0.0482
  176SAPI  H10Y20087   1.228   0.171   7.906  0.2780 -0.3332  0.2232
  176SAPI  C31120088   1.041   0.101   7.975 -0.0531  0.6973  0.5208
  176SAPI  H11X20089   1.057  -0.005   7.946  0.3158  1.0606 -0.6999
  176SAPI  H11Y20090   0.933   0.110   7.949 -0.5012 -0.4319  1.9078
  176SAPI  C31220091   1.069   0.114   8.129  0.1337 -0.7657  0.8694
  176SAPI  H12X20092   1.177   0.104   8.154  0.4675  0.6129  0.1194
  176SAPI  H12Y20093   1.038   0.018   8.176 -3.0835 -0.3887 -0.2886
  176SAPI  C31320094   0.986   0.216   8.203 -0.8250 -0.3253 -0.1152
  176SAPI  H13X20095   1.012   0.317   8.165 -0.1027 -0.8503 -1.0521
  176SAPI  H13Y20096   1.014   0.206   8.310 -0.7244 -2.3638 -0.2945
  176SAPI  C31420097   0.838   0.199   8.216 -0.1989  0.0452  0.7818
  176SAPI  H14X20098   0.810   0.158   8.117 -1.1811 -1.9946  1.8565
  176SAPI  H14Y20099   0.785   0.296   8.227 -0.8691 -0.1145 -0.8110
  176SAPI  C31520100   0.789   0.095   8.309  0.4664 -0.5095 -0.0009
  176SAPI  H15X20101   0.848   0.002   8.294 -1.1968 -1.3186 -2.0633
  176SAPI  H15Y20102   0.683   0.071   8.286  0.9647 -1.0264 -1.9574
  176SAPI  C31620103   0.790   0.148   8.455 -0.0756 -0.1104  0.1556
  176SAPI  H16X20104   0.695   0.203   8.475  0.5308  1.6058 -1.3877
  176SAPI  H16Y20105   0.866   0.229   8.455 -1.3526  1.1412  0.6090
  176SAPI  C31720106   0.806   0.052   8.565  0.1226 -0.4036  0.6346
  176SAPI  H17X20107   0.786   0.111   8.657  2.0480  0.3117  0.6424
  176SAPI  H17Y20108   0.911   0.018   8.566  0.0207 -0.7419  0.0718
  176SAPI  C31820109   0.714  -0.064   8.553  0.7836  0.1197 -0.1168
  176SAPI  H18X20110   0.741  -0.131   8.638  0.5051  0.3246  0.1303
  176SAPI  H18Y20111   0.736  -0.124   8.462 -0.3679  1.1115 -1.0760
  176SAPI  H18Z20112   0.606  -0.041   8.552  0.9652  0.9892  0.0870
  177SLPC     N20113   2.258   6.809  11.224 -0.6018 -0.0191  0.0660
  177SLPC   C1320114   2.286   6.659  11.201  0.1357 -0.1359  0.2010
  177SLPC  H13A20115   2.246   6.595  11.279 -0.1845  1.4455  1.3942
  177SLPC  H13B20116   2.248   6.633  11.104  1.2263 -2.0570  0.2406
  177SLPC  H13C20117   2.392   6.641  11.198  0.4479  1.6163 -0.4228
  177SLPC   C1420118   2.309   6.846  11.354  0.0351 -0.1717 -0.7981
  177SLPC  H14A20119   2.416   6.829  11.351  0.1099  0.4106 -1.8621
  177SLPC  H14B20120   2.289   6.947  11.387  2.4741  0.5523 -1.3144
  177SLPC  H14C20121   2.258   6.778  11.421 -0.3394 -0.1223 -1.0335
  177SLPC   C1520122   2.111   6.819  11.214  0.6522 -0.4466 -0.0305
  177SLPC  H15A20123   2.074   6.917  11.239  2.5842  0.2850  0.0722
  177SLPC  H15B20124   2.075   6.802  11.113  0.8823 -1.0709 -0.0137
  177SLPC  H15C20125   2.060   6.748  11.277  0.6270  0.4506  0.9750
  177SLPC   C1220126   2.327   6.893  11.117 -0.1845 -0.0439 -0.1268
  177SLPC  H12A20127   2.299   6.997  11.124  0.4837  0.0382  2.0475
  177SLPC  H12B20128   2.291   6.869  11.018 -0.1266 -1.1400  0.1106
  177SLPC   C1120129   2.478   6.890  11.102 -0.4822 -0.8489 -0.2630
  177SLPC  H11A20130   2.530   6.924  11.194  0.3960 -0.8000 -0.7629
  177SLPC  H11B20131   2.507   6.964  11.025 -0.5332 -0.4193  0.1264
  177SLPC     P20132   2.530   6.706  10.923  0.0416  0.3337 -0.1508
  177SLPC   O1320133   2.669   6.683  10.882  0.3131 -0.4540 -0.2174
  177SLPC   O1420134   2.440   6.586  10.920  0.1789  0.5176  0.3314
  177SLPC   O1220135   2.522   6.760  11.068 -0.5475  0.2820  0.5300
  177SLPC   O1120136   2.465   6.805  10.829 -0.1296 -0.6535  0.1569
  177SLPC    C120137   2.464   6.788  10.688  0.4834 -0.9402 -0.4949
  177SLPC    HA20138   2.496   6.687  10.654  0.7926 -0.7450 -0.7878
  177SLPC    HB20139   2.357   6.795  10.657  0.5169 -0.1289 -0.4563
  177SLPC    C220140   2.533   6.900  10.602  0.3501 -0.5743 -0.6040
  177SLPC    HS20141   2.493   7.003  10.613  0.1580 -0.5997 -1.0338
  177SLPC   O2120142   2.534   6.854  10.467  0.3617 -0.1620  0.5735
  177SLPC   C2120143   2.425   6.893  10.402  0.3173 -0.0620  0.4261
  177SLPC   O2220144   2.330   6.947  10.450 -0.0745  0.0538  0.5995
  177SLPC   C2220145   2.427   6.863  10.252 -0.4978  0.7638 -0.2539
  177SLPC   H2R20146   2.535   6.848  10.233 -0.6044  0.4294 -0.6071
  177SLPC   H2S20147   2.375   6.767  10.233 -1.8730  1.7026 -1.4485
  177SLPC    C320148   2.677   6.897  10.653 -0.0388  0.0122  0.6498
  177SLPC    HX20149   2.716   6.794  10.662  1.3380  0.4472 -0.0957
  177SLPC    HY20150   2.685   6.940  10.755  2.2410 -0.9210  0.9198
  177SLPC   O3120151   2.774   6.967  10.566  0.2843  0.2293 -0.4011
  177SLPC   C3120152   2.803   7.095  10.599 -0.5291  0.5161 -0.4126
  177SLPC   O3220153   2.735   7.170  10.667 -0.2850  0.2001 -0.1778
  177SLPC   C3220154   2.940   7.131  10.541  0.3646  0.9231 -0.0778
  177SLPC   H2X20155   3.018   7.129  10.621 -1.0058 -1.2833  1.3109
  177SLPC   H2Y20156   2.922   7.237  10.511  1.2993 -0.0832 -4.9816
  177SLPC   C2320157   2.377   6.979  10.172 -0.5437  0.1674  0.1480
  177SLPC   H3R20158   2.281   7.018  10.214  0.4657  0.3623  2.4102
  177SLPC   H3S20159   2.352   6.938  10.072  1.3078 -1.3407  0.2504
  177SLPC   C2420160   2.471   7.099  10.176 -1.1918 -0.6993  0.2664
  177SLPC   H4R20161   2.577   7.066  10.190 -0.1793  1.4992 -1.5343
  177SLPC   H4S20162   2.449   7.173  10.255  0.6063 -0.6747  0.7982
  177SLPC   C2520163   2.464   7.170  10.042 -1.1857 -0.7261 -0.0602
  177SLPC   H5R20164   2.364   7.216  10.024 -0.2882  0.6675 -1.7775
  177SLPC   H5S20165   2.467   7.091   9.964  0.9049 -0.9040  0.1334
  177SLPC   C2620166   2.571   7.276  10.025  0.0832 -0.1142 -0.4613
  177SLPC   H6R20167   2.672   7.231  10.040  0.8078  0.8352 -2.1221
  177SLPC   H6S20168   2.549   7.357  10.098 -1.1359  1.3033 -2.3113
  177SLPC   C2720169   2.575   7.357   9.891 -0.3330 -0.9152  0.0371
  177SLPC   H7R20170   2.584   7.466   9.908  1.0204 -1.0205  0.0751
  177SLPC   H7S20171   2.469   7.351   9.857 -0.2128 -0.3547 -0.4524
  177SLPC   C2820172   2.674   7.299   9.784  0.5841  0.2487 -0.4039
  177SLPC   H8R20173   2.670   7.188   9.774  2.2719  0.1387 -0.0541
  177SLPC   H8S20174   2.779   7.324   9.808  0.4724  0.4228 -0.0929
  177SLPC   C2920175   2.633   7.334   9.643 -0.0783 -0.2498  0.1803
  177SLPC   H9R20176   2.566   7.265   9.589 -1.9832  2.8894 -1.8063
  177SLPC  C21020177   2.680   7.445   9.577  0.1922 -0.1456  0.5648
  177SLPC  H10R20178   2.640   7.460   9.476  0.7474 -0.1507  0.3370
  177SLPC  C21120179   2.763   7.556   9.631 -0.2685 -0.1914 -0.0670
  177SLPC  H11R20180   2.745   7.650   9.575  2.9953 -1.8563 -4.5611
  177SLPC  H11S20181   2.737   7.576   9.737  1.1876 -1.9697  0.6901
  177SLPC  C21220182   2.911   7.522   9.623  0.4257 -0.0965 -0.0109
  177SLPC  H12R20183   2.940   7.442   9.693 -0.7248  0.5336  1.2251
  177SLPC  C21320184   3.002   7.569   9.533 -0.6872 -0.8222  0.0768
  177SLPC  H13R20185   3.110   7.551   9.544 -0.5869 -0.3964 -0.1797
  177SLPC  C21420186   2.973   7.659   9.422 -0.3032 -0.2665  1.3227
  177SLPC  H14R20187   3.012   7.762   9.434 -0.4969  0.5394 -3.0499
  177SLPC  H14S20188   2.866   7.676   9.399 -0.4591 -1.5672  1.0011
  177SLPC  C21520189   3.022   7.609   9.283  0.1927  0.0323  0.1536
  177SLPC  H15R20190   3.127   7.573   9.285  1.3486  3.0238 -1.1951
  177SLPC  H15S20191   3.009   7.691   9.208  1.5995  0.4959  0.3873
  177SLPC  C21620192   2.940   7.493   9.227 -0.0385 -0.2639 -0.6452
  177SLPC  H16R20193   2.831   7.516   9.233 -0.0228 -0.4108  0.3498
  177SLPC  H16S20194   2.961   7.402   9.287 -0.3161 -0.7178 -1.2122
  177SLPC  C21720195   2.963   7.465   9.079 -0.9635  0.2923 -0.2070
  177SLPC  H17R20196   2.953   7.355   9.067 -0.6164  0.0575  1.4029
  177SLPC  H17S20197   3.071   7.486   9.063 -0.8021  1.2904  1.9237
  177SLPC  C21820198   2.878   7.539   8.966 -0.2185  0.8201 -0.7918
  177SLPC  H18R20199   2.904   7.646   8.975  0.9608  0.3890  1.6947
  177SLPC  H18S20200   2.771   7.517   8.987  0.2627 -1.9755 -0.8166
  177SLPC  H18T20201   2.917   7.506   8.867 -0.7020  1.9157 -1.3617
  177SLPC   C3320202   2.984   7.036  10.427  0.2479  0.0007  0.2565
  177SLPC   H3X20203   2.959   6.929  10.444  0.9657 -0.1522  0.3695
  177SLPC   H3Y20204   3.095   7.041  10.418  0.0276  2.0522 -3.2920
  177SLPC   C3420205   2.919   7.081  10.294 -0.5576 -0.2020 -0.1184
  177SLPC   H4X20206   2.931   7.188  10.266  0.5446 -0.9330 -2.8426
  177SLPC   H4Y20207   2.809   7.075  10.307 -0.4554  0.2258  1.0437
  177SLPC   C3520208   2.958   6.999  10.165 -0.2315  0.8633  0.1653
  177SLPC   H5X20209   2.873   6.928  10.153  1.2701 -0.7650 -1.5479
  177SLPC   H5Y20210   3.048   6.936  10.182 -1.2172 -1.1250 -1.4834
  177SLPC   C3620211   2.974   7.072  10.037  0.1751 -0.4545  0.3139
  177SLPC   H6X20212   3.042   7.160  10.039 -0.7799  0.2911  1.6963
  177SLPC   H6Y20213   2.872   7.110  10.016  0.2143 -0.7187 -0.3823
  177SLPC   C3720214   3.032   6.976   9.931 -0.1161  0.6829  0.1986
  177SLPC   H7X20215   2.950   6.909   9.898  1.0489 -0.5404 -0.2800
  177SLPC   H7Y20216   3.116   6.914   9.969 -2.2812 -1.6151  1.4858
  177SLPC   C3820217   3.082   7.040   9.797 -0.3831  0.1147  0.1796
  177SLPC   H8X20218   3.133   6.970   9.729  1.0189  1.4590 -0.1947
  177SLPC   H8Y20219   3.151   7.126   9.813 -0.2102  0.0229 -0.0724
  177SLPC   C3920220   2.960   7.093   9.718  0.0400 -0.1845  0.0572
  177SLPC   H9X20221   2.920   7.179   9.777  0.2291 -1.0211  1.4607
  177SLPC   H9Y20222   2.885   7.016   9.688  0.1359  0.4051 -1.8045
  177SLPC  C31020223   2.998   7.139   9.580 -0.0373 -0.5169 -0.2260
  177SLPC  H10X20224   3.098   7.183   9.597 -0.3311  0.3662 -0.7172
  177SLPC  H10Y20225   2.922   7.213   9.548 -0.4590  0.7248  3.2714
  177SLPC  C31120226   3.006   7.029   9.472  0.4247 -0.2688 -0.0964
  177SLPC  H11X20227   2.908   6.978   9.455  0.6806 -0.8185  0.0518
  177SLPC  H11Y20228   3.089   6.960   9.494  0.5179 -0.1505 -0.0776
  177SLPC  C31220229   3.055   7.099   9.338  0.2694 -0.0606 -0.7759
  177SLPC  H12X20230   3.150   7.153   9.358  0.0761  0.6577 -1.7085
  177SLPC  H12Y20231   2.978   7.176   9.315  2.0536  2.4213  1.0046
  177SLPC  C31320232   3.070   6.992   9.236 -0.2426  0.1090  0.8092
  177SLPC  H13X20233   2.976   6.933   9.224 -0.2322  0.4116 -1.1537
  177SLPC  H13Y20234   3.148   6.923   9.275 -0.0919  0.5785  1.3615
  177SLPC  C31420235   3.101   7.052   9.098  0.1964  0.1299 -0.6838
  177SLPC  H14X20236   3.203   7.097   9.101 -0.4260  1.5336 -0.2036
  177SLPC  H14Y20237   3.025   7.131   9.084 -0.2873 -0.1316  0.3437
  177SLPC  C31520238   3.100   6.963   8.972 -0.1470  0.2777 -0.4804
  177SLPC  H15X20239   2.998   6.920   8.963 -0.4536  0.5608  1.1978
  177SLPC  H15Y20240   3.170   6.877   8.980  0.7708  0.4652 -4.5680
  177SLPC  C31620241   3.138   7.043   8.851  0.0735 -0.4919  0.2343
  177SLPC  H16X20242   3.244   7.073   8.865 -0.2394 -0.3826  2.8917
  177SLPC  H16Y20243   3.078   7.136   8.843 -2.8131 -2.0975  1.6114
  177SLPC  C31720244   3.119   6.960   8.720 -0.7259 -0.0612  0.1043
  177SLPC  H17X20245   3.011   6.936   8.709 -1.5919  3.8049 -1.5630
  177SLPC  H17Y20246   3.171   6.866   8.745 -1.5985 -0.1525  1.7258
  177SLPC  C31820247   3.177   7.033   8.591  0.1236  0.3315  0.0942
  177SLPC  H18X20248   3.146   7.140   8.596  0.6037  0.5182 -0.8033
  177SLPC  H18Y20249   3.152   6.974   8.501 -2.8424 -0.7522  1.5044
  177SLPC  H18Z20250   3.288   7.042   8.586 -0.0426  2.6135 -0.8559
  178SLPC     N20251   3.946   0.242  11.028 -1.4838 -0.3555  0.6584
  178SLPC   C1320252   4.084   0.178  11.013  0.5431 -0.4113 -0.5154
  178SLPC  H13A20253   4.161   0.250  10.991  0.0888  0.7550  1.4333
  178SLPC  H13B20254   4.119   0.138  11.107  2.1245  0.6212 -0.6338
  178SLPC  H13C20255   4.085   0.095  10.943 -0.3629 -2.1447  1.4199
  178SLPC   C1420256   3.940   0.323  11.151 -0.2633 -0.0144 -0.3832
  178SLPC  H14A20257   3.840   0.361  11.159 -0.3752  0.3890 -2.8739
  178SLPC  H14B20258   3.980   0.274  11.239  2.5032  2.4603 -0.0982
  178SLPC  H14C20259   4.005   0.408  11.134  0.9830 -0.1152  2.9826
  178SLPC   C1520260   3.855   0.129  11.027  0.8710 -1.3848  0.2123
  178SLPC  H15A20261   3.870   0.070  10.937 -2.7701 -0.4376 -1.1922
  178SLPC  H15B20262   3.871   0.068  11.115  1.7932 -1.0380  0.2894
  178SLPC  H15C20263   3.751   0.159  11.031  0.9665 -0.6753 -1.5644
  178SLPC   C1220264   3.922   0.322  10.899 -0.6468  0.5854 -0.3709
  178SLPC  H12A20265   3.816   0.336  10.888 -0.9498  0.9869  2.2909
  178SLPC  H12B20266   3.964   0.278  10.810 -1.3555  1.0758 -0.9576
  178SLPC   C1120267   3.990   0.463  10.887  0.3322  0.0965  0.3611
  178SLPC  H11A20268   3.948   0.534  10.961  1.2765 -1.1717  2.1695
  178SLPC  H11B20269   3.980   0.504  10.784 -1.4752  0.9532  0.8292
  178SLPC     P20270   4.257   0.483  10.841 -0.1670 -0.2356  0.0615
  178SLPC   O1320271   4.317   0.617  10.868 -0.6244 -0.5684  0.5812
  178SLPC   O1420272   4.344   0.368  10.878  0.4426 -0.3270  0.1867
  178SLPC   O1220273   4.127   0.459  10.926 -0.2107  0.4690 -0.3666
  178SLPC   O1120274   4.201   0.474  10.689  0.0708 -0.0118 -0.4501
  178SLPC    C120275   4.200   0.349  10.616 -0.7572 -0.0799 -0.3651
  178SLPC    HA20276   4.295   0.291  10.622 -2.1904 -2.4292  1.6269
  178SLPC    HB20277   4.129   0.290  10.677 -2.0179  2.1178  0.4326
  178SLPC    C220278   4.159   0.360  10.474 -0.2319 -0.2633  1.2121
  178SLPC    HS20279   4.142   0.256  10.439  1.1845 -0.7293  1.8445
  178SLPC   O2120280   4.259   0.418  10.390 -0.4538 -0.0592  0.2449
  178SLPC   C2120281   4.379   0.361  10.377  0.0691 -0.0099 -0.1080
  178SLPC   O2220282   4.425   0.272  10.450  0.9750 -0.0350  0.7160
  178SLPC   C2220283   4.445   0.427  10.259  0.2153 -0.3202 -0.2415
  178SLPC   H2R20284   4.369   0.453  10.182  0.0099 -1.4250 -0.4304
  178SLPC   H2S20285   4.497   0.514  10.305  1.4663 -1.0629 -0.2033
  178SLPC    C320286   4.028   0.442  10.473  0.0898  0.2594 -0.2556
  178SLPC    HX20287   4.040   0.530  10.540  0.2629 -1.4726  2.1485
  178SLPC    HY20288   3.958   0.378  10.530  2.2013 -1.0180  1.0526
  178SLPC   O3120289   3.976   0.474  10.341  0.0929  0.2954 -0.0279
  178SLPC   C3120290   3.939   0.598  10.319 -0.3394  0.1443 -0.2427
  178SLPC   O3220291   3.908   0.682  10.404 -0.3024  0.6311 -0.1871
  178SLPC   C3220292   3.936   0.620  10.164 -0.4584  0.4658  0.4353
  178SLPC   H2X20293   3.865   0.549  10.116  1.6124 -1.5698  0.1415
  178SLPC   H2Y20294   4.030   0.587  10.114 -1.3804 -2.0641  0.2212
  178SLPC   C2320295   4.563   0.346  10.209  0.0759  0.6530 -0.5385
  178SLPC   H3R20296   4.633   0.316  10.291 -2.6999 -1.4952  1.2480
  178SLPC   H3S20297   4.623   0.399  10.133  0.7255 -0.6999 -1.0114
  178SLPC   C2420298   4.514   0.211  10.142  0.0712 -0.4474  0.5350
  178SLPC   H4R20299   4.449   0.154  10.212 -0.0778  1.2302  1.8222
  178SLPC   H4S20300   4.597   0.142  10.117 -0.6722 -0.8439 -0.9241
  178SLPC   C2520301   4.427   0.245  10.019  0.2373  0.5033 -0.0511
  178SLPC   H5R20302   4.480   0.327   9.966 -0.5394  1.7099  0.9717
  178SLPC   H5S20303   4.321   0.272  10.041 -0.9794 -0.9963 -3.3064
  178SLPC   C2620304   4.415   0.126   9.924 -0.1336  0.0560  0.3497
  178SLPC   H6R20305   4.350   0.043   9.960  0.3513 -1.4937 -2.1387
  178SLPC   H6S20306   4.517   0.082   9.914 -0.3257 -0.2871 -0.1170
  178SLPC   C2720307   4.341   0.182   9.794 -0.3224  0.5114  0.2394
  178SLPC   H7R20308   4.384   0.276   9.755  2.4055 -0.3572  0.9641
  178SLPC   H7S20309   4.239   0.215   9.823  0.3551  1.1181  2.0458
  178SLPC   C2820310   4.331   0.081   9.682 -0.1494  0.2256  0.2060
  178SLPC   H8R20311   4.437   0.057   9.660  0.2053  1.8736 -0.0229
  178SLPC   H8S20312   4.292   0.134   9.593 -0.4957 -2.0004 -1.0231
  178SLPC   C2920313   4.260  -0.042   9.717  0.3352 -0.3309  0.8819
  178SLPC   H9R20314   4.287  -0.109   9.800 -0.1301  1.0849  2.2249
  178SLPC  C21020315   4.137  -0.070   9.663 -0.1926 -0.1186  0.1625
  178SLPC  H10R20316   4.092  -0.167   9.690  0.3591 -0.7566 -1.1464
  178SLPC  C21120317   4.063   0.010   9.553 -0.4223 -0.9037 -0.3169
  178SLPC  H11R20318   4.125   0.005   9.461 -0.1098 -0.9665 -0.1068
  178SLPC  H11S20319   4.062   0.113   9.595 -0.1763 -0.6693 -0.8764
  178SLPC  C21220320   3.922  -0.037   9.528  0.0468 -0.2060  0.3198
  178SLPC  H12R20321   3.841   0.018   9.578 -1.5349 -1.0969 -1.1719
  178SLPC  C21320322   3.882  -0.136   9.447  0.0825  0.3018 -0.8336
  178SLPC  H13R20323   3.774  -0.153   9.441 -0.3540  1.6503  2.0356
  178SLPC  C21420324   3.971  -0.221   9.358  0.0234  0.5420  0.5743
  178SLPC  H14R20325   3.991  -0.321   9.404 -1.0317 -0.1628 -0.4425
  178SLPC  H14S20326   4.072  -0.175   9.348 -0.7413  1.9124 -1.4219
  178SLPC  C21520327   3.912  -0.232   9.217  0.5838 -0.4798 -0.3462
  178SLPC  H15R20328   3.914  -0.133   9.168  1.8418 -0.4408 -0.2450
  178SLPC  H15S20329   3.815  -0.285   9.231  2.3762 -3.5443  1.8257
  178SLPC  C21620330   3.988  -0.326   9.112  0.6706 -0.7315  0.5917
  178SLPC  H16R20331   3.989  -0.435   9.136  0.8967 -1.0197 -0.6220
  178SLPC  H16S20332   4.092  -0.290   9.104  0.8655 -0.3815  3.5530
  178SLPC  C21720333   3.919  -0.316   8.973 -0.2537 -0.2799  0.1692
  178SLPC  H17R20334   3.996  -0.350   8.900 -0.5675 -0.4739 -0.0773
  178SLPC  H17S20335   3.894  -0.211   8.945  0.9529  0.0532  0.2817
  178SLPC  C21820336   3.809  -0.412   8.951 -0.4997 -0.8461 -0.8629
  178SLPC  H18R20337   3.857  -0.509   8.978 -0.2892 -0.6911 -0.6727
  178SLPC  H18S20338   3.776  -0.413   8.845 -0.2124  0.3532 -0.9816
  178SLPC  H18T20339   3.721  -0.396   9.016  1.4584  0.6314  1.6188
  178SLPC   C3320340   3.896   0.764  10.118 -0.1227  0.0482 -0.2695
  178SLPC   H3X20341   3.954   0.846  10.167 -1.2758  0.4994  0.3714
  178SLPC   H3Y20342   3.789   0.763  10.146 -0.4667  1.3935 -1.4408
  178SLPC   C3420343   3.903   0.773   9.967  0.0674  0.0427  0.0830
  178SLPC   H4X20344   3.804   0.752   9.919  1.4226 -2.2604 -1.9371
  178SLPC   H4Y20345   3.968   0.697   9.919 -0.7679  0.2592 -1.4630
  178SLPC   C3520346   3.954   0.905   9.903 -0.2923 -0.0498 -0.8987
  178SLPC   H5X20347   4.047   0.931   9.959  0.0719 -0.5891 -1.2440
  178SLPC   H5Y20348   3.883   0.989   9.918 -1.7767 -1.6186  1.4634
  178SLPC   C3620349   3.993   0.904   9.754 -0.4044  0.8243  0.2572
  178SLPC   H6X20350   4.043   0.808   9.728 -0.9806 -0.0505  2.1236
  178SLPC   H6Y20351   4.058   0.992   9.737  0.7464  0.2700  1.5605
  178SLPC   C3720352   3.875   0.901   9.655 -0.5125  0.2252 -0.7224
  178SLPC   H7X20353   3.824   0.999   9.649  0.7981  1.1211  1.4292
  178SLPC   H7Y20354   3.805   0.821   9.687 -0.1455 -0.7959 -2.3695
  178SLPC   C3820355   3.927   0.871   9.518 -0.0430 -0.1115 -0.5973
  178SLPC   H8X20356   3.986   0.777   9.515  0.8285  0.2246  2.3894
  178SLPC   H8Y20357   3.979   0.963   9.482 -0.6249  1.2707  1.8216
  178SLPC   C3920358   3.808   0.851   9.424  0.3433 -0.3628  0.6973
  178SLPC   H9X20359   3.753   0.947   9.412  1.9321  0.5002 -0.1056
  178SLPC   H9Y20360   3.731   0.781   9.462  0.4149  0.4436  2.4662
  178SLPC  C31020361   3.848   0.820   9.279 -0.1108  0.1306  0.2773
  178SLPC  H10X20362   3.882   0.714   9.282  0.4130  0.2113 -1.6073
  178SLPC  H10Y20363   3.930   0.894   9.270 -0.7012  0.9283  1.2851
  178SLPC  C31120364   3.745   0.841   9.172  0.5340 -0.2121  0.4903
  178SLPC  H11X20365   3.720   0.949   9.165 -0.3621 -0.2534  2.4552
  178SLPC  H11Y20366   3.650   0.791   9.202  0.6289  0.1082  1.3421
  178SLPC  C31220367   3.777   0.787   9.030  0.6432  0.4980 -0.1242
  178SLPC  H12X20368   3.694   0.825   8.967  0.4196  2.0118  1.0176
  178SLPC  H12Y20369   3.762   0.677   9.030  0.3673  0.5146 -1.7443
  178SLPC  C31320370   3.918   0.813   8.978 -0.3202  0.3572 -0.7963
  178SLPC  H13X20371   3.987   0.748   9.034 -0.5382 -2.0538 -3.1047
  178SLPC  H13Y20372   3.939   0.921   8.995 -0.8430  0.5516 -1.3171
  178SLPC  C31420373   3.938   0.779   8.827  0.1147  0.8276 -0.1299
  178SLPC  H14X20374   4.048   0.768   8.817  0.1825 -0.8312  1.7456
  178SLPC  H14Y20375   3.901   0.869   8.774 -1.2646  2.5588  3.4302
  178SLPC  C31520376   3.850   0.664   8.777 -0.2534 -0.6350 -0.3337
  178SLPC  H15X20377   3.875   0.569   8.828 -0.6971 -1.5860 -1.8412
  178SLPC  H15Y20378   3.742   0.681   8.798 -0.1514 -0.9471  0.5043
  178SLPC  C31620379   3.852   0.657   8.621  0.5173  0.4988 -0.7061
  178SLPC  H16X20380   3.934   0.589   8.592  0.7664  0.6502 -0.3609
  178SLPC  H16Y20381   3.875   0.761   8.591  0.6367  0.6908  0.0335
  178SLPC  C31720382   3.712   0.627   8.557 -0.3984 -0.0645 -0.2786
  178SLPC  H17X20383   3.727   0.631   8.447 -1.8539  1.9707 -0.4547
  178SLPC  H17Y20384   3.648   0.704   8.604  0.5421 -0.3391  1.5496
  178SLPC  C31820385   3.674   0.481   8.586  0.9782  0.0163 -0.0755
  178SLPC  H18X20386   3.674   0.464   8.695  1.6009  0.2198 -0.0420
  178SLPC  H18Y20387   3.737   0.402   8.540 -0.1899 -1.4852  0.8465
  178SLPC  H18Z20388   3.569   0.463   8.553  1.5317 -1.4707 -1.1260
  179SLPC     N20389   6.348   3.534  10.458  0.7547 -0.3207  0.4692
  179SLPC   C1320390   6.289   3.420  10.382 -0.3914  0.3490 -0.1747
  179SLPC  H13A20391   6.219   3.451  10.305 -2.2158 -1.5398  0.6126
  179SLPC  H13B20392   6.367   3.365  10.331  0.3809  0.7832  0.5182
  179SLPC  H13C20393   6.241   3.356  10.455 -0.1247  2.6411  2.1344
  179SLPC   C1420394   6.430   3.470  10.564 -0.3015 -0.1234 -0.0453
  179SLPC  H14A20395   6.364   3.450  10.647  1.6735 -3.7256  0.8264
  179SLPC  H14B20396   6.460   3.371  10.532 -4.5548 -1.4400 -0.5805
  179SLPC  H14C20397   6.508   3.538  10.594 -0.3420  0.0754 -0.3772
  179SLPC   C1520398   6.234   3.611  10.517 -0.9701  1.2922 -0.3933
  179SLPC  H15A20399   6.159   3.542  10.553 -1.0166  1.0775 -0.8998
  179SLPC  H15B20400   6.260   3.685  10.592 -0.7191  0.2552  0.5633
  179SLPC  H15C20401   6.188   3.668  10.438 -1.4904 -0.2523 -1.2441
  179SLPC   C1220402   6.423   3.634  10.365  0.3322  0.3585  0.0711
  179SLPC  H12A20403   6.510   3.574  10.344 -0.9138 -2.6461  2.6889
  179SLPC  H12B20404   6.452   3.726  10.414 -1.7389  1.4667 -0.6541
  179SLPC   C1120405   6.342   3.674  10.234 -0.1187  0.2706  0.8198
  179SLPC  H11A20406   6.317   3.583  10.176  1.6472 -0.9656  1.9270
  179SLPC  H11B20407   6.419   3.717  10.166  0.4392  1.7024  2.2734
  179SLPC     P20408   6.249   3.916  10.273  0.0322  0.1821 -0.0324
  179SLPC   O1320409   6.125   3.984  10.305 -0.3332 -0.1529  0.1633
  179SLPC   O1420410   6.368   3.944  10.359  0.5217  0.0801 -0.2979
  179SLPC   O1220411   6.232   3.760  10.255  0.3771 -0.0676  0.2743
  179SLPC   O1120412   6.299   3.956  10.136 -0.6125 -0.0109  0.5152
  179SLPC    C120413   6.201   3.996  10.032  0.5235  0.1106 -0.0122
  179SLPC    HA20414   6.150   4.089  10.065 -0.3856 -0.0401 -0.9225
  179SLPC    HB20415   6.262   4.013   9.941 -0.3379  1.2840 -0.3962
  179SLPC    C220416   6.093   3.889   9.984 -0.1942 -0.5841 -0.4261
  179SLPC    HS20417   6.031   3.854  10.069  0.8676  0.3108  0.7429
  179SLPC   O2120418   6.167   3.781   9.933 -0.4848 -0.1494 -0.0132
  179SLPC   C2120419   6.102   3.666   9.928  0.3334 -0.2912 -0.3626
  179SLPC   O2220420   5.977   3.658   9.934 -0.2543  0.6024 -0.2519
  179SLPC   C2220421   6.195   3.555   9.895 -0.4987  0.3295 -0.0835
  179SLPC   H2R20422   6.301   3.582   9.880 -0.2660 -1.2200 -1.6004
  179SLPC   H2S20423   6.186   3.488   9.984  0.8991  1.3793  0.8851
  179SLPC    C320424   6.002   3.953   9.877  0.5798 -0.5758 -0.3792
  179SLPC    HX20425   5.919   4.001   9.932 -0.0992 -1.7898 -0.3240
  179SLPC    HY20426   5.944   3.870   9.833 -1.1862 -1.3092  3.0193
  179SLPC   O3120427   6.058   4.031   9.772  0.4240 -0.7229  0.1377
  179SLPC   C3120428   6.023   4.154   9.764 -0.3704 -0.1005 -0.1331
  179SLPC   O3220429   5.938   4.211   9.831 -0.3794  0.5068 -0.1753
  179SLPC   C3220430   6.094   4.226   9.647 -0.4630 -0.4383 -0.4547
  179SLPC   H2X20431   6.160   4.152   9.598  2.1298  0.8072  0.9566
  179SLPC   H2Y20432   6.158   4.303   9.695 -2.9675  1.6119 -0.2220
  179SLPC   C2320433   6.142   3.462   9.782 -0.5727 -0.3820 -0.1344
  179SLPC   H3R20434   6.054   3.404   9.816 -1.8501 -0.3986 -3.1282
  179SLPC   H3S20435   6.222   3.391   9.751 -0.1391  0.6849 -1.5362
  179SLPC   C2420436   6.107   3.541   9.655  0.2233  0.3977  0.2710
  179SLPC   H4R20437   6.198   3.549   9.593 -0.8665 -1.2421 -1.6581
  179SLPC   H4S20438   6.071   3.644   9.673  1.1502  0.9236 -0.7782
  179SLPC   C2520439   5.994   3.477   9.568  0.3835  0.0547 -0.1109
  179SLPC   H5R20440   5.898   3.477   9.624  0.8759  1.9720  0.7806
  179SLPC   H5S20441   6.031   3.375   9.544  1.2677  0.4260 -0.3559
  179SLPC   C2620442   5.964   3.551   9.432 -0.2797 -0.0918  0.1112
  179SLPC   H6R20443   6.064   3.576   9.389 -0.2719  0.4721  0.4418
  179SLPC   H6S20444   5.900   3.641   9.443 -1.8039 -0.8831 -1.6954
  179SLPC   C2720445   5.886   3.464   9.328 -0.3327 -0.5731 -0.4491
  179SLPC   H7R20446   5.826   3.539   9.272  2.4124  2.2578  0.0940
  179SLPC   H7S20447   5.827   3.389   9.385  2.2450 -1.9021  0.6526
  179SLPC   C2820448   5.979   3.388   9.237  0.3444  0.4790  0.2957
  179SLPC   H8R20449   5.911   3.314   9.188 -1.2799  1.7545  0.5111
  179SLPC   H8S20450   6.058   3.327   9.285  0.2087 -1.0636 -1.3178
  179SLPC   C2920451   6.059   3.469   9.138  0.1847  0.2499  0.0030
  179SLPC   H9R20452   6.126   3.544   9.182  1.6075 -0.8031 -0.2951
  179SLPC  C21020453   6.049   3.453   9.008  0.0270  0.1437  1.1017
  179SLPC  H10R20454   6.109   3.524   8.949  1.8277  0.6344  3.3930
  179SLPC  C21120455   5.965   3.361   8.923  0.0187  0.8526 -0.6015
  179SLPC  H11R20456   5.873   3.326   8.975  1.4537 -0.8772  0.8991
  179SLPC  H11S20457   6.026   3.269   8.909 -0.1019  0.6181  0.3140
  179SLPC  C21220458   5.902   3.407   8.802  0.1242  0.3392  0.6353
  179SLPC  H12R20459   5.875   3.514   8.800  0.7249  0.4884 -1.3357
  179SLPC  C21320460   5.889   3.353   8.678  0.5633  0.1100 -0.3619
  179SLPC  H13R20461   5.851   3.417   8.597  2.1100  1.1975 -0.2722
  179SLPC  C21420462   5.928   3.217   8.636 -0.3789 -0.2887  0.3820
  179SLPC  H14R20463   6.014   3.184   8.698 -1.5206 -0.3810  1.9897
  179SLPC  H14S20464   5.971   3.224   8.534  0.4151 -1.1749  0.6330
  179SLPC  C21520465   5.822   3.116   8.622 -0.3719 -0.2883  0.4071
  179SLPC  H15R20466   5.745   3.115   8.703  0.6355 -0.3642  1.3827
  179SLPC  H15S20467   5.864   3.014   8.612  0.8427  0.3633 -1.8063
  179SLPC  C21620468   5.742   3.124   8.491 -0.0593 -0.4213 -0.1757
  179SLPC  H16R20469   5.803   3.102   8.400 -3.0256 -0.7578 -2.2416
  179SLPC  H16S20470   5.701   3.227   8.493 -1.1005 -0.8277  0.3502
  179SLPC  C21720471   5.615   3.035   8.493 -0.1134  0.1482 -0.1997
  179SLPC  H17R20472   5.548   3.085   8.567  1.0745  1.3535  0.0925
  179SLPC  H17S20473   5.640   2.936   8.535  0.2720  0.7105  0.9277
  179SLPC  C21820474   5.549   3.017   8.357  1.1636 -0.0829 -0.0272
  179SLPC  H18R20475   5.455   2.958   8.359 -0.2057  1.8624 -2.2147
  179SLPC  H18S20476   5.626   2.975   8.289  2.6472  1.7078  0.4598
  179SLPC  H18T20477   5.522   3.117   8.317 -0.7681 -0.8103 -0.6239
  179SLPC   C3320478   6.004   4.288   9.530  0.4843  0.0425  0.0425
  179SLPC   H3X20479   6.075   4.311   9.447  2.4640 -0.7930  1.4158
  179SLPC   H3Y20480   5.948   4.370   9.579  1.4981  0.0479  1.2453
  179SLPC   C3420481   5.901   4.189   9.470 -0.4545  0.5105 -0.5186
  179SLPC   H4X20482   5.824   4.150   9.539  0.1585  2.5506  1.4470
  179SLPC   H4Y20483   5.960   4.112   9.415 -1.8811  1.8827 -4.3461
  179SLPC   C3520484   5.817   4.254   9.352  0.3986  0.0531 -0.3973
  179SLPC   H5X20485   5.751   4.331   9.399  2.1458  0.7489  1.0367
  179SLPC   H5Y20486   5.744   4.181   9.312 -0.6217  0.4899  0.5872
  179SLPC   C3620487   5.893   4.303   9.234  0.0408 -0.3382  0.2009
  179SLPC   H6X20488   5.992   4.253   9.241  0.4490  0.4304 -0.0478
  179SLPC   H6Y20489   5.915   4.411   9.243  0.1314 -0.4495  1.4739
  179SLPC   C3720490   5.826   4.277   9.102  0.2825 -0.8502  0.2170
  179SLPC   H7X20491   5.729   4.332   9.092  0.9427 -0.0661 -3.0110
  179SLPC   H7Y20492   5.800   4.170   9.088  2.5151 -1.2140 -1.6974
  179SLPC   C3820493   5.910   4.322   8.974 -0.0520  0.1751  1.0988
  179SLPC   H8X20494   6.006   4.276   9.005 -0.2659  0.6592  2.5829
  179SLPC   H8Y20495   5.923   4.432   8.966  1.4698  0.0495  1.5876
  179SLPC   C3920496   5.859   4.261   8.845 -0.5180  0.4245  0.7479
  179SLPC   H9X20497   5.761   4.304   8.816 -0.8582  0.7562  2.3296
  179SLPC   H9Y20498   5.854   4.151   8.860  1.4785 -0.0444 -1.4291
  179SLPC  C31020499   5.945   4.292   8.723 -0.2372  0.4758  0.7431
  179SLPC  H10X20500   6.036   4.230   8.741  0.0327  0.4770 -0.5643
  179SLPC  H10Y20501   5.973   4.399   8.736 -0.5757  0.4275  2.0827
  179SLPC  C31120502   5.863   4.267   8.596  0.1006 -0.2006 -0.2696
  179SLPC  H11X20503   5.780   4.336   8.571  0.1313  0.0961  0.4307
  179SLPC  H11Y20504   5.824   4.163   8.604  0.0265 -0.0209  4.1275
  179SLPC  C31220505   5.940   4.283   8.468  0.2263 -0.4776  1.0668
  179SLPC  H12X20506   6.023   4.208   8.462 -0.3526 -1.0020 -1.7896
  179SLPC  H12Y20507   5.987   4.384   8.464  1.0186 -0.8780 -0.7448
  179SLPC  C31320508   5.850   4.246   8.345  0.0881 -0.7007  0.4334
  179SLPC  H13X20509   5.763   4.315   8.349  0.2318 -0.0584 -3.4282
  179SLPC  H13Y20510   5.816   4.141   8.353 -1.2331 -0.4689 -1.4680
  179SLPC  C31420511   5.920   4.260   8.210  0.0444  0.0032  0.2568
  179SLPC  H14X20512   5.845   4.235   8.132 -1.8669 -0.4712  2.1718
  179SLPC  H14Y20513   5.995   4.180   8.188  0.3876  0.2773  0.4257
  179SLPC  C31520514   5.982   4.399   8.195 -0.1694  0.2811  0.3306
  179SLPC  H15X20515   6.071   4.403   8.261  0.5758 -2.4269 -0.3878
  179SLPC  H15Y20516   5.908   4.476   8.226 -0.7358 -1.3599  3.4520
  179SLPC  C31620517   6.029   4.420   8.049  0.3101  0.0104 -0.3810
  179SLPC  H16X20518   6.045   4.527   8.025 -0.7915  0.0309 -1.0966
  179SLPC  H16Y20519   5.957   4.377   7.976  0.5134  0.4342 -0.8298
  179SLPC  C31720520   6.161   4.342   8.036  0.8384 -0.1425 -1.1060
  179SLPC  H17X20521   6.140   4.236   8.064  2.2510  0.3294  2.3385
  179SLPC  H17Y20522   6.234   4.375   8.113  0.4997 -0.2254 -0.7465
  179SLPC  C31820523   6.225   4.374   7.898 -0.8011  0.4154 -0.3984
  179SLPC  H18X20524   6.252   4.482   7.894 -0.9018  0.5953  2.1469
  179SLPC  H18Y20525   6.140   4.368   7.826 -2.1363  3.0794  0.8066
  179SLPC  H18Z20526   6.309   4.306   7.871 -0.6819 -0.7162  2.4084
  180SLPC     N20527   6.065   2.293  10.630 -0.1584 -0.4740 -0.1101
  180SLPC   C1320528   5.943   2.216  10.672  0.2813 -0.4223  0.0962
  180SLPC  H13A20529   5.920   2.250  10.771  1.0729 -0.2901  0.2404
  180SLPC  H13B20530   5.862   2.227  10.601  1.5316 -0.1199 -1.3456
  180SLPC  H13C20531   5.965   2.111  10.685  2.1928  0.1536  2.3067
  180SLPC   C1420532   6.148   2.319  10.750  0.3411  0.1892 -0.5513
  180SLPC  H14A20533   6.172   2.229  10.804  0.5511 -0.0817 -1.0857
  180SLPC  H14B20534   6.237   2.367  10.711  0.3347 -1.4876 -2.8789
  180SLPC  H14C20535   6.087   2.376  10.818  0.5947 -0.4645  0.2326
  180SLPC   C1520536   6.018   2.426  10.579 -0.5587 -0.0566 -0.3945
  180SLPC  H15A20537   5.971   2.478  10.661 -0.9678  2.7035 -2.2447
  180SLPC  H15B20538   6.097   2.484  10.533  0.9699 -1.2388  0.6086
  180SLPC  H15C20539   5.942   2.420  10.503 -1.6652  2.1058  0.4635
  180SLPC   C1220540   6.145   2.223  10.523  0.5700  0.6185 -0.5727
  180SLPC  H12A20541   6.078   2.213  10.439 -1.2047  1.2073  0.7099
  180SLPC  H12B20542   6.168   2.123  10.557 -1.6395 -0.0887 -0.9512
  180SLPC   C1120543   6.270   2.309  10.474  0.4129  0.0421 -0.3119
  180SLPC  H11A20544   6.233   2.413  10.457 -0.8601 -0.0796  1.4350
  180SLPC  H11B20545   6.304   2.280  10.372 -0.0774 -1.2420 -0.1290
  180SLPC     P20546   6.486   2.193  10.584 -0.3261  0.2506  0.2134
  180SLPC   O1320547   6.537   2.189  10.723  0.0885 -0.1028 -0.6263
  180SLPC   O1420548   6.433   2.072  10.518 -0.0762  0.4066  0.0511
  180SLPC   O1220549   6.379   2.311  10.567 -0.3207  0.2377  0.0852
  180SLPC   O1120550   6.594   2.252  10.486  0.4132 -0.4347  0.7877
  180SLPC    C120551   6.668   2.368  10.527 -0.2679  0.4437  0.1667
  180SLPC    HA20552   6.643   2.404  10.629 -0.1193  0.2636  0.2672
  180SLPC    HB20553   6.776   2.341  10.522 -0.6630 -1.0681 -0.5075
  180SLPC    C220554   6.645   2.485  10.413  0.0337 -0.8087 -0.4302
  180SLPC    HS20555   6.537   2.510  10.416 -0.1840 -1.5705 -1.4357
  180SLPC   O2120556   6.677   2.429  10.288 -0.6214 -0.1181  0.4259
  180SLPC   C2120557   6.623   2.486  10.178  0.4809  0.1222  0.2956
  180SLPC   O2220558   6.545   2.581  10.178 -0.8618  0.3577 -0.0196
  180SLPC   C2220559   6.691   2.416  10.066  0.1967 -0.0597  0.5279
  180SLPC   H2R20560   6.788   2.374  10.100  0.2392  0.0245  0.5139
  180SLPC   H2S20561   6.629   2.328  10.040  0.1936 -0.1779  0.9296
  180SLPC    C320562   6.731   2.608  10.449  0.2780 -0.2664 -0.0813
  180SLPC    HX20563   6.838   2.577  10.448  0.2492 -0.4630  1.2622
  180SLPC    HY20564   6.694   2.634  10.551 -0.3592 -1.4528  0.0112
  180SLPC   O3120565   6.704   2.731  10.365 -0.0599 -0.2961 -0.3105
  180SLPC   C3120566   6.803   2.757  10.284  0.0763  0.8705  0.3309
  180SLPC   O3220567   6.898   2.680  10.257 -0.1548  0.2412 -0.0340
  180SLPC   C3220568   6.790   2.895  10.229  0.3277  0.0381  0.2948
  180SLPC   H2X20569   6.882   2.947  10.262  0.5731 -1.1730  1.5821
  180SLPC   H2Y20570   6.697   2.948  10.260 -0.3225 -0.2822 -0.9927
  180SLPC   C2320571   6.733   2.500   9.944 -0.4658  0.8987  0.0207
  180SLPC   H3R20572   6.818   2.564   9.978  1.0571 -0.7644 -0.4862
  180SLPC   H3S20573   6.647   2.565   9.919 -2.1150 -1.6533 -1.3851
  180SLPC   C2420574   6.772   2.414   9.820  0.2031 -1.1851 -0.2115
  180SLPC   H4R20575   6.683   2.360   9.781 -0.8111  1.5438 -1.9807
  180SLPC   H4S20576   6.855   2.344   9.845  0.5724 -0.5454  0.3776
  180SLPC   C2520577   6.800   2.513   9.700 -0.9578 -0.0308  0.1156
  180SLPC   H5R20578   6.890   2.575   9.715 -2.4093  1.9775  1.0193
  180SLPC   H5S20579   6.708   2.576   9.696 -0.0683  1.3204  0.4729
  180SLPC   C2620580   6.821   2.437   9.571 -0.1618  0.4700  0.0351
  180SLPC   H6R20581   6.724   2.384   9.566  0.8814 -1.5786  0.3238
  180SLPC   H6S20582   6.905   2.365   9.580  0.5239  0.8367 -2.5393
  180SLPC   C2720583   6.843   2.537   9.462 -0.3388  0.3235  0.2356
  180SLPC   H7R20584   6.938   2.589   9.487 -1.2961  1.6731  1.2274
  180SLPC   H7S20585   6.757   2.608   9.458 -0.5131  0.0637 -1.3409
  180SLPC   C2820586   6.853   2.467   9.323  0.0334 -0.6934 -0.7293
  180SLPC   H8R20587   6.937   2.394   9.333 -0.9242 -1.5139  2.2636
  180SLPC   H8S20588   6.887   2.555   9.264  0.1758  0.9941  1.7319
  180SLPC   C2920589   6.725   2.400   9.280  0.9775  0.5890 -0.3756
  180SLPC   H9R20590   6.680   2.327   9.349  1.1457 -0.8583 -1.7631
  180SLPC  C21020591   6.660   2.415   9.166  0.5718 -1.0629  0.2299
  180SLPC  H10R20592   6.565   2.366   9.142  0.9218 -0.8015 -1.8776
  180SLPC  C21120593   6.709   2.509   9.055 -0.2714 -0.0128  0.1866
  180SLPC  H11R20594   6.810   2.550   9.075 -0.6203  0.8248  0.2416
  180SLPC  H11S20595   6.654   2.605   9.054  2.0641  1.4474  1.6587
  180SLPC  C21220596   6.709   2.434   8.922  0.0370  0.0260  0.3300
  180SLPC  H12R20597   6.765   2.340   8.923 -1.0513 -0.6493  0.2957
  180SLPC  C21320598   6.658   2.475   8.807  0.6338  0.1772  0.1060
  180SLPC  H13R20599   6.673   2.405   8.724  0.1477 -0.5111  0.5876
  180SLPC  C21420600   6.588   2.606   8.788  0.2340 -0.1085  0.3143
  180SLPC  H14R20601   6.593   2.631   8.680  1.5801  2.1522  0.8279
  180SLPC  H14S20602   6.642   2.683   8.848  0.6620 -0.6296  0.6001
  180SLPC  C21520603   6.441   2.611   8.833 -0.0478 -0.5457 -0.0839
  180SLPC  H15R20604   6.449   2.636   8.941 -0.9891  1.2723 -0.3856
  180SLPC  H15S20605   6.386   2.520   8.803  0.4706 -0.6450 -0.7569
  180SLPC  C21620606   6.367   2.730   8.754  0.2473 -0.3915 -0.2661
  180SLPC  H16R20607   6.441   2.765   8.680 -0.0253  0.2232 -0.2546
  180SLPC  H16S20608   6.359   2.816   8.824  0.5324  0.2913 -1.0550
  180SLPC  C21720609   6.241   2.692   8.682  0.9440 -0.1044 -0.2479
  180SLPC  H17R20610   6.261   2.619   8.601 -1.6422  0.0769 -1.1505
  180SLPC  H17S20611   6.213   2.783   8.625  1.7373 -0.0024 -0.4964
  180SLPC  C21820612   6.133   2.638   8.773  0.1927 -0.1955  0.1957
  180SLPC  H18R20613   6.112   2.707   8.858 -2.4340 -1.1219  0.3690
  180SLPC  H18S20614   6.162   2.537   8.808  0.4940 -0.5536 -1.0299
  180SLPC  H18T20615   6.037   2.629   8.719 -0.0889 -3.1189  1.0057
  180SLPC   C3320616   6.785   2.896  10.070 -0.0248 -0.4458 -0.0825
  180SLPC   H3X20617   6.689   2.851  10.037  1.6119 -3.3108 -1.2920
  180SLPC   H3Y20618   6.869   2.835  10.030 -0.4389 -1.0184 -0.0787
  180SLPC   C3420619   6.786   3.035  10.010  0.1121  0.0901 -0.2503
  180SLPC   H4X20620   6.885   3.076  10.039  0.6960  1.1646 -3.4008
  180SLPC   H4Y20621   6.701   3.095  10.049 -0.1451  0.3648 -1.1921
  180SLPC   C3520622   6.781   3.038   9.858 -0.7551  0.1952  0.3327
  180SLPC   H5X20623   6.866   2.972   9.834  1.6382  3.3329 -0.5523
  180SLPC   H5Y20624   6.815   3.135   9.817  2.2875 -1.0387 -0.3059
  180SLPC   C3620625   6.655   2.984   9.791 -0.0835  0.4068 -0.7426
  180SLPC   H6X20626   6.569   3.043   9.830  0.8762  1.9588 -0.9173
  180SLPC   H6Y20627   6.645   2.877   9.821 -2.9517  0.9289  0.5023
  180SLPC   C3720628   6.660   2.992   9.642  0.1250  0.5945  0.7231
  180SLPC   H7X20629   6.702   3.090   9.611  1.2155  0.3002  1.2149
  180SLPC   H7Y20630   6.566   2.969   9.588  0.7152 -1.5373  0.5169
  180SLPC   C3820631   6.766   2.902   9.569  0.0085  0.0489 -0.2085
  180SLPC   H8X20632   6.732   2.798   9.587  0.2458 -0.0797 -0.4863
  180SLPC   H8Y20633   6.859   2.909   9.630 -1.2567 -2.8365  2.3244
  180SLPC   C3920634   6.777   2.936   9.419 -0.2214 -0.5274  0.3366
  180SLPC   H9X20635   6.866   2.886   9.376  0.9699  0.3720  1.6840
  180SLPC   H9Y20636   6.795   3.044   9.400  1.8673 -0.6231  1.5404
  180SLPC  C31020637   6.652   2.888   9.342  0.0197  0.1890  0.1798
  180SLPC  H10X20638   6.558   2.940   9.367  0.2772  1.8580 -2.0074
  180SLPC  H10Y20639   6.632   2.788   9.386  1.0527  0.0844  0.4526
  180SLPC  C31120640   6.672   2.870   9.192  0.4778  0.1976 -0.1689
  180SLPC  H11X20641   6.573   2.834   9.155  0.6937 -1.5391  0.8403
  180SLPC  H11Y20642   6.741   2.786   9.173 -1.6476 -1.2651 -2.0059
  180SLPC  C31220643   6.708   3.005   9.125 -0.1346 -0.7819  0.0709
  180SLPC  H12X20644   6.796   3.046   9.178  0.9885 -1.7556 -0.9540
  180SLPC  H12Y20645   6.623   3.076   9.123  1.6932  1.5373 -0.6160
  180SLPC  C31320646   6.760   2.978   8.982  0.1646 -0.0679 -0.0408
  180SLPC  H13X20647   6.746   3.073   8.927 -0.1298  0.1591  0.4206
  180SLPC  H13Y20648   6.704   2.895   8.934 -0.6171 -0.1353  0.9493
  180SLPC  C31420649   6.908   2.942   8.974 -0.1808 -0.3754 -0.3493
  180SLPC  H14X20650   6.921   2.849   9.033 -1.5206 -1.5438 -1.8191
  180SLPC  H14Y20651   6.967   3.025   9.020 -1.9753 -0.2372  1.9355
  180SLPC  C31520652   6.945   2.908   8.824 -0.0559 -0.8715 -0.7187
  180SLPC  H15X20653   6.877   2.837   8.773 -0.7509 -0.4063 -0.4520
  180SLPC  H15Y20654   7.047   2.863   8.830  0.7548  0.9875  0.4488
  180SLPC  C31620655   6.952   3.033   8.745  0.1834 -0.2118  0.1579
  180SLPC  H16X20656   7.019   3.105   8.797 -0.1921  0.1778  0.1109
  180SLPC  H16Y20657   6.847   3.069   8.736  0.2511  0.5878  1.9339
  180SLPC  C31720658   7.014   3.024   8.610  0.1192  0.4230  0.4926
  180SLPC  H17X20659   6.938   2.991   8.536 -0.0841  0.3941  0.7144
  180SLPC  H17Y20660   7.093   2.946   8.614 -1.7812 -1.7703 -1.7966
  180SLPC  C31820661   7.078   3.166   8.563  0.5357 -0.0742 -0.0130
  180SLPC  H18X20662   7.151   3.202   8.638 -1.5282 -0.3268  2.2803
  180SLPC  H18Y20663   6.994   3.239   8.564  0.7013  0.1222  1.5645
  180SLPC  H18Z20664   7.117   3.158   8.459  0.7578  3.8045 -0.3547
  181SLPC     N20665   4.423   6.469  10.754 -0.4849 -0.0451 -0.9831
  181SLPC   C1320666   4.402   6.411  10.888 -0.7406 -0.1909  0.3281
  181SLPC  H13A20667   4.305   6.447  10.919 -1.0014  1.2016 -1.8432
  181SLPC  H13B20668   4.402   6.303  10.887 -0.7618 -0.1978 -1.1230
  181SLPC  H13C20669   4.472   6.455  10.958  0.1263  1.4256 -1.4421
  181SLPC   C1420670   4.548   6.412  10.701  0.3432  0.3473  0.3423
  181SLPC  H14A20671   4.533   6.307  10.680 -3.4012  1.2396 -2.4918
  181SLPC  H14B20672   4.582   6.452  10.606  0.3771 -3.8685 -1.6481
  181SLPC  H14C20673   4.629   6.410  10.772  1.9514 -0.9395 -1.4102
  181SLPC   C1520674   4.447   6.618  10.775 -0.4003 -0.4285  0.3860
  181SLPC  H15A20675   4.520   6.639  10.852  0.4016  0.3431 -0.5515
  181SLPC  H15B20676   4.488   6.668  10.688 -1.5106  0.3683  0.3035
  181SLPC  H15C20677   4.359   6.662  10.820 -0.7505 -2.4705  1.8740
  181SLPC   C1220678   4.311   6.441  10.660  0.2681  0.3696  0.7865
  181SLPC  H12A20679   4.291   6.335  10.661  0.5981  0.2363 -1.5505
  181SLPC  H12B20680   4.351   6.462  10.562  1.0193 -1.1798  0.7288
  181SLPC   C1120681   4.175   6.519  10.683 -0.2527  0.3959 -0.3149
  181SLPC  H11A20682   4.103   6.486  10.606 -0.6047  0.5551 -0.0523
  181SLPC  H11B20683   4.210   6.620  10.650 -0.1603  0.7685  0.8904
  181SLPC     P20684   4.043   6.655  10.864 -0.5253 -0.3164 -0.1886
  181SLPC   O1320685   3.960   6.632  10.986  0.0317  0.5387  0.2960
  181SLPC   O1420686   4.127   6.777  10.857  0.5829 -0.3950  0.1798
  181SLPC   O1220687   4.124   6.530  10.814  0.1262 -0.1245 -0.3206
  181SLPC   O1120688   3.946   6.668  10.747  0.1070 -0.0515  0.2093
  181SLPC    C120689   3.845   6.573  10.711 -0.8134 -0.6188 -0.3375
  181SLPC    HA20690   3.887   6.517  10.624 -2.2326  1.9000 -2.8393
  181SLPC    HB20691   3.819   6.499  10.789  0.6265 -0.3757  0.4121
  181SLPC    C220692   3.718   6.644  10.648  0.8247 -0.4555  0.2443
  181SLPC    HS20693   3.664   6.561  10.597  1.6394 -1.0799  0.3716
  181SLPC   O2120694   3.754   6.743  10.550 -0.1985  0.5429  0.3582
  181SLPC   C2120695   3.817   6.703  10.439 -0.1732 -0.2960 -0.5348
  181SLPC   O2220696   3.830   6.587  10.399 -0.5071 -0.1531 -0.6364
  181SLPC   C2220697   3.851   6.822  10.352 -0.0034  0.3206  0.1662
  181SLPC   H2R20698   3.758   6.844  10.294 -1.1276 -2.0969  0.9285
  181SLPC   H2S20699   3.883   6.899  10.426  2.3002 -1.1300  0.7725
  181SLPC    C320700   3.614   6.706  10.750  0.2829  0.0251  0.3321
  181SLPC    HX20701   3.657   6.785  10.815 -1.3305  0.1945  1.2234
  181SLPC    HY20702   3.591   6.622  10.819 -0.2632 -0.6657 -0.6701
  181SLPC   O3120703   3.492   6.743  10.682  0.1419  0.3182  0.3241
  181SLPC   C3120704   3.480   6.869  10.642 -0.1059 -0.5059 -0.3541
  181SLPC   O3220705   3.567   6.950  10.660  0.3657  0.0888 -0.1322
  181SLPC   C3220706   3.353   6.909  10.569  0.5799  0.0405 -0.3028
  181SLPC   H2X20707   3.371   7.016  10.545  1.4476 -0.6500 -3.1415
  181SLPC   H2Y20708   3.267   6.905  10.639  0.5267 -1.6370 -0.4261
  181SLPC   C2320709   3.945   6.790  10.238 -0.8751  0.2254 -0.4993
  181SLPC   H3R20710   3.929   6.691  10.190 -1.1887  0.3726 -0.7071
  181SLPC   H3S20711   4.049   6.805  10.271 -0.9389 -0.9352  0.2772
  181SLPC   C2420712   3.923   6.889  10.129 -0.5318  0.1044 -0.1152
  181SLPC   H4R20713   3.814   6.890  10.107 -0.2699  1.0958 -1.4964
  181SLPC   H4S20714   3.968   6.847  10.036  0.2686 -1.3484  0.8859
  181SLPC   C2520715   3.987   7.027  10.153  0.3569  0.2228 -0.1325
  181SLPC   H5R20716   4.072   7.028  10.225 -1.5841 -0.7583  2.2962
  181SLPC   H5S20717   3.914   7.091  10.207 -1.8004 -1.4899 -0.8774
  181SLPC   C2620718   4.023   7.098  10.024 -0.5306  0.2858  0.4446
  181SLPC   H6R20719   4.095   7.040   9.962 -0.3765 -0.9810  1.7626
  181SLPC   H6S20720   4.076   7.191  10.054  1.0941 -0.0380 -1.2456
  181SLPC   C2720721   3.909   7.151   9.930 -0.5446  0.6849 -0.1097
  181SLPC   H7R20722   3.846   7.208  10.002  0.7748 -1.1251  2.6170
  181SLPC   H7S20723   3.856   7.068   9.879 -0.4235 -1.2033  2.6514
  181SLPC   C2820724   3.974   7.247   9.829 -0.3410 -0.3929 -0.1331
  181SLPC   H8R20725   4.038   7.190   9.759  0.7146  1.2599 -0.5905
  181SLPC   H8S20726   4.043   7.304   9.896 -4.1884  2.7065  1.6191
  181SLPC   C2920727   3.882   7.332   9.750  0.6927 -0.3180 -0.0939
  181SLPC   H9R20728   3.818   7.405   9.802 -0.9922 -0.9674 -1.1683
  181SLPC  C21020729   3.885   7.331   9.620 -0.0950 -0.1751 -0.7036
  181SLPC  H10R20730   3.807   7.390   9.570 -0.8457 -1.3536 -0.9795
  181SLPC  C21120731   3.967   7.250   9.519 -0.1847  0.1718 -0.4077
  181SLPC  H11R20732   3.929   7.146   9.512  2.1405 -0.9101  1.3703
  181SLPC  H11S20733   4.070   7.227   9.555 -0.3235 -3.5773 -1.9752
  181SLPC  C21220734   3.971   7.306   9.378 -0.1640 -0.6799 -0.4489
  181SLPC  H12R20735   3.970   7.416   9.373  3.0015 -0.4907  0.6576
  181SLPC  C21320736   3.966   7.238   9.265 -0.1084 -0.4622 -0.8760
  181SLPC  H13R20737   3.961   7.305   9.179 -2.7600  0.0532 -0.3902
  181SLPC  C21420738   3.966   7.087   9.243  1.0476  0.8063 -0.5160
  181SLPC  H14R20739   3.883   7.060   9.311  1.4651 -2.7298 -1.2162
  181SLPC  H14S20740   4.060   7.039   9.279  1.0985 -0.7331 -2.5061
  181SLPC  C21520741   3.927   7.036   9.099 -0.0213  0.7990 -0.1274
  181SLPC  H15R20742   3.824   7.072   9.076 -1.2387 -1.3991  1.5329
  181SLPC  H15S20743   3.932   6.926   9.106  1.9066  0.9266  1.0533
  181SLPC  C21620744   4.032   7.081   9.000  0.2410 -0.0354 -0.1116
  181SLPC  H16R20745   4.134   7.064   9.041 -0.7454 -2.8541  1.4095
  181SLPC  H16S20746   4.041   7.190   8.981  2.7874  0.0237  0.9788
  181SLPC  C21720747   4.023   7.006   8.871  0.2896 -0.3839  0.1561
  181SLPC  H17R20748   3.931   7.039   8.818 -0.2744  1.3756  2.1105
  181SLPC  H17S20749   3.992   6.906   8.909 -1.0196  0.1115  0.4500
  181SLPC  C21820750   4.151   6.990   8.783  0.2396 -0.0297  0.1378
  181SLPC  H18R20751   4.241   6.973   8.846 -0.1200  0.0834  0.6876
  181SLPC  H18S20752   4.155   7.084   8.725  1.1183 -0.9512 -1.3737
  181SLPC  H18T20753   4.139   6.902   8.715  0.7849  0.0192 -0.0316
  181SLPC   C3320754   3.317   6.817  10.445 -0.0873 -0.2084 -0.2864
  181SLPC   H3X20755   3.220   6.838  10.396 -0.5984 -3.1898 -0.7248
  181SLPC   H3Y20756   3.314   6.719  10.496  0.9856 -0.2911 -0.3578
  181SLPC   C3420757   3.416   6.813  10.328 -0.3348  0.8111 -0.3745
  181SLPC   H4X20758   3.505   6.753  10.359 -1.6258 -0.7568  0.4630
  181SLPC   H4Y20759   3.441   6.919  10.309  2.1006  0.8946  2.5799
  181SLPC   C3520760   3.353   6.743  10.204  0.2764 -0.4018 -0.5787
  181SLPC   H5X20761   3.266   6.806  10.177  0.9769 -0.1301 -2.3704
  181SLPC   H5Y20762   3.320   6.648  10.250  2.3313  0.5669  3.2782
  181SLPC   C3620763   3.432   6.743  10.077 -0.1168  0.3107  0.4116
  181SLPC   H6X20764   3.491   6.649  10.068 -1.7599 -0.7050 -0.2557
  181SLPC   H6Y20765   3.505   6.827  10.071  1.7280 -1.1155  1.6893
  181SLPC   C3720766   3.348   6.767   9.952 -0.0809 -0.8346 -0.1821
  181SLPC   H7X20767   3.300   6.867   9.956 -0.8324 -1.1062 -1.6218
  181SLPC   H7Y20768   3.272   6.688   9.938 -1.0360  0.3889 -2.4744
  181SLPC   C3820769   3.450   6.757   9.833  0.2207  0.2491 -0.5786
  181SLPC   H8X20770   3.490   6.653   9.832 -1.8367 -0.6249  0.9925
  181SLPC   H8Y20771   3.521   6.838   9.860 -1.3746  1.5185  0.0229
  181SLPC   C3920772   3.378   6.772   9.704 -0.2003  0.5378 -0.3612
  181SLPC   H9X20773   3.296   6.847   9.717 -1.0031 -0.0348 -1.9205
  181SLPC   H9Y20774   3.331   6.676   9.675  0.0657  0.0590  0.7285
  181SLPC  C31020775   3.474   6.811   9.586 -0.7899 -0.0264  0.1825
  181SLPC  H10X20776   3.561   6.742   9.594 -0.3232  0.7385  2.4181
  181SLPC  H10Y20777   3.508   6.917   9.590 -0.4365 -0.1234 -0.2489
  181SLPC  C31120778   3.410   6.793   9.451  0.3116  0.4175 -0.5125
  181SLPC  H11X20779   3.336   6.872   9.425  1.5932  1.1636 -2.0284
  181SLPC  H11Y20780   3.351   6.699   9.450 -0.4957  0.9141 -0.4927
  181SLPC  C31220781   3.506   6.789   9.329  0.1290  0.2646  0.6979
  181SLPC  H12X20782   3.570   6.698   9.333  0.9222  0.6484 -1.6892
  181SLPC  H12Y20783   3.579   6.873   9.326 -0.0981  0.4634 -2.7468
  181SLPC  C31320784   3.436   6.791   9.195 -0.4085 -0.3330 -0.3832
  181SLPC  H13X20785   3.370   6.879   9.183  1.0940  0.7042 -1.3384
  181SLPC  H13Y20786   3.373   6.699   9.191 -0.9822  0.0852 -1.2106
  181SLPC  C31420787   3.532   6.784   9.076  0.5293 -0.5002  0.4022
  181SLPC  H14X20788   3.601   6.697   9.085  0.5681 -0.4274  0.8377
  181SLPC  H14Y20789   3.591   6.878   9.078 -1.6275  0.9324  0.5282
  181SLPC  C31520790   3.457   6.779   8.940 -0.3289  0.1063 -0.3225
  181SLPC  H15X20791   3.386   6.864   8.939  0.2957  0.6409  0.2675
  181SLPC  H15Y20792   3.407   6.680   8.936 -0.0061 -0.0396 -0.7753
  181SLPC  C31620793   3.568   6.794   8.833 -0.5594  0.5768  0.3647
  181SLPC  H16X20794   3.663   6.737   8.840 -0.1971  1.1292  0.0497
  181SLPC  H16Y20795   3.600   6.899   8.845 -3.2189  1.4568  0.3118
  181SLPC  C31720796   3.509   6.772   8.698  0.4535  0.2809  0.9961
  181SLPC  H17X20797   3.432   6.843   8.661  0.0471 -1.1540 -1.0989
  181SLPC  H17Y20798   3.457   6.675   8.711 -0.3561  0.4366 -0.7510
  181SLPC  C31820799   3.617   6.762   8.581  0.5342  0.9227 -0.2007
  181SLPC  H18X20800   3.644   6.865   8.548  0.4476  1.2034  0.5687
  181SLPC  H18Y20801   3.567   6.711   8.497 -4.2951 -0.2065  2.9361
  181SLPC  H18Z20802   3.713   6.713   8.607 -0.1375  0.6210  1.9697
  182SLPC     N20803   1.401   6.464  10.835  0.2967 -0.3275 -0.0322
  182SLPC   C1320804   1.470   6.537  10.950  0.4221  0.4878 -0.6902
  182SLPC  H13A20805   1.471   6.642  10.923  0.4948  0.3875 -1.0734
  182SLPC  H13B20806   1.425   6.519  11.047  1.0945 -0.2694 -0.5134
  182SLPC  H13C20807   1.570   6.497  10.958  0.0285 -0.3474  0.3388
  182SLPC   C1420808   1.268   6.529  10.802 -0.1857  0.6884  0.0004
  182SLPC  H14A20809   1.213   6.531  10.895 -0.9909 -2.4390 -0.3124
  182SLPC  H14B20810   1.270   6.621  10.746 -1.9582 -0.8017 -2.6998
  182SLPC  H14C20811   1.219   6.451  10.746  2.4094 -1.0085 -0.0965
  182SLPC   C1520812   1.375   6.329  10.887  0.5271 -0.7413 -0.0062
  182SLPC  H15A20813   1.357   6.248  10.818  1.5077 -0.8737 -0.1159
  182SLPC  H15B20814   1.470   6.297  10.927  0.3073 -0.2760  0.9335
  182SLPC  H15C20815   1.297   6.326  10.962 -0.7961  2.8528 -1.0191
  182SLPC   C1220816   1.499   6.458  10.716  0.2203 -0.1955 -0.2013
  182SLPC  H12A20817   1.446   6.407  10.637 -0.9422  0.9552 -0.2056
  182SLPC  H12B20818   1.589   6.406  10.746  0.4429  0.6181  0.5843
  182SLPC   C1120819   1.542   6.589  10.661  0.6420  0.3702 -0.0021
  182SLPC  H11A20820   1.450   6.646  10.634  0.8907  0.6393 -0.2768
  182SLPC  H11B20821   1.610   6.581  10.574  0.2191  2.7765 -0.6430
  182SLPC     P20822   1.610   6.815  10.777  0.4049 -0.0138  0.6534
  182SLPC   O1320823   1.469   6.849  10.798  0.4255  0.1090  0.0505
  182SLPC   O1420824   1.693   6.856  10.892 -0.3208  0.0705  0.0973
  182SLPC   O1220825   1.615   6.659  10.764 -0.3023 -0.6581  0.4387
  182SLPC   O1120826   1.663   6.865  10.640 -0.3634  0.0011 -0.0845
  182SLPC    C120827   1.597   6.920  10.531  0.0375  0.8750 -0.4120
  182SLPC    HA20828   1.498   6.958  10.566 -0.3787  0.9310 -1.5955
  182SLPC    HB20829   1.661   7.003  10.495  0.4136  0.5567 -0.4753
  182SLPC    C220830   1.599   6.826  10.410 -0.0068 -0.4561  0.4053
  182SLPC    HS20831   1.536   6.736  10.426 -0.7792  0.0327  0.1748
  182SLPC   O2120832   1.737   6.781  10.388 -0.2791 -0.1500 -0.7027
  182SLPC   C2120833   1.752   6.685  10.304  0.3677  0.7747 -0.2482
  182SLPC   O2220834   1.662   6.616  10.260  0.2915 -0.4816  0.3725
  182SLPC   C2220835   1.901   6.663  10.289  0.1227 -0.5971  0.2007
  182SLPC   H2R20836   1.955   6.648  10.385  2.0151  0.5586 -0.6154
  182SLPC   H2S20837   1.925   6.575  10.226 -0.5542  0.3120 -1.4060
  182SLPC    C320838   1.542   6.909  10.284 -0.7176  0.7054 -0.1988
  182SLPC    HX20839   1.535   6.854  10.188 -2.6593  0.8163 -0.1481
  182SLPC    HY20840   1.623   6.982  10.262  0.2483 -0.3638 -0.2527
  182SLPC   O3120841   1.417   6.979  10.309  0.2841  0.3190  0.1013
  182SLPC   C3120842   1.303   6.908  10.315 -0.3363  0.8387 -0.6763
  182SLPC   O3220843   1.296   6.784  10.313 -0.2227 -0.5544 -0.2355
  182SLPC   C3220844   1.186   7.006  10.328 -0.4114 -0.2395  0.0054
  182SLPC   H2X20845   1.227   7.098  10.281 -0.4412  0.7167  1.7437
  182SLPC   H2Y20846   1.175   7.039  10.434  1.6052  0.2457  0.1074
  182SLPC   C2320847   1.988   6.766  10.205  0.2891  0.6775 -0.4734
  182SLPC   H3R20848   2.091   6.732  10.227  0.2725  1.0058  0.1342
  182SLPC   H3S20849   1.974   6.871  10.240 -1.8298  0.7576 -1.3830
  182SLPC   C2420850   1.971   6.758  10.058  0.1722  0.5713 -0.4620
  182SLPC   H4R20851   1.869   6.794  10.029 -0.3887  0.5016  1.3285
  182SLPC   H4S20852   1.973   6.654  10.018 -0.5528  1.2629 -2.4729
  182SLPC   C2520853   2.088   6.820   9.988  0.1187  0.1780 -0.1193
  182SLPC   H5R20854   2.182   6.768  10.016  1.7523  2.5337 -0.9302
  182SLPC   H5S20855   2.096   6.924  10.028 -0.6346 -0.4266  1.7515
  182SLPC   C2620856   2.065   6.815   9.835 -0.0886  0.9548 -0.0909
  182SLPC   H6R20857   1.971   6.865   9.802 -0.0791 -0.2085 -2.0054
  182SLPC   H6S20858   2.057   6.710   9.801  0.1758  1.1127 -0.6610
  182SLPC   C2720859   2.190   6.864   9.759 -0.0689 -0.7635  0.1348
  182SLPC   H7R20860   2.267   6.785   9.772 -0.4743 -1.3343 -0.8826
  182SLPC   H7S20861   2.230   6.957   9.807 -2.4580  0.1105  0.5885
  182SLPC   C2820862   2.156   6.904   9.615  0.0185  0.0889  0.2486
  182SLPC   H8R20863   2.134   6.812   9.557 -2.4767  0.2907  0.7508
  182SLPC   H8S20864   2.251   6.941   9.571  0.4730 -0.3245  0.8677
  182SLPC   C2920865   2.050   7.012   9.590  0.1561 -0.4682  0.2889
  182SLPC   H9R20866   1.995   7.050   9.677 -0.6209  1.3620 -0.9390
  182SLPC  C21020867   2.025   7.066   9.467 -0.4129  0.0413 -0.0957
  182SLPC  H10R20868   1.949   7.142   9.446  0.2885  0.4497 -1.2658
  182SLPC  C21120869   2.098   7.030   9.336 -0.3975  0.0253 -0.0693
  182SLPC  H11R20870   2.183   6.963   9.361 -0.0210  0.3714 -0.4189
  182SLPC  H11S20871   2.147   7.120   9.294  2.1726  1.0456  4.3859
  182SLPC  C21220872   2.005   6.971   9.236 -0.3997 -0.1768 -0.1377
  182SLPC  H12R20873   1.897   6.963   9.256 -0.5656  0.2103 -0.8710
  182SLPC  C21320874   2.051   6.922   9.120 -0.1091  0.5028 -0.2971
  182SLPC  H13R20875   1.990   6.877   9.041 -0.2208  1.2127 -0.6200
  182SLPC  C21420876   2.199   6.928   9.082 -0.4921  0.0449  0.0647
  182SLPC  H14R20877   2.254   6.832   9.093  0.9092  0.7260 -0.7152
  182SLPC  H14S20878   2.252   7.002   9.147 -2.7282  3.2389 -1.4480
  182SLPC  C21520879   2.223   6.990   8.940  0.0539 -0.0217  0.2523
  182SLPC  H15R20880   2.330   7.004   8.914  0.5347 -2.0314  0.9954
  182SLPC  H15S20881   2.181   7.091   8.920  1.7465  0.0933 -3.4948
  182SLPC  C21620882   2.171   6.909   8.818  0.1128 -0.5035  0.2770
  182SLPC  H16R20883   2.194   6.960   8.722  1.2247 -1.7145 -0.1265
  182SLPC  H16S20884   2.061   6.902   8.832 -0.2825  0.7870 -1.8235
  182SLPC  C21720885   2.218   6.761   8.807  0.6074 -0.1779 -0.4836
  182SLPC  H17R20886   2.213   6.703   8.902  0.8677  2.8793  1.5417
  182SLPC  H17S20887   2.324   6.773   8.777  0.2167  2.6824 -0.9976
  182SLPC  C21820888   2.144   6.684   8.696 -0.3604  0.0119 -0.5686
  182SLPC  H18R20889   2.036   6.677   8.720 -0.6101  1.1735 -1.2928
  182SLPC  H18S20890   2.182   6.580   8.697  1.6081  0.6519  2.3197
  182SLPC  H18T20891   2.145   6.731   8.595 -0.3273  0.6634 -0.2659
  182SLPC   C3320892   1.066   6.948  10.257 -0.2202  0.3145 -0.2342
  182SLPC   H3X20893   0.977   7.011  10.276 -1.4615 -0.4573 -2.9560
  182SLPC   H3Y20894   1.029   6.853  10.303 -0.8050 -0.5871 -2.4169
  182SLPC   C3420895   1.077   6.948  10.104  0.1110 -0.5664  0.0760
  182SLPC   H4X20896   1.165   6.883  10.083 -0.6685 -0.7457 -3.1532
  182SLPC   H4Y20897   1.094   7.051  10.065 -3.4610  0.7414  1.5776
  182SLPC   C3520898   0.953   6.887  10.041 -0.5256 -0.4140 -0.5029
  182SLPC   H5X20899   0.885   6.975  10.036 -1.4087 -1.0359  0.1671
  182SLPC   H5Y20900   0.910   6.813  10.112 -0.7266 -0.3266 -0.5329
  182SLPC   C3620901   0.973   6.832   9.898 -0.3492 -0.0484  0.0682
  182SLPC   H6X20902   0.873   6.828   9.850  0.4159  1.1962 -1.7272
  182SLPC   H6Y20903   1.028   6.736   9.900  0.7783  0.5884  0.4485
  182SLPC   C3720904   1.051   6.926   9.799 -0.0748  0.2566 -0.0655
  182SLPC   H7X20905   1.157   6.941   9.831  0.1374 -0.7820 -0.2532
  182SLPC   H7Y20906   1.005   7.026   9.809  2.0102  1.3544 -0.7933
  182SLPC   C3820907   1.053   6.871   9.654 -0.1450  0.4420  0.7977
  182SLPC   H8X20908   0.947   6.844   9.639  0.0171  0.3015 -0.1548
  182SLPC   H8Y20909   1.116   6.780   9.644 -1.0229 -0.3145  1.8592
  182SLPC   C3920910   1.096   6.973   9.553  0.3876  0.1779  0.0431
  182SLPC   H9X20911   1.199   7.010   9.570 -0.5750  2.4701  1.3420
  182SLPC   H9Y20912   1.029   7.062   9.555 -1.5836 -1.2292  0.5079
  182SLPC  C31020913   1.077   6.921   9.408  0.2726  0.6653  0.3061
  182SLPC  H10X20914   0.977   6.872   9.407  0.8562 -0.5712 -0.4982
  182SLPC  H10Y20915   1.154   6.841   9.396 -0.2567  0.0763  0.7339
  182SLPC  C31120916   1.087   7.023   9.291  0.0602 -0.8579  0.5221
  182SLPC  H11X20917   1.188   7.068   9.280 -0.6230  1.3076  2.4124
  182SLPC  H11Y20918   1.025   7.110   9.320  0.8172 -0.5328  1.1795
  182SLPC  C31220919   1.061   6.954   9.160 -0.7418 -0.2613  0.7186
  182SLPC  H12X20920   1.002   6.862   9.180 -0.1959 -0.7397  0.1792
  182SLPC  H12Y20921   1.159   6.926   9.115 -0.1646  1.0021  1.1532
  182SLPC  C31320922   1.001   7.052   9.052 -0.0676 -1.1020  0.2640
  182SLPC  H13X20923   0.942   7.132   9.102 -0.7621 -0.7307 -1.0859
  182SLPC  H13Y20924   0.920   6.997   9.000 -1.2703  0.7610  0.0508
  182SLPC  C31420925   1.103   7.115   8.960 -0.0001  0.2230 -0.3173
  182SLPC  H14X20926   1.164   7.028   8.927  0.3881  0.2477  0.3199
  182SLPC  H14Y20927   1.180   7.174   9.015  0.6229 -0.2241 -0.7005
  182SLPC  C31520928   1.038   7.202   8.846  0.1223 -0.3039 -0.1610
  182SLPC  H15X20929   0.984   7.288   8.890 -0.6064 -0.1413 -1.3185
  182SLPC  H15Y20930   0.966   7.137   8.791 -0.8287 -0.1133  0.8245
  182SLPC  C31620931   1.140   7.266   8.748 -0.2037 -0.4150  0.3827
  182SLPC  H16X20932   1.206   7.184   8.711  0.1086 -0.2753  0.6260
  182SLPC  H16Y20933   1.208   7.335   8.802  1.5891  0.3347 -2.5775
  182SLPC  C31720934   1.076   7.349   8.634  0.4806  0.1009 -0.6008
  182SLPC  H17X20935   1.023   7.428   8.693 -0.3152 -0.0562 -1.0884
  182SLPC  H17Y20936   0.994   7.288   8.591 -1.7724  2.2083  0.4191
  182SLPC  C31820937   1.170   7.387   8.528  0.1487  0.8015  0.0049
  182SLPC  H18X20938   1.128   7.435   8.438  1.6967  1.5976 -0.3371
  182SLPC  H18Y20939   1.219   7.294   8.491  0.2932  1.5740 -1.8598
  182SLPC  H18Z20940   1.254   7.454   8.558  0.3807  1.6683 -2.3581
  183SLPC     N20941   2.810   3.349  10.614  0.1993 -0.4708  0.6586
  183SLPC   C1320942   2.786   3.488  10.654 -0.4936  0.4574 -0.8922
  183SLPC  H13A20943   2.878   3.543  10.667 -0.0991  0.0168 -1.7932
  183SLPC  H13B20944   2.722   3.537  10.582 -1.5507 -2.0883 -1.7961
  183SLPC  H13C20945   2.729   3.498  10.746 -0.6464 -1.5528 -0.7433
  183SLPC   C1420946   2.928   3.306  10.694  0.2311 -0.0103  0.6632
  183SLPC  H14A20947   2.912   3.322  10.799  1.3627 -2.5484  1.2993
  183SLPC  H14B20948   2.944   3.201  10.672  0.2142  0.2847 -0.8649
  183SLPC  H14C20949   3.018   3.354  10.657  1.2556 -2.0962  0.2582
  183SLPC   C1520950   2.844   3.339  10.472  0.4775  0.5397  0.2220
  183SLPC  H15A20951   2.879   3.242  10.438  0.1699 -0.1186  1.7126
  183SLPC  H15B20952   2.769   3.362  10.398  1.1111  1.4096 -0.1656
  183SLPC  H15C20953   2.922   3.409  10.447  0.3576 -0.0474 -2.0626
  183SLPC   C1220954   2.697   3.260  10.655  0.3902 -0.0310  0.2370
  183SLPC  H12A20955   2.606   3.287  10.603 -0.0767 -2.1011 -0.1236
  183SLPC  H12B20956   2.678   3.271  10.760  0.4556 -0.3207  0.2798
  183SLPC   C1120957   2.703   3.107  10.639 -0.1494  0.5406  0.5521
  183SLPC  H11A20958   2.722   3.099  10.530  0.5222 -1.7320  0.7920
  183SLPC  H11B20959   2.600   3.068  10.650 -0.6157  1.7253  0.5090
  183SLPC     P20960   2.804   2.878  10.737  0.2192  0.3356 -0.2220
  183SLPC   O1320961   2.885   2.844  10.857 -0.6595  0.4256  0.1416
  183SLPC   O1420962   2.667   2.821  10.741 -0.0820  0.0558  0.1224
  183SLPC   O1220963   2.799   3.034  10.717 -0.1677 -0.1802 -0.0542
  183SLPC   O1120964   2.873   2.824  10.606  0.1757 -0.0250 -0.6740
  183SLPC    C120965   3.015   2.864  10.596  0.2515  0.5740  0.4263
  183SLPC    HA20966   3.064   2.903  10.687 -0.9979  3.0570  0.0973
  183SLPC    HB20967   3.066   2.771  10.560 -3.3849 -1.3781 -0.1818
  183SLPC    C220968   3.037   2.964  10.478 -0.9251  0.3131  0.6604
  183SLPC    HS20969   2.971   3.051  10.499 -1.3991  0.0515  0.2799
  183SLPC   O2120970   2.985   2.888  10.367  0.4336  0.3486  0.2260
  183SLPC   C2120971   2.914   2.955  10.279 -1.1584 -0.8326 -0.0898
  183SLPC   O2220972   2.876   3.069  10.298 -0.4920  0.0804 -0.2135
  183SLPC   C2220973   2.911   2.876  10.155 -0.0356  0.5496  0.1910
  183SLPC   H2R20974   2.993   2.905  10.087  0.1616  5.2351  2.0798
  183SLPC   H2S20975   2.909   2.767  10.179 -1.3675  0.3099 -0.8367
  183SLPC    C320976   3.183   3.011  10.454 -0.0605  0.5221 -0.0580
  183SLPC    HX20977   3.243   2.918  10.454  1.4423  1.4596  0.3724
  183SLPC    HY20978   3.206   3.082  10.536  1.8514  1.6701 -1.4991
  183SLPC   O3120979   3.215   3.078  10.325 -0.0430  0.2461  1.0678
  183SLPC   C3120980   3.182   3.200  10.312 -0.0954  0.0614  0.8638
  183SLPC   O3220981   3.133   3.271  10.397  0.0206 -0.0829 -0.3443
  183SLPC   C3220982   3.221   3.249  10.172  0.4022 -0.0313 -0.3168
  183SLPC   H2X20983   3.331   3.264  10.172  0.4420  0.0387  2.1794
  183SLPC   H2Y20984   3.181   3.351  10.160  0.9567  0.2564  0.2411
  183SLPC   C2320985   2.787   2.909  10.075 -0.2544 -0.5151  0.2679
  183SLPC   H3R20986   2.775   2.850   9.982 -0.1412 -0.0916 -0.0178
  183SLPC   H3S20987   2.786   3.017  10.047 -2.2216 -0.5774 -0.1016
  183SLPC   C2420988   2.651   2.878  10.146 -0.0352  0.1010 -0.4777
  183SLPC   H4R20989   2.657   2.920  10.249  0.8180  0.6648 -0.7498
  183SLPC   H4S20990   2.647   2.768  10.163  0.0431  0.0525 -0.7680
  183SLPC   C2520991   2.528   2.913  10.060  0.4670  0.1997  0.0093
  183SLPC   H5R20992   2.441   2.886  10.122  0.3960  0.9328  0.2317
  183SLPC   H5S20993   2.528   2.848   9.969  0.5765 -1.1776  0.9598
  183SLPC   C2620994   2.518   3.062  10.000  0.2397  0.5659 -0.1825
  183SLPC   H6R20995   2.595   3.070   9.919 -0.2183  1.6071 -0.5318
  183SLPC   H6S20996   2.557   3.129  10.080 -1.7593 -0.0051  1.3427
  183SLPC   C2720997   2.382   3.108   9.967  0.6297  0.0807 -0.1763
  183SLPC   H7R20998   2.389   3.213   9.933 -1.1972 -0.1221 -1.3412
  183SLPC   H7S20999   2.324   3.113  10.062  1.0957 -0.6017  0.1489
  183SLPC   C2821000   2.309   3.029   9.850  0.0056  0.2078 -0.1703
  183SLPC   H8R21001   2.208   3.073   9.844  0.5948  1.7129  0.3386
  183SLPC   H8S21002   2.302   2.922   9.881  0.4743  0.3925  0.6157
  183SLPC   C2921003   2.376   3.046   9.715 -0.5234  0.3883 -0.0060
  183SLPC   H9R21004   2.403   3.153   9.710 -0.7604  0.5044  0.9072
  183SLPC  C21021005   2.452   2.954   9.645  0.1585  0.1190  0.1316
  183SLPC  H10R21006   2.512   2.992   9.561 -2.4720  1.4904 -1.2335
  183SLPC  C21121007   2.478   2.816   9.684  0.1898  0.7761  0.4997
  183SLPC  H11R21008   2.386   2.774   9.729  0.2312 -0.2444 -0.3335
  183SLPC  H11S21009   2.557   2.799   9.759  2.5842 -0.9162 -2.1910
  183SLPC  C21221010   2.517   2.722   9.572  0.5543 -0.6227  0.4024
  183SLPC  H12R21011   2.440   2.643   9.560  2.8693 -3.4158  2.4001
  183SLPC  C21321012   2.626   2.726   9.493  0.7032 -0.6361  1.0338
  183SLPC  H13R21013   2.638   2.648   9.417  0.9595 -0.3863  0.8177
  183SLPC  C21421014   2.733   2.828   9.505  0.8605 -0.1678  0.0557
  183SLPC  H14R21015   2.832   2.778   9.491 -0.2575 -3.3075  2.3174
  183SLPC  H14S21016   2.729   2.874   9.606 -3.5169  0.8739 -0.4216
  183SLPC  C21521017   2.723   2.941   9.391 -0.0702  0.3222 -0.2022
  183SLPC  H15R21018   2.803   3.016   9.408 -1.2843  1.5879  0.0807
  183SLPC  H15S21019   2.624   2.987   9.408 -0.4775 -1.2927  2.3370
  183SLPC  C21621020   2.727   2.877   9.251  0.3680 -0.0047  0.0681
  183SLPC  H16R21021   2.684   2.943   9.173 -1.6400 -0.1189  1.0071
  183SLPC  H16S21022   2.661   2.787   9.260 -0.1845  0.4431  0.5734
  183SLPC  C21721023   2.863   2.851   9.201  0.0332 -0.3753  0.4264
  183SLPC  H17R21024   2.920   2.791   9.275  1.6497 -1.9387 -1.9240
  183SLPC  H17S21025   2.907   2.953   9.190 -0.0476 -0.0785  2.4632
  183SLPC  C21821026   2.857   2.784   9.065  0.1733  0.4765  0.4589
  183SLPC  H18R21027   2.792   2.854   9.009 -1.2435 -0.1592  1.2577
  183SLPC  H18S21028   2.800   2.689   9.079 -2.7676  2.0584  0.0458
  183SLPC  H18T21029   2.955   2.770   9.014  1.2278 -1.2735  2.7661
  183SLPC   C3321030   3.176   3.166  10.049 -0.9694 -0.1304 -0.5761
  183SLPC   H3X21031   3.169   3.058  10.073  1.2253 -0.2295 -0.2220
  183SLPC   H3Y21032   3.253   3.170   9.970 -1.7451  0.9825 -1.3075
  183SLPC   C3421033   3.043   3.212   9.987 -0.0508 -0.0852  0.4959
  183SLPC   H4X21034   3.029   3.322   9.995  0.8124  0.1164 -0.6113
  183SLPC   H4Y21035   2.965   3.171  10.055 -0.4670 -0.6913 -0.3386
  183SLPC   C3521036   3.011   3.159   9.844 -0.7677  0.1860  0.4372
  183SLPC   H5X21037   2.902   3.174   9.827 -1.7524 -4.0342  1.9250
  183SLPC   H5Y21038   3.031   3.050   9.837  0.2230  0.4036 -0.4230
  183SLPC   C3621039   3.097   3.223   9.737  0.0813  0.1474  0.1102
  183SLPC   H6X21040   3.197   3.175   9.749  0.1540 -0.0999 -1.3117
  183SLPC   H6Y21041   3.093   3.333   9.747  2.7357  0.4211 -1.0392
  183SLPC   C3721042   3.037   3.198   9.601  0.2169  0.4982 -0.6826
  183SLPC   H7X21043   2.944   3.257   9.608  0.1742  0.2512  1.5369
  183SLPC   H7Y21044   3.014   3.090   9.586 -0.2422  0.7232 -1.6783
  183SLPC   C3821045   3.129   3.233   9.478 -0.2509  0.0101 -0.3468
  183SLPC   H8X21046   3.230   3.188   9.479 -0.3314 -0.1901  1.1466
  183SLPC   H8Y21047   3.137   3.344   9.484 -0.5371  0.0024  0.3581
  183SLPC   C3921048   3.069   3.177   9.351 -0.6611 -0.3066 -1.3712
  183SLPC   H9X21049   2.968   3.221   9.335 -0.4485 -0.3943 -3.0816
  183SLPC   H9Y21050   3.055   3.067   9.357 -0.9390 -0.2324 -0.4618
  183SLPC  C31021051   3.153   3.207   9.235 -0.0990 -0.2830  0.6225
  183SLPC  H10X21052   3.255   3.167   9.255  0.8067  1.7557  0.3084
  183SLPC  H10Y21053   3.148   3.318   9.228  1.2900 -0.2339  0.1671
  183SLPC  C31121054   3.086   3.146   9.115 -0.1168  1.0315  0.7476
  183SLPC  H11X21055   2.979   3.174   9.113 -0.2942  0.3919 -1.3538
  183SLPC  H11Y21056   3.093   3.035   9.115 -0.4305  1.0097  0.3838
  183SLPC  C31221057   3.136   3.217   8.986  0.1627 -0.1449 -0.0147
  183SLPC  H12X21058   3.243   3.193   8.997 -0.0447 -1.1174 -0.0556
  183SLPC  H12Y21059   3.112   3.326   8.986  1.3876  0.1352  0.6453
  183SLPC  C31321060   3.077   3.167   8.847 -0.0268  0.0294 -0.0294
  183SLPC  H13X21061   3.141   3.213   8.769 -1.8683  2.2929 -0.3050
  183SLPC  H13Y21062   2.974   3.205   8.829 -0.1300  0.0898  0.6481
  183SLPC  C31421063   3.083   3.009   8.825  0.2889  0.1918 -0.5920
  183SLPC  H14X21064   3.005   2.963   8.889 -0.7047 -0.4217 -2.1982
  183SLPC  H14Y21065   3.180   2.974   8.866  0.3313 -0.6212 -1.3455
  183SLPC  C31521066   3.059   2.960   8.683 -0.3175  0.4442 -0.5135
  183SLPC  H15X21067   3.123   3.018   8.614 -1.0312  1.4111 -0.3873
  183SLPC  H15Y21068   2.956   2.998   8.666 -0.4148  0.0361 -0.8494
  183SLPC  C31621069   3.071   2.810   8.647 -0.2750  0.2079 -0.7078
  183SLPC  H16X21070   3.012   2.751   8.721  0.2823 -1.2283 -1.3672
  183SLPC  H16Y21071   3.177   2.780   8.659 -1.0385 -1.9881  1.4387
  183SLPC  C31721072   3.032   2.800   8.503  0.2069  0.0188  0.2179
  183SLPC  H17X21073   2.944   2.864   8.482  0.3793 -0.1742 -1.1860
  183SLPC  H17Y21074   3.007   2.694   8.479  1.4138 -0.2345 -0.0033
  183SLPC  C31821075   3.147   2.841   8.413 -0.5034 -0.3877 -0.1196
  183SLPC  H18X21076   3.242   2.786   8.431  0.3039  1.3167  1.0687
  183SLPC  H18Y21077   3.176   2.947   8.424  1.0014 -0.7740 -0.2420
  183SLPC  H18Z21078   3.116   2.821   8.308 -1.5846 -0.5936  0.2212
  184SLPC     N21079   5.661   6.372  10.939 -0.0704 -0.4202 -0.3152
  184SLPC   C1321080   5.571   6.321  10.836 -0.0288 -0.1890  0.1395
  184SLPC  H13A21081   5.470   6.358  10.848  0.3169  0.2598  1.9038
  184SLPC  H13B21082   5.598   6.354  10.737  0.8182 -0.4948  0.2623
  184SLPC  H13C21083   5.572   6.213  10.843  0.4768 -0.1687  0.4494
  184SLPC   C1421084   5.806   6.330  10.911 -0.6575 -0.9338 -0.1957
  184SLPC  H14A21085   5.876   6.376  10.980  1.2653 -1.5589 -1.6402
  184SLPC  H14B21086   5.815   6.223  10.924  1.2599 -1.1343 -2.4935
  184SLPC  H14C21087   5.837   6.354  10.810 -0.6344  1.4580  0.3074
  184SLPC   C1521088   5.629   6.311  11.069 -0.2128 -0.5668  0.3676
  184SLPC  H15A21089   5.658   6.368  11.156 -3.0644  0.7071  0.5763
  184SLPC  H15B21090   5.522   6.307  11.079 -0.3058  0.0116 -0.2611
  184SLPC  H15C21091   5.668   6.210  11.070 -1.2928 -1.0305 -0.8466
  184SLPC   C1221092   5.655   6.525  10.955 -0.4943  1.0281 -0.5739
  184SLPC  H12A21093   5.725   6.550  11.034 -0.5998  0.8937 -0.4391
  184SLPC  H12B21094   5.559   6.555  10.993 -1.4290 -0.8492 -1.3445
  184SLPC   C1121095   5.689   6.607  10.830  0.3120  0.6513  0.3456
  184SLPC  H11A21096   5.764   6.551  10.771  1.2664  0.0614  2.0858
  184SLPC  H11B21097   5.734   6.704  10.861  0.3951  0.2432  1.5469
  184SLPC     P21098   5.554   6.701  10.626  0.0235 -0.4134  0.0268
  184SLPC   O1321099   5.504   6.595  10.532 -0.3029 -0.3102 -0.6665
  184SLPC   O1421100   5.469   6.819  10.649 -0.2976 -0.2177  0.1127
  184SLPC   O1221101   5.564   6.619  10.762  0.6847 -0.5458 -0.8634
  184SLPC   O1121102   5.699   6.747  10.590 -0.4474 -0.1055  0.0980
  184SLPC    C121103   5.782   6.666  10.506 -0.3763 -0.1161 -0.2381
  184SLPC    HA21104   5.887   6.696  10.528 -0.4862 -1.0464  1.8697
  184SLPC    HB21105   5.784   6.560  10.541  0.9418  0.3697  1.2968
  184SLPC    C221106   5.769   6.663  10.352  0.1506  0.0895 -0.1617
  184SLPC    HS21107   5.865   6.692  10.304  0.1378 -0.5966 -0.6168
  184SLPC   O2121108   5.663   6.756  10.324  0.2582 -0.3616  0.3129
  184SLPC   C2121109   5.702   6.882  10.333  0.1338  0.5947  0.4957
  184SLPC   O2221110   5.816   6.923  10.346  0.3167  0.7873 -0.6508
  184SLPC   C2221111   5.580   6.978  10.309 -0.2562  0.6908  0.2332
  184SLPC   H2R21112   5.504   6.945  10.383 -0.5036 -2.3258 -1.2313
  184SLPC   H2S21113   5.607   7.082  10.338 -4.6931  2.1649 -0.0701
  184SLPC    C321114   5.745   6.523  10.292  0.0914 -0.3431  0.0750
  184SLPC    HX21115   5.647   6.491  10.335 -1.0376 -1.8066 -3.2114
  184SLPC    HY21116   5.815   6.450  10.337 -0.3756  0.4048  2.0861
  184SLPC   O3121117   5.756   6.513  10.142  0.2336  0.5397 -0.2111
  184SLPC   C3121118   5.647   6.485  10.065 -0.1058 -0.3766 -0.2389
  184SLPC   O3221119   5.531   6.461  10.100  0.0821 -0.2106  0.3394
  184SLPC   C3221120   5.695   6.487   9.920  0.9284 -0.1432  0.4426
  184SLPC   H2X21121   5.766   6.404   9.902  1.4939  0.4353 -0.0117
  184SLPC   H2Y21122   5.755   6.579   9.904  0.4394  0.2541  0.8104
  184SLPC   C2321123   5.512   6.969  10.175 -0.9755 -0.7656 -0.1784
  184SLPC   H3R21124   5.417   7.027  10.169 -1.2789 -1.2430 -0.0940
  184SLPC   H3S21125   5.481   6.864  10.154 -2.6176 -0.5755  1.0541
  184SLPC   C2421126   5.612   7.021  10.070  0.3492  1.1306 -0.6792
  184SLPC   H4R21127   5.704   6.961  10.055 -1.0785 -0.7440 -2.5391
  184SLPC   H4S21128   5.653   7.110  10.122  1.5856 -0.6961  1.6758
  184SLPC   C2521129   5.548   7.064   9.932  0.2363  0.6058 -0.3338
  184SLPC   H5R21130   5.612   7.142   9.885  2.0173 -0.6510 -0.0864
  184SLPC   H5S21131   5.443   7.100   9.926 -0.1702 -0.7580 -2.1880
  184SLPC   C2621132   5.552   6.944   9.834 -0.0098  0.8353  1.0324
  184SLPC   H6R21133   5.476   6.867   9.859 -3.5088  3.1344 -1.5837
  184SLPC   H6S21134   5.649   6.890   9.834 -1.4010 -1.8429  1.2854
  184SLPC   C2721135   5.531   6.981   9.689 -0.5973 -0.4627 -0.1683
  184SLPC   H7R21136   5.616   7.046   9.659 -1.0292 -0.1221 -0.6636
  184SLPC   H7S21137   5.437   7.039   9.684 -0.2265  0.1645  0.0272
  184SLPC   C2821138   5.528   6.873   9.578  0.2620 -0.7558  1.0648
  184SLPC   H8R21139   5.465   6.788   9.610 -2.5281  0.7229 -0.0932
  184SLPC   H8S21140   5.616   6.809   9.561  0.1980 -0.2443 -1.5743
  184SLPC   C2921141   5.476   6.935   9.445  0.5181 -0.6934 -1.1509
  184SLPC   H9R21142   5.548   6.963   9.368  0.1697  1.2477 -0.8233
  184SLPC  C21021143   5.355   6.985   9.426  0.2684 -0.2064  0.8554
  184SLPC  H10R21144   5.326   7.017   9.324 -0.8157 -0.5679  1.0392
  184SLPC  C21121145   5.243   6.996   9.515  0.2658  0.1178 -0.2587
  184SLPC  H11R21146   5.238   7.101   9.549  1.1199 -0.2384  1.0203
  184SLPC  H11S21147   5.267   6.927   9.599  0.4486  0.2394 -0.2123
  184SLPC  C21221148   5.111   6.961   9.456 -0.3660 -0.2668  0.3941
  184SLPC  H12R21149   5.112   6.855   9.427  0.5715  0.4916 -2.7244
  184SLPC  C21321150   5.014   7.038   9.412  0.1645  0.2859  0.0805
  184SLPC  H13R21151   4.919   6.997   9.375 -0.2976  0.7316  0.7520
  184SLPC  C21421152   5.016   7.186   9.416 -0.3278  1.0642 -0.0586
  184SLPC  H14R21153   4.993   7.219   9.312 -1.4937 -0.7831 -0.4416
  184SLPC  H14S21154   5.107   7.241   9.449  0.6014 -0.1746 -0.4846
  184SLPC  C21521155   4.898   7.228   9.503  0.8123  0.5050  0.0080
  184SLPC  H15R21156   4.904   7.339   9.507  3.2174  0.5296 -2.0544
  184SLPC  H15S21157   4.915   7.194   9.607 -2.1986  0.6509  0.6642
  184SLPC  C21621158   4.753   7.176   9.458 -0.4957 -0.1635  0.3081
  184SLPC  H16R21159   4.761   7.065   9.456  2.3942 -0.1011  2.3760
  184SLPC  H16S21160   4.732   7.213   9.355 -0.7008  0.3447  0.5312
  184SLPC  C21721161   4.647   7.227   9.549 -0.3456 -0.0230 -0.2166
  184SLPC  H17R21162   4.660   7.336   9.569  2.9139 -0.6055  1.4742
  184SLPC  H17S21163   4.661   7.181   9.649 -1.1009 -1.4609 -0.7370
  184SLPC  C21821164   4.505   7.198   9.505  0.1403 -0.7651  0.1409
  184SLPC  H18R21165   4.481   7.092   9.485 -0.4894 -0.6439  0.2230
  184SLPC  H18S21166   4.486   7.236   9.402 -1.1481 -1.1444  0.2121
  184SLPC  H18T21167   4.422   7.227   9.574 -1.3932  1.1972 -2.3117
  184SLPC   C3321168   5.586   6.486   9.812  0.1504  1.1975  0.6363
  184SLPC   H3X21169   5.510   6.565   9.830 -0.2756  0.6794  1.1440
  184SLPC   H3Y21170   5.528   6.392   9.826  0.6569  1.1103  2.5057
  184SLPC   C3421171   5.617   6.506   9.652  0.9069  0.3106 -0.7417
  184SLPC   H4X21172   5.687   6.592   9.642  1.6553 -0.3329 -1.1807
  184SLPC   H4Y21173   5.523   6.519   9.595 -0.1593  2.0703  1.2833
  184SLPC   C3521174   5.695   6.388   9.594 -0.4898  0.9590 -0.5924
  184SLPC   H5X21175   5.649   6.287   9.604 -0.5816  1.0515 -0.0621
  184SLPC   H5Y21176   5.790   6.372   9.650 -0.7699  0.0489 -0.3580
  184SLPC   C3621177   5.717   6.392   9.445 -0.0384 -0.0045  1.1174
  184SLPC   H6X21178   5.784   6.308   9.418 -1.6383 -1.2051  0.7548
  184SLPC   H6Y21179   5.788   6.477   9.433  0.7341 -0.9057 -1.3085
  184SLPC   C3721180   5.594   6.414   9.354  0.2436 -0.4483  0.0116
  184SLPC   H7X21181   5.540   6.495   9.407 -0.1019 -1.0051  0.5167
  184SLPC   H7Y21182   5.526   6.326   9.354 -0.1694 -0.1602 -1.4515
  184SLPC   C3821183   5.634   6.443   9.213 -0.3645  0.0111 -0.3503
  184SLPC   H8X21184   5.718   6.513   9.197 -0.9226  0.6167 -0.6681
  184SLPC   H8Y21185   5.552   6.489   9.154  1.2493  1.9983 -1.1477
  184SLPC   C3921186   5.674   6.317   9.131  0.6557 -0.0532 -0.1745
  184SLPC   H9X21187   5.600   6.239   9.159 -1.0471  1.8953  1.0921
  184SLPC   H9Y21188   5.778   6.285   9.152  0.4606  1.1360  3.2649
  184SLPC  C31021189   5.662   6.347   8.982  0.5718  0.2055  0.1793
  184SLPC  H10X21190   5.687   6.454   8.964  1.0283 -0.2111 -1.9819
  184SLPC  H10Y21191   5.555   6.352   8.952  0.2811  2.5280  1.3685
  184SLPC  C31121192   5.740   6.247   8.900 -0.3344  0.0149 -0.0297
  184SLPC  H11X21193   5.708   6.145   8.931 -1.0551  0.7935  1.9029
  184SLPC  H11Y21194   5.848   6.269   8.912 -0.7268  1.5947  0.9035
  184SLPC  C31221195   5.716   6.261   8.746  0.6218  0.3983  0.2295
  184SLPC  H12X21196   5.646   6.345   8.723 -0.5586 -0.6053  0.0851
  184SLPC  H12Y21197   5.653   6.173   8.723  0.4523  0.6724 -0.3817
  184SLPC  C31321198   5.840   6.262   8.663  0.4140  0.9115  0.2364
  184SLPC  H13X21199   5.887   6.161   8.661 -0.7898  0.3393  0.3413
  184SLPC  H13Y21200   5.915   6.336   8.696 -0.1551  1.2986  0.6620
  184SLPC  C31421201   5.812   6.298   8.518  0.0211  0.3561 -0.0208
  184SLPC  H14X21202   5.713   6.261   8.484  0.4568 -1.5410  0.6424
  184SLPC  H14Y21203   5.892   6.263   8.449  1.2590  1.1276  0.9809
  184SLPC  C31521204   5.812   6.454   8.502  0.2077  0.1881 -0.0194
  184SLPC  H15X21205   5.916   6.482   8.531  0.3598  0.3395 -0.7007
  184SLPC  H15Y21206   5.739   6.506   8.567  0.9361  1.9927 -0.5747
  184SLPC  C31621207   5.791   6.505   8.355 -0.1192 -0.3196 -0.6425
  184SLPC  H16X21208   5.690   6.472   8.323 -0.8021 -0.1825  1.2689
  184SLPC  H16Y21209   5.854   6.446   8.284 -1.0686 -1.0411 -0.8997
  184SLPC  C31721210   5.798   6.655   8.326 -0.5229 -0.4904 -0.3547
  184SLPC  H17X21211   5.709   6.708   8.364  0.3677  0.2704  0.7578
  184SLPC  H17Y21212   5.802   6.678   8.217 -0.3906  1.2852 -0.0014
  184SLPC  C31821213   5.905   6.738   8.397 -0.1866  0.5066  0.5308
  184SLPC  H18X21214   5.926   6.838   8.352 -0.0554  1.9576  3.5853
  184SLPC  H18Y21215   6.001   6.689   8.370 -1.3422 -1.4083 -0.2911
  184SLPC  H18Z21216   5.897   6.742   8.507 -1.7628  1.9345  0.4219
  185SLPC     N21217   0.793   6.098   5.823  0.2474  0.1622  0.0056
  185SLPC   C1321218   0.797   6.202   5.940  0.0643  0.7504  0.4082
  185SLPC  H13A21219   0.740   6.165   6.024 -0.8689  0.1213 -0.4795
  185SLPC  H13B21220   0.901   6.204   5.970 -0.0579 -0.3680  0.9629
  185SLPC  H13C21221   0.761   6.300   5.914  3.1835  2.0501  0.5926
  185SLPC   C1421222   0.834   6.165   5.697 -0.1994  0.1918 -0.4916
  185SLPC  H14A21223   0.793   6.109   5.615 -2.7298 -0.3892  1.0397
  185SLPC  H14B21224   0.780   6.259   5.696 -0.0635  0.3008  0.5990
  185SLPC  H14C21225   0.935   6.204   5.690 -0.5045  0.7412 -2.1400
  185SLPC   C1521226   0.649   6.048   5.819 -0.0437  1.0187 -0.3914
  185SLPC  H15A21227   0.579   6.123   5.784 -0.0302  1.1438 -0.1567
  185SLPC  H15B21228   0.637   5.963   5.754 -1.0602 -1.1142  2.4157
  185SLPC  H15C21229   0.624   6.010   5.917  1.0851 -0.9771 -0.8412
  185SLPC   C1221230   0.884   5.982   5.862 -0.2832 -0.2401  0.1329
  185SLPC  H12A21231   0.985   6.008   5.833 -0.4447  0.6202  0.3160
  185SLPC  H12B21232   0.859   5.893   5.807  3.0165 -2.4868  1.9323
  185SLPC   C1121233   0.890   5.931   6.005  0.2730  0.5252 -0.1481
  185SLPC  H11A21234   0.941   6.013   6.059  0.7431  0.0007  0.2187
  185SLPC  H11B21235   0.955   5.841   5.998  0.7579  0.7374  1.2850
  185SLPC     P21236   0.735   5.926   6.209 -0.3265 -0.0852 -0.2594
  185SLPC   O1321237   0.597   5.897   6.230 -0.2820  0.8498  0.2125
  185SLPC   O1421238   0.840   5.857   6.289 -0.0827 -0.4741 -0.1137
  185SLPC   O1221239   0.764   5.896   6.055  0.0077 -0.6698  0.5910
  185SLPC   O1121240   0.769   6.076   6.211  0.1153 -0.3304 -0.0763
  185SLPC    C121241   0.674   6.169   6.270  0.2148 -0.3987  0.1639
  185SLPC    HA21242   0.677   6.265   6.214 -0.8307  0.0444  0.8369
  185SLPC    HB21243   0.567   6.140   6.272  0.2797 -0.9249 -1.9256
  185SLPC    C221244   0.713   6.200   6.419 -0.1084 -0.2848  0.0000
  185SLPC    HS21245   0.823   6.217   6.422 -0.4100  2.3469 -1.3091
  185SLPC   O2121246   0.660   6.095   6.503  0.3704  0.3437  0.0447
  185SLPC   C2121247   0.732   6.095   6.621  0.4429  0.8550 -0.0522
  185SLPC   O2221248   0.827   6.166   6.644  0.1993 -0.0890  0.5015
  185SLPC   C2221249   0.658   6.007   6.731 -0.0207 -0.4291  0.4133
  185SLPC   H2R21250   0.551   6.018   6.702  0.5175 -1.9596 -2.5227
  185SLPC   H2S21251   0.685   5.901   6.710 -1.9967 -0.6525 -1.2956
  185SLPC    C321252   0.649   6.335   6.439  0.2130  0.1715 -0.3700
  185SLPC    HX21253   0.539   6.331   6.431  0.0033 -1.2392  2.3242
  185SLPC    HY21254   0.684   6.406   6.360  0.1887 -0.3337 -0.8450
  185SLPC   O3121255   0.681   6.392   6.565 -0.3921  0.7455 -0.2132
  185SLPC   C3121256   0.794   6.465   6.562 -0.5527  0.1592 -0.5207
  185SLPC   O3221257   0.859   6.483   6.461 -0.1648 -0.0844 -0.2262
  185SLPC   C3221258   0.820   6.516   6.698 -0.6160  0.2386 -0.7953
  185SLPC   H2X21259   0.797   6.427   6.761  1.5364 -1.2935 -2.0502
  185SLPC   H2Y21260   0.749   6.595   6.730 -1.0322 -0.9209  1.3765
  185SLPC   C2321261   0.695   6.044   6.875  0.4324 -0.4156  1.1268
  185SLPC   H3R21262   0.616   6.021   6.951  0.3488 -1.4697  0.7405
  185SLPC   H3S21263   0.706   6.154   6.882  0.0753 -0.2509 -0.6095
  185SLPC   C2421264   0.825   5.973   6.924 -0.2998 -0.3858 -0.7474
  185SLPC   H4R21265   0.894   6.001   6.842 -3.3714  1.1729 -3.0035
  185SLPC   H4S21266   0.813   5.863   6.929 -0.8541 -0.3909 -1.9771
  185SLPC   C2521267   0.866   6.026   7.067 -0.7453  0.3481  0.4293
  185SLPC   H5R21268   0.951   5.967   7.108 -1.0123 -1.2090 -1.1562
  185SLPC   H5S21269   0.790   6.011   7.146  0.0327  1.3133  1.3987
  185SLPC   C2621270   0.916   6.165   7.071  0.4648 -0.1773  0.1736
  185SLPC   H6R21271   0.838   6.241   7.048  2.0113  1.4439  0.0681
  185SLPC   H6S21272   0.987   6.185   6.987 -0.0081 -0.3190 -0.2675
  185SLPC   C2721273   0.987   6.210   7.201  0.0319 -0.1197  0.0709
  185SLPC   H7R21274   1.023   6.312   7.177 -1.4803  0.1451 -1.2047
  185SLPC   H7S21275   1.075   6.144   7.211 -0.0343 -0.1113  0.8084
  185SLPC   C2821276   0.900   6.204   7.331  0.1661 -0.2557  0.6951
  185SLPC   H8R21277   0.890   6.094   7.337  3.4347 -0.6157  2.0133
  185SLPC   H8S21278   0.807   6.264   7.319  0.2559 -0.2905 -0.2037
  185SLPC   C2921279   0.977   6.255   7.439 -0.0174 -0.6203 -0.0153
  185SLPC   H9R21280   1.005   6.360   7.429  0.0925 -0.6303  0.1815
  185SLPC  C21021281   1.005   6.193   7.555 -0.5184 -0.5845 -0.2404
  185SLPC  H10R21282   1.069   6.243   7.629 -1.6337  2.7573 -1.3251
  185SLPC  C21121283   0.957   6.055   7.591 -0.4910 -0.8025  0.6097
  185SLPC  H11R21284   1.047   6.004   7.633  1.0103  1.1203 -0.0873
  185SLPC  H11S21285   0.927   5.991   7.505 -0.5905  0.0774 -0.0272
  185SLPC  C21221286   0.839   6.069   7.680 -0.8109  0.4280 -0.2281
  185SLPC  H12R21287   0.741   6.076   7.631  0.5970  0.7126 -3.2207
  185SLPC  C21321288   0.845   6.046   7.817 -0.5757 -0.6366  0.2153
  185SLPC  H13R21289   0.752   6.061   7.874 -0.0046  1.2228  0.7294
  185SLPC  C21421290   0.964   6.026   7.901 -0.5712 -0.3911  0.2793
  185SLPC  H14R21291   1.053   6.033   7.834  0.9030  0.0494  2.2082
  185SLPC  H14S21292   0.958   5.918   7.929  0.5839 -0.9697 -1.5040
  185SLPC  C21521293   0.973   6.116   8.021  0.8773  0.4114 -0.3160
  185SLPC  H15R21294   0.986   6.223   7.995 -1.5372  1.0510  0.7934
  185SLPC  H15S21295   1.065   6.076   8.068  0.8234  0.3822 -0.2351
  185SLPC  C21621296   0.851   6.099   8.116  0.1701  0.0832  0.3246
  185SLPC  H16R21297   0.753   6.123   8.070  1.2485  2.2456 -0.9910
  185SLPC  H16S21298   0.862   6.189   8.180 -3.6981  2.3218 -1.7761
  185SLPC  C21721299   0.854   5.971   8.192 -0.2469 -0.0380 -0.6426
  185SLPC  H17R21300   0.957   5.952   8.230  0.3970  0.7548 -1.9386
  185SLPC  H17S21301   0.825   5.883   8.130  0.3373 -0.8388  0.1757
  185SLPC  C21821302   0.767   5.978   8.319  0.4592  0.5710 -0.5300
  185SLPC  H18R21303   0.797   6.064   8.383  0.6096 -0.1056  0.3232
  185SLPC  H18S21304   0.772   5.888   8.383  0.6177  0.8475 -0.1483
  185SLPC  H18T21305   0.664   5.996   8.281  0.3010 -0.3940 -0.5729
  185SLPC   C3321306   0.967   6.553   6.721 -0.6572  0.6877 -0.5906
  185SLPC   H3X21307   0.984   6.654   6.679  1.0319  0.3305 -0.8685
  185SLPC   H3Y21308   1.038   6.492   6.660  0.4181  1.7239 -0.4096
  185SLPC   C3421309   1.002   6.529   6.875  0.6266 -0.1015  0.3157
  185SLPC   H4X21310   1.108   6.564   6.872  1.2104 -1.7961 -0.3189
  185SLPC   H4Y21311   0.993   6.430   6.924 -0.6157  0.4952  1.3376
  185SLPC   C3521312   0.925   6.628   6.957  0.2200  0.0152 -0.4237
  185SLPC   H5X21313   0.815   6.615   6.941  0.0295  0.3296  0.5763
  185SLPC   H5Y21314   0.952   6.733   6.936 -1.3846  0.7748  1.0274
  185SLPC   C3621315   0.960   6.631   7.108  0.5456 -0.9387 -0.0938
  185SLPC   H6X21316   1.070   6.622   7.122  0.8424  1.8253  0.0036
  185SLPC   H6Y21317   0.917   6.545   7.162 -0.0874 -0.2153  0.5866
  185SLPC   C3721318   0.909   6.765   7.179  0.5638 -0.7072 -0.1895
  185SLPC   H7X21319   0.799   6.768   7.198  0.5975  0.1084 -0.1136
  185SLPC   H7Y21320   0.940   6.856   7.124 -0.2029  0.4450  1.2204
  185SLPC   C3821321   0.965   6.785   7.318 -0.0139 -0.0963  0.2026
  185SLPC   H8X21322   0.935   6.887   7.350  0.2289 -0.0103  0.1640
  185SLPC   H8Y21323   1.075   6.782   7.302  0.0971  2.0430  0.3092
  185SLPC   C3921324   0.933   6.677   7.419 -0.0605  0.0219 -0.4667
  185SLPC   H9X21325   0.995   6.585   7.405 -0.7091 -0.4909 -0.0144
  185SLPC   H9Y21326   0.827   6.648   7.405 -0.3405  0.1865  1.1299
  185SLPC  C31021327   0.938   6.714   7.576 -0.0637 -0.3831  0.5302
  185SLPC  H10X21328   0.901   6.818   7.594 -0.0366 -0.1758 -0.5406
  185SLPC  H10Y21329   1.045   6.719   7.605 -0.0635  0.9797  0.3812
  185SLPC  C31121330   0.844   6.630   7.667 -0.0315  0.7190  0.1342
  185SLPC  H11X21331   0.889   6.529   7.663  0.5899  1.0139 -0.5236
  185SLPC  H11Y21332   0.737   6.626   7.638  0.0567 -2.7754 -0.1345
  185SLPC  C31221333   0.856   6.680   7.812  0.5826 -0.0736 -0.6970
  185SLPC  H12X21334   0.839   6.790   7.822 -0.1918 -0.3972  2.7030
  185SLPC  H12Y21335   0.961   6.653   7.838  0.1377 -0.0145  1.3474
  185SLPC  C31321336   0.770   6.599   7.914 -0.1823  0.3058  0.0871
  185SLPC  H13X21337   0.780   6.490   7.891 -0.4055  0.0675  1.0834
  185SLPC  H13Y21338   0.663   6.622   7.897 -0.3202 -0.7990 -0.7176
  185SLPC  C31421339   0.808   6.616   8.063  0.4756  0.1253  0.2696
  185SLPC  H14X21340   0.720   6.582   8.121  0.3633  0.4164  0.2694
  185SLPC  H14Y21341   0.835   6.721   8.085  2.6996  0.1517 -2.0869
  185SLPC  C31521342   0.927   6.526   8.108 -0.0719 -0.2183  0.4224
  185SLPC  H15X21343   1.026   6.568   8.080  0.0961 -1.6173 -1.2866
  185SLPC  H15Y21344   0.923   6.427   8.058  0.1878  0.2160 -0.4793
  185SLPC  C31621345   0.923   6.519   8.259  0.0788  0.0716  0.1940
  185SLPC  H16X21346   0.827   6.466   8.279  0.3417 -0.0953  1.0096
  185SLPC  H16Y21347   0.924   6.618   8.308  3.9569  0.5195 -0.4729
  185SLPC  C31721348   1.032   6.424   8.326 -0.4554 -1.3542  0.4200
  185SLPC  H17X21349   1.137   6.455   8.307 -0.7677 -0.6786 -0.2545
  185SLPC  H17Y21350   1.024   6.330   8.268  1.4793 -0.7402 -0.9463
  185SLPC  C31821351   1.001   6.391   8.466  0.2006 -0.1104 -0.2119
  185SLPC  H18X21352   0.898   6.352   8.474  0.5334 -0.8988  0.3742
  185SLPC  H18Y21353   1.001   6.483   8.529  0.3390  1.3504 -2.2222
  185SLPC  H18Z21354   1.079   6.332   8.518  0.5035 -0.2868 -0.8605
  186SLPC     N21355   1.625   2.529   5.938  0.0148 -0.8477  0.0904
  186SLPC   C1321356   1.515   2.511   5.844  0.3185  1.0049  0.4374
  186SLPC  H13A21357   1.521   2.560   5.748 -0.4972 -0.5409 -0.4470
  186SLPC  H13B21358   1.525   2.406   5.820 -1.4091  0.4539  1.8510
  186SLPC  H13C21359   1.421   2.533   5.891 -0.8031 -2.4960  0.1102
  186SLPC   C1421360   1.616   2.444   6.055  0.0879  0.4063  0.1460
  186SLPC  H14A21361   1.625   2.338   6.041  0.7169  0.2960  1.2340
  186SLPC  H14B21362   1.680   2.479   6.134 -0.1896  0.6826  0.2547
  186SLPC  H14C21363   1.520   2.461   6.103 -0.1659  0.8913 -0.5161
  186SLPC   C1521364   1.611   2.668   5.997 -0.4539  0.3567  0.0144
  186SLPC  H15A21365   1.706   2.703   6.035 -1.2709 -0.1728  2.7393
  186SLPC  H15B21366   1.588   2.735   5.916  2.0062 -1.6998 -2.6489
  186SLPC  H15C21367   1.536   2.676   6.074 -0.8449  1.7035 -0.4912
  186SLPC   C1221368   1.757   2.505   5.867 -0.5633 -0.2960 -0.0158
  186SLPC  H12A21369   1.762   2.559   5.774 -0.8145  0.6863  0.5333
  186SLPC  H12B21370   1.777   2.406   5.828  1.8440  1.2817 -3.3571
  186SLPC   C1121371   1.891   2.542   5.941  0.5258 -0.1161 -0.3873
  186SLPC  H11A21372   1.976   2.516   5.874  1.4247 -1.5267  1.2032
  186SLPC  H11B21373   1.895   2.474   6.029 -1.3613 -0.4477 -0.5078
  186SLPC     P21374   1.973   2.734   6.096 -0.2419  0.0288 -0.5967
  186SLPC   O1321375   2.093   2.810   6.040  0.1372 -0.2547  0.3808
  186SLPC   O1421376   1.884   2.808   6.190  0.2744  0.0572  0.2430
  186SLPC   O1221377   1.894   2.679   5.970 -0.4890  0.2374 -0.4223
  186SLPC   O1121378   2.032   2.611   6.173  0.0213  0.0653  0.2534
  186SLPC    C121379   2.177   2.583   6.181 -0.0590  0.6062  0.8324
  186SLPC    HA21380   2.197   2.476   6.204 -1.4411 -0.1509 -1.1276
  186SLPC    HB21381   2.226   2.600   6.083 -2.3722 -0.1471 -0.5420
  186SLPC    C221382   2.251   2.653   6.293 -0.2411  0.1858  0.3001
  186SLPC    HS21383   2.351   2.607   6.309  1.5619  3.3591 -0.9563
  186SLPC   O2121384   2.163   2.666   6.412 -0.1141  0.2295 -0.8549
  186SLPC   C2121385   2.171   2.565   6.493 -0.4609  0.3319 -0.2315
  186SLPC   O2221386   2.233   2.461   6.477  0.3607 -0.5466 -0.4914
  186SLPC   C2221387   2.096   2.581   6.622  0.3948 -0.1045 -0.3697
  186SLPC   H2R21388   1.988   2.570   6.599  0.3063  0.2766 -0.1396
  186SLPC   H2S21389   2.134   2.510   6.698  1.3166  2.6054  1.8683
  186SLPC    C321390   2.313   2.798   6.251  0.4429  0.2687 -0.3917
  186SLPC    HX21391   2.228   2.866   6.226  0.0284 -0.6069 -1.4534
  186SLPC    HY21392   2.368   2.784   6.156  0.6843 -3.5807  0.1531
  186SLPC   O3121393   2.395   2.845   6.359  0.0823 -0.6224  0.3046
  186SLPC   C3121394   2.359   2.956   6.426  0.3509  0.0294  0.6290
  186SLPC   O3221395   2.253   3.013   6.408 -0.1319 -0.7475  0.5361
  186SLPC   C3221396   2.463   2.989   6.540 -0.4643  0.1596 -0.0269
  186SLPC   H2X21397   2.562   3.011   6.495 -0.9914  0.0881 -1.2691
  186SLPC   H2Y21398   2.475   2.900   6.606  0.1135  1.5840  1.8720
  186SLPC   C2321399   2.123   2.716   6.686  0.3422 -0.1991 -0.2498
  186SLPC   H3R21400   2.035   2.755   6.741 -1.2845 -1.4609 -1.8260
  186SLPC   H3S21401   2.132   2.792   6.606 -1.7599  1.3755  0.9156
  186SLPC   C2421402   2.249   2.728   6.770 -0.5270 -0.2635 -0.1232
  186SLPC   H4R21403   2.273   2.837   6.769 -0.8781 -0.1886 -1.0561
  186SLPC   H4S21404   2.328   2.676   6.713  2.8872  3.3821  0.7833
  186SLPC   C2521405   2.238   2.681   6.912 -0.5039  0.5652 -0.9218
  186SLPC   H5R21406   2.207   2.574   6.907 -0.1282  0.1727  2.6555
  186SLPC   H5S21407   2.148   2.721   6.965  0.1318 -0.5368  1.1244
  186SLPC   C2621408   2.370   2.700   6.990 -0.0085 -0.3741  0.7099
  186SLPC   H6R21409   2.387   2.804   7.023  1.1611 -1.0166  2.2786
  186SLPC   H6S21410   2.446   2.682   6.910 -1.8291  3.7543 -2.2958
  186SLPC   C2721411   2.375   2.603   7.111 -0.2734  0.2343  0.1336
  186SLPC   H7R21412   2.366   2.502   7.064 -0.3523 -0.4776  1.6266
  186SLPC   H7S21413   2.290   2.618   7.180 -1.1495 -3.2333  0.0119
  186SLPC   C2821414   2.508   2.587   7.188  0.3965 -0.0068  0.1147
  186SLPC   H8R21415   2.532   2.686   7.233 -1.3510  0.7277 -0.4598
  186SLPC   H8S21416   2.595   2.549   7.130  1.0200 -0.1077  1.0914
  186SLPC   C2921417   2.496   2.496   7.309 -0.5325 -0.2783  0.1620
  186SLPC   H9R21418   2.484   2.388   7.293 -1.7386 -0.5515  2.4850
  186SLPC  C21021419   2.472   2.536   7.440 -0.1757 -0.2760  0.3825
  186SLPC  H10R21420   2.487   2.455   7.514 -2.2628 -0.9596  0.1343
  186SLPC  C21121421   2.465   2.675   7.503 -0.1404  0.7021  0.8255
  186SLPC  H11R21422   2.401   2.679   7.594 -0.7144  0.9535  0.4181
  186SLPC  H11S21423   2.409   2.744   7.436 -1.0238 -1.0208 -0.2754
  186SLPC  C21221424   2.597   2.730   7.535 -0.8397  0.4893  0.0166
  186SLPC  H12R21425   2.619   2.813   7.466  0.5224  1.9682  2.1199
  186SLPC  C21321426   2.674   2.698   7.638  0.2118 -0.1334  0.4407
  186SLPC  H13R21427   2.772   2.746   7.652  0.8402 -0.3352 -2.6539
  186SLPC  C21421428   2.641   2.600   7.749 -0.5815 -0.3502  0.1689
  186SLPC  H14R21429   2.730   2.575   7.810 -1.9000  0.1263  2.4232
  186SLPC  H14S21430   2.617   2.501   7.705  0.0397 -0.1175 -0.7041
  186SLPC  C21521431   2.539   2.647   7.855  0.1717 -0.1423 -0.1426
  186SLPC  H15R21432   2.447   2.674   7.800  0.1651  0.4219  0.1415
  186SLPC  H15S21433   2.578   2.738   7.906  1.3688 -1.6571  1.8412
  186SLPC  C21621434   2.502   2.542   7.965 -0.2227  0.1999 -0.2927
  186SLPC  H16R21435   2.481   2.449   7.908  0.5126 -0.4110  0.4204
  186SLPC  H16S21436   2.417   2.587   8.021  0.2583  2.1463 -1.0164
  186SLPC  C21721437   2.605   2.514   8.076 -0.0409  0.2736  0.4360
  186SLPC  H17R21438   2.606   2.596   8.151  0.5507 -0.3212  1.0942
  186SLPC  H17S21439   2.698   2.500   8.017 -1.3047 -0.7080 -1.4044
  186SLPC  C21821440   2.564   2.397   8.171  0.0160 -0.0440  0.1654
  186SLPC  H18R21441   2.538   2.305   8.114 -0.6891 -0.5978  1.3335
  186SLPC  H18S21442   2.473   2.424   8.229 -0.4791 -3.9722  1.5401
  186SLPC  H18T21443   2.638   2.381   8.252  1.0624 -2.4176 -1.1541
  186SLPC   C3321444   2.423   3.116   6.627  0.5967  0.5096 -0.1460
  186SLPC   H3X21445   2.341   3.085   6.695  1.9361 -0.2146  1.1923
  186SLPC   H3Y21446   2.392   3.200   6.561 -1.8041 -0.7161 -0.7013
  186SLPC   C3421447   2.532   3.160   6.726 -0.4040  0.0316  0.7638
  186SLPC   H4X21448   2.474   3.219   6.801 -1.4441  2.4191 -1.7395
  186SLPC   H4Y21449   2.614   3.217   6.678  0.4830 -1.9121 -0.1189
  186SLPC   C3521450   2.593   3.041   6.805 -0.5073 -0.3260 -0.1024
  186SLPC   H5X21451   2.665   2.989   6.738 -1.5740 -0.9540 -0.7929
  186SLPC   H5Y21452   2.518   2.960   6.816  1.8671 -2.4708  1.4330
  186SLPC   C3621453   2.671   3.077   6.934  0.4563 -0.3573  0.4169
  186SLPC   H6X21454   2.594   3.132   6.992 -0.1658 -1.0764  0.2957
  186SLPC   H6Y21455   2.758   3.141   6.911  1.0402 -1.3855 -0.3311
  186SLPC   C3721456   2.719   2.947   7.010  0.4987 -0.9673  0.4166
  186SLPC   H7X21457   2.774   2.885   6.936  0.2256 -2.1115  1.1575
  186SLPC   H7Y21458   2.627   2.891   7.034  0.8908 -0.9587  2.0607
  186SLPC   C3821459   2.794   3.001   7.133 -0.9521  0.1414 -0.4043
  186SLPC   H8X21460   2.734   3.072   7.194  1.7245  1.7337  0.5698
  186SLPC   H8Y21461   2.872   3.063   7.083 -0.9781  0.0553 -0.5500
  186SLPC   C3921462   2.860   2.892   7.215 -0.2204  0.3582 -0.1564
  186SLPC   H9X21463   2.926   2.831   7.150 -0.7255 -0.1871 -0.1627
  186SLPC   H9Y21464   2.795   2.820   7.269  0.0349  1.3278  1.5124
  186SLPC  C31021465   2.960   2.945   7.324  0.1172 -0.0517  0.5103
  186SLPC  H10X21466   3.036   3.010   7.277 -0.0347 -1.2096 -1.4435
  186SLPC  H10Y21467   3.010   2.849   7.352  1.5646  0.9015  1.3015
  186SLPC  C31121468   2.878   3.019   7.429  0.2093 -0.3828  0.5543
  186SLPC  H11X21469   2.797   2.964   7.482 -1.3139  0.2853 -0.9903
  186SLPC  H11Y21470   2.816   3.101   7.385 -1.2215 -1.0907  1.1634
  186SLPC  C31221471   2.978   3.074   7.534 -0.2755  0.0439  0.3113
  186SLPC  H12X21472   2.929   3.152   7.597  0.0251  0.6656 -0.2103
  186SLPC  H12Y21473   3.066   3.120   7.485 -0.6712 -1.3153 -1.7708
  186SLPC  C31321474   3.026   2.970   7.643 -0.4574  0.3966  0.4206
  186SLPC  H13X21475   3.130   2.992   7.676  0.1877 -0.3080 -1.0571
  186SLPC  H13Y21476   3.026   2.872   7.592  0.6616  0.8507 -0.4957
  186SLPC  C31421477   2.923   2.972   7.758 -0.3075  0.5760 -0.0087
  186SLPC  H14X21478   2.829   2.964   7.699  0.8957  1.6335 -2.2161
  186SLPC  H14Y21479   2.924   3.077   7.794  1.0893  0.3794  0.5719
  186SLPC  C31521480   2.943   2.861   7.866  0.2694  0.1271 -0.1185
  186SLPC  H15X21481   3.049   2.869   7.899  0.9422 -3.2573 -1.0862
  186SLPC  H15Y21482   2.936   2.759   7.824  2.5110 -0.5028  0.8702
  186SLPC  C31621483   2.848   2.890   7.984 -0.2298 -0.4729 -0.7397
  186SLPC  H16X21484   2.747   2.908   7.943 -2.3348 -3.1042  2.7083
  186SLPC  H16Y21485   2.879   2.989   8.024  0.7300 -0.4807 -1.4529
  186SLPC  C31721486   2.860   2.793   8.096 -0.2951 -0.1000  0.1757
  186SLPC  H17X21487   2.966   2.783   8.127 -0.0971 -2.9092 -1.0790
  186SLPC  H17Y21488   2.831   2.693   8.055  0.6097  0.6946 -2.6625
  186SLPC  C31821489   2.777   2.837   8.219  0.0898  0.5146  0.0440
  186SLPC  H18X21490   2.670   2.830   8.188  0.1877 -0.8340 -0.0626
  186SLPC  H18Y21491   2.801   2.936   8.263 -0.7804  0.7453  0.0127
  186SLPC  H18Z21492   2.808   2.764   8.298 -0.1300  0.0362 -0.3042
  187SLPC     N21493   4.232   6.088   6.161 -0.0687  0.3589 -0.0814
  187SLPC   C1321494   4.263   6.222   6.102  0.7064  0.8825 -0.3825
  187SLPC  H13A21495   4.356   6.256   6.144 -0.1650  0.9994  1.5756
  187SLPC  H13B21496   4.262   6.236   5.995  1.1218  0.3072 -0.4700
  187SLPC  H13C21497   4.189   6.295   6.131  1.3695  0.5452  2.4678
  187SLPC   C1421498   4.329   5.984   6.120  0.2248 -0.0596  0.4207
  187SLPC  H14A21499   4.324   5.976   6.013 -0.6967  2.3483  0.2362
  187SLPC  H14B21500   4.431   6.009   6.146 -0.1223  0.9150  0.9183
  187SLPC  H14C21501   4.306   5.889   6.167  1.1554 -0.3750  0.2592
  187SLPC   C1521502   4.094   6.050   6.117 -0.3269  0.2594  0.0912
  187SLPC  H15A21503   4.016   6.120   6.144 -1.3177 -0.9332  0.3787
  187SLPC  H15B21504   4.084   6.052   6.010  0.2860  0.5557  0.0352
  187SLPC  H15C21505   4.059   5.963   6.170 -2.1205  1.5174  1.1150
  187SLPC   C1221506   4.240   6.083   6.313  0.6352 -0.0369  0.5370
  187SLPC  H12A21507   4.342   6.099   6.347  1.3143 -2.2483 -0.2302
  187SLPC  H12B21508   4.228   5.977   6.333  1.8116 -0.2473  0.2264
  187SLPC   C1121509   4.143   6.155   6.408 -0.2426 -0.1293  0.9666
  187SLPC  H11A21510   4.140   6.262   6.378 -2.1003 -0.2173  0.7125
  187SLPC  H11B21511   4.186   6.143   6.510  0.9733  0.2111  0.5129
  187SLPC     P21512   3.893   6.154   6.449  0.0114 -0.0688 -0.6742
  187SLPC   O1321513   3.935   6.274   6.527  0.0109  0.0137 -0.3997
  187SLPC   O1421514   3.817   6.182   6.334  0.1806  0.1211  0.5536
  187SLPC   O1221515   4.021   6.078   6.416 -0.4544 -0.6694  0.4840
  187SLPC   O1121516   3.817   6.055   6.538  0.3524 -0.5564 -0.2306
  187SLPC    C121517   3.879   5.960   6.630 -0.1530  0.3375  0.1826
  187SLPC    HA21518   3.851   5.858   6.594  1.8351  0.1923 -1.1248
  187SLPC    HB21519   3.989   5.954   6.613  0.2682  3.1094  1.4235
  187SLPC    C221520   3.862   6.004   6.776  0.0100 -0.0076 -0.4851
  187SLPC    HS21521   3.760   6.036   6.803  1.1256  2.1363  1.4855
  187SLPC   O2121522   3.959   6.111   6.804  0.3038 -0.0469 -0.1167
  187SLPC   C2121523   3.916   6.220   6.850 -0.4071  0.5273  0.2977
  187SLPC   O2221524   3.799   6.249   6.867 -0.1831  0.2509 -0.2024
  187SLPC   C2221525   4.043   6.296   6.880 -0.5843 -0.2542 -0.0742
  187SLPC   H2R21526   4.133   6.238   6.850  0.7648  0.4308  2.3660
  187SLPC   H2S21527   4.040   6.385   6.813  0.0062  1.0175  1.5302
  187SLPC    C321528   3.899   5.889   6.867 -0.9967  0.0864  0.0856
  187SLPC    HX21529   3.996   5.850   6.830 -0.5991  1.9578 -0.9430
  187SLPC    HY21530   3.817   5.814   6.856 -0.7954  0.0025 -0.9247
  187SLPC   O3121531   3.921   5.923   7.008 -0.1897 -0.5591  0.2322
  187SLPC   C3121532   3.942   5.820   7.087  1.3084 -0.8042 -0.1612
  187SLPC   O3221533   3.962   5.704   7.054 -0.2267  0.2382 -0.2799
  187SLPC   C3221534   3.932   5.863   7.241 -0.2215  0.1919  0.1147
  187SLPC   H2X21535   3.865   5.951   7.249 -1.2541 -0.7586  3.4637
  187SLPC   H2Y21536   4.031   5.907   7.264 -0.2196 -0.2332  0.9714
  187SLPC   C2321537   4.057   6.345   7.025  0.1660  0.0091 -0.0578
  187SLPC   H3R21538   3.963   6.391   7.061 -1.0664 -2.8772  0.6585
  187SLPC   H3S21539   4.142   6.414   7.042  2.6102 -2.1895 -2.3293
  187SLPC   C2421540   4.078   6.241   7.132  0.2382 -0.0799  0.1505
  187SLPC   H4R21541   4.165   6.176   7.108  0.3990  0.4472 -0.7217
  187SLPC   H4S21542   3.987   6.177   7.130  0.3889 -0.2800 -0.9461
  187SLPC   C2521543   4.091   6.305   7.273 -0.1365 -0.1136 -0.0376
  187SLPC   H5R21544   4.010   6.377   7.296 -0.3995 -0.1708 -0.7725
  187SLPC   H5S21545   4.190   6.356   7.268 -0.6764  0.8902 -0.8575
  187SLPC   C2621546   4.084   6.202   7.383 -0.8480 -0.3460 -0.4915
  187SLPC   H6R21547   4.143   6.112   7.355  0.2572  0.0886  0.3440
  187SLPC   H6S21548   3.974   6.186   7.391 -1.4692  2.3460 -2.4845
  187SLPC   C2721549   4.144   6.244   7.517 -0.0831  0.2946  0.2690
  187SLPC   H7R21550   4.099   6.338   7.552 -0.9594 -0.2750  0.6996
  187SLPC   H7S21551   4.252   6.267   7.503  0.2204 -2.0301 -2.1608
  187SLPC   C2821552   4.133   6.142   7.632 -0.7725 -0.1327 -0.2648
  187SLPC   H8R21553   4.205   6.061   7.607  0.2758 -0.1335  2.4368
  187SLPC   H8S21554   4.034   6.093   7.647 -1.0506  0.6223  0.4920
  187SLPC   C2921555   4.186   6.202   7.764  0.0308  0.3481 -0.1916
  187SLPC   H9R21556   4.130   6.282   7.815 -0.2005 -1.4643  2.6531
  187SLPC  C21021557   4.297   6.162   7.832  0.3497 -0.5666 -0.3413
  187SLPC  H10R21558   4.341   6.218   7.916  2.3505 -0.5982 -1.3166
  187SLPC  C21121559   4.406   6.061   7.808 -0.7818  0.5697 -0.6652
  187SLPC  H11R21560   4.501   6.119   7.809 -0.8226  0.7077 -2.3227
  187SLPC  H11S21561   4.388   6.036   7.702 -1.6035 -2.0830  0.0401
  187SLPC  C21221562   4.395   5.935   7.893  0.1292  0.9174  0.1713
  187SLPC  H12R21563   4.292   5.913   7.924 -0.1250  0.3758 -1.0028
  187SLPC  C21321564   4.489   5.842   7.926 -0.4850 -0.1835  0.1966
  187SLPC  H13R21565   4.454   5.754   7.983  1.4234 -0.4136  1.1151
  187SLPC  C21421566   4.636   5.836   7.887 -1.3570 -0.3078 -0.9046
  187SLPC  H14R21567   4.666   5.928   7.832 -0.5896 -1.1411 -1.9267
  187SLPC  H14S21568   4.651   5.742   7.829  0.7721 -0.0511 -0.8459
  187SLPC  C21521569   4.714   5.836   8.020 -0.5815  0.2088  0.7453
  187SLPC  H15R21570   4.702   5.929   8.080  0.1306  1.0065 -0.3152
  187SLPC  H15S21571   4.823   5.833   8.001 -0.5270 -1.4416  1.1652
  187SLPC  C21621572   4.688   5.705   8.111 -0.2190  0.1141 -0.0301
  187SLPC  H16R21573   4.687   5.619   8.041 -0.2088 -0.9854  1.2878
  187SLPC  H16S21574   4.590   5.719   8.161 -2.8369  0.6157 -4.7325
  187SLPC  C21721575   4.807   5.666   8.206  0.2464  0.3061  0.1606
  187SLPC  H17R21576   4.840   5.759   8.258  1.1658 -0.0170  0.1693
  187SLPC  H17S21577   4.884   5.632   8.134 -2.0622 -2.0457 -1.3952
  187SLPC  C21821578   4.781   5.540   8.289  0.1889 -0.5989  0.1403
  187SLPC  H18R21579   4.746   5.458   8.222 -0.2773 -0.1753 -0.1411
  187SLPC  H18S21580   4.697   5.556   8.359 -0.1806 -2.9827  0.3017
  187SLPC  H18T21581   4.876   5.531   8.346 -0.3712  0.3436  1.2477
  187SLPC   C3321582   3.881   5.744   7.333 -0.2049  0.1671  0.1127
  187SLPC   H3X21583   3.925   5.648   7.296  0.1764  0.6666 -0.7630
  187SLPC   H3Y21584   3.771   5.737   7.323 -0.4297  1.4358  1.4676
  187SLPC   C3421585   3.920   5.782   7.482 -0.0670  0.0219  0.3530
  187SLPC   H4X21586   3.829   5.765   7.543 -0.8343  0.0890 -0.7304
  187SLPC   H4Y21587   3.927   5.893   7.478  1.9340 -0.0553 -3.7097
  187SLPC   C3521588   4.050   5.712   7.530  0.4681 -0.3693  0.5535
  187SLPC   H5X21589   4.134   5.748   7.466 -1.4596 -0.7975 -2.4516
  187SLPC   H5Y21590   4.033   5.605   7.508  0.5368 -0.1278 -0.7662
  187SLPC   C3621591   4.070   5.736   7.677 -1.2391 -0.1312  0.4417
  187SLPC   H6X21592   3.978   5.701   7.728 -1.5720  1.8129  1.2672
  187SLPC   H6Y21593   4.084   5.845   7.693  1.1907  0.1332 -2.4755
  187SLPC   C3721594   4.188   5.666   7.738  0.1156  0.4207  0.2797
  187SLPC   H7X21595   4.277   5.727   7.710  0.4637 -0.0410  0.3698
  187SLPC   H7Y21596   4.174   5.675   7.848  2.3130  1.4340  0.5491
  187SLPC   C3821597   4.213   5.517   7.704 -0.7344 -0.4018  0.5345
  187SLPC   H8X21598   4.274   5.505   7.612 -0.1840 -2.3283  1.1008
  187SLPC   H8Y21599   4.120   5.461   7.680  0.1684 -1.0364 -1.6552
  187SLPC   C3921600   4.294   5.450   7.819 -0.1454  0.3207  0.3270
  187SLPC   H9X21601   4.380   5.511   7.853 -0.6754  1.1583  0.1975
  187SLPC   H9Y21602   4.335   5.363   7.763 -3.0355 -1.7126  1.0758
  187SLPC  C31021603   4.207   5.418   7.941  0.2814  0.1001 -0.6157
  187SLPC  H10X21604   4.125   5.346   7.924  0.1687  0.2439 -0.6834
  187SLPC  H10Y21605   4.166   5.515   7.979  3.5223  0.2236  3.2687
  187SLPC  C31121606   4.272   5.355   8.064 -0.6583  0.1534  0.5772
  187SLPC  H11X21607   4.341   5.276   8.028  0.1165  0.9619  0.2515
  187SLPC  H11Y21608   4.199   5.311   8.135  0.4291 -0.7088  1.1920
  187SLPC  C31221609   4.358   5.452   8.145 -0.1303  0.9802 -0.3662
  187SLPC  H12X21610   4.288   5.513   8.206 -0.9876  0.0133 -0.3551
  187SLPC  H12Y21611   4.419   5.524   8.085  2.3610  1.6372  2.6903
  187SLPC  C31321612   4.459   5.375   8.241 -0.1845 -0.6004  0.0184
  187SLPC  H13X21613   4.508   5.444   8.313 -1.3593  3.1578 -2.4630
  187SLPC  H13Y21614   4.544   5.341   8.178  0.0411  0.3870 -0.2211
  187SLPC  C31421615   4.385   5.259   8.309 -0.9665  0.1620 -0.6543
  187SLPC  H14X21616   4.371   5.185   8.227  0.5625  0.3519 -1.1222
  187SLPC  H14Y21617   4.287   5.275   8.359 -1.2404 -0.5075 -0.9693
  187SLPC  C31521618   4.478   5.181   8.414  0.1134  0.4280  0.6046
  187SLPC  H15X21619   4.512   5.253   8.491  1.6159  0.3498  0.0692
  187SLPC  H15Y21620   4.567   5.143   8.358 -0.6615  0.5536 -0.7660
  187SLPC  C31621621   4.403   5.064   8.476 -0.5725 -0.8539 -0.7246
  187SLPC  H16X21622   4.384   4.984   8.400  2.4233 -1.3958 -1.0261
  187SLPC  H16Y21623   4.302   5.091   8.514 -0.1445 -0.4332  0.1489
  187SLPC  C31721624   4.481   5.012   8.601 -0.4797  0.6755  0.2247
  187SLPC  H17X21625   4.493   5.091   8.678  0.0594  0.4436  0.3828
  187SLPC  H17Y21626   4.579   4.989   8.553 -1.8535 -2.3921 -1.3821
  187SLPC  C31821627   4.437   4.875   8.650  0.9546  0.1918 -0.1006
  187SLPC  H18X21628   4.345   4.879   8.712  1.5412  1.5475  0.7280
  187SLPC  H18Y21629   4.518   4.826   8.708  0.7563 -1.8964 -1.4830
  187SLPC  H18Z21630   4.406   4.814   8.562 -0.6021  1.3795 -0.4322
  188SLPC     N21631   3.468   3.271   6.131  0.4474 -0.2592  0.1317
  188SLPC   C1321632   3.421   3.145   6.074  0.5438 -0.0754  0.1804
  188SLPC  H13A21633   3.402   3.069   6.148  0.9409 -1.3988 -1.0316
  188SLPC  H13B21634   3.336   3.159   6.009 -0.5484  1.0531  1.7750
  188SLPC  H13C21635   3.505   3.107   6.017 -0.3770  0.3807 -1.5599
  188SLPC   C1421636   3.348   3.352   6.156  0.0963  0.1525  0.7235
  188SLPC  H14A21637   3.379   3.448   6.197 -1.9059  1.3977 -0.5135
  188SLPC  H14B21638   3.303   3.370   6.060  2.2859 -1.4014 -0.6640
  188SLPC  H14C21639   3.276   3.307   6.223 -0.7390  1.5997  0.8536
  188SLPC   C1521640   3.550   3.349   6.039  0.1931 -0.0852  0.1043
  188SLPC  H15A21641   3.584   3.447   6.069  0.3266 -0.3626  0.8859
  188SLPC  H15B21642   3.639   3.291   6.017  0.0436 -0.5921  0.7884
  188SLPC  H15C21643   3.488   3.370   5.953 -2.6015  3.7125  2.7063
  188SLPC   C1221644   3.545   3.259   6.262 -0.0384  0.8608  0.2859
  188SLPC  H12A21645   3.570   3.358   6.297  0.2393  0.2942  1.7791
  188SLPC  H12B21646   3.643   3.221   6.239 -0.7843  0.5343 -2.8679
  188SLPC   C1121647   3.480   3.179   6.382  0.8729  0.2347 -0.7030
  188SLPC  H11A21648   3.384   3.234   6.395  1.7540  1.6108  0.2262
  188SLPC  H11B21649   3.541   3.192   6.474  0.5582 -0.3381 -0.4105
  188SLPC     P21650   3.566   2.934   6.323  0.0963 -0.0793 -0.4225
  188SLPC   O1321651   3.507   2.813   6.261 -0.9888  0.3414  0.0185
  188SLPC   O1421652   3.685   2.997   6.257 -0.1722  0.0065 -0.2458
  188SLPC   O1221653   3.459   3.040   6.355  0.0101  0.5510  0.0387
  188SLPC   O1121654   3.605   2.888   6.469 -0.2283  0.4282 -0.3940
  188SLPC    C121655   3.513   2.909   6.577 -0.6218 -0.3746  0.0899
  188SLPC    HA21656   3.549   3.001   6.629  1.9806 -0.6413 -1.0770
  188SLPC    HB21657   3.406   2.917   6.547 -0.8500  4.6726  1.3850
  188SLPC    C221658   3.518   2.781   6.674  0.9661 -0.4952 -0.2238
  188SLPC    HS21659   3.457   2.810   6.762  4.3612 -0.6263  2.3675
  188SLPC   O2121660   3.648   2.745   6.724 -0.7519  0.2382 -0.5779
  188SLPC   C2121661   3.700   2.826   6.810  0.0017 -0.9674  0.0366
  188SLPC   O2221662   3.636   2.908   6.873  0.2210 -0.5154 -0.2137
  188SLPC   C2221663   3.839   2.781   6.835 -0.3640  0.0164  0.1112
  188SLPC   H2R21664   3.842   2.670   6.840 -0.7942  0.0014  0.0234
  188SLPC   H2S21665   3.894   2.803   6.741  2.4352 -3.2424  0.7942
  188SLPC    C321666   3.460   2.654   6.607 -0.0604  0.9006 -0.2900
  188SLPC    HX21667   3.544   2.601   6.557 -0.6950  1.8803 -2.4981
  188SLPC    HY21668   3.398   2.681   6.519  1.5899  1.8755 -1.2042
  188SLPC   O3121669   3.383   2.579   6.705 -0.2213  0.0934  0.0357
  188SLPC   C3121670   3.430   2.459   6.735 -1.0777 -0.0796  0.3811
  188SLPC   O3221671   3.517   2.393   6.674  0.4041  0.3392  0.0994
  188SLPC   C3221672   3.361   2.396   6.857 -0.1491 -0.5701  0.1998
  188SLPC   H2X21673   3.307   2.303   6.828 -2.0853 -0.1222  2.0727
  188SLPC   H2Y21674   3.284   2.467   6.895  0.5857  0.2513  0.1953
  188SLPC   C2321675   3.895   2.849   6.953  0.1403 -0.8258  0.4356
  188SLPC   H3R21676   3.867   2.956   6.955  0.0438 -0.8503  2.3071
  188SLPC   H3S21677   4.006   2.843   6.955  0.2658  0.0097 -1.5346
  188SLPC   C2421678   3.846   2.785   7.083  0.3261  0.0359 -0.2587
  188SLPC   H4R21679   3.861   2.675   7.088  1.8017  0.2711  2.3215
  188SLPC   H4S21680   3.736   2.799   7.082  0.1253 -1.4104 -1.1887
  188SLPC   C2521681   3.914   2.832   7.217 -0.2662 -0.0216  0.7946
  188SLPC   H5R21682   3.911   2.943   7.212 -0.3033  0.0005  1.2463
  188SLPC   H5S21683   4.019   2.797   7.220 -0.2644 -0.3022 -1.1042
  188SLPC   C2621684   3.855   2.778   7.345 -0.0756  0.4128 -0.8083
  188SLPC   H6R21685   3.839   2.668   7.340 -1.1783  0.4984  0.4851
  188SLPC   H6S21686   3.761   2.836   7.349  0.1669  0.7587  0.0336
  188SLPC   C2721687   3.927   2.830   7.469 -0.3917  1.0201  0.7253
  188SLPC   H7R21688   3.943   2.940   7.474  1.8659  0.8392 -1.1618
  188SLPC   H7S21689   4.024   2.778   7.482 -1.2928 -0.2428  3.3143
  188SLPC   C2821690   3.856   2.810   7.606 -0.2068 -0.4210 -0.3169
  188SLPC   H8R21691   3.753   2.851   7.599 -0.6439 -1.4590 -0.1902
  188SLPC   H8S21692   3.911   2.879   7.673 -0.4832 -0.3734 -0.1380
  188SLPC   C2921693   3.843   2.666   7.654  0.0684  0.0858  0.0877
  188SLPC   H9R21694   3.816   2.592   7.576  0.3422  1.9313 -1.8590
  188SLPC  C21021695   3.869   2.622   7.778  0.1431 -0.3694 -0.3305
  188SLPC  H10R21696   3.855   2.513   7.788 -0.4698 -0.2790 -0.1721
  188SLPC  C21121697   3.913   2.714   7.889 -0.9927  0.2977 -0.1380
  188SLPC  H11R21698   3.830   2.772   7.934 -1.2585 -0.9564  1.0785
  188SLPC  H11S21699   3.999   2.777   7.857  1.3000 -0.9603  2.9600
  188SLPC  C21221700   3.966   2.634   7.998 -0.3244  0.2658  0.0304
  188SLPC  H12R21701   3.928   2.532   8.016 -0.3934  0.2339 -0.2844
  188SLPC  C21321702   4.052   2.676   8.090 -0.7778  0.8457  0.9040
  188SLPC  H13R21703   4.084   2.611   8.173  1.5845  0.5081 -0.1708
  188SLPC  C21421704   4.111   2.814   8.100 -0.3684  0.0627 -0.1988
  188SLPC  H14R21705   4.107   2.874   8.006  0.3350  1.4011  0.5880
  188SLPC  H14S21706   4.216   2.815   8.137  0.2159  0.8008 -1.7682
  188SLPC  C21521707   4.042   2.909   8.203  0.8593 -0.5365 -0.3326
  188SLPC  H15R21708   4.054   2.883   8.310 -2.0723  2.8898  1.0775
  188SLPC  H15S21709   3.931   2.910   8.191  0.6949 -2.6048  0.6931
  188SLPC  C21621710   4.078   3.059   8.190  0.0953  0.0434  0.1963
  188SLPC  H16R21711   4.008   3.113   8.256  0.8683 -0.9581  1.9031
  188SLPC  H16S21712   4.079   3.090   8.083 -2.4956 -0.6248 -0.0987
  188SLPC  C21721713   4.216   3.092   8.238  0.6589 -0.6784  0.0355
  188SLPC  H17R21714   4.294   3.057   8.166 -0.0343 -2.6959  0.2059
  188SLPC  H17S21715   4.228   3.042   8.337 -1.3413  3.2075  2.4809
  188SLPC  C21821716   4.243   3.240   8.263  0.4480 -0.1556  0.1959
  188SLPC  H18R21717   4.168   3.292   8.326  1.3916  1.8745 -0.2736
  188SLPC  H18S21718   4.253   3.285   8.162 -2.0422  0.1796  0.0459
  188SLPC  H18T21719   4.335   3.246   8.324  1.9810 -0.6964 -1.9329
  188SLPC   C3321720   3.474   2.354   6.954  0.3281 -1.2195 -0.3461
  188SLPC   H3X21721   3.550   2.282   6.918  0.9842  0.0209 -1.5186
  188SLPC   H3Y21722   3.423   2.301   7.037  0.0278 -0.4283 -0.0093
  188SLPC   C3421723   3.522   2.491   7.008 -0.5041 -0.8460 -0.0664
  188SLPC   H4X21724   3.431   2.553   7.022 -0.4935 -0.9476  0.4450
  188SLPC   H4Y21725   3.577   2.541   6.926 -1.7304 -1.4448 -1.3088
  188SLPC   C3521726   3.594   2.505   7.145 -0.4187  0.1132  0.6182
  188SLPC   H5X21727   3.610   2.614   7.157 -1.5017  0.2054  1.3284
  188SLPC   H5Y21728   3.695   2.459   7.139 -0.5166 -0.2316  1.4544
  188SLPC   C3621729   3.519   2.449   7.270  0.4310  0.1842  0.7202
  188SLPC   H6X21730   3.516   2.340   7.247  0.8006  0.7689 -2.6043
  188SLPC   H6Y21731   3.412   2.480   7.274 -0.4276 -2.1456 -1.3003
  188SLPC   C3721732   3.587   2.475   7.404  0.1171  0.3346  0.6097
  188SLPC   H7X21733   3.575   2.585   7.415 -1.7138  0.3897 -1.3891
  188SLPC   H7Y21734   3.696   2.455   7.406 -0.1893 -1.4830  0.7934
  188SLPC   C3821735   3.516   2.394   7.510  0.3698 -0.1683  0.3205
  188SLPC   H8X21736   3.544   2.292   7.476  0.7419  0.0603 -0.0700
  188SLPC   H8Y21737   3.406   2.404   7.496  0.3909  0.3431  0.5021
  188SLPC   C3921738   3.559   2.421   7.654  0.1235  0.3824  0.0566
  188SLPC   H9X21739   3.530   2.522   7.693  0.9234 -0.4969  3.3042
  188SLPC   H9Y21740   3.669   2.411   7.665  0.0411 -0.4284  0.1476
  188SLPC  C31021741   3.498   2.317   7.751 -0.5529  0.1028 -0.2754
  188SLPC  H10X21742   3.520   2.213   7.720 -0.9542 -0.7378  2.0809
  188SLPC  H10Y21743   3.389   2.332   7.765 -0.6336 -0.7789  0.1246
  188SLPC  C31121744   3.549   2.320   7.901  0.5031  0.3333  0.6169
  188SLPC  H11X21745   3.521   2.421   7.940 -2.9559  0.7510 -2.3825
  188SLPC  H11Y21746   3.659   2.314   7.909  0.7283  2.3044 -0.2897
  188SLPC  C31221747   3.485   2.211   7.989 -0.2051 -0.0830 -0.0821
  188SLPC  H12X21748   3.509   2.122   7.927 -1.8636  0.4367 -1.5466
  188SLPC  H12Y21749   3.376   2.222   8.002 -0.3980 -2.4565  0.8388
  188SLPC  C31321750   3.547   2.200   8.127 -0.4129  0.1411 -0.0893
  188SLPC  H13X21751   3.537   2.299   8.177  1.0092  0.1567  0.1928
  188SLPC  H13Y21752   3.656   2.189   8.115 -0.1041  2.0806  0.5677
  188SLPC  C31421753   3.489   2.093   8.214 -0.2879  0.3252  0.2124
  188SLPC  H14X21754   3.379   2.077   8.211 -0.1040 -1.0332  0.0349
  188SLPC  H14Y21755   3.513   2.129   8.316 -1.3955  0.7304  0.3365
  188SLPC  C31521756   3.552   1.949   8.191  0.0541  0.8583  0.2978
  188SLPC  H15X21757   3.651   1.971   8.145  0.2630  0.7315  0.6801
  188SLPC  H15Y21758   3.477   1.898   8.127  0.1574  0.7130  0.2923
  188SLPC  C31621759   3.569   1.866   8.317 -0.2434  0.0264 -0.6273
  188SLPC  H16X21760   3.470   1.866   8.367  0.3514 -0.7049  0.5815
  188SLPC  H16Y21761   3.640   1.911   8.389  0.0715  0.2212 -1.0581
  188SLPC  C31721762   3.630   1.726   8.304  0.4145  0.1353  0.4733
  188SLPC  H17X21763   3.727   1.738   8.253  0.2310  3.2020  0.6658
  188SLPC  H17Y21764   3.573   1.655   8.241 -2.2514  0.9102  1.8353
  188SLPC  C31821765   3.641   1.667   8.442 -0.8233  0.7354  0.1265
  188SLPC  H18X21766   3.555   1.700   8.504 -1.1367  0.6914 -0.2764
  188SLPC  H18Y21767   3.731   1.703   8.496 -1.4376  0.7749  1.1312
  188SLPC  H18Z21768   3.637   1.557   8.434  0.5698  0.6022  1.0239
  189SLPC     N21769   0.820   2.219   5.916  0.2256  0.2427 -0.3343
  189SLPC   C1321770   0.734   2.108   5.858  0.6436  0.7865  0.2385
  189SLPC  H13A21771   0.710   2.040   5.938  1.4123  0.4535  0.1871
  189SLPC  H13B21772   0.641   2.140   5.811  1.2077  3.8244  0.9841
  189SLPC  H13C21773   0.797   2.057   5.788  0.7360  1.3700 -0.1159
  189SLPC   C1421774   0.742   2.343   5.957  0.6529  0.1096 -0.8579
  189SLPC  H14A21775   0.692   2.320   6.050  0.9518 -1.0336 -0.9586
  189SLPC  H14B21776   0.799   2.429   5.988 -0.4719  0.2402  1.0235
  189SLPC  H14C21777   0.670   2.382   5.887  0.8868  1.2830 -0.4688
  189SLPC   C1521778   0.910   2.262   5.807 -0.2518  0.0233  0.1317
  189SLPC  H15A21779   0.844   2.279   5.723  1.8873 -1.8203 -2.0965
  189SLPC  H15B21780   0.970   2.352   5.816 -0.7240  0.4591 -0.9346
  189SLPC  H15C21781   0.970   2.181   5.768  0.2370  1.2703 -1.8663
  189SLPC   C1221782   0.894   2.171   6.035  0.3067  0.2470 -0.0637
  189SLPC  H12A21783   0.961   2.253   6.059 -0.7510  1.9976 -2.6362
  189SLPC  H12B21784   0.956   2.093   5.994 -0.3301  0.5229 -1.6221
  189SLPC   C1121785   0.818   2.132   6.162 -0.0095 -0.1154 -0.0633
  189SLPC  H11A21786   0.783   2.229   6.203 -1.0703  0.2001 -1.6226
  189SLPC  H11B21787   0.889   2.080   6.230  0.1112  0.9501  0.6400
  189SLPC     P21788   0.561   2.058   6.192 -0.3916  0.3078 -0.3292
  189SLPC   O1321789   0.534   2.206   6.205 -0.0751  0.2744  0.1941
  189SLPC   O1421790   0.477   1.983   6.098  0.2199 -0.3794 -0.1053
  189SLPC   O1221791   0.711   2.042   6.145 -0.0098  0.2862 -0.0240
  189SLPC   O1121792   0.579   1.994   6.337  0.2556  0.1148 -0.3173
  189SLPC    C121793   0.467   2.006   6.422  1.3118 -0.0253  1.1128
  189SLPC    HA21794   0.441   2.112   6.445 -1.5327 -0.1226 -1.0349
  189SLPC    HB21795   0.375   1.965   6.376  1.4217  0.7653  0.1283
  189SLPC    C221796   0.488   1.934   6.563 -0.0103 -0.2034  0.3849
  189SLPC    HS21797   0.481   1.824   6.552 -0.8546 -0.2328  1.0286
  189SLPC   O2121798   0.380   1.985   6.644  0.3743 -0.1769  0.2900
  189SLPC   C2121799   0.343   1.910   6.748 -0.7114  0.6622  0.1106
  189SLPC   O2221800   0.376   1.797   6.771 -0.2106  0.6177  0.4719
  189SLPC   C2221801   0.248   1.985   6.827  0.1896  0.2294 -0.2262
  189SLPC   H2R21802   0.221   2.079   6.775  0.4817 -0.3140 -1.4002
  189SLPC   H2S21803   0.149   1.935   6.837  0.0358  0.6267  0.2924
  189SLPC    C321804   0.622   1.970   6.623 -0.1888  0.2174 -0.4408
  189SLPC    HX21805   0.624   2.081   6.630 -3.1079  0.2634  1.5207
  189SLPC    HY21806   0.698   1.932   6.552 -2.1267 -2.7887 -1.0658
  189SLPC   O3121807   0.644   1.922   6.756 -0.0031 -0.2278 -0.3252
  189SLPC   C3121808   0.702   1.806   6.769  0.3391  0.0352  0.9980
  189SLPC   O3221809   0.766   1.743   6.684  0.5487 -0.0277  0.3405
  189SLPC   C3221810   0.686   1.751   6.916 -0.1740  0.1667 -0.0808
  189SLPC   H2X21811   0.751   1.662   6.932 -0.7213  0.1316  2.2222
  189SLPC   H2Y21812   0.580   1.735   6.945 -0.0163  0.9089  0.9471
  189SLPC   C2321813   0.294   2.017   6.971 -0.9033  0.4803  0.1340
  189SLPC   H3R21814   0.228   2.098   7.010  0.2960  1.1884  0.7398
  189SLPC   H3S21815   0.395   2.063   6.974 -0.5681 -0.2739  2.1213
  189SLPC   C2421816   0.278   1.897   7.062 -0.7599 -0.4883 -0.1349
  189SLPC   H4R21817   0.314   1.812   7.002 -1.1031 -0.2946 -0.6196
  189SLPC   H4S21818   0.172   1.875   7.082 -1.1106  1.4827  0.4328
  189SLPC   C2521819   0.354   1.900   7.196 -0.1200  0.2719  0.4403
  189SLPC   H5R21820   0.462   1.925   7.186 -0.7572  2.9983 -0.2103
  189SLPC   H5S21821   0.346   1.797   7.238  0.3357  0.2248  0.4218
  189SLPC   C2621822   0.304   2.007   7.293 -0.5358 -0.9569 -0.0531
  189SLPC   H6R21823   0.198   1.996   7.325  0.5232 -3.6754  3.0065
  189SLPC   H6S21824   0.311   2.104   7.239  0.4536 -1.7543 -1.4323
  189SLPC   C2721825   0.380   2.019   7.426  0.7868 -0.3514  0.5022
  189SLPC   H7R21826   0.371   2.126   7.457 -0.0036  0.5430 -2.4831
  189SLPC   H7S21827   0.487   2.006   7.399  1.1160  2.5757  0.0670
  189SLPC   C2821828   0.319   1.924   7.534 -0.5477 -0.3188 -0.5906
  189SLPC   H8R21829   0.399   1.925   7.611  0.3736  2.3514 -1.4615
  189SLPC   H8S21830   0.306   1.821   7.495  0.3703 -1.2247  1.3661
  189SLPC   C2921831   0.189   1.956   7.601  0.4008  0.6187  0.0487
  189SLPC   H9R21832   0.099   1.947   7.538  2.0457  0.8440 -2.4984
  189SLPC  C21021833   0.177   1.988   7.736  0.2022  0.0195  0.4403
  189SLPC  H10R21834   0.074   2.008   7.769 -1.2324 -0.7373 -3.0295
  189SLPC  C21121835   0.284   1.989   7.849 -0.0023  0.1809 -0.0574
  189SLPC  H11R21836   0.235   2.032   7.939  0.4062  0.2494  0.1353
  189SLPC  H11S21837   0.363   2.060   7.817  0.1364  1.5107  2.9387
  189SLPC  C21221838   0.345   1.852   7.901  0.1108 -0.2290  0.2393
  189SLPC  H12R21839   0.409   1.797   7.830  0.8661  0.2159  0.5651
  189SLPC  C21321840   0.334   1.796   8.022 -0.0412  0.8013  0.1998
  189SLPC  H13R21841   0.390   1.705   8.050  0.8116  1.7220  1.6075
  189SLPC  C21421842   0.265   1.862   8.140 -0.1658  0.7413 -0.5273
  189SLPC  H14R21843   0.254   1.972   8.133  0.2457  1.0556  2.4400
  189SLPC  H14S21844   0.322   1.851   8.235 -0.6319  1.2689 -0.1810
  189SLPC  C21521845   0.122   1.815   8.172 -0.1665  0.3361  0.0588
  189SLPC  H15R21846   0.119   1.713   8.214 -0.8498  0.4210  0.2340
  189SLPC  H15S21847   0.058   1.816   8.082  1.3666  0.0105 -1.0755
  189SLPC  C21621848   0.054   1.895   8.280  0.6518  0.5512  0.1664
  189SLPC  H16R21849   0.055   2.004   8.257 -0.1480  1.5342  4.0563
  189SLPC  H16S21850   0.108   1.869   8.373 -0.9684 -0.5027  0.8628
  189SLPC  C21721851  -0.093   1.846   8.314  0.0783 -0.8460  0.7472
  189SLPC  H17R21852  -0.091   1.738   8.341  0.2654 -0.4548  2.3544
  189SLPC  H17S21853  -0.151   1.855   8.219 -1.1200 -0.4951  1.4922
  189SLPC  C21821854  -0.168   1.911   8.425  0.0399 -0.3404  0.1453
  189SLPC  H18R21855  -0.264   1.864   8.452 -1.1691  1.8985  0.0089
  189SLPC  H18S21856  -0.197   2.017   8.407  0.8455 -0.4089 -1.8239
  189SLPC  H18T21857  -0.102   1.912   8.514  0.8630  0.1255 -0.4557
  189SLPC   C3321858   0.737   1.862   7.018 -0.6476  0.6193  0.1572
  189SLPC   H3X21859   0.653   1.932   7.040 -1.3843 -0.8699  2.5789
  189SLPC   H3Y21860   0.816   1.918   6.965  0.0061  0.9221  1.3964
  189SLPC   C3421861   0.791   1.806   7.153 -0.0313 -0.2036  0.3802
  189SLPC   H4X21862   0.844   1.711   7.135  1.2238  0.3009  1.2891
  189SLPC   H4Y21863   0.704   1.790   7.221  0.4148  4.5691  2.4977
  189SLPC   C3521864   0.866   1.910   7.238  0.1758 -0.5227  0.4108
  189SLPC   H5X21865   0.812   2.007   7.249  0.6129 -0.4100  1.6017
  189SLPC   H5Y21866   0.961   1.937   7.189 -0.7492  0.2992 -1.0178
  189SLPC   C3621867   0.888   1.856   7.381  0.8972 -0.3120 -0.2414
  189SLPC   H6X21868   0.923   1.750   7.378  1.6907 -0.0867  0.4488
  189SLPC   H6Y21869   0.790   1.865   7.432  0.8069 -1.7883 -0.1024
  189SLPC   C3721870   0.966   1.938   7.476 -0.8876  0.2859  0.0802
  189SLPC   H7X21871   0.915   2.035   7.493 -1.5936 -0.3041  1.4217
  189SLPC   H7Y21872   1.067   1.953   7.432 -1.1703  1.0159 -0.3443
  189SLPC   C3821873   0.998   1.878   7.613  0.4103  0.0639  0.1271
  189SLPC   H8X21874   1.065   1.790   7.622  0.4781  0.1765  0.7368
  189SLPC   H8Y21875   0.905   1.855   7.669  0.6862 -1.2108  0.0842
  189SLPC   C3921876   1.060   1.990   7.703  0.9311 -0.1923  0.2362
  189SLPC   H9X21877   1.018   2.093   7.700  0.0858 -0.4628  1.7178
  189SLPC   H9Y21878   1.166   2.014   7.681  0.3684  4.4549  1.4976
  189SLPC  C31021879   1.054   1.960   7.850 -0.1546 -0.4408 -0.1619
  189SLPC  H10X21880   1.112   1.867   7.867  1.4587  0.3762 -0.9822
  189SLPC  H10Y21881   0.954   1.935   7.892  0.1552 -1.2445  0.1123
  189SLPC  C31121882   1.109   2.081   7.930  0.3891  0.2813  0.8948
  189SLPC  H11X21883   1.037   2.166   7.935  0.8681  1.0107 -2.1884
  189SLPC  H11Y21884   1.195   2.139   7.889  1.5908 -1.1022  1.3674
  189SLPC  C31221885   1.148   2.037   8.065  0.3553  0.3374 -0.7306
  189SLPC  H12X21886   1.216   1.948   8.063 -0.1835 -0.1356  0.7573
  189SLPC  H12Y21887   1.065   2.007   8.132  0.7432 -0.4891 -0.6099
  189SLPC  C31321888   1.228   2.135   8.150 -0.3669 -0.7413  0.3456
  189SLPC  H13X21889   1.167   2.195   8.221  1.2461 -1.4423  2.4114
  189SLPC  H13Y21890   1.285   2.211   8.093 -2.9544  0.7112 -0.4825
  189SLPC  C31421891   1.333   2.061   8.242  0.1765  0.8001  0.0464
  189SLPC  H14X21892   1.421   2.027   8.183 -0.5698  0.1924 -0.7356
  189SLPC  H14Y21893   1.296   1.963   8.280 -0.6579  1.5182  1.1669
  189SLPC  C31521894   1.395   2.144   8.357  0.1656  0.8476 -0.8971
  189SLPC  H15X21895   1.482   2.089   8.397  0.9110  2.6203  0.0103
  189SLPC  H15Y21896   1.326   2.147   8.444 -0.4067  0.9702 -1.3454
  189SLPC  C31621897   1.438   2.284   8.317  0.0684 -0.3631 -0.9360
  189SLPC  H16X21898   1.451   2.347   8.408 -2.1553  1.0608 -1.5214
  189SLPC  H16Y21899   1.360   2.327   8.249  0.4719 -0.6804 -1.6052
  189SLPC  C31721900   1.579   2.300   8.256 -0.1121 -0.3520 -0.3708
  189SLPC  H17X21901   1.577   2.244   8.159  0.8170 -2.3273  0.6800
  189SLPC  H17Y21902   1.660   2.257   8.319  0.2142  0.9138  0.1012
  189SLPC  C31821903   1.597   2.448   8.235 -0.2051 -0.2715  1.2673
  189SLPC  H18X21904   1.687   2.448   8.170 -2.9484 -1.9996 -2.9864
  189SLPC  H18Y21905   1.620   2.504   8.328  1.3128  0.5692  0.4146
  189SLPC  H18Z21906   1.512   2.490   8.177 -0.6832 -0.2888  1.9331
  190SLPC     N21907   6.830   2.722   6.048  1.2514  0.5969  0.1794
  190SLPC   C1321908   6.749   2.772   5.931 -0.3619  0.4857 -0.4427
  190SLPC  H13A21909   6.718   2.686   5.873  1.5028 -2.1792  2.2153
  190SLPC  H13B21910   6.656   2.820   5.957 -0.8187 -1.4903  1.8822
  190SLPC  H13C21911   6.805   2.847   5.877  0.7435 -0.1934 -0.2670
  190SLPC   C1421912   6.869   2.848   6.124  0.1150  0.1446  0.6178
  190SLPC  H14A21913   6.954   2.834   6.189  0.1615  1.5829  0.9016
  190SLPC  H14B21914   6.891   2.931   6.059  2.3708 -1.2385 -0.5018
  190SLPC  H14C21915   6.788   2.882   6.187 -0.0226  1.0068 -0.0093
  190SLPC   C1521916   6.957   2.667   5.997  0.3876  0.0227  0.4286
  190SLPC  H15A21917   6.941   2.571   5.950 -0.7037 -0.3684  1.5232
  190SLPC  H15B21918   7.004   2.726   5.920 -0.2330  1.4921  1.1314
  190SLPC  H15C21919   7.021   2.658   6.083  1.8855  0.6605 -0.5771
  190SLPC   C1221920   6.749   2.623   6.137  0.0606  0.3564 -0.1406
  190SLPC  H12A21921   6.713   2.546   6.071 -1.1755 -0.2645  1.1773
  190SLPC  H12B21922   6.660   2.670   6.178  1.2818  1.8456  0.9601
  190SLPC   C1121923   6.819   2.561   6.258  0.5422 -0.4963  0.2129
  190SLPC  H11A21924   6.739   2.516   6.321  0.5119 -1.6426 -0.6171
  190SLPC  H11B21925   6.858   2.641   6.325  0.0095  0.3369 -0.4488
  190SLPC     P21926   6.884   2.329   6.164 -0.1176 -0.0494 -0.4572
  190SLPC   O1321927   6.750   2.343   6.103 -0.8161  0.5154  0.6548
  190SLPC   O1421928   7.000   2.283   6.086  0.6146  0.2138  0.3492
  190SLPC   O1221929   6.919   2.463   6.231  0.0256 -0.9634 -0.1140
  190SLPC   O1121930   6.854   2.228   6.282 -0.1607  0.3322 -0.3671
  190SLPC    C121931   6.950   2.138   6.334 -0.0493  0.0520  0.1220
  190SLPC    HA21932   6.916   2.034   6.315 -0.6464  0.0914  0.9337
  190SLPC    HB21933   7.045   2.146   6.277  0.3106  1.4737  0.8518
  190SLPC    C221934   6.979   2.167   6.488 -0.6932 -0.0378  0.4504
  190SLPC    HS21935   7.060   2.101   6.526 -0.4363  0.3358  0.5590
  190SLPC   O2121936   6.850   2.170   6.560  0.3874  0.5316  0.0016
  190SLPC   C2121937   6.815   2.049   6.591  0.3880 -0.6678 -0.1540
  190SLPC   O2221938   6.886   1.951   6.565 -0.2616  0.2265 -0.3502
  190SLPC   C2221939   6.701   2.058   6.692  1.2351  0.3885 -0.4620
  190SLPC   H2R21940   6.636   2.141   6.656  1.1234  0.3756 -0.2950
  190SLPC   H2S21941   6.640   1.966   6.685  1.0611  0.2823  1.7382
  190SLPC    C321942   7.033   2.314   6.501  0.2672 -0.5307 -0.4514
  190SLPC    HX21943   6.960   2.396   6.486 -1.5403 -1.6339  1.6317
  190SLPC    HY21944   7.122   2.336   6.439  0.2037  0.0961 -0.3241
  190SLPC   O3121945   7.075   2.340   6.640  0.0781 -0.4069  0.2855
  190SLPC   C3121946   7.193   2.343   6.680  0.1268 -0.1024 -0.2628
  190SLPC   O3221947   7.299   2.336   6.618 -0.1539 -0.5267 -0.5303
  190SLPC   C3221948   7.197   2.370   6.832 -1.1182  0.3013  0.0163
  190SLPC   H2X21949   7.136   2.293   6.882 -0.1078 -0.1589  0.5886
  190SLPC   H2Y21950   7.150   2.470   6.848 -1.8567  0.0434 -0.4842
  190SLPC   C2321951   6.726   2.072   6.842  0.8877  0.0416  0.0778
  190SLPC   H3R21952   6.780   1.979   6.870  2.0214  0.9812  1.1269
  190SLPC   H3S21953   6.636   2.071   6.908  1.2965 -3.0695  0.7527
  190SLPC   C2421954   6.784   2.208   6.878 -0.0905 -0.0974 -0.0333
  190SLPC   H4R21955   6.726   2.287   6.826 -1.3906 -0.0030  1.4870
  190SLPC   H4S21956   6.891   2.210   6.849 -0.0835  1.4408 -0.0050
  190SLPC   C2521957   6.786   2.235   7.030 -0.1489  0.6183 -0.5001
  190SLPC   H5R21958   6.821   2.147   7.087 -0.4199  1.4639  1.0408
  190SLPC   H5S21959   6.685   2.260   7.068  1.1647 -0.6759  4.6543
  190SLPC   C2621960   6.881   2.349   7.071  0.3150 -0.1848 -0.0176
  190SLPC   H6R21961   6.870   2.436   7.002 -1.1524  0.4804  0.9959
  190SLPC   H6S21962   6.983   2.308   7.057 -0.6464 -2.4849 -0.8199
  190SLPC   C2721963   6.858   2.390   7.217 -0.5937  0.4137  0.6895
  190SLPC   H7R21964   6.955   2.433   7.250 -0.4024  0.8521 -0.4067
  190SLPC   H7S21965   6.828   2.307   7.284 -0.8463 -1.2505 -1.3600
  190SLPC   C2821966   6.753   2.505   7.231  0.3666 -0.1402 -0.3976
  190SLPC   H8R21967   6.661   2.458   7.190  0.4704  1.5704 -2.7996
  190SLPC   H8S21968   6.777   2.594   7.168  0.7213  0.3490  0.4036
  190SLPC   C2921969   6.708   2.542   7.367 -0.6770 -0.0398  0.2235
  190SLPC   H9R21970   6.695   2.456   7.434  1.9874 -0.9694 -0.3382
  190SLPC  C21021971   6.680   2.668   7.407 -0.5751 -0.6064  0.0375
  190SLPC  H10R21972   6.655   2.694   7.511 -0.6128  2.4340 -0.6454
  190SLPC  C21121973   6.686   2.799   7.328  0.0616  0.2265  0.2734
  190SLPC  H11R21974   6.779   2.795   7.268 -0.1020 -2.3561  0.0604
  190SLPC  H11S21975   6.700   2.885   7.397 -0.0095 -0.3545  1.0267
  190SLPC  C21221976   6.562   2.820   7.233  0.1493  0.0614 -0.2976
  190SLPC  H12R21977   6.554   2.748   7.150  2.3080 -1.5658  0.8270
  190SLPC  C21321978   6.469   2.915   7.242 -0.0234 -0.3016 -0.5707
  190SLPC  H13R21979   6.391   2.907   7.165  0.3864  3.5707 -1.6299
  190SLPC  C21421980   6.442   3.029   7.333 -0.1613  0.0527  0.9108
  190SLPC  H14R21981   6.368   3.100   7.292  1.1215  1.3057  0.7124
  190SLPC  H14S21982   6.529   3.097   7.343  1.2163 -1.0402 -2.2261
  190SLPC  C21521983   6.379   2.974   7.466 -0.2667 -0.1433  0.3726
  190SLPC  H15R21984   6.450   2.901   7.511 -1.2134 -1.5798 -0.3692
  190SLPC  H15S21985   6.293   2.912   7.432  0.6788 -0.3162 -1.8411
  190SLPC  C21621986   6.347   3.094   7.558 -0.0885 -0.2443 -0.1794
  190SLPC  H16R21987   6.286   3.174   7.511  2.1740  1.1576 -0.8844
  190SLPC  H16S21988   6.439   3.146   7.592  0.3542 -0.4800 -0.9760
  190SLPC  C21721989   6.260   3.046   7.679 -0.6065  0.0359  0.0769
  190SLPC  H17R21990   6.243   3.134   7.744 -3.5420 -1.2389  1.2434
  190SLPC  H17S21991   6.325   2.981   7.741  0.1074  0.3144 -0.3708
  190SLPC  C21821992   6.121   2.986   7.651  0.0058 -0.7376  0.5558
  190SLPC  H18R21993   6.071   2.954   7.745  0.3397  0.4172  1.1338
  190SLPC  H18S21994   6.126   2.897   7.584 -1.6336  0.9492 -2.0172
  190SLPC  H18T21995   6.057   3.060   7.599  4.4594  3.0950 -0.0919
  190SLPC   C3321996   7.339   2.355   6.896  0.3311 -0.4554 -0.4217
  190SLPC   H3X21997   7.413   2.425   6.853  0.9282 -0.4351  0.5953
  190SLPC   H3Y21998   7.369   2.250   6.879 -0.3537 -0.5351 -1.2107
  190SLPC   C3421999   7.336   2.373   7.052  0.0217  0.2691  0.0587
  190SLPC   H4X22000   7.252   2.310   7.088 -1.4103  1.9066 -0.2451
  190SLPC   H4Y22001   7.311   2.477   7.083 -1.2137 -0.4307  1.5246
  190SLPC   C3522002   7.467   2.319   7.106  0.4840  1.1853 -0.2513
  190SLPC   H5X22003   7.553   2.371   7.059  0.8886 -0.4379 -1.3753
  190SLPC   H5Y22004   7.476   2.209   7.096  0.1235  1.0600  0.6139
  190SLPC   C3622005   7.478   2.344   7.261 -0.0282  0.3294  0.6250
  190SLPC   H6X22006   7.421   2.266   7.317 -0.2730 -0.8756 -1.2118
  190SLPC   H6Y22007   7.430   2.439   7.291 -0.3185 -0.2128  1.9471
  190SLPC   C3722008   7.614   2.320   7.326  0.2933 -0.0595  0.9323
  190SLPC   H7X22009   7.698   2.376   7.280 -1.0556 -0.4346 -2.3090
  190SLPC   H7Y22010   7.638   2.211   7.326 -2.4138 -0.7446  2.8485
  190SLPC   C3822011   7.632   2.355   7.473  0.5315  0.1563 -0.8558
  190SLPC   H8X22012   7.598   2.460   7.487 -1.2925 -0.6541  1.6178
  190SLPC   H8Y22013   7.741   2.344   7.491  0.3379 -0.1521  0.2018
  190SLPC   C3922014   7.562   2.255   7.567 -0.2859  0.1662  0.3419
  190SLPC   H9X22015   7.589   2.155   7.526  0.0441  1.0786 -1.7779
  190SLPC   H9Y22016   7.453   2.278   7.568 -0.6526 -1.4323  1.1439
  190SLPC  C31022017   7.623   2.263   7.705 -0.2064  0.0312  0.6590
  190SLPC  H10X22018   7.618   2.367   7.745  1.2375  0.5850 -0.4906
  190SLPC  H10Y22019   7.732   2.244   7.694 -0.3536 -0.5142  0.1042
  190SLPC  C31122020   7.557   2.163   7.803 -0.4928  0.0848 -0.4955
  190SLPC  H11X22021   7.597   2.060   7.787 -1.3084 -0.5589  1.3121
  190SLPC  H11Y22022   7.451   2.165   7.769 -0.1849 -1.7517 -1.7042
  190SLPC  C31222023   7.578   2.210   7.954  0.6104  0.8065 -0.2314
  190SLPC  H12X22024   7.530   2.310   7.954 -1.5966 -0.0583 -3.6412
  190SLPC  H12Y22025   7.688   2.222   7.969  1.2309 -3.9224  0.7096
  190SLPC  C31322026   7.538   2.115   8.061 -0.1953 -0.6772  0.7589
  190SLPC  H13X22027   7.619   2.039   8.063  1.5179  1.0076 -0.8060
  190SLPC  H13Y22028   7.439   2.068   8.041  0.0246 -0.4539 -1.0214
  190SLPC  C31422029   7.538   2.186   8.203 -0.2993  0.0095  0.6797
  190SLPC  H14X22030   7.642   2.212   8.231  0.8613 -3.4804  0.1252
  190SLPC  H14Y22031   7.512   2.105   8.276 -1.0265 -1.6571 -1.3227
  190SLPC  C31522032   7.447   2.303   8.222  0.0566  0.0620  0.1337
  190SLPC  H15X22033   7.455   2.376   8.139 -0.8701  0.8334  0.6972
  190SLPC  H15Y22034   7.484   2.349   8.316  0.9424  0.3326 -0.3291
  190SLPC  C31622035   7.301   2.264   8.244 -0.5445  0.1341  0.2662
  190SLPC  H16X22036   7.265   2.185   8.175 -2.0702 -1.1494  2.4188
  190SLPC  H16Y22037   7.257   2.366   8.242  2.0003  1.3486 -2.9774
  190SLPC  C31722038   7.286   2.204   8.389  1.1061 -0.4628 -0.0682
  190SLPC  H17X22039   7.299   2.275   8.474 -0.7262 -0.9100  0.6368
  190SLPC  H17Y22040   7.362   2.125   8.409  1.7152  0.4379  1.4016
  190SLPC  C31822041   7.136   2.149   8.403 -0.3275 -0.4683  0.0649
  190SLPC  H18X22042   7.092   2.118   8.500 -1.3928  0.1644 -0.2114
  190SLPC  H18Y22043   7.097   2.078   8.327 -1.9583  0.5085 -0.0576
  190SLPC  H18Z22044   7.072   2.235   8.377  0.0846 -0.1448  0.1074
  191SLPC     N22045   1.164   3.283   5.512  0.4102 -0.7324  0.2980
  191SLPC   C1322046   1.223   3.162   5.571  0.2076  0.3670  0.2503
  191SLPC  H13A22047   1.227   3.083   5.497  1.3843  2.2112 -1.7744
  191SLPC  H13B22048   1.315   3.172   5.626 -0.5068 -1.9631  2.0534
  191SLPC  H13C22049   1.161   3.117   5.647  0.3607 -1.7667 -0.8170
  191SLPC   C1422050   1.077   3.257   5.397  0.1164  0.7972 -0.1450
  191SLPC  H14A22051   1.044   3.344   5.342  0.6604  1.2944  0.3132
  191SLPC  H14B22052   1.127   3.192   5.326 -1.1292 -1.3630  0.8457
  191SLPC  H14C22053   0.983   3.205   5.412  0.3084 -0.7224 -3.2848
  191SLPC   C1522054   1.273   3.365   5.456 -0.2047  0.2982 -0.8095
  191SLPC  H15A22055   1.342   3.304   5.399  0.8562  1.7652 -1.1566
  191SLPC  H15B22056   1.230   3.439   5.390  1.5910 -0.2503 -2.7255
  191SLPC  H15C22057   1.330   3.421   5.529  1.7101  1.0469 -2.7539
  191SLPC   C1222058   1.084   3.358   5.616  0.0916 -0.2023 -0.0435
  191SLPC  H12A22059   1.009   3.285   5.644 -0.7478  0.4218 -0.6159
  191SLPC  H12B22060   1.031   3.442   5.574  0.3011 -0.2030 -0.3162
  191SLPC   C1122061   1.148   3.386   5.763  0.2924 -0.9098  0.3346
  191SLPC  H11A22062   1.137   3.287   5.814 -0.6363 -0.5435  0.8720
  191SLPC  H11B22063   1.082   3.450   5.826  2.0698  0.3590  0.9880
  191SLPC     P22064   1.329   3.565   5.746 -0.1963 -0.3733 -0.2646
  191SLPC   O1322065   1.443   3.568   5.652 -0.2264  0.4273  0.0056
  191SLPC   O1422066   1.218   3.655   5.717  0.5526  0.5799 -0.2862
  191SLPC   O1222067   1.290   3.416   5.771  0.3917  0.1253  0.5320
  191SLPC   O1122068   1.380   3.604   5.892  0.1533  0.5762 -0.4577
  191SLPC    C122069   1.319   3.553   6.014 -0.6235 -0.1827  0.0466
  191SLPC    HA22070   1.220   3.506   5.996  0.2894 -1.6090 -1.4821
  191SLPC    HB22071   1.385   3.474   6.056 -1.3617 -0.4502  0.7330
  191SLPC    C222072   1.301   3.667   6.120 -0.2157  0.6400  0.5559
  191SLPC    HS22073   1.393   3.729   6.134 -1.1703  2.3055 -0.2095
  191SLPC   O2122074   1.267   3.603   6.242 -0.2095  0.1955 -0.2448
  191SLPC   C2122075   1.319   3.655   6.346 -0.3233 -0.0125 -0.4645
  191SLPC   O2222076   1.393   3.755   6.352  0.5236  0.5088 -0.6424
  191SLPC   C2222077   1.272   3.580   6.474 -0.3244 -0.6596  0.8963
  191SLPC   H2R22078   1.197   3.648   6.521 -1.4482  0.8642 -2.7473
  191SLPC   H2S22079   1.219   3.490   6.437  0.4916 -0.7205 -0.1783
  191SLPC    C322080   1.193   3.770   6.078  0.0876 -0.2134  0.4678
  191SLPC    HX22081   1.093   3.724   6.065  0.0445  0.0739 -0.2551
  191SLPC    HY22082   1.219   3.807   5.977 -1.3664 -0.8120 -0.1558
  191SLPC   O3122083   1.201   3.886   6.160 -0.1734  0.5834 -0.3264
  191SLPC   C3122084   1.100   3.905   6.245  0.4361  0.0528 -0.4011
  191SLPC   O3222085   1.003   3.830   6.269 -0.0354  0.1234  0.1301
  191SLPC   C3222086   1.124   4.043   6.316 -0.2809  0.1033 -1.1297
  191SLPC   H2X22087   1.128   4.117   6.233  0.8202  0.9524 -0.3541
  191SLPC   H2Y22088   1.221   4.029   6.368 -1.8339 -1.4893  1.5794
  191SLPC   C2322089   1.392   3.550   6.573  0.0739  0.4134 -0.8545
  191SLPC   H3R22090   1.467   3.632   6.565  0.3709  0.1480 -0.8152
  191SLPC   H3S22091   1.441   3.453   6.549 -1.5684 -0.9110  0.8682
  191SLPC   C2422092   1.352   3.532   6.725  0.7389  0.5059 -0.0077
  191SLPC   H4R22093   1.446   3.507   6.780 -1.0146 -1.1184  2.4850
  191SLPC   H4S22094   1.286   3.443   6.718  1.6010 -0.3628  2.0776
  191SLPC   C2522095   1.265   3.640   6.791  0.5502 -0.3535  0.6368
  191SLPC   H5R22096   1.168   3.646   6.737 -0.2399 -1.4156  1.8601
  191SLPC   H5S22097   1.311   3.740   6.795  0.5277 -0.3663  1.2410
  191SLPC   C2622098   1.243   3.599   6.938  0.0712 -0.3059 -0.7061
  191SLPC   H6R22099   1.180   3.508   6.934 -1.4580  0.5003  2.0838
  191SLPC   H6S22100   1.173   3.678   6.974  0.7855  0.6883 -1.4236
  191SLPC   C2722101   1.364   3.582   7.029  0.2347 -0.3104  0.5989
  191SLPC   H7R22102   1.456   3.621   6.980 -1.1654  1.4601 -0.7899
  191SLPC   H7S22103   1.386   3.474   7.039  2.0396 -0.1251 -0.7851
  191SLPC   C2822104   1.353   3.661   7.155  0.2867 -0.1050  0.2557
  191SLPC   H8R22105   1.329   3.767   7.134  2.7737  0.8206  1.5677
  191SLPC   H8S22106   1.458   3.659   7.192  0.5935 -1.4073 -0.6091
  191SLPC   C2922107   1.255   3.598   7.246  0.5606 -0.8560  0.3460
  191SLPC   H9R22108   1.162   3.554   7.208  0.0610  0.8988 -0.5404
  191SLPC  C21022109   1.262   3.611   7.377 -0.3405  0.0242  0.6348
  191SLPC  H10R22110   1.190   3.557   7.441  0.7849 -1.4295  0.7373
  191SLPC  C21122111   1.377   3.674   7.453 -0.1237  0.2660 -0.1010
  191SLPC  H11R22112   1.437   3.744   7.390 -1.9207  1.5069 -0.5151
  191SLPC  H11S22113   1.436   3.586   7.487  1.9131  0.6357 -2.3884
  191SLPC  C21222114   1.362   3.752   7.583 -0.4512  0.2048  0.5255
  191SLPC  H12R22115   1.397   3.854   7.562  1.2798 -0.3798  0.4094
  191SLPC  C21322116   1.320   3.716   7.700  0.9339 -0.4612  0.1061
  191SLPC  H13R22117   1.316   3.797   7.773  1.6648 -0.4329  0.1214
  191SLPC  C21422118   1.263   3.583   7.747 -0.2482  0.3806 -0.4030
  191SLPC  H14R22119   1.231   3.525   7.657  0.5904  1.4091 -1.3925
  191SLPC  H14S22120   1.173   3.597   7.811 -0.8456 -0.7788 -0.9456
  191SLPC  C21522121   1.358   3.502   7.831 -0.1730  0.4201  0.6663
  191SLPC  H15R22122   1.446   3.471   7.771 -0.6281 -1.2871  0.8241
  191SLPC  H15S22123   1.298   3.416   7.868 -1.7014  0.4563 -1.5267
  191SLPC  C21622124   1.412   3.584   7.950  0.6076 -0.1471 -0.8228
  191SLPC  H16R22125   1.326   3.643   7.988 -0.3842  1.0087 -4.4611
  191SLPC  H16S22126   1.491   3.657   7.921  1.0565  0.4333  1.6279
  191SLPC  C21722127   1.467   3.511   8.065 -0.1303 -0.4251 -0.4172
  191SLPC  H17R22128   1.468   3.585   8.148 -1.9781  1.2790 -1.8041
  191SLPC  H17S22129   1.574   3.502   8.038 -0.5607  0.0654 -2.4609
  191SLPC  C21822130   1.405   3.378   8.104  0.4751 -0.6127 -0.8526
  191SLPC  H18R22131   1.434   3.335   8.202  0.7462  0.2334 -0.5513
  191SLPC  H18S22132   1.432   3.306   8.023 -0.7535 -0.0095 -1.8501
  191SLPC  H18T22133   1.294   3.380   8.108  0.4249  0.5785 -1.8944
  191SLPC   C3322134   1.021   4.086   6.419 -0.0278  0.5139 -0.2582
  191SLPC   H3X22135   0.921   4.061   6.378 -0.2780  2.1102 -0.6804
  191SLPC   H3Y22136   1.016   4.197   6.425 -0.5552  0.5557 -1.2361
  191SLPC   C3422137   1.032   4.014   6.556 -0.1242  0.5043  0.3701
  191SLPC   H4X22138   1.065   3.908   6.545  0.7413  0.8696 -0.7844
  191SLPC   H4Y22139   0.941   4.017   6.619  0.8644  1.5540  1.8189
  191SLPC   C3522140   1.139   4.086   6.641  0.2295 -0.2971  0.3031
  191SLPC   H5X22141   1.130   4.196   6.630  0.1305 -0.3985 -0.7546
  191SLPC   H5Y22142   1.241   4.074   6.599 -0.4389  1.9499 -2.2205
  191SLPC   C3622143   1.139   4.037   6.784  0.0195  0.2982 -0.3952
  191SLPC   H6X22144   1.172   3.931   6.790  0.3955  0.4710  0.9804
  191SLPC   H6Y22145   1.036   4.027   6.827 -0.0746  0.5881 -0.5535
  191SLPC   C3722146   1.240   4.112   6.884  0.2047  0.2893 -0.1335
  191SLPC   H7X22147   1.190   4.209   6.902  1.2307  0.5664  1.4195
  191SLPC   H7Y22148   1.337   4.128   6.831  0.1790 -0.3577 -0.3836
  191SLPC   C3822149   1.257   4.024   7.014  0.5283 -0.7051 -0.1152
  191SLPC   H8X22150   1.313   3.932   6.988 -1.0277 -1.9090  0.6088
  191SLPC   H8Y22151   1.157   3.994   7.053  0.3939 -1.7984 -1.2485
  191SLPC   C3922152   1.335   4.110   7.108 -0.7175  0.2768  0.6270
  191SLPC   H9X22153   1.418   4.163   7.057 -0.5265 -0.1480  0.4989
  191SLPC   H9Y22154   1.394   4.045   7.176  0.5483  1.4285  0.6789
  191SLPC  C31022155   1.257   4.202   7.202  0.8101  0.5831  0.6314
  191SLPC  H10X22156   1.197   4.139   7.270  0.0937 -1.4745 -1.7610
  191SLPC  H10Y22157   1.185   4.252   7.133 -0.2277 -0.8233  0.6553
  191SLPC  C31122158   1.332   4.304   7.280 -0.8472  0.1638  0.5128
  191SLPC  H11X22159   1.418   4.254   7.329 -0.9067 -1.2119 -0.7064
  191SLPC  H11Y22160   1.260   4.340   7.357 -2.6929  0.2499 -1.1544
  191SLPC  C31222161   1.394   4.415   7.196 -0.3865 -0.1150 -0.1197
  191SLPC  H12X22162   1.316   4.446   7.124 -0.1107  1.1536  0.0989
  191SLPC  H12Y22163   1.483   4.377   7.141 -0.3612 -0.9244  0.4584
  191SLPC  C31322164   1.454   4.526   7.286  0.6675  0.3873  1.1062
  191SLPC  H13X22165   1.521   4.466   7.352 -0.5487 -2.6644 -0.2443
  191SLPC  H13Y22166   1.380   4.578   7.350  1.4760  3.6799 -0.4382
  191SLPC  C31422167   1.546   4.621   7.201 -0.4247  0.2812 -0.0863
  191SLPC  H14X22168   1.492   4.682   7.125  0.8067  1.1767 -0.2753
  191SLPC  H14Y22169   1.621   4.556   7.151  1.0401  0.7594  1.4152
  191SLPC  C31522170   1.616   4.720   7.297 -0.4722 -0.2382 -0.2346
  191SLPC  H15X22171   1.682   4.788   7.239  0.0233 -0.0679  0.5195
  191SLPC  H15Y22172   1.677   4.673   7.376 -0.6567  0.8630  0.5848
  191SLPC  C31622173   1.521   4.798   7.388 -0.1292 -0.1541  0.5258
  191SLPC  H16X22174   1.456   4.737   7.455  0.3206 -2.7163 -1.2188
  191SLPC  H16Y22175   1.452   4.863   7.331 -0.8695 -0.8372  0.6242
  191SLPC  C31722176   1.596   4.893   7.482  0.1731  0.3679 -0.1480
  191SLPC  H17X22177   1.541   4.979   7.526  1.5040 -0.7375  4.1490
  191SLPC  H17Y22178   1.682   4.936   7.427 -0.1480  2.7156  1.0261
  191SLPC  C31822179   1.646   4.820   7.606 -0.0207  0.1707  0.0130
  191SLPC  H18X22180   1.727   4.753   7.571 -1.1224 -0.9478 -0.4601
  191SLPC  H18Y22181   1.567   4.763   7.659  0.0684 -0.1225 -0.1670
  191SLPC  H18Z22182   1.695   4.895   7.672  1.8760 -0.5369 -0.5133
  192SLPC     N22183   6.788   4.976   6.184 -0.5465 -0.0383 -0.1962
  192SLPC   C1322184   6.899   5.050   6.253  0.2714  0.2683 -0.2426
  192SLPC  H13A22185   6.909   5.147   6.208 -0.1865  0.6826  0.5327
  192SLPC  H13B22186   6.877   5.062   6.358 -1.2479 -0.6669 -0.4197
  192SLPC  H13C22187   6.995   5.001   6.239  0.2494 -0.1062  0.7937
  192SLPC   C1422188   6.760   4.853   6.260  0.0617 -0.0733 -0.5422
  192SLPC  H14A22189   6.851   4.799   6.285 -0.1342  0.0645  0.4948
  192SLPC  H14B22190   6.732   4.880   6.361  1.0152 -2.0982  0.3225
  192SLPC  H14C22191   6.681   4.788   6.228 -1.1450  1.0366  0.0854
  192SLPC   C1522192   6.830   4.947   6.050  0.6488 -0.2838  0.1074
  192SLPC  H15A22193   6.751   4.900   5.993 -0.5280  2.8511 -1.0562
  192SLPC  H15B22194   6.851   5.037   5.994 -1.6224  1.2561  1.5510
  192SLPC  H15C22195   6.922   4.891   6.044  0.8075  0.0167 -0.2600
  192SLPC   C1222196   6.658   5.054   6.176  0.3883  0.1081  0.7890
  192SLPC  H12A22197   6.602   5.069   6.267 -0.5294  0.3900  0.1947
  192SLPC  H12B22198   6.590   4.999   6.112  2.3713 -1.7326  0.1295
  192SLPC   C1122199   6.676   5.198   6.121  0.1551 -0.0678 -0.0824
  192SLPC  H11A22200   6.585   5.231   6.067 -1.2562 -0.1631  2.0973
  192SLPC  H11B22201   6.749   5.201   6.038  1.9778 -0.0254  1.4317
  192SLPC     P22202   6.584   5.335   6.316 -0.3521  0.1066  0.3437
  192SLPC   O1322203   6.489   5.417   6.231 -0.2928 -0.1775  0.0474
  192SLPC   O1422204   6.529   5.222   6.397  1.2023 -0.0071 -1.0971
  192SLPC   O1222205   6.708   5.296   6.218 -0.8225  0.3091  0.2275
  192SLPC   O1122206   6.653   5.447   6.420  0.4934  0.0646 -0.4013
  192SLPC    C122207   6.566   5.536   6.498  0.7257 -0.0016  0.2796
  192SLPC    HA22208   6.526   5.615   6.432  1.6069  0.8940  0.7960
  192SLPC    HB22209   6.489   5.474   6.550 -1.0712 -0.9275 -3.1948
  192SLPC    C222210   6.646   5.631   6.601  0.0313 -0.3015 -0.3180
  192SLPC    HS22211   6.721   5.683   6.536  0.2649  2.2096  1.7756
  192SLPC   O2122212   6.713   5.556   6.701 -0.8368  0.5679 -0.4227
  192SLPC   C2122213   6.826   5.609   6.743 -0.3084 -0.3126 -0.3538
  192SLPC   O2222214   6.879   5.706   6.697 -0.0706  0.1495  0.1862
  192SLPC   C2222215   6.869   5.532   6.865 -0.0949 -0.0265  0.4175
  192SLPC   H2R22216   6.876   5.426   6.833 -1.3640  0.0923 -0.3269
  192SLPC   H2S22217   6.972   5.569   6.883  0.9301 -2.2480 -0.5743
  192SLPC    C322218   6.569   5.748   6.672 -0.6353 -0.0279 -0.3663
  192SLPC    HX22219   6.506   5.815   6.611 -1.6009  0.4626  1.1085
  192SLPC    HY22220   6.654   5.810   6.708 -0.9796  0.8776 -1.0778
  192SLPC   O3122221   6.494   5.704   6.792  0.1255 -0.2044 -0.4091
  192SLPC   C3122222   6.367   5.670   6.772  0.2273 -0.0851 -0.1426
  192SLPC   O3222223   6.315   5.665   6.658  0.5384  0.2757 -0.3433
  192SLPC   C3222224   6.302   5.631   6.898  0.0154 -0.6367 -0.9167
  192SLPC   H2X22225   6.377   5.621   6.980 -0.2651 -1.4688 -0.7534
  192SLPC   H2Y22226   6.259   5.530   6.882  0.0494 -1.0251  1.1749
  192SLPC   C2322227   6.770   5.560   6.982 -0.1198  0.0782  0.3908
  192SLPC   H3R22228   6.796   5.496   7.070  1.1834  0.6808  0.4680
  192SLPC   H3S22229   6.667   5.540   6.945  0.4816 -1.4265 -0.5465
  192SLPC   C2422230   6.782   5.702   7.030  0.0380  0.1967 -0.5239
  192SLPC   H4R22231   6.759   5.769   6.944  0.0724 -0.4301 -1.0295
  192SLPC   H4S22232   6.884   5.722   7.068 -0.8012 -0.2446  2.1592
  192SLPC   C2522233   6.683   5.734   7.143  0.5516 -0.0259  0.2496
  192SLPC   H5R22234   6.581   5.709   7.105  0.7004  0.9154 -0.8117
  192SLPC   H5S22235   6.676   5.844   7.154  1.6375  0.1737 -0.8401
  192SLPC   C2622236   6.701   5.655   7.276 -0.1378  0.0573  0.3478
  192SLPC   H6R22237   6.799   5.689   7.316 -0.1201  0.3735  0.0331
  192SLPC   H6S22238   6.698   5.544   7.262 -0.4371 -0.0423  1.1512
  192SLPC   C2722239   6.600   5.693   7.387  0.5518 -0.1194  0.7843
  192SLPC   H7R22240   6.497   5.682   7.348 -0.3145 -1.6702  3.3028
  192SLPC   H7S22241   6.618   5.801   7.404  0.4838 -0.4046  2.9093
  192SLPC   C2822242   6.620   5.604   7.513 -0.2856  0.1736 -0.4438
  192SLPC   H8R22243   6.602   5.496   7.496 -1.4818  0.2780  0.0638
  192SLPC   H8S22244   6.533   5.633   7.575  0.8750  0.1772  1.2451
  192SLPC   C2922245   6.753   5.619   7.590 -0.0390 -0.3815  0.0409
  192SLPC   H9R22246   6.845   5.596   7.535 -0.5739 -1.5047 -0.4039
  192SLPC  C21022247   6.776   5.667   7.716  0.2354  0.0442 -0.0393
  192SLPC  H10R22248   6.882   5.666   7.747  0.3827 -2.6585 -0.4505
  192SLPC  C21122249   6.679   5.713   7.826 -0.0540 -0.6987  0.3113
  192SLPC  H11R22250   6.703   5.684   7.931 -1.8775 -0.4905  0.8247
  192SLPC  H11S22251   6.584   5.656   7.816  0.0629 -0.6946 -0.8665
  192SLPC  C21222252   6.645   5.867   7.812 -0.7469  0.6418 -0.3261
  192SLPC  H12R22253   6.623   5.886   7.707 -1.3176 -2.3842 -0.8595
  192SLPC  C21322254   6.630   5.960   7.912 -0.7632  0.6923 -0.1578
  192SLPC  H13R22255   6.603   6.063   7.884  1.2773  1.5121  0.7245
  192SLPC  C21422256   6.635   5.939   8.056 -0.4030  0.2442  0.0141
  192SLPC  H14R22257   6.722   5.871   8.069 -0.2612 -0.3195 -3.0615
  192SLPC  H14S22258   6.555   5.871   8.093 -0.0577 -0.1674  0.0140
  192SLPC  C21522259   6.651   6.066   8.140 -0.6086  0.7046  0.0827
  192SLPC  H15R22260   6.656   6.039   8.248 -1.8309  0.4203  0.0745
  192SLPC  H15S22261   6.560   6.128   8.129 -1.6598 -1.1181 -2.1648
  192SLPC  C21622262   6.766   6.155   8.096  0.0558  0.4614  0.1366
  192SLPC  H16R22263   6.749   6.182   7.990  0.1378  0.0019  0.0048
  192SLPC  H16S22264   6.855   6.089   8.110 -1.6672 -2.4416 -1.5849
  192SLPC  C21722265   6.788   6.289   8.170  0.5210 -0.6559  0.2049
  192SLPC  H17R22266   6.687   6.320   8.205  0.9280  1.3267 -0.2419
  192SLPC  H17S22267   6.869   6.266   8.242 -0.6124 -0.9320  1.4267
  192SLPC  C21822268   6.836   6.402   8.072 -0.6526 -0.2232  0.8093
  192SLPC  H18R22269   6.774   6.410   7.980 -0.3147 -1.2341  0.4822
  192SLPC  H18S22270   6.934   6.365   8.036 -1.2481  0.9786 -2.3946
  192SLPC  H18T22271   6.845   6.502   8.118  0.3125  0.1522 -0.1657
  192SLPC   C3322272   6.192   5.726   6.944  0.6702  0.6097  0.2821
  192SLPC   H3X22273   6.105   5.725   6.874 -0.2965 -4.1051  1.1735
  192SLPC   H3Y22274   6.226   5.830   6.962  2.9553 -0.2410  1.1837
  192SLPC   C3422275   6.129   5.690   7.083  0.0946  1.0258 -1.2800
  192SLPC   H4X22276   6.075   5.593   7.084  2.6619 -0.5355  0.9041
  192SLPC   H4Y22277   6.058   5.775   7.095 -1.3517 -0.3749  0.8029
  192SLPC   C3522278   6.226   5.676   7.200 -0.4682 -0.1434 -0.8342
  192SLPC   H5X22279   6.302   5.754   7.179 -0.2350 -0.6499 -1.9225
  192SLPC   H5Y22280   6.276   5.577   7.194  0.5554  0.0704  2.2198
  192SLPC   C3622281   6.161   5.697   7.340  0.4115  0.1502  0.5468
  192SLPC   H6X22282   6.101   5.607   7.365  0.1501 -0.0437 -0.7259
  192SLPC   H6Y22283   6.087   5.780   7.336  0.7887  0.4755  0.1899
  192SLPC   C3722284   6.259   5.717   7.453  0.0385 -0.5684 -0.0121
  192SLPC   H7X22285   6.326   5.797   7.415 -0.3919 -0.2415 -0.0923
  192SLPC   H7Y22286   6.315   5.622   7.467  1.6701  0.1319 -1.4677
  192SLPC   C3822287   6.195   5.768   7.586  0.8309 -0.4901 -0.3844
  192SLPC   H8X22288   6.125   5.688   7.619  1.0002 -0.5633 -0.2086
  192SLPC   H8Y22289   6.143   5.862   7.557  3.7983  0.4733 -3.2053
  192SLPC   C3922290   6.302   5.786   7.694  0.4486  0.3792  0.2772
  192SLPC   H9X22291   6.364   5.868   7.651 -1.2451  2.4062  1.5137
  192SLPC   H9Y22292   6.351   5.686   7.698  1.3594  0.8517  2.6424
  192SLPC  C31022293   6.249   5.824   7.829  0.6529  0.6802  0.3834
  192SLPC  H10X22294   6.183   5.913   7.819 -0.7502 -0.3748  0.0778
  192SLPC  H10Y22295   6.330   5.847   7.902  1.0152  0.9011 -0.0834
  192SLPC  C31122296   6.166   5.715   7.902 -0.8111 -0.0529  0.6915
  192SLPC  H11X22297   6.182   5.619   7.847  3.3714 -0.3601  2.1152
  192SLPC  H11Y22298   6.062   5.752   7.901 -0.0605  2.2887  1.7610
  192SLPC  C31222299   6.219   5.693   8.039 -0.0950 -0.1924 -0.4158
  192SLPC  H12X22300   6.151   5.632   8.102 -2.2419  3.3857  1.0508
  192SLPC  H12Y22301   6.221   5.792   8.091 -0.3359  0.2398 -1.2106
  192SLPC  C31322302   6.358   5.628   8.057  0.9165  0.2175 -0.6441
  192SLPC  H13X22303   6.434   5.683   7.996  1.3300 -0.7025 -0.9790
  192SLPC  H13Y22304   6.354   5.522   8.025  1.4089 -0.9090  2.6757
  192SLPC  C31422305   6.398   5.616   8.206  0.0047  0.0348 -0.3734
  192SLPC  H14X22306   6.307   5.569   8.249 -0.3496  1.3458  0.3361
  192SLPC  H14Y22307   6.413   5.714   8.255 -0.1327  0.4144 -1.0799
  192SLPC  C31522308   6.515   5.523   8.237  0.0238 -0.3384 -0.2599
  192SLPC  H15X22309   6.614   5.547   8.194  0.9476  0.5172  2.1848
  192SLPC  H15Y22310   6.482   5.432   8.182 -3.4861  1.5853 -1.6953
  192SLPC  C31622311   6.538   5.481   8.383  0.3720 -0.1340 -0.7474
  192SLPC  H16X22312   6.631   5.422   8.373  0.9794  0.4570  0.9263
  192SLPC  H16Y22313   6.461   5.412   8.423  0.8839  0.7150  1.9289
  192SLPC  C31722314   6.538   5.600   8.485  0.6156  0.1292  1.1123
  192SLPC  H17X22315   6.446   5.661   8.476 -0.7575 -1.9991 -0.2916
  192SLPC  H17Y22316   6.622   5.664   8.452  0.0009  0.8624  0.9379
  192SLPC  C31822317   6.573   5.569   8.639 -0.3184  0.7105 -0.1898
  192SLPC  H18X22318   6.663   5.504   8.640 -1.3306 -0.7475 -1.2484
  192SLPC  H18Y22319   6.487   5.517   8.686 -1.1173 -0.4089 -2.7438
  192SLPC  H18Z22320   6.592   5.664   8.694  1.0279  1.2504 -1.5122
  193SOD    SOD22321   0.869   5.805   1.079  0.2357 -0.0816  0.2507
  194SOD    SOD22322   2.709   4.391  16.098 -0.0551 -0.4454 -0.1117
  195SOD    SOD22323   3.268   2.494   6.097  0.1271  0.2213 -0.4182
  196SOD    SOD22324   4.933   3.071   5.631 -0.0561  0.0980 -0.3294
  197SOD    SOD22325   4.768   5.064   3.671  0.4467 -0.1128 -0.4801
  198SOD    SOD22326   6.712   2.546  11.524 -0.0389 -0.2817  0.0219
  199SOD    SOD22327   2.189   6.549   5.464 -0.0478  0.0693  0.1408
  200SOD    SOD22328   6.213   6.356  13.875 -0.0024 -0.3719 -0.1806
  201SOD    SOD22329   1.867   1.317  14.745  0.3701  0.1320  0.5299
  202SOD    SOD22330   6.822   6.690  13.603  0.5754 -0.1466  0.3418
  203SOD    SOD22331   6.812   3.671   3.316  0.3770 -0.2201  0.3420
  204SOD    SOD22332   5.138   4.466  15.411 -0.3501  0.3039 -0.2282
  205SOD    SOD22333   4.963   6.533  13.628  0.3295 -0.1640 -0.3026
  206SOD    SOD22334   2.522   1.917   3.524  0.8998 -0.5556 -0.2765
  207SOD    SOD22335   3.704   1.677  16.437  0.0051 -0.1723  0.1488
  208SOD    SOD22336   0.142   6.233   2.737 -0.0931  0.6598  0.3768
  209SOD    SOD22337   2.876   1.214   6.386  0.1071 -0.3196  0.1490
  210SOD    SOD22338   0.122   0.721   5.224  0.0936  0.0634 -0.2833
  211SOD    SOD22339   0.899   0.519   0.906 -0.1420 -0.2801  0.3272
  212SOD    SOD22340   5.056   3.496  11.552  0.6613  0.0872 -0.1986
  213SOD    SOD22341   0.414   5.928  10.865  0.0218 -0.1330  0.1909
  214SOD    SOD22342   3.124   6.006  13.738 -0.5824  0.3090  0.4446
  215SOD    SOD22343   3.535   3.892   2.681 -0.5847  0.1657  0.3651
  216SOD    SOD22344   1.250   2.689  14.331  0.3584 -0.1211  0.0293
  217SOD    SOD22345   5.627   4.814   2.460 -0.1508  0.0738 -0.5338
  218SOD    SOD22346   3.717   3.016  11.262 -0.3537 -0.4194 -0.0101
  219SOD    SOD22347   3.386   6.234   0.171  0.5774  0.1904  0.1286
  220SOD    SOD22348   0.260   3.785   6.270  0.0296  0.1529 -0.3448
  221SOD    SOD22349   5.379   1.820   0.693  0.3953 -0.1418 -0.3527
  222SOD    SOD22350   3.766   0.571   6.279 -0.3471 -0.0733  0.0559
  223SOD    SOD22351   2.108   3.619  14.527 -0.0790 -0.3355  0.0149
  224SOD    SOD22352   2.485   1.587  12.336  0.2964 -0.0122 -0.0901
  225SOD    SOD22353   2.388   5.843  16.661  0.0753  0.2516  0.5336
  226SOD    SOD22354   0.125   0.395  16.925 -0.5366  0.0469 -0.3457
  227SOD    SOD22355   3.718   2.827  14.361 -0.0118  0.2306 -0.5786
  228SOD    SOD22356   5.876   1.098   5.808  0.6342  0.2917  0.3050
  229SOD    SOD22357   6.160   3.811  10.874 -0.2485  0.4655 -0.3783
  230SOD    SOD22358   6.582   1.520   6.034 -0.4649 -0.2210  0.4633
  231SOD    SOD22359   0.601   1.323   2.534  0.1666  0.5906  0.2287
  232SOD    SOD22360   3.125   2.392   1.647 -0.0077  0.0819  0.3367
  233SOD    SOD22361   1.055   2.993  15.154  0.3174  0.0880  0.0181
  234SOD    SOD22362   5.086   6.630   5.677 -0.3903  0.0883  0.1403
  235SOD    SOD22363   3.156   0.470   2.809  0.0472 -0.1270  0.3009
  236SOD    SOD22364   5.150   4.578  11.343  0.0282 -0.1852 -0.2490
  237SOD    SOD22365   2.881   3.987   1.369 -0.0650  0.3399  0.3591
  238SOD    SOD22366   3.887   2.601   1.679 -0.0404  0.3687 -0.2993
  239SOD    SOD22367   5.630   3.936  13.322  0.0222  0.2089 -0.0731
  240SOD    SOD22368   6.269   3.593  16.770  0.4687 -0.2468 -0.2959
  241SOD    SOD22369   3.272   1.588  15.452 -0.7090 -0.1033  0.1251
  242SOD    SOD22370   0.502   4.517  13.991 -0.3953 -0.4051 -0.5735
  243SOD    SOD22371   6.220   1.311  16.540  0.1714 -0.2304 -0.2303
  244SOD    SOD22372   6.657   2.990   0.306  0.2168  0.0482 -0.6395
  245SOD    SOD22373   6.546   4.229   0.974 -0.0178  0.1396 -0.1224
  246SOD    SOD22374   4.540   1.258  14.635  0.1209 -0.3256 -0.3083
  247SOD    SOD22375   0.288   2.709  10.691  0.0582  0.5078 -0.3046
  248SOD    SOD22376   0.863   6.485  11.769 -0.1220 -0.4597 -0.5599
  249SOD    SOD22377   0.837   5.737  15.483 -0.3319  0.0249 -0.2833
  250SOD    SOD22378   1.062   4.889  11.213  0.2473 -0.0428  0.0080
  251SOD    SOD22379   4.084   2.177  10.794 -0.0281 -0.4912 -0.0185
  252SOD    SOD22380   1.621   1.118  16.765  0.3722 -0.2915 -0.2012
  253SOD    SOD22381   2.834   0.230  14.122 -0.1520  0.1099 -0.0130
  254SOD    SOD22382   1.022   6.518   6.267  0.6293 -0.4599  0.1003
  255SOD    SOD22383   3.777   1.957   3.302  0.2081 -0.3396  0.1098
  256SOD    SOD22384   0.615   2.066  10.752 -0.1196  0.3799  0.2373
  257SOD    SOD22385   1.809   5.410  13.638 -0.6939  0.3504  0.0180
  258SOD    SOD22386   4.587   6.568  11.870  0.2603  0.5704  0.1722
  259SOD    SOD22387   4.615   1.410   1.552 -0.0259 -0.0799 -0.3671
  260SOD    SOD22388   5.949   1.310   2.569 -0.1419 -0.5174 -0.0492
  261SOD    SOD22389   1.660   4.560   5.552 -0.1685  0.3073  0.1255
  262SOD    SOD22390   4.882   2.877  10.666  0.1210 -0.3034 -0.2548
  263SOD    SOD22391   2.164   6.244   4.400  0.0015 -0.7215  0.3213
  264SOD    SOD22392   1.581   2.483  10.568  0.2705  0.0579 -0.1517
  265SOD    SOD22393   0.399   0.993   1.169 -0.6032  0.3758  0.2452
  266CLA    CLA22394   6.181   5.494  14.199  0.0934  0.3223 -0.2623
  267CLA    CLA22395   3.283   4.303   1.231  0.0596 -0.3799 -0.3654
  268CLA    CLA22396   4.398   6.740   3.858 -0.2022  0.4134  0.2111
  269CLA    CLA22397   1.221   0.997   1.188  0.1959 -0.4939 -0.1531
  270CLA    CLA22398   5.642   6.811   1.772  0.3200  0.1301  0.3516
  271CLA    CLA22399   6.289   0.827   0.060 -0.0069  0.4490 -0.0246
  272CLA    CLA22400   1.192   4.001  12.310  0.2213 -0.0606  0.1602
  273CLA    CLA22401   6.697   1.829  16.682 -0.0870 -0.4933 -0.1054
  274CLA    CLA22402   2.429   2.020  13.167 -0.1687  0.4855 -0.1102
  275CLA    CLA22403   6.422   3.787  13.676 -0.1046 -0.1996 -0.3978
  276CLA    CLA22404   4.772   3.835  11.821 -0.3748  0.6188 -0.1651
  277CLA    CLA22405   5.048   2.231  16.097 -0.5665 -0.2819 -0.1199
  278CLA    CLA22406   5.637   4.409  12.415 -0.6029  0.1132 -0.3672
  279CLA    CLA22407   6.378   2.089  12.349 -0.4997 -0.1792  0.1469
  280CLA    CLA22408   5.698   2.368  13.291 -0.3629 -0.1467  0.2349
  281CLA    CLA22409   4.107   3.596  13.218 -0.2238 -0.0958 -0.2136
  282CLA    CLA22410   0.104   0.560   2.844  0.1525  0.1853  0.0524
  283CLA    CLA22411   4.133   2.216   3.642  0.2633  0.5918  0.3815
  284CLA    CLA22412   1.365   0.406  15.629  0.5807  0.0953  0.4791
  285CLA    CLA22413   1.542   6.651   0.620 -0.0100  0.1580  0.2648
  286CLA    CLA22414   6.179   4.845  13.499  0.1060 -0.1586 -0.5301
  287CLA    CLA22415   3.700   1.074   3.774 -0.2381 -0.1553 -0.2156
  288CLA    CLA22416   3.979   6.465   0.720  0.2846  0.5009 -0.3564
  289CLA    CLA22417   5.038   2.505  12.645  0.4659 -0.2818 -0.0402
  290CLA    CLA22418   3.410   6.458  14.752  0.3811  0.2451  0.2833
  291CLA    CLA22419   5.263   6.712   4.762 -0.2795 -0.2944  0.0294
  292CLA    CLA22420   0.922   5.700  16.102 -0.1189 -0.3554 -0.2538
  293CLA    CLA22421   3.965   2.334   1.679 -0.1123 -0.1720 -0.0135
  294CLA    CLA22422   4.671   4.453   1.337  0.2890 -0.1052  0.3642
  295CLA    CLA22423   2.337   4.109  15.696  0.0613  0.0122  0.2731
  296CLA    CLA22424   2.408   4.458   4.537 -0.6130  0.4298 -0.3097
  297CLA    CLA22425   5.120   5.619  14.887  0.0803 -0.2040 -0.0074
  298CLA    CLA22426   6.162   3.432  14.141 -0.0609 -0.0009 -0.1474
  299CLA    CLA22427   0.022   1.001   1.552 -0.4896  0.4160 -0.6269
  300CLA    CLA22428   6.424   2.802  16.752 -0.2908 -0.0684 -0.1591
  301CLA    CLA22429   1.583   0.271  11.679  0.0439  0.5744 -0.3731
  302CLA    CLA22430   0.886   0.201  14.000 -0.0232 -0.0203 -0.0978
  303CLA    CLA22431   2.216   1.318  15.791 -0.3417 -0.0633 -0.0048
  304CLA    CLA22432   3.963   3.466   2.655  0.4226 -0.3765  0.1125
  305CLA    CLA22433   5.451   3.477   4.455 -0.0129 -0.1545  0.0782
  306CLA    CLA22434   0.252   4.667  16.995 -0.1412  0.0669 -0.4040
  307CLA    CLA22435   5.951   0.848  15.390  0.1324 -0.4253 -0.0568
  308CLA    CLA22436   1.053   1.748   2.089 -0.0156 -0.1228  0.2782
  309CLA    CLA22437   2.031   6.474   4.422 -0.6498  0.5229 -0.1403
  310CLA    CLA22438   3.313   1.919  16.380 -0.1825  0.1952  0.0029
  311CLA    CLA22439   0.397   5.510   3.081  0.1549 -0.0361 -0.0127
  312CLA    CLA22440   0.444   0.299   5.686  0.0294  0.4189 -0.1682
  313CLA    CLA22441   5.756   3.077   0.118  0.1284 -0.3105 -0.3985
  314CLA    CLA22442   3.885   5.254  12.659  0.0170  0.3121 -0.3080
  315CLA    CLA22443   6.237   2.545   4.367  0.4135  0.2909  0.3718
  316CLA    CLA22444   4.134   2.912  15.318  0.0421 -0.4989  0.3846
  317CLA    CLA22445   6.209   6.099   3.397  0.3835 -0.5086  0.0409
  318CLA    CLA22446   1.408   1.893  16.243 -0.0973 -0.3883  0.0963
  319TIP3   OH222447   3.348   3.760  11.500  0.5790  0.0949 -0.1634
  319TIP3    H122448   3.291   3.836  11.514 -0.7720 -0.9541  0.2684
  319TIP3    H222449   3.326   3.729  11.412 -0.5402 -1.1019  0.5013
  320TIP3   OH222450   1.351   3.067  13.793 -0.2260  0.3036 -0.1067
  320TIP3    H122451   1.340   3.099  13.883 -0.8093 -1.5615  0.5253
  320TIP3    H222452   1.382   3.144  13.744  2.2563  0.8377  2.0912
  321TIP3   OH222453   1.069   3.606   4.947 -0.3444  0.1470 -0.1739
  321TIP3    H122454   1.020   3.537   4.991 -0.6483  0.3828 -0.1390
  321TIP3    H222455   1.025   3.617   4.863  0.5479 -0.6642 -0.7670
  322TIP3   OH222456   6.430   5.845  13.191  0.0301  0.6016 -0.4091
  322TIP3    H122457   6.444   5.758  13.152 -1.9248  0.4336 -0.8145
  322TIP3    H222458   6.439   5.906  13.117 -1.6309  0.4579 -0.7569
  323TIP3   OH222459   1.000   2.228  13.347 -0.0268 -0.1613 -0.7709
  323TIP3    H122460   1.068   2.161  13.340 -0.1935 -0.6079  1.1414
  323TIP3    H222461   1.031   2.286  13.416 -0.9604  0.4068 -0.8114
  324TIP3   OH222462   0.677   6.557  14.581 -0.0943 -0.2879 -0.4099
  324TIP3    H122463   0.693   6.641  14.538  3.1809 -0.4709  0.2015
  324TIP3    H222464   0.687   6.492  14.511 -1.1138 -0.2689 -0.5827
  325TIP3   OH222465   4.697   4.589  11.218  0.1697 -0.2474 -0.1738
  325TIP3    H122466   4.623   4.650  11.217  0.6281  0.3167  0.0433
  325TIP3    H222467   4.675   4.524  11.151 -0.8912 -0.5401  0.4278
  326TIP3   OH222468   2.020   4.916  15.208  0.1890  0.1085  0.0012
  326TIP3    H122469   2.035   5.010  15.213 -0.0029  0.1882 -0.7686
  326TIP3    H222470   2.107   4.879  15.191  0.4216  0.0522  1.2331
  327TIP3   OH222471   1.697   3.675  13.615  0.1201  0.2739 -0.2236
  327TIP3    H122472   1.759   3.675  13.543 -0.5152  2.3551 -0.8534
  327TIP3    H222473   1.611   3.685  13.573 -0.6373 -1.9928  0.6515
  328TIP3   OH222474   1.314   1.548  16.948 -0.1845 -0.1792  0.2969
  328TIP3    H122475   1.331   1.598  16.868  2.1087  1.1826  1.5084
  328TIP3    H222476   1.219   1.547  16.956 -0.4184  0.9284 -1.6541
  329TIP3   OH222477   0.564   4.330   2.488 -0.1599 -0.2196 -0.3130
  329TIP3    H122478   0.599   4.275   2.558 -0.6776  0.2723  0.3518
  329TIP3    H222479   0.620   4.408   2.489 -0.9745  0.3733  0.4569
  330TIP3   OH222480   0.274   4.928  13.269  0.5238 -0.3584  0.0314
  330TIP3    H122481   0.313   4.862  13.327 -1.0064 -1.5354 -0.1917
  330TIP3    H222482   0.241   4.996  13.328 -0.8779 -1.4677  0.5967
  331TIP3   OH222483   6.406   1.717  16.682 -0.3890  0.0202  0.2043
  331TIP3    H122484   6.490   1.762  16.683 -1.3280  1.8682 -0.0219
  331TIP3    H222485   6.352   1.768  16.620 -1.8962 -0.6823  0.8881
  332TIP3   OH222486   4.329   0.601   3.145 -0.7920  0.5481 -0.4565
  332TIP3    H122487   4.385   0.585   3.221 -0.7803  0.1111 -0.5506
  332TIP3    H222488   4.261   0.660   3.176 -0.1667  1.2451 -0.3917
  333TIP3   OH222489   6.547   3.771  10.650 -0.3822 -0.3527 -0.2484
  333TIP3    H122490   6.593   3.702  10.698 -0.5346 -0.6078 -0.4608
  333TIP3    H222491   6.603   3.790  10.576  2.0886  3.1428  2.2110
  334TIP3   OH222492   3.670   0.615   4.704 -0.2266  0.1838 -0.2706
  334TIP3    H122493   3.734   0.590   4.770 -2.4373 -0.9585  1.6097
  334TIP3    H222494   3.621   0.687   4.743 -0.0086  1.1849 -1.7495
  335TIP3   OH222495   2.555   4.349  16.696 -0.2324  0.2374 -0.1578
  335TIP3    H122496   2.586   4.259  16.700 -0.4623  0.1591 -0.1299
  335TIP3    H222497   2.460   4.343  16.711 -0.2870  0.4573 -0.4058
  336TIP3   OH222498   2.890   5.475  13.183 -0.5544 -0.2266  0.1042
  336TIP3    H122499   2.973   5.496  13.141 -0.9744 -2.7391 -2.2321
  336TIP3    H222500   2.873   5.384  13.160 -2.5169 -0.7717  3.0759
  337TIP3   OH222501   0.491   0.679   3.712  0.0805 -0.0274 -0.5710
  337TIP3    H122502   0.520   0.686   3.621  1.5671  0.4290 -0.0851
  337TIP3    H222503   0.503   0.767   3.748  0.5068 -0.4461  0.3445
  338TIP3   OH222504   6.627   2.495   3.095  0.7599 -0.1739 -0.6856
  338TIP3    H122505   6.694   2.540   3.045  1.0339 -0.1844 -0.3313
  338TIP3    H222506   6.549   2.549   3.084  1.0491  0.3120 -0.3836
  339TIP3   OH222507   1.054   1.274  13.840  0.6529 -0.4490 -0.7850
  339TIP3    H122508   0.991   1.215  13.881 -0.6808  1.1452 -0.4228
  339TIP3    H222509   1.106   1.309  13.912  2.7821 -2.5320 -1.1639
  340TIP3   OH222510   4.664   6.208  11.155  0.6222 -0.2125 -0.1215
  340TIP3    H122511   4.652   6.143  11.085 -1.1919  0.1581 -0.2069
  340TIP3    H222512   4.653   6.293  11.111 -1.9404  0.0062  0.7535
  341TIP3   OH222513   5.935   2.254  12.713 -0.5401  0.4228  0.3416
  341TIP3    H122514   6.023   2.219  12.707 -1.2665 -1.6492  0.8670
  341TIP3    H222515   5.946   2.340  12.755  1.1595  0.0119  0.8000
  342TIP3   OH222516   3.125   5.670   2.501 -0.5740 -0.1167 -0.3798
  342TIP3    H122517   3.196   5.643   2.442  0.5364  1.2780  0.2674
  342TIP3    H222518   3.133   5.612   2.577  0.9226  1.0375  0.3922
  343TIP3   OH222519   3.513   2.819  13.389  0.7968  0.3111 -0.2276
  343TIP3    H122520   3.522   2.816  13.294  1.3390  0.7617 -0.1985
  343TIP3    H222521   3.512   2.727  13.416 -0.9320  0.1318 -0.7914
  344TIP3   OH222522   0.868   5.032   6.136 -0.2155 -0.1355 -0.6977
  344TIP3    H122523   0.790   5.010   6.186 -0.0012 -1.2014 -0.7916
  344TIP3    H222524   0.895   4.949   6.097  0.9949  0.1992 -0.6176
  345TIP3   OH222525   3.473   1.043   5.343 -0.1995 -0.4115 -0.8812
  345TIP3    H122526   3.485   0.971   5.280 -0.1179  0.2258 -1.6083
  345TIP3    H222527   3.440   1.000   5.422 -0.2044 -1.2441 -1.3225
  346TIP3   OH222528   6.372   4.334  14.485  0.0354  0.1197  0.4094
  346TIP3    H122529   6.427   4.255  14.485  0.1286  0.1811  0.0109
  346TIP3    H222530   6.418   4.395  14.543 -0.2909 -0.2860  1.1072
  347TIP3   OH222531   6.284   4.520  12.709 -0.1874 -0.1669  0.1706
  347TIP3    H122532   6.251   4.558  12.790 -1.4402 -0.1891 -0.3069
  347TIP3    H222533   6.206   4.487  12.664  0.4627 -0.0513 -1.0994
  348TIP3   OH222534   6.380   4.822  11.177 -0.0677 -0.0014  0.5497
  348TIP3    H122535   6.378   4.733  11.213  0.6586  0.0690  0.7761
  348TIP3    H222536   6.416   4.813  11.089 -0.1602  0.0470  0.5061
  349TIP3   OH222537   6.788   0.777   0.619  1.0344  0.0296 -0.0919
  349TIP3    H122538   6.754   0.720   0.688  1.3642  0.4630  0.4374
  349TIP3    H222539   6.841   0.842   0.666  0.8117  0.6586 -0.7056
  350TIP3   OH222540   6.537   0.146  13.035  0.4614 -0.3261  0.0316
  350TIP3    H122541   6.506   0.079  13.096  1.3934 -0.6755  0.1343
  350TIP3    H222542   6.489   0.128  12.954  0.5069 -0.9520  0.1397
  351TIP3   OH222543   0.382   4.664   1.212  0.3434  0.4231 -0.1218
  351TIP3    H122544   0.428   4.626   1.137 -0.4952 -0.0062 -0.4379
  351TIP3    H222545   0.366   4.755   1.187 -0.7148  0.0574 -0.8689
  352TIP3   OH222546   6.438   4.745  17.063 -0.5561  0.4460  0.4318
  352TIP3    H122547   6.506   4.760  17.129 -0.9412 -0.0820  0.9478
  352TIP3    H222548   6.413   4.834  17.036 -1.3806  0.7318  2.0038
  353TIP3   OH222549   3.827   0.857   3.318  0.2854  0.1483  0.0038
  353TIP3    H122550   3.899   0.919   3.332  1.0836 -0.6554 -0.4482
  353TIP3    H222551   3.858   0.775   3.357  0.1582 -0.5597 -1.3378
  354TIP3   OH222552   6.722   3.223  14.389  0.2020 -0.3999 -0.4664
  354TIP3    H122553   6.660   3.151  14.404  0.0555 -0.2212 -0.2061
  354TIP3    H222554   6.685   3.271  14.315 -0.0755 -0.1769 -0.1826
  355TIP3   OH222555   5.578   6.164   0.524  0.3640  0.7371 -0.3934
  355TIP3    H122556   5.559   6.258   0.528 -0.6466  0.5299  3.2184
  355TIP3    H222557   5.673   6.159   0.508  0.6908  2.4515  0.7555
  356TIP3   OH222558   5.742   3.330  12.256  0.1116 -0.2756 -0.2156
  356TIP3    H122559   5.669   3.315  12.317  0.9916 -0.2336  0.8744
  356TIP3    H222560   5.814   3.278  12.292  0.9298  0.5021 -0.6951
  357TIP3   OH222561   2.602   3.870   2.190 -0.1292  0.2396 -0.1951
  357TIP3    H122562   2.679   3.919   2.220 -1.3482  0.8638  2.1743
  357TIP3    H222563   2.628   3.778   2.201  0.8017  0.3911 -0.9387
  358TIP3   OH222564   5.501   1.289  15.341 -0.3954 -0.2123 -0.1459
  358TIP3    H122565   5.571   1.224  15.344 -0.0681 -0.0947 -2.7219
  358TIP3    H222566   5.438   1.253  15.279 -0.4827  1.6106 -1.1910
  359TIP3   OH222567   0.084   6.355  16.797 -0.0306  0.2048  0.1315
  359TIP3    H122568   0.130   6.323  16.719 -1.5558 -1.3877 -0.1816
  359TIP3    H222569  -0.006   6.368  16.768 -0.9468 -1.6712  1.8501
  360TIP3   OH222570   3.438   5.961   2.354  0.6608  0.5833 -0.4756
  360TIP3    H122571   3.462   5.925   2.439 -2.6754  0.1464  0.4415
  360TIP3    H222572   3.361   6.015   2.372 -0.2884  0.3360 -3.2486
  361TIP3   OH222573   6.830   3.262  14.100 -0.7089 -0.4881 -0.2751
  361TIP3    H122574   6.853   3.227  14.014 -3.2123  0.4493 -1.4330
  361TIP3    H222575   6.909   3.250  14.153  1.0199 -0.8469 -2.7581
  362TIP3   OH222576   2.337   6.390  14.632  0.1169 -0.6196 -0.0628
  362TIP3    H122577   2.247   6.399  14.600 -0.2157 -1.1120  0.6950
  362TIP3    H222578   2.363   6.302  14.605  0.6509 -0.2264 -0.9101
  363TIP3   OH222579   2.211   5.633   0.423  0.0060 -0.0272  0.1078
  363TIP3    H122580   2.197   5.581   0.344 -0.8018  1.1732 -0.5669
  363TIP3    H222581   2.179   5.577   0.494  2.3404 -1.8252 -0.1482
  364TIP3   OH222582   6.480   5.371   3.324  0.3264 -0.1709  0.1572
  364TIP3    H122583   6.399   5.416   3.302 -0.3162  0.3837  3.1983
  364TIP3    H222584   6.463   5.279   3.308 -0.3744  0.0893 -0.6296
  365TIP3   OH222585   1.995   2.483  15.028  0.2434 -0.1719  0.0324
  365TIP3    H122586   1.905   2.450  15.027  0.1542  0.0769 -0.4658
  365TIP3    H222587   2.047   2.408  15.056 -0.0782 -0.4246 -0.0330
  366TIP3   OH222588   4.532   6.328   3.685  0.3813 -0.5345  0.4922
  366TIP3    H122589   4.623   6.352   3.672  0.0414 -0.0320 -1.2670
  366TIP3    H222590   4.512   6.271   3.611 -1.0210  0.2729  0.2136
  367TIP3   OH222591   3.983   4.782  12.511  0.1247 -1.0295  0.1797
  367TIP3    H122592   4.046   4.714  12.535  0.8278 -0.0976  1.0531
  367TIP3    H222593   4.004   4.856  12.568 -0.7738 -0.1546 -0.5788
  368TIP3   OH222594   0.594   0.673  15.918  0.2268  0.6567 -0.4877
  368TIP3    H122595   0.677   0.717  15.933  0.1301  0.9800 -0.8675
  368TIP3    H222596   0.546   0.682  16.000  0.2212  1.2387 -0.5474
  369TIP3   OH222597   0.634   0.344  17.027  0.1599 -0.2813  0.1882
  369TIP3    H122598   0.670   0.325  16.940  0.8657 -0.2813  0.4705
  369TIP3    H222599   0.649   0.437  17.039 -0.9993 -0.0358 -0.1582
  370TIP3   OH222600   6.226   5.829  15.211 -0.3946  0.2547 -0.2129
  370TIP3    H122601   6.168   5.905  15.206 -1.5090 -0.4523  1.1657
  370TIP3    H222602   6.241   5.817  15.305 -2.3289 -2.7278 -0.1640
  371TIP3   OH222603   2.250   2.929  11.351  0.2246 -0.0883 -0.2194
  371TIP3    H122604   2.298   3.006  11.382 -0.4485 -0.0993  0.9125
  371TIP3    H222605   2.299   2.854  11.385  0.7725 -0.1622 -1.1578
  372TIP3   OH222606   2.989   0.893  16.911  0.7390  0.0025 -0.1266
  372TIP3    H122607   3.008   0.870  17.002  2.7962  0.9078 -0.2611
  372TIP3    H222608   2.961   0.985  16.915  1.9711  0.4219 -0.4640
  373TIP3   OH222609   0.250   3.722   2.525  0.2626 -0.1466  0.5917
  373TIP3    H122610   0.271   3.654   2.460  0.6678  0.2492  0.3005
  373TIP3    H222611   0.177   3.770   2.486  0.3709 -0.0399  0.5171
  374TIP3   OH222612   3.851   4.424  16.483 -0.1108  0.1221  0.1118
  374TIP3    H122613   3.785   4.394  16.545 -0.2457  0.5421  0.1798
  374TIP3    H222614   3.926   4.367  16.497  0.3666  1.0779  1.6274
  375TIP3   OH222615   3.589   5.319  12.711 -0.1209 -0.0690  0.0831
  375TIP3    H122616   3.575   5.387  12.644 -0.8998  0.7467  1.0491
  375TIP3    H222617   3.673   5.279  12.686 -1.2515 -1.0719 -2.4516
  376TIP3   OH222618   3.735   4.545   2.484 -0.4230 -0.1874 -0.3626
  376TIP3    H122619   3.747   4.453   2.510  1.6809 -0.2127 -1.2695
  376TIP3    H222620   3.738   4.594   2.566  1.5672 -0.6737 -0.1062
  377TIP3   OH222621   5.746   2.586  14.253 -0.7848  0.2275 -0.5235
  377TIP3    H122622   5.837   2.610  14.270 -1.1817  2.1917 -0.9521
  377TIP3    H222623   5.747   2.547  14.165 -0.4624  0.9429 -0.8423
  378TIP3   OH222624   2.605   4.345   4.293 -0.5984  0.2062  0.5293
  378TIP3    H122625   2.693   4.346   4.330 -0.3670  1.6760  0.0335
  378TIP3    H222626   2.550   4.382   4.361 -0.3958  1.5993 -0.0107
  379TIP3   OH222627   4.542   4.565   3.959 -0.2918 -0.5697  0.2893
  379TIP3    H122628   4.542   4.470   3.971 -1.8279 -0.2887  3.4414
  379TIP3    H222629   4.541   4.601   4.048 -1.4627  2.3842 -0.7898
  380TIP3   OH222630   0.551   1.020   5.211 -0.1183 -0.2058 -0.3024
  380TIP3    H122631   0.523   1.032   5.121 -0.7118 -2.7247 -0.5270
  380TIP3    H222632   0.629   0.965   5.206  0.7034  0.8165  0.6770
  381TIP3   OH222633   5.929   3.821  16.576  0.8691  0.3873  0.6031
  381TIP3    H122634   5.947   3.885  16.507  0.7195 -0.4706 -0.2563
  381TIP3    H222635   5.838   3.794  16.561  0.7168  0.4439  1.3619
  382TIP3   OH222636   0.803   1.045   5.835 -0.4600 -0.3757  0.0774
  382TIP3    H122637   0.801   1.000   5.920 -1.2352 -1.2636 -0.3954
  382TIP3    H222638   0.887   1.092   5.836  0.0125 -1.1837  0.9244
  383TIP3   OH222639   5.962   1.744  16.458 -0.0026 -0.4084  0.2760
  383TIP3    H122640   5.873   1.779  16.454 -0.3050 -1.1916 -0.1736
  383TIP3    H222641   5.973   1.699  16.374  0.0032 -2.2024  1.1840
  384TIP3   OH222642   6.570   4.593  13.136  0.1353  0.5575 -0.1575
  384TIP3    H122643   6.588   4.643  13.216 -0.6604 -0.2333  0.5424
  384TIP3    H222644   6.475   4.584  13.134  0.2767 -2.4011  0.7368
  385TIP3   OH222645   6.493   3.503   2.150  0.5399  0.3311  0.7608
  385TIP3    H122646   6.549   3.522   2.074  1.2437 -0.1872  1.1352
  385TIP3    H222647   6.451   3.420   2.127 -0.8764  1.1995  0.0511
  386TIP3   OH222648   6.046   2.843   5.785 -0.1082 -0.2223  0.1872
  386TIP3    H122649   6.011   2.778   5.845  0.7334  0.6518  1.6918
  386TIP3    H222650   5.997   2.923   5.805  1.6909  0.6580  1.3609
  387TIP3   OH222651   4.319   2.011  15.078  0.1759 -0.1690  0.1857
  387TIP3    H122652   4.252   1.942  15.083 -1.0884  1.0182  0.4396
  387TIP3    H222653   4.402   1.964  15.079 -0.6511 -1.7549 -1.0193
  388TIP3   OH222654   4.605   4.397  12.718 -1.0209  0.2601 -0.4662
  388TIP3    H122655   4.615   4.305  12.693  0.0572 -0.0373  0.8842
  388TIP3    H222656   4.621   4.397  12.813 -1.1054  1.8277 -0.4303
  389TIP3   OH222657   3.245   1.251   2.168 -0.1989 -0.2859 -0.4982
  389TIP3    H122658   3.197   1.290   2.095  2.0758  1.6922 -1.0359
  389TIP3    H222659   3.323   1.213   2.129  1.4997  1.5512  0.9356
  390TIP3   OH222660   3.161   4.436  14.369  0.2333 -0.0492 -0.3158
  390TIP3    H122661   3.218   4.367  14.402 -0.7406 -0.7638 -0.0806
  390TIP3    H222662   3.132   4.483  14.447 -0.0836 -0.1577 -0.3668
  391TIP3   OH222663   2.747   1.225  11.328 -0.3340 -0.3347  0.3721
  391TIP3    H122664   2.713   1.308  11.296 -0.4498 -1.2278 -2.0307
  391TIP3    H222665   2.670   1.176  11.356 -0.5877 -0.7013 -0.9335
  392TIP3   OH222666   3.526   3.533  13.124 -0.2248  0.7347  0.4012
  392TIP3    H122667   3.556   3.520  13.034 -0.8642  2.2716 -0.0609
  392TIP3    H222668   3.526   3.445  13.162  1.2539  0.2271 -0.7046
  393TIP3   OH222669   5.195   6.151   0.733  0.3695 -0.3083  0.4921
  393TIP3    H122670   5.116   6.134   0.784  0.1500  0.8438  0.5631
  393TIP3    H222671   5.214   6.243   0.748  2.1275 -0.7199  1.0251
  394TIP3   OH222672   1.746   1.623   4.329  0.3771 -0.3056  0.0102
  394TIP3    H122673   1.673   1.596   4.273 -0.6718 -0.0256  1.1924
  394TIP3    H222674   1.732   1.716   4.345 -1.4258 -1.0123  3.5349
  395TIP3   OH222675   2.056   0.909  16.800  0.6090 -0.1332  0.3705
  395TIP3    H122676   2.114   0.949  16.865  0.8117 -0.4302  0.3745
  395TIP3    H222677   1.980   0.968  16.795  0.6685 -0.0242  0.7564
  396TIP3   OH222678   2.613   2.817  13.416  0.1572  0.3955  0.0673
  396TIP3    H122679   2.584   2.738  13.463  1.9466  0.8946  2.1543
  396TIP3    H222680   2.584   2.890  13.471  1.9892  1.0181  0.2645
  397TIP3   OH222681   5.964   0.756   2.590 -0.4378 -0.2674 -0.8298
  397TIP3    H122682   5.955   0.738   2.683  1.4205 -1.7173 -0.8662
  397TIP3    H222683   5.912   0.688   2.547 -1.3227  0.4219 -0.8527
  398TIP3   OH222684   1.254   6.273  16.878  0.8265 -0.8441  0.3203
  398TIP3    H122685   1.182   6.334  16.891 -0.2740 -1.9778 -0.2532
  398TIP3    H222686   1.298   6.303  16.799  1.5455  0.3495  1.1385
  399TIP3   OH222687   3.032   4.614  11.847  0.4153 -0.1880 -0.2913
  399TIP3    H122688   3.027   4.545  11.914 -0.8911 -0.4522 -0.6334
  399TIP3    H222689   3.000   4.692  11.891 -1.7919 -0.6580 -0.9361
  400TIP3   OH222690   3.903   4.062   1.014 -0.1879 -0.0857  0.0226
  400TIP3    H122691   3.808   4.048   1.013 -0.2766  0.4375  0.3570
  400TIP3    H222692   3.917   4.122   1.087  0.6131 -1.5097  1.0841
  401TIP3   OH222693   4.891   4.918   3.552  0.1754 -0.1893  0.3071
  401TIP3    H122694   4.855   4.920   3.464  0.6980 -1.3016  0.0537
  401TIP3    H222695   4.909   4.825   3.569  0.6259  0.0715  1.3578
  402TIP3   OH222696   5.278   2.966  13.392  0.2851 -0.4557  0.2979
  402TIP3    H122697   5.227   2.960  13.312 -1.4874  2.4285  1.0616
  402TIP3    H222698   5.239   2.901  13.450 -1.2206  0.2695  0.1586
  403TIP3   OH222699   1.510   0.020   3.636  0.1170 -0.7128 -0.2147
  403TIP3    H122700   1.532   0.053   3.549  1.3513  0.5091  0.5048
  403TIP3    H222701   1.422   0.052   3.653 -0.1486 -0.9930 -1.0134
  404TIP3   OH222702   4.073   5.123   4.272 -0.1694  0.4989 -0.2397
  404TIP3    H122703   4.046   5.160   4.356  1.9020  0.8348  0.3340
  404TIP3    H222704   4.145   5.064   4.294 -1.6246 -1.9081 -1.4419
  405TIP3   OH222705   1.641   4.538  15.806  0.1368  0.6061 -0.0208
  405TIP3    H122706   1.590   4.599  15.860  1.9978  0.9942  1.4000
  405TIP3    H222707   1.634   4.454  15.852  1.4727  0.8651  0.6789
  406TIP3   OH222708   6.746   2.163  15.759  0.0604 -0.1221  0.4456
  406TIP3    H122709   6.792   2.215  15.826 -1.7366  1.7970  0.2820
  406TIP3    H222710   6.736   2.223  15.685 -2.0684 -0.6935  0.2207
  407TIP3   OH222711   0.895   1.568   3.632  0.5128 -0.2230  0.8634
  407TIP3    H122712   0.887   1.645   3.689 -1.6362  1.4386 -1.4369
  407TIP3    H222713   0.806   1.532   3.629  0.6480 -0.4966 -1.0442
  408TIP3   OH222714   5.857   5.794  13.123  0.6057 -0.3296 -0.6749
  408TIP3    H122715   5.951   5.797  13.144  0.2877 -0.6072  0.9012
  408TIP3    H222716   5.836   5.701  13.125 -0.0470 -0.1709  0.7012
  409TIP3   OH222717   5.175   2.243  12.568 -0.8551  0.3584 -0.2720
  409TIP3    H122718   5.148   2.335  12.564  6.2850  3.4315  3.4850
  409TIP3    H222719   5.176   2.222  12.661  0.8133 -2.3416 -0.7948
  410TIP3   OH222720   5.451   0.151  12.769 -0.0756 -0.4403 -0.7030
  410TIP3    H122721   5.506   0.190  12.837  0.7437 -0.3202 -1.4088
  410TIP3    H222722   5.399   0.084  12.815 -1.8604  1.7210  0.6229
  411TIP3   OH222723   0.189   4.483  10.595 -0.1479 -0.0227  0.0261
  411TIP3    H122724   0.230   4.416  10.651  1.5089 -0.6368 -1.7991
  411TIP3    H222725   0.170   4.556  10.655 -0.7035 -1.5531  1.8044
  412TIP3   OH222726   1.871   5.710  11.811  0.5157  0.0518 -0.1656
  412TIP3    H122727   1.830   5.663  11.738  1.8041  0.7608 -1.3944
  412TIP3    H222728   1.801   5.719  11.876 -0.4039 -1.4427 -0.8899
  413TIP3   OH222729   6.504   1.961  16.248  0.4294  0.0916  0.0475
  413TIP3    H122730   6.418   2.001  16.238  0.6471  0.5457 -0.0517
  413TIP3    H222731   6.554   2.026  16.298  1.2163  0.5631 -1.3249
  414TIP3   OH222732   5.827   0.727   0.511  0.2514  0.1655  0.4434
  414TIP3    H122733   5.888   0.703   0.581 -1.1687 -0.4394  1.5178
  414TIP3    H222734   5.814   0.646   0.463  0.0821  0.2300  0.3838
  415TIP3   OH222735   2.146   0.260  10.570  0.2391 -0.3697 -0.3408
  415TIP3    H122736   2.196   0.204  10.510 -0.2945 -1.3302  0.0849
  415TIP3    H222737   2.056   0.230  10.561 -0.1766  0.9217 -0.6255
  416TIP3   OH222738   6.286   0.119   1.028 -0.5795 -0.1275  0.1166
  416TIP3    H122739   6.356   0.060   1.057  0.0510  0.4631 -0.1766
  416TIP3    H222740   6.209   0.063   1.019  0.0798 -0.9705 -0.4345
  417TIP3   OH222741   0.033   5.431   1.987 -0.2541  0.0952 -0.1343
  417TIP3    H122742  -0.035   5.407   1.924 -2.6759  0.5071  2.1807
  417TIP3    H222743   0.032   5.360   2.052 -0.4465  1.4328  1.3851
  418TIP3   OH222744   6.409   5.830  14.721 -0.5415 -0.3121 -0.5997
  418TIP3    H122745   6.490   5.859  14.677 -1.0219  1.7751 -0.2106
  418TIP3    H222746   6.439   5.767  14.786  0.8000  0.3707 -0.5057
  419TIP3   OH222747   6.690   2.971  15.202  0.0257  0.4319 -0.1872
  419TIP3    H122748   6.656   3.002  15.286 -0.2959 -0.6293  0.0975
  419TIP3    H222749   6.753   2.903  15.226  1.4629  1.5124 -0.7538
  420TIP3   OH222750   3.351   4.187   2.807 -0.8543  0.1274  0.4838
  420TIP3    H122751   3.297   4.136   2.868 -0.5167 -1.0346 -0.1659
  420TIP3    H222752   3.392   4.255   2.862 -1.8344  0.1318  1.2401
  421TIP3   OH222753   2.091   5.386   2.409 -0.8079  0.4484  0.6498
  421TIP3    H122754   2.163   5.447   2.427 -1.1646  0.7533  1.0602
  421TIP3    H222755   2.012   5.439   2.416 -1.1219 -0.0568  0.9720
  422TIP3   OH222756   5.566   6.649  13.986  0.1426 -0.1301  0.3674
  422TIP3    H122757   5.546   6.565  13.944  0.4838 -0.4569  0.8419
  422TIP3    H222758   5.607   6.624  14.069 -0.4856  0.5017  0.8774
  423TIP3   OH222759   5.984   3.026  14.071  0.2776 -0.1606 -0.4676
  423TIP3    H122760   6.020   2.944  14.036  0.6696  0.4088 -1.4468
  423TIP3    H222761   6.000   3.021  14.165  1.3624 -0.6936 -0.6635
  424TIP3   OH222762   5.723   5.824  12.832  0.4153 -0.3046 -0.3340
  424TIP3    H122763   5.677   5.763  12.889 -2.9553  1.7764 -0.5217
  424TIP3    H222764   5.747   5.897  12.890 -0.6942  0.6477 -1.0175
  425TIP3   OH222765   3.595   6.073  16.854  0.3930  0.2901  0.0907
  425TIP3    H122766   3.592   5.993  16.801  1.1498  2.1417 -2.9670
  425TIP3    H222767   3.683   6.108  16.840  0.8159  0.6755  3.0528
  426TIP3   OH222768   4.941   2.496  15.985  0.0184  0.1457  0.4380
  426TIP3    H122769   4.935   2.518  15.892 -1.3542  1.8916  0.8800
  426TIP3    H222770   4.949   2.401  15.986 -0.8784 -0.0117 -1.4632
  427TIP3   OH222771   6.040   1.054  12.113  0.0285  0.1095  0.4149
  427TIP3    H122772   5.951   1.089  12.115 -0.0463 -0.0380  2.7772
  427TIP3    H222773   6.084   1.099  12.185  1.3033 -1.1902  0.4921
  428TIP3   OH222774   1.533   3.169  16.721  0.4606 -0.5364 -0.1559
  428TIP3    H122775   1.508   3.130  16.637 -1.7793 -1.2216  0.7512
  428TIP3    H222776   1.529   3.097  16.783  1.4761  0.0963  0.6692
  429TIP3   OH222777   4.900   5.754   0.303 -0.4279  0.1344  0.3110
  429TIP3    H122778   4.994   5.737   0.312 -0.4562  0.2365  0.8727
  429TIP3    H222779   4.887   5.836   0.351 -0.6912  0.4760 -0.3357
  430TIP3   OH222780   5.251   4.043  14.690  0.9525 -0.4779 -0.1128
  430TIP3    H122781   5.309   4.117  14.672  0.3598 -0.0683 -0.3599
  430TIP3    H222782   5.164   4.075  14.669  0.6186 -1.0521  0.3646
  431TIP3   OH222783   5.718   4.817  14.139 -0.5589 -0.2453  0.4231
  431TIP3    H122784   5.721   4.731  14.097 -0.0571 -0.1824  0.3163
  431TIP3    H222785   5.654   4.807  14.209 -1.4148 -0.3514 -0.3453
  432TIP3   OH222786   6.678   5.076   2.657 -0.2985 -0.0634  0.0072
  432TIP3    H122787   6.719   5.017   2.594  1.1653  0.6205  0.2549
  432TIP3    H222788   6.725   5.060   2.738 -0.6822  0.5998  0.3696
  433TIP3   OH222789   3.891   3.608  12.670 -0.6241 -0.3940  0.0324
  433TIP3    H122790   3.970   3.620  12.724 -0.4112 -0.8576 -0.1699
  433TIP3    H222791   3.892   3.515  12.647 -0.2359 -0.0349 -1.4973
  434TIP3   OH222792   0.577   1.954  13.445  0.1099 -0.3321  0.2501
  434TIP3    H122793   0.504   1.990  13.496 -0.4652 -1.8753  0.5632
  434TIP3    H222794   0.570   1.999  13.361 -0.8255  0.0085  0.4893
  435TIP3   OH222795   3.473   6.004  12.684 -0.3578  0.2151 -0.3406
  435TIP3    H122796   3.539   6.035  12.623 -0.9595 -1.2955 -1.8213
  435TIP3    H222797   3.478   5.908  12.679 -1.7370  0.0663  0.5252
  436TIP3   OH222798   1.410   1.742   0.566 -0.0057 -0.5155  0.1155
  436TIP3    H122799   1.327   1.789   0.563  0.3411  0.1217  0.2388
  436TIP3    H222800   1.408   1.684   0.490 -1.1052 -1.4519  0.8299
  437TIP3   OH222801   0.540   1.077  13.232  0.4172  0.2349  0.2522
  437TIP3    H122802   0.542   0.997  13.180  0.1564  0.1020  0.4435
  437TIP3    H222803   0.501   1.142  13.173 -0.6160 -0.1076  0.5334
  438TIP3   OH222804   6.650   3.398   5.608  0.3264 -0.0308  0.1579
  438TIP3    H122805   6.735   3.388   5.565  0.3127  0.8087 -0.0646
  438TIP3    H222806   6.653   3.334   5.679  0.7392 -0.7362 -0.4635
  439TIP3   OH222807   0.051   3.759   5.976  0.4110 -0.0101  0.5661
  439TIP3    H122808   0.036   3.666   5.958 -2.8310  0.8995 -2.6001
  439TIP3    H222809  -0.023   3.785   6.031  0.1956  1.0367 -0.1840
  440TIP3   OH222810   0.023   6.023   0.741  1.0677  0.2561  0.0272
  440TIP3    H122811   0.071   6.004   0.821  1.0998 -2.6191 -0.5967
  440TIP3    H222812   0.053   5.958   0.678 -0.3789  1.2085 -1.7522
  441TIP3   OH222813   6.406   6.693  12.896  0.6750 -0.5959  0.3997
  441TIP3    H122814   6.384   6.722  12.985 -0.0672  0.5314 -0.1258
  441TIP3    H222815   6.332   6.637  12.871  0.8736 -0.8956  0.4735
  442TIP3   OH222816   2.627   5.308  16.997  0.4481 -0.5034 -0.3438
  442TIP3    H122817   2.604   5.270  17.082 -0.8892 -2.8765 -1.6681
  442TIP3    H222818   2.561   5.275  16.937 -1.0014  4.1555 -1.7359
  443TIP3   OH222819   4.647   0.030   1.473  0.0874 -0.1283  0.2892
  443TIP3    H122820   4.569   0.071   1.512 -0.4333  0.9649 -1.7008
  443TIP3    H222821   4.721   0.075   1.513 -0.4119  0.6701  0.3421
  444TIP3   OH222822   0.095   2.834  12.614 -0.3869 -0.1647  0.4091
  444TIP3    H122823   0.173   2.817  12.667  0.7608 -0.2172 -1.2428
  444TIP3    H222824   0.048   2.750  12.613  0.8219 -0.8560 -0.6115
  445TIP3   OH222825   2.073   1.337  13.524  0.3424 -0.0141  0.6661
  445TIP3    H122826   2.121   1.272  13.575 -0.4848 -0.4687  0.8827
  445TIP3    H222827   2.015   1.286  13.468 -1.5103  0.5356  2.0030
  446TIP3   OH222828   0.581   1.612   4.933  0.3180 -0.6766 -0.8786
  446TIP3    H122829   0.645   1.641   4.869  1.1146 -0.6808 -0.1042
  446TIP3    H222830   0.626   1.620   5.017 -0.6049 -0.9411 -0.3468
  447TIP3   OH222831   1.578   1.591  15.895 -0.2249 -0.3204  0.1601
  447TIP3    H122832   1.612   1.673  15.931 -0.6867  0.9903 -2.1740
  447TIP3    H222833   1.591   1.527  15.964  0.3339  1.6770  2.0132
  448TIP3   OH222834   2.105   4.094   6.575 -0.5172 -0.0449 -0.2628
  448TIP3    H122835   2.025   4.138   6.545  0.5539  1.8625 -0.5124
  448TIP3    H222836   2.166   4.166   6.591  1.2683 -1.4686 -0.4231
  449TIP3   OH222837   4.148   3.687   2.759 -0.2034 -0.2091  0.1616
  449TIP3    H122838   4.067   3.637   2.756 -0.6253  0.4682 -0.1263
  449TIP3    H222839   4.209   3.638   2.703 -0.9302  0.1326 -0.9693
  450TIP3   OH222840   1.671   3.926   2.358  0.8161  0.1470  0.6858
  450TIP3    H122841   1.752   3.932   2.408  0.4378  0.1098  1.3158
  450TIP3    H222842   1.645   4.018   2.344  0.7839  0.1560  0.7976
  451TIP3   OH222843   0.912   6.362  15.378 -0.4913  0.7929  0.0867
  451TIP3    H122844   0.871   6.371  15.292 -1.6599 -2.0480  0.2514
  451TIP3    H222845   1.003   6.386  15.364 -1.2798  3.3994 -1.1888
  452TIP3   OH222846   2.062   4.112   1.639  0.6024  0.8455 -0.1039
  452TIP3    H122847   2.120   4.129   1.566  0.4153  0.2620 -0.3976
  452TIP3    H222848   2.000   4.046   1.606  0.1085  1.0608  0.3659
  453TIP3   OH222849   6.672   5.901   2.196 -0.2220  0.1241 -0.0963
  453TIP3    H122850   6.641   5.931   2.110  2.0923  0.8304 -0.7386
  453TIP3    H222851   6.686   5.807   2.185 -0.6844  0.0660 -0.2313
  454TIP3   OH222852   0.538   5.991  11.775  0.0017  0.1316  0.1929
  454TIP3    H122853   0.634   5.989  11.784 -0.0235 -3.0211  0.6177
  454TIP3    H222854   0.506   6.014  11.862  0.3283  0.5318  0.2134
  455TIP3   OH222855   2.738   3.834   1.485  0.7538 -0.2824 -0.0904
  455TIP3    H122856   2.773   3.750   1.513 -0.4925 -1.5747 -2.1349
  455TIP3    H222857   2.674   3.812   1.417 -2.0857  2.0854  1.5567
  456TIP3   OH222858   1.423   2.057   3.701 -0.0900 -0.1209  0.2600
  456TIP3    H122859   1.342   2.006   3.706 -1.7357  2.1020 -1.6509
  456TIP3    H222860   1.411   2.127   3.765  1.1423 -0.7434  1.2141
  457TIP3   OH222861   0.963   6.402   4.092  0.8487 -0.1489 -0.1517
  457TIP3    H122862   0.903   6.328   4.097 -2.1456  1.9332 -1.7855
  457TIP3    H222863   0.923   6.470   4.147  1.9995  1.1385 -0.8277
  458TIP3   OH222864   2.918   0.434  13.582  0.4538 -0.2520  0.1705
  458TIP3    H122865   2.881   0.350  13.555 -0.9606  0.3146  0.2489
  458TIP3    H222866   2.880   0.497  13.521  0.6850  0.4631  0.7523
  459TIP3   OH222867   2.553   6.779   2.088  0.7505  0.6118  0.4308
  459TIP3    H122868   2.627   6.743   2.039  1.9184  2.1000  1.0252
  459TIP3    H222869   2.592   6.814   2.168 -0.8114  0.1967  1.4367
  460TIP3   OH222870   5.976   4.675  15.512  0.0694 -0.1315  0.0492
  460TIP3    H122871   6.028   4.740  15.559 -0.1996 -0.3560  0.6726
  460TIP3    H222872   6.015   4.671  15.425 -0.2423  1.2580 -0.1805
  461TIP3   OH222873   2.591   1.342   0.128 -0.4380  0.7438 -0.1761
  461TIP3    H122874   2.596   1.425   0.081 -0.4964  0.2729 -1.0463
  461TIP3    H222875   2.616   1.363   0.218  0.0409  1.6065 -0.5005
  462TIP3   OH222876   1.368   3.901   1.565 -0.4701  0.0520 -0.3141
  462TIP3    H122877   1.320   3.977   1.600  0.3226  0.3435  0.1857
  462TIP3    H222878   1.327   3.826   1.607 -0.0751  0.3450  0.6358
  463TIP3   OH222879   0.111   2.003  16.102  0.6139  0.2167 -0.0201
  463TIP3    H122880   0.075   1.943  16.168 -2.0283  0.2835 -1.2478
  463TIP3    H222881   0.149   1.945  16.035 -0.7082 -0.1014 -0.5389
  464TIP3   OH222882   4.178   5.475   1.693  0.5927  0.0515 -0.1028
  464TIP3    H122883   4.094   5.474   1.740 -0.0802 -1.0478 -1.2614
  464TIP3    H222884   4.196   5.383   1.676  1.7958  0.3193 -0.3122
  465TIP3   OH222885   4.401   1.162   4.124  0.3157 -0.0204  0.1404
  465TIP3    H122886   4.367   1.212   4.050  0.1059  1.0660  0.9394
  465TIP3    H222887   4.469   1.106   4.086  0.3694  0.6846 -0.8336
  466TIP3   OH222888   3.422   3.448   0.603 -0.2872  0.5467 -0.3537
  466TIP3    H122889   3.482   3.377   0.627 -2.0356 -0.9163 -0.0826
  466TIP3    H222890   3.403   3.434   0.510 -0.1470  1.0609 -0.4647
  467TIP3   OH222891   2.213   0.181  15.981  0.3063 -0.1025  0.4586
  467TIP3    H122892   2.180   0.102  16.023 -0.6353 -0.9252 -1.6574
  467TIP3    H222893   2.307   0.180  15.998  0.6900 -2.8891 -1.2540
  468TIP3   OH222894   1.191   2.191  17.004 -0.4419 -0.8489 -0.2501
  468TIP3    H122895   1.188   2.267  16.946 -1.0830  0.2090  1.0938
  468TIP3    H222896   1.268   2.142  16.976 -1.0382 -0.6805 -2.3109
  469TIP3   OH222897   2.998   1.649   4.486  0.6297 -0.3804  0.1106
  469TIP3    H122898   2.982   1.634   4.579  0.2956 -0.4477  0.0422
  469TIP3    H222899   2.988   1.744   4.475 -0.0098 -0.4560  0.0140
  470TIP3   OH222900   3.924   5.796   2.761 -0.1781 -0.7745  0.0543
  470TIP3    H122901   3.889   5.833   2.841  1.5868 -0.7892  0.8742
  470TIP3    H222902   3.944   5.871   2.706 -0.7389 -0.7321 -0.0958
  471TIP3   OH222903   0.825   2.973   2.902  0.1260 -0.4310  0.0014
  471TIP3    H122904   0.901   3.027   2.924 -1.0704  1.3744 -0.1083
  471TIP3    H222905   0.776   3.026   2.839 -0.9811 -1.7794 -0.3094
  472TIP3   OH222906   3.665   0.637   5.344  0.8129  0.4241  0.2516
  472TIP3    H122907   3.718   0.704   5.302 -3.4666  1.9776 -3.6192
  472TIP3    H222908   3.633   0.677   5.425  1.2513  1.5981 -0.1506
  473TIP3   OH222909   5.631   2.850  16.031  0.0285  0.8850  0.1355
  473TIP3    H122910   5.680   2.809  16.103  0.4422  1.2278  0.0538
  473TIP3    H222911   5.539   2.833  16.052  0.1731  0.3796  0.3827
  474TIP3   OH222912   5.894   5.638   3.696  0.0878 -0.1489  0.0416
  474TIP3    H122913   5.804   5.610   3.714  0.0840 -0.4672 -0.4561
  474TIP3    H222914   5.944   5.557   3.692  0.3524  0.0124  0.0625
  475TIP3   OH222915   1.819   3.199   1.247  0.7864 -0.2997 -0.0668
  475TIP3    H122916   1.725   3.212   1.233 -0.3568 -3.7887  2.8594
  475TIP3    H222917   1.848   3.150   1.171  0.0865  0.1471 -0.6349
  476TIP3   OH222918   3.815   1.057   0.436 -0.4485 -0.3445 -0.2658
  476TIP3    H122919   3.776   1.049   0.349  1.8350  1.1836 -1.5548
  476TIP3    H222920   3.810   1.151   0.455  0.8885 -0.3639  0.2975
  477TIP3   OH222921   1.575   2.540  15.960  0.4027 -0.0274 -0.1554
  477TIP3    H122922   1.499   2.590  15.989  0.5861  1.0869 -1.4892
  477TIP3    H222923   1.565   2.534  15.865  2.2712  0.6553 -0.4349
  478TIP3   OH222924   4.551   1.410  14.458 -0.9887  0.8346 -0.2668
  478TIP3    H122925   4.598   1.481  14.414 -2.4699  2.2726  0.3467
  478TIP3    H222926   4.488   1.379  14.394 -0.6211  0.3585 -0.3971
  479TIP3   OH222927   0.808   1.271  13.630  0.3342 -0.1989  0.4182
  479TIP3    H122928   0.759   1.189  13.627  0.1062 -0.0329 -1.4912
  479TIP3    H222929   0.830   1.283  13.723 -0.2797 -2.0147  0.8267
  480TIP3   OH222930   1.241   2.104  15.140 -0.5538 -0.3981 -0.2592
  480TIP3    H122931   1.311   2.045  15.110 -0.9809 -0.4299 -1.2359
  480TIP3    H222932   1.280   2.152  15.213  0.8223  0.2589 -1.3766
  481TIP3   OH222933   2.275   4.207  14.932 -0.1896  0.1001 -0.4111
  481TIP3    H122934   2.245   4.249  15.013  1.3201  1.6771 -0.6081
  481TIP3    H222935   2.305   4.121  14.959  2.8753  1.5363  1.3335
  482TIP3   OH222936   0.869   3.346   0.196  0.1933 -0.2815 -0.7674
  482TIP3    H122937   0.859   3.356   0.291 -2.5874  2.2651 -1.1650
  482TIP3    H222938   0.955   3.305   0.185  1.0124  0.1252  2.7911
  483TIP3   OH222939   6.622   4.435   4.226  0.5768  0.1609 -0.5459
  483TIP3    H122940   6.596   4.371   4.293 -1.9231 -0.1741 -1.7174
  483TIP3    H222941   6.685   4.492   4.270 -0.6294 -0.3168  1.9633
  484TIP3   OH222942   2.642   2.425   4.306 -0.3028  0.2941  0.2078
  484TIP3    H122943   2.616   2.402   4.395  3.5037 -1.2003  1.1403
  484TIP3    H222944   2.625   2.518   4.299 -0.6137  0.4736  2.5762
  485TIP3   OH222945   2.560   6.409  16.948  0.7146  0.6491 -0.0454
  485TIP3    H122946   2.629   6.475  16.962  0.2996  0.6133  2.7463
  485TIP3    H222947   2.492   6.456  16.899  1.9247  1.1998 -1.2675
  486TIP3   OH222948   2.003   4.341   3.112 -0.1336  0.2228 -0.2322
  486TIP3    H122949   2.079   4.340   3.053  0.3040 -1.3451  0.2995
  486TIP3    H222950   1.928   4.350   3.055  0.3595  0.0261 -0.9240
  487TIP3   OH222951   0.456   0.190   0.427 -0.0637  0.7851  0.1189
  487TIP3    H122952   0.432   0.275   0.462  0.1036  0.9641 -0.1992
  487TIP3    H222953   0.526   0.208   0.364  0.7415  0.3024  0.8555
  488TIP3   OH222954   5.768   3.564  13.787 -0.0014  0.4118  0.6499
  488TIP3    H122955   5.684   3.588  13.824  0.1480  2.4050 -0.1717
  488TIP3    H222956   5.832   3.585  13.856 -0.1375 -1.3398  1.3719
  489TIP3   OH222957   4.085   2.695  16.907 -0.1204  0.5373 -0.1445
  489TIP3    H122958   4.070   2.762  16.973  1.2324 -1.0475  1.8921
  489TIP3    H222959   4.056   2.614  16.948 -2.1025 -0.1797 -2.6811
  490TIP3   OH222960   3.851   3.203  14.328  0.3254  0.4308 -0.0712
  490TIP3    H122961   3.919   3.145  14.295  0.8515  0.6786  0.5546
  490TIP3    H222962   3.770   3.171  14.288  0.7103 -0.2786 -0.2943
  491TIP3   OH222963   2.288   3.314  14.701  0.3563  0.1256 -0.2155
  491TIP3    H122964   2.245   3.232  14.727 -0.4300  0.0317 -1.7192
  491TIP3    H222965   2.379   3.303  14.728  0.5248 -1.7231 -1.3556
  492TIP3   OH222966   5.765   1.163  12.817  0.0013 -0.7028 -0.0897
  492TIP3    H122967   5.719   1.131  12.740  2.0374  0.9400 -2.1310
  492TIP3    H222968   5.715   1.240  12.845 -1.1585 -1.7275  0.7459
  493TIP3   OH222969   4.366   4.625   5.096 -0.0381  0.0457 -0.1657
  493TIP3    H122970   4.317   4.705   5.114 -1.2036 -0.7902  0.5610
  493TIP3    H222971   4.300   4.564   5.063  0.1669 -1.5564  2.1387
  494TIP3   OH222972   4.631   6.234  16.615  0.5935 -0.2455  0.4977
  494TIP3    H122973   4.715   6.250  16.572  0.8433  1.8989  1.6385
  494TIP3    H222974   4.654   6.198  16.701  0.3748  0.7022  0.9596
  495TIP3   OH222975   2.911   1.317   1.770  0.0387  0.1102 -0.0292
  495TIP3    H122976   2.894   1.396   1.718  0.6040  0.5243  0.3905
  495TIP3    H222977   2.869   1.334   1.854 -0.8370 -0.5410 -0.3222
  496TIP3   OH222978   6.033   6.057  12.979  0.2652  0.6009 -0.4357
  496TIP3    H122979   6.093   6.102  12.919  0.8459  0.7963  0.2689
  496TIP3    H222980   6.063   5.966  12.978  1.2918  0.8865  0.7123
  497TIP3   OH222981   4.834   2.991  12.170  0.2978  0.2488  0.5278
  497TIP3    H122982   4.764   2.964  12.230  0.4409 -2.1578 -0.2569
  497TIP3    H222983   4.914   2.972  12.218  0.4520  2.1337  1.0712
  498TIP3   OH222984   6.589   5.577  10.784  0.5225  0.4080 -0.7448
  498TIP3    H122985   6.656   5.525  10.829  0.6601  0.4947 -0.8448
  498TIP3    H222986   6.626   5.665  10.781  1.4878 -0.0009 -2.9064
  499TIP3   OH222987   0.026   5.164  12.036 -0.1287 -0.2917  0.6728
  499TIP3    H122988   0.053   5.073  12.022  1.8881 -0.1277  2.8304
  499TIP3    H222989  -0.059   5.158  12.080  0.7781 -1.2508  2.3888
  500TIP3   OH222990   3.004   5.345  11.084 -0.0475 -0.0759  0.1592
  500TIP3    H122991   3.017   5.254  11.057 -0.6243 -0.1295  0.0457
  500TIP3    H222992   3.000   5.342  11.179  2.4936  0.1798  0.3308
  501TIP3   OH222993   5.807   1.382   0.180 -0.1422 -0.4789 -0.1282
  501TIP3    H122994   5.786   1.314   0.116 -0.5638  0.2285 -0.7629
  501TIP3    H222995   5.749   1.365   0.254  1.6068 -2.4087  0.9056
  502TIP3   OH222996   2.363   5.653   0.195  0.5910 -0.3681  0.1439
  502TIP3    H122997   2.411   5.732   0.170 -2.1560  1.5813  0.4822
  502TIP3    H222998   2.375   5.646   0.289 -0.9130  1.0480  0.4934
  503TIP3   OH222999   6.808   6.519   0.545  0.0079 -0.3122  0.5246
  503TIP3    H123000   6.776   6.576   0.615  2.6880  1.1702  0.6708
  503TIP3    H223001   6.873   6.572   0.499  1.1943 -2.6068 -0.5962
  504TIP3   OH223002   5.481   6.000   2.860 -0.4773 -0.6761 -0.3948
  504TIP3    H123003   5.506   5.974   2.771  1.4298 -1.0450  0.2005
  504TIP3    H223004   5.524   6.084   2.873 -2.9249  0.7043 -0.7043
  505TIP3   OH223005   0.711   2.193  15.267 -0.5149  0.0338  0.5850
  505TIP3    H123006   0.797   2.150  15.260  0.4433  1.5915  2.0474
  505TIP3    H223007   0.657   2.147  15.203  0.9926 -1.9530  0.6092
  506TIP3   OH223008   0.654   0.409   3.666 -0.1621 -0.1968  0.4120
  506TIP3    H123009   0.679   0.472   3.598  1.0056 -1.1707 -0.1093
  506TIP3    H223010   0.564   0.433   3.690  0.2973  1.7184  0.3319
  507TIP3   OH223011   4.570   5.012   1.944  0.0070 -0.4686 -0.1972
  507TIP3    H123012   4.519   4.934   1.966  0.8690 -0.6522  1.2581
  507TIP3    H223013   4.584   5.057   2.028  2.7512 -0.7541 -0.4111
  508TIP3   OH223014   2.051   0.735  13.054 -0.2316 -0.7065 -0.4084
  508TIP3    H123015   2.105   0.716  12.976 -0.8985 -0.3545 -0.9704
  508TIP3    H223016   2.065   0.828  13.070 -2.2133 -0.1211 -1.7958
  509TIP3   OH223017   3.361   4.283   1.563 -0.2275  0.2162 -0.8891
  509TIP3    H123018   3.290   4.224   1.586  2.1359 -2.7774 -0.7000
  509TIP3    H223019   3.353   4.296   1.468 -1.1845  0.2188 -0.8136
  510TIP3   OH223020   6.614   4.406   0.841  1.0081 -0.0821 -0.2705
  510TIP3    H123021   6.580   4.434   0.756  0.1313  0.5280  0.2688
  510TIP3    H223022   6.702   4.444   0.845  0.7744  0.5019 -0.5995
  511TIP3   OH223023   4.447   6.033   3.106 -0.2611 -0.5000  0.1789
  511TIP3    H123024   4.474   5.986   3.027  0.4933 -3.1068  1.8637
  511TIP3    H223025   4.529   6.055   3.150 -0.6806  0.0520  0.6954
  512TIP3   OH223026   1.528   3.700  15.916 -0.5583 -0.6338  0.2018
  512TIP3    H123027   1.497   3.625  15.865  1.0240 -1.4103  0.3111
  512TIP3    H223028   1.540   3.770  15.852  1.5663 -1.6455 -0.6177
  513TIP3   OH223029   6.504   5.634   2.071 -0.0527  0.4767  0.5817
  513TIP3    H123030   6.453   5.682   2.006 -0.2485  0.4157  0.6871
  513TIP3    H223031   6.577   5.597   2.022 -1.2282 -1.1984 -0.0323
  514TIP3   OH223032   4.448   6.332   0.229  0.2916  0.3460  0.2333
  514TIP3    H123033   4.362   6.349   0.266  0.7359  1.3608  0.8363
  514TIP3    H223034   4.448   6.380   0.146 -0.6977 -1.9121 -1.1627
  515TIP3   OH223035   3.888   2.074  13.115  0.1760 -0.3593  1.0803
  515TIP3    H123036   3.970   2.123  13.123 -0.0251 -0.0286  1.1070
  515TIP3    H223037   3.822   2.131  13.153 -0.5971  0.7038 -1.6214
  516TIP3   OH223038   0.720   4.140   1.283 -0.3328  0.7338  0.7373
  516TIP3    H123039   0.742   4.131   1.190  0.3795 -1.6628  1.0676
  516TIP3    H223040   0.739   4.231   1.303 -1.3350  1.5439 -1.6552
  517TIP3   OH223041   3.814   0.370   5.979 -0.1023  0.4918 -0.1749
  517TIP3    H123042   3.733   0.334   6.016 -0.2005  0.3728 -0.5009
  517TIP3    H223043   3.853   0.421   6.051 -1.4775  2.2328 -0.5801
  518TIP3   OH223044   0.728   6.713  13.270  0.0203  0.6365 -0.5924
  518TIP3    H123045   0.707   6.769  13.345 -1.5894  2.0853 -2.0140
  518TIP3    H223046   0.819   6.734  13.249  1.0244 -0.9017  1.7789
  519TIP3   OH223047   3.296   3.474  16.039 -0.8138 -0.7120 -0.1674
  519TIP3    H123048   3.359   3.495  16.108 -1.0528  1.3041 -0.4858
  519TIP3    H223049   3.350   3.450  15.963 -0.5543 -3.0358  0.6999
  520TIP3   OH223050   1.941   6.856   0.279  0.1559  0.0469 -0.1947
  520TIP3    H123051   1.921   6.774   0.234 -0.8489  0.0116  0.2819
  520TIP3    H223052   1.899   6.846   0.365 -0.7222  1.3930 -0.4449
  521TIP3   OH223053   4.807   4.241   4.629 -0.3170 -0.7189 -0.0608
  521TIP3    H123054   4.779   4.149   4.628 -1.3298 -0.4246 -1.1091
  521TIP3    H223055   4.855   4.252   4.547  0.9463 -0.6334  0.6785
  522TIP3   OH223056   4.194   2.600  13.201 -0.4690 -0.5522  0.1654
  522TIP3    H123057   4.282   2.625  13.230 -0.6295 -0.0831  0.2522
  522TIP3    H223058   4.135   2.651  13.255 -0.7724  0.5459 -1.1501
  523TIP3   OH223059   6.524   3.926  15.542 -0.0263  0.1079  0.6645
  523TIP3    H123060   6.521   3.942  15.636 -1.6619  0.5521  0.5775
  523TIP3    H223061   6.481   4.002  15.504  1.7617  0.5580 -0.5627
  524TIP3   OH223062   4.537   2.313   5.991 -0.0067  0.5434 -0.6171
  524TIP3    H123063   4.572   2.244   6.047 -1.3747 -0.1223 -0.5424
  524TIP3    H223064   4.493   2.373   6.051  0.9384  1.3603 -0.7119
  525TIP3   OH223065   0.987   4.720   1.449 -0.2493  0.4968 -0.5680
  525TIP3    H123066   0.959   4.754   1.364 -1.1600  1.8909  0.2492
  525TIP3    H223067   0.964   4.789   1.511  0.8322 -0.2935  0.7621
  526TIP3   OH223068   3.428   6.224  15.424  0.0038 -0.3684 -0.2317
  526TIP3    H123069   3.473   6.148  15.461 -1.4186 -1.3354 -0.3893
  526TIP3    H223070   3.459   6.228  15.333  1.4910  0.4033  0.2758
  527TIP3   OH223071   1.357   3.226  15.687 -0.2024 -0.0466  0.2912
  527TIP3    H123072   1.402   3.221  15.603 -0.5242  0.3996  0.0905
  527TIP3    H223073   1.285   3.163  15.679  0.6595 -1.1264  0.7906
  528TIP3   OH223074   6.521   1.474  15.069 -0.0603  0.5489  0.7827
  528TIP3    H123075   6.521   1.566  15.041 -1.4031  0.2661 -0.2007
  528TIP3    H223076   6.433   1.442  15.050  0.1768 -0.7786  1.7325
  529TIP3   OH223077   6.715   2.231   2.963  0.2258 -0.6261  0.7266
  529TIP3    H123078   6.767   2.305   2.930 -1.0562 -0.0624 -0.1341
  529TIP3    H223079   6.747   2.217   3.052  1.9400 -0.4145  0.1898
  530TIP3   OH223080   2.410   1.979   3.713 -0.8075 -0.9008  0.8719
  530TIP3    H123081   2.390   2.041   3.783  2.1715  0.5137  0.6418
  530TIP3    H223082   2.337   1.918   3.713 -3.0234  1.5328  2.3547
  531TIP3   OH223083   0.604   4.890  13.457 -0.5022 -0.0411 -0.6219
  531TIP3    H123084   0.699   4.888  13.453 -0.5477 -1.5848 -1.7598
  531TIP3    H223085   0.581   4.829  13.527 -0.6540  1.7393  0.9643
  532TIP3   OH223086   5.863   1.323  13.779 -0.0903 -0.2680 -0.2699
  532TIP3    H123087   5.939   1.359  13.732 -1.2877  1.1152 -1.2431
  532TIP3    H223088   5.848   1.238  13.738  0.0784  0.0671 -1.0502
  533TIP3   OH223089   4.816   1.950  13.478  0.3888  0.1961  0.3323
  533TIP3    H123090   4.776   2.003  13.409  1.3588  0.4770 -0.0255
  533TIP3    H223091   4.796   1.998  13.559 -0.6783 -0.0901  0.2544
  534TIP3   OH223092   5.392   2.648   3.408  0.1538 -0.3479  0.2018
  534TIP3    H123093   5.342   2.616   3.333  0.3529  0.9630 -0.5065
  534TIP3    H223094   5.396   2.572   3.467  0.3900 -1.5466 -1.2940
  535TIP3   OH223095   3.860   4.323   3.284 -0.1386 -0.1188  0.1060
  535TIP3    H123096   3.809   4.242   3.291  0.8442 -0.7321  0.4485
  535TIP3    H223097   3.818   4.383   3.345 -0.3436 -0.6750  0.5230
  536TIP3   OH223098   0.869   1.687  15.426  0.6624  0.1477 -0.1439
  536TIP3    H123099   0.806   1.760  15.427 -0.5983 -0.8904 -0.5577
  536TIP3    H223100   0.814   1.608  15.421  2.0064 -0.8163 -0.2646
  537TIP3   OH223101   1.112   3.701  13.184  0.4157 -0.1956  0.3137
  537TIP3    H123102   1.101   3.661  13.271  0.3077 -2.1452 -0.5411
  537TIP3    H223103   1.061   3.645  13.126  1.5433  0.2994 -1.2114
  538TIP3   OH223104   1.012   2.797   0.574  0.0513  0.2684 -0.0897
  538TIP3    H123105   1.008   2.892   0.564 -5.0310  0.3510  0.3988
  538TIP3    H223106   1.025   2.783   0.668  2.3479  0.3241 -0.3403
  539TIP3   OH223107   2.838   0.902  16.461  0.3989 -0.3603  0.1321
  539TIP3    H123108   2.904   0.846  16.421  1.3788 -1.1452  2.6456
  539TIP3    H223109   2.862   0.906  16.554 -1.7044  1.3356  0.7039
  540TIP3   OH223110   5.457   6.264  12.763 -0.4693 -0.4901 -0.2293
  540TIP3    H123111   5.498   6.190  12.719  3.2972  0.7613  0.8003
  540TIP3    H223112   5.508   6.340  12.736 -2.5740  1.3983  0.7452
  541TIP3   OH223113   5.633   3.075   4.657  0.7488 -0.4909 -0.3405
  541TIP3    H123114   5.550   3.098   4.699 -0.0387 -1.3236 -1.3934
  541TIP3    H223115   5.663   3.157   4.617  0.5547 -0.1372  0.2250
  542TIP3   OH223116   3.565   6.212   5.967 -0.0095  0.4507 -0.2411
  542TIP3    H123117   3.479   6.169   5.963  0.2053  0.0546 -0.6365
  542TIP3    H223118   3.545   6.302   5.993 -0.4945  0.2100  0.2480
  543TIP3   OH223119   3.533   3.323  15.064  0.2513  0.2700  0.5292
  543TIP3    H123120   3.576   3.358  15.143  0.5068  1.3681 -0.0797
  543TIP3    H223121   3.597   3.264  15.026 -0.0549 -0.6509  1.3856
  544TIP3   OH223122   1.421   3.525   2.213 -0.3117 -0.5643  1.2245
  544TIP3    H123123   1.390   3.517   2.123 -1.6348  0.4387  1.5636
  544TIP3    H223124   1.346   3.499   2.267  0.0440  0.0655  2.0457
  545TIP3   OH223125   3.340   5.008  15.097 -0.4424 -0.1064 -0.0104
  545TIP3    H123126   3.337   4.988  15.191  1.9483 -0.4640  0.0577
  545TIP3    H223127   3.278   4.947  15.057  0.3312 -1.6784  1.1108
  546TIP3   OH223128   5.947   2.527  16.506 -0.3807 -0.2681  0.4687
  546TIP3    H123129   5.895   2.485  16.438 -0.0011 -0.1425  0.1020
  546TIP3    H223130   5.934   2.621  16.492  0.8101 -0.2091 -0.3063
  547TIP3   OH223131   3.862   2.961  11.057 -0.7304  0.0692  0.8175
  547TIP3    H123132   3.955   2.968  11.078 -0.6851 -1.4102  1.2593
  547TIP3    H223133   3.857   2.885  10.999 -1.4315  1.3708 -0.9301
  548TIP3   OH223134   0.978   5.175   3.735  0.0828  0.0399 -0.2171
  548TIP3    H123135   0.996   5.144   3.646  1.2972  0.5363 -0.1607
  548TIP3    H223136   0.883   5.172   3.743 -0.2102  1.8399 -2.2149
  549TIP3   OH223137   3.373   6.816  12.235  0.1043  0.2585 -0.3503
  549TIP3    H123138   3.402   6.834  12.145 -0.2744  1.9032 -0.1727
  549TIP3    H223139   3.440   6.756  12.270  0.0481 -0.7227 -1.8323
  550TIP3   OH223140   2.136   6.811  12.227  0.7374  0.0310  0.0388
  550TIP3    H123141   2.065   6.807  12.162  0.6226 -0.3593  0.1856
  550TIP3    H223142   2.109   6.750  12.296  0.7815  0.5566  0.5306
  551TIP3   OH223143   2.244   2.014  15.856 -0.1653  0.1062  0.1581
  551TIP3    H123144   2.203   1.945  15.908  0.8249 -2.6493 -2.3846
  551TIP3    H223145   2.314   2.048  15.911 -0.2476 -1.4186  1.2766
  552TIP3   OH223146   6.450   4.453   0.620  0.1534  0.1279  0.5579
  552TIP3    H123147   6.396   4.374   0.614  0.4100  0.0074 -0.3164
  552TIP3    H223148   6.426   4.503   0.542  2.9014 -0.9519 -1.1113
  553TIP3   OH223149   0.464   2.943  16.333  0.8230 -0.2299  0.0374
  553TIP3    H123150   0.395   2.974  16.391  0.7538 -0.0487 -0.1397
  553TIP3    H223151   0.502   2.868  16.378 -0.7259 -1.5289 -0.7137
  554TIP3   OH223152   6.546   1.820   4.894 -0.1229  0.0141 -0.3618
  554TIP3    H123153   6.637   1.816   4.862 -0.5073 -0.6593 -1.4132
  554TIP3    H223154   6.540   1.905   4.938  0.7681  0.4571 -1.0608
  555TIP3   OH223155   2.679   0.521  15.208 -0.2459  0.0225  1.1280
  555TIP3    H123156   2.764   0.559  15.186 -1.3140  1.3646 -1.0106
  555TIP3    H223157   2.636   0.588  15.262  0.3863 -1.0871  3.0906
  556TIP3   OH223158   4.183   1.696   5.445 -0.0487  0.4896  0.3597
  556TIP3    H123159   4.134   1.769   5.483 -0.1450 -0.8275  2.9877
  556TIP3    H223160   4.160   1.699   5.352 -1.8266  2.4216  0.7585
  557TIP3   OH223161   0.863   4.638  12.124  0.5468 -1.1598 -0.1382
  557TIP3    H123162   0.878   4.616  12.033 -0.0761  0.8535 -0.7791
  557TIP3    H223163   0.933   4.701  12.145 -0.3524 -0.2550  0.2093
  558TIP3   OH223164   5.519   5.116   3.250 -0.0160 -0.0043 -0.1995
  558TIP3    H123165   5.507   5.169   3.328  0.0544 -0.2410 -0.0281
  558TIP3    H223166   5.467   5.037   3.265 -1.7306  0.8677 -1.2894
  559TIP3   OH223167   3.517   5.454   4.284 -0.1521 -0.8622 -0.2864
  559TIP3    H123168   3.480   5.415   4.204 -0.7846  0.0078 -0.4297
  559TIP3    H223169   3.473   5.408   4.355 -0.0537 -1.2023 -0.4427
  560TIP3   OH223170   5.668   1.310   0.864 -0.7833  0.1085  0.2748
  560TIP3    H123171   5.592   1.265   0.825 -0.5256 -0.2073  0.1311
  560TIP3    H223172   5.738   1.298   0.800 -0.4803 -0.0177  0.6251
  561TIP3   OH223173   0.299   6.629  13.292  0.4320 -0.5311 -0.2201
  561TIP3    H123174   0.388   6.604  13.318  0.7701  1.7047  1.0269
  561TIP3    H223175   0.243   6.592  13.360  0.6454 -0.1828  0.1526
  562TIP3   OH223176   6.309   1.929   3.965  0.4713  0.2541 -0.2610
  562TIP3    H123177   6.314   1.838   3.934  2.1678  0.7668 -1.6005
  562TIP3    H223178   6.341   1.924   4.056 -1.8660 -0.8207  0.5889
  563TIP3   OH223179   4.969   6.456   1.723  0.0008  0.4592 -0.4127
  563TIP3    H123180   5.038   6.482   1.662  0.9046  0.0618  0.4070
  563TIP3    H223181   4.938   6.371   1.690  0.4486  0.2716 -0.3670
  564TIP3   OH223182   1.927   3.242  13.778  0.3999 -0.3213 -0.3678
  564TIP3    H123183   1.867   3.249  13.852  0.7858  2.1062 -0.2018
  564TIP3    H223184   1.956   3.151  13.779  0.3063 -0.4070  2.4338
  565TIP3   OH223185   2.648   5.215   6.356 -0.1823  0.6803  0.5267
  565TIP3    H123186   2.702   5.153   6.405 -2.1180 -0.6021  1.1654
  565TIP3    H223187   2.627   5.284   6.420 -0.2087  0.5994  0.6058
  566TIP3   OH223188   4.279   4.489  15.301  0.5526  0.3876 -0.8091
  566TIP3    H123189   4.305   4.511  15.391 -2.2738 -1.6094  0.6282
  566TIP3    H223190   4.231   4.566  15.270 -2.3271 -0.4447  1.1792
  567TIP3   OH223191   0.164   2.442   5.391 -0.3108 -0.0491 -0.0839
  567TIP3    H123192   0.219   2.405   5.322 -3.1236 -1.6452 -1.6809
  567TIP3    H223193   0.130   2.523   5.355 -0.3353  0.0577  0.1766
  568TIP3   OH223194   1.642   6.279  14.821 -0.2547 -0.2089 -0.0525
  568TIP3    H123195   1.653   6.372  14.843  0.3846  0.0085 -1.1945
  568TIP3    H223196   1.649   6.234  14.905 -0.1794  0.7487  0.4745
  569TIP3   OH223197   3.870   4.681   1.426 -0.2208  0.5989 -1.4107
  569TIP3    H123198   3.959   4.699   1.396  0.2067  1.5689  0.2490
  569TIP3    H223199   3.860   4.586   1.420  1.9753  0.1237  0.9553
  570TIP3   OH223200   5.225   2.002  11.552 -0.5562  0.0419 -0.1466
  570TIP3    H123201   5.181   2.086  11.552  0.7696  0.7683 -0.3516
  570TIP3    H223202   5.286   2.007  11.626  0.1133 -0.4049 -0.6505
  571TIP3   OH223203   4.598   2.857  15.343  0.3785 -0.1344 -0.3847
  571TIP3    H123204   4.597   2.952  15.356 -0.8996  0.1018 -1.9166
  571TIP3    H223205   4.526   2.840  15.283  0.9637 -2.0197 -0.6276
  572TIP3   OH223206   6.039   3.745   2.046  0.3828 -0.4604 -0.0142
  572TIP3    H123207   6.098   3.672   2.027 -0.0201 -0.6609 -0.5224
  572TIP3    H223208   6.030   3.791   1.963 -1.7234 -1.5835 -0.4909
  573TIP3   OH223209   1.055   1.120   5.888  0.3371  0.4813 -0.2351
  573TIP3    H123210   1.052   1.146   5.980  0.6126 -0.3273  0.0062
  573TIP3    H223211   1.122   1.051   5.884 -1.7244 -1.6232 -0.4918
  574TIP3   OH223212   1.312   5.501  15.663 -0.8423  0.4141  0.4556
  574TIP3    H123213   1.360   5.537  15.737 -0.8826  0.9556  0.2205
  574TIP3    H223214   1.366   5.521  15.586 -0.9520  0.1300  0.3004
  575TIP3   OH223215   0.922   0.323  16.564 -0.0816  0.7927 -0.6013
  575TIP3    H123216   0.891   0.410  16.588 -2.1229 -0.3915  1.3703
  575TIP3    H223217   0.883   0.306  16.478 -1.0164  1.2197 -0.2708
  576TIP3   OH223218   2.232   1.158  12.300 -0.5178 -0.0577 -0.1071
  576TIP3    H123219   2.183   1.098  12.357  0.4971 -2.7323 -1.8623
  576TIP3    H223220   2.179   1.165  12.221  0.4387 -0.5450 -0.8174
  577TIP3   OH223221   5.716   2.592   6.297 -0.3156  0.1889  0.3033
  577TIP3    H123222   5.662   2.539   6.239  0.5865 -0.3012 -0.1061
  577TIP3    H223223   5.692   2.682   6.278 -0.2473  0.0162 -0.6211
  578TIP3   OH223224   1.271   3.355   3.739  0.2617 -0.5923  0.4543
  578TIP3    H123225   1.321   3.437   3.738 -0.7455  0.1072  2.0392
  578TIP3    H223226   1.205   3.369   3.808 -1.0115 -2.1085 -0.3977
  579TIP3   OH223227   5.701   6.282   2.179 -0.0701  0.9250  0.6211
  579TIP3    H123228   5.753   6.238   2.245  0.4395  0.4822 -0.0570
  579TIP3    H223229   5.763   6.300   2.108 -1.2249 -1.7687 -1.2570
  580TIP3   OH223230   5.492   5.494  12.951 -0.2640 -0.4045  0.3272
  580TIP3    H123231   5.524   5.444  13.026 -1.9027  0.4120  1.6404
  580TIP3    H223232   5.420   5.442  12.916 -0.1976 -0.2711 -0.0088
  581TIP3   OH223233   1.986   5.188  11.093  0.4873  0.0212  0.1437
  581TIP3    H123234   1.976   5.136  11.173  2.6374 -0.1628  0.3632
  581TIP3    H223235   2.071   5.160  11.057 -0.1674  0.4959 -1.9148
  582TIP3   OH223236   0.119   0.650   3.770 -0.3677  0.1933 -0.1894
  582TIP3    H123237   0.138   0.627   3.861 -0.4388 -1.7385 -0.6300
  582TIP3    H223238   0.188   0.608   3.720 -1.1542 -0.0029 -1.1382
  583TIP3   OH223239   6.608   6.052  12.461  0.6150 -0.1149  1.1280
  583TIP3    H123240   6.615   6.034  12.555  0.9541  2.2853  1.6314
  583TIP3    H223241   6.679   6.001  12.422  0.7504 -0.8100  2.2238
  584TIP3   OH223242   6.770   1.522  11.136 -0.3705 -0.8565 -0.1505
  584TIP3    H123243   6.783   1.472  11.056  2.8003  0.6554 -0.7234
  584TIP3    H223244   6.733   1.605  11.107  1.6202  0.0464 -0.2641
  585TIP3   OH223245   2.170   2.787   1.544  0.4741 -0.0456 -0.0823
  585TIP3    H123246   2.236   2.748   1.486  0.1128 -0.8957  0.0501
  585TIP3    H223247   2.145   2.868   1.502  1.6142  0.2979 -0.1276
  586TIP3   OH223248   3.672   5.884  14.648 -0.6818  0.5650 -0.0731
  586TIP3    H123249   3.746   5.895  14.588  1.7210 -1.8053  2.2226
  586TIP3    H223250   3.671   5.963  14.701 -1.0625  1.4319 -1.3189
  587TIP3   OH223251   5.403   1.660  15.977  0.2111 -0.4639 -0.4708
  587TIP3    H123252   5.311   1.633  15.969 -0.0466  0.4117 -0.6266
  587TIP3    H223253   5.442   1.636  15.893 -0.8481  2.6136 -1.9967
  588TIP3   OH223254   3.718   4.069  10.717  0.4940 -0.2367  0.4623
  588TIP3    H123255   3.647   4.089  10.656  1.0118 -0.7360 -0.3244
  588TIP3    H223256   3.769   4.151  10.722  0.7081 -0.3287 -0.1386
  589TIP3   OH223257   4.258   0.853  14.976  0.3160 -0.7577  0.3086
  589TIP3    H123258   4.195   0.924  14.985  1.7117  0.3889  1.5668
  589TIP3    H223259   4.245   0.820  14.887  1.9152  3.4098 -1.7299
  590TIP3   OH223260   0.661   1.543  10.459 -0.1509  0.1347  0.2541
  590TIP3    H123261   0.608   1.559  10.381  1.8517  1.5125 -0.9299
  590TIP3    H223262   0.602   1.498  10.520 -2.1680  0.2005 -1.5346
  591TIP3   OH223263   4.477   2.049  12.655 -0.1447  0.2407 -0.2820
  591TIP3    H123264   4.501   2.136  12.623  0.8643  0.5327  1.1540
  591TIP3    H223265   4.508   1.989  12.587 -1.2182  0.9932 -1.4793
  592TIP3   OH223266   6.762   6.071  12.118  1.0461 -0.0481 -0.0025
  592TIP3    H123267   6.753   6.009  12.191  0.7430  0.4970  0.4290
  592TIP3    H223268   6.806   6.147  12.157  2.0130 -0.2348 -0.6769
  593TIP3   OH223269   0.950   0.228   0.100  0.2809 -0.1530  0.1206
  593TIP3    H123270   1.004   0.153   0.127 -0.6909 -0.3474  1.6726
  593TIP3    H223271   0.923   0.207   0.010  4.1475  0.7992 -1.4419
  594TIP3   OH223272   4.445   6.573   3.095 -0.3617  0.7186 -0.0050
  594TIP3    H123273   4.388   6.523   3.037  0.9894  1.7673 -2.4167
  594TIP3    H223274   4.390   6.644   3.129 -1.3094 -0.2044  0.4199
  595TIP3   OH223275   5.119   1.940  16.856 -0.7587  0.1413 -0.3181
  595TIP3    H123276   5.065   1.970  16.782 -0.7102 -0.7532 -0.7232
  595TIP3    H223277   5.059   1.940  16.930 -0.6704  1.5955 -0.2128
  596TIP3   OH223278   2.313   3.549   1.304  0.0576 -0.1253  0.1744
  596TIP3    H123279   2.349   3.470   1.345  2.1128  0.3572 -0.5757
  596TIP3    H223280   2.282   3.518   1.218  1.2308 -0.0894 -0.2854
  597TIP3   OH223281   1.338   0.041  16.922 -0.0424 -0.3869  0.6179
  597TIP3    H123282   1.296   0.126  16.907 -0.6373 -0.7472  0.2012
  597TIP3    H223283   1.350   0.004  16.835 -0.7665 -1.1894  0.8441
  598TIP3   OH223284   0.432   2.222   3.257 -0.0922  0.2293  0.4963
  598TIP3    H123285   0.419   2.191   3.346 -0.3281 -0.5661  0.1944
  598TIP3    H223286   0.396   2.153   3.202  0.9138  0.2647 -0.2450
  599TIP3   OH223287   5.520   1.967   5.787 -0.7152 -0.0908 -0.2997
  599TIP3    H123288   5.498   2.015   5.708 -1.9292 -0.5457 -0.2544
  599TIP3    H223289   5.462   2.001   5.854  0.6725  0.6726  0.5643
  600TIP3   OH223290   3.092   4.501   2.767  0.3326  0.0828  0.0927
  600TIP3    H123291   3.110   4.410   2.790 -0.2431 -0.0120  0.1813
  600TIP3    H223292   3.175   4.534   2.733  1.1683  0.1657  2.0897
  601TIP3   OH223293   4.507   6.392   3.314  0.0929  0.5365 -0.3679
  601TIP3    H123294   4.582   6.334   3.299  0.8532  1.5363 -0.6144
  601TIP3    H223295   4.506   6.450   3.238  0.4753  1.9785  0.6672
  602TIP3   OH223296   6.304   3.401  15.107  0.2400  0.2050 -0.0287
  602TIP3    H123297   6.354   3.356  15.175  1.5850 -0.7885 -1.5880
  602TIP3    H223298   6.239   3.453  15.155  1.6089  0.1533  2.0197
  603TIP3   OH223299   2.276   1.750  16.726  0.3397  0.3408  0.2491
  603TIP3    H123300   2.235   1.687  16.668  2.5649 -0.2970 -0.7343
  603TIP3    H223301   2.214   1.823  16.731 -1.9507 -1.5356  0.8154
  604TIP3   OH223302   3.150   0.307   1.864 -0.3535  0.2112  0.2099
  604TIP3    H123303   3.176   0.394   1.834 -0.2571  0.0399 -0.2100
  604TIP3    H223304   3.109   0.322   1.949 -0.1764  0.6464  0.2199
  605TIP3   OH223305   1.385   3.188  14.905  0.0683 -0.3783 -0.2418
  605TIP3    H123306   1.463   3.243  14.901 -0.2918  0.1899  0.3639
  605TIP3    H223307   1.312   3.250  14.905 -0.4663 -0.9346 -2.2706
  606TIP3   OH223308   5.233   2.076   3.699  0.8611 -0.3287  0.1210
  606TIP3    H123309   5.309   2.133   3.712  1.5551 -1.5521  1.9022
  606TIP3    H223310   5.264   2.009   3.638  0.7518 -0.0359 -0.2581
  607TIP3   OH223311   6.558   0.895  16.653  0.6135  0.0875 -0.2263
  607TIP3    H123312   6.640   0.945  16.649  1.1237 -0.7417 -0.4436
  607TIP3    H223313   6.542   0.884  16.747  1.1006 -0.2930 -0.1841
  608TIP3   OH223314   1.492   0.307  12.943  0.2807  0.4827  0.1204
  608TIP3    H123315   1.502   0.358  12.862 -0.5375  0.8300  0.2328
  608TIP3    H223316   1.413   0.256  12.929  1.5291 -1.4564 -0.3446
  609TIP3   OH223317   3.338   4.179  13.894  0.0255 -0.1558 -0.2994
  609TIP3    H123318   3.396   4.247  13.928 -1.0041  0.6179 -0.0569
  609TIP3    H223319   3.321   4.205  13.803 -0.3816 -0.0804 -0.2016
  610TIP3   OH223320   4.580   3.764  13.334  0.1583 -0.2537 -0.2154
  610TIP3    H123321   4.585   3.699  13.404 -0.2874 -1.4551 -1.2775
  610TIP3    H223322   4.606   3.846  13.377  1.7038 -1.2749  0.9150
  611TIP3   OH223323   3.287   5.014   4.263  0.8652  0.2013 -0.3437
  611TIP3    H123324   3.205   5.039   4.305  1.5514  1.9151  0.0632
  611TIP3    H223325   3.355   5.036   4.326  1.6522 -1.9802 -0.3170
  612TIP3   OH223326   5.574   6.460   0.189  0.6872  0.1327  0.5238
  612TIP3    H123327   5.544   6.517   0.259  1.0738 -0.3042  1.0588
  612TIP3    H223328   5.599   6.379   0.234 -1.1713 -1.0010 -0.3502
  613TIP3   OH223329   1.498   4.048  15.392  0.4145 -0.0034 -0.6057
  613TIP3    H123330   1.498   4.125  15.449  1.6940 -2.4874  3.1438
  613TIP3    H223331   1.524   4.082  15.306 -1.3044  3.9976  0.2053
  614TIP3   OH223332   2.486   4.035   4.775  0.5619 -0.6049 -0.3728
  614TIP3    H123333   2.505   4.071   4.861 -2.6031  2.4622 -0.7306
  614TIP3    H223334   2.408   3.981   4.788  0.1025 -0.1771 -1.2481
  615TIP3   OH223335   1.927   0.143   0.044 -0.0609  0.6599 -0.3173
  615TIP3    H123336   1.983   0.119   0.118  0.8945  0.2614 -1.1412
  615TIP3    H223337   1.859   0.199   0.082 -0.1854 -0.3596  1.0166
  616TIP3   OH223338   6.361   1.488   2.298  0.1153  0.0477 -0.0354
  616TIP3    H123339   6.401   1.442   2.224  0.3052 -2.1392  1.3301
  616TIP3    H223340   6.420   1.473   2.371 -0.7623  0.9781  0.9001
  617TIP3   OH223341   0.485   3.104   5.561 -0.0359  0.4962  0.2108
  617TIP3    H123342   0.474   3.013   5.586 -0.8451  0.3522 -0.6420
  617TIP3    H223343   0.398   3.142   5.566 -0.6033  0.0967 -3.6464
  618TIP3   OH223344   0.266   1.017  10.413  0.4689 -0.0111  0.7153
  618TIP3    H123345   0.289   0.930  10.380 -0.1306  0.1283 -0.1215
  618TIP3    H223346   0.325   1.076  10.367 -0.9385  0.2684 -0.8203
  619TIP3   OH223347   4.623   1.909   6.532 -0.1096  0.0183  0.5357
  619TIP3    H123348   4.689   1.868   6.476 -0.1070 -0.1652  0.6750
  619TIP3    H223349   4.587   1.838   6.584  1.2682  0.4842  2.1872
  620TIP3   OH223350   0.174   3.553  15.962  0.4274 -0.1023 -0.3634
  620TIP3    H123351   0.183   3.539  16.056  0.7915 -0.6446 -0.4752
  620TIP3    H223352   0.225   3.632  15.944 -0.5467  0.6376  0.0643
  621TIP3   OH223353   3.562   0.668   6.366  0.4943  0.1789  0.2737
  621TIP3    H123354   3.599   0.725   6.433  1.7644  0.1566 -0.3721
  621TIP3    H223355   3.489   0.718   6.329 -1.5919 -0.6207  3.0014
  622TIP3   OH223356   3.961   3.185  15.381 -0.1856 -0.3073  0.1249
  622TIP3    H123357   3.949   3.216  15.291 -1.7784  0.2451  0.5022
  622TIP3    H223358   4.022   3.112  15.373 -0.8653 -0.7458 -1.4984
  623TIP3   OH223359   1.290   0.819  15.155 -0.0085 -0.4824 -0.2787
  623TIP3    H123360   1.337   0.737  15.145 -0.4807 -0.9090  0.8438
  623TIP3    H223361   1.233   0.824  15.078  1.9063  0.1087 -1.7374
  624TIP3   OH223362   5.326   0.889  13.418  0.1726  0.2738 -0.6890
  624TIP3    H123363   5.346   0.910  13.327  0.3127  1.2390 -0.4482
  624TIP3    H223364   5.237   0.853  13.415  0.5987 -0.7422 -1.3337
  625TIP3   OH223365   2.537   6.739  13.364 -0.3963  0.0337 -0.4265
  625TIP3    H123366   2.488   6.721  13.444  0.9284 -1.4790  0.1092
  625TIP3    H223367   2.624   6.766  13.395 -0.4509  1.4234 -1.3635
  626TIP3   OH223368   6.162   4.613   5.402  0.3771 -0.1836  0.1760
  626TIP3    H123369   6.106   4.690   5.394  0.7739  0.0075 -0.9220
  626TIP3    H223370   6.107   4.549   5.447 -0.8180 -0.0702 -1.0262
  627TIP3   OH223371   1.900   6.223   1.474 -0.3193 -1.0363  0.4010
  627TIP3    H123372   1.958   6.299   1.471 -0.1440 -1.1469  0.8879
  627TIP3    H223373   1.912   6.187   1.562 -2.7735  0.2157  1.3382
  628TIP3   OH223374   5.848   0.223   4.976  0.1565 -0.6694 -0.4538
  628TIP3    H123375   5.793   0.268   5.040  0.4774  1.6644 -1.7307
  628TIP3    H223376   5.803   0.235   4.893  0.7988 -1.8794 -1.0063
  629TIP3   OH223377   2.900   1.930   5.311 -0.0692  0.4222  0.0612
  629TIP3    H123378   2.830   1.951   5.373 -1.4657 -4.6581  0.6969
  629TIP3    H223379   2.980   1.933   5.363 -0.4926  1.3562  0.6793
  630TIP3   OH223380   0.283   3.318   3.333 -0.1620  0.5375  0.0258
  630TIP3    H123381   0.322   3.274   3.408  1.6769 -0.0385 -1.1960
  630TIP3    H223382   0.241   3.247   3.283  0.1274  0.6489 -0.3746
  631TIP3   OH223383   2.926   2.438   0.232  0.1279  0.6853 -0.7558
  631TIP3    H123384   2.959   2.523   0.201  1.5944  0.1845 -0.6544
  631TIP3    H223385   3.002   2.380   0.226 -0.3245 -0.1478  1.0262
  632TIP3   OH223386   4.905   3.943   1.856  0.7764  0.2980 -0.2292
  632TIP3    H123387   4.985   3.898   1.884  0.6489  0.8317  1.0567
  632TIP3    H223388   4.876   3.894   1.779  0.6808 -1.7741  1.0583
  633TIP3   OH223389   4.455   0.934  11.718 -0.1593 -0.0186 -0.0861
  633TIP3    H123390   4.437   0.846  11.685 -0.1558 -0.0357 -0.0424
  633TIP3    H223391   4.373   0.982  11.704 -0.1596 -0.0271 -0.1138
  634TIP3   OH223392   1.980   3.626   4.095  0.3543  0.1397 -0.0915
  634TIP3    H123393   2.024   3.682   4.030 -0.1433  0.6934  0.0438
  634TIP3    H223394   2.010   3.660   4.179  0.6557 -0.2988 -0.0182
  635TIP3   OH223395   3.790   6.134   4.658  0.0686 -0.0515 -0.2257
  635TIP3    H123396   3.761   6.095   4.740 -0.6860 -0.0864 -0.5025
  635TIP3    H223397   3.873   6.178   4.680 -0.1950  0.0567  0.5730
  636TIP3   OH223398   4.134   2.097   1.221  0.2040 -0.7639  0.6124
  636TIP3    H123399   4.140   2.156   1.296  0.4494  0.7477 -0.5520
  636TIP3    H223400   4.223   2.062   1.212  0.6579  0.4679 -0.0342
  637TIP3   OH223401   6.559   1.201   5.785 -0.2908  0.0616 -0.4633
  637TIP3    H123402   6.512   1.226   5.864  0.1491  1.8970 -0.7517
  637TIP3    H223403   6.632   1.147   5.817  0.1407  1.1436  0.4422
  638TIP3   OH223404   4.730   1.356  16.945 -0.0628 -0.2267  0.0274
  638TIP3    H123405   4.645   1.315  16.965 -1.3818  1.5762 -1.4597
  638TIP3    H223406   4.784   1.337  17.021 -1.1496 -3.0728  0.2256
  639TIP3   OH223407   2.400   4.672   1.479  0.6965  0.1865  0.0399
  639TIP3    H123408   2.363   4.720   1.405  0.5903 -0.0718 -0.0745
  639TIP3    H223409   2.334   4.606   1.500  0.5115  0.5569  0.6647
  640TIP3   OH223410   1.725   5.564   1.836 -0.1473 -0.1191 -0.5362
  640TIP3    H123411   1.781   5.583   1.911 -0.6554  1.1518 -0.4660
  640TIP3    H223412   1.724   5.468   1.832 -0.1275 -0.2248  1.0842
  641TIP3   OH223413   5.676   0.989  16.230 -0.9093 -0.0322 -0.6438
  641TIP3    H123414   5.617   0.972  16.157  1.7783  0.6378 -3.1714
  641TIP3    H223415   5.746   1.043  16.192  1.6004 -1.2012  1.9446
  642TIP3   OH223416   5.200   2.047   4.318 -0.3396  0.4155 -0.7758
  642TIP3    H123417   5.163   1.973   4.367  1.2866  0.3833  0.4765
  642TIP3    H223418   5.290   2.055   4.350 -0.0292  2.0491 -1.9196
  643TIP3   OH223419   1.676   2.535   3.603  0.3049 -0.3612 -0.0413
  643TIP3    H123420   1.684   2.463   3.666  2.8367 -0.1419 -0.0362
  643TIP3    H223421   1.622   2.600   3.648 -1.5042 -1.9334  0.1903
  644TIP3   OH223422   6.852   5.712  14.003  0.4700  0.3573  0.1676
  644TIP3    H123423   6.877   5.656  14.077  0.8911  1.7147  1.0928
  644TIP3    H223424   6.886   5.798  14.026 -3.0471  1.8487  0.4574
  645TIP3   OH223425   0.921   4.366  11.161  0.6867  0.4869 -0.4771
  645TIP3    H123426   0.997   4.411  11.124  2.8161 -1.3969  1.2910
  645TIP3    H223427   0.916   4.397  11.251 -0.9781  0.9131 -0.6841
  646TIP3   OH223428   3.062   4.148   4.518  0.0704 -0.3825 -0.3216
  646TIP3    H123429   3.149   4.112   4.499  1.0767  2.6048 -1.9491
  646TIP3    H223430   3.005   4.109   4.451  0.8132 -0.0534 -1.1612
  647TIP3   OH223431   2.793   1.003   3.448  0.2050  0.9831 -0.3084
  647TIP3    H123432   2.781   1.016   3.542 -0.8145  0.2414 -0.3215
  647TIP3    H223433   2.870   0.946   3.441 -1.0415 -0.8533  0.2193
  648TIP3   OH223434   2.079   3.612  11.150 -0.0567  0.4658  0.1649
  648TIP3    H123435   2.138   3.557  11.099 -0.4591 -0.6747  0.8928
  648TIP3    H223436   2.008   3.553  11.176 -1.8793  1.9075 -1.1898
  649TIP3   OH223437   3.834   0.055   4.093 -0.3902 -0.7960  0.0556
  649TIP3    H123438   3.760   0.011   4.135 -1.0041 -0.2965 -0.4865
  649TIP3    H223439   3.854  -0.000   4.017 -1.5771  0.1476 -0.9962
  650TIP3   OH223440   4.713   4.697  13.261 -0.1679 -0.1576  0.3986
  650TIP3    H123441   4.673   4.655  13.186 -0.4882  0.5480  0.1662
  650TIP3    H223442   4.670   4.783  13.267  1.1551  0.5499  0.2429
  651TIP3   OH223443   1.784   0.670  11.384  0.3231  0.5926 -0.5751
  651TIP3    H123444   1.793   0.611  11.458 -1.0942  0.6647 -0.3191
  651TIP3    H223445   1.790   0.614  11.307 -3.3329 -0.4007 -0.3463
  652TIP3   OH223446   6.601   6.415  16.830  0.1068  0.6974  0.0497
  652TIP3    H123447   6.568   6.374  16.750  0.6060 -0.0234  0.1914
  652TIP3    H223448   6.594   6.509  16.814 -1.0104  0.5694 -0.3213
  653TIP3   OH223449   3.432   2.877   1.262  0.4450  0.5812  0.1278
  653TIP3    H123450   3.454   2.829   1.343 -0.1762  0.2885  0.1243
  653TIP3    H223451   3.400   2.961   1.293  0.4718  0.5743  0.1760
  654TIP3   OH223452   5.297   1.990   2.513 -0.3444 -0.1241 -0.2497
  654TIP3    H123453   5.240   1.938   2.570  0.6216 -0.1559  0.7267
  654TIP3    H223454   5.362   1.927   2.481  0.7695  0.4164  0.8524
  655TIP3   OH223455   1.548   6.566   3.863  0.5734 -0.5935  0.1827
  655TIP3    H123456   1.613   6.628   3.831  1.1505 -0.7041  1.1180
  655TIP3    H223457   1.511   6.527   3.783 -0.0017  1.1380 -0.4343
  656TIP3   OH223458   4.842   2.439   0.861  0.1239 -0.6946  0.1696
  656TIP3    H123459   4.914   2.496   0.835 -0.4170 -0.5776 -1.1688
  656TIP3    H223460   4.871   2.398   0.942  2.0018 -1.2180 -0.7175
  657TIP3   OH223461   5.816   2.059  12.536 -0.4890 -0.3383  0.7465
  657TIP3    H123462   5.859   2.074  12.620 -0.8123  1.7680  0.5817
  657TIP3    H223463   5.879   2.090  12.471 -1.4406  0.9392  0.4010
  658TIP3   OH223464   4.772   3.052   3.802  0.0436  0.3818 -0.4919
  658TIP3    H123465   4.710   3.025   3.734 -1.5347  0.5109  0.8175
  658TIP3    H223466   4.731   3.130   3.842  1.3413  0.8189  0.0461
  659TIP3   OH223467   2.957   5.886   5.976  0.7016  0.1152  0.3341
  659TIP3    H123468   3.000   5.822   5.919 -0.4671 -0.0300 -0.4194
  659TIP3    H223469   2.990   5.866   6.064 -1.3148 -3.1142  0.5286
  660TIP3   OH223470   0.452   1.579  11.650 -0.2898 -0.0205  0.3177
  660TIP3    H123471   0.480   1.507  11.593 -1.2910 -0.7007  0.6690
  660TIP3    H223472   0.398   1.537  11.717  0.7000  0.7854  1.6683
  661TIP3   OH223473   6.154   6.224  15.014  0.3944  0.0969  0.0192
  661TIP3    H123474   6.133   6.242  14.923  0.8498 -2.4239 -0.6540
  661TIP3    H223475   6.174   6.310  15.052  0.6796  1.1390 -2.3539
  662TIP3   OH223476   1.234   6.054   5.742 -0.7460 -0.2234  0.3772
  662TIP3    H123477   1.315   6.073   5.695 -1.1301 -0.4020 -0.3753
  662TIP3    H223478   1.194   5.982   5.693  1.4236 -4.3869  3.9849
  663TIP3   OH223479   5.033   0.048   1.975  0.3928 -0.3179  0.2112
  663TIP3    H123480   5.080   0.131   1.979  2.4148 -1.3718 -0.3523
  663TIP3    H223481   5.079  -0.003   1.908 -0.1402 -2.2518  1.2357
  664TIP3   OH223482   0.184   0.488   5.291  0.3166 -0.0179 -0.2975
  664TIP3    H123483   0.237   0.475   5.369  0.6241  0.2094 -0.4661
  664TIP3    H223484   0.215   0.421   5.230  1.4141  1.0128 -0.9132
  665TIP3   OH223485   1.760   4.279  15.360 -0.3912 -0.0039  0.1098
  665TIP3    H123486   1.726   4.262  15.448 -2.1216  1.0302 -0.3240
  665TIP3    H223487   1.782   4.372  15.361 -2.2159  0.4931 -1.0768
  666TIP3   OH223488   4.820   2.691  15.419 -0.3194  0.1942  0.5208
  666TIP3    H123489   4.758   2.690  15.491 -1.6380 -3.3166 -0.4515
  666TIP3    H223490   4.775   2.739  15.349  0.0325  1.6210  1.2363
  667TIP3   OH223491   6.603   1.484   0.982 -0.3922  0.0776  0.1725
  667TIP3    H123492   6.556   1.413   1.026  0.5961 -0.7070 -0.0039
  667TIP3    H223493   6.689   1.485   1.023  0.2921 -0.1616 -1.1854
  668TIP3   OH223494   0.425   6.756  13.955  0.7315 -0.1825  0.9255
  668TIP3    H123495   0.511   6.791  13.978  0.9137 -0.4369  0.6317
  668TIP3    H223496   0.365   6.797  14.018  0.7434  1.6291 -0.1723
  669TIP3   OH223497   1.036   2.765  14.250  0.1148 -0.0341  0.1934
  669TIP3    H123498   0.962   2.747  14.309  1.4607  2.0834  2.7209
  669TIP3    H223499   1.014   2.848  14.209  1.1351  0.7164  1.1231
  670TIP3   OH223500   4.915   1.981  16.640 -0.2612 -0.0323  0.4538
  670TIP3    H123501   4.899   1.890  16.662 -1.3721  0.5294  2.1511
  670TIP3    H223502   4.877   1.993  16.553  1.0116 -1.4499 -0.3475
  671TIP3   OH223503   5.505   4.345   3.735  0.2546  0.6056 -0.0634
  671TIP3    H123504   5.548   4.282   3.677 -0.3111 -0.3088  0.4643
  671TIP3    H223505   5.559   4.424   3.731  0.4973  0.3947 -1.4384
  672TIP3   OH223506   0.090   3.189  13.338  0.1921 -0.2744  0.6375
  672TIP3    H123507   0.179   3.212  13.363  1.2237 -2.3888 -0.7643
  672TIP3    H223508   0.053   3.146  13.415  0.5866  0.0976  1.0392
  673TIP3   OH223509   3.866   0.594  16.632  0.1033 -0.4712 -0.3086
  673TIP3    H123510   3.886   0.551  16.715  0.7366  1.2328  0.4692
  673TIP3    H223511   3.829   0.678  16.658  0.1291  0.0084 -1.7752
  674TIP3   OH223512   2.461   4.212   2.034  0.5825 -0.0243 -0.0448
  674TIP3    H123513   2.483   4.305   2.036  1.1342 -0.1628  2.1219
  674TIP3    H223514   2.544   4.167   2.044  0.2000 -0.7357  0.0125
  675TIP3   OH223515   0.267   3.525   5.465 -0.0085  0.0293 -0.6031
  675TIP3    H123516   0.206   3.582   5.419 -0.3601 -0.5212 -0.8318
  675TIP3    H223517   0.324   3.585   5.514 -1.7464  0.5299  0.9258
  676TIP3   OH223518   3.287   1.258  12.043  1.0048  0.1392  0.0580
  676TIP3    H123519   3.298   1.304  12.126  0.6706  0.6105 -0.1543
  676TIP3    H223520   3.285   1.327  11.977  3.9510 -0.3625 -0.6719
  677TIP3   OH223521   6.677   2.346   0.589 -0.8897  0.2331 -0.1827
  677TIP3    H123522   6.739   2.401   0.637 -2.0005  1.0061  0.4175
  677TIP3    H223523   6.622   2.307   0.657 -1.3429 -0.0868 -0.7215
  678TIP3   OH223524   3.608   6.091   5.540 -0.7584 -0.5236 -0.4440
  678TIP3    H123525   3.693   6.057   5.514 -0.4353 -0.4383  0.4749
  678TIP3    H223526   3.553   6.013   5.551 -0.6093 -0.6150 -0.3572
  679TIP3   OH223527   2.623   1.768   1.343 -0.3728 -0.7874  0.1031
  679TIP3    H123528   2.572   1.785   1.263  0.1945  0.1797 -0.0613
  679TIP3    H223529   2.714   1.774   1.315 -0.1337  1.4853  1.1931
  680TIP3   OH223530   0.851   6.336  11.092  0.2469 -0.3391  0.0790
  680TIP3    H123531   0.837   6.308  11.002  0.2617  0.9487 -0.3440
  680TIP3    H223532   0.763   6.357  11.125  0.1178 -1.8007  0.7233
  681TIP3   OH223533   3.424   2.164  15.682  0.0097 -0.0361  0.3329
  681TIP3    H123534   3.456   2.137  15.768  1.8051  0.0007 -0.2708
  681TIP3    H223535   3.478   2.239  15.659  0.4389 -0.8113 -1.3488
  682TIP3   OH223536   3.602   5.339   5.223 -0.0864  0.4641  0.5843
  682TIP3    H123537   3.634   5.395   5.294  0.7143 -0.6297  1.1138
  682TIP3    H223538   3.644   5.254   5.239 -0.2748  0.0656 -0.9259
  683TIP3   OH223539   6.711   0.304   2.398  0.0201  0.2708 -0.6481
  683TIP3    H123540   6.685   0.326   2.487  0.8815  1.0146 -0.5733
  683TIP3    H223541   6.801   0.273   2.406  0.4385  1.2504 -1.3716
  684TIP3   OH223542   3.721   4.416  14.716 -0.3591 -0.3527 -0.2945
  684TIP3    H123543   3.801   4.437  14.764 -1.7799 -0.7394  2.4021
  684TIP3    H223544   3.706   4.493  14.660  1.3090  0.1842 -0.0419
  685TIP3   OH223545   0.670   5.251   1.522  0.5581  0.1612  0.3458
  685TIP3    H123546   0.723   5.299   1.586  1.5171 -0.4044 -0.0170
  685TIP3    H223547   0.681   5.298   1.440  0.4067  0.1027  0.2897
  686TIP3   OH223548   4.785   5.942   5.420  0.7699 -0.0574 -0.2327
  686TIP3    H123549   4.858   5.898   5.377  1.2124  0.1065  0.3305
  686TIP3    H223550   4.765   6.016   5.363  1.2580  0.0771 -0.2381
  687TIP3   OH223551   3.285   3.088  15.982 -0.4972 -0.1878 -0.0370
  687TIP3    H123552   3.198   3.127  15.973 -1.2813 -1.8974 -0.2088
  687TIP3    H223553   3.298   3.079  16.076 -0.7850 -0.5076 -0.0256
  688TIP3   OH223554   5.330   3.484   1.303 -0.5130  0.2613 -0.0390
  688TIP3    H123555   5.309   3.576   1.319 -0.3298 -0.0233  2.1564
  688TIP3    H223556   5.260   3.435   1.347 -0.5196 -0.6626 -1.0426
  689TIP3   OH223557   4.054   4.252  11.845  0.5793  0.6745  0.3257
  689TIP3    H123558   4.083   4.316  11.909 -0.2177 -0.0378  1.4426
  689TIP3    H223559   4.017   4.304  11.773  0.9585  1.4767  0.7030
  690TIP3   OH223560   5.810   1.919   0.103 -0.3323 -0.4445 -0.1952
  690TIP3    H123561   5.787   1.836   0.143  0.2900 -0.2273  0.6266
  690TIP3    H223562   5.840   1.895   0.015 -1.2317 -0.9654 -0.3760
  691TIP3   OH223563   1.117   4.251  15.708 -0.2025 -0.0449 -0.1162
  691TIP3    H123564   1.208   4.221  15.710 -0.2109 -0.0572  0.6296
  691TIP3    H223565   1.122   4.344  15.686 -0.0741 -0.2471 -0.9605
  692TIP3   OH223566   1.870   0.217   4.174  0.3408 -0.0786  0.1961
  692TIP3    H123567   1.957   0.256   4.168 -0.6573  2.6458  1.4206
  692TIP3    H223568   1.820   0.258   4.103 -0.0016 -1.5802 -0.4693
  693TIP3   OH223569   6.710   5.062  12.455 -0.1316  0.4304  0.2389
  693TIP3    H123570   6.626   5.037  12.492  0.4100 -0.0057  1.2230
  693TIP3    H223571   6.727   5.150  12.489 -1.2977  1.5655 -1.9382
  694TIP3   OH223572   2.321   5.908   3.357  0.1341  0.1302  0.2874
  694TIP3    H123573   2.380   5.970   3.401  1.0740 -0.0503 -0.6673
  694TIP3    H223574   2.271   5.962   3.296  2.3222 -0.2258 -1.9707
  695TIP3   OH223575   4.854   0.443  12.726 -0.7499 -0.2468 -0.4071
  695TIP3    H123576   4.809   0.526  12.737  1.2195  0.9082 -0.6505
  695TIP3    H223577   4.917   0.459  12.656 -0.9497 -2.2424 -1.1215
  696TIP3   OH223578   1.131   4.176  12.548 -0.0867 -0.2775  0.3885
  696TIP3    H123579   1.183   4.124  12.609  0.8357 -0.1362 -0.2395
  696TIP3    H223580   1.143   4.132  12.464  0.1638  0.5493 -0.0244
  697TIP3   OH223581   1.868   2.899   2.740 -0.7383 -0.4699  0.0803
  697TIP3    H123582   1.879   2.896   2.645 -0.3731  0.2607  0.0950
  697TIP3    H223583   1.930   2.834   2.774  0.1087  0.2075 -0.1170
  698TIP3   OH223584   4.663   6.477  10.425  0.4131  0.0810  0.2276
  698TIP3    H123585   4.736   6.439  10.377  1.3102  0.0154  1.5955
  698TIP3    H223586   4.685   6.570  10.431 -0.4356  0.3716 -0.7375
  699TIP3   OH223587   5.239   4.333  16.230  0.8714 -0.3886 -0.5662
  699TIP3    H123588   5.326   4.354  16.263  0.5995  0.8417 -0.5766
  699TIP3    H223589   5.237   4.369  16.142  0.0870  0.3421 -0.2669
  700TIP3   OH223590   5.838   1.719   3.148 -0.3319 -0.4222 -0.0234
  700TIP3    H123591   5.764   1.659   3.148 -0.2006 -0.6018 -1.0931
  700TIP3    H223592   5.895   1.688   3.077 -0.1923  0.8770 -0.5142
  701TIP3   OH223593   5.619   0.163   3.539 -0.1101  0.7179 -0.2503
  701TIP3    H123594   5.605   0.188   3.448  0.7038 -2.7896 -1.4837
  701TIP3    H223595   5.713   0.175   3.553 -0.1226  0.6258 -0.0835
  702TIP3   OH223596   2.542   6.355   4.588 -0.7497 -0.1304 -0.1599
  702TIP3    H123597   2.589   6.276   4.561 -0.2842  0.5891 -1.5319
  702TIP3    H223598   2.577   6.424   4.532 -2.0524  0.8108  0.1493
  703TIP3   OH223599   1.239   5.570   3.939  0.2006 -0.5617  0.6990
  703TIP3    H123600   1.257   5.551   3.847  1.3312 -0.6668  0.9295
  703TIP3    H223601   1.214   5.486   3.976  0.7607 -0.7235  0.7142
  704TIP3   OH223602   3.438   4.744   3.964  0.2574 -0.3009 -0.2848
  704TIP3    H123603   3.468   4.828   3.929  0.6098 -0.0953  0.5039
  704TIP3    H223604   3.433   4.757   4.058  0.3191 -1.1681 -0.1543
  705TIP3   OH223605   4.115   3.977  12.215 -0.7520  0.3240 -0.2209
  705TIP3    H123606   4.093   3.884  12.220 -1.3935  0.4268 -1.0224
  705TIP3    H223607   4.162   3.987  12.132 -0.2008  0.6249  0.1171
  706TIP3   OH223608   5.156   5.697   0.326  0.2529 -0.3968  0.6282
  706TIP3    H123609   5.192   5.769   0.273  0.8475 -1.4607 -0.4568
  706TIP3    H223610   5.161   5.729   0.416  2.7457  0.0182  0.4116
  707TIP3   OH223611   3.861   4.080   2.761 -0.0603  0.2011 -0.6081
  707TIP3    H123612   3.951   4.056   2.738 -0.6990 -0.0993 -3.1363
  707TIP3    H223613   3.810   4.001   2.744 -1.3005  1.4051 -3.0732
  708TIP3   OH223614   4.901   0.591   3.979 -0.1562  0.3237 -0.4899
  708TIP3    H123615   4.973   0.534   4.004 -0.6589 -0.2237 -0.2630
  708TIP3    H223616   4.823   0.536   3.989 -0.6846  1.1500  0.0768
  709TIP3   OH223617   6.227   5.917   6.146 -0.2043 -0.0733  0.1049
  709TIP3    H123618   6.239   5.866   6.226 -0.4122  0.5561  0.5405
  709TIP3    H223619   6.163   5.984   6.169  0.5664  0.8095 -0.2629
  710TIP3   OH223620   0.599   4.832   4.472  0.2701  0.0261  0.2948
  710TIP3    H123621   0.683   4.808   4.432  0.4138  1.1559 -0.1140
  710TIP3    H223622   0.599   4.787   4.556  1.8956  1.0588  0.9085
  711TIP3   OH223623   0.186   1.251  12.120  0.6170 -0.2342 -0.2249
  711TIP3    H123624   0.120   1.228  12.055 -0.0033  1.1793 -0.1358
  711TIP3    H223625   0.188   1.347  12.119 -0.2311 -0.1002  2.6421
  712TIP3   OH223626   4.544   4.026   2.743  0.1750 -0.2361 -0.0863
  712TIP3    H123627   4.556   4.065   2.657 -0.5654  1.5924  0.5824
  712TIP3    H223628   4.630   3.992   2.767  0.9699  1.3759 -0.5610
  713TIP3   OH223629   1.304   5.733   0.933  0.0080  0.4420  0.1589
  713TIP3    H123630   1.315   5.701   1.023  3.3820 -2.6946 -1.1317
  713TIP3    H223631   1.296   5.654   0.880  0.1687  2.1106 -2.5343
  714TIP3   OH223632   4.548   1.106   0.265 -0.1186  0.4047 -0.5728
  714TIP3    H123633   4.537   1.198   0.292 -1.1924 -0.0186  0.5616
  714TIP3    H223634   4.551   1.058   0.348  1.2284 -0.5233 -1.1369
  715TIP3   OH223635   1.678   4.958   4.651  0.8923 -0.5913  0.5302
  715TIP3    H123636   1.583   4.966   4.642  0.6942 -2.3064  0.8886
  715TIP3    H223637   1.697   4.995   4.737  0.7138  0.7567  0.0197
  716TIP3   OH223638   5.899   5.517  16.466 -0.2596 -0.0984  0.5382
  716TIP3    H123639   5.966   5.474  16.520 -0.5650 -0.1273  0.8935
  716TIP3    H223640   5.844   5.564  16.529 -0.3605  0.2166  0.2121
  717TIP3   OH223641   1.548   1.400  16.456 -0.5570  0.0066  0.0566
  717TIP3    H123642   1.593   1.340  16.396 -0.2088  1.0599 -0.7558
  717TIP3    H223643   1.455   1.382  16.442 -0.4780  0.1931 -0.7558
  718TIP3   OH223644   5.855   2.119   0.995  0.7009  0.1723 -0.0379
  718TIP3    H123645   5.861   2.164   1.079 -0.2725  0.3922 -0.0707
  718TIP3    H223646   5.801   2.176   0.941  2.3897  0.6725 -1.2694
  719TIP3   OH223647   1.667   1.845  15.727  0.2106  0.0994  0.0687
  719TIP3    H123648   1.659   1.889  15.812  1.6337  1.8413 -0.6152
  719TIP3    H223649   1.745   1.790  15.736  2.2765  2.6392 -0.9357
  720TIP3   OH223650   3.218   2.785  14.690  0.1328  0.6180  0.1189
  720TIP3    H123651   3.159   2.824  14.755 -1.6188  0.8479 -1.5084
  720TIP3    H223652   3.260   2.713  14.736 -0.1217  1.5296  1.8445
  721TIP3   OH223653   6.602   2.486  15.775  0.0049  0.9468 -0.5875
  721TIP3    H123654   6.530   2.440  15.731 -0.0583  0.6655 -0.1915
  721TIP3    H223655   6.679   2.466  15.720  0.1929 -0.5462  0.1593
  722TIP3   OH223656   5.964   4.322   3.821 -0.0870  0.0049 -0.5878
  722TIP3    H123657   5.905   4.262   3.866 -0.5181  0.1704 -0.9310
  722TIP3    H223658   5.960   4.297   3.729 -1.3094  1.3825 -0.9581
  723TIP3   OH223659   0.109   1.506   3.144 -0.4513 -0.7729  0.1000
  723TIP3    H123660   0.014   1.520   3.149 -0.3459  0.0062  0.1317
  723TIP3    H223661   0.145   1.577   3.198  0.0875 -2.0526  1.5062
  724TIP3   OH223662   6.466   3.960  14.770  0.3137  0.1942  0.1277
  724TIP3    H123663   6.465   3.996  14.681 -0.1151  0.7576  0.3563
  724TIP3    H223664   6.521   4.020  14.820  0.3097  0.0462  0.3115
  725TIP3   OH223665   0.725   4.189   6.181 -0.5115 -0.0538  0.0810
  725TIP3    H123666   0.819   4.187   6.164 -0.1850  1.1899  1.5485
  725TIP3    H223667   0.692   4.257   6.122 -0.0804  1.1682  1.1966
  726TIP3   OH223668   6.214   5.836   4.416  0.2946  0.3837  0.1988
  726TIP3    H123669   6.165   5.890   4.354  0.3781  1.0618  0.7147
  726TIP3    H223670   6.298   5.881   4.425 -0.5598  1.6986  2.6509
  727TIP3   OH223671   5.036   0.551  14.437 -0.3424 -0.0547  0.1695
  727TIP3    H123672   5.018   0.535  14.345  0.3414 -1.6185  0.2801
  727TIP3    H223673   5.020   0.467  14.481  4.0845 -0.9175  0.6799
  728TIP3   OH223674   0.601   6.125   4.390  0.2579 -0.0353  0.0531
  728TIP3    H123675   0.527   6.079   4.350 -0.5420  1.9410 -0.8353
  728TIP3    H223676   0.673   6.062   4.384 -0.9412 -1.4427 -0.4528
  729TIP3   OH223677   6.394   3.369  12.612 -0.0417 -0.1288  0.0774
  729TIP3    H123678   6.453   3.304  12.574 -0.5732 -1.7971  1.9371
  729TIP3    H223679   6.440   3.452  12.601  0.3706 -0.6438 -2.9731
  730TIP3   OH223680   3.544   6.118  10.768 -0.2123  0.4706  0.8802
  730TIP3    H123681   3.467   6.089  10.720 -0.1713  1.2219  0.3519
  730TIP3    H223682   3.515   6.197  10.813  0.6342  1.5821 -0.4704
  731TIP3   OH223683   4.218   6.127  16.054 -0.0441 -0.0295 -0.0574
  731TIP3    H123684   4.306   6.092  16.038 -0.2578 -0.6182  0.0418
  731TIP3    H223685   4.178   6.133  15.967  0.4525  1.2406 -0.2279
  732TIP3   OH223686   1.779   3.964  11.254  0.0564  0.1309 -0.0815
  732TIP3    H123687   1.858   3.913  11.267  0.0482 -0.1827 -1.2231
  732TIP3    H223688   1.809   4.055  11.246  0.1043  0.2861  1.5259
  733TIP3   OH223689   1.555   3.711   2.466  0.8074 -0.2679  0.1724
  733TIP3    H123690   1.606   3.782   2.426 -0.4229  0.9105  0.6097
  733TIP3    H223691   1.495   3.755   2.527 -0.4823 -1.6104 -0.0464
  734TIP3   OH223692   5.712   4.486  10.349  0.1489  0.3407  0.4818
  734TIP3    H123693   5.747   4.513  10.264  0.5199 -1.0619  0.1699
  734TIP3    H223694   5.769   4.415  10.377 -0.7506 -0.0817  1.2998
  735TIP3   OH223695   0.446   3.386   2.991 -0.0885 -0.0810 -0.9833
  735TIP3    H123696   0.358   3.350   3.002 -0.5551  1.5019  1.2722
  735TIP3    H223697   0.433   3.465   2.937 -0.6480  1.7973  1.6850
  736TIP3   OH223698   0.213   4.436   3.023  0.0923 -0.4682 -0.4928
  736TIP3    H123699   0.202   4.368   2.957 -1.5553 -2.8924  2.0662
  736TIP3    H223700   0.136   4.427   3.079  1.9451  0.6840  2.4208
  737TIP3   OH223701   2.692   2.954  16.190 -0.4644 -0.1565 -0.0647
  737TIP3    H123702   2.762   2.985  16.247 -1.0512 -0.1148  0.6531
  737TIP3    H223703   2.724   2.969  16.102  1.4027 -2.2592  0.1731
  738TIP3   OH223704   2.418   1.592  13.844 -0.0313 -0.0913  0.2971
  738TIP3    H123705   2.457   1.645  13.914 -1.5813  0.7193  0.5816
  738TIP3    H223706   2.331   1.569  13.876 -0.0513 -1.3490 -0.5760
  739TIP3   OH223707   4.622   5.482   3.550 -0.2335 -0.1842 -0.1504
  739TIP3    H123708   4.648   5.564   3.592 -1.0596  0.2978 -0.5575
  739TIP3    H223709   4.547   5.505   3.495  2.2307 -0.1948 -3.9389
  740TIP3   OH223710   1.829   3.030   4.114  0.2162 -0.2458  0.1036
  740TIP3    H123711   1.881   3.105   4.083  1.7280 -1.0849  0.5168
  740TIP3    H223712   1.859   3.016   4.204 -1.5056 -0.1214  0.7341
  741TIP3   OH223713   6.425   4.431  11.057 -0.5541  0.0411  0.3400
  741TIP3    H123714   6.455   4.449  10.968  1.5725  0.9459  1.1784
  741TIP3    H223715   6.410   4.337  11.059 -0.6463  0.0127 -0.9656
  742TIP3   OH223716   0.246   2.214   2.981 -0.1483 -0.6595  0.1299
  742TIP3    H123717   0.271   2.130   3.019 -0.7651 -1.4048 -1.0767
  742TIP3    H223718   0.299   2.223   2.902  0.3460  0.3762  0.5533
  743TIP3   OH223719   2.218   5.940  13.601  0.1959  0.1333  0.1164
  743TIP3    H123720   2.210   6.004  13.672 -0.2171 -2.1515  2.2348
  743TIP3    H223721   2.129   5.928  13.569  0.2043  0.2379  0.0525
  744TIP3   OH223722   6.327   0.198  11.767 -0.3700 -0.5589  0.0606
  744TIP3    H123723   6.348   0.111  11.733 -1.6732 -1.7286  2.0534
  744TIP3    H223724   6.303   0.248  11.689 -0.9987 -2.4113 -1.0256
  745TIP3   OH223725   0.072   4.472  11.630 -0.0389 -0.0372  0.4669
  745TIP3    H123726   0.040   4.409  11.565 -1.0723  0.8161  0.1007
  745TIP3    H223727   0.030   4.554  11.605  1.4514  0.8532  0.7956
  746TIP3   OH223728   2.045   4.653   0.920 -0.3586  0.0210  0.4664
  746TIP3    H123729   2.102   4.578   0.902  0.2196 -0.6595  4.2024
  746TIP3    H223730   2.098   4.730   0.897  1.7760 -0.6252  2.7375
  747TIP3   OH223731   4.770   4.082  14.515  0.3821  0.6653  0.5146
  747TIP3    H123732   4.773   3.987  14.514  0.3218  0.6386  1.4574
  747TIP3    H223733   4.715   4.106  14.440 -1.7456 -0.1530  1.7198
  748TIP3   OH223734   1.398   2.375  16.358  0.2659  0.1329 -0.3910
  748TIP3    H123735   1.476   2.331  16.392  0.9771  1.4754 -0.2493
  748TIP3    H223736   1.328   2.310  16.369  1.3383 -1.0943 -0.5110
  749TIP3   OH223737   1.926   4.714  14.393 -0.0603 -0.7044 -0.1500
  749TIP3    H123738   2.014   4.720  14.430  0.7056 -1.0039 -1.8267
  749TIP3    H223739   1.929   4.637  14.336 -0.8824  0.2132 -1.5031
  750TIP3   OH223740   3.512   6.637   1.865  0.4539 -0.3122 -0.1990
  750TIP3    H123741   3.521   6.549   1.901  0.0780 -1.0593 -1.8608
  750TIP3    H223742   3.592   6.651   1.815  0.3100  0.1224 -0.3094
  751TIP3   OH223743   3.785   2.603  14.283  0.2865 -0.2447  0.0397
  751TIP3    H123744   3.878   2.588  14.264  0.8543  3.1607 -0.5373
  751TIP3    H223745   3.739   2.545  14.222  2.0020 -1.7125  0.0612
  752TIP3   OH223746   1.786   2.617  10.562 -0.4402  0.6524  0.1822
  752TIP3    H123747   1.861   2.668  10.591  0.3738 -0.2029 -0.3961
  752TIP3    H223748   1.744   2.672  10.496  0.8051  0.3319 -0.9062
  753TIP3   OH223749   2.451   2.698  11.286 -0.3930 -0.2678  0.3347
  753TIP3    H123750   2.523   2.656  11.238 -0.9759 -0.0975 -0.7016
  753TIP3    H223751   2.485   2.785  11.307 -0.4199 -0.0541 -0.4757
  754TIP3   OH223752   1.938   5.205  10.664 -0.2905 -0.4649  0.2905
  754TIP3    H123753   2.031   5.227  10.669 -0.4509  0.0133  1.5274
  754TIP3    H223754   1.905   5.260  10.593  0.3796 -0.7283 -0.2465
  755TIP3   OH223755   3.010   5.036   0.591 -0.1510 -0.0092 -0.3313
  755TIP3    H123756   3.099   5.057   0.622 -0.6108  3.6801 -1.1055
  755TIP3    H223757   3.007   5.071   0.502 -2.3133 -0.4416 -0.4679
  756TIP3   OH223758   0.058   2.810  15.299 -0.5857  0.1932  0.4789
  756TIP3    H123759   0.103   2.890  15.273 -0.6395  0.4407  1.1230
  756TIP3    H223760   0.017   2.832  15.383 -0.3424 -0.5963  0.8168
  757TIP3   OH223761   1.412   3.169  11.179 -0.6556 -0.1754 -0.3357
  757TIP3    H123762   1.388   3.077  11.195 -1.0928  0.1811  1.2201
  757TIP3    H223763   1.399   3.212  11.263  1.9326  0.8257 -0.3462
  758TIP3   OH223764   1.457   2.416  14.795 -0.3562 -0.0716 -0.2576
  758TIP3    H123765   1.539   2.375  14.824 -1.2097 -1.5664  0.1622
  758TIP3    H223766   1.404   2.422  14.875 -1.1149 -0.2540 -0.7368
  759TIP3   OH223767   4.619   1.875   5.457 -0.5944  0.0471 -0.0670
  759TIP3    H123768   4.694   1.825   5.486 -1.5025 -1.7430 -0.6468
  759TIP3    H223769   4.564   1.884   5.535  0.3346  1.6699  0.4449
  760TIP3   OH223770   3.275   3.607   2.572 -0.0203  0.7188 -0.6018
  760TIP3    H123771   3.291   3.559   2.653  0.6894 -0.1098 -1.2179
  760TIP3    H223772   3.238   3.542   2.513  1.1253  0.8647 -1.5114
  761TIP3   OH223773   0.082   5.852   5.709 -0.5643 -0.3677  0.0981
  761TIP3    H123774   0.084   5.808   5.624 -2.9619  0.4696 -0.4680
  761TIP3    H223775   0.073   5.945   5.687 -1.6412 -0.1761  1.2342
  762TIP3   OH223776   4.020   6.262  14.545  0.4842 -0.0403  0.3034
  762TIP3    H123777   3.980   6.228  14.625 -1.6263  1.3334 -0.0806
  762TIP3    H223778   4.104   6.300  14.574 -0.1561  0.2644  1.8447
  763TIP3   OH223779   6.827   4.449  15.735 -0.7017 -0.5025  0.3601
  763TIP3    H123780   6.898   4.424  15.794 -0.4027  0.0874  0.2532
  763TIP3    H223781   6.779   4.517  15.783 -1.5885 -1.3334  0.7008
  764TIP3   OH223782   0.121   1.507   4.718 -0.1366  0.2560  0.9866
  764TIP3    H123783   0.118   1.414   4.742 -0.1151  0.2676  1.0339
  764TIP3    H223784   0.180   1.547   4.782 -1.4894  0.6316  2.0691
  765TIP3   OH223785   6.579   5.956  12.721 -0.5063  0.0618  0.1384
  765TIP3    H123786   6.594   5.875  12.771  0.5254 -0.0383 -0.3163
  765TIP3    H223787   6.500   5.937  12.670  0.7502 -1.3772 -1.3687
  766TIP3   OH223788   1.036   5.769   6.620 -0.3428 -0.1282 -0.0287
  766TIP3    H123789   1.102   5.781   6.689 -1.7018  1.4932  1.1062
  766TIP3    H223790   1.074   5.810   6.543 -0.8796  3.0923  1.2480
  767TIP3   OH223791   6.802   1.617   6.096 -0.0433 -0.0255  0.3627
  767TIP3    H123792   6.833   1.683   6.034 -2.1743  0.5876 -0.1224
  767TIP3    H223793   6.795   1.664   6.179  0.9940 -0.3561  0.6469
  768TIP3   OH223794   5.531   3.167   1.404 -0.4299  0.4257  0.1230
  768TIP3    H123795   5.593   3.240   1.405  0.0670  0.0501 -0.8821
  768TIP3    H223796   5.550   3.121   1.322 -1.0566 -0.5530  0.5014
  769TIP3   OH223797   1.600   6.674   3.259 -0.1609 -0.7489 -0.3397
  769TIP3    H123798   1.622   6.646   3.170  0.1187 -2.3726  0.2118
  769TIP3    H223799   1.505   6.675   3.261 -0.3196  2.8821 -1.6841
  770TIP3   OH223800   6.573   3.499   0.332  0.0737 -0.6239 -0.3724
  770TIP3    H123801   6.581   3.594   0.337 -0.0173 -0.6395  0.1120
  770TIP3    H223802   6.479   3.484   0.318  0.3698 -0.5613 -2.8689
  771TIP3   OH223803   5.182   1.118  14.688  0.1363 -0.1538 -0.2386
  771TIP3    H123804   5.218   1.035  14.718 -0.9530 -0.6423 -0.2246
  771TIP3    H223805   5.134   1.096  14.608 -0.3490  0.4137 -0.1117
  772TIP3   OH223806   2.803   0.209  13.478  0.1138  0.2660  0.8381
  772TIP3    H123807   2.830   0.244  13.393 -1.9243 -0.1530 -0.0443
  772TIP3    H223808   2.856   0.130  13.489 -1.3618 -1.1292 -1.3260
  773TIP3   OH223809   0.360   1.209   0.759  0.0958 -0.1494  0.1554
  773TIP3    H123810   0.274   1.226   0.720 -1.4068 -2.9434  1.9292
  773TIP3    H223811   0.390   1.128   0.716 -0.1084 -1.4594  2.3434
  774TIP3   OH223812   0.392   1.682  10.998 -0.3066 -0.2313 -0.3184
  774TIP3    H123813   0.372   1.739  10.924  1.0526 -0.1980 -0.6936
  774TIP3    H223814   0.307   1.660  11.035 -0.8948  1.6063 -0.4818
  775TIP3   OH223815   5.173   6.184   2.448 -0.2570 -0.0712  0.3806
  775TIP3    H123816   5.118   6.233   2.509 -0.6452 -1.6874  1.3657
  775TIP3    H223817   5.260   6.223   2.457 -0.3995 -0.0056  1.6667
  776TIP3   OH223818   2.684   3.585   3.517  0.3819  0.0222 -0.6109
  776TIP3    H123819   2.679   3.508   3.460  1.3722 -1.4247  1.1307
  776TIP3    H223820   2.772   3.620   3.503 -0.3441  1.3726 -1.9946
  777TIP3   OH223821   6.277   3.000   1.505  0.2575 -0.0546 -0.4573
  777TIP3    H123822   6.294   2.960   1.420  0.5798  0.5312 -0.6682
  777TIP3    H223823   6.323   3.083   1.503  2.1018 -0.9666  1.1077
  778TIP3   OH223824   4.304   3.372   5.284  0.2278 -0.2360  0.4017
  778TIP3    H123825   4.213   3.342   5.287 -0.0439  0.5109 -0.1814
  778TIP3    H223826   4.354   3.294   5.259 -0.4939 -0.2031 -1.3067
  779TIP3   OH223827   5.018   1.333  14.236 -0.5276  0.2651 -0.2950
  779TIP3    H123828   4.995   1.418  14.272  0.1580 -0.3710  1.7734
  779TIP3    H223829   5.086   1.352  14.171 -0.7418  1.3204 -0.2287
  780TIP3   OH223830   6.461   3.821   4.609  0.4232 -0.3472 -0.0733
  780TIP3    H123831   6.407   3.749   4.644  0.4341  0.5861  1.9928
  780TIP3    H223832   6.530   3.776   4.559  1.6772 -2.0040  2.8552
  781TIP3   OH223833   0.381   1.903  13.101 -0.3041  0.1449 -0.7662
  781TIP3    H123834   0.372   1.951  13.018  1.8557  1.6046 -0.2513
  781TIP3    H223835   0.472   1.871  13.100 -0.9513 -1.8850  0.0265
  782TIP3   OH223836   4.983   6.393   0.999 -0.4911 -0.0648 -0.7711
  782TIP3    H123837   5.077   6.383   1.011 -0.4142  0.0946 -1.2566
  782TIP3    H223838   4.947   6.306   1.013 -0.5010  0.2227  1.4751
  783TIP3   OH223839   3.833   5.663  11.352 -0.3790  0.6152 -0.1972
  783TIP3    H123840   3.746   5.628  11.367  0.4227 -1.6832 -0.5158
  783TIP3    H223841   3.840   5.737  11.412 -2.5387  0.9118 -0.2261
  784TIP3   OH223842   4.167   6.703   3.123 -0.0562  0.1349  0.3049
  784TIP3    H123843   4.093   6.759   3.101  0.1240  0.0602 -0.5620
  784TIP3    H223844   4.193   6.729   3.211  0.4975  1.9614 -0.3502
  785TIP3   OH223845   1.219   6.335   4.025 -0.4012 -0.1120  0.0090
  785TIP3    H123846   1.131   6.339   4.062  0.0647 -0.1607  1.1717
  785TIP3    H223847   1.246   6.427   4.018  0.5530 -0.1066  2.4960
  786TIP3   OH223848   6.525   5.692   6.110  0.6039 -0.7770  0.3845
  786TIP3    H123849   6.503   5.625   6.174 -0.1100 -0.6727  0.2570
  786TIP3    H223850   6.481   5.664   6.030 -0.3530  0.2200  0.5309
  787TIP3   OH223851   5.500   2.984  16.754 -0.3113 -0.1584  0.1791
  787TIP3    H123852   5.486   3.029  16.671  0.4440 -0.3750 -0.0719
  787TIP3    H223853   5.432   2.917  16.758  0.4020 -0.9663 -0.8483
  788TIP3   OH223854   2.998   4.745  14.312 -0.0513 -0.1549  0.5432
  788TIP3    H123855   2.946   4.686  14.366 -0.4638 -1.0880 -0.8241
  788TIP3    H223856   3.084   4.703  14.308 -0.1553 -0.3236  0.0999
  789TIP3   OH223857   1.843   2.540  13.947 -0.3178 -0.0288 -0.1452
  789TIP3    H123858   1.840   2.577  13.859  0.4943 -1.2773 -0.7250
  789TIP3    H223859   1.934   2.551  13.974 -0.5067  0.1158  0.4496
  790TIP3   OH223860   4.719   2.962   5.299  0.6292 -0.4191 -0.2766
  790TIP3    H123861   4.747   2.942   5.210 -0.5278  0.3359 -0.8399
  790TIP3    H223862   4.800   2.978   5.347  1.3915 -2.6525 -0.6996
  791TIP3   OH223863   5.452   4.642   3.327 -0.9448  0.4202 -0.2864
  791TIP3    H123864   5.396   4.649   3.405 -1.7407 -1.0685 -0.6851
  791TIP3    H223865   5.464   4.548   3.315  1.6882  0.6883 -0.2336
  792TIP3   OH223866   4.311   6.311   4.686 -0.5320  0.6459  0.4180
  792TIP3    H123867   4.242   6.297   4.622  0.1086 -0.7857  0.0016
  792TIP3    H223868   4.291   6.251   4.758  0.2920  0.1547  0.2566
  793TIP3   OH223869   0.930   4.664   1.148  0.3910  0.1186 -0.2091
  793TIP3    H123870   0.998   4.731   1.151 -0.1644  0.7103 -0.5554
  793TIP3    H223871   0.850   4.709   1.175  0.0578 -0.4683 -0.1881
  794TIP3   OH223872   3.848   4.780  13.708  0.4151 -0.3182  0.0599
  794TIP3    H123873   3.774   4.792  13.648 -0.4364  0.5885  1.2465
  794TIP3    H223874   3.855   4.685  13.718 -0.4950 -0.4239 -0.1774
  795TIP3   OH223875   1.406   5.755  16.178  0.1766  0.4702 -0.1348
  795TIP3    H123876   1.379   5.779  16.089 -2.3822 -2.4593 -0.3178
  795TIP3    H223877   1.476   5.691  16.165  0.5684  0.8517  0.0469
  796TIP3   OH223878   1.105   3.010  16.587 -0.0459  0.2493  0.2688
  796TIP3    H123879   1.149   3.032  16.506 -0.2242  1.3728  0.4592
  796TIP3    H223880   1.013   3.001  16.563 -0.2304  1.4389  0.4790
  797TIP3   OH223881   3.942   0.461   0.253 -0.4095  0.0465 -0.1826
  797TIP3    H123882   4.034   0.452   0.228  0.2104  0.7962  1.6950
  797TIP3    H223883   3.928   0.556   0.261 -0.8420 -0.1227  1.2735
  798TIP3   OH223884   4.332   0.095  11.973  0.1389  0.1857  0.1658
  798TIP3    H123885   4.390   0.151  11.921 -0.4582  0.3856 -0.3009
  798TIP3    H223886   4.364   0.103  12.063  0.8510  0.2663 -0.0926
  799TIP3   OH223887   6.347   3.979   3.769  0.5884 -0.7199 -0.4553
  799TIP3    H123888   6.377   4.016   3.852  2.7675 -0.9272 -1.0887
  799TIP3    H223889   6.335   4.055   3.711  0.3402 -0.6650 -0.3309
  800TIP3   OH223890   1.347   4.593   3.786 -0.4760  0.0120  0.2261
  800TIP3    H123891   1.270   4.643   3.759  1.7926  2.6583 -1.9361
  800TIP3    H223892   1.359   4.614   3.879 -0.5365  2.2478 -0.2310
  801TIP3   OH223893   6.507   3.176  10.508  0.6523 -0.1013  0.0266
  801TIP3    H123894   6.594   3.161  10.472  0.8184 -0.6335  0.6478
  801TIP3    H223895   6.452   3.109  10.467  0.0454  1.4918 -1.9857
  802TIP3   OH223896   0.989   1.130  15.978  0.3160 -0.4164  0.5052
  802TIP3    H123897   1.082   1.108  15.970  0.5347  0.7782 -0.6554
  802TIP3    H223898   0.943   1.054  15.944  0.8497 -1.0415  1.1406
  803TIP3   OH223899   3.373   3.119   2.758 -0.0592  0.5700 -0.0507
  803TIP3    H123900   3.369   3.091   2.850  0.7889  0.1380 -0.1406
  803TIP3    H223901   3.322   3.052   2.712 -1.7699  1.5922  0.2643
  804TIP3   OH223902   3.605   4.567  13.878  0.0019  0.2216  0.3764
  804TIP3    H123903   3.553   4.495  13.914 -0.1142 -0.2142 -0.6435
  804TIP3    H223904   3.550   4.644  13.888 -0.6160 -0.1423 -0.1675
  805TIP3   OH223905   3.926   5.281  11.195  0.6050  0.2849 -0.5383
  805TIP3    H123906   3.931   5.215  11.127  1.5558  0.2594 -0.4555
  805TIP3    H223907   3.832   5.291  11.213  0.4743 -2.1341  0.5269
  806TIP3   OH223908   4.878   0.036  12.273 -0.2088 -0.0925 -0.1809
  806TIP3    H123909   4.885   0.106  12.338 -0.7785  1.3276 -1.5795
  806TIP3    H223910   4.785   0.016  12.269 -0.5319  1.5259 -2.1949
  807TIP3   OH223911   2.878   5.269   1.370  0.5054  0.7968  0.1111
  807TIP3    H123912   2.886   5.302   1.280 -0.6629 -0.2275 -0.4008
  807TIP3    H223913   2.968   5.268   1.403  1.1221 -0.0023 -1.4934
  808TIP3   OH223914   5.146   6.408   0.638  0.1114 -0.1439  0.0540
  808TIP3    H123915   5.143   6.372   0.550 -1.4964  0.2940 -0.1072
  808TIP3    H223916   5.226   6.460   0.640  0.6794 -0.9562 -0.8109
  809TIP3   OH223917   5.549   4.965  13.008  0.3715  0.1497  0.6622
  809TIP3    H123918   5.481   4.899  12.992  0.2587  0.1151  1.2585
  809TIP3    H223919   5.506   5.030  13.064  0.2573  1.1214 -0.5151
  810TIP3   OH223920   6.727   5.837   1.712 -0.3771 -0.7488  0.9581
  810TIP3    H123921   6.658   5.784   1.672 -0.1149 -1.4322  1.4039
  810TIP3    H223922   6.750   5.790   1.792  1.2097 -0.9912  0.3814
  811TIP3   OH223923   3.016   3.293   4.856  0.0964 -0.4893  0.0957
  811TIP3    H123924   3.109   3.289   4.835  0.3166  1.0092  0.6345
  811TIP3    H223925   3.014   3.309   4.951 -0.7730 -2.4124  0.4596
  812TIP3   OH223926   0.428   5.073  13.784  0.1145 -0.1523  0.3848
  812TIP3    H123927   0.383   5.066  13.868 -0.2304 -1.5703  0.1011
  812TIP3    H223928   0.385   5.008  13.728  0.3358  0.7573 -0.8952
  813TIP3   OH223929   4.281   1.333  13.734  0.0708  0.4013 -0.3489
  813TIP3    H123930   4.243   1.294  13.655 -1.4975  0.6410  0.2604
  813TIP3    H223931   4.207   1.344  13.793  0.9136  1.9316  0.4775
  814TIP3   OH223932   3.849   3.140   0.144 -0.2149  0.1891 -0.2330
  814TIP3    H123933   3.815   3.058   0.109  0.3473 -1.3079  2.4140
  814TIP3    H223934   3.935   3.117   0.180  0.9643  2.4838 -1.3520
  815TIP3   OH223935   5.226   2.680  13.021  0.0227  0.7412  0.8593
  815TIP3    H123936   5.312   2.671  12.982 -0.2038  0.4467  0.4209
  815TIP3    H223937   5.183   2.748  12.969 -0.1636  0.5779  0.7982
  816TIP3   OH223938   2.822   1.256   2.994  0.2926 -0.4877 -0.0415
  816TIP3    H123939   2.918   1.256   3.005  0.5477  0.6433 -1.9213
  816TIP3    H223940   2.804   1.175   2.945  0.4132 -0.1675 -0.6155
  817TIP3   OH223941   0.934   5.136   2.782 -0.2527  0.6101 -0.2496
  817TIP3    H123942   0.916   5.220   2.740  2.2945  0.7007 -1.3802
  817TIP3    H223943   0.920   5.071   2.712 -0.8357  0.2270  0.2135
  818TIP3   OH223944   5.728   1.938  16.583  0.4048  0.4717  0.0460
  818TIP3    H123945   5.711   1.977  16.497  1.0574 -2.5143 -1.5640
  818TIP3    H223946   5.645   1.900  16.610 -0.0722  2.2987  1.3176
  819TIP3   OH223947   6.621   1.890   3.540 -0.5023 -0.0698  0.4088
  819TIP3    H123948   6.581   1.886   3.627  0.3973  0.0722  0.8408
  819TIP3    H223949   6.614   1.982   3.514  0.6405  0.2188  1.0344
  820TIP3   OH223950   2.318   4.170   0.616 -0.0240  0.1298  0.7361
  820TIP3    H123951   2.376   4.219   0.675  1.0388 -0.7316  0.4559
  820TIP3    H223952   2.276   4.105   0.673 -0.8286  0.8461  0.9654
  821TIP3   OH223953   1.728   6.305   5.746 -0.0669  0.3063 -0.6051
  821TIP3    H123954   1.788   6.313   5.821  0.1608 -1.2648 -0.5824
  821TIP3    H223955   1.643   6.329   5.782  0.4034  1.8795 -0.4610
  822TIP3   OH223956   4.412   1.996  13.375  0.3140  0.3965 -0.2334
  822TIP3    H123957   4.382   2.013  13.464  0.5624 -0.7969  0.1010
  822TIP3    H223958   4.499   2.037  13.370 -0.1973  1.4864 -0.3188
  823TIP3   OH223959   4.703   2.506  13.656 -0.4733  0.5515 -0.1526
  823TIP3    H123960   4.775   2.454  13.622  0.4617  1.8212 -0.1685
  823TIP3    H223961   4.629   2.444  13.661  0.6689 -0.8407  0.1457
  824TIP3   OH223962   2.708   0.028  12.679  0.1634 -0.5736 -0.3590
  824TIP3    H123963   2.714   0.123  12.689 -1.1751 -0.1629 -2.7962
  824TIP3    H223964   2.680  -0.004  12.765  2.0230  1.0410  0.9051
  825TIP3   OH223965   5.713   5.688  16.135  0.3496 -0.1038 -0.8089
  825TIP3    H123966   5.746   5.767  16.177  1.6374 -1.4303  0.7800
  825TIP3    H223967   5.692   5.629  16.207  2.4199 -2.4010 -1.9249
  826TIP3   OH223968   2.700   5.229  11.971 -0.0336  0.5819  0.4875
  826TIP3    H123969   2.686   5.206  11.879  0.1462 -0.9132  0.8157
  826TIP3    H223970   2.751   5.310  11.968 -1.1576  1.2918 -0.7152
  827TIP3   OH223971   0.758   4.423   1.090 -0.3730 -0.0152  0.4858
  827TIP3    H123972   0.815   4.436   1.166  0.7527  1.0009 -0.4766
  827TIP3    H223973   0.814   4.445   1.015 -2.2347  1.7063 -0.4748
  828TIP3   OH223974   2.594   6.440   1.364  0.0358 -0.2128 -0.4038
  828TIP3    H123975   2.614   6.347   1.357  0.6183 -0.0877 -0.4991
  828TIP3    H223976   2.603   6.459   1.458 -1.6576 -0.5785 -0.1320
  829TIP3   OH223977   6.199   6.394  12.902 -0.4712  0.5006 -0.2787
  829TIP3    H123978   6.220   6.306  12.869 -0.3209  0.6816 -0.6800
  829TIP3    H223979   6.111   6.386  12.939 -0.0713 -0.0516  0.5727
  830TIP3   OH223980   2.479   2.706   0.933 -0.1381  0.2197 -0.0857
  830TIP3    H123981   2.421   2.782   0.935 -0.7502 -0.2399 -0.2978
  830TIP3    H223982   2.482   2.682   0.840 -0.4314 -0.3850  0.0596
  831TIP3   OH223983   1.485   4.992  13.459 -0.2388  0.0302 -0.2648
  831TIP3    H123984   1.553   4.982  13.392  1.1842  0.7188  1.0125
  831TIP3    H223985   1.441   5.074  13.436 -0.3800 -0.2005 -0.8580
  832TIP3   OH223986   2.161   1.982   6.311 -0.3683  0.4522 -1.0155
  832TIP3    H123987   2.065   1.988   6.317 -0.4347  0.0142 -1.5388
  832TIP3    H223988   2.191   2.072   6.318 -0.7890  0.5508 -0.3838
  833TIP3   OH223989   3.333   2.721   2.665 -0.1152  0.3392  0.0879
  833TIP3    H123990   3.359   2.753   2.752  1.8733  0.4557 -0.4917
  833TIP3    H223991   3.252   2.768   2.646 -1.7678 -1.1860  2.6903
  834TIP3   OH223992   4.565   5.167  14.357 -0.9145 -0.1223 -0.4541
  834TIP3    H123993   4.631   5.153  14.289  0.5404  1.5989  0.5420
  834TIP3    H223994   4.484   5.131  14.319  0.4805 -2.0566 -1.8078
  835TIP3   OH223995   3.753   3.820   2.698 -0.7072  0.2157  0.2598
  835TIP3    H123996   3.775   3.823   2.605  0.9722  0.6947  0.6388
  835TIP3    H223997   3.788   3.736   2.728 -2.0794 -0.3665  0.2860
  836TIP3   OH223998   1.676   1.032   3.354 -0.1521  0.2160  0.6684
  836TIP3    H123999   1.677   1.099   3.422  0.7283 -0.0024  0.8861
  836TIP3    H224000   1.767   1.026   3.325 -0.6052  0.7427 -0.9689
  837TIP3   OH224001   0.161   3.799  12.221 -0.3344  0.1228  1.0048
  837TIP3    H124002   0.204   3.880  12.195 -2.5078  1.2783  0.7454
  837TIP3    H224003   0.118   3.820  12.304 -2.4947 -0.0781  0.0254
  838TIP3   OH224004   5.640   5.819  14.554  0.3627  0.0566 -0.1875
  838TIP3    H124005   5.669   5.817  14.645  0.6070 -1.4261 -0.2663
  838TIP3    H224006   5.545   5.806  14.559  0.2690  0.7159 -0.1255
  839TIP3   OH224007   1.470   2.191   4.415 -0.3191  0.1598 -0.1840
  839TIP3    H124008   1.565   2.185   4.419 -0.4613 -1.6962  1.3946
  839TIP3    H224009   1.440   2.164   4.501 -2.3088  0.1991 -0.8144
  840TIP3   OH224010   0.545   3.867   4.315 -0.0609  0.1127 -0.1143
  840TIP3    H124011   0.456   3.838   4.294  0.0147  0.1040 -0.4187
  840TIP3    H224012   0.580   3.798   4.371 -0.0006 -0.2158 -0.5611
  841TIP3   OH224013   0.752   4.648  11.567 -0.9169 -0.3110 -0.3192
  841TIP3    H124014   0.711   4.724  11.527  0.6736  1.7812  1.7847
  841TIP3    H224015   0.731   4.654  11.660  1.3280 -0.9744  0.3048
  842TIP3   OH224016   5.974   3.021   1.052  0.0474 -0.2124 -0.0709
  842TIP3    H124017   5.941   3.082   1.118  2.0176  1.6957 -0.7362
  842TIP3    H224018   6.001   3.076   0.979  2.4347 -1.7804 -0.4999
  843TIP3   OH224019   4.199   2.160  13.266  0.3584  0.3592 -0.5353
  843TIP3    H124020   4.199   2.179  13.172 -2.5155 -1.5917 -1.0349
  843TIP3    H224021   4.233   2.071  13.272 -0.1739  0.1962  0.1806
  844TIP3   OH224022   1.729   5.995  16.798  0.2600  0.2902 -0.3176
  844TIP3    H124023   1.824   6.002  16.800  0.1625  1.7837 -0.1612
  844TIP3    H224024   1.705   6.009  16.706  0.1080  1.3112 -0.1287
  845TIP3   OH224025   4.439   1.389  16.053  0.0249 -0.5991 -0.3289
  845TIP3    H124026   4.454   1.397  16.148  1.1816 -0.7669 -0.4850
  845TIP3    H224027   4.347   1.365  16.046 -0.2027 -0.1129  0.7344
  846TIP3   OH224028   4.339   5.874   4.241  0.4137 -0.2779  0.5088
  846TIP3    H124029   4.417   5.830   4.207  0.3663 -0.3848  0.5365
  846TIP3    H224030   4.344   5.963   4.206 -0.9097 -1.0497 -1.9025
  847TIP3   OH224031   0.591   2.889   0.298  0.4575  0.3147 -0.0281
  847TIP3    H124032   0.607   2.968   0.349 -1.4811  1.8717 -1.6911
  847TIP3    H224033   0.593   2.918   0.207 -1.6418 -1.2634 -0.6385
  848TIP3   OH224034   2.550   1.188  11.032  0.0359  0.6670 -0.1815
  848TIP3    H124035   2.498   1.122  10.987  0.5520  1.0340 -1.3549
  848TIP3    H224036   2.490   1.261  11.048 -0.1993  0.4511 -0.0704
  849TIP3   OH224037   5.615   1.547  15.352  0.0507  0.2365  0.7245
  849TIP3    H124038   5.634   1.540  15.258  1.9810 -0.8648  1.1503
  849TIP3    H224039   5.559   1.472  15.371  1.6026 -0.9383  0.8539
  850TIP3   OH224040   0.624   5.007   5.567 -0.2987 -0.6230 -1.2470
  850TIP3    H124041   0.541   4.964   5.546 -0.8531 -0.7433  0.9243
  850TIP3    H224042   0.616   5.095   5.531 -0.2183 -1.4641 -3.4398
  851TIP3   OH224043   3.090   6.697  14.485  0.0692 -0.1498  0.0006
  851TIP3    H124044   2.996   6.705  14.498 -0.3519 -1.4455 -1.8943
  851TIP3    H224045   3.105   6.604  14.470  1.3459  0.2698 -1.6392
  852TIP3   OH224046   1.205   0.568  15.406  0.0585  0.2203 -0.1508
  852TIP3    H124047   1.207   0.520  15.323  0.8005  0.3105 -0.1879
  852TIP3    H224048   1.249   0.510  15.469  0.6706  0.7097 -0.1212
  853TIP3   OH224049   3.988   0.346  12.884  0.2314 -0.1970 -0.1416
  853TIP3    H124050   3.954   0.414  12.826  0.8730  1.9481  1.8441
  853TIP3    H224051   4.082   0.362  12.887  0.1722  0.0410  1.7529
  854TIP3   OH224052   4.862   4.319   5.010  0.3257  0.4183 -0.2879
  854TIP3    H124053   4.811   4.241   4.991  1.5487 -1.0240  1.9435
  854TIP3    H224054   4.937   4.314   4.951  0.6451 -0.3675  0.1777
  855TIP3   OH224055   4.138   5.217   1.771 -0.1831  0.2246 -0.0324
  855TIP3    H124056   4.227   5.182   1.764  0.1258  1.1422 -0.9219
  855TIP3    H224057   4.141   5.274   1.848  0.2154  0.8253 -0.4831
  856TIP3   OH224058   3.369   0.428   1.217  0.1854  0.2808 -0.0184
  856TIP3    H124059   3.338   0.377   1.291  2.3817  0.3791  1.0405
  856TIP3    H224060   3.445   0.476   1.250  0.4606  1.3362 -1.9884
  857TIP3   OH224061   2.265   6.155  14.462 -0.4721  0.5554  0.0713
  857TIP3    H124062   2.180   6.154  14.506 -0.3987 -0.3344  0.2217
  857TIP3    H224063   2.268   6.071  14.416  0.0210  0.8987 -0.5322
  858TIP3   OH224064   4.215   2.754  10.904  0.5498 -0.3453  0.5784
  858TIP3    H124065   4.213   2.849  10.916  1.7338 -0.3495  0.9427
  858TIP3    H224066   4.127   2.732  10.872 -0.2659  0.6560  2.0002
  859TIP3   OH224067   6.265   1.403  15.009 -0.3538 -0.4564 -0.3651
  859TIP3    H124068   6.237   1.459  15.082 -0.6526  0.6532 -1.2894
  859TIP3    H224069   6.248   1.456  14.931  2.8709 -0.3213 -1.1088
  860TIP3   OH224070   3.671   6.232  13.045 -0.7508  0.1271 -0.3279
  860TIP3    H124071   3.675   6.149  12.998  0.8800 -0.3256  0.5373
  860TIP3    H224072   3.579   6.241  13.070 -1.0004 -1.2852 -0.6742
  861TIP3   OH224073   5.823   4.873  10.245 -0.0874  0.0148  0.2870
  861TIP3    H124074   5.783   4.868  10.331 -2.1421 -0.7472 -0.6412
  861TIP3    H224075   5.784   4.800  10.196  1.0211  0.4177 -1.2767
  862TIP3   OH224076   0.009   4.085   3.328 -0.3268  0.1031  0.6917
  862TIP3    H124077  -0.061   4.086   3.262  1.9099 -1.8252 -1.9566
  862TIP3    H224078   0.088   4.106   3.279  1.4301 -1.0360  2.8762
  863TIP3   OH224079   2.435   0.327  15.201 -0.3633  0.1097 -0.4101
  863TIP3    H124080   2.525   0.356  15.184 -0.4084 -0.0394 -0.9012
  863TIP3    H224081   2.405   0.385  15.272  0.0339  0.3200 -0.4072
  864TIP3   OH224082   5.104   0.199   1.191 -0.2091 -0.1554 -0.2081
  864TIP3    H124083   5.024   0.169   1.148 -0.2303 -1.0677  0.4478
  864TIP3    H224084   5.175   0.162   1.138 -0.2251 -0.2434 -0.1675
  865TIP3   OH224085   4.068   4.693  11.936 -0.1704 -0.5282 -0.1365
  865TIP3    H124086   4.090   4.637  11.861 -1.5104 -2.9526  1.1392
  865TIP3    H224087   3.999   4.645  11.982 -0.1384  1.3715  2.0743
  866TIP3   OH224088   6.349   5.780   5.858  0.2543 -0.1256  0.8262
  866TIP3    H124089   6.435   5.822   5.855 -0.3823  1.1473 -0.3505
  866TIP3    H224090   6.286   5.851   5.851 -0.8692 -1.1711 -0.5468
  867TIP3   OH224091   6.505   2.744  15.347  0.4020  0.2064 -0.1743
  867TIP3    H124092   6.584   2.757  15.401  0.3303 -1.0904  0.2860
  867TIP3    H224093   6.434   2.738  15.411  0.0353  0.5561 -0.5439
  868TIP3   OH224094   5.321   2.584  17.046 -0.1732  0.2323  0.2923
  868TIP3    H124095   5.366   2.571  17.129 -0.6230 -1.0723  0.3542
  868TIP3    H224096   5.381   2.638  16.995  0.3947  0.5171  1.2321
  869TIP3   OH224097   3.202   0.605   1.829  0.2131 -0.1272 -0.1036
  869TIP3    H124098   3.220   0.680   1.886 -1.3088  1.7946 -2.0229
  869TIP3    H224099   3.286   0.586   1.787  0.2954  1.5150 -0.7314
  870TIP3   OH224100   1.361   4.230   5.066  0.1069  0.5127 -0.1861
  870TIP3    H124101   1.313   4.158   5.026 -1.6974  1.4061  0.2827
  870TIP3    H224102   1.376   4.202   5.157  0.7965  0.1024 -0.4161
  871TIP3   OH224103   3.487   6.487   0.743  0.3399 -0.3774 -0.1917
  871TIP3    H124104   3.539   6.483   0.823 -1.5150 -0.9728  1.0557
  871TIP3    H224105   3.428   6.562   0.756 -0.6450 -1.0620 -0.5523
  872TIP3   OH224106   2.791   0.291   0.275 -0.2334  0.7462  0.6397
  872TIP3    H124107   2.712   0.338   0.247 -0.1862 -0.6799 -2.3386
  872TIP3    H224108   2.857   0.359   0.284 -0.9522  1.6173 -0.3208
  873TIP3   OH224109   5.465   5.095   0.574  0.3828  0.1849 -0.1917
  873TIP3    H124110   5.391   5.137   0.617  0.3650 -1.5380  1.6334
  873TIP3    H224111   5.542   5.125   0.623  0.7871  0.9775 -1.2719
  874TIP3   OH224112   1.240   0.097   6.297 -0.3332 -0.3637 -0.6332
  874TIP3    H124113   1.159   0.147   6.299  0.1458  0.4254 -0.6405
  874TIP3    H224114   1.217   0.015   6.253 -1.4434 -0.7430  0.5836
  875TIP3   OH224115   4.610   4.328  16.448 -0.0783  0.2534 -0.2267
  875TIP3    H124116   4.528   4.320  16.497 -0.9669  0.7892 -1.5563
  875TIP3    H224117   4.647   4.411  16.477 -0.2715  0.2595  0.0079
  876TIP3   OH224118   6.753   6.736   0.720  0.3800 -0.8199  0.1333
  876TIP3    H124119   6.695   6.774   0.654  1.3100 -0.1974 -0.3548
  876TIP3    H224120   6.833   6.788   0.713  0.4390 -0.6095  1.8870
  877TIP3   OH224121   1.784   4.238   0.905 -0.4676  0.4387  0.0366
  877TIP3    H124122   1.747   4.291   0.975 -1.8690  1.4647 -1.4158
  877TIP3    H224123   1.709   4.211   0.852  0.4633 -1.0513 -0.5939
  878TIP3   OH224124   2.191   0.724   0.407 -0.0014 -0.0350  0.0927
  878TIP3    H124125   2.173   0.738   0.500 -0.3755 -0.4367  0.0820
  878TIP3    H224126   2.165   0.806   0.364  0.0814  0.1140  0.3261
  879TIP3   OH224127   5.831   3.107  15.546  0.1144 -0.1623  0.5398
  879TIP3    H124128   5.742   3.076  15.530  0.1336 -0.8670  1.7119
  879TIP3    H224129   5.820   3.200  15.569 -0.0360  0.5203 -1.9648
  880TIP3   OH224130   2.634   1.454  12.465 -0.3079  0.6654  0.0408
  880TIP3    H124131   2.726   1.454  12.490 -0.3466 -0.3601  0.2303
  880TIP3    H224132   2.588   1.421  12.542 -0.9607  2.1244  0.3067
  881TIP3   OH224133   4.712   0.129   2.963  0.5490  0.2987 -0.2683
  881TIP3    H124134   4.618   0.119   2.976  0.2330  3.2900  0.3000
  881TIP3    H224135   4.722   0.207   2.909  2.7181  0.0518 -0.3377
  882TIP3   OH224136   0.639   4.214   2.985 -0.0507  0.0957  0.0036
  882TIP3    H124137   0.639   4.131   3.033 -0.8148 -1.4248 -2.4438
  882TIP3    H224138   0.732   4.231   2.966  0.1312 -0.0224  0.7446
  883TIP3   OH224139   2.440   0.450   0.916  0.2022 -0.3692  0.0784
  883TIP3    H124140   2.454   0.437   0.822 -0.3828  3.2645 -0.6551
  883TIP3    H224141   2.528   0.455   0.953  0.4511 -0.8316 -0.4344
  884TIP3   OH224142   2.886   6.232  12.172 -0.3430  0.8949 -0.1206
  884TIP3    H124143   2.827   6.307  12.176 -0.8454  0.4877  0.5202
  884TIP3    H224144   2.967   6.266  12.135 -1.2138  1.3143 -1.7108
  885TIP3   OH224145   3.901   6.412  12.650  0.6223 -0.6641  0.2133
  885TIP3    H124146   3.867   6.494  12.686 -0.9242 -1.0628 -0.2681
  885TIP3    H224147   3.835   6.384  12.587  1.5808 -1.8059 -0.3283
  886TIP3   OH224148   5.808   3.774  15.670  0.7642  0.4090  0.1000
  886TIP3    H124149   5.740   3.712  15.697  0.5614  0.4987 -0.1983
  886TIP3    H224150   5.783   3.800  15.581  0.2993  1.7014  0.5915
  887TIP3   OH224151   1.960   5.458  15.602 -0.3296  0.0997 -0.2756
  887TIP3    H124152   1.992   5.449  15.692 -0.7899  4.0031  0.4651
  887TIP3    H224153   2.012   5.529  15.565 -2.5876  1.0771 -1.7980
  888TIP3   OH224154   6.368   3.280  14.012 -0.3189  0.2074  0.0791
  888TIP3    H124155   6.302   3.306  14.076  0.1684  0.0754  0.6335
  888TIP3    H224156   6.327   3.299  13.927 -0.1930  2.2327  0.4445
  889TIP3   OH224157   4.631   5.546   0.395  0.0184 -0.2017  0.0939
  889TIP3    H124158   4.606   5.636   0.416 -0.6987  0.0441 -1.5897
  889TIP3    H224159   4.712   5.531   0.442 -1.5198  0.1565  3.0767
  890TIP3   OH224160   2.863   5.431  13.925  0.3572  0.8438 -0.0809
  890TIP3    H124161   2.886   5.341  13.905  0.7245  0.6716  1.0672
  890TIP3    H224162   2.777   5.426  13.966  0.7153  0.9202  0.7051
  891TIP3   OH224163   4.088   3.629   4.189  0.4088 -0.8094 -0.3395
  891TIP3    H124164   4.021   3.604   4.125  1.7373 -2.3671 -1.2000
  891TIP3    H224165   4.159   3.663   4.136 -0.0847  2.0032  0.6334
  892TIP3   OH224166   0.493   2.592   4.270  0.5824  0.2301 -0.1872
  892TIP3    H124167   0.567   2.622   4.218 -0.0125  0.0980 -1.1458
  892TIP3    H224168   0.416   2.625   4.224  0.0298  0.1008  0.6136
  893TIP3   OH224169   0.681   5.655   3.716  0.4450 -0.2284 -0.2502
  893TIP3    H124170   0.712   5.607   3.793  1.7557  0.7659 -0.1264
  893TIP3    H224171   0.721   5.609   3.642  1.9656  0.7915 -0.1142
  894TIP3   OH224172   5.514   3.646  13.894  0.8190  0.4274  0.4187
  894TIP3    H124173   5.462   3.568  13.913 -0.6322  1.5098  1.0904
  894TIP3    H224174   5.464   3.693  13.826  1.5191  0.9226  0.2267
  895TIP3   OH224175   0.069   3.808   2.321  0.1786  0.1818  0.1177
  895TIP3    H124176   0.112   3.788   2.238  2.1176  2.6281  0.4525
  895TIP3    H224177  -0.024   3.808   2.300  0.1765 -4.1192 -0.8810
  896TIP3   OH224178   4.514   5.958   2.850  0.1445 -0.1726 -0.2037
  896TIP3    H124179   4.593   5.906   2.832  0.8565  0.3006  1.3942
  896TIP3    H224180   4.444   5.910   2.807  1.0155 -1.6364 -0.0671
  897TIP3   OH224181   0.596   3.888  12.475 -0.6189 -0.0303 -0.1817
  897TIP3    H124182   0.638   3.898  12.390 -1.3013  0.5925 -0.4558
  897TIP3    H224183   0.627   3.962  12.527 -0.0461 -0.5196  0.1862
  898TIP3   OH224184   1.027   5.690   6.257 -0.5202 -0.4823  0.0394
  898TIP3    H124185   0.945   5.737   6.243  0.4761  1.0331 -0.9324
  898TIP3    H224186   1.072   5.739   6.326  0.2464 -0.3925 -0.5176
  899TIP3   OH224187   4.940   3.724  15.062  0.2545 -0.3399 -0.3915
  899TIP3    H124188   5.008   3.752  15.123 -0.4317  1.9868 -0.5886
  899TIP3    H224189   4.871   3.689  15.118  0.4512 -0.0803  0.0215
  900TIP3   OH224190   5.174   4.716   4.378 -0.6105  0.1195  0.1155
  900TIP3    H124191   5.203   4.705   4.468  1.4684 -0.4943 -0.5795
  900TIP3    H224192   5.172   4.811   4.365 -0.9731  0.2140  0.7955
  901TIP3   OH224193   1.570   5.919   0.281  0.1479  0.5285 -1.0115
  901TIP3    H124194   1.583   5.997   0.227  0.6592  0.0392 -1.6115
  901TIP3    H224195   1.610   5.849   0.231  2.0689  0.3034  0.7396
  902TIP3   OH224196   3.152   0.374   4.596 -0.4098  0.4110 -0.0348
  902TIP3    H124197   3.102   0.342   4.521  0.6475  1.3036 -1.1608
  902TIP3    H224198   3.232   0.322   4.595 -0.0560  0.9543  0.0171
  903TIP3   OH224199   5.721   2.805   4.794 -0.1986 -0.4547  0.3484
  903TIP3    H124200   5.681   2.812   4.708  0.3818 -1.1190  0.0143
  903TIP3    H224201   5.807   2.847   4.784 -1.2910  2.2608  1.4304
  904TIP3   OH224202   5.546   0.861  11.344 -0.8353  0.0388  0.6887
  904TIP3    H124203   5.545   0.765  11.345 -0.3653  0.0097 -0.4225
  904TIP3    H224204   5.595   0.885  11.423  1.8374 -0.7234 -0.6470
  905TIP3   OH224205   2.244   1.953  14.051  0.5524 -0.0955  0.2065
  905TIP3    H124206   2.162   1.943  14.099 -0.4905  1.4073 -1.1473
  905TIP3    H224207   2.311   1.962  14.119 -0.9607  2.7853  1.4818
  906TIP3   OH224208   6.678   0.076   4.947 -0.0860  0.4519  0.1983
  906TIP3    H124209   6.693  -0.011   4.910 -1.2093  0.3187  0.0305
  906TIP3    H224210   6.757   0.094   4.998  0.4925 -0.3304 -0.3971
  907TIP3   OH224211   1.701   0.866   3.020  0.0745 -0.8193  0.0303
  907TIP3    H124212   1.795   0.859   3.002  0.3713  1.0438  0.6057
  907TIP3    H224213   1.667   0.920   2.948 -0.6147 -1.6565 -0.2905
  908TIP3   OH224214   2.110   0.774  14.775  0.4241  0.1519  0.7025
  908TIP3    H124215   2.158   0.691  14.767 -0.2486 -0.1098 -1.3066
  908TIP3    H224216   2.020   0.752  14.751 -0.5295  0.8641  3.2699
  909TIP3   OH224217   0.593   2.401   2.025 -0.4939  0.1099  0.3681
  909TIP3    H124218   0.579   2.402   2.120 -0.5913  2.4653  0.4004
  909TIP3    H224219   0.505   2.394   1.988 -0.5982  0.7867  0.4763
  910TIP3   OH224220   5.412   5.676  15.026 -0.0066  0.1405  0.3074
  910TIP3    H124221   5.407   5.636  15.112 -0.9023 -0.6513 -0.0927
  910TIP3    H224222   5.321   5.681  14.997  0.4127 -1.6546 -1.5103
  911TIP3   OH224223   6.659   3.529   1.635  0.0204  0.2526  0.4198
  911TIP3    H124224   6.658   3.625   1.634 -2.2964  0.3065 -1.6935
  911TIP3    H224225   6.668   3.505   1.543 -0.7693 -1.5395  0.7756
  912TIP3   OH224226   1.294   3.275   3.377 -0.1212  0.1984  0.3842
  912TIP3    H124227   1.266   3.228   3.456  0.5870  0.7743  0.9905
  912TIP3    H224228   1.359   3.217   3.336 -0.3925 -0.0412  0.2884
  913TIP3   OH224229   2.891   2.105  12.762 -0.2061 -0.1335 -0.5285
  913TIP3    H124230   2.888   2.032  12.824  0.3394  0.3684  0.0991
  913TIP3    H224231   2.984   2.117  12.744 -0.3972 -1.3403 -2.7516
  914TIP3   OH224232   5.146   0.406   4.071 -0.1080 -0.4896 -0.3555
  914TIP3    H124233   5.218   0.468   4.082 -0.0240 -0.6446 -0.0317
  914TIP3    H224234   5.183   0.322   4.100 -0.5576 -0.4904  0.2027
  915TIP3   OH224235   1.896   1.792  15.333  0.0252  0.0313 -0.5495
  915TIP3    H124236   1.803   1.774  15.325 -0.1618 -0.1650  1.5881
  915TIP3    H224237   1.933   1.712  15.370  0.5976  1.0025  1.0574
  916TIP3   OH224238   4.201   6.696  16.809  0.5672  0.1871 -0.5792
  916TIP3    H124239   4.120   6.713  16.855  1.7063  1.2871  1.1145
  916TIP3    H224240   4.240   6.782  16.794  2.0459 -0.3669 -0.1560
  917TIP3   OH224241   3.602   2.646  11.487 -0.0775 -0.4060  1.0427
  917TIP3    H124242   3.525   2.645  11.430 -0.2508  0.2317  1.2525
  917TIP3    H224243   3.580   2.711  11.554  0.7641 -0.0182  0.9480
  918TIP3   OH224244   5.834   5.510   5.066  0.1277 -0.2834  0.5536
  918TIP3    H124245   5.899   5.543   5.128  1.9628  1.1915 -1.9737
  918TIP3    H224246   5.852   5.557   4.984 -3.5111 -0.5493 -0.5895
  919TIP3   OH224247   2.616   3.270  16.978  0.3331 -0.2081  0.1146
  919TIP3    H124248   2.563   3.192  16.964  0.6691 -0.4333  0.0899
  919TIP3    H224249   2.706   3.237  16.988  0.9762  0.3588 -2.8460
  920TIP3   OH224250   0.091   3.136  11.167  0.2684 -0.2035 -0.0785
  920TIP3    H124251   0.158   3.112  11.104  2.4364  0.7390  1.7423
  920TIP3    H224252   0.134   3.197  11.227 -2.7187  1.8302  0.2115
  921TIP3   OH224253   1.175   6.030   3.290 -0.0468  0.7390 -0.7402
  921TIP3    H124254   1.252   5.982   3.259 -0.1414  0.4893 -0.5922
  921TIP3    H224255   1.211   6.107   3.334  0.1361  0.4455 -0.3658
  922TIP3   OH224256   6.403   4.239  10.762 -0.4848 -0.1194 -0.9335
  922TIP3    H124257   6.442   4.167  10.812  2.2140  0.1588 -2.4908
  922TIP3    H224258   6.390   4.204  10.674  1.3128  1.3431 -1.8507
  923TIP3   OH224259   1.772   6.538  12.741  0.4970  0.0262 -0.0342
  923TIP3    H124260   1.794   6.459  12.790 -1.7014 -1.8778 -1.8992
  923TIP3    H224261   1.816   6.526  12.656  0.0349  0.7563 -0.3838
  924TIP3   OH224262   5.584   0.205   4.546  0.0520  0.3389 -0.0319
  924TIP3    H124263   5.496   0.199   4.584 -1.2101  0.0573 -2.7717
  924TIP3    H224264   5.609   0.115   4.527  2.0205  0.1655  2.7604
  925TIP3   OH224265   6.569   4.218  12.346 -0.1223 -0.4700  0.3322
  925TIP3    H124266   6.578   4.167  12.265  0.1220 -0.7514  0.5328
  925TIP3    H224267   6.477   4.208  12.371 -0.0345 -0.9659  0.4674
  926TIP3   OH224268   1.027   3.343   6.114  0.2502  0.2496  0.0117
  926TIP3    H124269   1.016   3.436   6.091 -0.1647  0.3504  0.5788
  926TIP3    H224270   1.016   3.341   6.209  1.9833 -0.1453  0.2340
  927TIP3   OH224271   4.025   5.099  10.736 -0.5689 -0.2710  0.0361
  927TIP3    H124272   3.948   5.145  10.704  1.0839  1.6930 -1.3748
  927TIP3    H224273   4.069   5.069  10.656  1.5417  1.1167  0.6049
  928TIP3   OH224274   6.371   3.207   3.139 -0.3159  0.0852 -0.1817
  928TIP3    H124275   6.380   3.203   3.044  0.4808  0.7043 -0.1362
  928TIP3    H224276   6.372   3.115   3.167 -1.2851 -0.1386 -0.8222
  929TIP3   OH224277   6.050   6.368   0.195  0.5021 -0.1879  0.0934
  929TIP3    H124278   6.089   6.336   0.114  0.5158  0.8396 -0.3308
  929TIP3    H224279   6.119   6.422   0.234 -0.2890  1.2400 -0.4111
  930TIP3   OH224280   1.977   4.380  11.090  0.1375  0.2914  0.0117
  930TIP3    H124281   1.925   4.370  11.170  0.9752 -0.4048  0.4899
  930TIP3    H224282   1.954   4.467  11.057 -1.0044  0.1711  0.4326
  931TIP3   OH224283   6.774   0.298   3.408  0.3829  0.0729 -0.4341
  931TIP3    H124284   6.866   0.273   3.406  0.6244  0.7527  1.0831
  931TIP3    H224285   6.736   0.243   3.477 -0.0946  0.5945 -0.2731
  932TIP3   OH224286   5.197   4.121  13.485 -0.2144 -0.8819  0.6143
  932TIP3    H124287   5.244   4.105  13.567  1.0675  0.6942  0.2404
  932TIP3    H224288   5.219   4.211  13.462 -1.6172 -0.8584 -0.7909
  933TIP3   OH224289   0.704   3.465   0.668  0.0078 -0.4821  0.3686
  933TIP3    H124290   0.610   3.479   0.655 -1.1245 -2.5543  4.5022
  933TIP3    H224291   0.736   3.546   0.707 -0.6717 -0.5651  1.1316
  934TIP3   OH224292   5.634   5.975   3.773  0.0753 -0.3457 -0.3134
  934TIP3    H124293   5.564   5.998   3.713 -1.5412  0.8944  1.8988
  934TIP3    H224294   5.638   6.048   3.835  0.9282 -1.9638  1.6792
  935TIP3   OH224295   4.818   0.026   4.368  0.3464 -0.2115 -0.1617
  935TIP3    H124296   4.890   0.088   4.367 -1.9887  2.7447 -1.8663
  935TIP3    H224297   4.759   0.058   4.437 -1.3830  0.1359 -1.7338
  936TIP3   OH224298   0.031   6.828  11.149  0.8082 -0.1928 -0.3798
  936TIP3    H124299  -0.047   6.829  11.093  1.8413  0.3723 -1.8658
  936TIP3    H224300   0.055   6.735  11.155 -1.2696 -0.6786  2.0466
  937TIP3   OH224301   1.694   5.360   1.184 -0.0993  0.4739 -0.6068
  937TIP3    H124302   1.715   5.379   1.276 -0.2363  0.4736 -0.5753
  937TIP3    H224303   1.687   5.446   1.143  0.2443  0.4675 -0.6810
  938TIP3   OH224304   6.536   6.169  11.076  0.3672 -0.7966  0.6477
  938TIP3    H124305   6.584   6.090  11.099 -0.1512 -2.2366 -2.6602
  938TIP3    H224306   6.603   6.232  11.050  0.7278 -0.3065  2.5639
  939TIP3   OH224307   4.398   0.227   5.519 -0.4080  0.3484  0.0744
  939TIP3    H124308   4.306   0.248   5.537 -0.3661  1.0808 -0.5463
  939TIP3    H224309   4.426   0.292   5.455  0.0350 -0.9195 -1.0800
  940TIP3   OH224310   4.756   4.288  14.136  0.4495  0.2647 -0.5822
  940TIP3    H124311   4.772   4.287  14.042  2.8871 -1.4164 -0.2255
  940TIP3    H224312   4.785   4.202  14.167  0.6343  1.1146  1.8435
  941TIP3   OH224313   0.779   4.353  14.259 -0.4060 -0.2498 -0.6392
  941TIP3    H124314   0.776   4.354  14.355  2.7911 -2.1839 -0.3852
  941TIP3    H224315   0.789   4.445  14.235 -3.5033  0.5540  0.6170
  942TIP3   OH224316   0.146   3.698   0.670  0.2434 -0.7707  0.3544
  942TIP3    H124317   0.149   3.660   0.757  0.9860 -1.9017 -0.1306
  942TIP3    H224318   0.142   3.623   0.611 -3.0369 -0.0400 -0.5585
  943TIP3   OH224319   3.061   6.039   1.486  0.2181  0.2222 -0.2901
  943TIP3    H124320   3.126   5.987   1.533 -1.2791 -0.5837  0.9666
  943TIP3    H224321   3.092   6.129   1.492  0.1478  0.1439  2.1956
  944TIP3   OH224322   3.039   3.720   3.697 -0.4408  0.2859 -0.4136
  944TIP3    H124323   3.031   3.688   3.607  1.8075 -1.1520 -0.2013
  944TIP3    H224324   2.953   3.707   3.735 -0.3319 -3.4847 -1.0648
  945TIP3   OH224325   2.109   3.001   5.851 -0.2374  0.4327  0.2918
  945TIP3    H124326   2.129   2.951   5.929  0.3479 -0.5490 -0.4693
  945TIP3    H224327   2.144   3.089   5.869  3.1617 -0.6961 -0.2336
  946TIP3   OH224328   5.972   3.276  16.878 -0.9028 -0.3643 -0.4594
  946TIP3    H124329   5.919   3.349  16.845  0.1051  0.6860  0.1405
  946TIP3    H224330   5.930   3.253  16.961 -0.9888 -0.1940 -0.4533
  947TIP3   OH224331   4.776   3.094  10.609 -0.1703  0.2780 -0.2019
  947TIP3    H124332   4.777   3.190  10.604 -1.9572  0.2949 -0.8944
  947TIP3    H224333   4.721   3.067  10.535  0.1018 -1.2814  0.1368
  948TIP3   OH224334   6.424   6.533  13.249 -0.1466 -0.2681 -0.2842
  948TIP3    H124335   6.426   6.593  13.324 -0.2317 -2.3368  1.4641
  948TIP3    H224336   6.332   6.511  13.239 -0.3253  1.0416 -1.9534
  949TIP3   OH224337   2.475   6.147  14.040  0.3160 -0.2387 -0.5477
  949TIP3    H124338   2.527   6.101  13.974 -0.4469  0.3429 -1.5968
  949TIP3    H224339   2.393   6.098  14.044 -0.3023  0.6867 -1.3015
  950TIP3   OH224340   6.532   3.387   1.104  0.0421  0.2640 -0.5473
  950TIP3    H124341   6.522   3.311   1.047 -0.0355  0.1041 -0.3241
  950TIP3    H224342   6.444   3.423   1.111 -0.1463 -0.3228  0.2947
  951TIP3   OH224343   1.356   6.714   2.057 -0.1030 -0.3394  0.3470
  951TIP3    H124344   1.440   6.755   2.035 -0.3698 -0.2342 -0.5328
  951TIP3    H224345   1.344   6.731   2.150  1.5593 -1.6740  0.8438
  952TIP3   OH224346   5.334   0.308  14.735  0.5164 -0.4470  0.4786
  952TIP3    H124347   5.390   0.373  14.777  0.8248  0.2673 -0.9724
  952TIP3    H224348   5.384   0.280  14.658 -1.0007  0.0330 -0.7269
  953TIP3   OH224349   3.474   1.640   4.227  0.4739  0.1169 -0.1491
  953TIP3    H124350   3.432   1.559   4.253 -0.0263 -0.1993 -1.8174
  953TIP3    H224351   3.512   1.675   4.308 -0.6087 -0.9885  0.8718
  954TIP3   OH224352   4.035   3.033  15.031 -0.0833  0.4436 -0.2431
  954TIP3    H124353   4.005   3.116  15.068  0.2300  0.6835 -0.5208
  954TIP3    H224354   4.090   2.994  15.099 -0.1391  0.5188 -0.1550
  955TIP3   OH224355   2.880   4.824   6.244 -0.0790 -1.0741  0.2382
  955TIP3    H124356   2.926   4.755   6.292  0.1424 -1.3050 -0.2949
  955TIP3    H224357   2.902   4.905   6.291  2.6936 -0.8506 -1.1928
  956TIP3   OH224358   2.809   1.138   2.304 -0.2518  0.3768 -0.3023
  956TIP3    H124359   2.786   1.046   2.308 -0.1687  0.3684  0.0131
  956TIP3    H224360   2.896   1.143   2.345  0.0495  0.4905 -0.9474
  957TIP3   OH224361   0.349   0.175  11.197 -0.3167  0.2862  0.6044
  957TIP3    H124362   0.379   0.265  11.185  0.6800  0.2256  2.2321
  957TIP3    H224363   0.253   0.180  11.190 -0.3874  1.7451  2.0353
  958TIP3   OH224364   2.754   0.035   4.978  0.2903  0.1584 -0.0671
  958TIP3    H124365   2.664   0.008   4.997  0.4846  0.8561  2.1361
  958TIP3    H224366   2.786   0.073   5.061  2.3830  0.5520 -0.9855
  959TIP3   OH224367   6.503   0.186  11.429 -0.5759 -0.0343 -0.3647
  959TIP3    H124368   6.466   0.098  11.442 -0.5946  0.2430  1.7815
  959TIP3    H224369   6.546   0.206  11.511 -0.8010  2.1015 -0.7178
  960TIP3   OH224370   4.506   0.828   2.703  0.5732  0.2886  0.2081
  960TIP3    H124371   4.526   0.826   2.610 -1.9120 -1.6410 -0.3797
  960TIP3    H224372   4.432   0.889   2.711 -1.4058 -1.9721  0.2998
  961TIP3   OH224373   2.397   0.527   3.689 -0.0175 -0.0321  0.8001
  961TIP3    H124374   2.306   0.538   3.661  0.6408  0.1163 -1.4957
  961TIP3    H224375   2.445   0.592   3.639  1.7072 -1.9731 -0.2265
  962TIP3   OH224376   3.297   5.009  14.319 -0.5413  0.1530  0.1212
  962TIP3    H124377   3.281   4.915  14.326  1.0236 -0.1305  0.2088
  962TIP3    H224378   3.373   5.024  14.375  0.2915  1.1672 -1.2451
  963TIP3   OH224379   0.809   1.699   2.592  0.0420 -0.6063  0.1665
  963TIP3    H124380   0.814   1.661   2.504 -0.8232 -0.2062 -0.0658
  963TIP3    H224381   0.815   1.793   2.578 -0.2656 -0.5314  0.5239
  964TIP3   OH224382   0.452   3.106  16.599 -0.1914 -0.1022 -0.0128
  964TIP3    H124383   0.454   3.011  16.610  1.3526  0.0088  1.0962
  964TIP3    H224384   0.391   3.137  16.667 -0.3212 -0.2619 -0.0572
  965TIP3   OH224385   0.961   1.231  13.418 -0.9415 -0.5446  0.1217
  965TIP3    H124386   0.908   1.166  13.373 -2.5453  0.9535 -0.2716
  965TIP3    H224387   0.901   1.271  13.482 -0.0260  0.5477  0.3364
  966TIP3   OH224388   6.375   1.905   0.003  0.1125  0.5578 -0.4688
  966TIP3    H124389   6.445   1.945  -0.048  0.7882  0.5343  0.4309
  966TIP3    H224390   6.363   1.962   0.079 -0.3839  0.2065 -0.2707
  967TIP3   OH224391   1.451   1.302   0.581 -0.2635  0.1623 -0.1342
  967TIP3    H124392   1.388   1.232   0.596 -0.2076  0.1073 -0.1561
  967TIP3    H224393   1.500   1.308   0.663  0.6814 -0.7812 -0.6149
  968TIP3   OH224394   0.419   5.166  15.474  0.1793 -0.4884 -0.1440
  968TIP3    H124395   0.430   5.159  15.569  3.1130  3.5354  0.0555
  968TIP3    H224396   0.368   5.247  15.462  1.2437 -0.0405 -1.9850
  969TIP3   OH224397   6.089   1.674   1.216 -0.0507  0.0107 -0.2298
  969TIP3    H124398   6.045   1.605   1.265 -2.2527  0.3010 -1.6475
  969TIP3    H224399   6.033   1.751   1.227  1.1757  0.9823 -0.4972
  970TIP3   OH224400   0.214   1.065   4.288 -0.4776  0.4260  0.0112
  970TIP3    H124401   0.120   1.079   4.300 -0.4235  1.0547 -0.2562
  970TIP3    H224402   0.219   0.982   4.240 -0.9234  0.6694 -0.4714
  971TIP3   OH224403   1.792   5.046   1.486  0.3991  0.1341 -0.1938
  971TIP3    H124404   1.859   4.987   1.523  0.7768  0.4721 -0.3265
  971TIP3    H224405   1.814   5.051   1.393  0.4330  0.5670 -0.1645
  972TIP3   OH224406   5.533   2.423  12.599  0.7988  0.5189  0.1058
  972TIP3    H124407   5.453   2.406  12.649  1.3874  0.4193  1.0219
  972TIP3    H224408   5.551   2.516  12.614 -0.1890  1.0559 -1.6662
  973TIP3   OH224409   0.808   5.891  11.128  0.6419 -0.3368  0.4337
  973TIP3    H124410   0.879   5.934  11.176  1.0062 -0.4793  0.0235
  973TIP3    H224411   0.852   5.837  11.063  0.1976 -1.3004  0.9005
  974TIP3   OH224412   5.904   6.753  14.934 -0.4636 -0.4888 -0.2365
  974TIP3    H124413   5.880   6.766  15.025 -0.9501  1.3065 -0.5873
  974TIP3    H224414   5.826   6.714  14.894 -0.8702  0.2868 -0.2226
  975TIP3   OH224415   5.917   0.153  14.307  0.0471 -0.4547  0.0140
  975TIP3    H124416   5.875   0.177  14.390  0.3364 -1.1387  0.3672
  975TIP3    H224417   5.926   0.058  14.312 -3.0797 -1.0268 -2.2718
  976TIP3   OH224418   3.372   0.853  15.855 -0.1015 -0.6371  0.1655
  976TIP3    H124419   3.421   0.928  15.820  0.2697 -0.9745 -0.0448
  976TIP3    H224420   3.281   0.883  15.860  0.3160  0.5132  1.9190
  977TIP3   OH224421   2.787   4.270  10.990  0.3434 -0.1959 -0.4172
  977TIP3    H124422   2.875   4.239  10.966  0.4634 -0.3566  0.2118
  977TIP3    H224423   2.804   4.347  11.045  0.0841 -0.1762 -0.3659
  978TIP3   OH224424   1.955   6.081  14.174 -0.2788  0.2790 -0.7713
  978TIP3    H124425   1.964   5.987  14.162 -0.7648 -0.0787  1.3504
  978TIP3    H224426   2.033   6.118  14.132  0.7353 -1.1882 -0.2523
  979TIP3   OH224427   4.036   3.191   6.022  0.5898 -0.1703  0.4246
  979TIP3    H124428   4.088   3.117   6.053  1.2091  0.1207  0.1061
  979TIP3    H224429   4.100   3.260   6.007 -0.1578  0.9950  2.3053
  980TIP3   OH224430   4.349   5.367  14.217 -0.1821 -0.5818  0.3125
  980TIP3    H124431   4.408   5.335  14.285  0.0242  1.0372  0.9504
  980TIP3    H224432   4.269   5.390  14.264 -0.4622 -0.5543 -0.1751
  981TIP3   OH224433   4.360   2.517  15.591 -0.4075  0.1895 -0.0230
  981TIP3    H124434   4.452   2.539  15.609 -1.1474  2.7326  1.1715
  981TIP3    H224435   4.356   2.509  15.496  0.6434  2.5949 -0.3577
  982TIP3   OH224436   6.327   5.723  15.778  0.0374 -0.3059 -0.5595
  982TIP3    H124437   6.398   5.665  15.807  0.4002 -0.3238 -1.4550
  982TIP3    H224438   6.253   5.665  15.763  0.0912 -0.4007 -0.4632
  983TIP3   OH224439   6.156   3.345  15.383 -0.0490  0.3278  0.0368
  983TIP3    H124440   6.135   3.426  15.337  1.3591  0.4776 -0.3693
  983TIP3    H224441   6.117   3.356  15.470 -2.7967  0.0213 -1.0488
  984TIP3   OH224442   6.050   0.345   0.692  0.6300  0.0679  0.4422
  984TIP3    H124443   6.026   0.387   0.610  3.4604  3.5507  1.1534
  984TIP3    H224444   6.105   0.271   0.666 -1.2626 -0.9783 -0.7831
  985TIP3   OH224445   5.168   4.595   5.509  0.4422 -0.3586  0.7898
  985TIP3    H124446   5.092   4.582   5.451  0.5864  1.7205  0.0486
  985TIP3    H224447   5.157   4.684   5.544  3.0960  0.5046 -0.2847
  986TIP3   OH224448   6.768   0.407  16.124 -0.1158  0.4905  0.4070
  986TIP3    H124449   6.817   0.402  16.042 -0.4998 -1.0047  0.2358
  986TIP3    H224450   6.746   0.500  16.133 -0.0837  0.6880 -1.1822
  987TIP3   OH224451   1.235   2.467   3.511 -0.0116  0.1849 -0.0132
  987TIP3    H124452   1.215   2.558   3.489  0.1891  0.7672  2.0231
  987TIP3    H224453   1.300   2.472   3.581 -0.0874 -1.5194  0.2357
  988TIP3   OH224454   5.471   3.911   4.633  0.3145 -0.2720  0.2647
  988TIP3    H124455   5.409   3.838   4.630 -1.5463  1.2438 -0.5606
  988TIP3    H224456   5.463   3.946   4.722  0.4444 -0.4703  0.3530
  989TIP3   OH224457   0.716   3.772  11.766  0.9327  0.3294  0.3776
  989TIP3    H124458   0.670   3.714  11.828 -1.2802 -0.7255 -2.0605
  989TIP3    H224459   0.710   3.859  11.806 -2.8772  0.1720  0.4939
  990TIP3   OH224460   6.627   1.727   2.748  0.0896 -0.2110  0.0810
  990TIP3    H124461   6.599   1.761   2.833 -1.2440 -1.4140  0.1525
  990TIP3    H224462   6.686   1.794   2.713 -0.3021  0.8533  1.4110
  991TIP3   OH224463   2.130   3.338  12.905 -0.0520 -0.6720  0.4959
  991TIP3    H124464   2.156   3.303  12.991 -1.1440 -1.0730  0.6730
  991TIP3    H224465   2.153   3.430  12.910 -0.2377 -0.6563  1.2865
  992TIP3   OH224466   2.915   4.349  12.224 -0.5307  0.3627  0.4782
  992TIP3    H124467   2.930   4.257  12.244 -1.4680  0.0625 -0.1510
  992TIP3    H224468   2.863   4.381  12.298 -0.9270  0.1672  0.2865
  993TIP3   OH224469   2.520   3.095   4.861 -0.3632  0.2169 -0.0800
  993TIP3    H124470   2.549   3.159   4.795  0.0719 -0.1779 -0.2776
  993TIP3    H224471   2.445   3.137   4.903 -0.7824  0.3889 -0.9703
  994TIP3   OH224472   3.261   4.357  16.830  0.2974 -0.2131  0.3747
  994TIP3    H124473   3.219   4.441  16.849 -0.6906 -0.8807  1.1989
  994TIP3    H224474   3.342   4.360  16.881 -0.3100 -0.2392  1.3678
  995TIP3   OH224475   3.832   6.067   1.388 -0.6973 -0.0778  0.2263
  995TIP3    H124476   3.862   6.118   1.313 -1.5706  1.3267  0.7960
  995TIP3    H224477   3.894   6.088   1.458 -0.4041 -0.6970  0.1659
  996TIP3   OH224478   1.701   6.154  12.713  0.1569 -0.5055 -0.0892
  996TIP3    H124479   1.620   6.204  12.714  0.1414 -0.4937 -1.2119
  996TIP3    H224480   1.758   6.199  12.776 -0.0980  0.5153 -0.5705
  997TIP3   OH224481   0.065   3.357  10.587 -0.8506 -0.1826 -0.0760
  997TIP3    H124482   0.015   3.438  10.582 -1.2014 -0.4061 -0.2710
  997TIP3    H224483   0.082   3.345  10.680 -1.4761 -0.2870  0.0298
  998TIP3   OH224484   0.118   5.918  15.267  0.5290 -0.3273 -0.6844
  998TIP3    H124485   0.120   5.998  15.320 -0.8243 -0.3108 -0.6276
  998TIP3    H224486   0.038   5.926  15.214  0.5187 -1.5190 -0.8749
  999TIP3   OH224487   5.879   6.594   0.799 -0.4609 -0.2660 -0.2906
  999TIP3    H124488   5.902   6.687   0.799 -1.0818 -0.0981 -1.0570
  999TIP3    H224489   5.960   6.549   0.775 -0.4977  0.1938 -1.3251
 1000TIP3   OH224490   4.183   6.563  14.481  0.1920  0.3046 -0.6267
 1000TIP3    H124491   4.232   6.605  14.551  0.8079  1.9158 -1.9602
 1000TIP3    H224492   4.243   6.496  14.447  0.4623  0.5063 -0.5497
 1001TIP3   OH224493   4.168   0.099  12.310 -0.6954  0.0586  0.1961
 1001TIP3    H124494   4.201   0.016  12.344  0.1349 -0.1699 -1.1247
 1001TIP3    H224495   4.229   0.164  12.343 -1.5546  0.2358  1.5454
 1002TIP3   OH224496   5.026   0.493   3.439 -0.3545  0.4245  0.1016
 1002TIP3    H124497   5.047   0.466   3.528  1.0742 -1.2849 -0.6820
 1002TIP3    H224498   5.026   0.589   3.442 -0.7306  0.3988  1.9958
 1003TIP3   OH224499   6.052   4.406   4.833  0.6196  0.1219 -0.1466
 1003TIP3    H124500   6.085   4.433   4.919 -1.2234 -0.1983  0.6965
 1003TIP3    H224501   6.000   4.481   4.803  1.4563  0.3341 -1.1279
 1004TIP3   OH224502   1.948   1.095  11.492  0.2002  0.3599  0.6334
 1004TIP3    H124503   1.900   1.042  11.428  0.0009  2.0068 -0.6576
 1004TIP3    H224504   2.039   1.069  11.480 -0.0137 -0.6004  0.9560
 1005TIP3   OH224505   5.033   0.359   5.033  0.4093 -0.4594  0.1808
 1005TIP3    H124506   5.094   0.400   4.973  0.0625 -1.2870 -0.7630
 1005TIP3    H224507   5.070   0.273   5.052 -0.7616 -1.2535 -0.9514
 1006TIP3   OH224508   5.675   2.598   4.964  0.2042  0.3760  0.3837
 1006TIP3    H124509   5.684   2.675   4.908  1.3825  0.3158  0.4710
 1006TIP3    H224510   5.762   2.586   5.003 -0.2964 -0.2478  1.3552
 1007TIP3   OH224511   1.384   0.116   2.480 -0.4468  0.1610 -0.3314
 1007TIP3    H124512   1.355   0.182   2.417 -0.0644  1.8533  1.1697
 1007TIP3    H224513   1.347   0.145   2.563 -1.3370 -2.2534  0.2122
 1008TIP3   OH224514   1.206   3.599   3.452 -0.0405  0.7799 -0.1967
 1008TIP3    H124515   1.274   3.532   3.451 -1.3029 -0.5719  0.5360
 1008TIP3    H224516   1.182   3.609   3.359  0.8211  0.9410 -0.4106
 1009TIP3   OH224517   5.827   0.959   5.617 -0.8446  0.2709 -0.1271
 1009TIP3    H124518   5.863   0.871   5.608 -1.2370  0.0783  0.1975
 1009TIP3    H224519   5.740   0.953   5.578 -1.3348  0.2180  0.9555
 1010TIP3   OH224520   3.025   6.568   4.385  0.1237  0.0609 -0.2309
 1010TIP3    H124521   2.942   6.602   4.419 -0.0955 -0.4760 -0.2245
 1010TIP3    H224522   3.068   6.645   4.348 -0.4037  0.3366 -0.2924
 1011TIP3   OH224523   5.099   2.280   4.195 -0.7397 -0.3449  0.1454
 1011TIP3    H124524   5.172   2.343   4.194 -1.3122  0.3410 -1.1756
 1011TIP3    H224525   5.135   2.203   4.240  1.2167 -0.4818 -1.4967
 1012TIP3   OH224526   2.896   1.934   3.123  0.3865  0.0232  0.5033
 1012TIP3    H124527   2.989   1.924   3.144  0.6637 -0.2991 -0.7761
 1012TIP3    H224528   2.895   1.957   3.030 -0.8537 -0.9828  0.2381
 1013TIP3   OH224529   0.319   2.294   0.518 -0.5588  0.0662 -0.4659
 1013TIP3    H124530   0.380   2.368   0.513  0.6062 -0.9273 -2.1492
 1013TIP3    H224531   0.275   2.294   0.433 -0.6397 -1.0825 -0.4382
 1014TIP3   OH224532   1.594   1.642  12.480  0.2011  0.2062  0.1119
 1014TIP3    H124533   1.508   1.600  12.469  0.4748 -0.4482  0.4202
 1014TIP3    H224534   1.652   1.571  12.508  0.9516  0.5465 -0.5384
 1015TIP3   OH224535   3.793   5.940   3.419 -0.3759  0.4586  0.0107
 1015TIP3    H124536   3.843   5.918   3.340 -0.6120 -0.9690  0.2418
 1015TIP3    H224537   3.858   5.974   3.480  0.0432  0.1801 -0.2771
 1016TIP3   OH224538   5.430   5.160   2.482 -0.0121 -0.7713 -0.7683
 1016TIP3    H124539   5.348   5.187   2.522  1.2624  0.0073  1.4888
 1016TIP3    H224540   5.419   5.180   2.389 -1.8669  0.5555 -0.3146
 1017TIP3   OH224541   6.814   0.989  16.655  0.2369  0.0234  0.0079
 1017TIP3    H124542   6.871   0.991  16.732  1.1829  1.2897 -0.7003
 1017TIP3    H224543   6.811   1.079  16.624 -0.8272 -0.3124 -0.9488
 1018TIP3   OH224544   6.752   1.041   5.859  0.0526 -0.2168 -0.2062
 1018TIP3    H124545   6.845   1.018   5.863 -0.0142 -0.3640  0.7509
 1018TIP3    H224546   6.709   0.976   5.914 -0.7051 -0.5078 -1.1121
 1019TIP3   OH224547   3.645   1.939   5.661  0.1426 -0.2957 -0.3811
 1019TIP3    H124548   3.693   1.869   5.616 -0.0821 -1.2482  0.8109
 1019TIP3    H224549   3.713   1.987   5.709  0.1493 -0.4659 -0.2177
 1020TIP3   OH224550   4.042   1.048  14.356 -0.1901  0.2610 -0.0150
 1020TIP3    H124551   4.011   1.139  14.348 -2.4235 -0.4642 -0.3577
 1020TIP3    H224552   4.088   1.031  14.274 -0.1600  0.9426 -0.1461
 1021TIP3   OH224553   2.859   5.914   0.482  0.9400  0.1022  0.5013
 1021TIP3    H124554   2.764   5.905   0.488  0.7716 -0.0823 -1.6809
 1021TIP3    H224555   2.892   5.824   0.489  0.8566  0.0323  0.0084
 1022TIP3   OH224556   6.513   0.070   1.634  0.9079  0.6785  0.1532
 1022TIP3    H124557   6.517   0.015   1.712 -2.3313  1.2442  0.8570
 1022TIP3    H224558   6.464   0.148   1.661 -1.4634  0.3458 -2.6234
 1023TIP3   OH224559   1.496   0.695   1.772  0.4552 -0.3127 -0.4152
 1023TIP3    H124560   1.590   0.685   1.785  0.3127  1.7732  3.6934
 1023TIP3    H224561   1.470   0.765   1.832 -3.7029 -0.5173 -1.6341
 1024TIP3   OH224562   4.747   4.611  15.679 -0.5130  0.8978 -0.5255
 1024TIP3    H124563   4.706   4.619  15.592 -0.9428  0.2883 -0.3839
 1024TIP3    H224564   4.714   4.687  15.728 -1.0048  0.7437 -0.6056
 1025TIP3   OH224565   5.623   2.989  12.553 -0.1856  0.0244  0.0303
 1025TIP3    H124566   5.652   2.998  12.644 -1.4106 -0.7659  0.5306
 1025TIP3    H224567   5.528   2.976  12.559 -0.4847  1.1938 -1.4481
 1026TIP3   OH224568   3.015   2.507  12.658 -0.0824  0.5715  0.0558
 1026TIP3    H124569   3.080   2.485  12.592 -0.0491 -1.4093  0.6987
 1026TIP3    H224570   2.943   2.446  12.643 -1.3067  1.9570  0.0942
 1027TIP3   OH224571   1.186   6.818  13.014  0.3279 -0.1789  0.1975
 1027TIP3    H124572   1.253   6.753  13.035  3.1033  2.1814 -0.6145
 1027TIP3    H224573   1.132   6.778  12.946  1.0477 -2.1047  0.7194
 1028TIP3   OH224574   6.672   2.316  11.574  0.5096  0.5661 -0.1352
 1028TIP3    H124575   6.592   2.316  11.627  0.1008  0.5449 -0.7501
 1028TIP3    H224576   6.658   2.248  11.509  1.9355 -0.9789  1.0956
 1029TIP3   OH224577   0.781   2.441  12.366 -0.0058  0.8674 -0.5093
 1029TIP3    H124578   0.708   2.379  12.373  1.5280 -0.8890  2.1945
 1029TIP3    H224579   0.851   2.390  12.325  1.0154  1.0093  0.9764
 1030TIP3   OH224580   3.416   5.568   1.074  0.4300  0.4311 -0.0042
 1030TIP3    H124581   3.414   5.635   1.006 -0.5340 -0.0177 -0.4462
 1030TIP3    H224582   3.475   5.602   1.141  0.7063  1.2736 -0.6681
 1031TIP3   OH224583   0.728   0.524  15.455  0.0794 -0.3736  0.1102
 1031TIP3    H124584   0.672   0.525  15.378 -1.3034  3.6351  0.9117
 1031TIP3    H224585   0.669   0.502  15.527  0.7957 -1.4750  0.3862
 1032TIP3   OH224586   1.144   5.277   4.269  0.5349  0.1649  0.3649
 1032TIP3    H124587   1.183   5.364   4.277 -0.5975  0.7955 -0.5886
 1032TIP3    H224588   1.056   5.294   4.234 -0.8753 -1.1121  2.9791
 1033TIP3   OH224589   5.274   4.795  15.135 -0.0239  0.6765  0.8427
 1033TIP3    H124590   5.353   4.846  15.116  0.4053  0.4309  1.9034
 1033TIP3    H224591   5.228   4.847  15.201 -0.4502  0.5286  0.6598
 1034TIP3   OH224592   0.743   2.339   1.696 -0.4905  0.4895  0.2330
 1034TIP3    H124593   0.831   2.349   1.659 -0.6973 -0.5072 -0.5749
 1034TIP3    H224594   0.757   2.337   1.791  0.1811  1.9144  0.1956
 1035TIP3   OH224595   2.608   3.195  16.614 -0.0936 -0.0799  0.4454
 1035TIP3    H124596   2.693   3.239  16.613 -0.1013 -0.0656 -0.2467
 1035TIP3    H224597   2.621   3.118  16.669  0.4034 -0.1440  0.2460
 1036TIP3   OH224598   6.108   5.370   2.321 -0.4187  0.6989  0.5240
 1036TIP3    H124599   6.166   5.317   2.266 -2.3013  0.5918 -1.5040
 1036TIP3    H224600   6.166   5.434   2.362  1.3342 -0.3850 -0.1478
 1037TIP3   OH224601   4.433   1.374   2.172 -0.3732 -0.3648  0.5688
 1037TIP3    H124602   4.485   1.430   2.114 -0.6279 -1.7856 -1.1004
 1037TIP3    H224603   4.488   1.297   2.187 -0.3777 -0.0957  2.1182
 1038TIP3   OH224604   0.848   5.676  11.874 -0.4911  0.0133  0.2432
 1038TIP3    H124605   0.838   5.746  11.938  0.4778 -0.3257  0.7849
 1038TIP3    H224606   0.930   5.695  11.830 -0.5409 -0.4330 -0.0516
 1039TIP3   OH224607   1.738   4.048  12.707 -0.4349 -0.1595 -0.1725
 1039TIP3    H124608   1.682   4.052  12.784  0.4278 -0.1318  0.4603
 1039TIP3    H224609   1.747   3.955  12.689 -2.1941 -0.1512 -1.4231
 1040TIP3   OH224610   2.073   3.979  14.910 -0.1996 -0.4265  0.1589
 1040TIP3    H124611   2.023   4.005  14.987  0.0348 -0.1339  0.2116
 1040TIP3    H224612   2.162   3.964  14.943  0.2836  1.2084 -0.3108
 1041TIP3   OH224613   0.345   6.135   6.909 -0.5006 -0.0153 -0.2887
 1041TIP3    H124614   0.410   6.200   6.881 -0.8830  1.7492  2.4731
 1041TIP3    H224615   0.264   6.163   6.866 -0.8429  1.9506  1.4769
 1042TIP3   OH224616   3.165   3.167   4.135  0.4905 -0.1635 -0.0626
 1042TIP3    H124617   3.101   3.230   4.101  0.1211  0.1972  1.2405
 1042TIP3    H224618   3.129   3.139   4.219  0.5524 -2.2907 -0.6790
 1043TIP3   OH224619   4.222   5.342   4.891  0.3394 -0.0324  0.1159
 1043TIP3    H124620   4.306   5.311   4.855  0.4144 -1.7369  1.6278
 1043TIP3    H224621   4.241   5.363   4.982 -1.0449 -1.3175  0.7341
 1044TIP3   OH224622   6.612   3.472  14.599  0.0775  0.0751 -0.1276
 1044TIP3    H124623   6.652   3.404  14.545  1.9833  1.0564 -0.0121
 1044TIP3    H224624   6.654   3.553  14.571 -0.5838  0.9307  1.2334
 1045TIP3   OH224625   6.847   2.574  12.146  0.2063  0.1536  0.0870
 1045TIP3    H124626   6.886   2.520  12.215 -0.1267 -0.0977  0.0791
 1045TIP3    H224627   6.760   2.596  12.179  0.1938  0.3615 -0.0821
 1046TIP3   OH224628   4.559   6.269  13.211 -0.3486 -0.0588  0.0399
 1046TIP3    H124629   4.502   6.290  13.285 -0.2181  0.8947 -0.1230
 1046TIP3    H224630   4.630   6.217  13.249 -0.1276  0.6641  0.6342
 1047TIP3   OH224631   1.305   1.028  12.348 -0.4535 -0.0494 -0.5100
 1047TIP3    H124632   1.279   0.941  12.379 -1.3403  0.5750  0.6022
 1047TIP3    H224633   1.390   1.044  12.390 -1.4085  0.5766  1.3014
 1048TIP3   OH224634   4.797   3.599   5.269 -0.0036  0.1664 -0.2051
 1048TIP3    H124635   4.822   3.546   5.193  0.2084 -1.6611  1.0550
 1048TIP3    H224636   4.798   3.689   5.237  3.7754 -0.1180 -1.4630
 1049TIP3   OH224637   5.443   4.232  14.181  0.8662  0.4891 -0.2492
 1049TIP3    H124638   5.455   4.287  14.104  1.8884 -1.0424 -1.2314
 1049TIP3    H224639   5.410   4.292  14.248 -1.2238  1.6789 -2.1639
 1050TIP3   OH224640   5.654   2.315   1.122  0.3937  0.1075  0.2136
 1050TIP3    H124641   5.707   2.365   1.184  1.4025 -0.6283 -0.0194
 1050TIP3    H224642   5.690   2.336   1.036 -2.7474  3.2957 -0.5566
 1051TIP3   OH224643   4.898   6.168   3.119 -0.9140  0.1292  0.1876
 1051TIP3    H124644   4.955   6.092   3.108 -1.3908 -0.0027 -1.6214
 1051TIP3    H224645   4.958   6.243   3.123 -0.4840 -0.2455  1.3139
 1052TIP3   OH224646   4.415   6.267  15.137  0.1731 -0.2131 -0.5011
 1052TIP3    H124647   4.375   6.286  15.222 -0.1148  0.8022 -0.8418
 1052TIP3    H224648   4.471   6.191  15.152  0.5997  0.3321  0.7402
 1053TIP3   OH224649   5.689   5.570   1.965 -0.6557 -0.0800  0.7878
 1053TIP3    H124650   5.720   5.546   2.053 -0.9327 -0.3709  0.8122
 1053TIP3    H224651   5.735   5.510   1.907 -0.4204  0.1592  0.7261
 1054TIP3   OH224652   4.195   3.631  10.768  0.1552 -0.1425  0.2411
 1054TIP3    H124653   4.256   3.662  10.701  0.1033 -1.7081 -0.5833
 1054TIP3    H224654   4.110   3.666  10.740  0.5520  1.6106  1.1091
 1055TIP3   OH224655   4.604   6.478  15.140  0.3304  0.6622  0.5436
 1055TIP3    H124656   4.591   6.570  15.116 -0.0003  0.3983 -0.3593
 1055TIP3    H224657   4.522   6.452  15.183 -1.0775 -0.1278 -2.3186
 1056TIP3   OH224658   4.737   5.255  15.470 -0.2324  0.3049  0.3249
 1056TIP3    H124659   4.745   5.206  15.387  0.4551 -0.0098  0.5682
 1056TIP3    H224660   4.827   5.264  15.501 -0.6005 -2.7301  2.8456
 1057TIP3   OH224661   4.307   2.366  13.354 -0.1455  0.0554  0.1341
 1057TIP3    H124662   4.275   2.283  13.319  0.2417 -0.0892  0.1210
 1057TIP3    H224663   4.283   2.431  13.287  1.9362 -0.4331 -1.1569
 1058TIP3   OH224664   4.350   2.552   0.830 -0.2407 -0.1127  0.8111
 1058TIP3    H124665   4.437   2.515   0.813 -0.8354 -1.7639  1.1232
 1058TIP3    H224666   4.354   2.642   0.797  0.7958 -0.9584 -1.5737
 1059TIP3   OH224667   2.279   5.787  15.573 -0.2551  0.3741  0.1524
 1059TIP3    H124668   2.300   5.842  15.649 -0.0910 -0.3818  0.6617
 1059TIP3    H224669   2.187   5.762  15.587  0.0114 -0.4191  0.5238
 1060TIP3   OH224670   1.913   3.952  16.508 -0.2727  0.9634  0.2529
 1060TIP3    H124671   1.977   4.020  16.530  1.0103 -0.2490  0.4049
 1060TIP3    H224672   1.878   3.925  16.592  0.4744  0.2789  0.3607
 1061TIP3   OH224673   4.958   3.047   2.252 -0.5210 -0.4967  0.7518
 1061TIP3    H124674   4.989   2.981   2.314  1.1984  0.2913  0.8028
 1061TIP3    H224675   5.018   3.121   2.264 -1.4481  0.4882 -0.3754
 1062TIP3   OH224676   4.227   3.844  15.627 -0.2960 -0.3637 -0.4660
 1062TIP3    H124677   4.304   3.900  15.629  0.2469 -1.0873 -0.7609
 1062TIP3    H224678   4.234   3.790  15.706 -2.0975  1.6060  1.1704
 1063TIP3   OH224679   2.263   6.001   4.890 -0.1888 -0.5789  0.5003
 1063TIP3    H124680   2.213   5.983   4.970 -0.6586 -1.0294  0.1107
 1063TIP3    H224681   2.202   6.048   4.833 -0.3633 -1.6161 -0.1957
 1064TIP3   OH224682   1.666   4.833   0.649  0.2061  0.0564 -0.5953
 1064TIP3    H124683   1.718   4.834   0.730  1.5753  0.3475 -1.4464
 1064TIP3    H224684   1.716   4.887   0.588 -0.0234 -1.3986 -2.1255
 1065TIP3   OH224685   5.352   2.108  16.529 -0.4530 -0.4206 -0.2712
 1065TIP3    H124686   5.375   2.053  16.454 -1.6237 -1.4989  0.1124
 1065TIP3    H224687   5.267   2.146  16.505 -0.4189 -0.0668  0.1536
 1066TIP3   OH224688   3.507   0.784  16.543 -0.2002 -0.0444 -0.0052
 1066TIP3    H124689   3.442   0.726  16.502  0.2598 -0.7896  0.3052
 1066TIP3    H224690   3.493   0.773  16.637  0.3140 -0.1346  0.0628
 1067TIP3   OH224691   6.186   4.472  12.958 -0.3284 -0.2766 -0.3593
 1067TIP3    H124692   6.104   4.504  12.995 -0.9136 -0.8651 -1.1240
 1067TIP3    H224693   6.178   4.377  12.959  0.5932 -0.3682  0.0948
 1068TIP3   OH224694   3.341   6.166  14.814  0.6234  0.3068 -0.0018
 1068TIP3    H124695   3.248   6.182  14.831  0.8504  0.5505  1.0603
 1068TIP3    H224696   3.378   6.253  14.802  0.8181  0.2399  0.1215
 1069TIP3   OH224697   1.832   4.937   0.053 -0.4523 -0.3964  0.2404
 1069TIP3    H124698   1.908   4.886   0.081  0.2097  0.0762 -0.6218
 1069TIP3    H224699   1.840   5.020   0.100 -0.6486 -0.4878  0.4361
 1070TIP3   OH224700   1.086   3.060  12.608 -0.2477 -0.2439  0.6065
 1070TIP3    H124701   1.054   3.114  12.537 -0.0327 -0.7346  0.1272
 1070TIP3    H224702   1.007   3.030  12.653 -0.5765 -2.0976 -1.0399
 1071TIP3   OH224703   6.507   1.056   0.934 -0.1111  0.1473 -0.2817
 1071TIP3    H124704   6.420   1.027   0.961 -0.1822  0.8368  0.2321
 1071TIP3    H224705   6.491   1.109   0.856 -0.3186  1.5469  0.6858
 1072TIP3   OH224706   6.161   1.537  15.716  0.3262  0.0238 -0.0859
 1072TIP3    H124707   6.092   1.548  15.782  1.1428  0.3176  0.7334
 1072TIP3    H224708   6.121   1.480  15.650 -0.5866 -0.1016  0.5514
 1073TIP3   OH224709   5.523   1.930   4.804  0.5265  0.1098  0.2511
 1073TIP3    H124710   5.512   1.850   4.752 -1.4152  1.1477 -1.0322
 1073TIP3    H224711   5.496   1.905   4.892 -0.0231 -0.6481 -0.1190
 1074TIP3   OH224712   3.025   4.855   5.858 -0.1511 -0.4015  0.0130
 1074TIP3    H124713   3.032   4.893   5.771 -0.6069  0.8283  0.5003
 1074TIP3    H224714   3.072   4.915   5.915 -1.2706 -0.2973  0.8684
 1075TIP3   OH224715   4.429   1.598   6.189 -0.0430 -0.0844  0.7261
 1075TIP3    H124716   4.351   1.555   6.154 -0.2264 -0.2880  1.3750
 1075TIP3    H224717   4.494   1.528   6.193  0.7463  0.4387 -1.4571
 1076TIP3   OH224718   3.585   3.687  15.956  0.2914 -0.0676  0.0197
 1076TIP3    H124719   3.573   3.611  16.013 -2.2754 -0.4402 -0.8805
 1076TIP3    H224720   3.581   3.650  15.868 -0.0251  0.9824 -0.4113
 1077TIP3   OH224721   6.130   6.198   0.882  0.0666 -0.1824  0.3379
 1077TIP3    H124722   6.136   6.181   0.788  1.3986  1.2711  0.1027
 1077TIP3    H224723   6.199   6.143   0.920  1.3508  1.2172  0.1105
 1078TIP3   OH224724   4.412   4.568  12.648 -0.3542 -0.0158 -0.3056
 1078TIP3    H124725   4.396   4.617  12.728 -0.9695  0.5118 -0.7395
 1078TIP3    H224726   4.461   4.491  12.676 -1.2294 -0.2360  0.6920
 1079TIP3   OH224727   4.399   6.834   4.663 -0.2053  0.3714  0.3419
 1079TIP3    H124728   4.370   6.882   4.585 -2.6326  0.1622  1.0256
 1079TIP3    H224729   4.344   6.755   4.664  1.7835 -1.0892  0.7494
 1080TIP3   OH224730   1.506   4.165   2.356 -0.4230 -0.0338 -0.4387
 1080TIP3    H124731   1.535   4.203   2.439  0.5208 -0.8470 -0.3795
 1080TIP3    H224732   1.420   4.205   2.340  0.1995  1.5387 -0.0247
 1081TIP3   OH224733   6.778   6.346  11.046  0.2574 -0.3991 -0.4542
 1081TIP3    H124734   6.759   6.434  11.014 -0.3194 -0.7123 -0.9931
 1081TIP3    H224735   6.872   6.345  11.058  0.4917 -0.2382 -2.0562
 1082TIP3   OH224736   2.500   2.858   0.124  0.2520 -0.0189  0.2133
 1082TIP3    H124737   2.430   2.853   0.189 -1.1049 -3.7284 -1.2814
 1082TIP3    H224738   2.518   2.952   0.116 -1.8737  0.8275  3.3808
 1083TIP3   OH224739   0.102   3.404  14.696 -0.0833 -0.1102 -0.2560
 1083TIP3    H124740   0.021   3.397  14.747  0.2648  3.2019  1.0208
 1083TIP3    H224741   0.169   3.362  14.749 -0.7271 -2.0201 -0.8822
 1084TIP3   OH224742   3.424   5.172   5.782 -0.6406 -0.4877  0.3210
 1084TIP3    H124743   3.468   5.097   5.822  2.1043  0.8928  0.1399
 1084TIP3    H224744   3.426   5.241   5.849 -1.0946  0.1170 -0.2624
 1085TIP3   OH224745   0.463   5.013  14.630 -0.5220 -0.2772  0.0443
 1085TIP3    H124746   0.374   4.979  14.640 -0.4539 -1.9552 -3.5431
 1085TIP3    H224747   0.519   4.937  14.646 -0.0291 -0.3563 -1.8249
 1086TIP3   OH224748   6.686   6.735  14.730 -0.0818  0.2827 -0.6243
 1086TIP3    H124749   6.615   6.699  14.676  0.6110 -0.3679 -1.1289
 1086TIP3    H224750   6.641   6.778  14.802 -1.0044  0.1746 -1.1092
 1087TIP3   OH224751   3.043   5.102  15.251  0.5094  0.0466 -0.0441
 1087TIP3    H124752   3.086   5.080  15.169  0.5811 -0.1094  0.0345
 1087TIP3    H224753   3.033   5.197  15.249  1.3467  0.1483  0.1690
 1088TIP3   OH224754   5.277   6.363   5.128  0.0785 -0.0315 -0.4810
 1088TIP3    H124755   5.219   6.423   5.081  0.8692  0.9607 -0.2220
 1088TIP3    H224756   5.333   6.420   5.180 -0.1322 -1.0574  0.9440
 1089TIP3   OH224757   2.506   4.041   2.893 -0.3470 -0.0924 -0.3247
 1089TIP3    H124758   2.588   4.081   2.923 -0.6366 -0.2477  0.7036
 1089TIP3    H224759   2.444   4.057   2.964 -0.5263 -2.2229  0.0702
 1090TIP3   OH224760   0.651   3.193   0.152  0.1612  0.2973  0.6232
 1090TIP3    H124761   0.725   3.246   0.182  1.3768 -1.0955  0.2345
 1090TIP3    H224762   0.692   3.123   0.101 -1.5081 -0.0300 -0.3226
 1091TIP3   OH224763   1.113   6.441   0.338  0.1294  0.2052  0.3570
 1091TIP3    H124764   1.206   6.420   0.342 -0.1490 -1.6682 -1.4144
 1091TIP3    H224765   1.093   6.481   0.423  1.7168 -2.9604  2.3933
 1092TIP3   OH224766   3.852   4.344   0.895  0.0195 -0.1316  0.8586
 1092TIP3    H124767   3.819   4.277   0.954  1.0959 -0.8323  0.6938
 1092TIP3    H224768   3.869   4.298   0.813 -0.7636  0.6828  0.2127
 1093TIP3   OH224769   1.093   5.821  12.173  0.1549  0.2844  0.2263
 1093TIP3    H124770   1.171   5.876  12.167  0.4822 -0.3379 -3.5308
 1093TIP3    H224771   1.122   5.743  12.220  1.7519  0.2415 -0.7602
 1094TIP3   OH224772   6.232   4.047  10.959  0.1583  0.0194  0.1081
 1094TIP3    H124773   6.268   4.130  10.990 -1.5264  0.4202  1.1643
 1094TIP3    H224774   6.143   4.069  10.930 -0.1780 -1.3340  0.0301
 1095TIP3   OH224775   4.904   0.391   1.949  0.1773  0.2629  0.1228
 1095TIP3    H124776   4.994   0.357   1.945  0.0630  0.0351 -1.4423
 1095TIP3    H224777   4.849   0.312   1.955 -0.0334  0.1106 -2.3972
 1096TIP3   OH224778   5.198   3.377   3.466  0.9833  0.3781 -0.2625
 1096TIP3    H124779   5.188   3.417   3.552 -0.4989 -1.0149  0.2637
 1096TIP3    H224780   5.286   3.339   3.467  0.8675  0.1195  0.7683
 1097TIP3   OH224781   3.517   2.740  13.107 -0.1931  0.4457  0.5546
 1097TIP3    H124782   3.520   2.739  13.012  0.3131  1.4825  0.5374
 1097TIP3    H224783   3.436   2.695  13.130 -0.9540  1.2775 -0.4156
 1098TIP3   OH224784   0.157   6.828   0.665 -0.6497 -0.0454 -0.6892
 1098TIP3    H124785   0.130   6.845   0.575 -0.6538  0.9449 -0.5109
 1098TIP3    H224786   0.228   6.764   0.658  0.4622  1.2387 -1.5107
 1099TIP3   OH224787   1.232   2.507   2.773 -0.1205 -0.0022 -0.0370
 1099TIP3    H124788   1.265   2.555   2.697 -0.5638 -1.0507 -0.9192
 1099TIP3    H224789   1.307   2.455   2.802  0.2275  0.8585  0.6385
 1100TIP3   OH224790   4.848   6.224  12.701 -0.5865  0.0037  0.0630
 1100TIP3    H124791   4.804   6.308  12.717 -0.5769 -0.0593  0.4247
 1100TIP3    H224792   4.866   6.189  12.789  0.9598  0.4357 -0.0543
 1101TIP3   OH224793   4.390   4.716  11.976  0.1867 -0.5222 -0.0306
 1101TIP3    H124794   4.319   4.707  11.913  0.7014 -0.6481 -0.6049
 1101TIP3    H224795   4.469   4.720  11.922  0.4409  2.4794  0.3863
 1102TIP3   OH224796   0.241   1.522  12.828 -0.2999  0.1037 -0.0740
 1102TIP3    H124797   0.225   1.430  12.805 -1.9691  0.3181  0.1118
 1102TIP3    H224798   0.168   1.569  12.789  1.3392  1.6002 -1.5228
 1103TIP3   OH224799   5.138   5.818   0.565  0.6859 -0.8410  0.0749
 1103TIP3    H124800   5.166   5.834   0.655 -3.0283  1.8594  0.9642
 1103TIP3    H224801   5.158   5.900   0.519 -0.1968 -1.0640 -0.7393
 1104TIP3   OH224802   0.115   0.003   3.368  0.4213 -0.1833  0.1900
 1104TIP3    H124803   0.176   0.058   3.417  0.6759 -2.2112  2.3843
 1104TIP3    H224804   0.060  -0.037   3.436 -1.9359 -0.1061 -1.5635
 1105TIP3   OH224805   0.544   3.229  14.134  0.2232 -0.4733 -0.0567
 1105TIP3    H124806   0.512   3.194  14.051  1.0166 -0.7114 -0.2756
 1105TIP3    H224807   0.522   3.322  14.131 -0.1869 -0.5777 -0.3211
 1106TIP3   OH224808   2.739   0.966  16.194 -0.7322 -0.2613  0.3659
 1106TIP3    H124809   2.772   0.941  16.281 -1.2268 -1.0421  0.3382
 1106TIP3    H224810   2.736   0.883  16.145  0.3492  0.2816 -0.6817
 1107TIP3   OH224811   0.294   3.550  14.293  0.1316  0.4454 -0.1799
 1107TIP3    H124812   0.254   3.475  14.337 -1.1628  0.4933 -1.2217
 1107TIP3    H224813   0.365   3.577  14.351 -0.2041 -0.7784  0.8372
 1108TIP3   OH224814   0.243   0.182  15.566  0.5847 -0.0573 -0.4907
 1108TIP3    H124815   0.178   0.112  15.568  0.3647  0.1631 -0.0311
 1108TIP3    H224816   0.202   0.251  15.514  0.5210  0.0107 -0.3503
 1109TIP3   OH224817   4.845   1.389  12.846  0.0724  0.5227  0.1844
 1109TIP3    H124818   4.800   1.313  12.810  0.4654 -0.0653  0.9049
 1109TIP3    H224819   4.816   1.394  12.937  1.1895  0.3239  0.5740
 1110TIP3   OH224820   3.282   1.056  13.309 -0.6410 -0.5300  0.0356
 1110TIP3    H124821   3.320   1.105  13.236 -0.1463 -1.3467 -0.2649
 1110TIP3    H224822   3.200   1.102  13.328  0.5179  1.3607  0.7935
 1111TIP3   OH224823   5.459   2.420  12.324  0.2679 -0.1122 -0.7254
 1111TIP3    H124824   5.483   2.445  12.413 -0.7523  0.3368 -0.5595
 1111TIP3    H224825   5.413   2.497  12.289 -1.0015 -0.9503 -0.9705
 1112TIP3   OH224826   5.521   2.164  12.314 -0.1197 -0.9665 -0.0892
 1112TIP3    H124827   5.496   2.256  12.324  0.0959 -0.8994 -0.1743
 1112TIP3    H224828   5.514   2.128  12.403 -1.9788 -1.3269 -0.3380
 1113TIP3   OH224829   4.581   3.771   3.314 -0.2650  0.0839  0.1977
 1113TIP3    H124830   4.640   3.696   3.305 -0.2060  0.1300  0.2009
 1113TIP3    H224831   4.539   3.759   3.399 -0.9542 -0.4463 -0.2020
 1114TIP3   OH224832   4.065   3.191   2.996 -0.3252 -0.0357 -0.2559
 1114TIP3    H124833   4.017   3.203   3.078  0.7543  2.2965  0.1386
 1114TIP3    H224834   4.156   3.182   3.024 -0.1400 -0.9992 -1.1419
 1115TIP3   OH224835   4.246   3.721   0.782 -0.1965 -0.1170 -0.4947
 1115TIP3    H124836   4.249   3.789   0.715  0.6664 -0.2208 -0.5686
 1115TIP3    H224837   4.200   3.648   0.740 -1.4849  0.5407 -0.2836
 1116TIP3   OH224838   6.454   1.295   5.105 -0.1751  0.1830 -0.1621
 1116TIP3    H124839   6.520   1.328   5.166  1.2454 -0.9345 -1.0269
 1116TIP3    H224840   6.372   1.295   5.155  0.6986  0.5022  1.3169
 1117TIP3   OH224841   6.645   0.933  13.929 -0.3845  0.3903  0.0461
 1117TIP3    H124842   6.632   1.024  13.953 -1.4038 -0.1026  1.4805
 1117TIP3    H224843   6.725   0.907  13.973  0.3587  0.7939 -1.0287
 1118TIP3   OH224844   3.638   6.844   4.346 -0.2756 -0.0144  0.4393
 1118TIP3    H124845   3.658   6.787   4.421 -0.1930 -0.1422  0.3194
 1118TIP3    H224846   3.596   6.787   4.282 -0.4778  0.1276  0.4465
 1119TIP3   OH224847   5.542   3.546  16.074  0.1317  0.3876 -0.2030
 1119TIP3    H124848   5.545   3.451  16.074  1.0944  0.3953 -1.9610
 1119TIP3    H224849   5.633   3.574  16.079 -0.1837  1.2861  2.0975
 1120TIP3   OH224850   1.877   5.812   3.419 -0.3921 -0.1312  0.9723
 1120TIP3    H124851   1.864   5.903   3.390 -1.5075 -0.0778  1.5775
 1120TIP3    H224852   1.966   5.811   3.453  0.6700  0.0281 -1.5350
 1121TIP3   OH224853   5.359   4.888   3.260  0.1987  0.0978 -0.4134
 1121TIP3    H124854   5.403   4.804   3.268  1.2792  0.6417 -0.3491
 1121TIP3    H224855   5.296   4.876   3.189  0.5666 -0.6643 -0.6197
 1122TIP3   OH224856   1.689   6.588  13.640  0.4770 -0.0629 -0.4978
 1122TIP3    H124857   1.700   6.539  13.722 -0.8381  0.6749  0.1612
 1122TIP3    H224858   1.596   6.578  13.619  0.4679  1.0253 -1.0590
 1123TIP3   OH224859   2.241   5.919   6.607  0.2422 -0.3468 -0.0311
 1123TIP3    H124860   2.319   5.891   6.560  0.5025 -1.2613  0.9068
 1123TIP3    H224861   2.190   5.839   6.620  1.2796 -0.6217  3.2341
 1124TIP3   OH224862   2.398   0.629   5.137 -0.1092 -0.2386 -0.0046
 1124TIP3    H124863   2.312   0.629   5.180 -0.1654 -2.0336 -0.0539
 1124TIP3    H224864   2.452   0.573   5.192  1.4935  1.9289  0.7956
 1125TIP3   OH224865   1.343   4.878   3.295 -0.1785 -0.0319  0.0693
 1125TIP3    H124866   1.311   4.792   3.323 -2.2131  0.4722 -0.4926
 1125TIP3    H224867   1.331   4.934   3.371  1.1064 -0.2086  0.4217
 1126TIP3   OH224868   2.445   2.966   1.306 -0.3026 -0.4691  0.5731
 1126TIP3    H124869   2.354   2.990   1.325 -0.3859 -1.1415  1.0979
 1126TIP3    H224870   2.456   2.983   1.213 -0.1771  2.0869  0.9934
 1127TIP3   OH224871   0.555   5.542  13.964 -0.0272  0.2890  0.1967
 1127TIP3    H124872   0.606   5.583  13.894  0.4857 -0.1219  0.3281
 1127TIP3    H224873   0.517   5.464  13.923 -1.1157  0.9473 -0.0922
 1128TIP3   OH224874   0.900   1.865   3.493 -0.4382  0.1746  0.3258
 1128TIP3    H124875   0.896   1.820   3.577 -2.5157  1.0052  0.7387
 1128TIP3    H224876   0.856   1.806   3.432 -0.9556  0.5587  0.3254
 1129TIP3   OH224877   4.630   4.986   0.029 -0.3821 -0.1378 -0.0274
 1129TIP3    H124878   4.585   5.065   0.057  0.6087 -0.5708  3.2890
 1129TIP3    H224879   4.606   4.920   0.095  0.1523 -2.1411 -1.7142
 1130TIP3   OH224880   2.642   6.815  12.929 -0.0704  0.4691 -0.0511
 1130TIP3    H124881   2.705   6.861  12.984 -1.0179  0.0522  1.4271
 1130TIP3    H224882   2.659   6.722  12.945 -0.0031  0.3248 -0.8959
 1131TIP3   OH224883   5.464   5.186   4.500 -0.3250  0.0424  0.2114
 1131TIP3    H124884   5.439   5.262   4.447  1.8601  0.0119 -1.0054
 1131TIP3    H224885   5.496   5.123   4.436 -0.7640 -1.3541  1.3355
 1132TIP3   OH224886   4.736   6.722  10.509  0.3158 -0.1118 -0.4958
 1132TIP3    H124887   4.683   6.801  10.516  0.0774 -0.1708 -1.5018
 1132TIP3    H224888   4.826   6.754  10.505  0.1771  0.1607 -1.6477
 1133TIP3   OH224889   6.809   3.533  14.117  0.1629  0.1836  0.4982
 1133TIP3    H124890   6.785   3.441  14.121  1.2571 -0.0864  1.3536
 1133TIP3    H224891   6.894   3.534  14.073  1.1208  0.5574  2.2710
 1134TIP3   OH224892   2.570   4.937   5.489  0.2355 -0.3612 -0.0109
 1134TIP3    H124893   2.497   4.945   5.428  0.4484 -0.1169 -0.2337
 1134TIP3    H224894   2.580   4.842   5.502  0.6580 -0.4534 -0.9291
 1135TIP3   OH224895   4.268   0.781  17.046 -0.1105 -0.0847 -0.5523
 1135TIP3    H124896   4.264   0.699  17.095 -5.1818  1.1044  1.6296
 1135TIP3    H224897   4.313   0.842  17.104 -0.7016 -0.1591 -0.0127
 1136TIP3   OH224898   6.685   1.501   1.830  0.0318 -0.0208 -0.1178
 1136TIP3    H124899   6.642   1.438   1.772 -0.6106 -1.2671  1.6057
 1136TIP3    H224900   6.742   1.552   1.773  0.0158 -1.6820 -1.7124
 1137TIP3   OH224901   2.389   6.700   2.878  0.1860 -0.1751 -0.2687
 1137TIP3    H124902   2.336   6.736   2.949  0.3879  0.7953 -0.5923
 1137TIP3    H224903   2.443   6.774   2.849 -1.9599  0.3612 -3.4153
 1138TIP3   OH224904   3.821   2.680  16.381 -0.5325  0.3796 -0.4013
 1138TIP3    H124905   3.916   2.673  16.392  0.1329  4.0075 -2.2601
 1138TIP3    H224906   3.795   2.748  16.442 -1.7761  0.0998 -0.5973
 1139TIP3   OH224907   0.794   2.233   4.834  0.2758  0.1167 -0.3623
 1139TIP3    H124908   0.860   2.278   4.887  0.4299 -0.0202 -0.4378
 1139TIP3    H224909   0.726   2.208   4.896  0.2112  0.4119 -0.3117
 1140TIP3   OH224910   6.341   4.898   4.013 -0.3858  0.1262  0.0968
 1140TIP3    H124911   6.404   4.842   4.060 -0.0759  0.6957  0.3745
 1140TIP3    H224912   6.266   4.904   4.073 -1.9424 -2.8012 -1.3612
 1141TIP3   OH224913   2.650   3.316  14.210 -0.3173  0.3289 -0.1893
 1141TIP3    H124914   2.686   3.231  14.236 -0.3184  0.6417  0.8654
 1141TIP3    H224915   2.710   3.347  14.142  0.5988  0.1853  0.5343
 1142TIP3   OH224916   0.402   5.976   1.312  0.2789 -0.0642  0.2117
 1142TIP3    H124917   0.332   5.915   1.292 -0.1298  0.6887 -0.7183
 1142TIP3    H224918   0.365   6.036   1.377 -0.0978  0.5811 -0.5779
 1143TIP3   OH224919   0.230   0.222  13.546 -0.5311  0.1464  0.3645
 1143TIP3    H124920   0.286   0.156  13.505 -0.7026  0.4336 -0.3490
 1143TIP3    H224921   0.287   0.298  13.557 -1.2930  1.2734 -2.5193
 1144TIP3   OH224922   1.686   4.899   2.104 -0.2831  0.5041 -0.6075
 1144TIP3    H124923   1.739   4.822   2.086  1.2833  1.1039  1.1522
 1144TIP3    H224924   1.608   4.865   2.147  0.7979 -0.0680  0.9723
 1145TIP3   OH224925   6.402   1.382   1.408  0.6019 -0.6906  0.3164
 1145TIP3    H124926   6.466   1.436   1.363 -1.1552  0.5645 -0.7671
 1145TIP3    H224927   6.386   1.308   1.349  0.0523 -0.2938 -0.0311
 1146TIP3   OH224928   5.096   1.059  12.531 -0.2141  0.0495  0.0012
 1146TIP3    H124929   5.110   1.108  12.450  0.5437  0.3249  0.2790
 1146TIP3    H224930   5.025   0.999  12.512 -1.9622  2.0121 -0.0409
 1147TIP3   OH224931   4.465   6.036  14.598 -0.3865  0.5446  0.0433
 1147TIP3    H124932   4.497   5.946  14.600  0.6302  0.8846  0.0898
 1147TIP3    H224933   4.396   6.037  14.532  0.7074  0.0706 -1.1463
 1148TIP3   OH224934   5.517   3.266  16.094 -0.1548 -0.2213 -0.5018
 1148TIP3    H124935   5.475   3.181  16.105  1.5288 -0.9404  0.7675
 1148TIP3    H224936   5.585   3.269  16.161  0.8436  1.4941 -1.4984
 1149TIP3   OH224937   1.686   2.790   1.293  0.4796  0.0976  0.4492
 1149TIP3    H124938   1.631   2.861   1.327  2.0029  0.1199  3.1215
 1149TIP3    H224939   1.637   2.710   1.311  0.3783  0.2525  0.8790
 1150TIP3   OH224940   3.733   3.153   3.959  0.1719 -0.5298 -0.2075
 1150TIP3    H124941   3.666   3.193   4.014  0.1500 -0.3680 -0.3523
 1150TIP3    H224942   3.796   3.115   4.021 -0.7079 -1.8041 -0.0482
 1151TIP3   OH224943   5.367   1.843  11.141 -0.2651  0.2257 -0.1161
 1151TIP3    H124944   5.364   1.905  11.068 -0.4888  3.1146  2.1729
 1151TIP3    H224945   5.296   1.781  11.122  0.6322 -0.0696 -3.0231
 1152TIP3   OH224946   6.629   3.228   2.064  0.2736 -0.7111  0.6697
 1152TIP3    H124947   6.706   3.172   2.075  0.3873 -1.0364 -1.4109
 1152TIP3    H224948   6.581   3.189   1.990 -0.9014  0.5659  0.7139
 1153TIP3   OH224949   4.119   2.866   4.439  0.2856  0.4001 -0.5233
 1153TIP3    H124950   4.034   2.870   4.394  1.3012  2.1904 -2.4517
 1153TIP3    H224951   4.169   2.801   4.390  0.5871  0.5752 -0.4509
 1154TIP3   OH224952   2.756   0.259   5.347  0.1102  0.2875  0.3684
 1154TIP3    H124953   2.689   0.295   5.289 -0.8945 -1.3683  0.4658
 1154TIP3    H224954   2.789   0.335   5.395 -0.2783  1.4256 -1.0897
 1155TIP3   OH224955   2.859   3.289  14.547  0.4817 -0.0893 -0.3894
 1155TIP3    H124956   2.887   3.259  14.634  0.4790  0.7602 -0.0889
 1155TIP3    H224957   2.846   3.208  14.498  2.0753 -0.5660 -0.0997
 1156TIP3   OH224958   5.161   1.406  11.774  0.5920 -0.1611  0.2243
 1156TIP3    H124959   5.142   1.485  11.722 -0.8393 -0.6873 -0.1184
 1156TIP3    H224960   5.256   1.403  11.780  0.6557  2.6153  1.8561
 1157TIP3   OH224961   4.746   1.197  16.143 -0.6461  0.1531  0.5536
 1157TIP3    H124962   4.779   1.109  16.160 -0.9172  0.2186  1.5208
 1157TIP3    H224963   4.655   1.194  16.174 -0.4483  0.9549  1.2561
 1158TIP3   OH224964   3.913   2.081  16.896 -0.0916 -0.1336 -0.0066
 1158TIP3    H124965   3.836   2.047  16.940 -1.3487  0.2500 -1.8194
 1158TIP3    H224966   3.987   2.044  16.945 -1.3961 -2.2884  0.4428
 1159TIP3   OH224967   1.000   5.622   5.820 -0.0142  0.0308 -0.1222
 1159TIP3    H124968   1.065   5.603   5.888 -1.9246  1.1409  2.1706
 1159TIP3    H224969   1.034   5.698   5.774  1.3938 -0.8345 -0.5804
 1160TIP3   OH224970   1.978   3.231   4.046  0.1783 -0.3937 -0.2549
 1160TIP3    H124971   1.934   3.316   4.044  2.1724  0.6956  0.0229
 1160TIP3    H224972   2.000   3.214   3.954  1.7056  0.4794 -0.0775
 1161TIP3   OH224973   0.329   0.990  14.072 -0.2820  0.2037 -0.4077
 1161TIP3    H124974   0.248   1.041  14.076 -0.4739 -0.1558  0.6904
 1161TIP3    H224975   0.369   1.002  14.158  1.7925  1.8602 -1.5034
 1162TIP3   OH224976   2.252   2.815   0.799 -0.2432  0.3873  0.1025
 1162TIP3    H124977   2.311   2.887   0.778 -0.0350  0.6265  1.4529
 1162TIP3    H224978   2.178   2.856   0.844 -0.6334 -0.1203 -0.0615
 1163TIP3   OH224979   0.508   5.644   5.615  0.0909 -0.3953 -0.0239
 1163TIP3    H124980   0.442   5.577   5.632  0.9280 -1.0326  0.8570
 1163TIP3    H224981   0.515   5.647   5.520 -2.1439  0.6592 -0.2062
 1164TIP3   OH224982   3.465   1.466   0.045 -0.0365  0.0452 -0.4887
 1164TIP3    H124983   3.453   1.373   0.027 -0.4260  0.3629 -1.9747
 1164TIP3    H224984   3.377   1.503   0.042 -0.1067  0.2336  1.7461
 1165TIP3   OH224985   0.856   2.131   5.403 -0.3964 -0.3571  0.3415
 1165TIP3    H124986   0.775   2.138   5.453 -1.1719 -0.0203 -0.9303
 1165TIP3    H224987   0.828   2.111   5.314  1.0147 -2.2830  0.2660
 1166TIP3   OH224988   3.564   4.112  11.150 -0.0489 -0.1888 -0.6597
 1166TIP3    H124989   3.590   4.053  11.079 -0.3471  0.1026 -1.0143
 1166TIP3    H224990   3.640   4.170  11.162  2.6560 -3.8862  3.3500
 1167TIP3   OH224991   3.203   3.346  16.264 -0.0506  0.1054  0.3761
 1167TIP3    H124992   3.285   3.326  16.309 -0.4251  2.0834  2.1275
 1167TIP3    H224993   3.230   3.392  16.185  0.5617  0.5815  0.8497
 1168TIP3   OH224994   6.173   1.982  11.956  0.1290 -0.3506  0.3197
 1168TIP3    H124995   6.132   2.044  12.017  0.4124 -0.9967  1.1935
 1168TIP3    H224996   6.244   1.943  12.006  0.6925 -0.5356 -0.6051
 1169TIP3   OH224997   6.503   6.654  15.031 -0.2739  0.4276 -0.2442
 1169TIP3    H124998   6.534   6.716  15.097  2.4172  1.4498 -2.2906
 1169TIP3    H224999   6.579   6.599  15.011 -0.1401  1.6683 -4.0248
 1170TIP3   OH225000   0.383   2.501  12.672 -0.2401  0.3675 -0.3467
 1170TIP3    H125001   0.475   2.483  12.694 -0.4068 -0.5393 -0.3738
 1170TIP3    H225002   0.382   2.504  12.577 -0.1214  1.0904 -0.3378
 1171TIP3   OH225003   2.744   3.066  12.307 -0.2578  0.3478 -0.1998
 1171TIP3    H125004   2.719   3.153  12.277  1.7902  0.4936 -1.5776
 1171TIP3    H225005   2.754   3.076  12.402  1.0653  1.9330 -0.4634
 1172TIP3   OH225006   6.493   1.839  10.353 -0.3540 -0.3075  0.4232
 1172TIP3    H125007   6.422   1.857  10.292 -1.6627 -0.0960  1.9405
 1172TIP3    H225008   6.515   1.925  10.391  1.4590 -0.1898 -0.7500
 1173TIP3   OH225009   1.222   2.824  11.552  0.0567 -0.3763 -0.4901
 1173TIP3    H125010   1.200   2.753  11.492  1.6498  0.0233 -1.6145
 1173TIP3    H225011   1.174   2.803  11.633 -1.6947 -1.2261 -1.6919
 1174TIP3   OH225012   0.370   6.267  12.726  0.3780 -0.3318  0.5237
 1174TIP3    H125013   0.310   6.253  12.653 -2.4809 -0.1128  2.6438
 1174TIP3    H225014   0.457   6.262  12.687 -0.9718  0.1592 -2.9256
 1175TIP3   OH225015   1.428   2.783  15.133  0.8949  0.6058  0.6364
 1175TIP3    H125016   1.367   2.717  15.166  2.1874 -0.0891  1.7397
 1175TIP3    H225017   1.374   2.861  15.120 -0.3930 -0.2447  0.6999
 1176TIP3   OH225018   5.728   2.306   0.798 -0.3187  0.0069 -0.8717
 1176TIP3    H125019   5.643   2.320   0.755 -0.1397  1.4023 -0.8287
 1176TIP3    H225020   5.788   2.364   0.751  0.1444  0.6464  0.4511
 1177TIP3   OH225021   0.058   2.504   0.954  0.8587 -0.2817  0.0094
 1177TIP3    H125022   0.001   2.551   0.893  0.9799 -0.2804 -0.1012
 1177TIP3    H225023   0.062   2.560   1.031  2.8344  0.9945 -0.9591
 1178TIP3   OH225024   4.912   4.700  14.190 -0.3621  0.3645 -0.3557
 1178TIP3    H125025   4.931   4.781  14.144 -1.8609  0.7402 -0.3696
 1178TIP3    H225026   4.967   4.702  14.268  1.3378  0.2719 -1.5023
 1179TIP3   OH225027   5.449   3.831  12.357  0.1805  0.7510 -0.3517
 1179TIP3    H125028   5.496   3.785  12.427  0.4960  0.1240 -0.9625
 1179TIP3    H225029   5.503   3.817  12.279  1.0818  3.4025 -0.3056
 1180TIP3   OH225030   5.405   3.168   2.524  0.5018  0.0859 -0.7436
 1180TIP3    H125031   5.495   3.137   2.527  0.8210  0.7473 -2.6332
 1180TIP3    H225032   5.404   3.245   2.581  0.8385 -0.5469  0.1489
 1181TIP3   OH225033   2.789   1.897   4.220 -0.2655  0.1355 -0.2695
 1181TIP3    H125034   2.742   1.944   4.289 -0.0754 -0.8460  0.5463
 1181TIP3    H225035   2.806   1.811   4.257  1.1506  0.0752 -0.9991
 1182TIP3   OH225036   2.052   0.214  12.389  0.8710  0.3956  0.2764
 1182TIP3    H125037   2.081   0.156  12.320 -2.3594 -0.3724 -0.6236
 1182TIP3    H225038   2.062   0.302  12.352 -2.0622 -0.0312 -1.9166
 1183TIP3   OH225039   2.786   1.033  14.110  0.0955  0.1751  0.1981
 1183TIP3    H125040   2.775   0.942  14.084  1.0535 -0.0685  0.6266
 1183TIP3    H225041   2.712   1.050  14.168  0.0550 -0.4013  0.3197
 1184TIP3   OH225042   5.114   5.912   1.489  0.2066 -0.9484 -0.0945
 1184TIP3    H125043   5.022   5.905   1.515 -0.5806  0.0251 -2.3583
 1184TIP3    H225044   5.125   5.846   1.421  0.8657 -0.2969 -0.6428
 1185TIP3   OH225045   6.111   4.948  12.957 -0.4065  0.0555 -0.0086
 1185TIP3    H125046   6.025   4.965  12.994  0.0209  0.4994  0.8207
 1185TIP3    H225047   6.097   4.878  12.893 -1.3304 -0.0404  0.2892
 1186TIP3   OH225048   3.554   5.701   5.903 -0.2966  0.2852  0.3320
 1186TIP3    H125049   3.557   5.606   5.895 -0.6246  0.2926  0.0649
 1186TIP3    H225050   3.599   5.733   5.825  0.5858  0.3490  0.8589
 1187TIP3   OH225051   6.549   5.238  13.153  0.1601 -0.6470 -0.0843
 1187TIP3    H125052   6.539   5.283  13.237 -1.0299  2.2150 -1.6178
 1187TIP3    H225053   6.469   5.186  13.144 -0.7420  0.7476 -0.3536
 1188TIP3   OH225054   1.244   2.321  14.658  0.1556 -0.2535 -0.4789
 1188TIP3    H125055   1.192   2.354  14.730  0.9541 -2.2590  1.1310
 1188TIP3    H225056   1.333   2.351  14.676  0.0845  0.8145 -1.7089
 1189TIP3   OH225057   3.747   6.048  16.486 -0.0920 -0.1705 -0.0530
 1189TIP3    H125058   3.835   6.070  16.517 -0.2356  0.5421 -0.1277
 1189TIP3    H225059   3.711   6.132  16.455 -0.0727 -0.7790 -1.8522
 1190TIP3   OH225060   1.561   2.950  14.794 -0.4544  0.0390 -0.2837
 1190TIP3    H125061   1.488   3.011  14.782 -1.3599 -0.7413  1.0593
 1190TIP3    H225062   1.582   2.921  14.705 -1.1807  0.9471 -0.7749
 1191TIP3   OH225063   0.366   2.902  12.254  0.2269 -0.3279  0.3911
 1191TIP3    H125064   0.387   2.850  12.331 -0.2899  0.0154  0.7641
 1191TIP3    H225065   0.315   2.843  12.198 -1.5145  0.1596  1.4005
 1192TIP3   OH225066   0.531   4.424  16.807 -0.2062 -0.3224  0.2149
 1192TIP3    H125067   0.449   4.458  16.770  1.6205  1.5170 -2.5503
 1192TIP3    H225068   0.576   4.501  16.842  1.5666 -0.7075 -1.0397
 1193TIP3   OH225069   0.172   1.249   5.079 -0.0064  0.1671  0.0803
 1193TIP3    H125070   0.259   1.277   5.051 -0.5997  1.1152 -0.9516
 1193TIP3    H225071   0.119   1.252   4.999 -1.3915  1.3427  0.9822
 1194TIP3   OH225072   2.503   1.383  11.739  0.3714  0.1270 -0.4727
 1194TIP3    H125073   2.551   1.462  11.715  0.5967 -0.0103 -0.4703
 1194TIP3    H225074   2.478   1.343  11.656 -1.4282  1.2187 -0.5055
 1195TIP3   OH225075   0.215   0.568   6.460  0.4763 -0.4472  0.4317
 1195TIP3    H125076   0.232   0.620   6.382  0.2191 -0.1628  0.5664
 1195TIP3    H225077   0.142   0.611   6.503 -0.9007 -1.8948 -0.3548
 1196TIP3   OH225078   4.428   0.719   0.465 -0.5180  0.0144 -0.1660
 1196TIP3    H125079   4.510   0.731   0.417  0.5005  0.4204  1.6031
 1196TIP3    H225080   4.384   0.804   0.459 -0.5078 -0.0077 -0.5644
 1197TIP3   OH225081   0.663   0.723  14.364  0.3560  0.2483  0.3445
 1197TIP3    H125082   0.716   0.718  14.285 -0.8032 -0.6058 -0.4100
 1197TIP3    H225083   0.589   0.665  14.347 -2.0762  3.1111  0.4042
 1198TIP3   OH225084   2.238   4.303  11.405 -0.5983  0.2336 -0.2800
 1198TIP3    H125085   2.250   4.292  11.311 -0.5254  1.2306 -0.3988
 1198TIP3    H225086   2.323   4.281  11.443 -0.3695  0.6655 -0.5286
 1199TIP3   OH225087   6.115   2.751   3.510 -0.4141 -0.0593 -0.3317
 1199TIP3    H125088   6.197   2.745   3.558 -0.9738  0.8423  0.7860
 1199TIP3    H225089   6.059   2.806   3.564 -0.6292  2.1730 -2.6344
 1200TIP3   OH225090   0.608   4.398   3.348  0.2845  0.1034 -0.2550
 1200TIP3    H125091   0.643   4.313   3.376 -1.7742  0.1057  2.7008
 1200TIP3    H225092   0.555   4.377   3.271  0.2415 -1.2041  0.1038
 1201TIP3   OH225093   0.847   2.571   3.472  0.4355 -0.4493 -0.6348
 1201TIP3    H125094   0.796   2.624   3.411  0.7110  0.6085  0.0405
 1201TIP3    H225095   0.802   2.580   3.556  0.4612 -1.3207 -0.5198
 1202TIP3   OH225096   5.851   2.587   1.577 -0.3077  0.0245 -0.3942
 1202TIP3    H125097   5.837   2.672   1.536  0.5942  0.1968 -0.3734
 1202TIP3    H225098   5.764   2.558   1.604 -0.7549  0.4637 -1.3286
 1203TIP3   OH225099   4.977   0.461  15.771  0.3973 -0.2767 -0.6315
 1203TIP3    H125100   4.902   0.519  15.783  1.7229  1.0872  1.9004
 1203TIP3    H225101   4.982   0.447  15.677 -1.8026  1.2585 -1.0478
 1204TIP3   OH225102   3.122   3.575   0.397 -0.8809 -0.2899  0.1950
 1204TIP3    H125103   3.107   3.557   0.304  0.9457 -0.0858 -0.1770
 1204TIP3    H225104   3.115   3.489   0.439  0.6759 -0.8051 -0.5181
 1205TIP3   OH225105   3.403   1.922   0.067 -0.5184 -0.6541 -0.2450
 1205TIP3    H125106   3.325   1.962   0.029 -0.4148 -1.9926 -1.9801
 1205TIP3    H225107   3.463   1.911  -0.007  0.5422 -1.4529  0.6923
 1206TIP3   OH225108   0.300   5.406  15.404  0.0034  0.1251 -0.1808
 1206TIP3    H125109   0.367   5.442  15.346  0.0397  1.2423  0.5311
 1206TIP3    H225110   0.291   5.471  15.474  0.1961 -1.3250  1.2552
 1207TIP3   OH225111   0.462   4.539  12.615 -0.3033 -0.2339 -0.0738
 1207TIP3    H125112   0.433   4.590  12.691 -1.7257 -0.7434 -0.2538
 1207TIP3    H225113   0.420   4.581  12.540 -0.4543 -0.8836 -0.3604
 1208TIP3   OH225114   1.364   6.829  11.292  0.3889 -0.0644  0.3590
 1208TIP3    H125115   1.454   6.853  11.270  0.4673  0.5455  1.3052
 1208TIP3    H225116   1.315   6.850  11.212  1.0983 -0.5221 -0.2087
 1209TIP3   OH225117   1.328   2.453   4.523  0.4688  0.4520 -0.0577
 1209TIP3    H125118   1.252   2.499   4.486 -0.7856 -0.0515  1.7612
 1209TIP3    H225119   1.349   2.386   4.458 -1.1337  0.1217 -0.2785
 1210TIP3   OH225120   1.597   6.040  16.566  0.1707 -0.0385 -0.1163
 1210TIP3    H125121   1.615   6.133  16.562  2.1806 -0.4312 -1.3885
 1210TIP3    H225122   1.623   6.006  16.481  0.6094 -1.9318  0.7127
 1211TIP3   OH225123   3.768   1.105   4.616 -0.0395 -0.4626 -0.3713
 1211TIP3    H125124   3.776   1.018   4.577 -0.0571 -0.3120 -0.7090
 1211TIP3    H225125   3.675   1.113   4.639  0.2549 -1.2081  1.2363
 1212TIP3   OH225126   0.503   3.726   5.216  0.5439 -0.6032 -0.3146
 1212TIP3    H125127   0.422   3.680   5.238  0.7121 -1.2678 -1.0567
 1212TIP3    H225128   0.492   3.814   5.253 -1.9924  0.5330 -3.3173
 1213TIP3   OH225129   0.307   1.521  15.900 -0.2314  0.3687  0.4243
 1213TIP3    H125130   0.283   1.552  15.987  2.1737 -0.1267  1.3540
 1213TIP3    H225131   0.366   1.447  15.916  2.4316  1.8870 -1.4812
 1214TIP3   OH225132   5.834   2.579   3.098  0.7845 -0.6752  0.4211
 1214TIP3    H125133   5.840   2.576   3.194  3.0335  0.4004  0.3639
 1214TIP3    H225134   5.853   2.670   3.075 -1.7906 -0.3950 -1.0075
 1215TIP3   OH225135   1.740   6.620  16.903 -0.0992 -0.2639  0.5686
 1215TIP3    H125136   1.679   6.606  16.831  0.5387 -1.5374  0.2280
 1215TIP3    H225137   1.703   6.692  16.954 -1.2756 -0.2619 -0.2612
 1216TIP3   OH225138   5.334   2.648  12.257  1.2860  0.6062  0.0759
 1216TIP3    H125139   5.305   2.655  12.166  0.5194  0.8788  0.3369
 1216TIP3    H225140   5.401   2.716  12.266  0.4587  1.4419  0.0528
 1217TIP3   OH225141   0.438   1.974  15.397  0.3880  0.6728  0.0046
 1217TIP3    H125142   0.366   1.928  15.441  2.1850 -1.3572  1.0017
 1217TIP3    H225143   0.450   2.054  15.448  0.0208  0.1323  0.9656
 1218TIP3   OH225144   1.311   4.893  15.975 -0.4221  0.0126  0.8572
 1218TIP3    H125145   1.220   4.913  15.951 -0.3289  0.8207  1.1760
 1218TIP3    H225146   1.363   4.933  15.905 -0.3382 -1.4103  0.0550
 1219TIP3   OH225147   4.944   5.420  13.284  0.5844 -0.5552  0.2220
 1219TIP3    H125148   4.881   5.373  13.338  0.8714 -0.8587  0.2917
 1219TIP3    H225149   4.904   5.420  13.196 -0.4268  0.9159  0.6195
 1220TIP3   OH225150   0.100   1.591   1.339  0.3465 -0.4456  0.1300
 1220TIP3    H125151   0.056   1.675   1.345 -0.1027 -0.5021 -1.7539
 1220TIP3    H225152   0.125   1.570   1.430 -2.0954  0.3189  1.0542
 1221TIP3   OH225153   3.175   6.144  14.171  0.2140 -0.3639 -0.4387
 1221TIP3    H125154   3.234   6.089  14.223 -0.8482 -0.8755  0.2554
 1221TIP3    H225155   3.094   6.094  14.166 -0.8481  1.2021  0.3717
 1222TIP3   OH225156   3.815   1.510  16.886 -0.0743  0.2707  0.4688
 1222TIP3    H125157   3.735   1.520  16.836 -0.6470 -1.9802  0.8143
 1222TIP3    H225158   3.885   1.518  16.822 -0.6225  0.7710 -0.0825
 1223TIP3   OH225159   4.156   0.062   4.075 -0.4451  0.2707  0.3842
 1223TIP3    H125160   4.111   0.001   4.133  1.9638  0.1095  2.2517
 1223TIP3    H225161   4.228   0.012   4.038 -0.3621  1.1122 -0.6467
 1224TIP3   OH225162   1.188   1.482   4.997  0.5393 -0.2332  0.1720
 1224TIP3    H125163   1.151   1.531   5.071  0.4665 -1.1774  0.7745
 1224TIP3    H225164   1.253   1.541   4.959  1.7830 -0.3384  2.0095
 1225TIP3   OH225165   1.301   1.360  16.708 -0.2020  0.0191 -0.1359
 1225TIP3    H125166   1.300   1.290  16.643 -1.4572 -2.0226  1.9085
 1225TIP3    H225167   1.238   1.424  16.676  1.0715  0.3759 -2.1207
 1226TIP3   OH225168   1.069   2.746   1.927  0.7543 -0.2054  0.1368
 1226TIP3    H125169   0.992   2.712   1.882 -0.4102 -0.4445  2.1998
 1226TIP3    H225170   1.142   2.699   1.887 -0.4572 -2.2504  0.1758
 1227TIP3   OH225171   4.161   5.507  13.975  0.0312  0.2698  0.0356
 1227TIP3    H125172   4.224   5.466  14.035 -0.7353  0.4286  0.9775
 1227TIP3    H225173   4.145   5.441  13.908  1.0340  0.1479 -0.0989
 1228TIP3   OH225174   4.528   6.207   2.757  0.6970 -0.5905 -0.2986
 1228TIP3    H125175   4.541   6.127   2.807  0.5975 -0.7331 -0.5010
 1228TIP3    H225176   4.592   6.201   2.686 -0.0783 -1.0280 -0.9715
 1229TIP3   OH225177   5.190   5.830  16.915  0.2405  0.1827 -0.1746
 1229TIP3    H125178   5.106   5.869  16.889 -0.3584 -1.6249 -1.1425
 1229TIP3    H225179   5.189   5.833  17.010 -1.0208  0.0473 -0.1638
 1230TIP3   OH225180   5.572   2.041   5.242 -0.2297  0.3032 -0.3573
 1230TIP3    H125181   5.533   2.009   5.161 -0.0090 -0.0973 -0.3105
 1230TIP3    H225182   5.666   2.024   5.232 -0.4257 -1.9407  0.9171
 1231TIP3   OH225183   2.986   0.014  13.566 -0.0291 -0.0493  0.4120
 1231TIP3    H125184   2.974  -0.015  13.656 -1.0964  0.1622  0.3416
 1231TIP3    H225185   3.067   0.066  13.569 -0.2111  0.1950  1.3014
 1232TIP3   OH225186   3.225   0.116  13.503 -0.2721 -0.1217 -0.3611
 1232TIP3    H125187   3.253   0.204  13.475 -1.6625  0.7328  0.8120
 1232TIP3    H225188   3.302   0.080  13.548  0.3409  0.4566 -0.9194
 1233TIP3   OH225189   3.228   1.627  14.955  0.1445 -0.8595 -0.0542
 1233TIP3    H125190   3.144   1.597  14.920  0.2485  0.0153 -1.0902
 1233TIP3    H225191   3.290   1.617  14.882  0.4673  0.5382  0.0010
 1234TIP3   OH225192   2.252   5.052   4.900  0.4237 -0.6723 -0.4523
 1234TIP3    H125193   2.334   5.018   4.936  0.1049 -1.4679 -0.4551
 1234TIP3    H225194   2.223   5.117   4.963  0.2376 -1.5426  0.3779
 1235TIP3   OH225195   4.311   3.321  16.930 -0.0837  0.0957  0.3937
 1235TIP3    H125196   4.279   3.366  17.009  0.1311  1.4349 -0.2478
 1235TIP3    H225197   4.232   3.294  16.884 -0.2235  0.0274  0.6699
 1236TIP3   OH225198   3.270   2.197  16.476 -0.6308  0.3191 -0.0722
 1236TIP3    H125199   3.300   2.111  16.447 -1.3555  0.3850 -1.0892
 1236TIP3    H225200   3.185   2.181  16.518  1.0950 -0.0087  3.7082
 1237TIP3   OH225201   3.911   0.723  15.854 -0.2687  0.2410  0.6480
 1237TIP3    H125202   3.987   0.740  15.799 -0.4202  1.9946  0.9206
 1237TIP3    H225203   3.947   0.679  15.932  0.4838  1.0804  0.7932
 1238TIP3   OH225204   4.087   2.983  13.436  0.3272 -0.0441  0.2813
 1238TIP3    H125205   4.100   3.047  13.506  1.9208 -0.4798  0.4241
 1238TIP3    H225206   4.173   2.974  13.396 -0.1021 -1.3273 -0.4075
 1239TIP3   OH225207   3.185   3.119  14.593 -0.1350 -0.5085 -0.0543
 1239TIP3    H125208   3.095   3.116  14.624 -0.0907  0.3057  0.1690
 1239TIP3    H225209   3.211   3.210  14.603  1.3203 -1.0601  1.5622
 1240TIP3   OH225210   5.685   6.405  11.381  0.2453  0.0618 -0.4893
 1240TIP3    H125211   5.612   6.377  11.437 -0.3329  1.2908 -0.5951
 1240TIP3    H225212   5.756   6.344  11.403  0.1028  0.5863  1.7306
 1241TIP3   OH225213   4.628   1.035  16.538 -0.3909  0.5340  0.1114
 1241TIP3    H125214   4.641   0.973  16.466  1.0318  0.1482  0.6667
 1241TIP3    H225215   4.535   1.058  16.533 -0.2564  0.8589 -2.1114
 1242TIP3   OH225216   5.245   1.409  11.387  0.2668 -0.4145 -0.3492
 1242TIP3    H125217   5.159   1.445  11.408  0.1803 -0.4861 -0.5755
 1242TIP3    H225218   5.232   1.314  11.387  0.5221 -0.4565  0.3629
 1243TIP3   OH225219   0.978   1.268  10.467 -0.1954  0.4122 -0.1659
 1243TIP3    H125220   1.045   1.296  10.530  1.7949 -1.0625 -1.4709
 1243TIP3    H225221   0.939   1.350  10.436  2.8621  1.6242 -1.2132
 1244TIP3   OH225222   3.784   6.849  14.105  0.7463 -0.0161 -0.0518
 1244TIP3    H125223   3.857   6.903  14.135 -0.7777  0.6912  2.6398
 1244TIP3    H225224   3.803   6.762  14.141  0.5206  0.0360  0.1904
 1245TIP3   OH225225   4.370   6.056  14.075 -0.2160 -0.4732 -0.3501
 1245TIP3    H125226   4.330   6.002  14.007 -1.2990 -0.2303  0.0755
 1245TIP3    H225227   4.396   5.994  14.143  1.6467 -0.8148 -1.3241
 1246TIP3   OH225228   5.733   5.438  11.411  0.3462  0.1128 -0.3053
 1246TIP3    H125229   5.749   5.344  11.417 -1.0635 -0.1386 -0.0693
 1246TIP3    H225230   5.638   5.447  11.417  0.2872  1.4157 -2.2287
 1247TIP3   OH225231   2.765   0.526  11.246  0.1780  0.0415 -0.4154
 1247TIP3    H125232   2.773   0.443  11.200 -1.1942 -1.5699  2.0332
 1247TIP3    H225233   2.670   0.539  11.255  0.3248  2.4233 -1.5897
 1248TIP3   OH225234   6.079   0.798   3.303 -0.1687  0.3141  0.1729
 1248TIP3    H125235   6.026   0.874   3.326  1.4738  1.2837  0.9572
 1248TIP3    H225236   6.078   0.743   3.381  0.3228  0.5381  0.3365
 1249TIP3   OH225237   6.494   0.594   1.228  0.8345 -0.2766  0.3936
 1249TIP3    H125238   6.439   0.632   1.297  1.7228 -0.9276  1.4922
 1249TIP3    H225239   6.466   0.502   1.223 -0.7111  0.2212 -1.6509
 1250TIP3   OH225240   4.875   2.192   6.451 -0.1135 -0.2264  0.5638
 1250TIP3    H125241   4.962   2.219   6.481 -0.2118  0.3454  0.3507
 1250TIP3    H225242   4.883   2.098   6.435  0.0607 -0.4578  1.9514
 1251TIP3   OH225243   2.188   1.931  16.145  0.6414 -0.3616  0.0916
 1251TIP3    H125244   2.207   1.851  16.194  1.8169  0.9528  1.8732
 1251TIP3    H225245   2.093   1.941  16.150  0.3873 -2.0055 -0.8024
 1252TIP3   OH225246   4.076   4.434   3.094  0.0154 -0.1910 -0.5898
 1252TIP3    H125247   4.136   4.369   3.058 -1.4310 -0.8813 -1.8375
 1252TIP3    H225248   4.002   4.383   3.127 -0.9109  0.7817 -1.1194
 1253TIP3   OH225249   5.772   4.324  13.808 -0.3730 -0.4120 -0.0915
 1253TIP3    H125250   5.867   4.321  13.799 -0.3532 -1.2738  0.2799
 1253TIP3    H225251   5.748   4.236  13.839 -1.2914 -0.2219 -0.2270
 1254TIP3   OH225252   1.571   3.148   3.277  0.4300 -0.2133 -0.0747
 1254TIP3    H125253   1.563   3.084   3.207  2.4140 -2.0641  1.2590
 1254TIP3    H225254   1.665   3.160   3.288  0.1393  1.3310  1.1568
 1255TIP3   OH225255   2.451   6.238   6.194 -0.4046 -1.0849 -0.0147
 1255TIP3    H125256   2.484   6.151   6.217  1.6588  0.2701  2.9504
 1255TIP3    H225257   2.375   6.251   6.250  0.3251 -0.4076  0.8578
 1256TIP3   OH225258   0.515   6.612  13.445  0.4195  0.3314  0.3693
 1256TIP3    H125259   0.562   6.688  13.479 -0.1643  0.0064  1.9985
 1256TIP3    H225260   0.492   6.561  13.523  0.2532 -1.1968 -0.6389
 1257TIP3   OH225261   1.505   5.096  13.000  0.3771  0.1871 -0.1856
 1257TIP3    H125262   1.547   5.029  13.054  1.0369 -0.3911 -1.3770
 1257TIP3    H225263   1.506   5.060  12.911  0.8851  1.8389 -0.8921
 1258TIP3   OH225264   1.871   1.742   0.834  0.1724  0.1753  0.0761
 1258TIP3    H125265   1.775   1.739   0.841  0.1720  0.9700  0.4977
 1258TIP3    H225266   1.902   1.723   0.922  0.3382  2.2717  0.5086
 1259TIP3   OH225267   3.037   0.158   2.232 -0.0597 -0.1477 -0.2727
 1259TIP3    H125268   3.050   0.082   2.176  1.2987 -1.5538  1.7895
 1259TIP3    H225269   3.083   0.229   2.187  0.3628 -1.0322 -1.2877
 1260TIP3   OH225270   2.854   6.721   5.819 -0.2280  0.4036 -0.1228
 1260TIP3    H125271   2.870   6.815   5.811  2.8297  0.1858  1.7489
 1260TIP3    H225272   2.887   6.685   5.737 -1.9707  0.9070 -1.1175
 1261TIP3   OH225273   6.057   2.728   4.173 -0.0210 -0.0819 -0.0710
 1261TIP3    H125274   6.114   2.704   4.246  1.0947  1.2183 -0.4576
 1261TIP3    H225275   5.969   2.733   4.211  0.3441 -0.6290  0.8867
 1262TIP3   OH225276   6.185   2.992   0.431  0.6195 -0.3054 -0.1257
 1262TIP3    H125277   6.169   2.939   0.510 -0.2281 -0.4583 -0.3865
 1262TIP3    H225278   6.131   2.951   0.364 -1.9017  2.1684  0.1824
 1263TIP3   OH225279   6.677   6.760  12.224 -0.2882 -0.0720  0.8058
 1263TIP3    H125280   6.685   6.685  12.282 -5.2093  0.6905  2.9758
 1263TIP3    H225281   6.707   6.834  12.276 -0.4071  0.0639  0.6852
 1264TIP3   OH225282   6.652   2.372  15.009  0.1108  0.5798 -0.0606
 1264TIP3    H125283   6.613   2.287  15.024 -1.8420  1.2182 -1.1947
 1264TIP3    H225284   6.609   2.430  15.071 -0.4355  1.2034 -0.9922
 1265TIP3   OH225285   1.967   3.195  15.907 -0.2656  0.7336 -0.5446
 1265TIP3    H125286   2.007   3.169  15.990  0.4612  0.6897 -0.9027
 1265TIP3    H225287   1.924   3.278  15.926  1.3485  1.5985 -0.5303
 1266TIP3   OH225288   5.023   4.150  14.602 -0.4385  0.2263  0.4940
 1266TIP3    H125289   5.024   4.245  14.601 -0.5509  0.2420 -1.2624
 1266TIP3    H225290   4.943   4.125  14.557  0.2945 -0.6725 -0.3892
 1267TIP3   OH225291   0.835   1.466  11.807 -0.4179  0.2004  0.2408
 1267TIP3    H125292   0.839   1.399  11.875  1.4384  0.6227  0.5983
 1267TIP3    H225293   0.807   1.545  11.855 -0.1420  0.2597  0.3020
 1268TIP3   OH225294   4.435   4.392  12.418  0.5067 -0.2580  0.3513
 1268TIP3    H125295   4.399   4.443  12.345 -0.6454 -0.3139  0.8546
 1268TIP3    H225296   4.415   4.443  12.496 -2.4429 -2.2556  1.0847
 1269TIP3   OH225297   4.737   3.631   5.694 -0.4918  0.3041 -0.2511
 1269TIP3    H125298   4.660   3.688   5.693  0.0043  1.0339 -2.8501
 1269TIP3    H225299   4.701   3.545   5.717 -1.8214  0.9167  0.0948
 1270TIP3   OH225300   1.727   1.331  13.399  0.8158  0.1861 -0.4455
 1270TIP3    H125301   1.752   1.396  13.465  0.0509  0.7544 -0.7026
 1270TIP3    H225302   1.634   1.316  13.414  0.9186 -0.6418 -0.5819
 1271TIP3   OH225303   1.974   4.838   5.702 -0.9323 -0.2267 -0.2775
 1271TIP3    H125304   1.909   4.905   5.684 -0.4635  0.1116 -0.7401
 1271TIP3    H225305   2.058   4.885   5.699 -0.4043 -1.1565 -2.6243
 1272TIP3   OH225306   4.027   6.661  12.162 -0.2198  0.2669  0.4954
 1272TIP3    H125307   4.072   6.577  12.155  2.0934  1.3414  1.5620
 1272TIP3    H225308   3.988   6.660  12.250  1.2763  0.9349  1.2010
 1273TIP3   OH225309   5.325   2.043   0.231 -0.8964 -0.2444 -0.1869
 1273TIP3    H125310   5.415   2.063   0.256 -0.4900 -2.9764  0.8544
 1273TIP3    H225311   5.323   2.057   0.136  0.2391  1.0052 -0.0665
 1274TIP3   OH225312   6.831   2.245  16.040 -0.0368 -0.0467 -0.4762
 1274TIP3    H125313   6.879   2.163  16.044 -0.9036 -0.5509 -0.0639
 1274TIP3    H225314   6.745   2.224  16.077  0.0525  1.2767  0.5446
 1275TIP3   OH225315   5.506   5.022   4.294 -0.3061 -0.1649 -0.2058
 1275TIP3    H125316   5.430   5.008   4.238 -1.9016 -0.9283  2.0213
 1275TIP3    H225317   5.572   4.962   4.259 -1.1085 -0.3522 -1.4680
 1276TIP3   OH225318   2.366   2.941  14.554  0.1567  0.0479 -0.4701
 1276TIP3    H125319   2.422   2.966  14.627 -0.6355 -0.6195  0.3800
 1276TIP3    H225320   2.278   2.934  14.592 -0.1880 -0.7634 -1.3798
 1277TIP3   OH225321   2.855   3.842  15.012 -0.4911  0.4176 -0.3182
 1277TIP3    H125322   2.886   3.872  14.926 -0.0532  0.5557 -0.1129
 1277TIP3    H225323   2.920   3.875  15.074 -0.0309 -0.8897 -0.0724
 1278TIP3   OH225324   3.919   1.392  16.374  0.1763  0.1853 -0.5391
 1278TIP3    H125325   3.842   1.336  16.373 -0.5336  1.0782  0.9844
 1278TIP3    H225326   3.887   1.478  16.346  1.2794 -0.0980 -2.9820
 1279TIP3   OH225327   6.502   3.410  11.935 -0.2070 -1.1904 -0.2642
 1279TIP3    H125328   6.490   3.322  11.971  0.6950 -1.5277 -0.7665
 1279TIP3    H225329   6.471   3.469  12.004 -1.4644 -1.9106 -0.1868
 1280TIP3   OH225330   0.214   4.260   2.109 -0.0878  0.1927  0.1670
 1280TIP3    H125331   0.224   4.166   2.092 -2.1332 -0.0152 -0.1255
 1280TIP3    H225332   0.300   4.287   2.142  0.9393 -1.4967 -0.9461
 1281TIP3   OH225333   4.297   1.672  14.266  0.4739  0.2158 -0.3217
 1281TIP3    H125334   4.369   1.667  14.203 -0.2856 -0.3715 -1.1605
 1281TIP3    H225335   4.219   1.688  14.214 -0.2652 -0.8922  0.3778
 1282TIP3   OH225336   2.597   2.790  11.788  0.5433  0.1956  0.6381
 1282TIP3    H125337   2.628   2.751  11.706 -1.7403  0.0217 -0.2099
 1282TIP3    H225338   2.626   2.729  11.856  0.9590 -0.5782 -0.2125
 1283TIP3   OH225339   2.604   3.027  13.616  0.3919 -0.7850 -0.3200
 1283TIP3    H125340   2.596   3.107  13.669  1.6014 -1.2161  0.5708
 1283TIP3    H225341   2.517   2.988  13.619 -0.0975  0.2603 -0.3809
 1284TIP3   OH225342   6.692   3.081   0.087 -0.1586 -0.3751  0.1053
 1284TIP3    H125343   6.714   3.174   0.095  0.0619 -0.3574 -0.6673
 1284TIP3    H225344   6.666   3.070  -0.004 -0.4703 -1.0176  0.2648
 1285TIP3   OH225345   3.614   3.724  12.400 -0.4536 -0.1294 -0.3624
 1285TIP3    H125346   3.682   3.786  12.425 -0.9140  0.2485 -0.0347
 1285TIP3    H225347   3.607   3.665  12.476 -0.6184 -0.0555 -0.3203
 1286TIP3   OH225348   0.186   4.431  15.909 -0.2019  0.2243  0.4126
 1286TIP3    H125349   0.267   4.458  15.952  0.2124  0.8540 -0.7226
 1286TIP3    H225350   0.200   4.339  15.887 -0.4460 -0.1256  1.6525
 1287TIP3   OH225351   2.556   2.095   1.199  0.5731 -0.5090 -1.0131
 1287TIP3    H125352   2.595   2.126   1.280 -1.0845  0.0243 -0.3629
 1287TIP3    H225353   2.504   2.169   1.167 -2.2138 -1.9683 -0.2652
 1288TIP3   OH225354   5.427   4.712  12.172  0.0056 -0.1872 -0.5954
 1288TIP3    H125355   5.470   4.671  12.096 -0.8391 -0.2813 -1.0329
 1288TIP3    H225356   5.346   4.661  12.184  0.2966 -0.3977  0.5946
 1289TIP3   OH225357   1.037   0.877   2.109 -0.3306 -0.3971 -0.3650
 1289TIP3    H125358   1.063   0.901   2.198 -1.4471 -1.0244  0.1448
 1289TIP3    H225359   1.047   0.782   2.106 -1.5294 -0.5276 -0.4882
 1290TIP3   OH225360   3.582   0.503   2.722 -0.4647 -0.3769 -0.5116
 1290TIP3    H125361   3.551   0.515   2.632 -1.4733 -0.6089 -0.2107
 1290TIP3    H225362   3.657   0.443   2.713  0.2542  0.5985 -1.3037
 1291TIP3   OH225363   2.584   6.086  15.265  0.3558  0.4423  0.0784
 1291TIP3    H125364   2.654   6.069  15.201  0.4298  0.7377  0.0778
 1291TIP3    H225365   2.503   6.065  15.217  0.4226  0.4591 -0.0441
 1292TIP3   OH225366   6.575   1.860  13.425 -0.3463 -0.7369 -0.0472
 1292TIP3    H125367   6.610   1.775  13.449  0.2895 -0.9280 -1.5706
 1292TIP3    H225368   6.517   1.884  13.498  1.0736 -1.5069  1.3891
 1293TIP3   OH225369   5.767   5.228   0.125 -0.0976 -0.1662 -0.1099
 1293TIP3    H125370   5.752   5.295   0.191 -1.9542  0.9939 -1.5825
 1293TIP3    H225371   5.823   5.271   0.060 -0.1819 -0.5007 -0.4058
 1294TIP3   OH225372   5.637   6.847   0.204 -0.2039  0.2555  0.0367
 1294TIP3    H125373   5.700   6.837   0.276  0.2698  0.1663 -0.3806
 1294TIP3    H225374   5.583   6.768   0.208 -0.2645  0.3124  0.3739
 1295TIP3   OH225375   1.756   5.250  15.647 -0.1469  0.4722  0.0090
 1295TIP3    H125376   1.827   5.311  15.626 -0.6518  0.4101 -2.1544
 1295TIP3    H225377   1.799   5.167  15.663  0.6083  1.3941  3.6117
 1296TIP3   OH225378   3.527   0.154   4.882  0.2980  0.2723 -0.5725
 1296TIP3    H125379   3.528   0.232   4.826  1.1521  0.2670 -0.5759
 1296TIP3    H225380   3.585   0.175   4.955 -1.2020  0.4683  0.6034
 1297TIP3   OH225381   4.678   1.995  12.838 -0.4730  0.4752  0.3474
 1297TIP3    H125382   4.763   2.001  12.794 -0.2215 -3.6023 -0.1511
 1297TIP3    H225383   4.615   2.029  12.774  0.5915  2.0959  0.1139
 1298TIP3   OH225384   2.652   1.325   4.916 -0.6295 -0.3297 -0.6655
 1298TIP3    H125385   2.718   1.320   4.847  0.2109  2.2319 -0.1518
 1298TIP3    H225386   2.594   1.250   4.900  2.2138 -2.5430 -1.2898
 1299TIP3   OH225387   6.412   3.474  14.347 -0.1972  0.1450 -0.6669
 1299TIP3    H125388   6.478   3.432  14.291 -0.1000  2.5333 -2.5229
 1299TIP3    H225389   6.330   3.465  14.299 -1.3216 -2.5546  1.5015
 1300TIP3   OH225390   1.546   1.251   4.377 -0.5020 -0.1901  0.6061
 1300TIP3    H125391   1.632   1.284   4.350 -1.3745  2.5484  0.9165
 1300TIP3    H225392   1.545   1.160   4.346  1.4742  0.4847 -1.7839
 1301TIP3   OH225393   6.497   5.179  17.090 -0.0712 -0.4373  0.0695
 1301TIP3    H125394   6.486   5.266  17.052 -1.5151 -1.0411 -0.9903
 1301TIP3    H225395   6.423   5.128  17.056 -0.5020 -1.4985  2.4026
 1302TIP3   OH225396   4.430   0.185  15.201 -0.2631  0.1495 -0.2303
 1302TIP3    H125397   4.511   0.205  15.154 -0.1863 -0.8899 -0.5738
 1302TIP3    H225398   4.447   0.101  15.243 -0.6160  0.6849  1.0140
 1303TIP3   OH225399   2.569   0.715   6.176 -0.3181  0.1776  0.0824
 1303TIP3    H125400   2.587   0.679   6.262 -0.0068  0.6037  0.1984
 1303TIP3    H225401   2.586   0.809   6.185  1.6159 -0.0345 -0.9580
 1304TIP3   OH225402   1.567   1.941  14.800 -0.0648  0.0010  0.0516
 1304TIP3    H125403   1.598   1.903  14.883 -2.6015  1.1310  1.6614
 1304TIP3    H225404   1.612   2.026  14.795  0.2376 -0.1501  0.1854
 1305TIP3   OH225405   0.189   0.523  14.062  0.3747  0.7065 -0.1549
 1305TIP3    H125406   0.204   0.481  14.147 -2.6304  0.2844  0.2551
 1305TIP3    H225407   0.262   0.492  14.008  2.2146  0.7572  2.1261
 1306TIP3   OH225408   0.998   5.783  14.054  0.0288  0.2597 -0.3864
 1306TIP3    H125409   1.067   5.746  14.000  1.2813  1.7723  0.1211
 1306TIP3    H225410   1.027   5.871  14.075 -1.9295  0.8563  0.0946
 1307TIP3   OH225411   5.771   3.486   0.263  0.3240  0.0225 -0.5407
 1307TIP3    H125412   5.828   3.448   0.196  0.2344 -0.3293 -0.4157
 1307TIP3    H225413   5.830   3.541   0.315  0.3304  0.5608 -1.1108
 1308TIP3   OH225414   2.383   5.993   0.816 -0.0528 -0.3736  0.2599
 1308TIP3    H125415   2.397   5.933   0.889  1.1930 -0.8551 -0.3436
 1308TIP3    H225416   2.368   5.936   0.741  1.1081  0.0449 -0.3117
 1309TIP3   OH225417   0.952   4.694  11.267 -0.0392  0.4922  0.1982
 1309TIP3    H125418   0.968   4.608  11.305  0.8343  0.8610  0.6864
 1309TIP3    H225419   0.858   4.696  11.251 -0.5129  0.4528  2.6872
 1310TIP3   OH225420   4.084   2.950  17.051  0.1763 -0.1606 -0.3023
 1310TIP3    H125421   4.150   2.884  17.072  1.3608  1.2813  0.7448
 1310TIP3    H225422   4.097   3.018  17.117 -1.8829  0.5153 -0.5441
 1311TIP3   OH225423   3.541   4.191   2.079  0.4869 -0.1020 -0.9346
 1311TIP3    H125424   3.603   4.187   2.006  0.6665  1.0594 -0.8742
 1311TIP3    H225425   3.590   4.231   2.150 -0.5729  1.7961 -1.1917
 1312TIP3   OH225426   2.870   0.402  14.669  0.7330 -0.2189  0.0371
 1312TIP3    H125427   2.829   0.470  14.722 -1.1204  0.0391 -1.6339
 1312TIP3    H225428   2.960   0.433  14.657  0.4000  1.0821  0.7041
 1313TIP3   OH225429   1.673   4.807   1.435  0.9693  0.2121 -0.2457
 1313TIP3    H125430   1.642   4.801   1.525  1.5302  1.7351  0.0815
 1313TIP3    H225431   1.717   4.892   1.430  4.3271 -1.3695 -0.8723
 1314TIP3   OH225432   5.384   3.680   4.925  0.0379  0.3333 -0.1903
 1314TIP3    H125433   5.349   3.703   4.839  0.7055  2.6116  0.0742
 1314TIP3    H225434   5.478   3.667   4.909  0.4222  2.1799  0.3805
 1315TIP3   OH225435   5.646   5.613   3.804  0.0023  0.1181  0.5108
 1315TIP3    H125436   5.684   5.554   3.870  2.4760  2.2159  1.1468
 1315TIP3    H225437   5.581   5.664   3.852 -0.8897 -0.8705  0.3780
 1316TIP3   OH225438   1.605   2.871   0.011 -0.4076 -0.4971  0.7249
 1316TIP3    H125439   1.541   2.855   0.081 -0.1004 -0.3733  1.0340
 1316TIP3    H225440   1.591   2.798  -0.050 -0.6981 -0.5890  0.8964
 1317TIP3   OH225441   0.359   2.537  15.144 -0.3069 -0.2494 -0.2531
 1317TIP3    H125442   0.383   2.445  15.137  2.5077  0.5069 -2.2593
 1317TIP3    H225443   0.332   2.562  15.055 -1.1424  0.8586  0.2826
 1318TIP3   OH225444   3.724   5.159   2.306  0.1074 -0.2311 -0.4513
 1318TIP3    H125445   3.667   5.160   2.229  1.0643  0.4184 -1.1684
 1318TIP3    H225446   3.780   5.083   2.293  2.2735  1.4995 -1.9452
 1319TIP3   OH225447   2.549   2.642  15.023 -0.1687  0.2927  0.3868
 1319TIP3    H125448   2.520   2.717  14.970  0.7230  0.3392 -0.0405
 1319TIP3    H225449   2.467   2.605  15.057 -0.7341  0.5346 -0.6487
 1320TIP3   OH225450   5.556   2.420   5.239 -0.3191 -0.8446  0.1931
 1320TIP3    H125451   5.512   2.504   5.232 -1.3853 -1.2538  1.6139
 1320TIP3    H225452   5.624   2.434   5.304  0.2266 -0.8047 -0.3765
 1321TIP3   OH225453   5.202   4.804  16.576  0.0009  0.1235  0.0448
 1321TIP3    H125454   5.180   4.859  16.651  1.7572  0.1799  0.5476
 1321TIP3    H225455   5.257   4.735  16.611  0.9104  0.1878 -1.1839
 1322TIP3   OH225456   6.520   4.580   4.849  0.0755 -0.6464  0.4531
 1322TIP3    H125457   6.443   4.626   4.883  0.2525  0.1035 -0.1234
 1322TIP3    H225458   6.508   4.489   4.877 -1.3827 -0.6941 -0.2372
 1323TIP3   OH225459   6.172   1.192  15.953  0.6239  1.3002 -0.0249
 1323TIP3    H125460   6.246   1.131  15.960  0.4861  1.2463  1.0469
 1323TIP3    H225461   6.140   1.179  15.863  1.1038  0.3827 -0.0803
 1324TIP3   OH225462   0.132   1.185  14.666  0.0632 -0.3691  0.0492
 1324TIP3    H125463   0.080   1.205  14.745 -0.1343 -0.4125 -0.0693
 1324TIP3    H225464   0.067   1.181  14.596  0.2520 -0.2472 -0.1301
 1325TIP3   OH225465   1.834   2.355   1.910 -0.2966 -0.3085  0.1320
 1325TIP3    H125466   1.814   2.298   1.835 -0.1400  1.8391 -1.6250
 1325TIP3    H225467   1.768   2.424   1.906  1.4409  1.4362  0.1937
 1326TIP3   OH225468   1.006   0.802  15.780  0.8012 -0.3892 -0.1993
 1326TIP3    H125469   1.092   0.766  15.802  0.8419 -0.8607 -1.1009
 1326TIP3    H225470   0.980   0.757  15.700  0.8082  1.4994 -1.3233
 1327TIP3   OH225471   2.364   0.728   5.905  0.6225 -0.0989  0.1317
 1327TIP3    H125472   2.426   0.657   5.924 -0.8022 -1.0014  1.6199
 1327TIP3    H225473   2.407   0.779   5.836  2.5158 -1.3244  0.3284
 1328TIP3   OH225474   5.558   6.267  12.442 -0.1014 -0.3663 -0.0728
 1328TIP3    H125475   5.639   6.281  12.490 -0.9895  0.9140  1.1371
 1328TIP3    H225476   5.510   6.201  12.492 -0.4125 -0.0757  0.0206
 1329TIP3   OH225477   2.719   6.663  12.435 -0.0321  0.1921  0.5369
 1329TIP3    H125478   2.651   6.730  12.436 -0.0199  0.2196  2.2072
 1329TIP3    H225479   2.800   6.711  12.454  0.2868 -0.0218 -0.2331
 1330TIP3   OH225480   5.436   4.024   0.088  0.2562 -0.4836  0.0189
 1330TIP3    H125481   5.418   4.112   0.121  2.1788 -0.2773  0.6451
 1330TIP3    H225482   5.479   3.980   0.161  0.1205 -1.6640 -0.5890
 1331TIP3   OH225483   1.076   0.735   1.283 -0.7384 -0.1249 -0.5745
 1331TIP3    H125484   1.122   0.816   1.257  0.5963 -0.5659  0.2798
 1331TIP3    H225485   1.146   0.670   1.291 -1.6070 -0.9948  0.1859
 1332TIP3   OH225486   5.946   5.602   0.483  0.1530 -0.2093  0.4959
 1332TIP3    H125487   5.932   5.519   0.529  3.1008 -1.1389 -0.0762
 1332TIP3    H225488   5.924   5.583   0.392  1.5424 -0.6322  0.2289
 1333TIP3   OH225489   5.408   5.123   2.800 -0.1960 -0.5337 -0.3197
 1333TIP3    H125490   5.382   5.079   2.881 -3.1548  4.2060  1.7516
 1333TIP3    H225491   5.485   5.174   2.825 -3.3749  4.2101  1.3539
 1334TIP3   OH225492   3.366   3.027  16.267 -0.2572 -0.2007 -0.3375
 1334TIP3    H125493   3.316   2.972  16.327  0.1350  1.1451  1.3148
 1334TIP3    H225494   3.452   2.985  16.262  1.0345  1.5569  3.2009
 1335TIP3   OH225495   2.815   3.375   5.785  0.7080  0.1847  0.1468
 1335TIP3    H125496   2.878   3.353   5.853  0.9298  1.2105  0.2901
 1335TIP3    H225497   2.867   3.422   5.719  0.1682  0.6968  0.0815
 1336TIP3   OH225498   3.816   4.898   2.268 -0.7877  0.1636 -0.2398
 1336TIP3    H125499   3.834   4.875   2.177  1.8520  0.4031  0.1294
 1336TIP3    H225500   3.861   4.830   2.319 -0.8982  0.9049  0.8855
 1337TIP3   OH225501   2.490   1.918  11.400 -0.1756  0.1609  0.3158
 1337TIP3    H125502   2.489   1.828  11.430  1.5391 -0.0840 -0.2233
 1337TIP3    H225503   2.416   1.960  11.444 -2.5092 -2.0546 -1.2556
 1338TIP3   OH225504   6.101   6.062   1.585 -0.3643  0.0132 -0.1102
 1338TIP3    H125505   6.030   6.078   1.523  0.9314  2.5834 -1.0573
 1338TIP3    H225506   6.068   6.094   1.669 -0.9826 -0.6025 -0.1043
 1339TIP3   OH225507   0.677   0.458   1.676 -0.1649  0.1711  0.2292
 1339TIP3    H125508   0.619   0.396   1.632 -1.1091  1.6744 -0.7389
 1339TIP3    H225509   0.626   0.538   1.683  1.5165  1.3047  0.1175
 1340TIP3   OH225510   1.309   3.691  14.159  0.3270  0.1127 -0.3731
 1340TIP3    H125511   1.297   3.765  14.099 -1.8881 -0.4521 -0.7135
 1340TIP3    H225512   1.240   3.702  14.225  0.3745 -1.3026 -0.0579
 1341TIP3   OH225513   3.721   0.830  16.791 -0.0698 -0.1562  0.1088
 1341TIP3    H125514   3.625   0.829  16.786 -0.0176 -1.7653 -1.5069
 1341TIP3    H225515   3.744   0.922  16.787 -1.5371  0.2367  0.0789
 1342TIP3   OH225516   3.120   1.338   4.572 -0.0839 -0.0451  0.2381
 1342TIP3    H125517   3.141   1.265   4.513 -0.3626 -1.9978  2.4248
 1342TIP3    H225518   3.153   1.415   4.527 -0.2812 -1.4124 -2.4627
 1343TIP3   OH225519   4.337   0.692   5.638 -0.0667 -0.1423 -0.1751
 1343TIP3    H125520   4.274   0.623   5.658 -0.6851  0.8239  1.4748
 1343TIP3    H225521   4.378   0.712   5.722  1.4061  0.2607 -0.9555
 1344TIP3   OH225522   0.533   0.606  11.644 -0.1062 -0.5027  0.4954
 1344TIP3    H125523   0.589   0.534  11.615  0.5878  0.8710 -1.7975
 1344TIP3    H225524   0.539   0.604  11.740  3.7160 -0.5791  0.3975
 1345TIP3   OH225525   6.561   4.597  14.138  0.0771 -0.4135 -0.1818
 1345TIP3    H125526   6.497   4.631  14.200 -0.8436  0.5338 -1.6052
 1345TIP3    H225527   6.513   4.587  14.056  1.4050 -1.0618 -0.9236
 1346TIP3   OH225528   4.256   1.304  12.972  0.7503 -0.2884  0.2475
 1346TIP3    H125529   4.345   1.271  12.957  0.9464  0.3831 -0.0922
 1346TIP3    H225530   4.264   1.360  13.049  0.9399  0.9698 -0.6576
 1347TIP3   OH225531   6.268   0.462  15.582  0.1481 -0.0841  0.3838
 1347TIP3    H125532   6.224   0.392  15.632 -2.9476 -0.2696 -2.2787
 1347TIP3    H225533   6.196   0.517  15.551  1.8770  0.3827 -3.2337
 1348TIP3   OH225534   1.821   0.956   0.498  0.0277 -0.1235  0.0891
 1348TIP3    H125535   1.735   0.966   0.538  0.4445  0.3344  0.9031
 1348TIP3    H225536   1.818   0.870   0.456 -2.2458  1.4819 -3.5455
 1349TIP3   OH225537   6.692   6.435   3.048 -0.7457  0.0691  0.7433
 1349TIP3    H125538   6.673   6.514   2.997 -1.6950  1.2926  2.8272
 1349TIP3    H225539   6.785   6.419   3.034 -0.5788  1.4566  0.0909
 1350TIP3   OH225540   0.762   4.397  13.672  0.3014 -0.4710 -0.6304
 1350TIP3    H125541   0.842   4.395  13.725 -0.2190  0.3262  0.2210
 1350TIP3    H225542   0.783   4.455  13.599  1.4264 -2.5232 -2.0300
 1351TIP3   OH225543   4.340   3.032   0.553 -0.4654  0.2810  0.1789
 1351TIP3    H125544   4.394   2.977   0.497 -2.0647 -2.6560  1.2929
 1351TIP3    H225545   4.386   3.116   0.556  3.3666 -1.5825  0.0930
 1352TIP3   OH225546   3.034   0.587   1.343 -0.0674  0.1265  0.2362
 1352TIP3    H125547   3.062   0.496   1.353  2.3062  0.7124 -0.3183
 1352TIP3    H225548   3.044   0.605   1.250 -0.7444  0.8804  0.3001
 1353TIP3   OH225549   2.627   6.771   5.996  0.4150 -0.6729  0.1429
 1353TIP3    H125550   2.649   6.772   6.089  0.2111  0.3914  0.1982
 1353TIP3    H225551   2.668   6.850   5.961 -0.0465 -0.7287 -0.5383
 1354TIP3   OH225552   2.861   3.455  16.042 -0.1794 -0.2964  0.2668
 1354TIP3    H125553   2.777   3.469  15.998  0.0668 -0.5366 -0.2847
 1354TIP3    H225554   2.839   3.403  16.119 -0.8987  1.7318  1.5339
 1355TIP3   OH225555   0.036   3.981  16.576  0.1707  0.2227  0.3744
 1355TIP3    H125556  -0.032   3.940  16.522  1.0677 -0.0558 -0.5738
 1355TIP3    H225557  -0.012   4.042  16.632 -1.0293 -1.0022  0.7532
 1356TIP3   OH225558   6.187   6.348  14.335 -0.4136 -0.0280 -0.6720
 1356TIP3    H125559   6.153   6.305  14.414  0.4580 -2.6971 -1.6427
 1356TIP3    H225560   6.144   6.302  14.262  1.5034 -0.1417 -1.8087
 1357TIP3   OH225561   2.313   6.185  12.039 -0.0938  0.5272 -0.1251
 1357TIP3    H125562   2.336   6.278  12.040 -2.3231  1.1327  1.4328
 1357TIP3    H225563   2.273   6.171  11.954 -0.7220  1.2705  0.0412
 1358TIP3   OH225564   2.275   2.152   0.936  0.0217 -0.1879 -0.1220
 1358TIP3    H125565   2.247   2.241   0.954 -2.7568 -0.5180 -2.1500
 1358TIP3    H225566   2.355   2.162   0.885 -0.9392  1.2387 -1.4367
 1359TIP3   OH225567   4.369   3.695   1.685  0.0194  0.3301  0.3392
 1359TIP3    H125568   4.339   3.609   1.657 -0.3099  1.3847 -3.0076
 1359TIP3    H225569   4.291   3.751   1.680  1.0564  1.7353 -2.2069
 1360TIP3   OH225570   6.800   6.628   2.590 -0.4210 -0.0091  0.3486
 1360TIP3    H125571   6.712   6.593   2.577 -0.3537  0.1048 -0.4941
 1360TIP3    H225572   6.787   6.710   2.636 -0.8470  0.5240 -0.6870
 1361TIP3   OH225573   0.162   2.175  12.988 -0.0970 -0.5892 -0.4580
 1361TIP3    H125574   0.108   2.212  13.057  1.0964 -0.4707  0.4453
 1361TIP3    H225575   0.132   2.085  12.979  0.4470 -0.9415  0.9934
 1362TIP3   OH225576   4.879   6.201  14.113 -0.5106 -0.2518 -0.3294
 1362TIP3    H125577   4.863   6.166  14.025  0.6923  0.5049 -0.8812
 1362TIP3    H225578   4.874   6.124  14.170  0.5849 -1.1127 -1.3181
 1363TIP3   OH225579   6.327   5.588   3.270  0.5366  0.1684  0.0593
 1363TIP3    H125580   6.338   5.664   3.327  2.5217 -1.0032  1.3594
 1363TIP3    H225581   6.253   5.610   3.215  0.3771  2.5896  1.1233
 1364TIP3   OH225582   5.007   1.608   0.225 -0.0021 -0.5545  0.3362
 1364TIP3    H125583   4.938   1.542   0.214  0.2954 -1.1682  1.8433
 1364TIP3    H225584   5.067   1.569   0.289  0.6309  0.8393  0.6288
 1365TIP3   OH225585   4.673   0.789   3.314  0.0859 -0.4321  0.1623
 1365TIP3    H125586   4.701   0.744   3.235  0.8719 -0.0959  0.2354
 1365TIP3    H225587   4.741   0.769   3.379  0.4527  0.8418  0.1917
 1366TIP3   OH225588   3.394   6.752  12.821 -0.0358  0.1631 -0.3120
 1366TIP3    H125589   3.317   6.776  12.871 -0.8250 -1.3044 -0.7879
 1366TIP3    H225590   3.467   6.795  12.867 -0.9643  0.4639  0.9152
 1367TIP3   OH225591   5.509   6.746   1.285 -0.0684 -0.1878 -0.6350
 1367TIP3    H125592   5.524   6.700   1.368  0.2476  0.3197 -0.4020
 1367TIP3    H225593   5.586   6.726   1.232  0.3176  0.4851 -0.3376
 1368TIP3   OH225594   2.543   3.724   5.322 -0.2835 -0.4904  0.1398
 1368TIP3    H125595   2.505   3.730   5.234  0.1323 -0.0159 -0.0152
 1368TIP3    H225596   2.605   3.798   5.326  0.3869 -1.0588  0.4863
 1369TIP3   OH225597   3.742   5.279  11.613 -0.2021  0.7515 -0.6802
 1369TIP3    H125598   3.838   5.279  11.614 -0.1804  0.6508 -1.7214
 1369TIP3    H225599   3.719   5.203  11.560 -0.8225  1.5261 -1.5605
 1370TIP3   OH225600   4.774   2.804   1.890  0.1862 -0.5280  0.4876
 1370TIP3    H125601   4.757   2.783   1.982 -0.3290 -1.7861  0.1281
 1370TIP3    H225602   4.774   2.719   1.846 -2.7478  0.2134 -1.2036
 1371TIP3   OH225603   4.881   6.566   3.402 -0.0409 -0.2432 -0.1710
 1371TIP3    H125604   4.894   6.640   3.461  0.3978 -0.2237 -0.2941
 1371TIP3    H225605   4.808   6.592   3.346 -0.1206 -0.0534  0.0182
 1372TIP3   OH225606   0.040   0.916  14.501  0.0873  0.2912 -0.4174
 1372TIP3    H125607   0.019   0.941  14.592 -1.4049 -0.2081 -0.5995
 1372TIP3    H225608   0.027   0.821  14.499  0.7046  0.2174 -1.0113
 1373TIP3   OH225609   5.130   1.436  14.003 -0.3292 -1.0982 -0.6316
 1373TIP3    H125610   5.190   1.382  13.952  0.8953 -0.4290  0.0538
 1373TIP3    H225611   5.133   1.522  13.961  2.5621  0.1704  1.8329
 1374TIP3   OH225612   4.263   4.901   5.922  0.1190 -0.0504 -0.5401
 1374TIP3    H125613   4.179   4.866   5.950 -0.7533  1.3960 -1.2764
 1374TIP3    H225614   4.327   4.859   5.980 -1.2597  0.0317  1.1022
 1375TIP3   OH225615   1.713   0.949   2.281  0.0263 -0.4061 -0.1609
 1375TIP3    H125616   1.770   0.886   2.325 -0.8656 -0.5154  0.8701
 1375TIP3    H225617   1.680   0.903   2.204  1.4754 -0.2665 -0.9188
 1376TIP3   OH225618   3.504   5.604  15.558  0.1649  0.1483  0.1648
 1376TIP3    H125619   3.510   5.694  15.590  0.0035  0.3919 -0.4768
 1376TIP3    H225620   3.584   5.561  15.591  1.1008  0.9847 -0.9342
 1377TIP3   OH225621   5.810   6.331   0.354 -0.2009 -0.2721 -0.5118
 1377TIP3    H125622   5.840   6.414   0.318  0.5268 -0.4393 -0.3144
 1377TIP3    H225623   5.889   6.277   0.359 -0.4350 -0.5330  0.5903
 1378TIP3   OH225624   3.626   3.104  11.689  0.0087 -0.5847  0.0587
 1378TIP3    H125625   3.686   3.173  11.716  1.5090 -1.9668  0.4119
 1378TIP3    H225626   3.615   3.118  11.595 -1.3907  1.3494  0.4531
 1379TIP3   OH225627   2.368   3.275   2.521  0.0950 -0.1323 -0.4198
 1379TIP3    H125628   2.353   3.240   2.609 -1.0438 -0.4941 -0.7507
 1379TIP3    H225629   2.284   3.313   2.495  0.5374  0.3484 -1.1907
 1380TIP3   OH225630   4.739   6.408  10.965 -0.1846  0.3918 -0.0499
 1380TIP3    H125631   4.807   6.459  10.921  0.2841 -1.6043 -1.7389
 1380TIP3    H225632   4.787   6.351  11.026 -0.5824  0.7632  0.6319
 1381TIP3   OH225633   4.022   5.512   4.449  0.6962 -0.0673  0.4561
 1381TIP3    H125634   3.942   5.523   4.398 -0.0969  0.6457  1.7950
 1381TIP3    H225635   4.090   5.553   4.395 -0.0273  0.2729 -0.2270
 1382TIP3   OH225636   2.386   6.199   6.634 -0.0393 -0.0585  0.0993
 1382TIP3    H125637   2.332   6.122   6.617  0.1197 -0.1542  0.0277
 1382TIP3    H225638   2.457   6.193   6.571  0.2213 -0.0936  0.3941
 1383TIP3   OH225639   3.030   5.813   2.305  0.1787  0.0545  0.1827
 1383TIP3    H125640   3.071   5.890   2.345  1.4632 -0.2731 -0.4460
 1383TIP3    H225641   3.051   5.741   2.365  2.1436 -0.4451 -0.9952
 1384TIP3   OH225642   0.732   5.447  13.128  0.1728 -0.1374 -0.2535
 1384TIP3    H125643   0.687   5.363  13.133 -0.8361  0.3798 -0.4301
 1384TIP3    H225644   0.800   5.442  13.196  1.2451 -1.7150 -1.3688
 1385TIP3   OH225645   2.329   1.651  15.265 -0.6877  0.1483 -0.5156
 1385TIP3    H125646   2.416   1.622  15.292 -0.1982  0.0528 -2.1074
 1385TIP3    H225647   2.269   1.613  15.330  0.2957 -1.1787 -0.3542
 1386TIP3   OH225648   0.162   0.869   2.655 -0.7717  0.3116  0.2847
 1386TIP3    H125649   0.239   0.850   2.709 -0.6950 -1.1654 -0.3022
 1386TIP3    H225650   0.190   0.853   2.565 -1.7894 -0.3319  0.0658
 1387TIP3   OH225651   5.753   1.016   4.465  0.2483 -0.7051  0.3100
 1387TIP3    H125652   5.819   1.082   4.488  2.3061 -2.2765 -0.7590
 1387TIP3    H225653   5.734   0.972   4.548 -0.9377  0.9678  0.9790
 1388TIP3   OH225654   2.766   2.861  15.006  0.0965 -0.4078  0.4497
 1388TIP3    H125655   2.721   2.778  15.021 -2.1126  0.6448  0.0294
 1388TIP3    H225656   2.723   2.923  15.065  0.9623  0.6746 -0.0119
 1389TIP3   OH225657   3.557   3.533   6.461 -0.5517 -0.1877  0.4977
 1389TIP3    H125658   3.539   3.535   6.555  1.4415 -1.0608  0.9450
 1389TIP3    H225659   3.477   3.568   6.420 -0.7998  1.9163  2.5818
 1390TIP3   OH225660   1.639   5.900   1.992  0.2918 -0.5012 -0.1084
 1390TIP3    H125661   1.591   5.928   2.070  0.0506 -0.9950 -0.0808
 1390TIP3    H225662   1.583   5.835   1.951 -0.8589  1.6092 -2.1539
 1391TIP3   OH225663   5.254   0.118   4.381 -0.6279 -0.3156 -0.6303
 1391TIP3    H125664   5.224   0.030   4.402  0.4590 -0.7060 -0.6635
 1391TIP3    H225665   5.336   0.105   4.335  1.3279  0.7460  2.2669
 1392TIP3   OH225666   6.676   2.713   2.846  0.2262  0.2978  0.0203
 1392TIP3    H125667   6.589   2.696   2.809 -0.2370  0.0844  1.1660
 1392TIP3    H225668   6.687   2.808   2.835  0.5286  0.1174 -1.5178
 1393TIP3   OH225669   6.746   0.794  11.676  0.3022 -0.3725 -0.4971
 1393TIP3    H125670   6.700   0.754  11.750 -0.1031  1.5286  0.3410
 1393TIP3    H225671   6.832   0.752  11.675  0.3255 -0.4282  1.0907
 1394TIP3   OH225672   5.605   3.689   5.149 -0.4260 -0.1784  0.2536
 1394TIP3    H125673   5.532   3.727   5.197 -0.0606 -0.2933  0.9183
 1394TIP3    H225674   5.574   3.603   5.121 -0.9265  0.2168 -0.4346
 1395TIP3   OH225675   2.676   5.933  16.001 -0.8691 -0.1887 -0.3107
 1395TIP3    H125676   2.604   5.953  16.060 -1.3583 -1.5112 -0.4257
 1395TIP3    H225677   2.749   5.912  16.058 -0.9220 -0.0273 -0.1835
 1396TIP3   OH225678   1.597   0.626   2.902  0.5295  0.1584 -0.0143
 1396TIP3    H125679   1.575   0.679   2.978  1.1656  0.7366 -0.2236
 1396TIP3    H225680   1.651   0.683   2.847 -0.6276  0.0483 -1.3113
 1397TIP3   OH225681   5.575   4.001   0.612 -0.1511  0.0529 -0.7292
 1397TIP3    H125682   5.493   3.993   0.662  0.0353  1.2554 -0.1900
 1397TIP3    H225683   5.642   3.969   0.672 -0.2328 -1.1058 -1.2392
 1398TIP3   OH225684   4.424   6.530  16.151 -0.4542  0.1714  0.2920
 1398TIP3    H125685   4.376   6.569  16.225 -0.2837  2.3587 -0.6805
 1398TIP3    H225686   4.355   6.497  16.093 -0.6464 -0.0994  0.6687
 1399TIP3   OH225687   6.719   0.101   3.576  0.1058 -0.4772 -0.3640
 1399TIP3    H125688   6.771   0.059   3.644 -1.5414  0.6199  1.6824
 1399TIP3    H225689   6.661   0.032   3.544 -1.8244 -0.1877  2.2006
 1400TIP3   OH225690   0.755   3.783   3.724  0.3406  0.1568  0.2022
 1400TIP3    H125691   0.817   3.750   3.659 -0.2341 -0.7140  0.0797
 1400TIP3    H225692   0.750   3.877   3.707 -0.9097 -0.2472 -2.0113
 1401TIP3   OH225693   6.784   3.144  13.118  0.2387 -0.5529  0.2504
 1401TIP3    H125694   6.759   3.051  13.119 -1.6399 -0.0874 -0.4546
 1401TIP3    H225695   6.828   3.157  13.203 -2.2922 -1.3865  1.8060
 1402TIP3   OH225696   4.230   6.763  16.056 -0.3994  0.0944 -0.5608
 1402TIP3    H125697   4.164   6.715  16.006 -1.0926  1.1289 -0.6549
 1402TIP3    H225698   4.192   6.774  16.143  1.3119 -2.8166  0.7104
 1403TIP3   OH225699   1.704   5.743  16.683 -0.3419  0.0026  0.0383
 1403TIP3    H125700   1.721   5.680  16.754  1.5695 -1.6696 -1.7902
 1403TIP3    H225701   1.778   5.803  16.687  0.5801 -0.9853 -1.3916
 1404TIP3   OH225702   3.683   0.532  13.423  0.3817  0.1751 -0.5769
 1404TIP3    H125703   3.722   0.581  13.351  1.1304  0.0957 -0.2403
 1404TIP3    H225704   3.670   0.444  13.387  0.0891  0.3187 -0.8304
 1405TIP3   OH225705   5.165   6.754   5.851 -0.1565  0.2363 -0.5051
 1405TIP3    H125706   5.214   6.834   5.835  1.3878 -0.4691  0.4605
 1405TIP3    H225707   5.129   6.766   5.939  0.2455 -0.2014 -0.2781
 1406TIP3   OH225708   4.585   3.534  13.491 -0.6991 -0.1046 -0.2593
 1406TIP3    H125709   4.504   3.487  13.513 -0.3810 -0.1375  0.8914
 1406TIP3    H225710   4.654   3.483  13.533 -0.3711  1.4908  1.2487
 1407TIP3   OH225711   2.376   5.426   0.649 -0.2166 -0.2019 -0.2930
 1407TIP3    H125712   2.372   5.422   0.553 -0.1610 -1.3282 -0.2675
 1407TIP3    H225713   2.313   5.494   0.673  0.4552  0.7609 -1.1600
 1408TIP3   OH225714   5.701   5.847   4.624  0.0729  0.5609  0.3615
 1408TIP3    H125715   5.795   5.853   4.606  0.2133 -0.1032  0.8530
 1408TIP3    H225716   5.662   5.914   4.567  0.6956 -0.1290 -0.9247
 1409TIP3   OH225717   6.702   6.583  10.947  0.6570  0.2238  0.3227
 1409TIP3    H125718   6.686   6.523  10.873  1.9430 -0.6446  0.7141
 1409TIP3    H225719   6.748   6.657  10.907 -0.2675  0.6213 -0.0363
 1410TIP3   OH225720   2.117   5.999   0.435  0.1502 -0.0495 -0.1971
 1410TIP3    H125721   2.090   5.928   0.375 -0.9673 -1.0798  1.4261
 1410TIP3    H225722   2.037   6.019   0.484  0.6057  1.9836 -0.2176
 1411TIP3   OH225723   5.426   0.888  11.985 -0.2775  0.0072 -0.5266
 1411TIP3    H125724   5.410   0.834  12.063  0.2570  1.5037  0.6682
 1411TIP3    H225725   5.520   0.882  11.970 -0.0681  1.2376  0.1394
 1412TIP3   OH225726   4.386   2.225   0.967 -0.0508 -0.2673  0.1374
 1412TIP3    H125727   4.464   2.226   0.910  1.3769 -1.7673  1.9201
 1412TIP3    H225728   4.407   2.287   1.037  0.0696 -1.4662  1.2081
 1413TIP3   OH225729   0.123   2.541  15.299  0.3262 -0.1184  1.1447
 1413TIP3    H125730   0.207   2.553  15.255 -0.5966  0.5478 -0.4963
 1413TIP3    H225731   0.079   2.625  15.290 -1.6087 -1.2256 -0.4443
 1414TIP3   OH225732   4.150   1.413   2.494 -0.2597 -0.2412  0.2795
 1414TIP3    H125733   4.174   1.415   2.587 -0.9907 -1.2233  0.5041
 1414TIP3    H225734   4.143   1.320   2.473  2.3812 -0.1458 -1.4459
 1415TIP3   OH225735   3.343   6.669  16.586 -0.6306 -0.5173  0.6747
 1415TIP3    H125736   3.332   6.748  16.532  1.7158  0.6684  1.7506
 1415TIP3    H225737   3.257   6.654  16.625 -1.1843  1.4756  0.3564
 1416TIP3   OH225738   6.299   5.348  15.784  0.0476  0.1785 -0.6311
 1416TIP3    H125739   6.330   5.280  15.726 -0.4246  0.3160 -1.0498
 1416TIP3    H225740   6.378   5.399  15.806  0.3081 -0.1778 -0.7347
 1417TIP3   OH225741   2.562   5.692   3.709 -0.2582  0.1208  0.1205
 1417TIP3    H125742   2.607   5.718   3.789 -0.1271  0.9302 -0.2081
 1417TIP3    H225743   2.626   5.705   3.640 -0.4679 -0.2943 -0.1556
 1418TIP3   OH225744   1.518   3.455  14.685 -0.0826 -0.3139 -0.1863
 1418TIP3    H125745   1.515   3.494  14.598 -0.8880  0.9152  0.3740
 1418TIP3    H225746   1.579   3.382  14.676 -0.8967 -0.8237 -2.0199
 1419TIP3   OH225747   5.120   6.473   3.507 -0.9763 -0.1646  0.3327
 1419TIP3    H125748   5.173   6.545   3.474 -0.3073 -0.4622  0.7417
 1419TIP3    H225749   5.030   6.507   3.504 -0.4649  1.9706  3.5379
 1420TIP3   OH225750   5.681   6.782   3.683  0.1467 -0.4100  0.2352
 1420TIP3    H125751   5.599   6.782   3.732 -0.6443 -1.2173 -1.0404
 1420TIP3    H225752   5.686   6.870   3.646  0.4721  0.0232  1.2584
 1421TIP3   OH225753   5.618   4.825   1.853 -0.3814  0.0571 -0.0273
 1421TIP3    H125754   5.597   4.891   1.788  1.3767 -0.3178 -1.0548
 1421TIP3    H225755   5.684   4.866   1.909  0.4548 -0.6663 -0.4514
 1422TIP3   OH225756   4.557   4.082   1.587 -0.0280  0.0655 -0.4056
 1422TIP3    H125757   4.491   4.092   1.518 -2.6644 -1.3152  1.7091
 1422TIP3    H225758   4.580   3.989   1.585  0.8036  0.2581 -0.1885
 1423TIP3   OH225759   3.078   1.558  15.967  0.0225 -0.3165 -0.4160
 1423TIP3    H125760   3.049   1.587  16.053 -0.3270 -0.9029 -0.3327
 1423TIP3    H225761   3.131   1.631  15.934 -1.2579  0.6433 -0.4312
 1424TIP3   OH225762   1.052   6.480  16.246  0.2005  0.6918  0.2006
 1424TIP3    H125763   1.103   6.533  16.186  2.8869  0.1729  1.8499
 1424TIP3    H225764   1.058   6.391  16.212  0.8465  0.5559  0.6535
 1425TIP3   OH225765   5.287   1.186   3.393  0.2862 -0.0059 -0.0486
 1425TIP3    H125766   5.206   1.220   3.431  0.3021 -1.0348  0.9905
 1425TIP3    H225767   5.348   1.182   3.467  0.7422 -0.8155 -0.4558
 1426TIP3   OH225768   6.135   2.669  10.816  0.0890 -0.4552 -0.0482
 1426TIP3    H125769   6.170   2.714  10.893  1.8781  0.6981 -1.4748
 1426TIP3    H225770   6.040   2.668  10.830  0.3442 -0.2460  2.1210
 1427TIP3   OH225771   6.813   4.602  12.697 -0.0562 -0.1764  0.0060
 1427TIP3    H125772   6.741   4.635  12.751  1.2396 -0.3322  1.9317
 1427TIP3    H225773   6.871   4.677  12.685 -0.5892  0.0140 -1.7528
 1428TIP3   OH225774   5.637   4.398  11.843 -0.8824  0.2860  0.8089
 1428TIP3    H125775   5.618   4.435  11.929 -1.1121  4.6715 -0.8587
 1428TIP3    H225776   5.730   4.416  11.829 -0.8021 -0.5430  0.1765
 1429TIP3   OH225777   6.393   2.366  15.676 -0.3486 -0.3896  0.3963
 1429TIP3    H125778   6.373   2.313  15.754  1.4810  0.0336  1.2206
 1429TIP3    H225779   6.428   2.303  15.613  0.6880 -0.3756  0.9325
 1430TIP3   OH225780   6.831   3.485   2.542  0.4977 -0.0887  0.3570
 1430TIP3    H125781   6.760   3.548   2.555  2.4331  2.0405  1.3036
 1430TIP3    H225782   6.810   3.443   2.458  0.0403  3.1960 -1.3150
 1431TIP3   OH225783   3.921   3.047   4.127  0.3610  0.7534  0.2644
 1431TIP3    H125784   3.947   2.973   4.182  0.5983  1.1157  0.6455
 1431TIP3    H225785   3.994   3.108   4.132  0.4536  0.7296 -0.5843
 1432TIP3   OH225786   4.177   3.574  13.945 -0.0070  0.3260  0.6013
 1432TIP3    H125787   4.113   3.641  13.968 -0.1873 -0.3392  2.1618
 1432TIP3    H225788   4.138   3.492  13.973 -0.5379 -0.7349 -2.8236
 1433TIP3   OH225789   1.875   0.325   3.004  0.4124 -0.5782  0.5933
 1433TIP3    H125790   1.781   0.329   3.021  0.4041 -0.4076  0.5129
 1433TIP3    H225791   1.882   0.306   2.911  0.4580 -2.3585  0.9223
 1434TIP3   OH225792   6.117   3.379  13.117  0.5154 -0.1190 -0.0850
 1434TIP3    H125793   6.161   3.437  13.179  0.5954  1.9941 -1.9680
 1434TIP3    H225794   6.026   3.409  13.117  0.5530  0.0333 -1.0659
 1435TIP3   OH225795   5.315   0.349   5.233 -0.2885  0.1605  0.2586
 1435TIP3    H125796   5.354   0.332   5.319 -0.0646  1.6412  0.4728
 1435TIP3    H225797   5.234   0.397   5.253  0.3056  1.4613 -0.3970
 1436TIP3   OH225798   6.740   0.441  12.486  0.2446 -0.3044 -0.0177
 1436TIP3    H125799   6.711   0.353  12.511  0.8090 -0.0504  1.6420
 1436TIP3    H225800   6.827   0.450  12.525  0.9350  0.3851 -1.6156
 1437TIP3   OH225801   4.346   4.668  16.177 -0.5383  0.1500 -0.3326
 1437TIP3    H125802   4.272   4.726  16.194  0.0373  0.1792  2.5978
 1437TIP3    H225803   4.359   4.673  16.082 -2.9895  1.6905 -0.6762
 1438TIP3   OH225804   2.905   0.432   5.499 -0.1063  0.4138 -0.4338
 1438TIP3    H125805   2.972   0.366   5.478 -1.6185 -1.4270  0.2329
 1438TIP3    H225806   2.925   0.506   5.441  2.5116 -0.0173 -0.2262
 1439TIP3   OH225807   1.232   2.830   4.035 -0.4438  0.7933 -0.3252
 1439TIP3    H125808   1.274   2.915   4.022  2.4248 -0.2159  1.4236
 1439TIP3    H225809   1.243   2.812   4.129  0.6959 -2.2444 -0.9360
 1440TIP3   OH225810   5.540   3.501  13.323  0.1196  0.0836  0.4470
 1440TIP3    H125811   5.531   3.509  13.418 -0.2446 -2.0462  0.6406
 1440TIP3    H225812   5.520   3.409  13.305  0.0874  0.4719 -1.7142
 1441TIP3   OH225813   5.122   3.398   5.338  0.3532 -0.0537 -0.2859
 1441TIP3    H125814   5.210   3.424   5.310  0.1495  1.2788  0.2298
 1441TIP3    H225815   5.119   3.421   5.431  0.2758 -2.3751  0.3511
 1442TIP3   OH225816   3.209   6.629  15.549 -0.4911  0.5067  0.3520
 1442TIP3    H125817   3.286   6.578  15.526 -0.4333  1.5436 -2.1102
 1442TIP3    H225818   3.220   6.712  15.502 -3.7106  0.1914 -1.2576
 1443TIP3   OH225819   0.256   0.666  15.620  0.0057  0.4879  0.3185
 1443TIP3    H125820   0.209   0.684  15.701 -1.1256 -0.2021 -0.1677
 1443TIP3    H225821   0.330   0.612  15.648  0.0013  0.8026  0.9674
 1444TIP3   OH225822   3.886   4.992   4.646 -0.2600  0.3137  0.0273
 1444TIP3    H125823   3.839   5.043   4.712 -0.7873 -1.1057  0.7759
 1444TIP3    H225824   3.974   4.981   4.684 -0.4102 -0.0757  0.2617
 1445TIP3   OH225825   6.380   3.691  13.019 -0.1135 -0.0993 -0.1753
 1445TIP3    H125826   6.351   3.694  13.110  1.6518  0.6630  0.3943
 1445TIP3    H225827   6.347   3.607  12.986 -0.5246 -0.5182  1.2390
 1446TIP3   OH225828   4.756   5.567  11.051  0.4141 -0.3953  0.0933
 1446TIP3    H125829   4.761   5.472  11.038 -0.5407 -0.3373 -0.7764
 1446TIP3    H225830   4.734   5.602  10.965 -1.2713  0.4446  0.8178
 1447TIP3   OH225831   1.533   0.851   3.228  0.1214 -0.3579 -0.0009
 1447TIP3    H125832   1.574   0.854   3.141 -0.7312 -0.1414 -0.4104
 1447TIP3    H225833   1.584   0.913   3.280  0.3679 -0.1555 -0.4715
 1448TIP3   OH225834   3.243   2.707   5.208  0.2264  0.1974  0.2493
 1448TIP3    H125835   3.308   2.657   5.257  0.4522 -0.2844 -0.5190
 1448TIP3    H225836   3.291   2.781   5.173  0.3438 -0.0967 -0.2225
 1449TIP3   OH225837   0.801   2.947   2.369  0.2977  0.2194  0.1236
 1449TIP3    H125838   0.767   2.870   2.325 -0.1018 -0.3743  1.4135
 1449TIP3    H225839   0.857   2.912   2.439  1.0486  1.1246  0.0075
 1450TIP3   OH225840   4.577   5.151   2.596  0.3088 -0.2034 -0.1140
 1450TIP3    H125841   4.583   5.247   2.591 -0.0900 -0.0925  1.2059
 1450TIP3    H225842   4.648   5.120   2.540  1.4161  0.8871  0.6383
 1451TIP3   OH225843   2.106   5.992   5.530  0.1094  0.2688 -0.4766
 1451TIP3    H125844   2.088   6.069   5.475  1.0716  0.5184 -0.4705
 1451TIP3    H225845   2.112   6.028   5.619 -0.5377  0.0119 -0.3323
 1452TIP3   OH225846   2.428   5.264  13.140 -0.4617 -0.1816  0.6218
 1452TIP3    H125847   2.461   5.285  13.053 -2.0655  2.5610  0.5517
 1452TIP3    H225848   2.456   5.337  13.195 -1.7748 -0.4804  1.7597
 1453TIP3   OH225849   3.791   5.351  13.305 -0.6713  0.3498  0.2565
 1453TIP3    H125850   3.726   5.306  13.251  0.8927  0.2332 -1.6660
 1453TIP3    H225851   3.802   5.437  13.264  0.2100  0.4583  0.6838
 1454TIP3   OH225852   0.573   3.023  15.033  0.2746 -0.3639 -0.4801
 1454TIP3    H125853   0.547   2.931  15.025  2.0199 -0.9053 -0.3270
 1454TIP3    H225854   0.516   3.058  15.102 -0.7349 -1.1828 -0.8643
 1455TIP3   OH225855   2.925   3.923   0.941 -0.1877  0.4220 -0.1411
 1455TIP3    H125856   2.910   3.829   0.929 -0.6019  0.5496 -0.6227
 1455TIP3    H225857   2.993   3.927   1.008 -0.2876 -0.2193  0.0086
 1456TIP3   OH225858   6.845   3.031  16.127 -0.3326  0.0069  0.4371
 1456TIP3    H125859   6.874   3.078  16.048 -0.8196 -0.0223  0.2338
 1456TIP3    H225860   6.919   3.036  16.187 -0.3052  0.8747  0.3467
 1457TIP3   OH225861   5.774   1.241   4.135  0.0958  0.3952 -0.1523
 1457TIP3    H125862   5.709   1.172   4.123  0.4966 -0.4230  1.9393
 1457TIP3    H225863   5.813   1.252   4.048 -0.8029 -1.1674 -0.7981
 1458TIP3   OH225864   6.253   2.357  12.499  0.1210  0.0343 -0.4565
 1458TIP3    H125865   6.273   2.289  12.435  0.2478  0.2462 -0.6408
 1458TIP3    H225866   6.338   2.391  12.525  0.0003  1.5403 -1.8885
 1459TIP3   OH225867   0.450   6.448  12.897 -0.2150 -0.1286  0.2841
 1459TIP3    H125868   0.413   6.414  12.978  2.2385 -2.4645  0.5481
 1459TIP3    H225869   0.403   6.401  12.828 -0.4110 -0.1871  0.4549
 1460TIP3   OH225870   0.684   0.780  16.755  0.2229 -0.4729  0.0166
 1460TIP3    H125871   0.683   0.874  16.775 -0.4089 -0.5056  0.1636
 1460TIP3    H225872   0.628   0.741  16.822  0.2484 -0.9237 -0.2200
 1461TIP3   OH225873   5.799   5.299  14.819  0.1271 -0.0201  0.1574
 1461TIP3    H125874   5.750   5.366  14.773 -0.2102  0.3001  0.9622
 1461TIP3    H225875   5.867   5.271  14.757  0.5763  1.4048 -0.0179
 1462TIP3   OH225876   1.486   1.964  13.394 -0.3156 -0.1646 -0.5077
 1462TIP3    H125877   1.515   1.876  13.419  0.8103  0.3072 -0.0861
 1462TIP3    H225878   1.552   2.022  13.431 -0.8592  0.8439 -1.0833
 1463TIP3   OH225879   4.635   0.034   2.294 -0.6321  0.2926 -0.4393
 1463TIP3    H125880   4.615  -0.038   2.234  0.6082 -0.3426 -0.1202
 1463TIP3    H225881   4.705   0.084   2.250 -0.5031  0.4791 -0.0324
 1464TIP3   OH225882   1.430   1.678  14.469  0.0456  0.2576 -0.1514
 1464TIP3    H125883   1.348   1.719  14.495  0.2026  0.9317 -0.7031
 1464TIP3    H225884   1.474   1.743  14.414 -0.0320 -0.9112 -1.6541
 1465TIP3   OH225885   5.263   6.752  11.698 -0.3721 -0.1261  0.1015
 1465TIP3    H125886   5.270   6.731  11.605  1.0648  1.4487 -0.1830
 1465TIP3    H225887   5.352   6.749  11.731 -0.5491  1.6837  0.8696
 1466TIP3   OH225888   4.691   0.316   4.269  0.0762 -0.3177 -0.0258
 1466TIP3    H125889   4.614   0.270   4.236  0.3747 -0.7717 -0.0987
 1466TIP3    H225890   4.755   0.309   4.199  0.7478 -1.3646  0.6604
 1467TIP3   OH225891   4.758   0.823  14.871  0.6170 -0.0205 -0.0229
 1467TIP3    H125892   4.757   0.767  14.949 -0.4936 -0.2472 -0.1767
 1467TIP3    H225893   4.827   0.787  14.816  1.2164 -0.0373  0.7300
 1468TIP3   OH225894   3.546   6.729   5.337  0.2393  0.4439 -0.1642
 1468TIP3    H125895   3.625   6.779   5.314  0.4286  0.6686  0.9155
 1468TIP3    H225896   3.513   6.696   5.253  0.0202  2.4912 -0.9255
 1469TIP3   OH225897   5.963   3.584   2.605 -0.2051  0.6908 -0.4838
 1469TIP3    H125898   6.018   3.549   2.536  0.4023 -0.9285  0.7444
 1469TIP3    H225899   6.018   3.647   2.651 -0.2940  1.0734 -0.9009
 1470TIP3   OH225900   1.233   5.013  15.651  0.1912  0.2905 -0.6664
 1470TIP3    H125901   1.153   4.976  15.613  0.9493  0.3858 -2.4446
 1470TIP3    H225902   1.299   4.944  15.639  0.2271 -0.1723  1.6278
 1471TIP3   OH225903   2.642   2.167   4.044  0.3104  0.3490  0.2231
 1471TIP3    H125904   2.723   2.204   4.080  1.1783  2.1050 -3.1221
 1471TIP3    H225905   2.671   2.094   3.990 -0.3303  0.8939 -0.8791
 1472TIP3   OH225906   3.363   6.598   4.275  0.2905 -0.2385 -0.0448
 1472TIP3    H125907   3.374   6.510   4.241 -1.9185 -0.1803 -1.0826
 1472TIP3    H225908   3.300   6.589   4.347 -1.1572  0.6455 -1.1495
 1473TIP3   OH225909   2.277   1.347   2.013 -0.2811  0.0816 -0.7271
 1473TIP3    H125910   2.353   1.391   2.051 -1.4169  1.3507  0.2010
 1473TIP3    H225911   2.259   1.395   1.932  0.3824 -0.7466 -1.3773
 1474TIP3   OH225912   0.072   3.829   1.107 -0.0942  0.2022 -0.3574
 1474TIP3    H125913   0.113   3.905   1.147  0.5856  0.1056 -0.8595
 1474TIP3    H225914  -0.016   3.826   1.145  0.1554  0.7620  0.2667
 1475TIP3   OH225915   3.802   2.298  14.718  0.3063 -0.0739 -0.1989
 1475TIP3    H125916   3.727   2.309  14.660  0.2852  0.4363 -0.0847
 1475TIP3    H225917   3.803   2.378  14.771  1.6362  0.4748 -1.0060
 1476TIP3   OH225918   6.721   0.441   5.155 -0.5820  0.0764 -0.0855
 1476TIP3    H125919   6.714   0.535   5.172  3.1916  0.2168  1.6783
 1476TIP3    H225920   6.758   0.436   5.067 -2.4603  0.0561 -0.9375
 1477TIP3   OH225921   5.555   6.052   3.316 -0.0662  0.3381 -0.2479
 1477TIP3    H125922   5.609   6.078   3.240  0.5073  0.7689  0.2976
 1477TIP3    H225923   5.619   6.031   3.384 -0.5884  0.4349  0.2711
 1478TIP3   OH225924   0.144   1.717  16.804  0.1854 -0.1374 -0.2090
 1478TIP3    H125925   0.202   1.784  16.767 -0.9548  1.8655  1.4225
 1478TIP3    H225926   0.056   1.753  16.793 -0.5467 -1.8063 -0.0847
 1479TIP3   OH225927   4.931   6.702   3.698 -0.0764  0.3443 -0.0684
 1479TIP3    H125928   4.912   6.770   3.633 -0.9023  0.3445  0.1658
 1479TIP3    H225929   4.848   6.686   3.742 -0.3750 -2.1120 -1.3333
 1480TIP3   OH225930   4.075   3.308  13.948 -0.1381  0.2563  0.5114
 1480TIP3    H125931   3.994   3.269  13.981  0.0784  1.0744  2.1572
 1480TIP3    H225932   4.145   3.253  13.984  0.0793  0.6979  0.7888
 1481TIP3   OH225933   5.503   1.751   4.320 -0.2407 -0.2926 -0.5623
 1481TIP3    H125934   5.461   1.707   4.247  0.0371 -0.2952 -0.7202
 1481TIP3    H225935   5.433   1.763   4.384 -0.8307  1.0434 -1.4216
 1482TIP3   OH225936   2.317   5.764   0.989  0.2862 -0.1020 -0.2969
 1482TIP3    H125937   2.278   5.678   0.973 -0.3511 -0.0330  0.8127
 1482TIP3    H225938   2.377   5.751   1.062 -1.4048  0.7949  1.3203
 1483TIP3   OH225939   1.583   1.089  12.687 -0.3762  0.0853 -0.0712
 1483TIP3    H125940   1.607   1.003  12.654 -0.2269 -0.4140  1.2818
 1483TIP3    H225941   1.557   1.139  12.609 -0.0047 -1.0229 -0.9195
 1484TIP3   OH225942   2.074   1.770  11.020 -0.2696  0.7649  0.1803
 1484TIP3    H125943   2.133   1.699  10.995  1.0368  1.5008  1.1086
 1484TIP3    H225944   2.122   1.850  10.999 -0.3904  1.3909  2.1192
 1485TIP3   OH225945   2.156   1.211   5.650  0.3873  0.2440  0.3369
 1485TIP3    H125946   2.067   1.176   5.649  1.2105 -2.0662  1.2226
 1485TIP3    H225947   2.189   1.190   5.737  1.1408  2.9799  0.8133
 1486TIP3   OH225948   4.482   0.245  11.410 -0.5015 -0.0111 -0.5309
 1486TIP3    H125949   4.485   0.182  11.482  0.7255  0.3680 -0.2167
 1486TIP3    H225950   4.538   0.208  11.343  0.2973  0.7547 -0.3128
 1487TIP3   OH225951   3.748   0.056   2.826 -0.1355 -0.0638  0.0007
 1487TIP3    H125952   3.810  -0.007   2.863  0.0365  0.4630  0.6401
 1487TIP3    H225953   3.663   0.028   2.859 -0.2368 -0.7436 -0.8174
 1488TIP3   OH225954   1.716   0.336  16.966 -0.4335 -0.0301 -0.6097
 1488TIP3    H125955   1.739   0.374  17.050  2.1191  0.1077 -1.2759
 1488TIP3    H225956   1.695   0.244  16.986  1.0549 -0.2468  0.1178
 1489TIP3   OH225957   3.047   1.180  12.936 -0.1061  0.3531  0.4291
 1489TIP3    H125958   3.005   1.150  12.855 -0.4981 -0.4271  0.9037
 1489TIP3    H225959   2.982   1.236  12.978  0.3655  1.3396 -0.1246
 1490TIP3   OH225960   6.328   0.231   3.954 -0.0022 -0.0174  0.3372
 1490TIP3    H125961   6.420   0.255   3.940  0.2984 -1.5456 -0.5676
 1490TIP3    H225962   6.332   0.139   3.981 -1.3107 -0.4225 -0.7443
 1491TIP3   OH225963   3.854   1.582   3.937 -0.3461  0.1239 -0.1768
 1491TIP3    H125964   3.947   1.597   3.955 -0.3746  0.8619 -0.5876
 1491TIP3    H225965   3.808   1.630   4.006 -0.4217 -0.8002  0.4225
 1492TIP3   OH225966   0.498   3.771   6.170  0.0276 -0.8195  0.3887
 1492TIP3    H125967   0.533   3.686   6.145 -0.2526 -1.5492  2.3509
 1492TIP3    H225968   0.572   3.818   6.207 -0.2582 -1.0215  1.2442
 1493TIP3   OH225969   5.716   6.128   3.104 -0.3646 -0.0539 -0.2612
 1493TIP3    H125970   5.676   6.166   3.025  0.9382  0.0972 -0.8744
 1493TIP3    H225971   5.751   6.203   3.152 -1.0039 -0.1628  0.3880
 1494TIP3   OH225972   4.607   0.594  14.330 -0.2608  0.5865 -0.6624
 1494TIP3    H125973   4.550   0.532  14.285 -0.1614  0.1511 -0.1994
 1494TIP3    H225974   4.557   0.675  14.332 -1.3070 -0.0544  0.6513
 1495TIP3   OH225975   4.411   3.470  10.868 -0.3118 -0.9464  0.4136
 1495TIP3    H125976   4.417   3.544  10.929  0.5404 -0.3632 -0.3513
 1495TIP3    H225977   4.317   3.461  10.851 -0.4274 -0.0342  0.5138
 1496TIP3   OH225978   3.014   3.278  13.459 -0.8020  0.0420 -0.5086
 1496TIP3    H125979   3.049   3.362  13.488  1.2597 -0.8173 -0.3510
 1496TIP3    H225980   2.980   3.237  13.539 -1.6452  0.6225 -0.5563
 1497TIP3   OH225981   3.935   1.736  14.553  0.1200  0.0633  0.8270
 1497TIP3    H125982   3.889   1.686  14.487  1.0859  2.5389 -1.9299
 1497TIP3    H225983   3.866   1.779  14.604 -0.6757  0.6165 -0.6691
 1498TIP3   OH225984   3.735   2.353  11.729 -0.0299 -0.6487  0.4662
 1498TIP3    H125985   3.640   2.360  11.740 -0.0060  1.5416 -0.2686
 1498TIP3    H225986   3.747   2.328  11.637  0.0843  2.0419 -0.3325
 1499TIP3   OH225987   1.415   1.801  14.082 -0.4351 -0.0911 -0.2794
 1499TIP3    H125988   1.328   1.829  14.055  0.1109  2.3603  0.2688
 1499TIP3    H225989   1.462   1.882  14.102  1.4880 -1.4007  0.9605
 1500TIP3   OH225990   2.200   4.683  10.125 -0.3125 -0.1577 -0.1184
 1500TIP3    H125991   2.147   4.747  10.173 -2.3784 -1.2937 -0.7625
 1500TIP3    H225992   2.270   4.735  10.086 -1.7707  1.7094 -0.4130
 1501TIP3   OH225993   1.392   4.509  15.011 -0.6920 -0.4322 -0.0229
 1501TIP3    H125994   1.439   4.439  14.966 -1.8710 -0.9727 -0.4638
 1501TIP3    H225995   1.299   4.486  15.001 -1.1184  1.2539 -0.2928
 1502TIP3   OH225996   1.376   2.383  10.515  0.2176 -0.0012 -0.4187
 1502TIP3    H125997   1.300   2.428  10.479  0.3889 -0.5897 -1.5622
 1502TIP3    H225998   1.347   2.293  10.527  0.6718 -0.1841 -0.6768
 1503TIP3   OH225999   6.068   5.191   2.852 -0.3877  0.4805 -0.1510
 1503TIP3    H126000   5.995   5.226   2.902 -0.2510  0.0559  0.3574
 1503TIP3    H226001   6.068   5.241   2.770 -1.1835  0.5471 -0.1184
 1504TIP3   OH226002   2.746   4.296  15.334 -0.0914 -0.4167  0.4032
 1504TIP3    H126003   2.727   4.225  15.272 -0.7724  0.0365  0.0805
 1504TIP3    H226004   2.691   4.277  15.410 -1.5891  0.6512 -0.3512
 1505TIP3   OH226005   2.758   3.492  11.401  0.1565 -0.3415  0.3705
 1505TIP3    H126006   2.818   3.562  11.426  0.3008  0.0552 -0.9753
 1505TIP3    H226007   2.809   3.436  11.343 -1.0935  0.7604 -1.9208
 1506TIP3   OH226008   2.368   1.480   5.286 -0.0702 -0.7909 -0.0019
 1506TIP3    H126009   2.311   1.541   5.240  0.8843  1.4439  1.6109
 1506TIP3    H226010   2.440   1.534   5.319 -0.1113 -2.3857  3.0891
 1507TIP3   OH226011   0.364   4.967  13.021  0.1297 -0.2729 -0.0663
 1507TIP3    H126012   0.304   5.040  13.005 -0.3919 -0.8878 -1.0241
 1507TIP3    H226013   0.339   4.933  13.107 -0.0238  0.3027  0.1175
 1508TIP3   OH226014   0.237   4.433  14.497 -0.5536  0.5174 -0.6418
 1508TIP3    H126015   0.311   4.494  14.504  0.5048 -0.8002  0.1261
 1508TIP3    H226016   0.269   4.363  14.440 -1.1991 -0.0532 -0.3209
 1509TIP3   OH226017   1.616   3.028   2.170  0.2092 -0.3767  0.1640
 1509TIP3    H126018   1.602   3.123   2.170 -2.3665 -0.6670  0.9652
 1509TIP3    H226019   1.615   3.003   2.262  1.7095 -1.1113  0.0065
 1510TIP3   OH226020   3.637   3.293   0.652  0.4487 -0.4161 -0.1260
 1510TIP3    H126021   3.572   3.232   0.684  0.2181 -0.0156  0.1825
 1510TIP3    H226022   3.664   3.259   0.567 -0.9138 -0.0328 -0.7338
 1511TIP3   OH226023   5.503   0.367   2.048  0.2424 -0.2101  0.0431
 1511TIP3    H126024   5.476   0.281   2.016  2.6294 -1.8284  1.9958
 1511TIP3    H226025   5.515   0.355   2.142  0.4753  2.3377  0.4091
 1512TIP3   OH226026   6.568   0.882  14.379  0.3433 -0.6728  0.1368
 1512TIP3    H126027   6.520   0.958  14.410  1.4972  0.0291  0.2642
 1512TIP3    H226028   6.576   0.826  14.457 -1.6216 -1.5679 -0.2521
 1513TIP3   OH226029   3.505   2.083  16.210  0.1777 -0.3525  0.1679
 1513TIP3    H126030   3.442   2.025  16.253  0.0626 -0.3413  0.0147
 1513TIP3    H226031   3.545   2.133  16.281 -0.4712  0.1284  0.2028
 1514TIP3   OH226032   1.662   0.180  14.835 -0.3742  0.3856  0.5172
 1514TIP3    H126033   1.735   0.239  14.818  1.7772 -2.0481  0.6864
 1514TIP3    H226034   1.607   0.227  14.897 -0.3679  3.3183 -1.5109
 1515TIP3   OH226035   0.401   5.444  12.659  0.5856  0.5345 -0.1641
 1515TIP3    H126036   0.416   5.528  12.701  1.0049  0.9663 -1.1417
 1515TIP3    H226037   0.305   5.434  12.659  0.4677  1.4941 -0.9338
 1516TIP3   OH226038   5.181   6.337  11.819  0.0963  0.2258  0.5622
 1516TIP3    H126039   5.206   6.334  11.912  0.2110  1.0070  0.5653
 1516TIP3    H226040   5.160   6.429  11.803  0.5656  0.1915 -0.3101
 1517TIP3   OH226041   1.127   4.994  14.413 -0.1993  0.1767  0.4673
 1517TIP3    H126042   1.173   5.032  14.488 -0.9442  0.7466  0.6426
 1517TIP3    H226043   1.057   4.942  14.451 -1.7136  1.9049  0.1839
 1518TIP3   OH226044   1.103   1.917  15.655 -0.4230 -0.5421  0.4604
 1518TIP3    H126045   1.084   1.824  15.663 -0.6442 -0.4942  0.4988
 1518TIP3    H226046   1.038   1.950  15.593 -0.8076 -0.2761  0.9934
 1519TIP3   OH226047   0.666   2.778  12.853  0.1435 -0.1531 -0.4939
 1519TIP3    H126048   0.623   2.697  12.879 -1.0931 -0.0159 -1.9837
 1519TIP3    H226049   0.595   2.841  12.843  0.9071  0.6524 -1.0106
 1520TIP3   OH226050   2.383   5.044   1.810  0.0192  0.0594  0.2803
 1520TIP3    H126051   2.334   5.123   1.830  1.2344  1.0620 -0.5380
 1520TIP3    H226052   2.381   4.993   1.891 -0.2754  1.2075  1.0138
 1521TIP3   OH226053   1.648   2.670  10.814 -0.0624  0.4236 -0.7154
 1521TIP3    H126054   1.636   2.763  10.798 -0.9270  0.1239 -2.0862
 1521TIP3    H226055   1.715   2.643  10.751  1.6977  0.4704  1.0657
 1522TIP3   OH226056   2.626   3.676  16.311  0.3966  0.2367  0.4716
 1522TIP3    H126057   2.634   3.602  16.371  0.7458  0.1436  0.3122
 1522TIP3    H226058   2.603   3.637  16.227  2.0122  0.1669  0.0385
 1523TIP3   OH226059   5.302   4.462  15.989 -0.3186  0.1820 -0.0837
 1523TIP3    H126060   5.344   4.455  15.903 -2.4147  0.1840 -1.1721
 1523TIP3    H226061   5.310   4.554  16.013  0.5577  0.1189 -0.1038
 1524TIP3   OH226062   2.776   6.850  14.057  0.0002 -0.1422 -0.6151
 1524TIP3    H126063   2.741   6.770  14.096 -1.2046  0.4122 -0.5188
 1524TIP3    H226064   2.703   6.886  14.007 -0.8564  3.0279  2.5965
 1525TIP3   OH226065   3.452   5.838   6.123  0.2106 -0.0915 -0.0549
 1525TIP3    H126066   3.523   5.877   6.174  0.9343  0.1321 -1.2041
 1525TIP3    H226067   3.496   5.773   6.067 -0.6758 -0.9257  0.1962
 1526TIP3   OH226068   5.773   5.292  15.394 -0.2916 -0.2581  0.1171
 1526TIP3    H126069   5.761   5.387  15.394  0.4995 -0.1391  1.0751
 1526TIP3    H226070   5.690   5.258  15.360 -0.4592  0.7774 -0.5813
 1527TIP3   OH226071   2.958   2.048  13.363 -0.3265 -0.0068  0.6269
 1527TIP3    H126072   2.911   1.977  13.320  1.9918 -1.5996  0.5379
 1527TIP3    H226073   2.992   2.101  13.290  0.0252 -0.2595  0.6027
 1528TIP3   OH226074   5.842   5.878   0.415 -0.1762 -0.0044  0.3938
 1528TIP3    H126075   5.878   5.890   0.328  0.8781  1.4102  1.0037
 1528TIP3    H226076   5.913   5.839   0.466  0.1677  1.6859  1.2876
 1529TIP3   OH226077   3.240   3.159  14.243  0.2190 -0.8685  0.0182
 1529TIP3    H126078   3.325   3.158  14.287 -1.0435  1.2077  2.7958
 1529TIP3    H226079   3.196   3.079  14.272  0.3033 -0.6993  0.6142
 1530TIP3   OH226080   4.880   1.003   3.663 -0.6348  0.4520 -0.3400
 1530TIP3    H126081   4.971   0.978   3.644 -0.3606  0.0691  1.3367
 1530TIP3    H226082   4.842   0.925   3.704 -1.6148  0.7362 -0.6909
 1531TIP3   OH226083   3.232   3.681   4.615  0.0256 -0.3556  0.1539
 1531TIP3    H126084   3.174   3.618   4.657 -0.9762  1.1705  1.1677
 1531TIP3    H226085   3.236   3.755   4.676  0.1503  1.0949 -1.5176
 1532TIP3   OH226086   5.065   6.734   4.037 -0.2011  0.4428 -0.5908
 1532TIP3    H126087   5.036   6.665   4.096  0.2883  0.1418 -0.7002
 1532TIP3    H226088   4.985   6.783   4.017 -0.2611  1.0414  0.9413
 1533TIP3   OH226089   4.649   5.270   3.726 -0.0005 -0.8338 -0.1775
 1533TIP3    H126090   4.639   5.310   3.813  0.2402 -1.1051 -0.0212
 1533TIP3    H226091   4.625   5.340   3.665  2.0874  0.1644  0.0297
 1534TIP3   OH226092   1.109   2.525  13.447  0.1568  1.0827  0.4936
 1534TIP3    H126093   1.058   2.523  13.366  0.7505  0.7400  0.1165
 1534TIP3    H226094   1.054   2.572  13.509  0.2134  2.5198 -0.4720
 1535TIP3   OH226095   3.446   5.044   5.199 -0.6710 -0.4753 -0.4884
 1535TIP3    H126096   3.418   5.000   5.118  1.4640  1.8540 -2.6527
 1535TIP3    H226097   3.407   5.131   5.194  1.2198  0.4320 -0.1066
 1536TIP3   OH226098   3.482   5.396  11.592 -0.6601  0.3539 -0.5082
 1536TIP3    H126099   3.561   5.341  11.595 -0.3171  0.8443 -0.2402
 1536TIP3    H226100   3.436   5.375  11.673  0.5544  1.9894  0.6875
 1537TIP3   OH226101   0.062   1.363   5.436 -0.5161 -0.5285 -0.3915
 1537TIP3    H126102   0.109   1.288   5.471  0.1694  1.4261  3.4532
 1537TIP3    H226103   0.129   1.415   5.392  0.3093  0.4722  1.9040
 1538TIP3   OH226104   0.543   0.157   2.831  0.0069  0.6589 -1.0864
 1538TIP3    H126105   0.509   0.246   2.826  1.6179  1.5008  1.3362
 1538TIP3    H226106   0.493   0.116   2.902 -0.0143 -0.0750 -1.5037
 1539TIP3   OH226107   3.735   1.689  12.893  0.0107 -0.1965 -0.1611
 1539TIP3    H126108   3.768   1.701  12.982 -0.3170 -1.0193  0.0831
 1539TIP3    H226109   3.643   1.716  12.897 -0.6640 -2.3753  0.3350
 1540TIP3   OH226110   1.693   0.170   2.425  0.2184  0.2161 -0.0579
 1540TIP3    H126111   1.681   0.247   2.369 -2.2237 -0.5692 -0.7111
 1540TIP3    H226112   1.720   0.101   2.365 -0.6682 -0.1865 -0.0122
 1541TIP3   OH226113   2.081   6.431   5.702 -0.2897 -0.1814  0.0473
 1541TIP3    H126114   2.039   6.347   5.718  0.5161 -0.5735  0.1729
 1541TIP3    H226115   2.163   6.427   5.752  0.8212 -0.2134 -1.6749
 1542TIP3   OH226116   0.729   3.956  12.187 -0.2377  0.1438 -0.0290
 1542TIP3    H126117   0.665   3.887  12.171 -0.4280 -0.1397  1.6774
 1542TIP3    H226118   0.745   3.995  12.102  1.4514 -3.3228 -1.4688
 1543TIP3   OH226119   1.452   1.277  12.541  0.1769  0.1107  0.5483
 1543TIP3    H126120   1.427   1.363  12.506  0.3110  0.0989  0.4250
 1543TIP3    H226121   1.376   1.250  12.594 -1.0371 -0.9497 -1.6082
 1544TIP3   OH226122   6.615   3.582   3.247 -0.1308 -0.0924  0.4740
 1544TIP3    H126123   6.525   3.604   3.270 -0.1100 -0.5789  1.0500
 1544TIP3    H226124   6.607   3.527   3.169 -0.3412 -0.2377  0.5969
 1545TIP3   OH226125   3.940   6.155  13.077  0.5636  0.8131 -0.3650
 1545TIP3    H126126   3.979   6.205  13.147 -0.7901  3.0233 -1.0847
 1545TIP3    H226127   3.852   6.193  13.066  0.1204 -0.5591 -2.1352
 1546TIP3   OH226128   4.820   6.764   5.366  0.7511 -0.1677  0.3100
 1546TIP3    H126129   4.740   6.736   5.412  0.8462 -2.4156 -0.7586
 1546TIP3    H226130   4.891   6.726   5.417  0.9652 -0.8065 -0.4527
 1547TIP3   OH226131   2.722   5.324   4.464 -0.5671 -0.2716  0.1754
 1547TIP3    H126132   2.697   5.249   4.517  1.6128 -0.7568  0.6310
 1547TIP3    H226133   2.688   5.305   4.377 -1.6616 -0.8590  0.7097
 1548TIP3   OH226134   6.713   1.729   1.146  0.1385 -0.1812 -0.1546
 1548TIP3    H126135   6.744   1.754   1.059  1.0819  0.6604  0.3953
 1548TIP3    H226136   6.632   1.780   1.158 -0.7227 -1.2823 -1.0223
 1549TIP3   OH226137   5.603   0.832  11.730  0.4880  0.7501 -0.0978
 1549TIP3    H126138   5.524   0.786  11.700  0.8723 -0.0546  0.0957
 1549TIP3    H226139   5.675   0.784  11.689  0.8866  1.4039 -0.1735
 1550TIP3   OH226140   5.390   5.314   3.061  0.0755  0.1246 -0.0745
 1550TIP3    H126141   5.397   5.404   3.094 -0.6180  0.7437 -1.5191
 1550TIP3    H226142   5.435   5.261   3.127  2.0148  1.7092 -0.0094
 1551TIP3   OH226143   4.068   6.048   2.316 -0.4387 -0.8436  0.0554
 1551TIP3    H126144   4.045   6.094   2.235  2.0019 -1.5065 -1.1259
 1551TIP3    H226145   4.068   5.955   2.291 -0.8697 -1.1514  1.1713
 1552TIP3   OH226146   2.107   2.926   4.080  0.1955  0.5342 -0.2313
 1552TIP3    H126147   2.147   2.912   3.994 -0.9330  0.0576 -0.7015
 1552TIP3    H226148   2.016   2.898   4.069 -0.1527  1.1355  0.9286
 1553TIP3   OH226149   3.949   2.656   0.243 -0.8851 -0.0424 -0.1327
 1553TIP3    H126150   3.872   2.599   0.238 -0.8640 -0.0443 -0.4300
 1553TIP3    H226151   4.016   2.609   0.194 -0.2603 -0.7371  1.3439
 1554TIP3   OH226152   3.899   3.305  16.517 -0.0748  0.2580  0.1866
 1554TIP3    H126153   3.988   3.272  16.528  0.1139  0.0149 -1.7645
 1554TIP3    H226154   3.902   3.394  16.553  0.7066 -0.0516  0.9222
 1555TIP3   OH226155   0.837   0.953   6.102  0.6999 -0.7216  0.3546
 1555TIP3    H126156   0.765   1.012   6.127 -0.0996 -1.1963 -0.7617
 1555TIP3    H226157   0.909   0.979   6.159 -0.3794 -0.2957  1.5873
 1556TIP3   OH226158   3.998   2.635  10.565 -0.2985 -0.5450  0.3260
 1556TIP3    H126159   3.948   2.623  10.646  0.3277 -1.2054  0.6334
 1556TIP3    H226160   3.934   2.664  10.501 -1.0930 -1.4864  0.6765
 1557TIP3   OH226161   5.372   6.387  16.585 -0.2508  0.7490 -0.1906
 1557TIP3    H126162   5.366   6.348  16.673  2.5530  0.5551  0.0029
 1557TIP3    H226163   5.381   6.481  16.602  0.4380  0.6966 -0.2341
 1558TIP3   OH226164   2.852   4.740  14.620 -0.1863 -0.0535 -0.2468
 1558TIP3    H126165   2.776   4.762  14.674  0.4489  0.3919  0.4707
 1558TIP3    H226166   2.867   4.818  14.567  0.4638  0.2865  0.4282
 1559TIP3   OH226167   4.847   2.822   4.794 -0.2222 -0.1925  0.1818
 1559TIP3    H126168   4.775   2.841   4.734 -0.9299  0.2468  1.1639
 1559TIP3    H226169   4.849   2.726   4.798  0.2048 -0.2539 -0.9680
 1560TIP3   OH226170   4.323   5.334   3.616  0.9088 -0.3063 -0.1695
 1560TIP3    H126171   4.348   5.296   3.701 -1.9332 -0.8353  0.5408
 1560TIP3    H226172   4.365   5.420   3.615  0.2529  0.1192  2.2665
 1561TIP3   OH226173   6.810   2.007  12.919 -0.2316 -0.2998  0.8224
 1561TIP3    H126174   6.791   2.069  12.850  1.3983  0.9191  1.3957
 1561TIP3    H226175   6.728   1.998  12.967 -0.7262  0.7292  0.2005
 1562TIP3   OH226176   4.791   5.638   4.802 -0.5016  0.0260 -0.6858
 1562TIP3    H126177   4.822   5.720   4.764  0.7560 -0.4318 -0.6744
 1562TIP3    H226178   4.865   5.605   4.852 -1.1369 -0.9117 -0.3485
 1563TIP3   OH226179   4.742   4.812  15.110 -0.1443  0.2867 -0.2103
 1563TIP3    H126180   4.666   4.778  15.062  1.6112 -2.5805 -1.2785
 1563TIP3    H226181   4.817   4.792  15.053  1.8316 -1.0396  2.5953
 1564TIP3   OH226182   4.397   5.781  13.125  0.2271 -0.4575  0.0829
 1564TIP3    H126183   4.311   5.759  13.158  0.5449 -1.5995  0.1757
 1564TIP3    H226184   4.396   5.754  13.033  0.1774  0.4148 -0.1872
 1565TIP3   OH226185   2.560   3.908   1.897  0.2081 -0.0766  0.1438
 1565TIP3    H126186   2.560   3.813   1.900  1.2140 -0.1651 -1.3896
 1565TIP3    H226187   2.634   3.934   1.951  0.5900 -0.2226 -0.3056
 1566TIP3   OH226188   2.450   5.172  15.072  0.1024  0.0679  0.4201
 1566TIP3    H126189   2.493   5.149  15.154  0.5844 -0.3876  0.0416
 1566TIP3    H226190   2.471   5.265  15.060  1.2275 -0.2076  0.1024
 1567TIP3   OH226191   2.777   2.712  14.312  0.1569 -0.0027 -0.1523
 1567TIP3    H126192   2.845   2.664  14.359  0.9233  3.1854  2.3024
 1567TIP3    H226193   2.822   2.789  14.276 -1.3020 -0.1789 -2.5854
 1568TIP3   OH226194   5.017   0.705  16.576 -0.0719  0.1113 -0.3590
 1568TIP3    H126195   5.064   0.643  16.633  0.1210  1.3555  0.9016
 1568TIP3    H226196   5.069   0.785  16.580 -1.4116  1.0052 -0.2811
 1569TIP3   OH226197   3.463   6.622  13.902  0.2142  0.1621  0.3752
 1569TIP3    H126198   3.417   6.638  13.819  2.8578  0.4815 -1.1488
 1569TIP3    H226199   3.489   6.530  13.897  0.6019  0.2543  0.7273
 1570TIP3   OH226200   2.791   5.311   3.713 -0.4229  0.7787  0.1340
 1570TIP3    H126201   2.843   5.362   3.651 -1.4602  0.8518 -0.6997
 1570TIP3    H226202   2.701   5.316   3.680 -0.6217 -1.3288  0.1730
 1571TIP3   OH226203   3.449   0.886   5.565  0.3776  0.0873 -0.6809
 1571TIP3    H126204   3.387   0.822   5.529 -1.6658  1.4999  0.1442
 1571TIP3    H226205   3.493   0.839   5.636 -1.0749 -0.4592 -0.0983
 1572TIP3   OH226206   6.112   5.429   0.029 -0.5168 -0.4705  0.0854
 1572TIP3    H126207   6.071   5.388  -0.047 -2.5185 -0.6398  1.1959
 1572TIP3    H226208   6.092   5.371   0.102  1.0808 -0.1362  0.8396
 1573TIP3   OH226209   5.639   6.411  16.445 -0.2560 -0.0995 -0.2933
 1573TIP3    H126210   5.589   6.489  16.424 -1.2161 -0.4079  0.7513
 1573TIP3    H226211   5.573   6.344  16.464  0.5471 -1.1381 -1.0415
 1574TIP3   OH226212   0.152   0.058   8.515  0.0013 -0.3618 -0.0567
 1574TIP3    H126213   0.073   0.010   8.491  0.3519 -1.8301  1.5906
 1574TIP3    H226214   0.156   0.052   8.610  0.6100  2.1173  0.1441
 1575TIP3   OH226215   1.128   2.707  12.255 -0.1240 -0.0081 -0.0468
 1575TIP3    H126216   1.182   2.754  12.192 -0.7354  2.1718  0.9723
 1575TIP3    H226217   1.156   2.616  12.248  2.1303  0.7099 -1.0785
 1576TIP3   OH226218   1.310   1.826   3.993 -0.0417 -0.2090  0.6508
 1576TIP3    H126219   1.292   1.825   3.899 -0.9861 -1.1161  0.8218
 1576TIP3    H226220   1.324   1.918   4.014  1.9504 -0.1462 -0.6841
 1577TIP3   OH226221   4.683   4.037  12.266 -0.4040  0.0009 -0.2901
 1577TIP3    H126222   4.612   3.996  12.315 -0.6230  1.1294  0.3838
 1577TIP3    H226223   4.753   4.049  12.331 -0.7889  1.7445 -0.1413
 1578TIP3   OH226224   6.136   1.773  12.579 -0.0013 -0.0734 -0.8526
 1578TIP3    H126225   6.112   1.688  12.543  1.2560 -0.1607 -1.5195
 1578TIP3    H226226   6.232   1.773  12.580  0.0358  0.2672  1.7100
 1579TIP3   OH226227   6.209   4.050   2.217  0.2881  0.2959  0.2013
 1579TIP3    H126228   6.125   4.056   2.172  1.1247 -0.3711 -1.5540
 1579TIP3    H226229   6.205   4.117   2.285 -1.7099  0.1539  0.2849
 1580TIP3   OH226230   0.069   0.138   5.047 -0.0978  0.1294  0.3771
 1580TIP3    H126231   0.124   0.216   5.040 -3.3389  2.7184  1.1695
 1580TIP3    H226232   0.098   0.095   5.128 -1.0182  3.0932  2.4519
 1581TIP3   OH226233   3.220   0.715  15.065 -0.0851  0.4189  0.2002
 1581TIP3    H126234   3.206   0.637  15.011 -1.5965  0.1348  0.9464
 1581TIP3    H226235   3.276   0.685  15.136 -0.2242  0.1368  0.1943
 1582TIP3   OH226236   6.644   6.286  11.352 -0.4514 -0.2113 -0.1146
 1582TIP3    H126237   6.733   6.254  11.336 -0.0301  1.3510 -1.1896
 1582TIP3    H226238   6.617   6.243  11.433  1.6648  0.0136  0.7951
 1583TIP3   OH226239   4.254   3.618   4.890 -0.1240  0.0599  0.4056
 1583TIP3    H126240   4.312   3.645   4.962 -0.1169  1.7133 -0.1815
 1583TIP3    H226241   4.167   3.617   4.930 -0.4258  3.0448  0.0157
 1584TIP3   OH226242   6.439   4.067   4.479 -0.5876  0.4632  0.2204
 1584TIP3    H126243   6.471   3.992   4.528 -1.0787  0.1918  0.1290
 1584TIP3    H226244   6.344   4.059   4.480 -0.6846 -1.5662 -3.7611
 1585TIP3   OH226245   0.836   5.375   0.450  0.3303 -0.2705  0.3784
 1585TIP3    H126246   0.792   5.332   0.377 -0.1956 -0.4054  0.7720
 1585TIP3    H226247   0.856   5.305   0.511 -1.3509  0.1366  1.4418
 1586TIP3   OH226248   3.902   1.900  15.605 -0.7148 -0.4718 -0.5767
 1586TIP3    H126249   3.971   1.912  15.670 -1.9831  2.7659  0.4033
 1586TIP3    H226250   3.940   1.934  15.524 -0.5870 -0.3721 -0.4754
 1587TIP3   OH226251   3.646   3.872  16.692 -0.6023 -0.3437  0.0013
 1587TIP3    H126252   3.631   3.959  16.655 -2.9459 -0.1845  1.1466
 1587TIP3    H226253   3.587   3.815  16.643 -0.1681 -1.0298  0.2574
 1588TIP3   OH226254   2.970   5.434   4.399  0.6425  0.0157 -0.6663
 1588TIP3    H126255   2.937   5.490   4.329  2.3062 -0.0397 -1.5339
 1588TIP3    H226256   2.894   5.382   4.426 -0.2658  0.7503 -1.7155
 1589TIP3   OH226257   4.340   0.138   2.040 -0.1616 -0.0079 -0.2266
 1589TIP3    H126258   4.308   0.065   1.988  1.5937 -2.3478  1.7126
 1589TIP3    H226259   4.262   0.172   2.084 -0.8365 -1.7941  0.0348
 1590TIP3   OH226260   6.274   3.548   0.730 -0.3583 -0.5425 -0.0191
 1590TIP3    H126261   6.333   3.621   0.751 -2.3661  2.0170 -2.5120
 1590TIP3    H226262   6.331   3.483   0.690  1.0798  1.0612 -0.7034
 1591TIP3   OH226263   0.163   0.387  11.651 -0.1724  0.4273 -0.1486
 1591TIP3    H126264   0.196   0.413  11.736 -0.6785  0.6355 -0.0146
 1591TIP3    H226265   0.213   0.308  11.629 -1.2111 -0.6335  1.1155
 1592TIP3   OH226266   0.943   3.523   1.896 -0.2121  0.9629 -0.1220
 1592TIP3    H126267   0.947   3.446   1.840  2.2919  2.3150 -1.9655
 1592TIP3    H226268   0.938   3.597   1.836  3.1277  2.5214  1.2486
 1593TIP3   OH226269   6.362   2.831   4.816  0.3282  0.0776 -0.4126
 1593TIP3    H126270   6.401   2.880   4.744  0.8030  0.2854 -0.0233
 1593TIP3    H226271   6.384   2.882   4.894 -0.7971  0.2384 -0.1887
 1594TIP3   OH226272   0.572   1.400   5.234  0.0486  0.2452  0.2206
 1594TIP3    H126273   0.634   1.464   5.200  0.3477 -0.6770 -1.0413
 1594TIP3    H226274   0.526   1.368   5.156 -0.0938 -1.0740  0.8218
 1595TIP3   OH226275   4.790   6.779  15.885  0.9218 -0.5009  0.6910
 1595TIP3    H126276   4.709   6.734  15.910  1.6701 -1.5964  1.2893
 1595TIP3    H226277   4.773   6.815  15.798 -0.5946  0.3353  1.2991
 1596TIP3   OH226278   2.119   5.504  16.507 -0.3925  0.0068 -0.4933
 1596TIP3    H126279   2.029   5.500  16.537  0.1899 -1.0643  1.2974
 1596TIP3    H226280   2.113   5.514  16.412 -2.3547  2.1335 -0.2144
 1597TIP3   OH226281   6.283   0.757   3.109 -0.1619 -0.3694  0.2276
 1597TIP3    H126282   6.366   0.778   3.154 -0.7829  0.6610  0.9454
 1597TIP3    H226283   6.217   0.766   3.178 -0.9009 -0.9568 -0.3985
 1598TIP3   OH226284   3.877   2.859  13.297  0.8521  0.0014 -0.2688
 1598TIP3    H126285   3.858   2.880  13.206  0.7702  0.3018 -0.1860
 1598TIP3    H226286   3.956   2.910  13.318  1.6845 -1.1201 -0.5651
 1599TIP3   OH226287   6.275   6.657  16.877 -0.4075 -0.6804  0.4966
 1599TIP3    H126288   6.330   6.721  16.831  1.6524 -1.9179  1.1006
 1599TIP3    H226289   6.192   6.658  16.829  0.9833 -0.5398 -2.0751
 1600TIP3   OH226290   0.758   2.719  15.918  0.2324 -0.0859 -0.0403
 1600TIP3    H126291   0.825   2.663  15.879 -0.3893 -0.8779 -0.0113
 1600TIP3    H226292   0.675   2.679  15.890 -0.2685  1.8565 -1.5546
 1601TIP3   OH226293   6.728   2.413   4.447  0.0416 -0.2310 -0.5970
 1601TIP3    H126294   6.748   2.345   4.382 -1.4900  0.5990 -2.0043
 1601TIP3    H226295   6.680   2.367   4.516  0.9033 -0.9520 -0.4466
 1602TIP3   OH226296   3.749   1.833  16.825  0.1875  0.2761  0.5105
 1602TIP3    H126297   3.734   1.902  16.890 -1.3471  1.9257 -1.4521
 1602TIP3    H226298   3.663   1.792  16.814 -0.5586  2.2876 -2.7557
 1603TIP3   OH226299   5.000   0.891  14.183 -0.2616  0.4370  0.0841
 1603TIP3    H126300   4.947   0.969  14.168  0.0570  0.1541 -3.2004
 1603TIP3    H226301   4.935   0.820  14.189 -0.4090  0.5406 -0.2596
 1604TIP3   OH226302   4.221   6.057  11.061  0.0942 -0.2895 -0.4186
 1604TIP3    H126303   4.228   6.062  10.966 -3.2059  0.9002 -0.7255
 1604TIP3    H226304   4.256   6.140  11.093  0.6342 -0.4361 -0.6126
 1605TIP3   OH226305   4.252   1.422   5.534 -0.5843 -0.9952 -0.7339
 1605TIP3    H126306   4.158   1.419   5.517 -0.4746  0.3166 -1.7016
 1605TIP3    H226307   4.279   1.509   5.505  0.9100 -1.3095 -0.3577
 1606TIP3   OH226308   5.023   6.755  14.882  0.0809 -0.2271 -0.4911
 1606TIP3    H126309   5.098   6.806  14.912  0.4352 -0.7861 -0.4093
 1606TIP3    H226310   4.952   6.819  14.874  0.9721  0.6084 -2.1090
 1607TIP3   OH226311   4.596   4.835  13.956 -0.4002  0.0208  0.2034
 1607TIP3    H126312   4.685   4.809  13.982 -0.5135 -1.0439 -0.3963
 1607TIP3    H226313   4.597   4.830  13.861 -0.7647  1.2115  0.1262
 1608TIP3   OH226314   4.855   4.512   5.475 -0.2077 -0.0711  0.4727
 1608TIP3    H126315   4.832   4.450   5.406 -0.3326 -2.2511  2.3527
 1608TIP3    H226316   4.854   4.460   5.555  2.0600  1.8362  1.8852
 1609TIP3   OH226317   1.261   0.945   6.041  0.1236 -0.2320  0.4805
 1609TIP3    H126318   1.241   0.998   6.119  0.7367  0.7626 -0.0258
 1609TIP3    H226319   1.330   0.993   5.996 -0.6137 -0.4965 -0.9923
 1610TIP3   OH226320   5.919   6.669   3.785 -0.1650  0.2122  0.2168
 1610TIP3    H126321   5.839   6.717   3.765 -0.9192 -0.5009  1.3895
 1610TIP3    H226322   5.915   6.591   3.730  0.6123  1.0056 -1.0137
 1611TIP3   OH226323   6.058   0.807   1.565 -0.2138  0.2022 -0.3287
 1611TIP3    H126324   6.107   0.877   1.523 -3.1087  2.1501 -0.7623
 1611TIP3    H226325   6.064   0.826   1.659  0.3782  0.0277 -0.3278
 1612TIP3   OH226326   5.503   5.534  11.076 -0.1396 -0.2085 -0.7413
 1612TIP3    H126327   5.437   5.582  11.125  1.5097  1.1214  0.3315
 1612TIP3    H226328   5.458   5.457  11.042 -2.5590  1.3662 -1.2966
 1613TIP3   OH226329   5.966   2.897   3.953 -0.4299 -0.7424  0.0680
 1613TIP3    H126330   5.927   2.884   4.039 -0.3181  0.5564  0.3312
 1613TIP3    H226331   6.059   2.910   3.970 -0.2996 -1.1507 -0.3127
 1614TIP3   OH226332   2.362   3.672   2.257 -0.3630  0.3618  0.2789
 1614TIP3    H126333   2.454   3.650   2.275  0.3295  2.0265 -0.9496
 1614TIP3    H226334   2.364   3.765   2.234 -2.7149  1.1247  2.6264
 1615TIP3   OH226335   0.141   4.389  10.899 -0.1055 -0.3531 -0.2480
 1615TIP3    H126336   0.232   4.374  10.873 -0.5187  0.0332 -2.1254
 1615TIP3    H226337   0.129   4.484  10.889 -0.9245 -0.5038 -0.8738
 1616TIP3   OH226338   0.484   0.642   1.716 -0.3750 -0.2357 -0.0693
 1616TIP3    H126339   0.399   0.622   1.756 -0.0770 -0.8746  0.2594
 1616TIP3    H226340   0.473   0.730   1.678 -1.6310 -0.8806 -1.2846
 1617TIP3   OH226341   6.435   1.325   1.677  0.2316  0.4275 -0.6526
 1617TIP3    H126342   6.484   1.245   1.656 -3.0452 -2.1849  0.7465
 1617TIP3    H226343   6.402   1.355   1.592  0.2361 -0.6315 -1.0499
 1618TIP3   OH226344   3.179   1.217   1.089  0.2506  0.3406  0.2949
 1618TIP3    H126345   3.214   1.210   1.000  2.1458 -2.4440  1.1113
 1618TIP3    H226346   3.093   1.175   1.084  1.2511 -1.8288  0.0968
 1619TIP3   OH226347   6.051   4.429  12.588  0.1358 -0.4296 -0.4639
 1619TIP3    H126348   6.040   4.500  12.524  1.8491 -1.6831 -2.2676
 1619TIP3    H226349   5.983   4.366  12.566 -0.6651  0.0984  0.4131
 1620TIP3   OH226350   6.429   4.986  16.857  0.2706  0.0127 -0.3477
 1620TIP3    H126351   6.350   5.031  16.827  0.4218  0.6322  0.1546
 1620TIP3    H226352   6.501   5.039  16.823  0.4477  0.4798  0.7006
 1621TIP3   OH226353   1.679   1.215  13.954 -0.0024 -0.1593 -0.1612
 1621TIP3    H126354   1.666   1.185  13.864 -0.0833  0.7036 -0.4472
 1621TIP3    H226355   1.596   1.255  13.978 -0.0646 -0.6132  0.3929
 1622TIP3   OH226356   4.271   1.918   2.071 -0.6875 -0.6204 -0.1813
 1622TIP3    H126357   4.285   1.944   2.161  0.2486  1.4911 -0.8889
 1622TIP3    H226358   4.330   1.844   2.058  1.5304  1.0033  0.1098
 1623TIP3   OH226359   6.793   1.898   4.059 -0.1752 -0.0401  0.1379
 1623TIP3    H126360   6.786   1.985   4.020  0.4428  0.7530  1.6819
 1623TIP3    H226361   6.702   1.870   4.070 -0.4689  1.2479  1.3085
 1624TIP3   OH226362   3.408   2.678  11.857 -0.6051  0.4861 -0.2965
 1624TIP3    H126363   3.372   2.666  11.944 -1.3807  0.1446 -0.6569
 1624TIP3    H226364   3.343   2.729  11.810  0.3216  1.6528 -0.3526
 1625TIP3   OH226365   5.587   3.723   3.967  0.0558  0.3974  0.0154
 1625TIP3    H126366   5.529   3.780   3.916 -0.2192  0.8519  0.8150
 1625TIP3    H226367   5.557   3.634   3.948 -0.5799  0.6046  0.0234
 1626TIP3   OH226368   6.050   1.679   4.329  0.6071 -0.1034  0.2575
 1626TIP3    H126369   6.043   1.604   4.270 -2.1225  0.7916 -0.7443
 1626TIP3    H226370   6.047   1.641   4.417 -2.8712 -1.2213 -0.1852
 1627TIP3   OH226371   0.955   2.727   2.163  0.5570 -0.6049 -1.0851
 1627TIP3    H126372   0.999   2.746   2.080  1.7758 -1.4137 -0.6487
 1627TIP3    H226373   1.009   2.769   2.229 -0.3693 -0.0303 -0.6782
 1628TIP3   OH226374   4.113   4.209   2.904  0.2039  0.2996  0.7341
 1628TIP3    H126375   4.203   4.176   2.905  0.0080 -0.3208 -0.3793
 1628TIP3    H226376   4.072   4.170   2.981  0.9059  0.6609  1.3011
 1629TIP3   OH226377   3.416   6.153   6.683 -0.2423  0.0836 -0.1642
 1629TIP3    H126378   3.470   6.104   6.621  0.2958 -3.8658  3.0211
 1629TIP3    H226379   3.331   6.110   6.681  0.1695 -1.1056  2.5783
 1630TIP3   OH226380   6.482   6.381  14.321 -0.0805  0.0027  0.3615
 1630TIP3    H126381   6.462   6.292  14.293 -0.7629 -0.2338  1.5241
 1630TIP3    H226382   6.402   6.431  14.301  0.5568  0.5285 -0.9479
 1631TIP3   OH226383   0.266   2.612  10.471  0.1192 -0.3165 -0.0957
 1631TIP3    H126384   0.206   2.611  10.396  0.2382 -0.2976 -0.1898
 1631TIP3    H226385   0.341   2.560  10.443  0.2094 -0.2242 -0.0256
 1632TIP3   OH226386   1.833   5.911  15.931  0.1196  0.4223  0.4652
 1632TIP3    H126387   1.782   5.886  15.854 -1.1166  0.0776  1.3647
 1632TIP3    H226388   1.869   5.997  15.909  0.0030  0.2174 -0.5926
 1633TIP3   OH226389   3.711   2.718  16.963 -0.2022  0.3260 -0.0438
 1633TIP3    H126390   3.656   2.645  16.993 -0.9325  1.7898  2.4260
 1633TIP3    H226391   3.685   2.730  16.871 -0.6265 -1.9507 -0.2983
 1634TIP3   OH226392   1.490   6.299  15.898 -0.0455 -0.1507  0.0315
 1634TIP3    H126393   1.543   6.350  15.836  1.6583 -1.9647 -0.0974
 1634TIP3    H226394   1.413   6.354  15.914  1.8711  2.7049  0.3070
 1635TIP3   OH226395   2.272   2.189   3.093  0.3863  0.1249  0.2046
 1635TIP3    H126396   2.347   2.139   3.061 -0.6483 -0.8655 -0.8046
 1635TIP3    H226397   2.225   2.129   3.150 -0.6518  0.0548 -0.6884
 1636TIP3   OH226398   0.973   3.647   3.903 -0.7483  0.3703  0.0088
 1636TIP3    H126399   0.912   3.643   3.977 -0.5200 -0.3131  0.1671
 1636TIP3    H226400   0.923   3.612   3.829 -0.4286 -0.5893  0.2308
 1637TIP3   OH226401   2.774   2.315  11.911 -0.2094  0.2375  0.5607
 1637TIP3    H126402   2.717   2.239  11.900 -0.3643  0.5629 -1.0988
 1637TIP3    H226403   2.816   2.326  11.826 -0.4445  2.2115  0.6686
 1638TIP3   OH226404   0.023   2.398  12.331  0.1023  0.8595 -0.4567
 1638TIP3    H126405  -0.060   2.432  12.365  0.7904  1.5249  0.6165
 1638TIP3    H226406   0.070   2.367  12.409 -0.4581 -2.6247 -1.3355
 1639TIP3   OH226407   1.529   3.439   2.619  0.1280  0.3067 -0.1415
 1639TIP3    H126408   1.563   3.526   2.598  0.7199 -0.2457 -1.5588
 1639TIP3    H226409   1.487   3.409   2.539  1.1356 -1.2777 -0.1197
 1640TIP3   OH226410   1.854   1.504   1.551  0.2597 -0.4431 -0.5218
 1640TIP3    H126411   1.887   1.513   1.641  0.5196  1.2742 -0.7460
 1640TIP3    H226412   1.760   1.488   1.562 -0.4212  3.0774  0.1371
 1641TIP3   OH226413   0.921   3.195   2.521 -0.0043  0.0257  0.1823
 1641TIP3    H126414   0.966   3.191   2.437  0.4455  4.5732 -0.0387
 1641TIP3    H226415   0.991   3.205   2.585 -0.4569  0.6587  0.5887
 1642TIP3   OH226416   1.921   5.228  13.723 -0.7845 -0.4999  0.2672
 1642TIP3    H126417   1.898   5.145  13.682 -0.5963 -1.4467  1.9574
 1642TIP3    H226418   1.942   5.205  13.814  2.4217  0.9288  0.0184
 1643TIP3   OH226419   1.453   2.683  10.611 -0.0163 -0.0132  0.1072
 1643TIP3    H126420   1.360   2.696  10.591  0.0899 -1.0512 -1.1955
 1643TIP3    H226421   1.475   2.757  10.668 -1.6164  0.2909  0.3976
 1644TIP3   OH226422   6.331   0.261   0.818 -0.1224 -0.0355  0.2541
 1644TIP3    H126423   6.319   0.194   0.885  1.3154 -0.3145  0.2700
 1644TIP3    H226424   6.396   0.321   0.855  0.1709  0.1920 -0.5910
 1645TIP3   OH226425   0.238   4.139   5.077 -0.7072  0.1901 -0.1422
 1645TIP3    H126426   0.185   4.165   5.152  0.2432  3.7629 -0.5368
 1645TIP3    H226427   0.194   4.178   5.002  1.0287  1.0322 -0.7669
 1646TIP3   OH226428   1.481   4.408   3.555  0.5400  0.9803 -0.0368
 1646TIP3    H126429   1.538   4.468   3.508  1.8789  0.8171  1.3150
 1646TIP3    H226430   1.460   4.453   3.637 -0.9403  0.8456 -0.3055
 1647TIP3   OH226431   6.459   1.693   1.762  0.0555  0.5047 -0.5840
 1647TIP3    H126432   6.447   1.714   1.669 -0.3169  0.3458 -0.5720
 1647TIP3    H226433   6.551   1.666   1.768  0.1140  0.6313 -0.8855
 1648TIP3   OH226434   0.850   2.012  15.582 -0.2836 -0.2394 -0.3294
 1648TIP3    H126435   0.792   2.024  15.657  0.2786 -2.3521  0.5198
 1648TIP3    H226436   0.794   1.974  15.515 -0.8737  1.9898 -1.1947
 1649TIP3   OH226437   0.444   4.330   3.139  0.0800  0.7904 -0.0750
 1649TIP3    H126438   0.393   4.374   3.072  0.8886  0.5825 -0.8565
 1649TIP3    H226439   0.493   4.263   3.091 -0.6157 -0.5132  0.9812
 1650TIP3   OH226440   6.570   3.313  14.168  0.0482  0.3025 -0.3231
 1650TIP3    H126441   6.652   3.285  14.129  0.0685  0.9882 -0.7811
 1650TIP3    H226442   6.505   3.301  14.098  0.0853  1.5357 -0.5901
 1651TIP3   OH226443   0.808   3.011  15.173 -0.0631 -0.1603  0.6489
 1651TIP3    H126444   0.726   2.997  15.124 -0.7271  1.3857  1.2778
 1651TIP3    H226445   0.802   2.950  15.247 -0.3836 -0.4602  0.3787
 1652TIP3   OH226446   5.267   2.549  11.966  0.0240  0.1031 -0.5396
 1652TIP3    H126447   5.299   2.460  11.982  1.0463  0.4202 -0.7525
 1652TIP3    H226448   5.176   2.537  11.940  0.3506 -0.9404 -1.2585
 1653TIP3   OH226449   3.759   1.129  16.273 -0.1768  0.3446  0.3768
 1653TIP3    H126450   3.737   1.109  16.182 -2.0632 -1.6076  1.1961
 1653TIP3    H226451   3.833   1.072  16.292 -0.1416  0.3465  0.2511
 1654TIP3   OH226452   2.047   5.781  15.741 -0.4629 -0.4523  0.3009
 1654TIP3    H126453   1.952   5.786  15.736 -0.3725  0.1744 -1.5676
 1654TIP3    H226454   2.075   5.871  15.756 -0.1393 -0.4406 -0.3266
 1655TIP3   OH226455   6.312   5.572  16.491  0.1275 -0.3194 -0.1410
 1655TIP3    H126456   6.327   5.532  16.405  0.5948  0.0318 -0.2284
 1655TIP3    H226457   6.287   5.662  16.472  0.3154 -0.2149  0.0924
 1656TIP3   OH226458   0.218   2.099   2.549  0.4455 -0.0473  0.0780
 1656TIP3    H126459   0.214   2.115   2.455  2.3310  1.7945  0.2606
 1656TIP3    H226460   0.139   2.141   2.583 -0.1161 -0.5018 -0.6114
 1657TIP3   OH226461   6.674   4.114  11.862  0.1671  0.5628 -0.7531
 1657TIP3    H126462   6.584   4.146  11.853 -0.4698 -0.8563  0.2583
 1657TIP3    H226463   6.674   4.029  11.819  1.2825  0.9218 -1.5200
 1658TIP3   OH226464   2.319   2.694  11.551  0.2576  0.0616 -0.0564
 1658TIP3    H126465   2.362   2.636  11.614 -0.7584 -1.0382 -0.3345
 1658TIP3    H226466   2.359   2.671  11.467 -0.0334 -0.1326 -0.1428
 1659TIP3   OH226467   5.430   3.706  15.877  0.1353 -0.6426 -0.0918
 1659TIP3    H126468   5.337   3.723  15.861 -0.0010 -1.5153 -0.3136
 1659TIP3    H226469   5.431   3.652  15.957  0.3813 -1.3253 -0.5411
 1660TIP3   OH226470   1.884   6.569  10.719 -0.2465  0.0845  0.0973
 1660TIP3    H126471   1.898   6.476  10.733 -1.1442  0.2181  2.2543
 1660TIP3    H226472   1.789   6.579  10.718 -0.1949  1.1863  1.8699
 1661TIP3   OH226473   2.081   5.697   3.218 -0.2838 -0.0701  0.7791
 1661TIP3    H126474   1.995   5.656   3.205  0.1207 -1.1192  1.2658
 1661TIP3    H226475   2.082   5.723   3.310  0.2180 -0.7962  0.9840
 1662TIP3   OH226476   0.143   4.498  15.528  0.2486 -0.3841  0.0313
 1662TIP3    H126477   0.071   4.482  15.589 -1.4833 -2.9501 -2.4324
 1662TIP3    H226478   0.107   4.562  15.465  1.8060  1.7841  1.2181
 1663TIP3   OH226479   1.195   5.894  11.385  0.1278  0.1299 -0.1670
 1663TIP3    H126480   1.132   5.858  11.447 -0.1066 -0.3269 -0.6583
 1663TIP3    H226481   1.175   5.988  11.382 -1.7673 -0.2549 -1.6766
 1664TIP3   OH226482   1.251   2.079  15.814  0.7582 -0.2837 -0.0457
 1664TIP3    H126483   1.222   2.005  15.760 -0.6969  0.0792  0.2075
 1664TIP3    H226484   1.327   2.114  15.768  1.9914 -2.4148  0.2486
 1665TIP3   OH226485   0.229   2.296   2.369  0.1059 -0.3537 -0.0757
 1665TIP3    H126486   0.215   2.349   2.447  1.8423 -0.0818  0.0872
 1665TIP3    H226487   0.309   2.331   2.330 -0.8667 -0.2933 -2.1526
 1666TIP3   OH226488   0.423   1.189   5.385  0.4494 -0.2570  0.1855
 1666TIP3    H126489   0.475   1.162   5.310  1.9710  0.7879  0.8173
 1666TIP3    H226490   0.340   1.141   5.375  0.9819 -0.8944 -1.5945
 1667TIP3   OH226491   0.948   6.542  16.516 -0.2534  0.2958 -0.3477
 1667TIP3    H126492   0.868   6.538  16.463 -0.4702  1.9391 -0.1900
 1667TIP3    H226493   1.019   6.525  16.453 -0.6117  0.7606 -0.8930
 1668TIP3   OH226494   0.242   3.955   0.737 -0.3783  0.1985 -0.0051
 1668TIP3    H126495   0.189   3.880   0.710 -0.1882 -0.0409  0.2749
 1668TIP3    H226496   0.205   4.030   0.690 -0.8972  0.0174  0.1149
 1669TIP3   OH226497   6.666   3.851  16.534  0.0001  0.1025 -0.2889
 1669TIP3    H126498   6.607   3.855  16.609  0.7859 -1.1973  0.4384
 1669TIP3    H226499   6.650   3.764  16.496  1.2197 -0.1486 -0.2598
 1670TIP3   OH226500   4.904   4.627   3.534 -0.2511 -0.1041 -0.2435
 1670TIP3    H126501   4.816   4.592   3.523 -1.9079  3.6378 -0.5434
 1670TIP3    H226502   4.943   4.622   3.447 -0.3909 -1.2039 -0.2478
 1671TIP3   OH226503   1.984   4.352   0.763 -0.0725 -0.5025  0.0510
 1671TIP3    H126504   2.059   4.393   0.806 -1.7095  1.1215  1.5803
 1671TIP3    H226505   1.947   4.294   0.830  0.2012 -1.8303 -0.9220
 1672TIP3   OH226506   2.064   4.296  14.041 -0.2289  0.7759  0.5422
 1672TIP3    H126507   2.151   4.284  14.003 -0.7466  1.8838 -1.1182
 1672TIP3    H226508   2.015   4.219  14.014  0.2152  0.1000  1.5643
 1673TIP3   OH226509   3.155   2.301   0.253 -0.1270  0.1870 -0.4785
 1673TIP3    H126510   3.185   2.295   0.343 -0.9639  2.8519  0.0641
 1673TIP3    H226511   3.223   2.351   0.208 -1.0371  1.3589 -0.5951
 1674TIP3   OH226512   3.569   2.267  13.583 -0.1206 -0.4227 -0.1698
 1674TIP3    H126513   3.581   2.304  13.495  1.9800  0.7792  0.5446
 1674TIP3    H226514   3.516   2.331  13.629  0.2683 -0.1865 -0.0498
 1675TIP3   OH226515   5.419   2.504   1.073 -0.4879 -0.1684  0.6146
 1675TIP3    H126516   5.489   2.449   1.108  0.2985 -0.3684 -1.2078
 1675TIP3    H226517   5.435   2.590   1.112  2.7914  0.6709 -2.1085
 1676TIP3   OH226518   3.496   3.650  15.620  0.5623  0.8793  0.0522
 1676TIP3    H126519   3.574   3.635  15.674  0.5416  0.7579  0.0480
 1676TIP3    H226520   3.491   3.574  15.562 -1.6076 -1.0039  2.4722
 1677TIP3   OH226521   2.193   3.428   4.202  0.3182 -0.0166 -0.3071
 1677TIP3    H126522   2.174   3.338   4.176 -1.1726 -0.1425  1.0657
 1677TIP3    H226523   2.135   3.481   4.147  0.6676  0.0595 -0.6044
 1678TIP3   OH226524   2.056   4.424  14.834  0.2754 -0.9020  0.3958
 1678TIP3    H126525   2.041   4.416  14.928  0.9398 -2.4399  0.4043
 1678TIP3    H226526   2.149   4.441  14.826  0.3457 -1.4329  0.0063
 1679TIP3   OH226527   5.938   6.331  11.853 -0.3291 -0.7310 -0.5993
 1679TIP3    H126528   5.863   6.306  11.907  1.0571 -0.8700  1.3680
 1679TIP3    H226529   5.964   6.417  11.886  2.6708 -2.2545  1.5637
 1680TIP3   OH226530   6.585   0.757   3.038  0.6798 -0.3265  0.3580
 1680TIP3    H126531   6.620   0.747   3.126 -0.1311  2.6008  1.1165
 1680TIP3    H226532   6.593   0.670   2.999 -0.3650 -2.1577  3.8132
 1681TIP3   OH226533   1.831   0.105   6.344 -0.3075 -0.3422 -0.2093
 1681TIP3    H126534   1.859   0.182   6.295 -0.9916  0.8437  1.2008
 1681TIP3    H226535   1.903   0.089   6.405  0.1065 -1.2204 -0.9050
 1682TIP3   OH226536   2.448   1.506   4.803  1.0328  0.2113  0.4482
 1682TIP3    H126537   2.531   1.468   4.832  0.7373 -0.1425  0.8500
 1682TIP3    H226538   2.382   1.457   4.852  0.6463  1.3020  1.0507
 1683TIP3   OH226539   4.344   5.871  11.874 -0.1046 -0.1806 -0.0127
 1683TIP3    H126540   4.379   5.951  11.912 -3.1104  2.1720 -1.8215
 1683TIP3    H226541   4.252   5.870  11.898 -0.3365 -2.7857 -0.6306
 1684TIP3   OH226542   2.069   6.812  11.591 -0.1601 -0.5126 -0.4877
 1684TIP3    H126543   2.045   6.825  11.682  0.9575  1.1671 -0.3818
 1684TIP3    H226544   2.144   6.752  11.595 -0.3689 -0.7615 -0.3239
 1685TIP3   OH226545   1.259   1.780  13.541  0.4807  0.1745  0.2846
 1685TIP3    H126546   1.317   1.847  13.504  1.0346 -0.4334  0.0386
 1685TIP3    H226547   1.306   1.747  13.618  0.3985 -0.2165  0.1693
 1686TIP3   OH226548   1.714   2.832   4.933 -0.4494  0.4176 -0.7976
 1686TIP3    H126549   1.809   2.829   4.920 -0.3308  1.6509 -0.3467
 1686TIP3    H226550   1.695   2.754   4.985  0.2566 -0.0509 -1.2205
 1687TIP3   OH226551   0.545   0.776   0.887  0.9398  0.4133  0.5307
 1687TIP3    H126552   0.615   0.820   0.935  1.0034  1.0714 -0.1381
 1687TIP3    H226553   0.587   0.697   0.852  1.3829  0.8427  0.0654
 1688TIP3   OH226554   0.529   2.317  13.605  0.2035 -0.5543  0.2629
 1688TIP3    H126555   0.608   2.274  13.571  0.3080 -1.3674  1.4702
 1688TIP3    H226556   0.496   2.256  13.671 -2.5742 -1.2085 -1.5564
 1689TIP3   OH226557   1.623   5.412  17.015 -0.1372 -0.2346  0.3310
 1689TIP3    H126558   1.589   5.323  17.014  2.3946 -1.2834  0.3007
 1689TIP3    H226559   1.623   5.440  16.924  1.8516 -1.4250 -0.0941
 1690TIP3   OH226560   1.161   1.639  13.344  0.4795  0.6194  0.0325
 1690TIP3    H126561   1.177   1.686  13.426 -0.5203 -1.3486  1.4581
 1690TIP3    H226562   1.066   1.640  13.334  0.3809 -1.4457  0.3913
 1691TIP3   OH226563   1.306   2.498  11.773  0.4918  0.9999 -0.3674
 1691TIP3    H126564   1.262   2.433  11.719  1.5049 -0.7560  0.8127
 1691TIP3    H226565   1.290   2.469  11.863  0.6646  2.6145  0.2194
 1692TIP3   OH226566   3.875   2.971  12.427 -0.6434 -0.5431  0.3725
 1692TIP3    H126567   3.881   2.884  12.465  0.3826 -0.2317  0.9743
 1692TIP3    H226568   3.797   3.010  12.468 -1.5320 -1.4085 -0.4486
 1693TIP3   OH226569   0.702   2.697   2.073  0.4121 -0.1637  0.0776
 1693TIP3    H126570   0.693   2.620   2.016  0.4012 -2.1572  2.5593
 1693TIP3    H226571   0.785   2.683   2.118  0.4342  1.3509  0.5391
 1694TIP3   OH226572   2.161   0.589   6.031 -0.0895  0.0377  0.0476
 1694TIP3    H126573   2.226   0.658   6.016 -0.0102 -0.1002 -0.2506
 1694TIP3    H226574   2.133   0.563   5.943  0.7494 -1.1328  0.1015
 1695TIP3   OH226575   5.515   4.837  11.236 -0.6061 -0.0183 -0.5153
 1695TIP3    H126576   5.604   4.818  11.206 -0.1087 -1.5006  1.7015
 1695TIP3    H226577   5.527   4.886  11.317 -1.8689  1.0707 -0.9510
 1696TIP3   OH226578   1.295   2.127   3.933  0.0428 -0.0532  0.3994
 1696TIP3    H126579   1.239   2.197   3.966  0.7546  0.3910  0.6988
 1696TIP3    H226580   1.375   2.134   3.985  0.3611 -0.6989  0.0121
 1697TIP3   OH226581   1.764   4.958  15.303 -0.1290 -0.5752 -0.2080
 1697TIP3    H126582   1.845   4.957  15.252 -0.8838 -2.4956 -1.4575
 1697TIP3    H226583   1.789   5.001  15.385  1.6929  0.4987 -1.2410
 1698TIP3   OH226584   0.760   3.485  14.882  0.1636  0.1447  0.2073
 1698TIP3    H126585   0.781   3.424  14.952 -0.6968 -0.5416 -0.1078
 1698TIP3    H226586   0.789   3.442  14.802 -3.0191 -1.2645 -0.3586
 1699TIP3   OH226587   1.667   5.503  11.368  0.2487  0.2899  0.1044
 1699TIP3    H126588   1.758   5.532  11.364  0.9228 -1.7614 -1.1634
 1699TIP3    H226589   1.623   5.556  11.302  1.1591 -0.5586 -1.2391
 1700TIP3   OH226590   2.219   1.231  13.726  0.1982 -0.4452  0.0379
 1700TIP3    H126591   2.176   1.210  13.808 -0.6535 -1.2116 -0.5785
 1700TIP3    H226592   2.312   1.218  13.744  0.0598 -0.1759  0.9932
 1701TIP3   OH226593   0.183   1.425   0.083  0.1401 -0.2867  0.1063
 1701TIP3    H126594   0.088   1.418   0.073  0.2506  0.3070 -1.6092
 1701TIP3    H226595   0.214   1.463   0.001  1.5062  2.8312  1.8976
 1702TIP3   OH226596   6.250   5.417   1.870  0.5953 -0.3567  0.7706
 1702TIP3    H126597   6.224   5.416   1.778 -0.2858 -0.9558  1.0218
 1702TIP3    H226598   6.249   5.510   1.894 -2.7656 -0.3956  1.1586
 1703TIP3   OH226599   1.452   2.279  15.963 -0.1859 -0.1438  0.1832
 1703TIP3    H126600   1.428   2.363  16.001 -0.1335 -0.4513  0.9091
 1703TIP3    H226601   1.370   2.229  15.962 -0.3753  0.1580 -0.9169
 1704TIP3   OH226602   2.537   2.905  12.165  0.0265 -0.2340  0.1527
 1704TIP3    H126603   2.493   2.939  12.087  0.3537 -0.4427 -0.1235
 1704TIP3    H226604   2.608   2.967  12.181 -1.0817  0.7862  1.3117
 1705TIP3   OH226605   1.883   5.522  14.902 -0.3312 -0.4411 -0.7241
 1705TIP3    H126606   1.907   5.440  14.859 -0.6050 -0.9838  0.1383
 1705TIP3    H226607   1.953   5.538  14.966 -1.2271 -1.0211  0.4448
 1706TIP3   OH226608   4.819   3.533   4.188 -0.7404  0.1082 -0.0333
 1706TIP3    H126609   4.749   3.593   4.162 -0.6705  0.4163  0.4800
 1706TIP3    H226610   4.776   3.467   4.242 -0.8805 -0.5154 -0.8853
 1707TIP3   OH226611   4.675   1.637  13.467  0.3628 -0.3300 -0.2880
 1707TIP3    H126612   4.682   1.544  13.446 -1.6853 -0.8155  0.8365
 1707TIP3    H226613   4.693   1.643  13.561  1.4366  0.5778 -0.5261
 1708TIP3   OH226614   1.501   2.577   4.684 -0.1181  0.3690  0.6559
 1708TIP3    H126615   1.436   2.532   4.631  1.0065  0.9027 -1.2390
 1708TIP3    H226616   1.449   2.624   4.750 -1.8100  1.8996 -1.6166
 1709TIP3   OH226617   3.801   3.680  14.976 -0.2849  0.9355  0.3235
 1709TIP3    H126618   3.821   3.756  15.031 -0.8066  0.1988  1.5668
 1709TIP3    H226619   3.886   3.640  14.958 -0.2285 -0.3013  2.8353
 1710TIP3   OH226620   2.659   4.047  13.080 -0.5165 -0.6633 -0.2924
 1710TIP3    H126621   2.741   4.090  13.105 -0.5360 -1.1691  0.7049
 1710TIP3    H226622   2.662   3.963  13.126 -1.8729 -0.4221  0.2743
 1711TIP3   OH226623   6.719   2.188   3.654 -0.3948  0.2662  0.4677
 1711TIP3    H126624   6.637   2.232   3.678 -0.1134  0.5756  0.8944
 1711TIP3    H226625   6.697   2.136   3.577 -0.7688  1.0660  0.0179
 1712TIP3   OH226626   0.017   5.941  14.332  0.1054 -0.3211 -0.0120
 1712TIP3    H126627   0.109   5.927  14.308 -0.1970 -1.9592 -0.3272
 1712TIP3    H226628   0.017   5.936  14.428  0.6350  1.8371  0.1569
 1713TIP3   OH226629   0.056   4.770  13.053 -0.2468 -0.0054 -0.2263
 1713TIP3    H126630  -0.019   4.745  12.999 -0.1193  1.3638 -1.0831
 1713TIP3    H226631   0.022   4.836  13.113 -0.4404 -1.6637  1.6156
 1714TIP3   OH226632   5.356   5.791   3.018  0.0533 -0.2922 -0.1444
 1714TIP3    H126633   5.389   5.877   2.991 -1.3885  0.0802 -0.8477
 1714TIP3    H226634   5.286   5.772   2.955  1.6461 -2.9282 -1.2707
 1715TIP3   OH226635   3.250   5.553  10.981 -0.2546  0.0271  0.0635
 1715TIP3    H126636   3.192   5.626  11.002 -0.1996  0.0165  0.2476
 1715TIP3    H226637   3.203   5.476  11.013 -0.8023 -0.1317 -1.0539
 1716TIP3   OH226638   6.048   4.330   3.404  0.4391  0.5106 -0.1075
 1716TIP3    H126639   6.043   4.269   3.330  3.4574  0.8167 -0.6672
 1716TIP3    H226640   6.026   4.415   3.366  0.4220  0.4258 -0.2871
 1717TIP3   OH226641   0.914   0.317   1.577 -0.1866  0.3670 -0.4086
 1717TIP3    H126642   0.884   0.237   1.619  0.5502  0.1870 -0.2046
 1717TIP3    H226643   0.856   0.385   1.609  1.4900  0.5991  2.4756
 1718TIP3   OH226644   6.011   4.672  11.517  0.1134 -0.0709  0.4498
 1718TIP3    H126645   5.928   4.629  11.532 -0.0552  0.2464  0.4310
 1718TIP3    H226646   5.989   4.751  11.468  0.3219  0.4765  1.2133
 1719TIP3   OH226647   5.686   3.712  16.831  0.6508  0.5481  0.2544
 1719TIP3    H126648   5.757   3.733  16.891 -0.1683 -0.0832  1.4713
 1719TIP3    H226649   5.615   3.771  16.855 -0.4486 -1.1606  1.4101
 1720TIP3   OH226650   4.441   3.274  14.645 -0.5642 -0.2269  1.2054
 1720TIP3    H126651   4.444   3.232  14.731 -0.8641  1.5199  2.1200
 1720TIP3    H226652   4.350   3.304  14.637 -0.2256  0.7712  0.8937
 1721TIP3   OH226653   1.400   0.789  12.989 -1.1375  0.1159  0.2809
 1721TIP3    H126654   1.469   0.735  12.949 -1.6505  0.6524 -1.3995
 1721TIP3    H226655   1.432   0.879  12.981 -2.2400  0.4315 -1.0791
 1722TIP3   OH226656   6.119   5.661  16.719  0.3560 -0.3508 -0.1626
 1722TIP3    H126657   6.200   5.639  16.674  0.4807 -1.3507  0.5057
 1722TIP3    H226658   6.126   5.755  16.738  0.5661 -0.0457 -1.6313
 1723TIP3   OH226659   0.447   4.384  15.743 -0.0919 -0.0661 -0.2664
 1723TIP3    H126660   0.532   4.369  15.786 -1.0532 -1.1754  1.3930
 1723TIP3    H226661   0.393   4.311  15.773 -2.2454  1.6944  0.3708
 1724TIP3   OH226662   0.915   4.464  11.406  0.2355  0.4898 -0.5926
 1724TIP3    H126663   0.893   4.527  11.475 -1.2098  0.6036 -1.1299
 1724TIP3    H226664   0.991   4.416  11.441  0.3229  1.3938  0.5242
 1725TIP3   OH226665   4.371   0.999   0.488  0.3824  0.2787 -0.0061
 1725TIP3    H126666   4.373   1.095   0.485 -3.2296  0.4690 -1.6594
 1725TIP3    H226667   4.364   0.978   0.581  2.5774  1.4586  0.4871
 1726TIP3   OH226668   3.247   5.258  15.060 -0.3760 -0.7633 -0.2222
 1726TIP3    H126669   3.163   5.236  15.020 -0.2853  0.1934 -0.9882
 1726TIP3    H226670   3.283   5.174  15.088 -2.4852 -1.0163  1.9993
 1727TIP3   OH226671   3.535   6.523  16.089 -0.3753 -0.2878  0.1875
 1727TIP3    H126672   3.473   6.450  16.077 -1.4591  0.4215  1.2351
 1727TIP3    H226673   3.519   6.553  16.179  2.3791 -0.8535  0.9759
 1728TIP3   OH226674   6.176   2.642  13.363  0.0497 -0.3614  0.0981
 1728TIP3    H126675   6.228   2.572  13.324  1.0365 -0.0666  0.8174
 1728TIP3    H226676   6.085   2.617  13.349  0.3845 -0.7778 -1.4189
 1729TIP3   OH226677   0.199   0.123   0.887  0.2291 -0.3776 -0.1467
 1729TIP3    H126678   0.185   0.069   0.808  2.6844 -1.7820  0.2872
 1729TIP3    H226679   0.248   0.199   0.856 -0.2367 -0.1051 -0.2202
 1730TIP3   OH226680   5.378   6.755   3.038 -0.1076  0.5118 -0.0817
 1730TIP3    H126681   5.405   6.668   3.070  1.5886  0.0922 -2.4059
 1730TIP3    H226682   5.285   6.746   3.020 -0.6219  0.1125  2.4707
 1731TIP3   OH226683   4.251   2.512  13.894  0.0029 -0.5244 -0.3337
 1731TIP3    H126684   4.330   2.549  13.855 -0.9734 -0.7656 -2.7470
 1731TIP3    H226685   4.203   2.587  13.929  0.2083 -0.0808 -0.9881
 1732TIP3   OH226686   0.870   3.283   3.818  0.0886 -0.3266 -0.7410
 1732TIP3    H126687   0.854   3.319   3.905 -1.5036 -2.5967  0.0282
 1732TIP3    H226688   0.834   3.348   3.757 -0.8039  0.3210  0.4395
 1733TIP3   OH226689   4.957   6.725   0.754 -0.3395  0.2801 -0.2253
 1733TIP3    H126690   4.898   6.692   0.686  0.1743  0.1489 -0.6142
 1733TIP3    H226691   4.903   6.726   0.834 -1.2730  1.5004 -0.8368
 1734TIP3   OH226692   5.945   0.961   0.629 -0.1669 -0.1301 -0.1164
 1734TIP3    H126693   6.038   0.971   0.605 -0.3777  0.4183 -0.7367
 1734TIP3    H226694   5.906   0.917   0.554 -1.1973  3.1919 -1.7017
 1735TIP3   OH226695   2.583   0.533  16.489 -0.2029  0.0876 -0.4688
 1735TIP3    H126696   2.549   0.608  16.441 -0.7312 -0.2033 -0.5569
 1735TIP3    H226697   2.532   0.459  16.457 -0.4551 -0.1322  0.4309
 1736TIP3   OH226698   2.986   5.031   3.042 -0.3652 -0.1398  0.6883
 1736TIP3    H126699   2.974   5.037   2.948  1.0280 -1.0769  0.4186
 1736TIP3    H226700   3.035   4.950   3.055 -2.7105 -1.4284  2.4479
 1737TIP3   OH226701   3.271   3.392  12.759 -0.2192  0.2724 -0.2897
 1737TIP3    H126702   3.280   3.484  12.787 -1.2017  0.4612 -0.5557
 1737TIP3    H226703   3.207   3.355  12.818  2.3154 -1.1378  1.7967
 1738TIP3   OH226704   3.184   1.019  16.301 -0.0832 -0.0758  0.3646
 1738TIP3    H126705   3.097   1.044  16.333  0.2548 -0.6692  1.8427
 1738TIP3    H226706   3.235   1.100  16.303 -0.9110  0.5508 -1.7370
 1739TIP3   OH226707   2.375   0.809   1.784  0.3182 -0.0894 -0.2277
 1739TIP3    H126708   2.349   0.884   1.839  0.2675 -0.9202  0.9120
 1739TIP3    H226709   2.456   0.778   1.823  0.2593 -0.7202 -0.5976
 1740TIP3   OH226710   6.678   5.305  11.667  0.3186  0.3652  0.2732
 1740TIP3    H126711   6.617   5.279  11.736 -2.6562  1.4770 -1.7335
 1740TIP3    H226712   6.653   5.251  11.591  1.7190  0.9979 -0.6860
 1741TIP3   OH226713   0.222   6.634  15.520  0.5209 -0.1820  0.0806
 1741TIP3    H126714   0.213   6.552  15.471 -0.6561 -0.8165  1.2649
 1741TIP3    H226715   0.289   6.615  15.585  0.6541 -0.0196 -0.0115
 1742TIP3   OH226716   0.492   0.595  12.235 -0.3317  1.0868 -0.2249
 1742TIP3    H126717   0.550   0.662  12.272  1.4653 -0.3394 -0.2784
 1742TIP3    H226718   0.546   0.550  12.170 -1.4475 -0.4591 -0.1388
 1743TIP3   OH226719   6.231   3.988  13.001 -0.1095 -0.1301 -0.1445
 1743TIP3    H126720   6.266   4.050  13.065 -0.5005  0.0558 -0.1044
 1743TIP3    H226721   6.297   3.985  12.932  0.8909 -1.2465  0.8175
 1744TIP3   OH226722   6.591   4.170   4.016  0.1709 -0.1116  0.0123
 1744TIP3    H126723   6.685   4.162   4.003  0.6656  3.1635  0.8183
 1744TIP3    H226724   6.572   4.110   4.088  1.5756 -0.9206 -0.2554
 1745TIP3   OH226725   2.115   0.004   0.992  0.1551 -0.9413 -0.1077
 1745TIP3    H126726   2.166   0.078   0.958 -0.4782 -0.4440 -0.0005
 1745TIP3    H226727   2.181  -0.059   1.022  0.7629 -1.3947 -2.1872
 1746TIP3   OH226728   0.963   3.655   5.646  0.1543 -0.1193  0.0772
 1746TIP3    H126729   0.995   3.666   5.557  0.4320 -0.2508  0.1590
 1746TIP3    H226730   1.041   3.664   5.701 -0.3178  2.1615  0.4807
 1747TIP3   OH226731   0.630   0.553   1.938  0.0715 -1.0797  0.5633
 1747TIP3    H126732   0.650   0.523   1.849  0.4601 -0.4412  0.4352
 1747TIP3    H226733   0.593   0.640   1.926  0.4914 -0.8321  1.0592
 1748TIP3   OH226734   4.693   2.329  16.928 -0.6269 -0.4362  0.1906
 1748TIP3    H126735   4.692   2.265  16.857 -1.8106  1.1350 -1.3159
 1748TIP3    H226736   4.600   2.347  16.945 -0.3290  0.6331  0.8099
 1749TIP3   OH226737   3.940   6.575   5.766  0.5060 -0.4206  0.0737
 1749TIP3    H126738   3.983   6.531   5.692  0.4440 -1.0457  0.4023
 1749TIP3    H226739   3.881   6.508   5.802  0.5289 -0.1170  0.6812
 1750TIP3   OH226740   5.710   0.396   0.432  0.2694  0.2584  0.0426
 1750TIP3    H126741   5.679   0.354   0.512 -1.0107  0.5125 -0.2934
 1750TIP3    H226742   5.630   0.414   0.382  1.0547  0.0148 -1.3406
 1751TIP3   OH226743   3.230   1.836   2.115 -0.4469 -0.2430  0.2849
 1751TIP3    H126744   3.301   1.870   2.169  0.1892  1.8952 -1.7273
 1751TIP3    H226745   3.154   1.837   2.172  0.7583 -0.9830  1.9907
 1752TIP3   OH226746   3.097   2.176  14.403 -0.2396  0.1219  0.0911
 1752TIP3    H126747   3.053   2.184  14.319  1.4066 -0.0423 -0.8396
 1752TIP3    H226748   3.189   2.160  14.380 -0.1669 -2.6926  1.8995
 1753TIP3   OH226749   1.413   2.677   2.978 -1.0477 -0.1822  0.1894
 1753TIP3    H126750   1.368   2.670   3.062 -0.0652 -0.8336  0.6949
 1753TIP3    H226751   1.400   2.591   2.937  1.2136 -1.0900  1.1733
 1754TIP3   OH226752   6.744   5.959  15.107  0.5735  0.0215 -0.2850
 1754TIP3    H126753   6.652   5.948  15.083  0.0951  0.1193  1.3622
 1754TIP3    H226754   6.775   6.031  15.053 -1.1513  1.9534  1.1184
 1755TIP3   OH226755   4.608   4.898   3.733 -0.6619 -0.1523  0.0860
 1755TIP3    H126756   4.544   4.836   3.698 -1.4569 -0.5816  2.1657
 1755TIP3    H226757   4.636   4.859   3.816  2.0537  0.2088 -0.5470
 1756TIP3   OH226758   2.957   6.004  14.250  0.3770  0.1428 -0.9988
 1756TIP3    H126759   2.932   5.938  14.186  0.7468 -1.5181  0.4856
 1756TIP3    H226760   2.897   6.077  14.233 -1.6650 -1.4764 -1.2311
 1757TIP3   OH226761   3.092   3.322   0.484 -0.2013  0.3471 -0.1004
 1757TIP3    H126762   3.107   3.244   0.537 -0.9604  1.5335  2.0165
 1757TIP3    H226763   3.115   3.296   0.395  3.7201 -1.0710  1.1006
 1758TIP3   OH226764   4.404   5.582   4.150 -0.3040 -0.4239 -0.0795
 1758TIP3    H126765   4.420   5.637   4.073 -1.6418 -0.5608 -0.4859
 1758TIP3    H226766   4.313   5.599   4.173 -0.6525 -2.2012 -0.0076
 1759TIP3   OH226767   3.591   0.833   4.445 -0.0499  0.4698  0.5445
 1759TIP3    H126768   3.559   0.743   4.447 -0.2659  0.5589  1.3567
 1759TIP3    H226769   3.685   0.826   4.465  0.2250  0.3109 -0.7333
 1760TIP3   OH226770   3.819   0.509   3.989  0.2955  0.3689  0.1831
 1760TIP3    H126771   3.828   0.572   4.061  1.0544 -0.6971  1.0547
 1760TIP3    H226772   3.812   0.563   3.911 -0.0638  1.5561  0.9993
 1761TIP3   OH226773   1.832   0.768  12.084  0.2890  0.7938 -0.2962
 1761TIP3    H126774   1.772   0.782  12.011 -0.5055  2.0555  0.5501
 1761TIP3    H226775   1.843   0.673  12.088 -1.8499  0.4963 -0.3421
 1762TIP3   OH226776   6.277   1.669  14.397  0.1577  0.1691  0.3694
 1762TIP3    H126777   6.304   1.753  14.360 -0.4124  0.3294  0.3159
 1762TIP3    H226778   6.328   1.604  14.348 -1.3097  0.2908 -1.4351
 1763TIP3   OH226779   4.481   1.886   2.879  0.1028  0.7568  1.0390
 1763TIP3    H126780   4.544   1.932   2.933 -0.4284  2.5509  0.2150
 1763TIP3    H226781   4.396   1.918   2.908 -0.3416 -0.2029  0.8568
 1764TIP3   OH226782   0.817   5.010  16.758  0.5015 -0.4433  0.4245
 1764TIP3    H126783   0.893   5.066  16.774 -0.4333  0.5681  1.5180
 1764TIP3    H226784   0.762   5.022  16.835 -1.4987  0.0633 -1.0171
 1765TIP3   OH226785   4.843   3.405  14.380 -0.7458  0.3570 -0.0165
 1765TIP3    H126786   4.846   3.444  14.292 -0.8927  1.6755  0.5335
 1765TIP3    H226787   4.753   3.374  14.390 -0.1949 -1.7272 -1.0997
 1766TIP3   OH226788   5.938   0.029   0.788 -0.2185 -0.2817 -0.0731
 1766TIP3    H126789   5.997   0.074   0.726  0.7244 -1.9918 -0.4632
 1766TIP3    H226790   5.985   0.031   0.871 -0.8277  0.7014  0.2642
 1767TIP3   OH226791   5.560   6.133   0.805 -0.7425  0.1097 -0.0124
 1767TIP3    H126792   5.556   6.217   0.852 -1.2136  0.4840 -0.7120
 1767TIP3    H226793   5.606   6.153   0.724 -0.1624 -0.4814  0.1669
 1768TIP3   OH226794   3.041   3.680  12.304  0.1306 -0.3391  0.0212
 1768TIP3    H126795   3.134   3.662  12.286  0.0719 -1.1501  0.4810
 1768TIP3    H226796   3.018   3.751  12.244  1.3169  0.5731  0.5972
 1769TIP3   OH226797   0.489   1.667  14.779 -0.0924 -0.7978 -0.2808
 1769TIP3    H126798   0.581   1.696  14.781  0.3160 -1.6838 -2.7820
 1769TIP3    H226799   0.445   1.731  14.724 -0.8170 -0.7976  0.2982
 1770TIP3   OH226800   4.637   3.918   4.307  0.0939  0.1232  0.4826
 1770TIP3    H126801   4.701   3.933   4.377  0.1387 -0.5116  0.5796
 1770TIP3    H226802   4.592   3.837   4.332 -0.6075  0.4512  0.3053
 1771TIP3   OH226803   1.100   5.176   3.471 -0.0545  0.2459  0.3754
 1771TIP3    H126804   1.140   5.228   3.402  1.4829 -0.0807  0.9575
 1771TIP3    H226805   1.060   5.102   3.426 -1.9744  1.6863 -0.4286
 1772TIP3   OH226806   6.383   4.136   0.816  0.2042 -0.0885 -0.0827
 1772TIP3    H126807   6.344   4.192   0.749  0.6939  0.6704  0.2512
 1772TIP3    H226808   6.311   4.079   0.844 -0.0646 -0.2481 -1.0657
 1773TIP3   OH226809   4.574   5.838   4.696  0.4949 -0.7948  0.0487
 1773TIP3    H126810   4.557   5.851   4.790 -0.0035 -1.6122  0.0803
 1773TIP3    H226811   4.608   5.749   4.690 -0.1880 -1.0241 -0.6282
 1774TIP3   OH226812   2.640   1.942  15.244  0.7286  0.1210 -0.4793
 1774TIP3    H126813   2.653   1.868  15.303  1.1997  0.2163 -0.4607
 1774TIP3    H226814   2.545   1.950  15.237  0.6713 -0.7481 -0.8227
 1775TIP3   OH226815   0.561   1.744   1.414  0.2762  0.0345 -0.0851
 1775TIP3    H126816   0.492   1.695   1.369 -0.2585  1.0504 -0.3923
 1775TIP3    H226817   0.625   1.677   1.439  0.0162 -0.7050 -1.3114
 1776TIP3   OH226818   0.056   5.118   0.748 -0.0864 -0.3093 -0.4029
 1776TIP3    H126819  -0.019   5.145   0.694  0.0776 -2.0819 -1.6387
 1776TIP3    H226820   0.049   5.022   0.752 -0.3827 -0.2791  3.2686
 1777TIP3   OH226821   3.010   5.956  12.437 -0.2467  0.1582 -0.2128
 1777TIP3    H126822   3.032   6.009  12.513 -0.6817  2.1417 -1.3917
 1777TIP3    H226823   3.047   6.003  12.362 -1.3176 -0.7982 -1.4071
 1778TIP3   OH226824   0.502   2.860   5.664 -0.7369  0.0673 -0.1929
 1778TIP3    H126825   0.447   2.862   5.743 -1.4464 -0.1689 -0.6655
 1778TIP3    H226826   0.580   2.812   5.691 -0.2034  1.4276  0.8261
 1779TIP3   OH226827   1.263   3.512   1.096 -0.6930  0.2740 -0.2324
 1779TIP3    H126828   1.350   3.513   1.135 -1.2757 -0.1518  1.1323
 1779TIP3    H226829   1.244   3.605   1.079 -0.1162  0.3973 -0.2336
 1780TIP3   OH226830   4.974   2.435  10.620 -0.0032  0.3623 -0.2205
 1780TIP3    H126831   5.069   2.437  10.626  0.0494 -0.8272 -0.3160
 1780TIP3    H226832   4.944   2.444  10.711  0.1457  1.7980 -0.2894
 1781TIP3   OH226833   6.147   3.443   2.380 -0.5972 -0.4290 -0.5090
 1781TIP3    H126834   6.142   3.532   2.346 -1.0301 -0.2240  0.0847
 1781TIP3    H226835   6.240   3.423   2.382 -0.4738  0.1644 -0.2526
 1782TIP3   OH226836   0.467   5.195  12.769 -0.3537  0.4803  0.1926
 1782TIP3    H126837   0.503   5.205  12.857  1.5232 -0.9411 -0.3393
 1782TIP3    H226838   0.444   5.283  12.741  0.2603  1.1067  1.5996
 1783TIP3   OH226839   1.687   6.382   1.378 -0.2192 -0.1990  0.2121
 1783TIP3    H126840   1.747   6.330   1.432 -0.4274 -0.3215  0.3278
 1783TIP3    H226841   1.744   6.435   1.323 -0.0008 -0.0598  0.5651
 1784TIP3   OH226842   6.440   2.567   0.606 -0.0730 -0.2440  0.5624
 1784TIP3    H126843   6.457   2.505   0.536 -0.6752 -1.2987  1.3083
 1784TIP3    H226844   6.526   2.590   0.641  0.2291  0.3227 -0.5241
 1785TIP3   OH226845   5.384   6.102   3.675  0.0863 -0.1592  0.0333
 1785TIP3    H126846   5.303   6.152   3.680  0.7002  1.0395 -1.3846
 1785TIP3    H226847   5.357   6.016   3.641 -0.7686 -0.2968  1.0097
 1786TIP3   OH226848   1.503   6.635  12.738  0.2184  0.1308  0.3251
 1786TIP3    H126849   1.591   6.652  12.771  0.1037 -1.0482  1.3444
 1786TIP3    H226850   1.508   6.547  12.701 -0.5927 -0.0873  0.7036
 1787TIP3   OH226851   6.535   4.295  15.241 -0.0353 -0.0933 -0.2062
 1787TIP3    H126852   6.492   4.338  15.167  1.1199  1.6508  0.0609
 1787TIP3    H226853   6.581   4.221  15.202 -0.3221  0.1713 -1.0737
 1788TIP3   OH226854   0.344   6.333   4.776 -0.2712  0.3803 -0.4292
 1788TIP3    H126855   0.276   6.357   4.713 -0.5922  0.1211 -0.1896
 1788TIP3    H226856   0.316   6.247   4.808  1.1524 -0.6106 -1.7122
 1789TIP3   OH226857   0.546   1.380  11.496  0.1765 -1.3264 -0.4214
 1789TIP3    H126858   0.611   1.419  11.438 -0.7138 -1.1668 -1.3275
 1789TIP3    H226859   0.588   1.299  11.527  0.9779 -1.0027 -0.6229
 1790TIP3   OH226860   0.652   5.942   3.762 -0.2792 -0.2077 -0.1404
 1790TIP3    H126861   0.626   5.861   3.717 -1.0700  0.1341 -0.3012
 1790TIP3    H226862   0.731   5.970   3.716  0.3802 -1.2165  0.3174
 1791TIP3   OH226863   1.859   6.758  14.519 -0.0226 -0.4716  0.4176
 1791TIP3    H126864   1.828   6.672  14.491 -2.0217 -0.3452  1.9762
 1791TIP3    H226865   1.815   6.773  14.603  1.5537  1.3797  0.9923
 1792TIP3   OH226866   3.309   5.058  11.656 -0.1438 -0.1378  0.1517
 1792TIP3    H126867   3.369   4.985  11.675 -0.2604  0.1572  1.7096
 1792TIP3    H226868   3.352   5.135  11.693  0.2683  0.7581 -2.0002
 1793TIP3   OH226869   3.886   2.408   4.742 -0.6541 -0.1608  0.0475
 1793TIP3    H126870   3.964   2.352   4.740 -1.0869 -0.9123  2.0589
 1793TIP3    H226871   3.813   2.348   4.749 -1.4697  0.5401 -1.8350
 1794TIP3   OH226872   5.241   2.291  16.779 -0.3811 -0.3733  0.3153
 1794TIP3    H126873   5.259   2.229  16.709  0.5823  1.9841 -1.6878
 1794TIP3    H226874   5.322   2.294  16.830  0.1722  0.4128 -0.5889
 1795TIP3   OH226875   5.495   5.393  15.430 -0.0254  0.3526 -0.2786
 1795TIP3    H126876   5.441   5.388  15.508 -1.4491  0.6886 -1.1924
 1795TIP3    H226877   5.481   5.482  15.397 -1.6085 -0.5730 -2.3431
 1796TIP3   OH226878   2.536   3.134  10.345  0.1749 -0.3524  0.1243
 1796TIP3    H126879   2.624   3.130  10.383  0.4336  1.8034 -0.1081
 1796TIP3    H226880   2.504   3.221  10.369 -1.9855 -1.1588  0.3451
 1797TIP3   OH226881   0.171   0.259   3.713 -0.1346  0.6362  0.1716
 1797TIP3    H126882   0.099   0.251   3.775  0.9903 -2.3250  1.3023
 1797TIP3    H226883   0.223   0.331   3.746  0.1296 -0.5013  2.4553
 1798TIP3   OH226884   2.985   4.522   4.339 -0.6235  0.0355  0.4843
 1798TIP3    H126885   2.977   4.452   4.275 -0.8508  0.1763  0.3598
 1798TIP3    H226886   2.932   4.492   4.413 -1.3218  0.4075  0.1435
 1799TIP3   OH226887   5.783   6.235  14.451  0.0512  0.8355  0.4569
 1799TIP3    H126888   5.865   6.186  14.440 -1.8248 -2.2634 -1.6199
 1799TIP3    H226889   5.782   6.297  14.378  0.5587  0.8160  0.4346
 1800TIP3   OH226890   5.574   2.153  17.027 -0.0663  0.0324 -0.1700
 1800TIP3    H126891   5.572   2.157  17.123 -0.8490 -0.3256 -0.1631
 1800TIP3    H226892   5.523   2.074  17.006 -1.0997  0.8863 -0.9318
 1801TIP3   OH226893   4.127   1.317  12.485 -0.5779 -0.6282 -0.2477
 1801TIP3    H126894   4.111   1.337  12.393 -0.2649 -0.4563 -0.2655
 1801TIP3    H226895   4.097   1.394  12.533  0.1840 -0.3060 -0.2801
 1802TIP3   OH226896   2.219   1.103  13.318 -0.1544 -0.4184  0.2443
 1802TIP3    H126897   2.125   1.121  13.318  0.0428  0.8042  1.3110
 1802TIP3    H226898   2.258   1.181  13.278  0.3767 -1.2564 -0.9313
 1803TIP3   OH226899   6.560   5.903  15.812 -0.4243  0.0085  0.1022
 1803TIP3    H126900   6.465   5.888  15.814 -0.7739  2.0732  1.0846
 1803TIP3    H226901   6.594   5.829  15.761 -2.5143 -0.9390 -0.0397
 1804TIP3   OH226902   0.780   0.173   1.133 -0.2185 -0.3044  0.4837
 1804TIP3    H126903   0.805   0.124   1.212  1.4043 -2.0011 -0.9586
 1804TIP3    H226904   0.843   0.144   1.067 -0.0932  2.7388 -0.8881
 1805TIP3   OH226905   4.064   6.527   2.633 -0.0642  0.7389  0.1355
 1805TIP3    H126906   4.152   6.553   2.659 -0.2029  1.3187  0.0360
 1805TIP3    H226907   4.058   6.434   2.656  1.0039  0.3581 -1.0510
 1806TIP3   OH226908   4.665   6.734   0.109  0.2365 -0.3105 -0.0697
 1806TIP3    H126909   4.706   6.815   0.078 -0.1219 -1.2657 -3.4154
 1806TIP3    H226910   4.573   6.757   0.123  0.4848  0.2357  0.7423
 1807TIP3   OH226911   1.041   2.005  12.712 -0.0727  0.6239 -0.1308
 1807TIP3    H126912   0.958   2.012  12.666 -0.2926  1.0679  0.3362
 1807TIP3    H226913   1.033   1.925  12.764 -0.3251  0.8383  0.1581
 1808TIP3   OH226914   3.467   6.596  16.342  0.6158  0.7018  0.1013
 1808TIP3    H126915   3.522   6.669  16.369  1.1689 -0.3797  2.1050
 1808TIP3    H226916   3.436   6.557  16.424 -0.2794 -0.8592 -0.9155
 1809TIP3   OH226917   2.473   5.072  16.006  0.0887 -0.2278  0.7994
 1809TIP3    H126918   2.520   5.141  16.054  1.0006  0.4797 -1.0223
 1809TIP3    H226919   2.386   5.108  15.991  0.2706  0.1548  0.6535
 1810TIP3   OH226920   4.543   2.661  14.170  0.4838 -0.4368  0.2995
 1810TIP3    H126921   4.575   2.674  14.081  1.9664 -0.3767  0.8129
 1810TIP3    H226922   4.619   2.626  14.218 -0.8503 -2.4895  1.0608
 1811TIP3   OH226923   2.002   2.583   1.206 -0.3396  0.0938 -0.1078
 1811TIP3    H126924   2.003   2.506   1.149 -0.7226  0.8847 -1.2153
 1811TIP3    H226925   1.952   2.648   1.157  0.0299  1.0756  0.7866
 1812TIP3   OH226926   3.483   2.094   1.459 -0.5510  0.4339  0.1554
 1812TIP3    H126927   3.487   2.016   1.403 -2.9222  0.9969 -0.8904
 1812TIP3    H226928   3.427   2.067   1.533  0.8131  0.3676  1.2114
 1813TIP3   OH226929   0.767   5.095  17.041  0.5254 -0.2447  0.4770
 1813TIP3    H126930   0.818   5.027  17.085  1.3660 -0.9331 -1.4584
 1813TIP3    H226931   0.768   5.169  17.102 -2.0162 -2.4799  3.5241
 1814TIP3   OH226932   3.808   3.190  12.223  0.4136 -0.1598  0.9425
 1814TIP3    H126933   3.770   3.271  12.257  0.1955 -0.7939  2.2766
 1814TIP3    H226934   3.818   3.134  12.300 -1.1473 -2.1079 -0.1629
 1815TIP3   OH226935   6.292   0.652   1.423 -0.4312 -0.2418 -0.3700
 1815TIP3    H126936   6.355   0.675   1.491 -1.7225  3.9593 -0.3455
 1815TIP3    H226937   6.215   0.621   1.472 -0.5210  0.4928 -0.0354
 1816TIP3   OH226938   0.232   6.655  16.637 -0.3376  0.9629 -0.2098
 1816TIP3    H126939   0.158   6.715  16.638  0.5494  2.1425 -1.0258
 1816TIP3    H226940   0.224   6.608  16.554  0.2021  1.6487 -0.6740
 1817TIP3   OH226941   2.307   2.810  13.964 -0.0700  0.1695 -0.3510
 1817TIP3    H126942   2.362   2.736  13.990  0.9430  0.6689 -1.0083
 1817TIP3    H226943   2.241   2.817  14.033  0.4371 -0.7026  0.2358
 1818TIP3   OH226944   5.315   1.730   3.721 -0.3201 -0.4664 -0.0054
 1818TIP3    H126945   5.343   1.672   3.650  0.3555 -0.7908  0.5186
 1818TIP3    H226946   5.227   1.758   3.695 -0.3287 -1.0715 -0.6658
 1819TIP3   OH226947   2.034   2.350   2.333 -0.9203 -0.2033 -0.0494
 1819TIP3    H126948   1.993   2.413   2.274 -1.1773 -0.0018  0.3390
 1819TIP3    H226949   2.089   2.296   2.277  0.0749  0.9865 -0.2610
 1820TIP3   OH226950   1.188   4.738   2.977  0.5276  0.1787 -0.2819
 1820TIP3    H126951   1.124   4.698   2.918  0.8857 -0.0993 -0.4840
 1820TIP3    H226952   1.218   4.816   2.931  0.6026  0.1121 -0.3459
 1821TIP3   OH226953   2.378   5.355  14.773 -0.0323  0.0526  0.2806
 1821TIP3    H126954   2.403   5.266  14.750  0.6536  0.0459  1.0210
 1821TIP3    H226955   2.292   5.345  14.815 -0.2611 -0.1761 -0.2298
 1822TIP3   OH226956   2.597   3.363   3.342  0.5644  0.3551 -0.1858
 1822TIP3    H126957   2.627   3.278   3.311  2.0354  0.4331  0.9142
 1822TIP3    H226958   2.552   3.402   3.267  1.7258 -0.5264 -1.3729
 1823TIP3   OH226959   2.029   6.127   3.079  0.2401  0.2259  0.5008
 1823TIP3    H126960   2.073   6.155   3.159  0.2250  0.6874  0.3534
 1823TIP3    H226961   2.088   6.061   3.041  0.5640  0.4739  0.5615
 1824TIP3   OH226962   1.908   5.587  16.339  0.2648  0.0801 -0.4790
 1824TIP3    H126963   1.913   5.622  16.251 -0.6750  3.2687  0.6034
 1824TIP3    H226964   1.816   5.600  16.365 -0.2621 -3.5221  0.0357
 1825TIP3   OH226965   2.067   1.813  14.478  0.4892 -0.1526  0.3719
 1825TIP3    H126966   1.999   1.755  14.514 -0.8213  1.4506  0.6361
 1825TIP3    H226967   2.050   1.814  14.384  1.1243 -0.9138  0.2390
 1826TIP3   OH226968   2.451   2.026  13.742 -0.3881 -0.4719  0.2857
 1826TIP3    H126969   2.420   1.942  13.708 -1.3887  0.6894 -1.8193
 1826TIP3    H226970   2.516   2.056  13.678 -1.5906  1.3277 -0.1680
 1827TIP3   OH226971   0.553   3.410   3.903 -0.1902  0.0724  0.1418
 1827TIP3    H126972   0.545   3.395   3.809 -1.4594  1.6582 -0.0569
 1827TIP3    H226973   0.569   3.504   3.911  0.2073 -0.0932  1.5082
 1828TIP3   OH226974   1.728   4.411   4.171  0.4523  0.5619  0.5128
 1828TIP3    H126975   1.711   4.412   4.265 -0.4211  1.7115  0.3629
 1828TIP3    H226976   1.642   4.409   4.131  0.7515  1.9996 -0.2602
 1829TIP3   OH226977   4.330   3.389  16.223 -0.4080  0.1310  0.0180
 1829TIP3    H126978   4.324   3.389  16.128 -0.9684 -2.8505 -0.0415
 1829TIP3    H226979   4.387   3.315  16.244 -1.7826 -0.4564  2.0301
 1830TIP3   OH226980   0.869   6.171  14.117 -0.1671  0.1828  0.1336
 1830TIP3    H126981   0.864   6.253  14.167  0.0779 -0.8561  1.9619
 1830TIP3    H226982   0.778   6.140  14.113 -0.1892  0.2766 -0.0769
 1831TIP3   OH226983   1.365   2.453  13.401 -0.4272 -0.1573 -0.5141
 1831TIP3    H126984   1.284   2.494  13.430  0.2752 -0.0742  1.4977
 1831TIP3    H226985   1.426   2.526  13.389  0.0551 -0.3772  0.4721
 1832TIP3   OH226986   4.593   5.849   1.444 -0.1803  0.7502  0.1948
 1832TIP3    H126987   4.570   5.770   1.493  0.6288 -0.0674 -0.7021
 1832TIP3    H226988   4.510   5.886   1.416 -0.5995  0.6020  1.1866
 1833TIP3   OH226989   0.138   5.193  13.531 -0.1717 -0.5490  0.6800
 1833TIP3    H126990   0.197   5.263  13.505 -0.8479 -0.4141 -0.5926
 1833TIP3    H226991   0.117   5.211  13.623  1.1614 -0.1881  0.9283
 1834TIP3   OH226992   3.957   1.606  13.515  0.3819  0.1787  0.1162
 1834TIP3    H126993   3.996   1.686  13.553  0.2408 -0.2403  1.1870
 1834TIP3    H226994   3.898   1.574  13.583 -1.7168  0.6724 -1.3770
 1835TIP3   OH226995   3.946   4.635   0.521 -0.0416  0.5073  0.0574
 1835TIP3    H126996   3.885   4.708   0.522  0.1388  0.6527  0.4069
 1835TIP3    H226997   3.909   4.574   0.457  0.5298  1.5161 -1.2817
 1836TIP3   OH226998   0.602   3.660   3.924 -0.2640  0.2336  0.5057
 1836TIP3    H126999   0.655   3.706   3.859 -0.6926  1.7386  1.1666
 1836TIP3    H227000   0.635   3.690   4.008 -1.3095  0.2279  0.9429
 1837TIP3   OH227001   5.667   6.077   0.202 -0.1897  0.2818  0.6481
 1837TIP3    H127002   5.720   6.005   0.235  0.0539  1.6243  3.5288
 1837TIP3    H227003   5.731   6.142   0.171 -0.3165  0.3404  0.5051
 1838TIP3   OH227004   5.084   6.550  14.610 -0.1577  0.1963  0.0684
 1838TIP3    H127005   5.061   6.457  14.615 -1.1761  0.4418  0.2189
 1838TIP3    H227006   5.102   6.575  14.700 -1.0225  0.4061  0.1943
 1839TIP3   OH227007   0.605   4.083  15.812  0.0764 -0.3941 -0.2796
 1839TIP3    H127008   0.605   4.016  15.880 -2.1262  0.9585  1.1655
 1839TIP3    H227009   0.630   4.163  15.857  0.0556  0.2727 -1.4096
 1840TIP3   OH227010   6.542   4.792   3.635 -0.3888 -0.0075 -0.1735
 1840TIP3    H127011   6.482   4.729   3.675  1.1438 -1.0174  0.6347
 1840TIP3    H227012   6.512   4.877   3.667  0.0243 -0.6799  2.1891
 1841TIP3   OH227013   6.468   0.950   3.403 -0.0628  0.0344  0.4219
 1841TIP3    H127014   6.552   0.905   3.408 -1.0351 -1.8443  0.8165
 1841TIP3    H227015   6.479   1.014   3.334  1.6588 -0.2509  0.3984
 1842TIP3   OH227016   2.117   0.931   2.099 -0.0048  0.2093 -0.2445
 1842TIP3    H127017   2.045   0.994   2.092 -0.5581 -0.2210  1.1098
 1842TIP3    H227018   2.104   0.869   2.027  0.0280  1.1166 -1.0430
 1843TIP3   OH227019   3.681   5.512   0.750 -0.0719 -0.2386 -0.2035
 1843TIP3    H127020   3.708   5.448   0.816 -0.3442 -1.7181 -1.4632
 1843TIP3    H227021   3.762   5.556   0.726 -0.1556  1.3513  2.0615
 1844TIP3   OH227022   3.558   4.564  13.599  0.4135  0.5372 -0.2680
 1844TIP3    H127023   3.561   4.578  13.694  1.7980 -1.0559 -0.0253
 1844TIP3    H227024   3.476   4.604  13.571  0.6750  2.3343  1.3667
 1845TIP3   OH227025   1.181   1.116  13.001  0.3297  0.1925 -0.4989
 1845TIP3    H127026   1.159   1.075  12.918  2.2175  0.6136 -1.2435
 1845TIP3    H227027   1.126   1.070  13.065 -1.4359  0.1228 -1.9822
 1846TIP3   OH227028   3.225   5.249  14.417  0.0479 -0.7970  0.5500
 1846TIP3    H127029   3.139   5.250  14.373 -0.0574  1.1779  0.6986
 1846TIP3    H227030   3.279   5.193  14.363 -0.7396 -0.2919 -0.8097
 1847TIP3   OH227031   3.285   3.048   4.720  0.4701 -0.1036 -0.2034
 1847TIP3    H127032   3.327   3.041   4.634  1.8590 -0.6965  0.4842
 1847TIP3    H227033   3.302   3.138   4.747 -1.3722  0.5902 -1.2021
 1848TIP3   OH227034   0.479   5.463  12.272  0.2882 -0.4511  0.4627
 1848TIP3    H127035   0.478   5.386  12.215 -1.5455 -0.3356  0.2767
 1848TIP3    H227036   0.535   5.437  12.346 -0.6393 -2.1435  0.6298
 1849TIP3   OH227037   1.764   4.320   3.758  0.2375 -0.0858  0.0768
 1849TIP3    H127038   1.798   4.258   3.694 -0.9079 -0.6640  0.0030
 1849TIP3    H227039   1.735   4.265   3.831 -2.1967  0.1840 -0.6224
 1850TIP3   OH227040   2.381   6.582  15.989  0.0786  0.3592  0.6459
 1850TIP3    H127041   2.471   6.599  16.017  0.3120 -1.0895  0.8415
 1850TIP3    H227042   2.361   6.653  15.928  1.3996  0.6238  0.4954
 1851TIP3   OH227043   1.033   4.573   2.827 -0.2387  0.4791  0.4438
 1851TIP3    H127044   1.000   4.544   2.912  0.9694 -0.2876  0.6747
 1851TIP3    H227045   0.981   4.526   2.763 -1.0439  0.9354  0.7452
 1852TIP3   OH227046   4.569   0.321  16.326  0.2670  0.6453 -0.5643
 1852TIP3    H127047   4.488   0.274  16.344 -0.3054  1.9112  0.2586
 1852TIP3    H227048   4.630   0.253  16.297 -0.3083 -0.7193  1.2784
 1853TIP3   OH227049   0.384   5.538  15.135 -0.7701 -0.3069 -0.5098
 1853TIP3    H127050   0.466   5.502  15.102 -0.0427  0.7747  0.0490
 1853TIP3    H227051   0.318   5.508  15.073  0.1699 -0.4941 -1.4518
 1854TIP3   OH227052   3.188   3.379   2.468  0.2185 -0.2720  0.6348
 1854TIP3    H127053   3.132   3.420   2.402  0.3237 -2.0873 -0.6800
 1854TIP3    H227054   3.229   3.306   2.422 -0.8300 -2.5541  3.0573
 1855TIP3   OH227055   6.520   3.387   5.943 -0.2309  0.1523  0.4535
 1855TIP3    H127056   6.479   3.418   5.862  0.5680 -2.0814 -0.9046
 1855TIP3    H227057   6.594   3.334   5.913 -0.2499 -1.2226  2.6342
 1856TIP3   OH227058   5.272   1.931   6.602  0.0114  0.0632 -0.0825
 1856TIP3    H127059   5.212   1.856   6.596  0.2763 -0.0947 -1.0706
 1856TIP3    H227060   5.280   1.961   6.511  0.1144  1.1351  0.2677
 1857TIP3   OH227061   6.392   2.799  14.634 -0.0530  0.3261 -0.0021
 1857TIP3    H127062   6.398   2.890  14.663 -1.2909  0.3437  0.2882
 1857TIP3    H227063   6.371   2.805  14.540 -1.0583  0.3849  0.2077
 1858TIP3   OH227064   5.690   4.502   0.057  0.2375 -0.1749  0.0223
 1858TIP3    H127065   5.597   4.524   0.047 -0.1493 -2.2828 -1.6581
 1858TIP3    H227066   5.690   4.422   0.110  1.2008  0.4644  1.0186
 1859TIP3   OH227067   1.694   0.144   3.903 -0.1199  0.2038 -0.8056
 1859TIP3    H127068   1.621   0.120   3.846 -1.4151 -0.3504  1.0149
 1859TIP3    H227069   1.680   0.093   3.983  1.3803  1.2971  0.2002
 1860TIP3   OH227070   1.557   3.766   1.900  0.0737 -0.0289 -0.1006
 1860TIP3    H127071   1.585   3.743   1.989 -1.4089  2.1138  1.0205
 1860TIP3    H227072   1.548   3.862   1.903 -1.2948 -0.0590 -2.1810
 1861TIP3   OH227073   4.784   2.435  15.347 -0.3165  0.2011  0.1260
 1861TIP3    H127074   4.777   2.525  15.379 -0.0982 -0.0331  0.8488
 1861TIP3    H227075   4.804   2.383  15.425  2.0208 -0.1451 -0.6179
 1862TIP3   OH227076   6.828   0.579   3.384 -0.2778 -0.5642 -0.0468
 1862TIP3    H127077   6.749   0.614   3.342 -1.9862 -1.5933  2.0809
 1862TIP3    H227078   6.810   0.486   3.396  0.7741 -0.6216  1.4319
 1863TIP3   OH227079   2.994   1.235   5.023  0.2399 -0.3043  0.0592
 1863TIP3    H127080   2.955   1.210   5.106  1.4060  0.5497  0.8990
 1863TIP3    H227081   3.039   1.317   5.041  3.1808 -1.6308 -0.5754
 1864TIP3   OH227082   1.486   1.295   0.863 -0.1384 -0.4244  0.8371
 1864TIP3    H127083   1.495   1.273   0.956  0.6039  0.3093  0.9523
 1864TIP3    H227084   1.452   1.384   0.863  3.1005  0.9234  0.4799
 1865TIP3   OH227085   4.272   5.961   5.470 -0.3174 -0.5749 -0.0095
 1865TIP3    H127086   4.300   6.019   5.399 -0.4530  0.7875  1.0073
 1865TIP3    H227087   4.354   5.934   5.512 -0.2440 -1.2992 -0.5844
 1866TIP3   OH227088   5.482   4.529   2.234  0.2293  0.3460 -0.5432
 1866TIP3    H127089   5.497   4.546   2.141 -0.7003 -1.5292 -1.1005
 1866TIP3    H227090   5.467   4.615   2.272  1.5675  1.2572 -1.9317
 1867TIP3   OH227091   2.374   5.943   2.652 -0.3007 -0.0774  0.0626
 1867TIP3    H127092   2.450   5.919   2.599  0.8166  1.3082  0.9332
 1867TIP3    H227093   2.371   6.039   2.647 -0.5577  0.0503  1.9316
 1868TIP3   OH227094   6.254   3.189  11.582 -0.0788 -0.1048  0.4193
 1868TIP3    H127095   6.287   3.159  11.667 -0.9132 -1.5693  0.2667
 1868TIP3    H227096   6.332   3.199  11.528  0.3049 -1.6983  0.6115
 1869TIP3   OH227097   2.838   3.968   6.102  0.0485 -0.3276  0.3240
 1869TIP3    H127098   2.781   3.982   6.026  0.0519  0.1536  0.4043
 1869TIP3    H227099   2.912   3.918   6.068  0.6156  0.8750 -0.2464
 1870TIP3   OH227100   4.567   0.070   1.778  1.0821 -0.5744 -0.4929
 1870TIP3    H127101   4.547  -0.023   1.784 -1.6422  0.0310  1.2432
 1870TIP3    H227102   4.511   0.102   1.707  0.7544  0.0389  0.0422
 1871TIP3   OH227103   6.755   4.536  12.381 -0.0299  0.3449  0.3067
 1871TIP3    H127104   6.803   4.469  12.429  0.8265  0.3211 -0.5458
 1871TIP3    H227105   6.782   4.619  12.421  1.1165  0.3678 -0.4662
 1872TIP3   OH227106   0.557   4.941  10.606 -0.1082 -0.1822  0.4383
 1872TIP3    H127107   0.490   4.890  10.559  1.6889 -0.8932 -1.5187
 1872TIP3    H227108   0.616   4.875  10.642  0.5863  0.4618  0.4991
 1873TIP3   OH227109   6.262   1.853   3.191  0.6776 -0.0432 -0.1202
 1873TIP3    H127110   6.327   1.784   3.176 -0.0806 -0.2248 -3.3927
 1873TIP3    H227111   6.184   1.823   3.145 -0.2722  2.1698 -0.0918
 1874TIP3   OH227112   6.260   0.153  15.802  0.2513 -0.4655 -0.3160
 1874TIP3    H127113   6.198   0.137  15.732  0.5820  0.6148 -0.8814
 1874TIP3    H227114   6.342   0.113  15.772  0.4940  0.3212 -0.7398
 1875TIP3   OH227115   2.688   6.644   2.989  0.8715  0.0299 -0.0139
 1875TIP3    H127116   2.621   6.591   3.032  1.4515 -0.2980  0.4984
 1875TIP3    H227117   2.717   6.706   3.056  0.6457  0.5916 -0.4224
 1876TIP3   OH227118   0.596   0.975   1.317 -0.1565 -0.0967  0.0245
 1876TIP3    H127119   0.630   0.915   1.383  0.9910  0.8866  0.3509
 1876TIP3    H227120   0.619   1.062   1.348 -0.1313  0.4219 -1.3651
 1877TIP3   OH227121   6.060   0.685   5.939 -0.2019  0.1333  0.1952
 1877TIP3    H127122   6.122   0.712   6.007 -0.3485  2.3092 -0.4588
 1877TIP3    H227123   6.114   0.638   5.875 -0.2669 -3.1535  2.3225
 1878TIP3   OH227124   1.404   0.277  15.351 -0.0793  0.1634  0.4142
 1878TIP3    H127125   1.498   0.293  15.359 -0.0654  0.2420  0.1304
 1878TIP3    H227126   1.369   0.295  15.438  0.1758  0.0867  0.5337
 1879TIP3   OH227127   1.699   5.916  11.620 -0.1973  0.7172  0.1100
 1879TIP3    H127128   1.778   5.926  11.566 -0.3110 -0.4956 -0.3256
 1879TIP3    H227129   1.643   5.859  11.568 -0.9143  0.6915  0.8983
 1880TIP3   OH227130   6.282   1.754   2.114  0.3249  0.2247  0.0042
 1880TIP3    H127131   6.373   1.725   2.110  1.0057  2.0905  0.8488
 1880TIP3    H227132   6.261   1.755   2.208 -1.1019 -1.6060 -0.2311
 1881TIP3   OH227133   5.477   5.947  11.923  0.3464  1.1306  0.1456
 1881TIP3    H127134   5.464   6.039  11.899 -1.5145  0.7256 -0.5290
 1881TIP3    H227135   5.402   5.901  11.885  1.6881 -0.8259 -0.2654
 1882TIP3   OH227136   3.175   6.046  15.505 -0.4248 -0.2902  0.1294
 1882TIP3    H127137   3.109   6.103  15.464 -0.9057 -0.0979  1.1411
 1882TIP3    H227138   3.247   6.044  15.442 -0.9705  0.3274 -0.5354
 1883TIP3   OH227139   4.579   3.906   4.922 -0.1752  0.1748 -0.0247
 1883TIP3    H127140   4.529   3.929   4.844 -0.0168  1.9560  0.3727
 1883TIP3    H227141   4.580   3.810   4.922 -2.3157  0.0979 -0.8287
 1884TIP3   OH227142   3.922   2.914  10.694 -0.2017 -0.4200 -0.1333
 1884TIP3    H127143   3.955   2.825  10.681  0.2343 -0.3383  0.4145
 1884TIP3    H227144   3.985   2.956  10.752  0.1131  0.5614 -1.1439
 1885TIP3   OH227145   5.675   1.224  11.307 -0.8630 -0.1920  0.7736
 1885TIP3    H127146   5.638   1.261  11.227  1.0520  0.3438  0.0762
 1885TIP3    H227147   5.649   1.132  11.305  0.9910 -0.7750 -1.7007
 1886TIP3   OH227148   6.023   1.004  13.935 -0.7194 -0.0050 -0.0121
 1886TIP3    H127149   6.063   1.081  13.975 -0.8569  0.2856 -0.4344
 1886TIP3    H227150   5.982   1.037  13.855 -0.0990 -0.6587 -0.6041
 1887TIP3   OH227151   6.703   0.760  11.403 -0.6127  0.8946  0.0968
 1887TIP3    H127152   6.701   0.756  11.498  0.2353 -0.8003  0.0722
 1887TIP3    H227153   6.783   0.715  11.378 -2.1409 -1.1925 -1.4818
 1888TIP3   OH227154   3.119   5.562   2.981  0.3555 -0.4094 -0.2979
 1888TIP3    H127155   3.201   5.542   3.027 -0.5125 -0.7987  1.1479
 1888TIP3    H227156   3.082   5.476   2.960  0.0279 -0.2380 -0.4260
 1889TIP3   OH227157   0.347   5.489  16.981  0.2263  0.0650 -0.1672
 1889TIP3    H127158   0.419   5.426  16.976  1.0614  1.0139 -0.2280
 1889TIP3    H227159   0.306   5.472  17.066  1.9254  0.9998  0.8996
 1890TIP3   OH227160   5.185   5.246  10.804  0.3894  0.2012 -0.7447
 1890TIP3    H127161   5.196   5.152  10.812 -3.1071 -0.2475  0.4872
 1890TIP3    H227162   5.149   5.259  10.716 -0.1515  0.2331 -0.5235
 1891TIP3   OH227163   4.860   0.974  13.386  0.1470 -0.0073  0.1976
 1891TIP3    H127164   4.782   0.923  13.409  1.4319 -2.7302 -0.9933
 1891TIP3    H227165   4.837   1.017  13.303  0.1572 -1.6436 -0.7125
 1892TIP3   OH227166   2.435   2.660   2.556 -0.0157  0.2477 -0.5074
 1892TIP3    H127167   2.466   2.742   2.593 -0.1191 -0.4850  1.3214
 1892TIP3    H227168   2.407   2.683   2.467  1.1171  1.9071 -0.4917
 1893TIP3   OH227169   1.429   2.559  12.044  0.0024 -0.6592  0.2438
 1893TIP3    H127170   1.378   2.619  11.989  1.1443  0.9498  0.8596
 1893TIP3    H227171   1.372   2.541  12.119  0.1855  0.9505  0.8192
 1894TIP3   OH227172   5.510   4.598   5.538  0.2568  0.2406 -0.5598
 1894TIP3    H127173   5.432   4.633   5.495  1.2199  2.3491 -0.6852
 1894TIP3    H227174   5.484   4.588   5.629 -0.1066  1.1079 -0.5616
 1895TIP3   OH227175   5.365   4.843   0.949  0.4922 -0.5158 -0.5178
 1895TIP3    H127176   5.308   4.767   0.958  1.4257 -1.0490  1.5280
 1895TIP3    H227177   5.309   4.918   0.968 -0.0916 -0.8126 -1.0510
 1896TIP3   OH227178   2.044   5.579  11.521  0.6096  0.0283  0.0571
 1896TIP3    H127179   1.975   5.578  11.588 -0.4669  2.4050 -0.9108
 1896TIP3    H227180   2.005   5.534  11.446  0.6372  0.1830 -0.0481
 1897TIP3   OH227181   2.277   1.651  12.222  0.0402 -0.4555 -0.5623
 1897TIP3    H127182   2.250   1.724  12.278  1.3646 -0.3162 -0.0781
 1897TIP3    H227183   2.259   1.682  12.133 -2.8552 -0.9982 -0.2449
 1898TIP3   OH227184   5.977   6.674   3.295 -0.1739  0.4063  0.4029
 1898TIP3    H127185   5.971   6.625   3.213 -0.0061  0.3075  0.4488
 1898TIP3    H227186   6.026   6.617   3.353 -0.5893  0.3331  0.6847
 1899TIP3   OH227187   0.968   2.059  15.131  0.4310  0.0760 -0.1451
 1899TIP3    H127188   0.990   2.008  15.209 -0.1341  0.6741  0.4196
 1899TIP3    H227189   1.047   2.111  15.113  0.4460  0.1896  0.2396
 1900TIP3   OH227190   6.082   1.452   2.274 -0.4456 -0.0095 -0.0324
 1900TIP3    H127191   6.164   1.494   2.248 -0.5875  0.9699  1.0014
 1900TIP3    H227192   6.102   1.359   2.275  0.0163  0.0227 -1.9339
 1901TIP3   OH227193   5.238   6.775   0.707  0.2799  0.0785  0.5925
 1901TIP3    H127194   5.256   6.683   0.729 -0.4693 -0.2224 -0.0231
 1901TIP3    H227195   5.145   6.786   0.724  0.2259  0.5425  0.0160
 1902TIP3   OH227196   2.320   1.638   3.051  0.6982  0.1187  0.0831
 1902TIP3    H127197   2.358   1.640   3.139  0.2159 -0.2501  0.2996
 1902TIP3    H227198   2.372   1.572   3.004  0.8020  0.1448  0.1601
 1903TIP3   OH227199   3.679   5.502  14.166 -0.3011  0.4586  0.8263
 1903TIP3    H127200   3.716   5.466  14.086  0.3693  3.1010 -0.1310
 1903TIP3    H227201   3.585   5.481  14.160 -0.1690  0.1368 -0.3575
 1904TIP3   OH227202   3.512   3.558  14.167 -0.3597  0.7424 -0.7862
 1904TIP3    H127203   3.479   3.571  14.256 -1.4161  0.5998 -1.1468
 1904TIP3    H227204   3.540   3.645  14.139  0.2283  0.7432 -0.2300
 1905TIP3   OH227205   5.183   0.276  12.748  0.5866  0.3959 -0.1708
 1905TIP3    H127206   5.268   0.233  12.752  0.3818 -0.0088 -0.0344
 1905TIP3    H227207   5.123   0.214  12.790 -0.1041 -0.1505 -1.8785
 1906TIP3   OH227208   2.004   2.547   5.265 -0.0798  0.9527  0.0378
 1906TIP3    H127209   2.080   2.556   5.322 -1.9168  0.1223  2.8003
 1906TIP3    H227210   1.930   2.579   5.318 -2.0318 -0.6352 -1.5437
 1907TIP3   OH227211   3.173   5.293   3.688  0.3125 -0.2718 -0.4147
 1907TIP3    H127212   3.202   5.209   3.722  0.4572  0.0808  0.3542
 1907TIP3    H227213   3.111   5.326   3.753  2.3632  1.4943  0.8015
 1908TIP3   OH227214   5.232   3.598   2.046  0.2475  0.0199  0.4240
 1908TIP3    H127215   5.220   3.513   2.003  0.2675  0.3948 -0.3455
 1908TIP3    H227216   5.247   3.577   2.138  0.4687 -0.8224  0.2034
 1909TIP3   OH227217   5.954   4.818   5.625 -0.1712 -0.4476 -0.3954
 1909TIP3    H127218   5.912   4.875   5.561  0.8080  0.7655 -0.0165
 1909TIP3    H227219   5.901   4.828   5.704  1.2312  1.8154  0.3670
 1910TIP3   OH227220   4.895   3.038   1.770 -0.6160  0.2012  0.1825
 1910TIP3    H127221   4.822   3.089   1.736 -0.0999  0.2434 -0.9149
 1910TIP3    H227222   4.854   2.968   1.821 -1.4571 -0.0735 -0.8281
 1911TIP3   OH227223   2.426   4.642   3.557 -0.1662 -0.2900  0.4238
 1911TIP3    H127224   2.509   4.664   3.514  0.4463 -1.1795  1.1241
 1911TIP3    H227225   2.401   4.557   3.518  0.0433 -0.7693  1.3226
 1912TIP3   OH227226   3.565   6.173   2.194  0.1953  0.0367  0.3297
 1912TIP3    H127227   3.511   6.114   2.246 -1.8039  0.1053 -1.5358
 1912TIP3    H227228   3.577   6.250   2.250  1.9946 -1.6072  2.3916
 1913TIP3   OH227229   0.920   6.732   2.398  0.3889  0.2043 -0.4337
 1913TIP3    H127230   0.937   6.755   2.307  1.4123  1.4994  0.0700
 1913TIP3    H227231   0.892   6.813   2.439  1.9691  0.1203  0.8827
 1914TIP3   OH227232   6.110   6.351  12.090 -0.0761 -0.2179 -0.1134
 1914TIP3    H127233   6.200   6.318  12.096 -0.2956 -0.8378 -0.0738
 1914TIP3    H227234   6.075   6.311  12.011 -0.8252 -1.3084  0.7312
 1915TIP3   OH227235   2.197   5.614  16.943 -0.3036  0.0611  0.5860
 1915TIP3    H127236   2.157   5.697  16.967  0.1501  0.0635  1.3823
 1915TIP3    H227237   2.244   5.586  17.022  0.5688 -0.3445 -0.0575
 1916TIP3   OH227238   3.018   0.840   0.078 -0.5063 -0.0486  0.2085
 1916TIP3    H127239   3.026   0.875   0.167  2.4428 -0.8087  0.3423
 1916TIP3    H227240   3.013   0.746   0.089 -2.3905 -0.0583 -0.3994
 1917TIP3   OH227241   1.401   0.096   1.117  0.7551  0.1542 -0.0459
 1917TIP3    H127242   1.477   0.042   1.093  0.6607 -0.2748  0.6126
 1917TIP3    H227243   1.355   0.109   1.034  0.4331 -1.3310 -0.1391
 1918TIP3   OH227244   4.251   0.955  16.554  0.0177  0.0831  0.4204
 1918TIP3    H127245   4.200   0.926  16.478  0.7257 -1.6720  0.5619
 1918TIP3    H227246   4.203   0.921  16.630  0.3290  0.1866  0.6651
 1919TIP3   OH227247   6.446   6.659  11.088  0.5105  0.2854  0.3737
 1919TIP3    H127248   6.512   6.643  11.021 -1.9229  2.4191 -2.8106
 1919TIP3    H227249   6.474   6.741  11.130  0.3450  0.7220 -0.3605
 1920TIP3   OH227250   3.680   6.501  11.793 -0.5323 -0.1256  0.5951
 1920TIP3    H127251   3.657   6.419  11.836  0.1902 -0.8291 -0.3106
 1920TIP3    H227252   3.766   6.524  11.829  0.6334 -1.3414 -1.2377
 1921TIP3   OH227253   3.201   2.268   6.035  0.2230 -0.0876  0.4507
 1921TIP3    H127254   3.250   2.276   5.953  1.9686 -0.0922  1.4461
 1921TIP3    H227255   3.191   2.173   6.048 -1.8188 -0.0901 -0.7054
 1922TIP3   OH227256   6.614   2.977  14.446 -0.0146 -0.1766  0.5418
 1922TIP3    H127257   6.526   2.964  14.480  0.0357 -1.2708  0.2956
 1922TIP3    H227258   6.658   2.893  14.461  0.0781 -0.6695 -1.9884
 1923TIP3   OH227259   4.057   3.585   1.751  0.3042  0.0539  0.2205
 1923TIP3    H127260   4.142   3.544   1.733  0.8457  1.3958 -0.4223
 1923TIP3    H227261   4.041   3.568   1.843  0.3992 -1.7690 -0.0647
 1924TIP3   OH227262   1.544   0.231   2.669  0.5552 -0.2922  0.3613
 1924TIP3    H127263   1.543   0.198   2.579  2.2234  0.2775  0.0915
 1924TIP3    H227264   1.527   0.154   2.723  0.0885 -0.7473 -0.4115
 1925TIP3   OH227265   5.910   2.427   4.339 -0.0466  0.4446  0.3931
 1925TIP3    H127266   5.886   2.406   4.430 -0.0991 -4.5705 -0.5222
 1925TIP3    H227267   5.997   2.465   4.346 -0.6843  1.7269  2.5632
 1926TIP3   OH227268   5.656   0.566  10.854 -0.4179 -0.1169 -0.1207
 1926TIP3    H127269   5.708   0.516  10.791  0.3896  1.1605 -0.4858
 1926TIP3    H227270   5.567   0.563  10.819 -0.0119  0.4191 -1.2436
 1927TIP3   OH227271   3.208   5.736  15.868  0.7705  0.3489  0.2540
 1927TIP3    H127272   3.300   5.719  15.887  0.6919 -0.5304 -0.1147
 1927TIP3    H227273   3.207   5.825  15.834  1.3541  0.7091  1.1549
 1928TIP3   OH227274   2.578   6.633   3.521  0.8299 -0.5565 -0.0509
 1928TIP3    H127275   2.597   6.630   3.615  1.0076  2.0072  0.0703
 1928TIP3    H227276   2.592   6.725   3.497  1.1210 -1.2238 -2.6751
 1929TIP3   OH227277   5.206   4.258  11.014 -0.4964  0.1195 -0.2299
 1929TIP3    H127278   5.210   4.270  10.919  0.2365  1.9756 -0.0144
 1929TIP3    H227279   5.118   4.223  11.030 -0.9782  0.6765 -1.5181
 1930TIP3   OH227280   2.347   1.156   2.386 -0.5962 -0.1421  0.1183
 1930TIP3    H127281   2.350   1.132   2.294  0.2770 -0.0670  0.1280
 1930TIP3    H227282   2.350   1.252   2.387 -0.2305 -0.1563  0.2454
 1931TIP3   OH227283   3.369   4.939   3.458  0.2928  0.1589  0.2748
 1931TIP3    H127284   3.365   4.887   3.538  1.6896 -2.0668 -0.9915
 1931TIP3    H227285   3.306   4.898   3.399  0.8266  0.4163 -0.4919
 1932TIP3   OH227286   3.424   3.011   4.474  0.0497  0.5314 -0.1125
 1932TIP3    H127287   3.420   3.039   4.383  0.3949 -2.7456 -1.2795
 1932TIP3    H227288   3.513   3.032   4.502  0.0778  1.1566 -0.6581
 1933TIP3   OH227289   5.675   1.957  13.196  0.2295 -0.3486  0.1199
 1933TIP3    H127290   5.608   1.908  13.244  0.0399 -0.0095  0.2114
 1933TIP3    H227291   5.744   1.972  13.260  0.0010  0.0559  0.2798
 1934TIP3   OH227292   0.590   0.892   0.047 -0.4716 -0.0641  0.1955
 1934TIP3    H127293   0.498   0.902   0.022 -1.1048 -1.8652  1.6194
 1934TIP3    H227294   0.625   0.981   0.042 -2.4752  0.7996  0.3181
 1935TIP3   OH227295   3.378   3.830  15.841  0.0193  0.1295 -0.2885
 1935TIP3    H127296   3.441   3.806  15.909 -1.2776 -0.2118  0.8290
 1935TIP3    H227297   3.431   3.867  15.771  1.3319  1.2687  1.2459
 1936TIP3   OH227298   5.652   1.744  12.400  0.1520  0.8343  0.0958
 1936TIP3    H127299   5.702   1.789  12.332  0.2919  0.6100  0.0524
 1936TIP3    H227300   5.631   1.659  12.362 -0.2671  0.9279  0.1089
 1937TIP3   OH227301   4.632   2.847  14.954  0.0434 -0.9538  0.0898
 1937TIP3    H127302   4.655   2.940  14.959  1.0369 -1.1349 -0.8388
 1937TIP3    H227303   4.579   2.831  15.033 -1.6643  0.8011 -0.6220
 1938TIP3   OH227304   3.959   0.728   5.073  0.0261 -0.1755  0.3136
 1938TIP3    H127305   3.889   0.739   5.137 -0.1184 -1.3527  0.3932
 1938TIP3    H227306   4.021   0.798   5.092 -0.8737  0.5621  0.5812
 1939TIP3   OH227307   4.422   0.705  16.827 -0.5466 -0.0327 -0.0371
 1939TIP3    H127308   4.350   0.692  16.889 -1.4718 -0.1908 -1.0981
 1939TIP3    H227309   4.443   0.798  16.834 -0.6124 -0.0587  0.5464
 1940TIP3   OH227310   5.582   5.747  15.678 -0.3749  0.5202  0.1569
 1940TIP3    H127311   5.505   5.764  15.732 -0.8001  0.5546 -0.4523
 1940TIP3    H227312   5.628   5.831  15.674  0.1488  0.2967  1.2130
 1941TIP3   OH227313   1.025   1.850  16.868  0.7341 -0.3241 -0.0306
 1941TIP3    H127314   1.037   1.908  16.944 -0.2154 -0.4449  0.2241
 1941TIP3    H227315   0.979   1.774  16.903 -0.5678  0.0268 -0.8900
 1942TIP3   OH227316   0.348   3.756  13.024  0.7545  0.9460 -0.3379
 1942TIP3    H127317   0.284   3.732  13.091  1.8298  0.6493  0.6254
 1942TIP3    H227318   0.347   3.683  12.962  0.6252  0.6318  0.0305
 1943TIP3   OH227319   2.986   3.147   2.410 -0.2337  0.5235 -0.1375
 1943TIP3    H127320   3.043   3.217   2.442  1.3132 -1.6594  2.2435
 1943TIP3    H227321   2.951   3.106   2.489 -1.0329 -1.4406 -1.4313
 1944TIP3   OH227322   3.038   5.342   2.873  0.2753 -0.4981  0.4528
 1944TIP3    H127323   3.095   5.273   2.907  0.0143 -1.4884 -1.0093
 1944TIP3    H227324   2.963   5.295   2.836  0.5420  0.4640 -1.4445
 1945TIP3   OH227325   0.300   3.489   4.700 -0.0576  0.0992  0.0075
 1945TIP3    H127326   0.225   3.431   4.708  1.0568 -1.3300  0.5252
 1945TIP3    H227327   0.266   3.576   4.723 -2.5997  0.4628 -4.0313
 1946TIP3   OH227328   2.557   4.910  13.609  0.0940 -0.0492 -0.6449
 1946TIP3    H127329   2.641   4.923  13.653 -1.2515 -0.5766  2.2837
 1946TIP3    H227330   2.521   4.999  13.601 -0.3445 -0.0665  0.8800
 1947TIP3   OH227331   1.573   4.393   2.025  0.4931 -0.3617  0.0011
 1947TIP3    H127332   1.569   4.461   2.092 -1.3248  1.5763 -1.9051
 1947TIP3    H227333   1.651   4.342   2.047  1.4155  1.7379  2.0701
 1948TIP3   OH227334   3.138   1.776   4.011 -0.3546  0.0675 -0.4019
 1948TIP3    H127335   3.173   1.823   3.936 -3.4221  0.2947 -1.8537
 1948TIP3    H227336   3.159   1.832   4.086  2.4423  0.0170 -1.0372
 1949TIP3   OH227337   3.256   1.637  13.568  0.1664  0.2415  0.5254
 1949TIP3    H127338   3.264   1.578  13.493  0.4749  0.3486  0.4750
 1949TIP3    H227339   3.183   1.601  13.618 -0.9031  0.8995 -0.4917
 1950TIP3   OH227340   5.922   3.497  12.873 -0.1469  0.4861  0.2548
 1950TIP3    H127341   5.838   3.456  12.894  0.2658  0.6866  2.5523
 1950TIP3    H227342   5.945   3.461  12.788 -3.2104  1.4964 -1.1727
 1951TIP3   OH227343   5.661   2.017   3.655 -0.6041  0.0748  0.5882
 1951TIP3    H127344   5.685   1.954   3.586 -2.1492 -2.1645  1.9596
 1951TIP3    H227345   5.738   2.021   3.711 -0.1658  0.1075 -0.0070
 1952TIP3   OH227346   3.207   5.978   0.885 -0.6790 -0.2827 -0.5139
 1952TIP3    H127347   3.115   5.973   0.859 -0.6988 -3.6126 -0.2672
 1952TIP3    H227348   3.205   5.973   0.980 -0.2568  1.7827 -0.3593
 1953TIP3   OH227349   2.632   2.325   4.568 -0.1346  0.2544  0.0120
 1953TIP3    H127350   2.557   2.291   4.616 -0.5488  2.0672  0.7296
 1953TIP3    H227351   2.655   2.406   4.613  1.2394  0.5685 -1.1747
 1954TIP3   OH227352   3.795   1.449   3.079 -0.0375 -0.0237 -0.1235
 1954TIP3    H127353   3.725   1.452   3.145 -0.2867  0.5274 -0.4070
 1954TIP3    H227354   3.800   1.538   3.046  0.5789 -0.1411 -0.3464
 1955TIP3   OH227355   3.731   2.502   3.741  0.4939 -0.1542 -0.0632
 1955TIP3    H127356   3.699   2.538   3.658 -1.5922 -0.2366  0.6293
 1955TIP3    H227357   3.713   2.409   3.735  0.2734 -0.1529  0.4911
 1956TIP3   OH227358   6.478   5.374   1.371 -0.1922 -0.0344  0.1483
 1956TIP3    H127359   6.525   5.315   1.431 -1.0231 -0.3575  0.4921
 1956TIP3    H227360   6.498   5.339   1.284  0.6398  0.1583  0.2516
 1957TIP3   OH227361   3.074   4.728  16.100 -0.7584 -0.0152  0.2256
 1957TIP3    H127362   2.995   4.756  16.053 -1.0745 -1.3946 -0.1027
 1957TIP3    H227363   3.131   4.693  16.032 -0.8986 -1.3156  0.7478
 1958TIP3   OH227364   3.699   3.053   1.783 -0.1046  0.7418  0.0855
 1958TIP3    H127365   3.626   3.004   1.820 -0.4082  1.0985 -0.0354
 1958TIP3    H227366   3.662   3.100   1.708  0.8156 -1.1305 -1.6467
 1959TIP3   OH227367   2.934   5.248   5.498  0.0923  0.5042 -0.4949
 1959TIP3    H127368   3.023   5.218   5.520  0.0923  0.8116 -0.0533
 1959TIP3    H227369   2.947   5.332   5.455  0.0156  0.5481 -0.4333
 1960TIP3   OH227370   0.871   3.075   1.840 -0.3135  0.4513 -0.0572
 1960TIP3    H127371   0.907   3.129   1.770  2.1309 -0.9875 -0.0416
 1960TIP3    H227372   0.808   3.017   1.796 -0.9041  1.4200 -0.5246
 1961TIP3   OH227373   4.216   6.495   3.358  0.1330  0.3625  0.3574
 1961TIP3    H127374   4.289   6.517   3.415 -0.3310  1.0463  0.7082
 1961TIP3    H227375   4.231   6.404   3.332  0.1589 -0.0927  1.8810
 1962TIP3   OH227376   6.030   0.050   1.424 -0.1129  0.3588  0.0355
 1962TIP3    H127377   5.952   0.063   1.477  0.5554 -0.9768  1.4202
 1962TIP3    H227378   6.078   0.132   1.430 -0.8570  0.7934  0.1142
 1963TIP3   OH227379   3.500   2.388  16.559  0.1154 -0.3558 -0.2978
 1963TIP3    H127380   3.409   2.364  16.538  0.2122  0.0431 -1.2735
 1963TIP3    H227381   3.527   2.442  16.484  0.9240  0.1169  0.3245
 1964TIP3   OH227382   6.398   5.826  13.603  0.0754 -0.3520 -0.0905
 1964TIP3    H127383   6.475   5.768  13.606 -0.1219 -0.6248 -0.1838
 1964TIP3    H227384   6.333   5.776  13.553 -0.2649 -0.2454  0.2436
 1965TIP3   OH227385   0.971   6.334  14.424 -0.4927  0.0099 -0.3684
 1965TIP3    H127386   0.883   6.362  14.400 -0.2668 -0.7405 -2.2551
 1965TIP3    H227387   1.016   6.414  14.449 -0.9830  0.8064 -1.8852
 1966TIP3   OH227388   3.553   3.666   0.707 -0.1016 -0.2493 -0.6545
 1966TIP3    H127389   3.561   3.683   0.613  1.8003 -0.1865 -0.5225
 1966TIP3    H227390   3.509   3.581   0.712 -1.3794  0.3343 -1.5509
 1967TIP3   OH227391   1.489   5.556   2.535  0.3871  0.2098  0.4706
 1967TIP3    H127392   1.555   5.556   2.603 -0.9925  1.0753  1.8732
 1967TIP3    H227393   1.467   5.648   2.522  1.0651  0.1370 -1.6425
 1968TIP3   OH227394   1.088   0.478   4.918  0.1752 -1.0495 -0.2889
 1968TIP3    H127395   1.042   0.525   4.848  0.0938  2.2457  1.8050
 1968TIP3    H227396   1.173   0.456   4.880  0.6408  1.8292 -1.1220
 1969TIP3   OH227397   6.567   3.382   0.707  0.1529 -0.6532  0.0768
 1969TIP3    H127398   6.647   3.422   0.744 -0.4336  1.6512 -0.9508
 1969TIP3    H227399   6.545   3.312   0.768  1.3334  0.5669  2.0183
 1970TIP3   OH227400   5.014   0.156  11.116 -0.3028 -0.3246 -0.0672
 1970TIP3    H127401   4.947   0.199  11.062  0.7082  0.2423 -0.8990
 1970TIP3    H227402   4.972   0.075  11.146 -1.4245  0.1102 -0.3985
 1971TIP3   OH227403   1.195   0.958  14.099 -0.3026  0.4601 -0.0051
 1971TIP3    H127404   1.264   0.914  14.048 -1.9243  0.6989 -2.5730
 1971TIP3    H227405   1.126   0.975  14.036 -2.8800  0.0195  2.4940
 1972TIP3   OH227406   2.481   4.484   1.033 -0.0467  0.0964 -0.8037
 1972TIP3    H127407   2.462   4.571   1.067  1.0039  1.1374 -2.7504
 1972TIP3    H227408   2.557   4.496   0.976  0.3773 -2.1776 -0.8194
 1973TIP3   OH227409   2.711   4.655  11.317  0.1138 -0.0313 -0.1675
 1973TIP3    H127410   2.656   4.708  11.259  1.2994  1.3684 -0.0791
 1973TIP3    H227411   2.795   4.701  11.319  0.4831 -0.6969  1.7357
 1974TIP3   OH227412   4.071   0.769   4.113  0.1956 -0.0667 -0.1192
 1974TIP3    H127413   4.097   0.829   4.183  1.0188 -1.7106  1.0616
 1974TIP3    H227414   4.108   0.808   4.033 -3.1894  3.3954 -0.2911
 1975TIP3   OH227415   1.048   3.121   2.280  0.2178 -0.0443  0.1941
 1975TIP3    H127416   0.977   3.059   2.292 -1.8600  2.3364  1.1745
 1975TIP3    H227417   1.102   3.084   2.210 -2.0941 -1.8730 -0.7217
 1976TIP3   OH227418   0.081   2.704   0.511 -0.2121 -0.0750  0.3627
 1976TIP3    H127419   0.123   2.690   0.426 -0.1614  0.1190  0.3548
 1976TIP3    H227420   0.147   2.678   0.575 -0.5645 -1.0758  0.3349
 1977TIP3   OH227421   0.217   5.717   5.490  0.1048 -0.3271  0.4711
 1977TIP3    H127422   0.251   5.758   5.410  1.4243 -1.1456  0.5713
 1977TIP3    H227423   0.177   5.636   5.460 -1.5680  0.4879  0.3932
 1978TIP3   OH227424   3.009   3.363  11.716 -0.0980 -0.4154 -0.4379
 1978TIP3    H127425   2.917   3.341  11.702 -0.3463  1.0915 -1.4006
 1978TIP3    H227426   3.033   3.316  11.796 -1.7603 -0.6601 -0.0472
 1979TIP3   OH227427   2.918   5.788   0.097 -0.4928 -0.3105  1.0472
 1979TIP3    H127428   2.941   5.765   0.007 -1.0502 -3.3423  1.5649
 1979TIP3    H227429   2.840   5.842   0.089 -1.7054 -2.1422 -0.2943
 1980TIP3   OH227430   6.741   3.128  13.846  0.0856 -0.3335 -0.0938
 1980TIP3    H127431   6.690   3.072  13.789  0.7791  0.5766 -1.6656
 1980TIP3    H227432   6.732   3.216  13.809 -2.0449  0.9578  3.0216
 1981TIP3   OH227433   5.002   3.949   4.132 -0.4499  0.5246  0.0431
 1981TIP3    H127434   4.979   3.872   4.184 -0.8875  1.3564  1.1185
 1981TIP3    H227435   5.081   3.923   4.085 -0.9218 -0.7774 -0.0704
 1982TIP3   OH227436   4.326   4.999  10.761 -0.1794 -0.4973 -0.5632
 1982TIP3    H127437   4.282   4.999  10.677 -0.9836  0.6162 -0.1648
 1982TIP3    H227438   4.298   5.080  10.804 -0.0101 -1.1576  0.8829
 1983TIP3   OH227439   6.695   2.024   0.905  0.2391 -0.3558 -0.0480
 1983TIP3    H127440   6.722   1.935   0.887  0.9568  0.0075 -0.8063
 1983TIP3    H227441   6.765   2.060   0.960  0.0657 -0.1803  0.0609
 1984TIP3   OH227442   1.180   4.558   2.423 -0.2831  0.0812  0.5263
 1984TIP3    H127443   1.261   4.592   2.462  0.2628 -1.0585  0.4143
 1984TIP3    H227444   1.168   4.611   2.345 -0.2677  1.0121  1.1281
 1985TIP3   OH227445   2.004   2.728   1.973 -0.0056  0.2378 -0.4968
 1985TIP3    H127446   2.057   2.793   1.926 -0.6535  0.0945 -1.4622
 1985TIP3    H227447   1.918   2.769   1.982 -0.0506  0.0282  0.0597
 1986TIP3   OH227448   0.449   3.898  10.879  0.3005 -0.4015 -0.2590
 1986TIP3    H127449   0.543   3.883  10.895  0.4889 -0.7287 -1.5825
 1986TIP3    H227450   0.405   3.836  10.936  0.9070 -0.6249 -0.0248
 1987TIP3   OH227451   5.989   5.373  14.423  0.0360  0.2062  0.3721
 1987TIP3    H127452   6.010   5.404  14.335 -0.0440  2.9059  1.1844
 1987TIP3    H227453   5.902   5.409  14.440 -0.0101 -0.4136  1.5030
 1988TIP3   OH227454   4.349   4.050   5.659 -0.2296  0.0582 -0.2027
 1988TIP3    H127455   4.307   4.007   5.733 -1.6186  1.6315 -0.0253
 1988TIP3    H227456   4.435   4.077   5.692 -0.7360  0.5155  0.7356
 1989TIP3   OH227457   1.199   4.216   0.702  0.1874 -0.2227  0.2543
 1989TIP3    H127458   1.193   4.126   0.735  0.2354 -0.3681 -0.1341
 1989TIP3    H227459   1.129   4.263   0.747 -1.3239 -0.9753 -1.2130
 1990TIP3   OH227460   0.185   2.245  15.727 -0.0586  0.2120  1.0948
 1990TIP3    H127461   0.234   2.247  15.645 -1.2867 -2.9180  0.1343
 1990TIP3    H227462   0.141   2.330  15.731 -0.4328  0.2618 -1.8065
 1991TIP3   OH227463   6.490   0.372  16.457 -0.2385 -0.4795  0.3149
 1991TIP3    H127464   6.422   0.307  16.473 -0.5186 -0.0136  1.0617
 1991TIP3    H227465   6.455   0.427  16.387 -0.6861 -0.1731  0.7735
 1992TIP3   OH227466   4.403   2.611   4.673  0.7811 -0.2400 -0.0967
 1992TIP3    H127467   4.489   2.579   4.646  1.1660  1.2514 -0.7475
 1992TIP3    H227468   4.381   2.559   4.750  2.6422 -0.1040  0.5790
 1993TIP3   OH227469   6.482   5.087   5.115 -0.7381  0.0405  0.1436
 1993TIP3    H127470   6.409   5.043   5.071  0.1632 -0.0821 -1.2851
 1993TIP3    H227471   6.550   5.020   5.121  0.0913  0.7901 -0.6505
 1994TIP3   OH227472   0.044   4.179  12.265  0.6886  0.4608 -0.3226
 1994TIP3    H127473   0.056   4.186  12.359 -0.1030  2.1020 -0.3076
 1994TIP3    H227474   0.017   4.267  12.238  1.8558  0.2969 -2.2237
 1995TIP3   OH227475   0.359   6.629  15.750 -0.1533  0.2694 -0.1951
 1995TIP3    H127476   0.357   6.533  15.754  0.7879  0.2804  2.0192
 1995TIP3    H227477   0.452   6.651  15.760 -0.2345  1.4282 -1.6812
 1996TIP3   OH227478   4.186   4.639   2.597  0.2061 -0.9248  0.1548
 1996TIP3    H127479   4.149   4.564   2.643 -0.0289  0.5340  2.4493
 1996TIP3    H227480   4.275   4.611   2.575  0.6019 -1.4210  2.2086
 1997TIP3   OH227481   4.400   2.106  16.682 -0.0841 -0.4374  0.0854
 1997TIP3    H127482   4.401   2.042  16.753 -1.9480  0.7587  1.2642
 1997TIP3    H227483   4.358   2.183  16.720  0.7427  0.9818 -1.7278
 1998TIP3   OH227484   0.988   1.458   1.564 -0.5813  0.3634 -0.5767
 1998TIP3    H127485   1.067   1.422   1.603 -0.3001  1.8259  0.2664
 1998TIP3    H227486   1.009   1.468   1.471 -1.0324 -2.5423 -1.0708
 1999TIP3   OH227487   0.415   2.087  12.899 -0.6316  0.5594  0.6158
 1999TIP3    H127488   0.487   2.136  12.940  0.5490 -1.5080  1.1520
 1999TIP3    H227489   0.336   2.129  12.932  0.3066  0.8542  2.6799
 2000TIP3   OH227490   2.723   6.187   5.262  0.1597  0.0127  0.0040
 2000TIP3    H127491   2.754   6.146   5.342 -0.6595  0.8651  0.7816
 2000TIP3    H227492   2.801   6.195   5.207  0.6573 -0.9220  0.5514
 2001TIP3   OH227493   5.531   6.460   1.176  0.0729  0.0073 -0.4922
 2001TIP3    H127494   5.541   6.410   1.095 -1.6605  1.2829 -1.5420
 2001TIP3    H227495   5.590   6.535   1.166  0.1900 -0.0648 -0.3581
 2002TIP3   OH227496   1.412   4.819  14.749  0.4452 -0.0354 -0.5819
 2002TIP3    H127497   1.350   4.810  14.821 -1.4235  0.5314 -2.0476
 2002TIP3    H227498   1.468   4.893  14.776 -0.6263  0.5892  0.0113
 2003TIP3   OH227499   1.570   6.151   2.808 -0.2872  0.0487 -0.0719
 2003TIP3    H127500   1.605   6.066   2.836 -0.2195 -0.1094 -0.6149
 2003TIP3    H227501   1.634   6.182   2.744 -1.5139 -0.6030 -1.6809
 2004TIP3   OH227502   6.057   5.236  11.176 -0.7134 -0.7725 -0.2672
 2004TIP3    H127503   6.020   5.282  11.101  0.6106 -1.4042 -1.3508
 2004TIP3    H227504   6.010   5.153  11.178 -0.6007 -0.8461 -0.5494
 2005TIP3   OH227505   0.103   3.070  11.580 -0.1702 -0.1450  0.4868
 2005TIP3    H127506   0.011   3.095  11.574 -0.0477  0.5983  1.5352
 2005TIP3    H227507   0.115   3.041  11.670  0.5064 -0.7399  0.2166
 2006TIP3   OH227508   5.424   4.850   0.162  0.1315  0.0133 -0.7802
 2006TIP3    H127509   5.459   4.809   0.241 -0.1378  0.4497 -0.4277
 2006TIP3    H227510   5.336   4.879   0.187 -0.2106 -0.4360 -1.4447
 2007TIP3   OH227511   0.651   4.618  14.328 -0.3039  0.1841  0.2180
 2007TIP3    H127512   0.582   4.596  14.391 -0.4496  1.1031  0.4095
 2007TIP3    H227513   0.603   4.643  14.249 -0.1100 -4.2168 -1.5473
 2008TIP3   OH227514   3.540   2.432   2.423 -0.4714 -0.5920 -0.1261
 2008TIP3    H127515   3.596   2.414   2.347 -3.3021 -4.2200 -1.6615
 2008TIP3    H227516   3.584   2.388   2.495 -0.5858 -2.2957 -1.0308
 2009TIP3   OH227517   1.913   5.320  17.070 -0.0182  0.3712 -0.2363
 2009TIP3    H127518   1.932   5.270  16.991  0.0004  0.2468 -0.1522
 2009TIP3    H227519   1.853   5.388  17.041  2.4029  2.3104 -1.0323
 2010TIP3   OH227520   4.256   0.738  14.335 -0.1623  0.2134 -0.0023
 2010TIP3    H127521   4.274   0.721  14.242 -0.6619 -1.5175  0.1932
 2010TIP3    H227522   4.260   0.652  14.377  1.3134  1.0938  1.8361
 2011TIP3   OH227523   1.316   3.069   5.248 -0.3338 -0.1148  0.0594
 2011TIP3    H127524   1.262   3.062   5.169 -0.8197  2.2658  0.0856
 2011TIP3    H227525   1.273   3.012   5.311 -0.4996 -1.3161 -1.0995
 2012TIP3   OH227526   3.672   0.733   0.791 -0.2125  0.2434 -0.0512
 2012TIP3    H127527   3.739   0.702   0.852  1.6383  0.9949 -1.6188
 2012TIP3    H227528   3.650   0.821   0.824  1.1138  0.8344 -0.6534
 2013TIP3   OH227529   6.685   3.135  11.576 -0.0110  0.2738  0.5501
 2013TIP3    H127530   6.632   3.206  11.611  0.4072 -0.2558  2.3627
 2013TIP3    H227531   6.661   3.130  11.484 -1.8381  1.1602  0.9380
 2014TIP3   OH227532   0.649   4.827  12.936 -0.3574  0.4569  0.0321
 2014TIP3    H127533   0.599   4.867  12.865 -1.6454 -1.7937 -0.4276
 2014TIP3    H227534   0.740   4.834  12.908 -0.7403  0.7975 -1.1898
 2015TIP3   OH227535   1.796   0.932  13.457  0.0728 -0.2025 -0.6640
 2015TIP3    H127536   1.727   0.925  13.391  0.3888 -0.1990 -0.9969
 2015TIP3    H227537   1.774   0.865  13.522 -0.2661 -0.1749 -0.7482
 2016TIP3   OH227538   1.332   3.910  16.432  0.0366  0.1214  0.0856
 2016TIP3    H127539   1.256   3.904  16.491 -1.1056  0.5394 -1.2659
 2016TIP3    H227540   1.372   3.994  16.453 -1.8119  1.4503 -1.2915
 2017TIP3   OH227541   0.106   5.411   0.539 -0.4203  0.3163 -0.0814
 2017TIP3    H127542   0.201   5.421   0.546 -0.1743 -0.7743 -1.4085
 2017TIP3    H227543   0.094   5.332   0.486 -2.0879 -1.4507  2.6753
 2018TIP3   OH227544   5.261   0.414  10.848 -0.1258  0.0663 -0.2997
 2018TIP3    H127545   5.188   0.451  10.897 -0.1566 -1.6660  1.0731
 2018TIP3    H227546   5.286   0.482  10.785 -1.2834  1.6502  0.8981
 2019TIP3   OH227547   6.449   6.781   1.377 -0.2045  0.1588  0.0031
 2019TIP3    H127548   6.438   6.688   1.398  1.1532  0.2145  1.0726
 2019TIP3    H227549   6.459   6.824   1.462 -3.2944  1.7013 -0.2465
 2020TIP3   OH227550   6.081   0.375   0.980  0.2746 -0.1144  0.0611
 2020TIP3    H127551   6.070   0.353   0.887 -1.4060  2.8594 -0.5776
 2020TIP3    H227552   6.163   0.332   1.005 -0.9786 -3.9995 -1.7212
 2021TIP3   OH227553   1.143   6.752   0.378  0.1106 -0.2762 -0.0298
 2021TIP3    H127554   1.212   6.687   0.368 -0.4952 -0.7408 -1.4085
 2021TIP3    H227555   1.083   6.714   0.443 -0.0873 -0.9767 -0.6099
 2022TIP3   OH227556   0.851   0.556   5.160  0.1775 -0.0024  0.0196
 2022TIP3    H127557   0.885   0.632   5.112 -1.0748 -0.2632 -1.3539
 2022TIP3    H227558   0.804   0.506   5.094 -0.1819 -1.2729  1.2070
 2023TIP3   OH227559   2.324   1.332  14.987  0.1305 -0.9499  0.0485
 2023TIP3    H127560   2.375   1.298  15.060 -1.5650  0.4576  2.0154
 2023TIP3    H227561   2.359   1.420  14.972 -1.9891  0.2981  1.8727
 2024TIP3   OH227562   3.539   1.780  13.587  0.0602 -0.8957 -0.5679
 2024TIP3    H127563   3.603   1.846  13.613  1.3417 -0.8758 -3.3036
 2024TIP3    H227564   3.455   1.812  13.620  1.2308 -0.2117  1.9620
 2025TIP3   OH227565   2.142   3.668   5.295  0.3994  0.5405  0.0294
 2025TIP3    H127566   2.164   3.666   5.388  0.9552  0.5797 -0.0977
 2025TIP3    H227567   2.095   3.586   5.279 -0.0936  0.7421  0.4373
 2026TIP3   OH227568   6.800   3.251   3.990  0.8815 -0.0624 -0.1732
 2026TIP3    H127569   6.890   3.242   3.959  1.0864  0.7131  0.1668
 2026TIP3    H227570   6.809   3.290   4.078  0.1547  1.9719 -0.9400
 2027TIP3   OH227571   6.690   4.150  15.915  0.6800 -0.3226  0.0766
 2027TIP3    H127572   6.747   4.074  15.900  1.7573  0.2801  0.9723
 2027TIP3    H227573   6.643   4.129  15.996  2.2845  0.6847  1.3136
 2028TIP3   OH227574   2.400   0.548  13.959 -0.0233  0.1408  0.4431
 2028TIP3    H127575   2.464   0.528  13.891  0.4930 -0.0509  0.9706
 2028TIP3    H227576   2.443   0.521  14.041 -1.2170 -1.0762  0.7094
 2029TIP3   OH227577   1.731   0.009  16.703  0.1212  0.4839 -0.4074
 2029TIP3    H127578   1.811  -0.029  16.740 -0.4751 -0.3878  0.0186
 2029TIP3    H227579   1.685   0.044  16.779 -0.5649 -0.2850 -0.4621
 2030TIP3   OH227580   4.512   5.030  12.210  0.0231 -0.4935  0.8218
 2030TIP3    H127581   4.550   5.018  12.123  3.4975 -0.8168  2.2091
 2030TIP3    H227582   4.451   4.957  12.220  0.3794 -1.0698 -0.9170
 2031TIP3   OH227583   2.491   3.364   0.450  0.2731 -0.1793  0.1361
 2031TIP3    H127584   2.504   3.459   0.451 -2.9301  0.4586  3.2670
 2031TIP3    H227585   2.444   3.347   0.368  0.5463  0.9805 -0.2786
 2032TIP3   OH227586   6.855   2.217   3.183 -0.1923 -0.3386 -0.0464
 2032TIP3    H127587   6.929   2.186   3.131  0.8353 -1.5137  2.0381
 2032TIP3    H227588   6.893   2.280   3.244 -1.0505 -0.4235  0.5895
 2033TIP3   OH227589   0.776   6.841   4.500  0.3449  0.0874  0.2152
 2033TIP3    H127590   0.729   6.762   4.527  0.6225 -0.2470 -0.2844
 2033TIP3    H227591   0.711   6.892   4.451  0.0621  0.3409  0.8421
 2034TIP3   OH227592   3.539   0.422  16.956  0.0144  0.3785  0.2020
 2034TIP3    H127593   3.608   0.364  16.923 -0.0401  1.2285 -1.5038
 2034TIP3    H227594   3.574   0.511  16.942 -1.1273  0.8060 -0.0503
 2035TIP3   OH227595   4.825   6.021   0.842 -0.2136  0.8393 -0.2306
 2035TIP3    H127596   4.864   6.097   0.800  1.4327  0.3258  0.2946
 2035TIP3    H227597   4.825   5.954   0.773 -0.3249  0.8907 -0.2804
 2036TIP3   OH227598   2.066   0.807  16.272 -0.8696 -0.0771  0.2413
 2036TIP3    H127599   2.115   0.876  16.227  0.4083 -1.8529 -1.2633
 2036TIP3    H227600   2.073   0.829  16.365 -2.1960  2.8349 -0.2063
 2037TIP3   OH227601   3.503   6.720   3.770 -0.1703 -1.0486 -0.0970
 2037TIP3    H127602   3.479   6.780   3.700  0.2440  0.4758  0.9889
 2037TIP3    H227603   3.580   6.761   3.811 -1.1747 -1.1437  2.0586
 2038TIP3   OH227604   3.850   5.766  13.661  0.1664  0.3815  0.8680
 2038TIP3    H127605   3.859   5.716  13.580  1.4678  1.9550 -0.0054
 2038TIP3    H227606   3.759   5.752  13.687  0.1632 -1.4755  0.0649
 2039TIP3   OH227607   6.196   3.717   4.686 -0.3297  0.2204  0.2023
 2039TIP3    H127608   6.199   3.653   4.757 -0.2424 -0.8201 -0.7091
 2039TIP3    H227609   6.112   3.700   4.641 -1.1502  1.9324  0.9894
 2040TIP3   OH227610   5.539   6.628  11.565 -0.2668  0.0993 -0.6944
 2040TIP3    H127611   5.601   6.565  11.601 -2.3243 -1.2211  0.7282
 2040TIP3    H227612   5.498   6.582  11.491 -0.3689  0.5155 -0.9014
 2041TIP3   OH227613   2.054   4.684   2.567 -0.0308  1.0878  0.0955
 2041TIP3    H127614   1.970   4.639   2.557  0.4704  0.3498 -0.8842
 2041TIP3    H227615   2.066   4.691   2.662 -0.4998 -0.1106  0.2554
 2042TIP3   OH227616   6.025   2.987  11.528 -0.1839  0.2838 -0.5845
 2042TIP3    H127617   6.018   2.965  11.620 -1.0012  2.0973 -0.1721
 2042TIP3    H227618   6.086   3.061  11.525 -2.2062  2.0451 -1.1065
 2043TIP3   OH227619   5.937   3.626   1.342  0.0365 -0.1898 -0.0213
 2043TIP3    H127620   5.847   3.605   1.368  0.2905  0.2365  1.2175
 2043TIP3    H227621   5.991   3.589   1.411  1.0579 -2.8700 -2.0479
 2044TIP3   OH227622   4.016   0.657  12.903  0.1240 -0.1788 -0.0928
 2044TIP3    H127623   4.009   0.626  12.993  2.4230 -0.6710 -0.0090
 2044TIP3    H227624   3.977   0.745  12.905 -0.3298 -0.3877  1.2484
 2045TIP3   OH227625   0.463   4.524   5.677 -0.1452 -0.8074 -0.4767
 2045TIP3    H127626   0.444   4.472   5.599 -0.6720 -2.7613  0.8947
 2045TIP3    H227627   0.377   4.537   5.718  0.2696 -0.9019  0.4397
 2046TIP3   OH227628   6.767   1.659   5.123 -0.0377 -0.4056 -0.4316
 2046TIP3    H127629   6.772   1.564   5.112 -1.5025 -0.4069 -1.2401
 2046TIP3    H227630   6.724   1.670   5.208 -1.1906 -0.4976 -0.9846
 2047TIP3   OH227631   5.116   6.227  16.623  0.0803  0.2430 -0.1904
 2047TIP3    H127632   5.034   6.197  16.584 -0.1542  0.5375  0.0706
 2047TIP3    H227633   5.183   6.205  16.558  0.0480 -1.6983  0.3834
 2048TIP3   OH227634   2.860   1.937  16.278 -0.0245 -0.3620  0.3993
 2048TIP3    H127635   2.768   1.965  16.273 -0.5799 -1.8282  1.5916
 2048TIP3    H227636   2.865   1.888  16.360  1.6763 -0.8909  0.0108
 2049TIP3   OH227637   6.416   2.435   1.590  0.5188 -0.0042 -0.2008
 2049TIP3    H127638   6.347   2.381   1.550  0.2352  0.7156 -0.6981
 2049TIP3    H227639   6.450   2.487   1.517  1.5019 -0.2506  0.0699
 2050TIP3   OH227640   4.371   0.321  16.064 -0.0386  0.1069  0.2829
 2050TIP3    H127641   4.280   0.293  16.068 -0.1052  0.3234  0.2627
 2050TIP3    H227642   4.377   0.374  15.984 -0.3335  1.6546  1.2406
 2051TIP3   OH227643   3.804   6.589  14.199 -0.3943  0.6518  0.8538
 2051TIP3    H127644   3.712   6.566  14.185 -0.0403 -0.8018  0.7973
 2051TIP3    H227645   3.843   6.511  14.238  1.6652 -0.2502 -2.5337
 2052TIP3   OH227646   0.594   1.761  14.113  0.2206  0.4826 -0.9538
 2052TIP3    H127647   0.502   1.780  14.133  0.2800  0.4523 -0.6462
 2052TIP3    H227648   0.592   1.728  14.023 -0.0893  0.3161 -0.8886
 2053TIP3   OH227649   5.388   1.573   0.756  0.4871  0.0001  0.0128
 2053TIP3    H127650   5.479   1.567   0.727  0.3319  0.3883 -0.5898
 2053TIP3    H227651   5.379   1.506   0.823  1.2414  0.0213  0.1454
 2054TIP3   OH227652   3.292   0.286  14.257 -0.1186  0.4417 -0.3340
 2054TIP3    H127653   3.361   0.298  14.192  0.1650  2.0507  0.1908
 2054TIP3    H227654   3.291   0.192  14.275  1.9550  0.3549 -0.3576
 2055TIP3   OH227655   5.230   4.302   1.652 -0.1079  0.4539  0.5020
 2055TIP3    H127656   5.206   4.314   1.560  1.8621 -0.6441 -0.2102
 2055TIP3    H227657   5.166   4.239   1.685  0.4928 -0.8717 -0.7653
 2056TIP3   OH227658   6.712   4.864   1.514 -0.9176 -0.0570 -0.5924
 2056TIP3    H127659   6.739   4.902   1.430 -2.7814  3.2348  0.1397
 2056TIP3    H227660   6.640   4.805   1.491  0.4693 -1.4773 -1.5255
 2057TIP3   OH227661   1.185   4.462   5.071  0.3980  0.2477  0.1028
 2057TIP3    H127662   1.244   4.389   5.055  1.5996  0.8700  1.4604
 2057TIP3    H227663   1.213   4.498   5.155 -1.3687  1.1205  0.3783
 2058TIP3   OH227664   1.187   3.519  14.660 -0.0999  0.0730  0.2049
 2058TIP3    H127665   1.265   3.541  14.710  0.3456  0.8879 -0.8143
 2058TIP3    H227666   1.135   3.599  14.658 -0.8961 -0.4111  0.7233
 2059TIP3   OH227667   2.671   0.003  15.334 -0.0359  0.4183  0.3422
 2059TIP3    H127668   2.577  -0.013  15.337 -0.0461 -0.2421 -1.5903
 2059TIP3    H227669   2.682   0.066  15.262  0.8834  1.7982  1.6245
 2060TIP3   OH227670   0.721   3.880   6.250  0.4578  0.0327  0.3570
 2060TIP3    H127671   0.725   3.973   6.229 -0.5759  0.0856  0.3534
 2060TIP3    H227672   0.812   3.854   6.261  0.7601  1.0229  0.2708
 2061TIP3   OH227673   0.480   0.672  11.371 -0.0733  0.4913 -0.1871
 2061TIP3    H127674   0.467   0.660  11.465 -1.8056 -0.5644 -0.5107
 2061TIP3    H227675   0.567   0.636  11.354 -0.3609 -0.7693  0.8013
 2062TIP3   OH227676   2.811   1.675  11.366  0.4237  0.3286 -0.7103
 2062TIP3    H127677   2.890   1.684  11.312  0.1118 -1.9608 -1.6634
 2062TIP3    H227678   2.795   1.580  11.370 -0.3941  0.4854  2.2645
 2063TIP3   OH227679   0.986   0.525   4.664  0.1440 -0.9464  0.3729
 2063TIP3    H127680   1.044   0.491   4.596 -1.8093 -1.9610 -0.8900
 2063TIP3    H227681   0.898   0.509   4.631 -0.8943  0.6035  2.1649
 2064TIP3   OH227682   3.589   4.523  11.660  0.0207 -0.1110 -0.1897
 2064TIP3    H127683   3.651   4.565  11.601  0.9694 -1.1277  0.0590
 2064TIP3    H227684   3.545   4.596  11.704 -0.8417  0.6992 -2.2249
 2065TIP3   OH227685   0.321   4.222  16.383 -0.2620  0.1482  0.3530
 2065TIP3    H127686   0.344   4.249  16.472  1.6047  0.8487 -0.2800
 2065TIP3    H227687   0.300   4.303  16.338  0.8950  0.0754 -0.3698
 2066TIP3   OH227688   5.756   2.533   1.912  0.7537  0.0951 -0.2797
 2066TIP3    H127689   5.833   2.480   1.888 -1.1849 -2.5885 -1.0734
 2066TIP3    H227690   5.732   2.502   1.999 -0.2516 -0.1453 -0.6316
 2067TIP3   OH227691   4.196   6.230   2.710 -0.1638 -0.1012 -0.6725
 2067TIP3    H127692   4.131   6.205   2.775  0.4780 -1.4988 -0.5197
 2067TIP3    H227693   4.258   6.157   2.709  0.6940  0.6038 -1.7341
 2068TIP3   OH227694   5.062   1.752   3.607 -0.0637 -0.0933 -0.0640
 2068TIP3    H127695   4.967   1.758   3.601  0.0669  3.2731 -0.7499
 2068TIP3    H227696   5.092   1.741   3.517  0.2388 -1.0654  0.1412
 2069TIP3   OH227697   0.795   0.925  12.777 -0.4306  0.2443  0.1157
 2069TIP3    H127698   0.747   0.892  12.701  1.2655  0.7482 -1.2298
 2069TIP3    H227699   0.881   0.949  12.743  0.4411  0.3444  2.2454
 2070TIP3   OH227700   5.901   0.946  12.498 -0.1177  0.2193 -0.0767
 2070TIP3    H127701   5.990   0.958  12.531 -0.0294 -0.3002 -0.1102
 2070TIP3    H227702   5.904   0.863  12.451 -0.3012  0.8275 -1.2095
 2071TIP3   OH227703   2.349   2.730   0.386  0.4645  0.1026 -0.1506
 2071TIP3    H127704   2.287   2.710   0.456  0.5029  2.8029  0.7553
 2071TIP3    H227705   2.298   2.719   0.305 -0.1662 -1.0773  0.3903
 2072TIP3   OH227706   5.880   3.430  12.585 -0.2410 -0.6299  0.0590
 2072TIP3    H127707   5.960   3.402  12.540 -0.8348 -0.8206 -0.8813
 2072TIP3    H227708   5.895   3.522  12.606  0.6869 -0.9468  0.9259
 2073TIP3   OH227709   6.485   1.138   6.045 -0.2566 -0.2737 -0.0681
 2073TIP3    H127710   6.491   1.057   6.096 -0.6057  0.7699  1.7032
 2073TIP3    H227711   6.392   1.159   6.044 -0.3340 -0.5848 -1.6901
 2074TIP3   OH227712   3.046   0.181  15.295  0.0387  0.1989  0.6563
 2074TIP3    H127713   3.069   0.190  15.388 -0.0077  1.8087  0.5402
 2074TIP3    H227714   2.958   0.218  15.289 -0.1559 -0.3521  0.0425
 2075TIP3   OH227715   0.411   3.259  10.850 -0.6552  0.6356 -0.4455
 2075TIP3    H127716   0.495   3.297  10.876 -1.2580  1.4661  0.3426
 2075TIP3    H227717   0.422   3.238  10.757 -0.0749  2.1452 -0.7386
 2076TIP3   OH227718   1.533   0.538  11.164  0.5194  0.3075  0.3864
 2076TIP3    H127719   1.525   0.615  11.108  2.4013  1.3658  1.4416
 2076TIP3    H227720   1.627   0.519  11.165  0.4000 -0.4203  2.1732
 2077TIP3   OH227721   3.831   1.588  12.657 -0.1319  0.2044 -0.1815
 2077TIP3    H127722   3.818   1.496  12.681  1.0849  0.2301  0.7112
 2077TIP3    H227723   3.808   1.636  12.737  1.0539  0.5239 -0.0194
 2078TIP3   OH227724   1.428   6.736  14.386  0.4899  0.2269  0.2258
 2078TIP3    H127725   1.508   6.739  14.437 -0.0073  0.7228  0.9969
 2078TIP3    H227726   1.456   6.752  14.296  0.9108  4.2124  0.8847
 2079TIP3   OH227727   0.254   6.012   2.721  0.2648 -0.2118 -0.5876
 2079TIP3    H127728   0.208   5.928   2.730 -0.1658 -0.0186 -0.9560
 2079TIP3    H227729   0.344   5.993   2.748 -0.1918 -0.4305  0.8412
 2080TIP3   OH227730   0.114   0.229  13.283 -0.4546 -0.5161 -0.6237
 2080TIP3    H127731   0.192   0.195  13.241  0.9878  2.7899 -0.8596
 2080TIP3    H227732   0.130   0.216  13.377  0.9742  1.1542 -0.5945
 2081TIP3   OH227733   5.709   1.350  11.533 -0.3581  0.3957  0.1212
 2081TIP3    H127734   5.656   1.430  11.526 -0.3587  0.3928  0.0909
 2081TIP3    H227735   5.707   1.313  11.445 -1.6768 -0.4859  0.4963
 2082TIP3   OH227736   4.668   4.397  14.775  0.0380 -0.6382 -0.1224
 2082TIP3    H127737   4.646   4.440  14.693  1.1400 -0.8771 -0.5579
 2082TIP3    H227738   4.646   4.305  14.761  0.7977 -0.7912 -0.3886
 2083TIP3   OH227739   5.299   1.862  12.622  0.0262  0.2006  0.3594
 2083TIP3    H127740   5.384   1.893  12.589  0.0149 -0.1186  0.0184
 2083TIP3    H227741   5.240   1.873  12.548  0.1877 -1.3348 -0.0430
 2084TIP3   OH227742   4.433   2.368  12.645 -0.1605 -0.1794 -0.2222
 2084TIP3    H127743   4.501   2.348  12.581  0.5296 -0.5845  0.6094
 2084TIP3    H227744   4.401   2.455  12.620 -0.7341 -0.8247 -1.7915
 2085TIP3   OH227745   3.379   4.638   2.765 -0.1010  0.2340  0.3427
 2085TIP3    H127746   3.428   4.712   2.801 -1.6225  1.2302  0.4591
 2085TIP3    H227747   3.422   4.618   2.682  1.5648 -0.0996  1.2417
 2086TIP3   OH227748   0.290   6.597  11.449  0.1788  0.2661  0.1986
 2086TIP3    H127749   0.200   6.563  11.448  0.1800  0.2618 -0.6939
 2086TIP3    H227750   0.281   6.687  11.419  0.5844 -0.0667 -0.9888
 2087TIP3   OH227751   6.283   3.211   4.700 -0.2919 -0.1246  0.1257
 2087TIP3    H127752   6.341   3.285   4.718 -2.3681  1.7353 -0.3642
 2087TIP3    H227753   6.216   3.215   4.768  0.3692 -2.5744  1.0338
 2088TIP3   OH227754   5.781   1.018  13.193 -0.4203 -1.0628 -0.1409
 2088TIP3    H127755   5.757   1.031  13.285 -1.2595  0.0135 -0.4862
 2088TIP3    H227756   5.871   0.985  13.196  0.6591  1.6678  1.0237
 2089TIP3   OH227757   4.182   4.408  15.062 -0.6153  0.5875 -0.4758
 2089TIP3    H127758   4.165   4.501  15.047 -1.1903  0.5140 -0.2864
 2089TIP3    H227759   4.172   4.397  15.157 -1.8025  0.0834 -0.6532
 2090TIP3   OH227760   6.271   4.989  11.373 -0.0941 -0.6368 -0.2801
 2090TIP3    H127761   6.287   4.916  11.313 -0.9846 -0.5603 -0.6324
 2090TIP3    H227762   6.280   5.067  11.317  1.7606 -0.4016  0.2872
 2091TIP3   OH227763   3.574   2.545   6.312 -0.3305 -0.8850  0.1446
 2091TIP3    H127764   3.652   2.522   6.262 -0.6811 -0.6206 -0.5380
 2091TIP3    H227765   3.559   2.637   6.292 -0.5962 -0.8311  0.5796
 2092TIP3   OH227766   5.016   3.035  12.941 -0.6995 -0.3171 -0.1926
 2092TIP3    H127767   5.081   2.970  12.916  0.5483  1.6114 -2.1859
 2092TIP3    H227768   4.933   2.986  12.940  0.3760 -2.2930  0.2834
 2093TIP3   OH227769   6.343   6.290  12.543  0.1412  0.7935  0.4160
 2093TIP3    H127770   6.374   6.199  12.544  1.3281  1.1873  0.8461
 2093TIP3    H227771   6.376   6.326  12.460 -0.2046  0.8800  0.3127
 2094TIP3   OH227772   5.792   2.715  16.224 -0.1350 -0.4023  0.4150
 2094TIP3    H127773   5.796   2.620  16.220  0.5141 -0.4334  1.4199
 2094TIP3    H227774   5.821   2.737  16.313 -0.0135  0.7505  0.1127
 2095TIP3   OH227775   6.532   6.043   0.584  0.8744 -0.0077 -0.0243
 2095TIP3    H127776   6.570   6.022   0.498  1.9153  1.7712 -0.0428
 2095TIP3    H227777   6.577   6.123   0.612 -0.1329 -0.0022  1.7567
 2096TIP3   OH227778   5.314   1.382   4.128  0.8048 -0.5710 -0.6536
 2096TIP3    H127779   5.246   1.449   4.127  0.9293 -0.3743 -2.9982
 2096TIP3    H227780   5.396   1.430   4.120  1.1776 -0.8636  1.1123
 2097TIP3   OH227781   0.104   6.450   1.496  0.5784  0.0926 -0.1504
 2097TIP3    H127782   0.195   6.468   1.474  0.7406 -0.4522  0.0534
 2097TIP3    H227783   0.060   6.444   1.411  0.4071  1.9044 -0.2162
 2098TIP3   OH227784   5.618   3.983  12.181 -0.4049 -0.2763 -0.3685
 2098TIP3    H127785   5.535   4.008  12.142  0.0499 -0.5270 -1.5533
 2098TIP3    H227786   5.683   4.041  12.139  0.1920 -1.0525 -0.5537
 2099TIP3   OH227787   1.755   5.369   4.305 -0.1710 -0.3363 -0.6013
 2099TIP3    H127788   1.741   5.364   4.211  2.5526  0.4194 -1.1335
 2099TIP3    H227789   1.778   5.280   4.331 -1.3379 -0.6365 -0.5206
 2100TIP3   OH227790   6.768   2.662  14.389  0.6202  0.3479 -0.0443
 2100TIP3    H127791   6.687   2.620  14.358  0.6011  0.9705 -0.8822
 2100TIP3    H227792   6.764   2.655  14.484 -0.6397  0.7289 -0.0447
 2101TIP3   OH227793   5.267   0.883   5.180  0.2232 -0.7803 -0.3620
 2101TIP3    H127794   5.349   0.873   5.228  0.0126  1.7524  0.6621
 2101TIP3    H227795   5.249   0.795   5.145  2.7167 -1.6727  0.3740
 2102TIP3   OH227796   5.543   1.958  12.531  0.5281  0.3841 -0.0214
 2102TIP3    H127797   5.635   1.987  12.528  0.3039  1.0477 -0.7341
 2102TIP3    H227798   5.542   1.879  12.477  0.7355  0.2106  0.2249
 2103TIP3   OH227799   4.949   2.901   5.795  0.6705  0.2759  0.1350
 2103TIP3    H127800   5.032   2.862   5.822 -0.0486 -1.5134 -0.1447
 2103TIP3    H227801   4.890   2.885   5.869 -0.1615 -0.9466 -0.7639
 2104TIP3   OH227802   5.346   4.771  14.870 -0.3800  0.6799  0.1127
 2104TIP3    H127803   5.419   4.832  14.868  0.1865  0.0083  0.0648
 2104TIP3    H227804   5.324   4.763  14.963 -1.0217  1.6101  0.0510
 2105TIP3   OH227805   1.364   0.704   5.827 -0.7323  0.1986 -0.2049
 2105TIP3    H127806   1.437   0.730   5.883 -3.1030  1.4764  2.5328
 2105TIP3    H227807   1.361   0.608   5.834  1.0517  0.0437 -0.9864
 2106TIP3   OH227808   2.074   1.488   5.730 -0.4842 -0.3204 -0.0125
 2106TIP3    H127809   1.985   1.491   5.765 -1.0431 -1.7189 -1.1613
 2106TIP3    H227810   2.088   1.395   5.712 -0.3223  0.2405 -3.4777
 2107TIP3   OH227811   0.323   5.490   0.168  0.0793  0.0152 -0.7843
 2107TIP3    H127812   0.293   5.581   0.175  1.1270  0.3912 -0.9087
 2107TIP3    H227813   0.345   5.465   0.258 -1.3207 -0.5325 -0.5744
 2108TIP3   OH227814   5.010   3.840   0.024  0.1154 -0.6216 -0.4640
 2108TIP3    H127815   4.960   3.829  -0.057 -0.2622 -1.6007 -0.1182
 2108TIP3    H227816   5.101   3.848  -0.006  0.2202 -2.8159 -0.9456
 2109TIP3   OH227817   2.501   0.738   3.128 -0.2595 -0.2546 -0.3572
 2109TIP3    H127818   2.444   0.678   3.079 -0.8235 -0.5810  0.6559
 2109TIP3    H227819   2.458   0.823   3.121  0.8857  0.2274 -2.3546
 2110TIP3   OH227820   2.024   0.332  12.865  0.5735 -0.5805  0.1106
 2110TIP3    H127821   2.030   0.258  12.803  1.3328 -1.5985  1.3593
 2110TIP3    H227822   2.094   0.316  12.928  1.3845  1.7638 -0.1243
 2111TIP3   OH227823   5.168   3.793   3.112  0.0237  0.3975  0.0031
 2111TIP3    H127824   5.104   3.784   3.040 -0.3183 -1.8028  0.5210
 2111TIP3    H227825   5.193   3.703   3.133  2.6937  1.1610  0.3992
 2112TIP3   OH227826   2.716   3.798  13.222 -0.5251 -0.0236  0.4643
 2112TIP3    H127827   2.735   3.709  13.192  1.6739  0.9462 -1.3834
 2112TIP3    H227828   2.794   3.824  13.271 -0.9836  0.9737  0.6808
 2113TIP3   OH227829   6.243   0.308  14.363 -0.0973  0.8902 -0.7788
 2113TIP3    H127830   6.226   0.216  14.343 -0.8670  1.1215 -1.2183
 2113TIP3    H227831   6.168   0.335  14.414  0.6944  0.9694  0.3702
 2114TIP3   OH227832   5.708   2.499   0.254 -0.3557  0.5595 -0.1253
 2114TIP3    H127833   5.750   2.457   0.179  0.7837  0.9523  0.2793
 2114TIP3    H227834   5.772   2.563   0.286 -1.5893  1.7973 -0.0080
 2115TIP3   OH227835   5.250   0.696   3.074 -0.0099 -0.2708 -0.2526
 2115TIP3    H127836   5.323   0.744   3.114 -2.1312  1.5557  1.7786
 2115TIP3    H227837   5.257   0.608   3.110  1.4856 -0.3184 -0.5746
 2116TIP3   OH227838   3.597   4.169  16.942 -0.1832 -0.0836 -0.1676
 2116TIP3    H127839   3.516   4.138  16.983  0.8571  1.0868  3.0218
 2116TIP3    H227840   3.664   4.108  16.971  0.9610  2.0019  1.8580
 2117TIP3   OH227841   0.759   1.631  16.444  0.2026 -0.0808  0.5255
 2117TIP3    H127842   0.714   1.667  16.520  0.9000 -0.7165  1.2561
 2117TIP3    H227843   0.836   1.686  16.433 -0.4528  0.6807 -0.3996
 2118TIP3   OH227844   1.217   6.846  15.263 -0.3016 -0.6370 -0.2255
 2118TIP3    H127845   1.194   6.803  15.181  0.3809  0.7525 -1.1947
 2118TIP3    H227846   1.206   6.940  15.245  0.2568 -0.2857  1.1329
 2119TIP3   OH227847   1.265   6.640   3.549  0.6815 -0.2608 -0.4746
 2119TIP3    H127848   1.338   6.689   3.587  0.5588 -0.7854  0.4472
 2119TIP3    H227849   1.245   6.687   3.468  0.7706  1.0526  0.2267
 2120TIP3   OH227850   2.552   3.644   4.770  0.1149 -0.0473 -0.4360
 2120TIP3    H127851   2.520   3.679   4.853  1.6350  0.5960 -0.0959
 2120TIP3    H227852   2.476   3.601   4.731 -0.6847 -0.1392  1.1644
 2121TIP3   OH227853   3.396   3.099   1.487  0.2127 -0.4058 -0.2083
 2121TIP3    H127854   3.426   3.155   1.559  0.0773 -0.7981  0.1629
 2121TIP3    H227855   3.374   3.159   1.416 -1.2118  0.1212  0.6387
 2122TIP3   OH227856   4.882   0.578  11.179 -0.0096  0.1160  0.0970
 2122TIP3    H127857   4.794   0.542  11.193 -1.0142  2.9103  1.7739
 2122TIP3    H227858   4.939   0.521  11.231 -1.3651  0.2826  1.8620
 2123TIP3   OH227859   3.001   5.210  16.719 -0.1979 -0.5269 -0.7211
 2123TIP3    H127860   2.925   5.218  16.662 -0.0597 -0.0504 -0.8442
 2123TIP3    H227861   2.964   5.195  16.806 -0.3904 -2.1528 -1.0555
 2124TIP3   OH227862   0.787   2.674  10.613  0.2226 -0.2725 -0.3175
 2124TIP3    H127863   0.869   2.723  10.615  1.7315 -2.6343 -0.3507
 2124TIP3    H227864   0.758   2.673  10.704 -0.6590  1.8617 -0.5194
 2125TIP3   OH227865   0.940   2.346  12.125 -0.1625  0.0581  0.2170
 2125TIP3    H127866   0.884   2.270  12.140 -1.5082  0.4781 -2.1365
 2125TIP3    H227867   0.890   2.402  12.065  0.8051  2.8144  1.7692
 2126TIP3   OH227868   5.601   4.732   0.914 -0.3672 -0.2531  0.1962
 2126TIP3    H127869   5.542   4.805   0.930  0.1482  0.8878 -2.6211
 2126TIP3    H227870   5.555   4.676   0.853  0.7099 -0.2966 -0.6069
 2127TIP3   OH227871   4.184   2.745  15.566  0.1292 -0.3827  0.1936
 2127TIP3    H127872   4.259   2.697  15.531  0.1897  0.3922 -0.7697
 2127TIP3    H227873   4.169   2.815  15.504 -1.0893 -0.2209  0.6412
 2128TIP3   OH227874   1.160   6.314   1.459 -0.1104  0.0184  0.4710
 2128TIP3    H127875   1.177   6.361   1.541 -0.8868 -1.1368  1.3228
 2128TIP3    H227876   1.243   6.271   1.438 -0.3369 -0.9906  1.5417
 2129TIP3   OH227877   1.046   0.069   3.796 -0.1778  0.1665  0.2449
 2129TIP3    H127878   1.061   0.042   3.887  1.3808  1.6511  0.4764
 2129TIP3    H227879   0.961   0.111   3.797 -0.6408 -0.7501  0.7869
 2130TIP3   OH227880   3.698   1.890   2.767 -0.2518  0.6961 -0.2689
 2130TIP3    H127881   3.662   1.979   2.770 -0.5350  0.5845 -0.3528
 2130TIP3    H227882   3.674   1.858   2.680 -0.8143  0.2592  0.0460
 2131TIP3   OH227883   6.374   3.612   1.341 -0.0126 -0.0498 -0.3222
 2131TIP3    H127884   6.313   3.618   1.267  1.1896 -0.8911 -1.4407
 2131TIP3    H227885   6.391   3.703   1.366 -2.0472  0.1960  0.3343
 2132TIP3   OH227886   0.189   5.669  10.456  0.2846  0.0176  0.2213
 2132TIP3    H127887   0.220   5.626  10.536 -0.1884 -1.9104 -0.5637
 2132TIP3    H227888   0.259   5.653  10.392  0.3079  0.8548  0.0314
 2133TIP3   OH227889   2.497   5.738   6.606  0.4924 -0.1039 -0.6683
 2133TIP3    H127890   2.466   5.701   6.523 -1.0912 -1.3719  0.4501
 2133TIP3    H227891   2.530   5.663   6.655 -0.6294  0.2721  0.7160
 2134TIP3   OH227892   1.376   6.121   1.482  0.3461  0.5755  0.0543
 2134TIP3    H127893   1.436   6.193   1.505  0.1726 -0.2579  3.8290
 2134TIP3    H227894   1.384   6.060   1.555 -1.9144 -1.7136 -1.4577
 2135TIP3   OH227895   1.163   3.921   5.723  0.0872  0.1200  0.3683
 2135TIP3    H127896   1.200   3.833   5.722  0.0684  0.0968 -1.5190
 2135TIP3    H227897   1.102   3.922   5.649  1.7475  2.3792 -1.0759
 2136TIP3   OH227898   4.853   2.369   1.399 -0.3528  0.3450  0.4916
 2136TIP3    H127899   4.771   2.378   1.449 -1.4579  1.2506 -1.3908
 2136TIP3    H227900   4.888   2.458   1.395 -0.3037  0.2901 -0.3591
 2137TIP3   OH227901   3.372   1.154  12.667 -0.0218  0.1497  0.2007
 2137TIP3    H127902   3.276   1.152  12.668 -0.0497  0.9294  1.1139
 2137TIP3    H227903   3.393   1.247  12.679  0.8460 -0.0466  0.2432
 2138TIP3   OH227904   2.189   1.270  15.342 -0.1408  0.8344  0.6947
 2138TIP3    H127905   2.217   1.246  15.254 -0.7447  0.2539  0.6486
 2138TIP3    H227906   2.245   1.344  15.366  0.4021  0.6462  0.0446
 2139TIP3   OH227907   1.965   0.799  15.507 -0.6993 -0.3451  0.1223
 2139TIP3    H127908   1.979   0.815  15.413 -2.2387 -0.5867 -0.1648
 2139TIP3    H227909   1.872   0.815  15.521 -0.4200  0.0349  1.7027
 2140TIP3   OH227910   5.124   5.676   4.117 -0.0224  0.1660 -0.6509
 2140TIP3    H127911   5.120   5.740   4.188  1.6819 -0.1131 -0.2581
 2140TIP3    H227912   5.113   5.728   4.037 -1.8603  0.4934 -0.2255
 2141TIP3   OH227913   5.020   6.068  11.355  0.1139  0.1118 -0.0624
 2141TIP3    H127914   5.063   5.982  11.356 -0.1127 -0.0989 -2.5978
 2141TIP3    H227915   4.929   6.049  11.378  0.0950 -0.3150 -0.4726
 2142TIP3   OH227916   5.519   0.859  15.459  0.0219  0.0392 -0.1032
 2142TIP3    H127917   5.440   0.806  15.447  0.0885  0.1435 -1.1810
 2142TIP3    H227918   5.589   0.795  15.469 -0.0481 -0.0727 -0.3047
 2143TIP3   OH227919   4.615   1.113  12.342 -0.3301 -0.1792 -0.6374
 2143TIP3    H127920   4.558   1.094  12.267 -0.2984  0.1349 -0.7452
 2143TIP3    H227921   4.574   1.189  12.384 -0.6348 -0.6763 -0.0287
 2144TIP3   OH227922   2.000   4.265  14.608  0.1022 -0.2817  0.3847
 2144TIP3    H127923   1.933   4.324  14.574  2.0462  1.4124 -0.7559
 2144TIP3    H227924   2.029   4.304  14.690  0.7234 -0.1400  0.1111
 2145TIP3   OH227925   5.259   1.786  11.839  0.0437  0.4774 -0.0009
 2145TIP3    H127926   5.286   1.877  11.847 -0.9763  0.7078  1.1707
 2145TIP3    H227927   5.333   1.736  11.873  0.1841  0.9267  0.3649
 2146TIP3   OH227928   5.329   3.455  16.500 -0.5435 -0.0201  0.8097
 2146TIP3    H127929   5.337   3.530  16.441  3.7150 -0.8859 -0.0103
 2146TIP3    H227930   5.346   3.492  16.587  0.9746  0.1457  0.4764
 2147TIP3   OH227931   5.432   4.768  12.713 -0.0717 -0.9980 -0.0858
 2147TIP3    H127932   5.471   4.764  12.626  1.9086  1.2975  0.5820
 2147TIP3    H227933   5.497   4.727  12.770  0.6465  1.2290  0.8098
 2148TIP3   OH227934   5.656   2.966   5.897 -0.1029 -0.0565 -0.0346
 2148TIP3    H127935   5.667   3.014   5.815 -0.2671 -0.4895 -0.3179
 2148TIP3    H227936   5.588   2.901   5.878  0.1570 -0.4411  0.3143
 2149TIP3   OH227937   4.589   6.642   0.897  0.3977  0.6316  0.5702
 2149TIP3    H127938   4.564   6.571   0.957  1.4394 -0.5443 -0.3189
 2149TIP3    H227939   4.563   6.610   0.810 -1.0308  2.2744  0.3338
 2150TIP3   OH227940   0.562   6.110   1.701 -0.0593  0.2085  0.6013
 2150TIP3    H127941   0.545   6.199   1.672 -1.6413  0.0733  1.0079
 2150TIP3    H227942   0.532   6.055   1.629 -0.0408 -0.0133  0.7616
 2151TIP3   OH227943   3.994   5.595   0.907  0.3535 -0.4457 -0.5886
 2151TIP3    H127944   4.000   5.549   0.823  0.9642 -0.9504 -0.2728
 2151TIP3    H227945   4.078   5.639   0.916 -0.1237  0.5362 -0.7579
 2152TIP3   OH227946   0.183   6.738  12.038 -0.3714  0.4656 -0.4455
 2152TIP3    H127947   0.126   6.663  12.056 -0.6048  0.3490 -1.5778
 2152TIP3    H227948   0.215   6.722  11.949  0.0461  1.4085 -0.4684
 2153TIP3   OH227949   5.526   4.174   1.411  0.4989 -0.0851  0.2691
 2153TIP3    H127950   5.528   4.131   1.497 -1.4346  0.5412  0.6786
 2153TIP3    H227951   5.486   4.111   1.353  0.0740  0.1879  0.2645
 2154TIP3   OH227952   0.898   5.655  14.275  0.3588 -0.2052  0.0873
 2154TIP3    H127953   0.947   5.704  14.209  1.7501 -0.8282  0.6287
 2154TIP3    H227954   0.890   5.566  14.239 -0.4688 -0.0976 -0.0291
 2155TIP3   OH227955   0.370   1.647   4.138 -0.3491 -0.2316  0.0364
 2155TIP3    H127956   0.381   1.705   4.063  0.1404 -0.6163 -0.1946
 2155TIP3    H227957   0.456   1.607   4.150 -0.2761  0.2320  1.1378
 2156TIP3   OH227958   1.369   2.004  16.686  0.3182  0.5259 -0.1801
 2156TIP3    H127959   1.338   2.064  16.619 -1.5255 -0.0502  0.0902
 2156TIP3    H227960   1.448   1.965  16.650 -0.2177  0.7921 -1.6914
 2157TIP3   OH227961   1.345   6.483  14.893  0.4352  0.1798  0.4194
 2157TIP3    H127962   1.349   6.427  14.815  3.2862 -0.2397  0.7567
 2157TIP3    H227963   1.300   6.562  14.864  2.2969  0.4675 -2.0222
 2158TIP3   OH227964   2.349   0.032   5.739 -0.0949 -0.2139  0.4981
 2158TIP3    H127965   2.396   0.073   5.667 -1.9819  0.2092 -0.5547
 2158TIP3    H227966   2.363   0.091   5.813  1.2039 -0.2382  0.2901
 2159TIP3   OH227967   5.570   2.294  16.599 -0.5144 -0.2182  0.1507
 2159TIP3    H127968   5.555   2.294  16.693  0.2431  1.2263  0.3060
 2159TIP3    H227969   5.499   2.242  16.563 -1.5417  0.2541  1.4172
 2160TIP3   OH227970   3.183   1.740   5.232  0.0272 -0.1644  0.4505
 2160TIP3    H127971   3.151   1.789   5.307  0.4527  0.7224  0.0632
 2160TIP3    H227972   3.217   1.806   5.172 -0.2860 -0.8602 -0.5189
 2161TIP3   OH227973   0.226   6.810   1.391  0.2485  0.6100  0.1963
 2161TIP3    H127974   0.228   6.784   1.483 -0.8027  0.4860  0.2036
 2161TIP3    H227975   0.243   6.904   1.392 -0.8573  0.8238  0.6364
 2162TIP3   OH227976   5.476   3.098  14.002  0.4218  0.0242  0.0295
 2162TIP3    H127977   5.426   3.136  14.075  0.8005  1.9050 -0.6327
 2162TIP3    H227978   5.554   3.153  13.997  0.4677 -0.1632 -1.6922
 2163TIP3   OH227979   5.463   0.533  11.309 -0.8621  0.2664 -0.3739
 2163TIP3    H127980   5.443   0.441  11.322  0.3529  0.0268 -0.0392
 2163TIP3    H227981   5.441   0.551  11.218 -0.6057 -0.4942 -0.5881
 2164TIP3   OH227982   6.307   6.785   2.246 -0.0648 -0.6376 -0.1388
 2164TIP3    H127983   6.223   6.758   2.208 -1.2494  0.0403  1.8440
 2164TIP3    H227984   6.349   6.836   2.177 -1.7281 -0.1477 -0.8495
 2165TIP3   OH227985   2.375   1.182  14.194  0.4813 -0.3502  0.4906
 2165TIP3    H127986   2.436   1.121  14.236  2.0300  0.9131  0.1805
 2165TIP3    H227987   2.302   1.189  14.256  1.9190  0.1697  2.2128
 2166TIP3   OH227988   5.091   6.373  15.094 -0.3740  0.0988  0.3997
 2166TIP3    H127989   5.019   6.385  15.156  0.1177  0.1809  0.9685
 2166TIP3    H227990   5.053   6.393  15.009 -0.8967  0.6302  0.7503
 2167TIP3   OH227991   0.190   2.346   1.208  0.3044  0.4523  0.5932
 2167TIP3    H127992   0.186   2.440   1.193  0.0371  0.5467  1.2179
 2167TIP3    H227993   0.099   2.317   1.204  0.3509  0.2810  0.7621
 2168TIP3   OH227994   3.426   4.594   3.471  0.5903 -0.1115 -0.1917
 2168TIP3    H127995   3.412   4.650   3.547  3.7222 -1.2754  1.4204
 2168TIP3    H227996   3.476   4.648   3.410  0.8207 -0.1409 -0.0305
 2169TIP3   OH227997   0.217   4.053   4.601  0.2372 -0.7784 -0.1201
 2169TIP3    H127998   0.182   4.130   4.556  1.1157 -0.6479 -0.6006
 2169TIP3    H227999   0.310   4.072   4.612  0.5247 -1.9003 -0.5082
 2170TIP3   OH228000   0.582   1.076  12.901  0.6061  1.1071  0.2358
 2170TIP3    H128001   0.578   1.029  12.985 -1.0849  0.5233 -0.1446
 2170TIP3    H228002   0.630   1.016  12.843  0.4932  0.8686  0.3851
 2171TIP3   OH228003   6.776   6.385  15.497 -0.1220 -0.0416  0.0303
 2171TIP3    H128004   6.867   6.397  15.469 -0.2672  0.1047 -0.3861
 2171TIP3    H228005   6.725   6.442  15.439 -0.4971 -0.2427  0.1558
 2172TIP3   OH228006   0.815   0.564  16.642  0.8998  0.2052 -0.3892
 2172TIP3    H128007   0.854   0.599  16.562  1.8980 -0.7394 -0.3491
 2172TIP3    H228008   0.791   0.641  16.693 -0.2078  0.8255 -1.7883
 2173TIP3   OH228009   6.709   0.406  14.597 -0.0396 -0.0262  0.0072
 2173TIP3    H128010   6.620   0.370  14.600 -0.4884  0.9046 -1.1307
 2173TIP3    H228011   6.742   0.398  14.687 -0.7169 -1.7060  0.1428
 2174TIP3   OH228012   0.464   3.050  15.872 -0.0464  0.0477  0.3895
 2174TIP3    H128013   0.432   2.983  15.933 -2.5643  0.7179 -0.0623
 2174TIP3    H228014   0.507   3.115  15.928 -0.3857 -0.4109  1.2036
 2175TIP3   OH228015   4.695   1.059   3.208 -0.3305 -0.3713 -0.2671
 2175TIP3    H128016   4.656   0.972   3.204 -0.1846 -0.3946 -1.7448
 2175TIP3    H228017   4.706   1.076   3.302 -1.6415 -1.3546  0.0915
 2176TIP3   OH228018   1.521   5.461  14.872  0.7195 -0.1324 -0.0075
 2176TIP3    H128019   1.466   5.532  14.839 -0.1989 -0.3633  0.9841
 2176TIP3    H228020   1.555   5.493  14.955  0.2004 -0.8753  0.5104
 2177TIP3   OH228021   4.055   5.872  16.945  0.0875  0.5902 -0.1336
 2177TIP3    H128022   4.140   5.914  16.958 -0.4519  1.7016 -0.0694
 2177TIP3    H228023   4.032   5.891  16.854 -1.4467  2.9701  0.6487
 2178TIP3   OH228024   3.500   2.167  12.552 -0.2404  0.4375 -0.0523
 2178TIP3    H128025   3.569   2.232  12.560  0.4766 -0.2416 -0.6002
 2178TIP3    H228026   3.532   2.092  12.602 -1.1458  0.5636  0.7406
 2179TIP3   OH228027   4.287   6.266   1.299 -0.1933  0.0073  0.1556
 2179TIP3    H128028   4.346   6.315   1.356 -1.5243 -0.2496  1.8204
 2179TIP3    H228029   4.341   6.197   1.262  1.0492  1.0673 -0.0659
 2180TIP3   OH228030   6.347   3.774   0.487  0.1780  0.6482 -0.1893
 2180TIP3    H128031   6.334   3.806   0.397  0.7919  1.9993  0.1811
 2180TIP3    H228032   6.268   3.800   0.533 -0.4445 -0.6494 -0.4681
 2181TIP3   OH228033   5.385   2.054   3.056 -1.1162  0.7254 -0.0576
 2181TIP3    H128034   5.318   2.113   3.089 -0.8316  0.3108  1.3466
 2181TIP3    H228035   5.350   1.966   3.075 -1.3725  0.4335 -1.7762
 2182TIP3   OH228036   5.356   2.896  15.926  0.1836 -0.0265 -0.3347
 2182TIP3    H128037   5.352   2.960  15.854 -0.5308 -0.1436 -0.4053
 2182TIP3    H228038   5.265   2.878  15.947  0.3887 -0.0406  0.5676
 2183TIP3   OH228039   0.345   1.449   3.287  0.3835  0.5139 -0.0402
 2183TIP3    H128040   0.285   1.403   3.227 -0.0536  1.2938 -0.2100
 2183TIP3    H228041   0.321   1.541   3.279  2.0577  0.9429 -0.6180
 2184TIP3   OH228042   2.983   2.888  16.722 -0.0302 -0.3392  0.2444
 2184TIP3    H128043   3.054   2.910  16.782 -1.4231  2.1495  1.1294
 2184TIP3    H228044   2.913   2.854  16.779 -0.9271  0.9297 -0.0444
 2185TIP3   OH228045   3.696   4.095  16.097  0.0940 -0.3158 -0.2048
 2185TIP3    H128046   3.625   4.033  16.081  1.0059 -1.2634 -0.6569
 2185TIP3    H228047   3.653   4.170  16.139 -0.9096 -1.5665  1.1149
 2186TIP3   OH228048   1.592   0.596  15.327 -0.1231  0.6835 -0.0726
 2186TIP3    H128049   1.565   0.675  15.373 -1.7787  0.4750 -0.6179
 2186TIP3    H228050   1.634   0.542  15.394 -0.6876  1.2192  0.7253
 2187TIP3   OH228051   6.790   0.565   4.248 -0.2409  0.2112 -0.2031
 2187TIP3    H128052   6.701   0.595   4.229  0.1351  1.1286 -0.6300
 2187TIP3    H228053   6.842   0.646   4.247  0.6162 -0.3323 -0.1094
 2188TIP3   OH228054   1.825   3.894   4.257  0.0376 -1.1284 -0.1765
 2188TIP3    H128055   1.887   3.908   4.185 -0.3840  1.4794 -0.1596
 2188TIP3    H228056   1.876   3.849   4.324  0.5894 -3.1022 -1.8501
 2189TIP3   OH228057   6.350   3.237   5.673  0.3909  0.0312  0.1781
 2189TIP3    H128058   6.338   3.324   5.712  0.6211 -0.4199  1.2812
 2189TIP3    H228059   6.262   3.213   5.642  0.7331  1.6388 -2.3536
 2190TIP3   OH228060   3.531   4.877  17.048  0.0509 -0.5772  0.2755
 2190TIP3    H128061   3.440   4.901  17.066  0.8277  1.2171  2.1527
 2190TIP3    H228062   3.530   4.851  16.956 -1.8907  2.0623 -0.5939
 2191TIP3   OH228063   1.723   2.363  15.138 -0.1868  0.0104 -0.5003
 2191TIP3    H128064   1.781   2.405  15.202 -0.8022  1.8261 -1.0510
 2191TIP3    H228065   1.704   2.277  15.174  3.1826 -0.8740 -0.4849
 2192TIP3   OH228066   2.338   2.802  11.898  0.0376 -0.1055 -0.5493
 2192TIP3    H128067   2.425   2.842  11.889 -0.4958  1.0169 -0.8945
 2192TIP3    H228068   2.353   2.725  11.952  0.9694  1.0617  0.9221
 2193TIP3   OH228069   4.145   0.986  12.885  0.0430 -0.5254 -0.1726
 2193TIP3    H128070   4.050   0.992  12.893  0.0756  0.9431 -0.6718
 2193TIP3    H228071   4.172   0.940  12.964 -0.8172  1.9063  1.6667
 2194TIP3   OH228072   3.910   6.710  15.497  0.1386  0.0683  0.0955
 2194TIP3    H128073   3.960   6.664  15.565  0.9205  1.2721  0.3685
 2194TIP3    H228074   3.841   6.757  15.545  1.7346  2.3272  0.3410
 2195TIP3   OH228075   3.658   4.318   5.284  0.2994  0.2545  0.0753
 2195TIP3    H128076   3.684   4.314   5.192 -1.3771 -0.4185 -0.3930
 2195TIP3    H228077   3.682   4.406   5.312  0.7647  0.4845 -1.0109
 2196TIP3   OH228078   1.295   0.039   1.728  0.0184  0.2849  0.7897
 2196TIP3    H128079   1.281   0.103   1.659 -0.4947  0.2176  0.8302
 2196TIP3    H228080   1.212  -0.008   1.735  0.1875  0.0373  1.1922
 2197TIP3   OH228081   5.396   2.369  15.666 -0.5257  0.0811 -0.4948
 2197TIP3    H128082   5.387   2.392  15.573  0.6694 -0.3012 -0.7265
 2197TIP3    H228083   5.436   2.446  15.706 -1.1600  0.2946 -0.2629
 2198TIP3   OH228084   1.872   3.399  11.942 -0.1410  0.0050 -0.8141
 2198TIP3    H128085   1.820   3.477  11.961  0.6948  0.5342 -0.6311
 2198TIP3    H228086   1.820   3.327  11.977 -1.3770  0.3672 -1.8411
 2199TIP3   OH228087   5.456   2.372  14.059  0.1606 -0.8485 -0.8264
 2199TIP3    H128088   5.534   2.385  14.006  0.6077 -0.3883 -0.0617
 2199TIP3    H228089   5.484   2.388  14.149 -0.8914 -0.2891 -0.5733
 2200TIP3   OH228090   3.973   6.076  16.208  0.0500  0.0321  0.4668
 2200TIP3    H128091   4.046   6.100  16.152 -0.3759 -0.5708 -0.3755
 2200TIP3    H228092   4.013   6.035  16.285  0.5862 -3.1671 -1.3336
 2201TIP3   OH228093   0.875   1.353  15.845  0.1180 -0.0195 -0.0906
 2201TIP3    H128094   0.929   1.279  15.873 -1.4509 -1.4971 -0.8215
 2201TIP3    H228095   0.828   1.380  15.924 -0.2273 -0.6237 -0.0874
 2202TIP3   OH228096   0.948   5.063   1.408 -0.0231 -0.3033  0.9488
 2202TIP3    H128097   0.874   5.113   1.444  0.6539  2.8397 -1.5145
 2202TIP3    H228098   0.912   5.023   1.328  1.1492  3.0843 -1.5462
 2203TIP3   OH228099   0.303   1.012   4.797 -0.6121  0.6326  0.0726
 2203TIP3    H128100   0.389   1.010   4.840  1.2037  0.6236 -3.2211
 2203TIP3    H228101   0.246   0.964   4.857  1.8128  0.0450  2.1141
 2204TIP3   OH228102   4.235   2.703  14.920  0.4296  0.1663  0.1777
 2204TIP3    H128103   4.315   2.660  14.890  0.6107  1.1948 -0.8818
 2204TIP3    H228104   4.213   2.765  14.851 -1.1267  0.1220  0.5896
 2205TIP3   OH228105   2.952   1.421   6.257  0.8484 -0.2308  0.8663
 2205TIP3    H128106   2.877   1.465   6.300  0.6057  1.7263 -1.3529
 2205TIP3    H228107   3.018   1.490   6.249  1.7370 -1.1457  0.1174
 2206TIP3   OH228108   5.186   0.033  16.251 -0.0133 -0.4723  0.1065
 2206TIP3    H128109   5.209   0.066  16.337  1.6404 -0.9143 -0.1332
 2206TIP3    H228110   5.227   0.095  16.190 -2.1033  0.4790 -0.4068
 2207TIP3   OH228111   2.592   3.862  12.383  0.3708  0.3794 -0.3961
 2207TIP3    H128112   2.576   3.768  12.379 -1.2008  0.6674 -1.6488
 2207TIP3    H228113   2.590   3.891  12.292  1.8017  1.5047 -0.1123
 2208TIP3   OH228114   5.131   5.201  12.648  0.5380  0.1169  0.1389
 2208TIP3    H128115   5.051   5.252  12.660  1.1921  1.3342 -0.4806
 2208TIP3    H228116   5.107   5.133  12.585  0.1008  0.7493 -0.3901
 2209TIP3   OH228117   4.640   2.250   0.151 -0.1591  0.5762  0.6254
 2209TIP3    H128118   4.705   2.313   0.121  0.0261  0.5937  1.0495
 2209TIP3    H228119   4.656   2.243   0.245  1.3004 -1.7189  0.3050
 2210TIP3   OH228120   4.228   1.583   0.035 -0.2421  0.6060  0.2673
 2210TIP3    H128121   4.300   1.583  -0.028 -0.1786 -2.5115  0.1900
 2210TIP3    H228122   4.151   1.608  -0.016  0.1429  0.0676 -0.5923
 2211TIP3   OH228123   1.221   1.039   4.207 -0.5928  0.0561  0.1596
 2211TIP3    H128124   1.132   1.065   4.231 -0.3812  1.5423 -0.5384
 2211TIP3    H228125   1.210   0.967   4.146 -1.2012 -2.2088  2.7168
 2212TIP3   OH228126   0.028   2.724   4.303  0.3338  0.2841  0.0562
 2212TIP3    H128127   0.037   2.681   4.388 -0.5036 -0.3793 -0.1677
 2212TIP3    H228128   0.116   2.723   4.266  0.8313  1.1481  1.1650
 2213TIP3   OH228129   0.178   5.292   4.396 -0.2333 -0.0949  0.4150
 2213TIP3    H128130   0.269   5.276   4.418 -1.1619 -0.8040  4.5721
 2213TIP3    H228131   0.173   5.387   4.384  1.0266 -0.0563  0.0624
 2214TIP3   OH228132   3.871   1.280   2.705  0.4045 -0.1133  0.3430
 2214TIP3    H128133   3.789   1.259   2.751 -0.2936  1.4920 -0.1115
 2214TIP3    H228134   3.870   1.223   2.628 -0.4658  0.1324  0.1596
 2215TIP3   OH228135   4.073   5.359  11.774  0.0930 -1.1084  0.3323
 2215TIP3    H128136   4.121   5.426  11.822  1.2522 -0.2870 -1.8297
 2215TIP3    H228137   4.087   5.279  11.824  0.2952 -0.1133  1.9323
 2216TIP3   OH228138   4.071   3.242  12.229  0.0286  0.1420  0.4058
 2216TIP3    H128139   4.115   3.314  12.184 -0.7838 -0.1113 -0.8368
 2216TIP3    H228140   3.978   3.261  12.221 -0.3198 -1.8686 -1.5117
 2217TIP3   OH228141   3.588   0.174   1.600  0.9921  0.3870  0.4636
 2217TIP3    H128142   3.558   0.094   1.557  2.7109  0.2414 -0.5640
 2217TIP3    H228143   3.537   0.244   1.560 -0.1442 -0.1109  0.9886
 2218TIP3   OH228144   3.605   3.344  12.363  0.1385  0.1532  0.4585
 2218TIP3    H128145   3.612   3.429  12.406 -0.0142  0.6792 -0.5438
 2218TIP3    H228146   3.545   3.294  12.420  0.4766  0.5915  1.2192
 2219TIP3   OH228147   1.791   6.071   3.182 -0.0781  0.4234 -0.1492
 2219TIP3    H128148   1.803   6.085   3.276 -0.2751 -1.2707  0.1491
 2219TIP3    H228149   1.879   6.082   3.144  0.6568 -2.0716  0.6894
 2220TIP3   OH228150   1.320   3.806  11.553 -0.0642 -0.2547  0.6894
 2220TIP3    H128151   1.283   3.724  11.585  0.9641 -1.3589 -0.7877
 2220TIP3    H228152   1.252   3.844  11.497 -0.6828  0.1027  1.6737
 2221TIP3   OH228153   2.182   3.385  13.836  0.6541  0.5948 -0.2849
 2221TIP3    H128154   2.093   3.358  13.813 -0.4245  3.2246  0.5362
 2221TIP3    H228155   2.205   3.331  13.912 -0.3704  0.1384 -0.2877
 2222TIP3   OH228156   1.662   0.584   6.768 -0.5377 -0.4775  0.3445
 2222TIP3    H128157   1.633   0.507   6.720 -3.3809  1.0880 -0.7531
 2222TIP3    H228158   1.660   0.655   6.703  0.1567  0.8461  1.7006
 2223TIP3   OH228159   5.909   4.975  15.200  0.5205 -0.5263  0.1250
 2223TIP3    H128160   5.925   5.067  15.179  0.7238 -0.6398 -0.2382
 2223TIP3    H228161   5.835   4.950  15.145 -0.6133 -0.1427  1.4281
 2224TIP3   OH228162   4.685   2.702   5.370  0.3305  0.1016  0.1609
 2224TIP3    H128163   4.672   2.795   5.350  2.9855  0.9757  2.0169
 2224TIP3    H228164   4.715   2.664   5.288 -0.5639  0.8973 -0.5614
 2225TIP3   OH228165   4.671   4.934  13.126  0.0124  0.2537 -0.9230
 2225TIP3    H128166   4.753   4.891  13.099 -1.0472 -1.1672 -2.0979
 2225TIP3    H228167   4.633   4.966  13.044 -0.0479  1.9806 -0.2479
 2226TIP3   OH228168   0.098   5.893  14.657  0.1182 -0.2173  0.3815
 2226TIP3    H128169   0.087   5.810  14.611 -1.1407  0.6732 -1.0358
 2226TIP3    H228170   0.188   5.892  14.689  0.1519 -2.0653  0.2888
 2227TIP3   OH228171   1.948   0.830  15.832  0.0798 -0.1935 -0.4237
 2227TIP3    H128172   2.029   0.828  15.883  0.1093 -2.5157 -0.4423
 2227TIP3    H228173   1.944   0.744  15.789 -1.1126  0.8207 -2.5062
 2228TIP3   OH228174   5.009   0.655  13.141  0.3944  0.3372 -0.5386
 2228TIP3    H128175   4.919   0.677  13.115 -0.2180 -1.2308  0.0896
 2228TIP3    H228176   5.031   0.578  13.087  1.9404  1.5388 -1.7333
 2229TIP3   OH228177   6.531   6.103  11.975 -0.3839 -0.2666 -0.0039
 2229TIP3    H128178   6.593   6.103  12.048 -1.6676 -1.3233  1.1253
 2229TIP3    H228179   6.577   6.056  11.905 -0.2482 -2.0113  1.1751
 2230TIP3   OH228180   6.804   5.566   0.684 -0.1343 -0.4650  0.3623
 2230TIP3    H128181   6.862   5.640   0.668 -1.6329  0.4288 -1.2995
 2230TIP3    H228182   6.851   5.491   0.648  0.1581  0.1901 -0.6823
 2231TIP3   OH228183   2.828   3.209   0.702  0.3451 -0.1813 -0.2666
 2231TIP3    H128184   2.775   3.149   0.754  0.1127 -0.8620 -1.2703
 2231TIP3    H228185   2.818   3.179   0.612  2.2534 -0.2142 -0.5244
 2232TIP3   OH228186   3.453   3.806  17.023  0.1322 -0.0911  0.3004
 2232TIP3    H128187   3.385   3.780  17.085  0.4261 -0.1197  0.6207
 2232TIP3    H228188   3.458   3.902  17.032  1.2542 -0.2210  1.5040
 2233TIP3   OH228189   6.846   0.497   1.340 -0.0889  0.1408 -0.3763
 2233TIP3    H128190   6.854   0.583   1.382  1.6379 -0.1134 -0.1158
 2233TIP3    H228191   6.827   0.437   1.412 -2.3660  0.4136 -0.6938
 2234TIP3   OH228192   0.200   2.175   4.131 -0.4734  0.4190  0.5294
 2234TIP3    H128193   0.276   2.203   4.183 -0.8488 -1.1432  1.9869
 2234TIP3    H228194   0.134   2.242   4.147  0.8595  2.4300 -1.6469
 2235TIP3   OH228195   3.843   5.742  11.881  0.1015 -0.2653  0.3597
 2235TIP3    H128196   3.844   5.648  11.867  0.0240 -0.5383  1.9906
 2235TIP3    H228197   3.906   5.757  11.951  0.1206  0.9070  0.1240
 2236TIP3   OH228198   2.216   4.931   5.640  0.0658  0.6385 -0.1324
 2236TIP3    H128199   2.275   4.855   5.644  0.3820  0.7859 -1.5495
 2236TIP3    H228200   2.250   4.984   5.568 -0.4940  1.8557  0.4694
 2237TIP3   OH228201   2.876   6.023   2.538  0.0005  0.2294 -0.4486
 2237TIP3    H128202   2.836   6.046   2.622  2.5429  1.7686  0.4521
 2237TIP3    H228203   2.875   5.927   2.536 -3.7414  0.1165 -0.6344
 2238TIP3   OH228204   4.921   4.799   4.733  0.1340 -0.7191 -0.7849
 2238TIP3    H128205   5.015   4.796   4.750  0.0275  0.1968  0.0786
 2238TIP3    H228206   4.885   4.727   4.785  0.1378  0.3228  0.7559
 2239TIP3   OH228207   5.670   0.448  13.788  0.0515 -0.9589  0.0026
 2239TIP3    H128208   5.626   0.416  13.710 -1.9532  1.7122 -0.1212
 2239TIP3    H228209   5.660   0.543  13.784  1.9663 -0.5489  2.3345
 2240TIP3   OH228210   1.910   5.105  15.968 -0.1356 -0.3273 -0.0671
 2240TIP3    H128211   1.852   5.034  15.996 -0.7125  0.0978 -0.1489
 2240TIP3    H228212   1.963   5.067  15.898 -2.2111 -0.0266 -1.9165
 2241TIP3   OH228213   4.577   4.009  15.943  0.1753 -0.3310  0.3920
 2241TIP3    H128214   4.495   3.974  15.977  0.6139 -0.0847  1.7482
 2241TIP3    H228215   4.558   4.029  15.851 -2.0876  2.1819  1.2863
 2242TIP3   OH228216   6.690   1.373  14.839  0.4158 -0.9631  0.3720
 2242TIP3    H128217   6.759   1.319  14.878  1.1967  0.5697  1.2071
 2242TIP3    H228218   6.636   1.400  14.912 -1.8369 -3.0239 -0.3766
 2243TIP3   OH228219   0.752   6.533   3.391 -0.2210 -0.3711 -0.9828
 2243TIP3    H128220   0.705   6.578   3.461 -1.6015 -1.0477 -1.4360
 2243TIP3    H228221   0.844   6.534   3.420 -0.7154 -0.4773  0.7501
 2244TIP3   OH228222   0.885   6.048  12.870 -0.2229 -0.7182 -0.7273
 2244TIP3    H128223   0.910   5.971  12.819  1.1057  0.0276 -1.2410
 2244TIP3    H228224   0.873   6.117  12.805  0.7639  0.0607 -0.1142
 2245TIP3   OH228225   3.606   5.094   2.570 -0.0203  0.4339 -0.1862
 2245TIP3    H128226   3.639   5.125   2.486  0.4985 -0.4596 -0.3230
 2245TIP3    H228227   3.540   5.029   2.547  1.6291 -1.4158  0.0463
 2246TIP3   OH228228   1.263   0.880  17.004  0.0640 -0.2027  0.0960
 2246TIP3    H128229   1.175   0.846  17.019  0.3475 -0.2697  1.7474
 2246TIP3    H228230   1.271   0.954  17.064  0.4621  1.0685 -1.4387
 2247TIP3   OH228231   2.338   0.195   1.909 -0.5322 -0.0296 -0.4886
 2247TIP3    H128232   2.404   0.239   1.856  0.2913  0.8737  1.2002
 2247TIP3    H228233   2.361   0.102   1.903  2.0335  0.3703  1.3723
 2248TIP3   OH228234   6.772   2.304   2.015 -0.0302 -0.2152 -0.9122
 2248TIP3    H128235   6.852   2.266   1.980 -1.2383 -1.0445 -3.0024
 2248TIP3    H228236   6.709   2.231   2.015 -1.2197  0.7698 -0.8501
 2249TIP3   OH228237   2.659   0.418   4.127  0.6267  0.0430  1.0295
 2249TIP3    H128238   2.730   0.355   4.136  0.9948  0.0927 -0.9216
 2249TIP3    H228239   2.611   0.388   4.050 -1.5801 -0.0506  2.3784
 2250TIP3   OH228240   2.083   5.243   2.145  0.0235 -0.2155 -0.5282
 2250TIP3    H128241   2.076   5.301   2.220  2.0048  0.8047 -1.0560
 2250TIP3    H228242   1.994   5.232   2.114 -0.6733  0.4315  1.1442
 2251TIP3   OH228243   0.695   4.895  11.970 -0.5296 -0.4168 -0.1201
 2251TIP3    H128244   0.735   4.962  11.914 -2.2295  0.9841  0.2621
 2251TIP3    H228245   0.753   4.889  12.046  0.9865 -1.2527 -1.2705
 2252TIP3   OH228246   2.623   5.366  16.579 -0.4621 -0.4900 -0.1551
 2252TIP3    H128247   2.657   5.326  16.498 -1.6535 -1.1266 -0.3696
 2252TIP3    H228248   2.672   5.447  16.587 -1.3709  0.3752 -2.3849
 2253TIP3   OH228249   6.553   2.484   1.003  0.1561  0.2285  0.9179
 2253TIP3    H128250   6.513   2.499   1.088  0.9629  1.5781  1.0977
 2253TIP3    H228251   6.597   2.567   0.982  0.3849 -0.2333 -0.5876
 2254TIP3   OH228252   1.305   0.613   5.166  0.3996  0.3714 -0.0473
 2254TIP3    H128253   1.263   0.539   5.123 -1.0303  0.0300  1.7689
 2254TIP3    H228254   1.290   0.687   5.107 -2.2267  0.1070  0.1615
 2255TIP3   OH228255   0.048   3.330   5.401 -0.6174 -0.1384  0.4673
 2255TIP3    H128256   0.126   3.385   5.407  0.3170 -1.4473  0.7226
 2255TIP3    H228257   0.005   3.358   5.321  0.4285  0.2037  0.0067
 2256TIP3   OH228258   3.188   2.854   5.459 -0.3421  0.0782 -0.2742
 2256TIP3    H128259   3.139   2.810   5.390 -1.1149 -0.6940  0.7432
 2256TIP3    H228260   3.139   2.935   5.475 -1.0181 -0.4503  0.3869
 2257TIP3   OH228261   2.323   3.676  12.354  0.3639  0.3257  0.3223
 2257TIP3    H128262   2.311   3.597  12.301 -1.4300  0.7443  0.0270
 2257TIP3    H228263   2.336   3.746  12.290 -4.2514  1.2774  0.0362
 2258TIP3   OH228264   1.076   6.780  15.496  0.5376 -0.0427 -0.0630
 2258TIP3    H128265   1.096   6.795  15.404  1.6738 -0.2002  0.1439
 2258TIP3    H228266   1.142   6.832  15.543 -0.7787  1.0145  0.6764
 2259TIP3   OH228267   0.805   0.231   3.256 -0.3037 -0.0213 -0.4875
 2259TIP3    H128268   0.713   0.243   3.235 -0.3998  0.8985  0.4031
 2259TIP3    H228269   0.849   0.231   3.170 -1.0392  0.3550 -0.8748
 2260TIP3   OH228270   1.770   5.810  15.676  0.2857 -0.4585  0.9732
 2260TIP3    H128271   1.730   5.724  15.665 -2.3420  0.8205 -0.3606
 2260TIP3    H228272   1.756   5.854  15.592 -0.6302  2.1153  2.3743
 2261TIP3   OH228273   4.171   0.523   5.780  1.5981 -0.2249 -0.0540
 2261TIP3    H128274   4.141   0.437   5.811  2.8846  0.1776  2.6638
 2261TIP3    H228275   4.099   0.582   5.803  1.4661 -0.3168 -0.2311
 2262TIP3   OH228276   1.329   3.117   0.797 -0.1222 -0.1845 -0.3070
 2262TIP3    H128277   1.386   3.162   0.859 -1.5518  0.4315  0.6139
 2262TIP3    H228278   1.346   3.024   0.811  0.2416 -0.0201  0.3493
 2263TIP3   OH228279   6.599   1.298   4.614 -0.1855  0.0929 -0.4869
 2263TIP3    H128280   6.527   1.315   4.555 -0.7618  2.1497  0.7045
 2263TIP3    H228281   6.559   1.257   4.691  0.1222 -0.0135 -0.3785
 2264TIP3   OH228282   3.131   1.917   4.492  0.0462  0.0267  0.1615
 2264TIP3    H128283   3.132   1.929   4.587 -0.2042 -4.2223  0.9162
 2264TIP3    H228284   3.222   1.896   4.470 -0.2139 -0.7788 -0.1849
 2265TIP3   OH228285   5.943   4.629  13.073  0.4241  0.1495 -0.5251
 2265TIP3    H128286   5.934   4.660  13.163 -1.4999  0.1286 -0.6614
 2265TIP3    H228287   5.859   4.648  13.033  1.3611  0.4492 -2.4385
 2266TIP3   OH228288   3.897   3.386   5.598 -0.1749  0.1305  0.1830
 2266TIP3    H128289   3.884   3.340   5.515 -1.6478 -0.8633  0.9223
 2266TIP3    H228290   3.837   3.461   5.594 -0.5596 -0.1568  0.5137
 2267TIP3   OH228291   4.968   0.930  16.882 -0.3932 -0.0383  0.2886
 2267TIP3    H128292   4.894   0.871  16.893  0.7528 -1.8998 -1.3344
 2267TIP3    H228293   5.038   0.891  16.934  0.2055  0.1925 -0.3278
 2268TIP3   OH228294   3.321   3.853   2.787  0.0763 -0.0407 -0.1708
 2268TIP3    H128295   3.327   3.796   2.864 -0.9074 -0.0505 -0.0814
 2268TIP3    H228296   3.228   3.848   2.762 -0.2025  2.0563  0.2697
 2269TIP3   OH228297   3.269   2.378  13.139  0.3920 -0.2260  0.0449
 2269TIP3    H128298   3.324   2.363  13.061  0.4568 -0.8192  0.1958
 2269TIP3    H228299   3.191   2.325  13.123 -0.6315  1.4189 -0.6382
 2270TIP3   OH228300   5.822   0.928   4.108  0.4882  0.1595  0.5448
 2270TIP3    H128301   5.755   0.980   4.153  1.6077  0.4612  1.9156
 2270TIP3    H228302   5.797   0.837   4.123 -0.4752  0.2668 -0.3165
 2271TIP3   OH228303   5.924   5.049  15.683 -0.6150 -0.6074  0.3596
 2271TIP3    H128304   5.961   5.133  15.656  0.5870 -1.2658 -0.1445
 2271TIP3    H228305   5.995   4.986  15.667 -1.2773 -1.6228  1.3169
 2272TIP3   OH228306   5.755   4.668   3.644 -0.3306 -0.0976 -0.4708
 2272TIP3    H128307   5.661   4.681   3.629 -0.7631  0.9334  2.4847
 2272TIP3    H228308   5.788   4.757   3.659  0.2881 -0.7222  2.3416
 2273TIP3   OH228309   2.734   2.278  16.095 -0.3445  0.0186  0.7183
 2273TIP3    H128310   2.718   2.246  16.184 -0.6659 -0.7924  0.3810
 2273TIP3    H228311   2.654   2.253  16.047  0.1233 -0.1893  0.0381
 2274TIP3   OH228312   2.791   0.364   5.779  0.0103  0.0890  0.1172
 2274TIP3    H128313   2.790   0.395   5.689 -1.2077  3.3338  1.1023
 2274TIP3    H228314   2.842   0.429   5.827  0.2767 -1.3138  1.8857
 2275TIP3   OH228315   3.681   5.401   2.412 -0.4008 -0.3018 -0.0845
 2275TIP3    H128316   3.712   5.319   2.374  1.7881 -1.1299  3.1317
 2275TIP3    H228317   3.695   5.466   2.342  4.0456 -1.5674 -0.6963
 2276TIP3   OH228318   0.983   5.651   4.066  0.1169 -0.1777 -0.1073
 2276TIP3    H128319   1.041   5.707   4.119 -0.8754  1.2931 -0.5195
 2276TIP3    H228320   1.023   5.650   3.979  0.6217 -0.8834  0.1216
 2277TIP3   OH228321   5.796   5.662   1.562  0.7829  0.2122  0.0037
 2277TIP3    H128322   5.729   5.609   1.604  1.6942 -0.7569  0.2763
 2277TIP3    H228323   5.806   5.738   1.619  0.4067  0.0274  0.3169
 2278TIP3   OH228324   3.177   6.373   1.446 -0.6689 -0.3347  0.1310
 2278TIP3    H128325   3.267   6.369   1.477 -0.7808 -0.6490  0.4190
 2278TIP3    H228326   3.184   6.391   1.352 -0.3313  1.0466  0.3979
 2279TIP3   OH228327   3.215   6.331   0.340  0.0278 -0.5991  0.1605
 2279TIP3    H128328   3.150   6.262   0.349  0.5825 -1.5177 -2.2020
 2279TIP3    H228329   3.218   6.373   0.426 -0.4504 -3.3744  1.6257
 2280TIP3   OH228330   3.202   2.497   1.441 -0.5190  0.0175  0.6644
 2280TIP3    H128331   3.151   2.501   1.360 -0.2703 -1.7705  0.3608
 2280TIP3    H228332   3.290   2.523   1.416 -0.5544 -0.0558  0.4597
 2281TIP3   OH228333   5.404   6.621   1.689 -0.2641 -0.1015  0.4642
 2281TIP3    H128334   5.464   6.687   1.723 -0.4538  0.0770  0.4501
 2281TIP3    H228335   5.444   6.537   1.713  0.6528 -0.0071 -0.6560
 2282TIP3   OH228336   4.393   0.886   3.302  0.3044 -0.1545  0.6634
 2282TIP3    H128337   4.381   0.902   3.208  1.0629 -0.8230  0.4373
 2282TIP3    H228338   4.486   0.866   3.311  0.2081 -0.2519  1.5381
 2283TIP3   OH228339   6.520   0.445   4.554  0.0984 -0.1024  0.3649
 2283TIP3    H128340   6.501   0.415   4.643  1.6491 -1.2181  0.3482
 2283TIP3    H228341   6.614   0.463   4.554 -0.1358  1.2902 -0.6631
 2284TIP3   OH228342   0.971   4.592  11.877 -0.5014  0.0335  0.1408
 2284TIP3    H128343   1.034   4.522  11.894 -1.1655 -0.7025 -0.3622
 2284TIP3    H228344   1.016   4.651  11.816  1.3272  1.8876  3.0275
 2285TIP3   OH228345   6.746   4.381   1.399  0.2923 -0.1904 -0.2731
 2285TIP3    H128346   6.787   4.378   1.312 -0.4767 -0.2447 -0.6361
 2285TIP3    H228347   6.820   4.370   1.460  0.5681 -2.9174 -0.9456
 2286TIP3   OH228348   0.744   5.727   6.519  0.0848 -0.3647 -0.1326
 2286TIP3    H128349   0.822   5.715   6.573  0.4765  1.9982 -0.0641
 2286TIP3    H228350   0.778   5.759   6.435 -0.6008 -2.8097 -1.4312
 2287TIP3   OH228351   4.149   0.664   5.392 -1.0822 -0.8600 -0.2472
 2287TIP3    H128352   4.193   0.748   5.402 -1.5344 -0.3732 -2.0015
 2287TIP3    H228353   4.077   0.666   5.456 -1.5533  0.4072 -0.7919
 2288TIP3   OH228354   2.374   2.357   4.926 -0.2894 -0.2459 -0.0653
 2288TIP3    H128355   2.311   2.400   4.868 -3.1184 -2.5931  1.0257
 2288TIP3    H228356   2.436   2.314   4.866 -0.1116  1.4368 -1.1763
 2289TIP3   OH228357   2.100   3.644   5.849  0.1725 -0.0702  0.2427
 2289TIP3    H128358   2.180   3.679   5.887 -0.1827 -0.3748  1.3177
 2289TIP3    H228359   2.029   3.684   5.900 -0.3534  0.1039 -0.6114
 2290TIP3   OH228360   1.961   4.689   1.360  0.4692 -0.6773 -0.8068
 2290TIP3    H128361   2.018   4.757   1.395  0.6414 -0.3647 -1.6763
 2290TIP3    H228362   1.893   4.678   1.426  0.6501  0.0717 -0.4880
 2291TIP3   OH228363   4.430   0.627   4.707 -0.4192  0.2796 -0.5810
 2291TIP3    H128364   4.346   0.665   4.732  0.3173  1.3418  0.3863
 2291TIP3    H228365   4.490   0.702   4.703  1.0501 -0.7291  1.2527
 2292TIP3   OH228366   0.202   5.076   5.627  0.4895 -0.2404  0.1423
 2292TIP3    H128367   0.266   5.033   5.570 -0.8439  0.2102 -1.7933
 2292TIP3    H228368   0.124   5.086   5.572 -1.5886 -1.5367  2.6259
 2293TIP3   OH228369   1.618   3.298   2.192 -0.2647  0.3822 -0.5777
 2293TIP3    H128370   1.653   3.336   2.112 -0.0235 -0.3627 -0.8374
 2293TIP3    H228371   1.639   3.362   2.261  1.7777 -0.1038 -0.6862
 2294TIP3   OH228372   2.305   4.616   3.822 -0.3377 -0.4084 -0.5371
 2294TIP3    H128373   2.381   4.671   3.800  2.0524 -3.4828 -0.7332
 2294TIP3    H228374   2.322   4.587   3.911 -1.1489 -1.3658 -0.6797
 2295TIP3   OH228375   6.190   3.204  15.855 -0.6469 -0.0455  0.0964
 2295TIP3    H128376   6.261   3.235  15.911 -1.9597 -0.6491  2.2175
 2295TIP3    H228377   6.188   3.109  15.869 -1.3384 -0.1452 -0.5754
 2296TIP3   OH228378   5.530   6.496  11.935  0.3943  0.6032 -0.8969
 2296TIP3    H128379   5.529   6.425  11.999  4.3634  0.6448 -0.5712
 2296TIP3    H228380   5.457   6.552  11.962 -1.2178 -1.9233  0.4299
 2297TIP3   OH228381   3.363   6.566  15.189 -0.2318  0.3606 -0.3087
 2297TIP3    H128382   3.416   6.621  15.132  1.2615 -0.2713  0.4298
 2297TIP3    H228383   3.409   6.565  15.273 -1.3120 -0.3600  0.2999
 2298TIP3   OH228384   6.803   6.123   2.734 -0.6646 -0.1360 -0.1553
 2298TIP3    H128385   6.713   6.127   2.766 -0.6259  0.2587 -0.0830
 2298TIP3    H228386   6.804   6.049   2.673 -0.5965 -1.2662  1.1783
 2299TIP3   OH228387   2.357   3.668  13.860  0.5974 -0.4398  0.0255
 2299TIP3    H128388   2.282   3.609  13.858  0.4824 -0.2831 -0.2364
 2299TIP3    H228389   2.432   3.611  13.880  0.3361 -0.5221  0.8162
 2300TIP3   OH228390   6.378   1.098  14.432  0.0040 -0.3226  0.0501
 2300TIP3    H128391   6.355   1.190  14.440  2.7827  0.6154 -1.5172
 2300TIP3    H228392   6.299   1.051  14.457 -1.7163  2.4832  0.2245
 2301TIP3   OH228393   0.578   5.032  13.224 -0.2878  0.0472  0.1797
 2301TIP3    H128394   0.528   4.986  13.156 -0.9964 -0.2938  0.9207
 2301TIP3    H228395   0.572   4.975  13.300  1.3001 -0.0252  0.2685
 2302TIP3   OH228396   0.782   5.525  14.807 -0.3337 -0.6601 -0.4465
 2302TIP3    H128397   0.824   5.611  14.794 -0.9177 -0.3982 -0.6237
 2302TIP3    H228398   0.855   5.463  14.804  0.5475  0.0514  2.7159
 2303TIP3   OH228399   0.805   4.442  16.677  1.1162  0.2163 -0.2937
 2303TIP3    H128400   0.829   4.371  16.617 -1.3286  0.4944 -1.7468
 2303TIP3    H228401   0.724   4.477  16.641  1.3138  2.6333  1.3639
 2304TIP3   OH228402   4.193   0.561   4.370  0.0346  0.1867 -0.1465
 2304TIP3    H128403   4.191   0.490   4.306 -3.3869 -0.1851  0.1661
 2304TIP3    H228404   4.101   0.576   4.392  0.8353  2.6950  2.0778
 2305TIP3   OH228405   0.186   3.504   0.502  0.1042 -0.1206  0.0161
 2305TIP3    H128406   0.175   3.516   0.407  0.4706 -0.3173 -0.0579
 2305TIP3    H228407   0.189   3.409   0.513  2.0870 -0.1259 -0.0484
 2306TIP3   OH228408   6.247   5.202  14.852 -0.4546 -0.0056  0.8461
 2306TIP3    H128409   6.291   5.181  14.769 -2.1431 -0.1972 -0.0390
 2306TIP3    H228410   6.218   5.293  14.840 -1.0450 -0.1635  1.0636
 2307TIP3   OH228411   6.176   2.427  11.673  0.2781  0.4600  0.3003
 2307TIP3    H128412   6.251   2.438  11.613  2.1151  2.3018  2.7300
 2307TIP3    H228413   6.216   2.424  11.760 -2.3016 -1.7861  1.5517
 2308TIP3   OH228414   5.911   4.990   1.729 -0.1340  0.2426 -0.1393
 2308TIP3    H128415   5.999   4.958   1.746 -0.5746 -1.3305 -0.6375
 2308TIP3    H228416   5.881   4.939   1.653 -1.1912  1.2852 -0.4513
 2309TIP3   OH228417   2.300   3.077  12.322 -0.3109  0.0744  0.1935
 2309TIP3    H128418   2.276   2.995  12.279  1.8238  0.1980 -1.4018
 2309TIP3    H228419   2.348   3.050  12.400  1.6382 -0.3067 -1.0611
 2310TIP3   OH228420   3.895   4.611  15.695  0.1859  0.4519  0.2796
 2310TIP3    H128421   3.835   4.586  15.765  0.1712  0.1186  0.1465
 2310TIP3    H228422   3.975   4.563  15.714 -0.1546 -0.4437 -0.5111
 2311TIP3   OH228423   2.064   3.729  13.923 -0.1902 -0.4779 -0.0237
 2311TIP3    H128424   1.996   3.715  13.989 -0.4603 -2.2949 -0.6188
 2311TIP3    H228425   2.038   3.671  13.850  0.5410  0.8354 -1.3771
 2312TIP3   OH228426   3.836   4.636  15.198 -0.0407 -0.2303 -0.0203
 2312TIP3    H128427   3.848   4.571  15.268 -0.3852  0.2480  0.4891
 2312TIP3    H228428   3.756   4.682  15.221 -1.0230 -1.0641 -1.5347
 2313TIP3   OH228429   2.122   4.862   3.017 -0.0578 -0.2577  0.4941
 2313TIP3    H128430   2.046   4.868   3.075 -0.8907 -1.2314 -0.4569
 2313TIP3    H228431   2.107   4.931   2.952 -1.0118 -1.4971 -0.6538
 2314TIP3   OH228432   6.563   0.874  11.213 -0.0364 -0.6568 -0.3257
 2314TIP3    H128433   6.546   0.959  11.254  3.9663 -0.0967  0.6785
 2314TIP3    H228434   6.600   0.821  11.284  0.4936 -2.1447 -1.6587
 2315TIP3   OH228435   3.681   2.072   3.489  0.1220 -0.1124 -0.4484
 2315TIP3    H128436   3.736   2.116   3.554 -2.1108  0.4378  1.1988
 2315TIP3    H228437   3.638   2.143   3.442 -1.0063 -0.5053 -0.0348
 2316TIP3   OH228438   1.481   2.940  11.980  0.1922 -0.7906 -0.2065
 2316TIP3    H128439   1.450   2.959  11.892 -1.5198  2.2966  0.9111
 2316TIP3    H228440   1.573   2.964  11.979  0.2075 -0.8590 -1.1342
 2317TIP3   OH228441   6.083   5.697  11.346 -0.6670 -0.7969 -0.3790
 2317TIP3    H128442   6.127   5.782  11.356  0.5190 -0.7675 -4.2276
 2317TIP3    H228443   6.016   5.697  11.415  0.8496  2.1664  1.3107
 2318TIP3   OH228444   2.350   6.419   5.051  0.8510 -0.0592  0.1126
 2318TIP3    H128445   2.440   6.388   5.042  0.4426 -1.5844  0.8995
 2318TIP3    H228446   2.296   6.341   5.040 -0.3231  0.6123  0.8306
 2319TIP3   OH228447   5.389   4.682   5.119 -0.6248 -0.0761  0.1299
 2319TIP3    H128448   5.330   4.715   5.186 -0.8552 -0.8939  0.3354
 2319TIP3    H228449   5.476   4.709   5.148 -0.7436 -0.2402  0.6483
 2320TIP3   OH228450   5.635   3.191  16.884  0.0137 -0.0325 -0.1672
 2320TIP3    H128451   5.637   3.128  16.812 -0.7883 -1.9175  1.3412
 2320TIP3    H228452   5.669   3.142  16.959 -0.6881  1.3208  1.0907
 2321TIP3   OH228453   4.607   0.408  13.200 -0.2817 -0.2001 -0.0256
 2321TIP3    H128454   4.604   0.498  13.235 -0.6943 -1.3077  3.0891
 2321TIP3    H228455   4.674   0.411  13.132  0.4570  2.2363  0.7186
 2322TIP3   OH228456   6.553   6.103  16.425  0.4167  0.5171  0.0359
 2322TIP3    H128457   6.509   6.153  16.357  2.1531 -0.5471 -2.0141
 2322TIP3    H228458   6.533   6.011  16.405  1.4698  0.1415  0.5745
 2323TIP3   OH228459   5.499   4.091  15.570  0.2254  0.0300 -0.9269
 2323TIP3    H128460   5.562   4.087  15.642 -0.3873 -0.3137 -0.4049
 2323TIP3    H228461   5.552   4.077  15.491  0.8230 -0.0932 -0.5081
 2324TIP3   OH228462   3.874   4.982  15.356 -0.1420  0.4374  0.6320
 2324TIP3    H128463   3.864   5.017  15.268  1.0886 -1.9741 -0.5506
 2324TIP3    H228464   3.969   4.986  15.373 -0.1846 -0.5693  1.1933
 2325TIP3   OH228465   3.208   3.383  15.089 -0.2958 -0.5404 -0.4351
 2325TIP3    H128466   3.187   3.319  15.158  0.0299 -0.1922 -0.0097
 2325TIP3    H228467   3.302   3.375  15.077 -0.3528 -0.6089 -0.8592
 2326TIP3   OH228468   0.235   0.776  12.606 -0.3907 -0.1113  0.6916
 2326TIP3    H128469   0.272   0.799  12.691  0.9223 -0.6950  0.3191
 2326TIP3    H228470   0.191   0.856  12.576  1.0011  0.8000  0.9690
 2327TIP3   OH228471   0.059   5.329  13.847  0.0689  0.1948 -0.2940
 2327TIP3    H128472  -0.022   5.338  13.897 -0.8628 -1.4432 -1.3847
 2327TIP3    H228473   0.127   5.316  13.913 -1.2235 -2.7009  0.6501
 2328TIP3   OH228474   0.850   1.452   3.242  0.2562 -0.0366  0.5658
 2328TIP3    H128475   0.905   1.514   3.289 -0.4667  0.1968  1.1232
 2328TIP3    H228476   0.771   1.444   3.295 -0.3378 -0.2068 -0.3096
 2329TIP3   OH228477   1.393   2.115  11.318 -0.5783  0.7430  0.1054
 2329TIP3    H128478   1.441   2.132  11.399 -0.5052  0.2880  0.1604
 2329TIP3    H228479   1.418   2.026  11.294 -0.1457  1.0885 -0.7350
 2330TIP3   OH228480   5.834   3.886  15.243 -0.1944 -0.1987  0.7929
 2330TIP3    H128481   5.877   3.968  15.266 -2.1284  1.3900 -0.9656
 2330TIP3    H228482   5.757   3.882  15.301 -1.0187  0.1013 -0.2592
 2331TIP3   OH228483   1.765   5.950   4.290 -0.6824  0.6450  0.5074
 2331TIP3    H128484   1.748   6.037   4.325 -1.4678 -0.2108  2.3890
 2331TIP3    H228485   1.845   5.921   4.334 -0.1290  0.5924 -0.4997
 2332TIP3   OH228486   3.129   3.814   1.086  0.1515 -0.5731 -0.4561
 2332TIP3    H128487   3.192   3.884   1.066  0.0287  0.2727  1.8147
 2332TIP3    H228488   3.182   3.742   1.119 -0.0211  0.7321  3.0599
 2333TIP3   OH228489   0.249   3.161  12.235  0.4289 -0.0145  0.4104
 2333TIP3    H128490   0.214   3.143  12.323  1.0984 -0.8791  0.5067
 2333TIP3    H228491   0.301   3.084  12.214  1.2695  0.7211 -0.2465
 2334TIP3   OH228492   0.698   4.782  15.736  0.0410  0.2283 -0.3913
 2334TIP3    H128493   0.748   4.851  15.780  1.0789 -0.9866  0.4200
 2334TIP3    H228494   0.656   4.826  15.662 -0.7016  2.0535  1.0573
 2335TIP3   OH228495   4.874   1.802  12.539  0.9182  0.1730 -0.1446
 2335TIP3    H128496   4.834   1.825  12.456  1.7538  1.5699 -0.2001
 2335TIP3    H228497   4.838   1.716  12.561 -2.7722  1.6564  0.2736
 2336TIP3   OH228498   4.136   5.007  11.666 -0.6151  0.4433  0.0790
 2336TIP3    H128499   4.218   4.961  11.654 -1.3996 -1.3379  1.1657
 2336TIP3    H228500   4.148   5.090  11.620  0.5074 -1.1915 -2.8481
 2337TIP3   OH228501   2.400   2.629  14.534 -0.2375  1.2174  0.1743
 2337TIP3    H128502   2.352   2.712  14.531 -0.3129  1.1465 -0.7686
 2337TIP3    H228503   2.334   2.562  14.512  0.1703  1.0716 -0.6376
 2338TIP3   OH228504   1.082   3.157  10.949 -0.1894  0.0689 -0.1878
 2338TIP3    H128505   0.998   3.203  10.956  0.0207  0.2311  2.3053
 2338TIP3    H228506   1.060   3.064  10.959 -0.1092  0.0712  0.0085
 2339TIP3   OH228507   2.602   1.385   5.384 -0.4443 -0.5041 -0.3923
 2339TIP3    H128508   2.617   1.420   5.296 -1.2226 -0.2064 -0.4140
 2339TIP3    H228509   2.513   1.350   5.380 -0.8216  0.3199  0.5312
 2340TIP3   OH228510   0.439   3.639  11.639 -0.0187  0.0557 -0.2965
 2340TIP3    H128511   0.526   3.662  11.608  0.5177 -2.0610 -0.5413
 2340TIP3    H228512   0.399   3.593  11.564 -0.6093 -0.6442  0.4316
 2341TIP3   OH228513   4.087   6.431  15.395 -0.3715 -0.2688  0.0583
 2341TIP3    H128514   4.166   6.378  15.384 -0.1779  0.3599 -2.0016
 2341TIP3    H228515   4.087   6.456  15.487  2.4128  0.5694 -0.0875
 2342TIP3   OH228516   2.303   6.189  15.671  0.3290 -0.2797 -0.3832
 2342TIP3    H128517   2.213   6.197  15.637  0.1285 -0.0564  0.1803
 2342TIP3    H228518   2.357   6.235  15.607  0.0276 -0.3421 -0.6860
 2343TIP3   OH228519   4.464   5.728   5.877 -0.1099  0.0289  0.2870
 2343TIP3    H128520   4.480   5.822   5.874  1.8078 -0.2673 -0.1673
 2343TIP3    H228521   4.378   5.719   5.918 -0.8044  2.0046 -0.6203
 2344TIP3   OH228522   1.269   2.402   1.067  0.1351  0.0187 -0.1387
 2344TIP3    H128523   1.199   2.467   1.060  0.2875  0.1071 -0.9919
 2344TIP3    H228524   1.227   2.319   1.043  0.2056 -0.0055 -0.1800
 2345TIP3   OH228525   5.366   6.376  13.586  0.2293 -0.4380  0.1011
 2345TIP3    H128526   5.323   6.306  13.537 -1.2488  0.0798  0.6076
 2345TIP3    H228527   5.436   6.407  13.528 -1.2663 -0.0401 -1.5798
 2346TIP3   OH228528   0.050   4.180   5.434 -0.7389 -0.2568  0.2942
 2346TIP3    H128529   0.041   4.252   5.371 -0.3830  0.5164  1.1054
 2346TIP3    H228530  -0.031   4.130   5.425 -0.3202 -0.7016 -1.4170
 2347TIP3   OH228531   5.052   5.177  16.229  0.2143 -0.1085  0.9080
 2347TIP3    H128532   5.056   5.267  16.263 -2.0686 -0.0210  1.0857
 2347TIP3    H228533   5.044   5.123  16.307 -0.6958 -0.2499  0.7346
 2348TIP3   OH228534   2.236   1.627   5.085  0.4371  0.5041 -0.2170
 2348TIP3    H128535   2.320   1.671   5.075  0.7509 -0.2049 -0.8484
 2348TIP3    H228536   2.204   1.616   4.995  0.1953 -0.2083 -0.0528
 2349TIP3   OH228537   3.216   1.037  14.305 -0.4267  0.4214  0.1087
 2349TIP3    H128538   3.196   0.987  14.226  0.0866  0.8130 -0.2735
 2349TIP3    H228539   3.293   0.994  14.342  0.6455  1.4969 -0.7666
 2350TIP3   OH228540   0.249   0.942  16.457  0.0933 -0.0803 -0.8327
 2350TIP3    H128541   0.226   0.920  16.547  1.5842 -2.9311 -1.0111
 2350TIP3    H228542   0.345   0.943  16.457  0.1446 -1.3190 -2.5938
 2351TIP3   OH228543   3.891   3.170   3.247 -0.6292  0.4894 -0.1796
 2351TIP3    H128544   3.808   3.130   3.273  0.4022 -1.4416  0.3770
 2351TIP3    H228545   3.924   3.211   3.327 -1.8307  2.8773 -0.8215
 2352TIP3   OH228546   4.935   1.949  13.122  0.4580 -0.3696 -0.0442
 2352TIP3    H128547   4.897   2.037  13.111  1.6376  0.6571  3.0062
 2352TIP3    H228548   4.866   1.899  13.167  1.4220  0.5612  2.6558
 2353TIP3   OH228549   5.299   3.340  10.393 -0.3774  0.1808  0.2788
 2353TIP3    H128550   5.215   3.294  10.386 -0.1245 -0.1978 -0.4593
 2353TIP3    H228551   5.303   3.395  10.315 -0.8734  1.8347  1.3715
 2354TIP3   OH228552   3.056   2.892  13.943 -0.0842  0.2403 -0.4034
 2354TIP3    H128553   3.050   2.846  13.859 -2.2442 -0.6201  0.1283
 2354TIP3    H228554   3.067   2.984  13.919  1.2141 -0.1863 -1.5706
 2355TIP3   OH228555   5.627   6.671   2.817  0.6326  0.2697  0.5616
 2355TIP3    H128556   5.658   6.706   2.901 -1.1365  2.1096  0.5244
 2355TIP3    H228557   5.695   6.694   2.754  0.7269  1.3201  1.0285
 2356TIP3   OH228558   1.202   4.686  16.236  0.3840  0.5770  0.0481
 2356TIP3    H128559   1.212   4.623  16.165 -1.8091  0.2516 -0.0267
 2356TIP3    H228560   1.204   4.771  16.193  0.1344  0.4254 -0.2643
 2357TIP3   OH228561   3.454   5.828  11.357 -0.3585  0.2865  0.0500
 2357TIP3    H128562   3.443   5.825  11.262 -1.4060  0.7513  0.1349
 2357TIP3    H228563   3.497   5.746  11.379  3.5267  1.7614 -1.1956
 2358TIP3   OH228564   1.115   6.246   6.570  0.3304  0.1001  0.6964
 2358TIP3    H128565   1.021   6.225   6.565 -0.7278  3.4183  2.9616
 2358TIP3    H228566   1.140   6.222   6.660  2.0036 -1.6236 -0.1623
 2359TIP3   OH228567   3.169   4.301  11.435  0.0484  0.2845 -0.1811
 2359TIP3    H128568   3.186   4.382  11.386 -2.1554  2.4134  2.2512
 2359TIP3    H228569   3.240   4.298  11.500  0.3707  0.0074 -0.5418
 2360TIP3   OH228570   0.797   4.606  14.759 -0.6759 -0.5442 -0.4091
 2360TIP3    H128571   0.740   4.529  14.751 -2.2009  0.3665  1.0178
 2360TIP3    H228572   0.833   4.601  14.848 -2.2422  1.2654  0.4032
 2361TIP3   OH228573   3.966   6.659  17.013 -0.6301 -0.5303 -0.1914
 2361TIP3    H128574   3.953   6.602  17.089 -0.4332  0.8780  0.9589
 2361TIP3    H228575   3.935   6.745  17.042  2.7950  0.9445 -0.3641
 2362TIP3   OH228576   6.674   1.129  12.563 -0.2825  0.2731 -0.5787
 2362TIP3    H128577   6.729   1.190  12.612  0.8904 -0.9624 -0.2869
 2362TIP3    H228578   6.628   1.183  12.499  1.6660  1.2902 -1.1831
 2363TIP3   OH228579   3.585   3.708   2.234 -0.4333 -0.5198  0.4103
 2363TIP3    H128580   3.561   3.775   2.170  1.8102  0.6272  0.6747
 2363TIP3    H228581   3.650   3.654   2.189 -0.1793 -0.8192  1.1161
 2364TIP3   OH228582   4.298   0.511   2.210  0.3582 -0.5151 -0.3870
 2364TIP3    H128583   4.317   0.440   2.272 -0.6337 -0.6554 -0.2384
 2364TIP3    H228584   4.314   0.591   2.259 -2.5156 -0.5684  0.8004
 2365TIP3   OH228585   6.657   2.982  10.893 -0.7573  0.7256  0.1434
 2365TIP3    H128586   6.681   3.074  10.904 -1.4473  0.7763  1.4477
 2365TIP3    H228587   6.737   2.934  10.912 -0.8715  0.9990  1.3801
 2366TIP3   OH228588   0.681   5.685  12.232  0.0574  0.1926  0.4587
 2366TIP3    H128589   0.599   5.650  12.197  1.4092 -0.1044 -2.7174
 2366TIP3    H228590   0.734   5.608  12.250  0.0902  0.4236  1.4101
 2367TIP3   OH228591   5.725   2.252   1.849  0.2233 -0.3346  0.3103
 2367TIP3    H128592   5.705   2.302   1.927  0.8436 -0.2636  0.4229
 2367TIP3    H228593   5.691   2.305   1.777 -0.6979 -0.5788  0.5464
 2368TIP3   OH228594   4.527   0.329   2.141 -0.2392  0.1928  0.3754
 2368TIP3    H128595   4.463   0.271   2.100 -0.6423  1.3830 -0.7668
 2368TIP3    H228596   4.478   0.409   2.160  0.7706  0.9151  0.0173
 2369TIP3   OH228597   5.904   5.671  12.488 -0.2871  0.0686  0.3952
 2369TIP3    H128598   5.954   5.590  12.487  0.9005  0.7780 -1.3111
 2369TIP3    H228599   5.815   5.645  12.467  0.1419 -0.7591 -0.4398
 2370TIP3   OH228600   1.331   0.544  14.074 -0.3586  0.0324  0.0328
 2370TIP3    H128601   1.257   0.528  14.131 -0.2279 -1.7127 -0.2507
 2370TIP3    H228602   1.329   0.473  14.010  1.0220  0.4695 -0.5430
 2371TIP3   OH228603   6.288   1.033  11.977  0.0362 -0.2071  0.2739
 2371TIP3    H128604   6.221   1.059  12.039 -0.2124 -1.7065  0.6546
 2371TIP3    H228605   6.242   0.983  11.910  0.4768  0.4290 -0.5368
 2372TIP3   OH228606   2.666   6.007   4.844 -0.0971 -0.3093 -0.0212
 2372TIP3    H128607   2.605   5.998   4.771  1.6386 -0.6206 -1.5232
 2372TIP3    H228608   2.653   5.927   4.896 -0.2545 -0.8528 -0.8808
 2373TIP3   OH228609   5.481   2.912   4.932 -0.4436 -0.3003  0.6379
 2373TIP3    H128610   5.552   2.862   4.892  1.1099  1.2448  1.3277
 2373TIP3    H228611   5.435   2.952   4.859 -1.0155 -1.7846  0.1452
 2374TIP3   OH228612   6.324   6.487  11.269  0.8397  0.3379  0.2918
 2374TIP3    H128613   6.376   6.542  11.210  0.4996 -0.1318 -0.4573
 2374TIP3    H228614   6.337   6.398  11.235 -0.8365  0.2593 -0.2197
 2375TIP3   OH228615   2.548   4.362   4.998 -0.6996 -0.3838  0.0555
 2375TIP3    H128616   2.523   4.296   5.063 -2.1892  0.7848  0.7402
 2375TIP3    H228617   2.489   4.346   4.925  0.8673 -1.5938 -1.0133
 2376TIP3   OH228618   6.708   4.250  16.583  0.1857 -0.0587 -0.1296
 2376TIP3    H128619   6.654   4.244  16.504  1.0584 -1.0816 -0.6716
 2376TIP3    H228620   6.775   4.315  16.562 -1.9614  2.8528  1.2974
 2377TIP3   OH228621   0.096   1.538   2.055  0.2876 -0.1222  0.1154
 2377TIP3    H128622   0.037   1.514   1.983 -0.2714 -2.0102  1.1351
 2377TIP3    H228623   0.180   1.498   2.031 -0.2840 -2.0479  1.1593
 2378TIP3   OH228624   6.793   6.537  15.146  0.1979 -0.2254 -0.5478
 2378TIP3    H128625   6.783   6.445  15.170 -0.3036 -0.2873 -0.9822
 2378TIP3    H228626   6.866   6.537  15.084  0.0459 -0.3574 -0.7256
 2379TIP3   OH228627   0.263   5.410   2.822 -0.1664  0.2556 -0.0168
 2379TIP3    H128628   0.179   5.379   2.856  0.4712  0.9025  2.3302
 2379TIP3    H228629   0.305   5.452   2.897  2.5826 -0.6874 -0.9307
 2380TIP3   OH228630   1.463   6.706  11.916  0.0772  0.2477 -0.1478
 2380TIP3    H128631   1.439   6.646  11.846 -1.3425 -0.9492  1.2856
 2380TIP3    H228632   1.475   6.650  11.993  1.0342  1.5662  0.7146
 2381TIP3   OH228633   1.569   1.043  12.411 -0.5303 -0.7955 -0.4062
 2381TIP3    H128634   1.583   1.135  12.392 -0.7688 -0.8870 -1.0536
 2381TIP3    H228635   1.570   1.000  12.326 -1.2875 -1.2702 -0.1878
 2382TIP3   OH228636   6.236   4.040  11.645  0.1999  0.6197 -0.1379
 2382TIP3    H128637   6.257   4.132  11.628 -0.4491  0.5852 -1.1794
 2382TIP3    H228638   6.150   4.042  11.687 -0.2805  0.4482 -1.0839
 2383TIP3   OH228639   2.312   4.835   4.074  0.3019 -0.3510  0.0008
 2383TIP3    H128640   2.218   4.823   4.061  0.6246 -1.3586 -1.7287
 2383TIP3    H228641   2.345   4.748   4.096  0.8258  0.0104  0.6765
 2384TIP3   OH228642   4.258   5.615  12.437 -0.1794 -0.3452 -0.2333
 2384TIP3    H128643   4.177   5.564  12.447  0.6182 -1.1815  3.7989
 2384TIP3    H228644   4.281   5.641  12.526  3.7483  0.3374 -1.2551
 2385TIP3   OH228645   6.342   2.749  12.272  0.0098 -0.1005  0.6123
 2385TIP3    H128646   6.274   2.805  12.235  0.9890  0.6309 -0.1591
 2385TIP3    H228647   6.311   2.728  12.360 -0.3091  1.8299  1.0059
 2386TIP3   OH228648   6.358   5.873  10.505  0.5390 -0.2336  0.4426
 2386TIP3    H128649   6.288   5.919  10.550 -0.1412 -0.3755 -0.4496
 2386TIP3    H228650   6.364   5.788  10.549 -0.4829 -0.5785 -0.0649
 2387TIP3   OH228651   1.532   3.255   0.935 -0.0751  0.6282 -0.5666
 2387TIP3    H128652   1.603   3.318   0.925  2.4731 -1.4046  2.3869
 2387TIP3    H228653   1.518   3.251   1.030 -1.4123 -1.8271 -0.7971
 2388TIP3   OH228654   0.083   2.803   1.442  0.3613  0.7550  0.5558
 2388TIP3    H128655   0.043   2.803   1.529 -1.2209  2.6744 -0.0959
 2388TIP3    H228656   0.175   2.784   1.458 -0.1319 -0.3367  2.4822
 2389TIP3   OH228657   5.446   4.511  14.572 -0.1463 -0.2015  0.7711
 2389TIP3    H128658   5.411   4.599  14.584 -2.6111 -0.9677 -0.0741
 2389TIP3    H228659   5.541   4.520  14.582 -0.1381  2.8321 -0.9423
 2390TIP3   OH228660   0.094   5.664  12.645  0.3379  0.2886  0.0698
 2390TIP3    H128661   0.125   5.639  12.558 -0.4003  0.2196 -0.1737
 2390TIP3    H228662  -0.001   5.655  12.641  0.4030 -1.4738  1.4301
 2391TIP3   OH228663   4.894   3.036   6.137  0.2701  0.5938  0.2692
 2391TIP3    H128664   4.833   2.977   6.093  1.3200  0.6608 -1.3517
 2391TIP3    H228665   4.931   2.983   6.208  1.4593 -0.9240 -1.3670
 2392TIP3   OH228666   3.781   5.009   6.445 -0.1390  0.0615  0.7310
 2392TIP3    H128667   3.834   4.932   6.424 -1.0381 -0.3745 -0.0586
 2392TIP3    H228668   3.819   5.044   6.525 -1.0125 -2.5003  2.3929
 2393TIP3   OH228669   1.297   5.282  14.955 -0.1651  1.1243  0.0380
 2393TIP3    H128670   1.358   5.333  14.902  2.7313 -1.9732  0.0406
 2393TIP3    H228671   1.305   5.192  14.921 -1.4998 -0.1952  2.8755
 2394TIP3   OH228672   3.324   5.648  13.954 -0.0439  0.7656  0.4038
 2394TIP3    H128673   3.347   5.709  14.024  0.6131  0.9708  0.0277
 2394TIP3    H228674   3.390   5.579  13.960  1.6714  2.0779 -1.5856
 2395TIP3   OH228675   0.770   5.218  13.344 -0.5382 -0.4255  0.0762
 2395TIP3    H128676   0.716   5.139  13.337  0.2591 -1.1992  1.9568
 2395TIP3    H228677   0.730   5.268  13.414 -1.3913  1.1986 -1.4939
 2396TIP3   OH228678   5.796   4.689  10.564  0.2223  0.4399  0.6075
 2396TIP3    H128679   5.725   4.702  10.501  0.7405  4.3653  0.6260
 2396TIP3    H228680   5.871   4.663  10.510 -0.6674 -1.9572  0.3968
 2397TIP3   OH228681   5.945   3.782  16.858  0.5118 -0.1730  0.1986
 2397TIP3    H128682   5.960   3.873  16.884 -1.0848 -0.0262  0.7153
 2397TIP3    H228683   5.958   3.782  16.763 -0.6719  0.8906  0.0082
 2398TIP3   OH228684   0.316   3.960   0.010  0.5317 -0.1128  0.0491
 2398TIP3    H128685   0.392   3.925  -0.036  0.5622 -1.0868  0.7993
 2398TIP3    H228686   0.305   3.902   0.086 -0.7819  0.1735  0.1085
 2399TIP3   OH228687   5.241   3.291   0.235  0.1817 -0.6459 -0.2821
 2399TIP3    H128688   5.190   3.261   0.160  2.0439  2.9240 -3.3494
 2399TIP3    H228689   5.312   3.227   0.242 -0.6116 -1.6249 -0.8377
 2400TIP3   OH228690   5.426   1.935  15.992 -0.2286  0.2216  0.3016
 2400TIP3    H128691   5.413   1.840  15.984  1.2407  0.1277 -1.2688
 2400TIP3    H228692   5.490   1.957  15.925 -0.5845  2.3610  0.5985
 2401TIP3   OH228693   3.496   3.863   0.345 -0.5357 -0.1040  0.1223
 2401TIP3    H128694   3.509   3.772   0.373  0.4653  0.4851  1.7081
 2401TIP3    H228695   3.570   3.880   0.287  0.0826  0.1013  0.9471
 2402TIP3   OH228696   2.545   0.429   2.635  0.3197  0.4438 -0.5482
 2402TIP3    H128697   2.500   0.415   2.551  1.5828  2.2398 -1.6171
 2402TIP3    H228698   2.547   0.524   2.645  0.7010  0.2774  1.2700
 2403TIP3   OH228699   4.971   3.138  11.197  0.3699 -0.4786 -0.1251
 2403TIP3    H128700   4.973   3.133  11.102 -0.4738  1.4947 -0.3013
 2403TIP3    H228701   4.878   3.125  11.220  0.5066 -0.5672  0.3958
 2404TIP3   OH228702   2.413   6.813  12.233 -0.0357  0.9567  0.0428
 2404TIP3    H128703   2.461   6.788  12.311 -2.1470  1.6609  1.6518
 2404TIP3    H228704   2.321   6.805  12.257 -0.7629  1.8396 -2.1561
 2405TIP3   OH228705   3.820   1.757  12.212  0.0868  0.4934 -0.2041
 2405TIP3    H128706   3.736   1.797  12.233  0.1295  0.5874 -0.2122
 2405TIP3    H228707   3.824   1.757  12.116 -1.2708 -2.3069 -0.3793
 2406TIP3   OH228708   3.361   6.374  13.661  0.0519 -0.0899 -0.4013
 2406TIP3    H128709   3.453   6.400  13.669 -0.0688  0.6006 -1.1165
 2406TIP3    H228710   3.319   6.411  13.739  0.3267 -0.1561 -0.2210
 2407TIP3   OH228711   2.905   5.702   2.886 -0.6033 -0.3091  0.2133
 2407TIP3    H128712   2.829   5.688   2.943 -0.4440  0.8242  0.7404
 2407TIP3    H228713   2.954   5.620   2.891 -0.7962 -0.3729  1.4053
 2408TIP3   OH228714   1.084   0.528   5.843 -1.0019 -0.4121  0.2448
 2408TIP3    H128715   1.099   0.615   5.880  2.4020 -0.6791 -0.2265
 2408TIP3    H228716   1.105   0.538   5.750 -3.1533 -1.2208 -0.3879
 2409TIP3   OH228717   2.792   5.116   5.855  0.0164 -0.5748  0.6377
 2409TIP3    H128718   2.718   5.096   5.913 -0.8866 -1.1301 -0.6685
 2409TIP3    H228719   2.785   5.054   5.783 -1.1443  2.3453 -2.0327
 2410TIP3   OH228720   1.426   4.296   0.565  0.2980 -0.5070 -0.2025
 2410TIP3    H128721   1.345   4.267   0.607 -0.5273  0.5389 -1.0216
 2410TIP3    H228722   1.401   4.373   0.515  1.8582 -0.0150 -0.2890
 2411TIP3   OH228723   0.497   6.617   1.110 -0.0046  0.4637  0.0628
 2411TIP3    H128724   0.409   6.584   1.127  0.6089 -0.8425  0.7727
 2411TIP3    H228725   0.482   6.699   1.062 -1.5760 -0.6797 -1.5488
 2412TIP3   OH228726   2.022   2.758  10.932 -0.4121 -0.3490 -0.5379
 2412TIP3    H128727   2.099   2.777  10.985  0.4374 -2.8761 -0.6870
 2412TIP3    H228728   1.949   2.759  10.994  0.3753 -1.9425  0.5112
 2413TIP3   OH228729   2.973   4.975   3.405 -0.8743 -0.1019 -0.0938
 2413TIP3    H128730   2.947   5.059   3.366 -0.1473  0.0867 -0.1898
 2413TIP3    H228731   2.973   4.991   3.499  1.5253  0.7384 -0.1524
 2414TIP3   OH228732   0.638   1.813   1.116 -0.2568  0.3021 -0.0637
 2414TIP3    H128733   0.573   1.778   1.178  0.3853 -0.8988 -0.0368
 2414TIP3    H228734   0.594   1.810   1.031 -0.1147 -0.8969 -0.1110
 2415TIP3   OH228735   1.979   3.502   3.384 -0.7509 -0.3711 -0.3581
 2415TIP3    H128736   1.976   3.583   3.433 -0.4114  1.8018 -3.5795
 2415TIP3    H228737   2.065   3.464   3.405 -0.5662  0.5268  0.5648
 2416TIP3   OH228738   4.711   6.164  14.630  0.4414  0.1826  0.2165
 2416TIP3    H128739   4.627   6.144  14.587 -0.4335  3.9452 -0.1874
 2416TIP3    H228740   4.687   6.220  14.704  2.5402  0.9597  0.3796
 2417TIP3   OH228741   4.780   4.991   0.716 -0.0493 -0.3678  0.1936
 2417TIP3    H128742   4.839   4.924   0.751 -0.4733 -1.3052 -0.8118
 2417TIP3    H228743   4.695   4.947   0.711 -0.4765  0.4540  0.1041
 2418TIP3   OH228744   4.415   6.799  16.556  0.3321 -0.2019 -0.7242
 2418TIP3    H128745   4.416   6.808  16.460 -1.2881 -0.4307 -0.7900
 2418TIP3    H228746   4.439   6.708  16.571  0.0688 -0.3078 -0.9379
 2419TIP3   OH228747   0.308   3.646  12.465  0.6582  0.2232  0.0028
 2419TIP3    H128748   0.238   3.596  12.505 -1.1347  3.0168  0.6237
 2419TIP3    H228749   0.339   3.704  12.535  0.9679  1.6602 -1.2844
 2420TIP3   OH228750   2.255   0.434   4.002 -0.0014  0.4367  0.5122
 2420TIP3    H128751   2.186   0.386   4.048 -0.6098 -1.6124 -2.2259
 2420TIP3    H228752   2.305   0.366   3.957  1.2061  2.1886 -0.9308
 2421TIP3   OH228753   5.257   1.152   1.140 -0.4210  0.5624  0.2387
 2421TIP3    H128754   5.177   1.116   1.103 -0.2939 -0.1794  0.6662
 2421TIP3    H228755   5.320   1.151   1.068  0.1467 -1.8705  0.6876
 2422TIP3   OH228756   3.547   6.338   4.786 -0.6173  0.5471 -0.2490
 2422TIP3    H128757   3.478   6.291   4.833 -0.1909 -0.1901 -0.3486
 2422TIP3    H228758   3.566   6.283   4.711 -2.0998  2.2451 -1.9868
 2423TIP3   OH228759   0.217   2.590   2.159 -0.5934 -0.1153 -0.1972
 2423TIP3    H128760   0.255   2.645   2.227 -1.1326  1.5313 -1.1644
 2423TIP3    H228761   0.126   2.579   2.186 -0.9353  0.9458 -0.8582
 2424TIP3   OH228762   3.452   4.595  16.750 -0.3090 -0.3048  0.2232
 2424TIP3    H128763   3.434   4.575  16.842 -4.7634  0.3624 -0.2519
 2424TIP3    H228764   3.405   4.677  16.734  0.0857 -0.5427 -2.6901
 2425TIP3   OH228765   5.459   5.631   2.180  0.4851  0.4943 -0.5812
 2425TIP3    H128766   5.399   5.666   2.114 -0.1917  1.2427  0.4160
 2425TIP3    H228767   5.472   5.703   2.242  0.2793 -0.5289  0.6788
 2426TIP3   OH228768   3.286   1.565  12.009  0.2423 -0.7134 -0.3631
 2426TIP3    H128769   3.315   1.652  11.982  0.1634 -1.4355 -3.1323
 2426TIP3    H228770   3.357   1.507  11.981 -0.3340 -1.6892  0.1401
 2427TIP3   OH228771   2.321   6.222  15.195 -0.3527 -1.1154  0.7422
 2427TIP3    H128772   2.302   6.164  15.269 -0.7359  0.9319  2.3349
 2427TIP3    H228773   2.319   6.310  15.233  2.2149 -0.1304 -1.1423
 2428TIP3   OH228774   4.632   5.717   5.034 -0.3401 -0.2055 -0.2883
 2428TIP3    H128775   4.593   5.667   4.962 -0.5349 -0.6448  0.1197
 2428TIP3    H228776   4.724   5.728   5.008 -0.4434 -0.2373 -0.6719
 2429TIP3   OH228777   4.529   6.299   0.953 -0.2800 -0.4357 -0.2443
 2429TIP3    H128778   4.458   6.235   0.957 -0.8585  0.2278  0.2355
 2429TIP3    H228779   4.499   6.372   1.007 -0.9039  1.5061 -3.0386
 2430TIP3   OH228780   4.542   2.190  16.458 -0.1822  0.6883 -0.4041
 2430TIP3    H128781   4.618   2.136  16.439  1.8607  3.6267 -1.2195
 2430TIP3    H228782   4.501   2.149  16.535  0.6392 -2.4405 -1.5314
 2431TIP3   OH228783   5.706   3.543   5.350 -0.1187 -0.2515 -0.1248
 2431TIP3    H128784   5.700   3.630   5.310  1.9684 -0.6867 -1.5540
 2431TIP3    H228785   5.617   3.508   5.344 -0.7551  1.3440 -0.5487
 2432TIP3   OH228786   4.348   5.002   4.429  0.5189 -0.1515 -0.1623
 2432TIP3    H128787   4.348   5.003   4.524  2.6917  1.8930 -0.0827
 2432TIP3    H228788   4.404   5.076   4.404  0.4740 -0.9447 -3.0218
 2433TIP3   OH228789   4.396   5.134  11.318 -0.1112  0.7740 -0.0296
 2433TIP3    H128790   4.405   5.138  11.222  2.1738  0.0214  0.0985
 2433TIP3    H228791   4.315   5.182  11.336 -0.8095  0.6195 -2.3606
 2434TIP3   OH228792   4.708   6.220  12.164 -0.8734 -0.3856  0.2968
 2434TIP3    H128793   4.786   6.217  12.109 -0.7912 -0.2315  0.4022
 2434TIP3    H228794   4.742   6.217  12.253 -1.0924 -3.1498  0.3728
 2435TIP3   OH228795   2.016   6.767   3.008  0.6622 -0.6835  0.3799
 2435TIP3    H128796   2.041   6.676   2.993 -0.0314 -0.7929 -0.1278
 2435TIP3    H228797   1.962   6.764   3.087 -0.2547 -0.8795 -0.2302
 2436TIP3   OH228798   3.265   0.312  15.217 -0.5317 -0.1972 -0.1617
 2436TIP3    H128799   3.339   0.302  15.276 -0.0460 -0.5080 -0.8143
 2436TIP3    H228800   3.198   0.253  15.251 -0.8472  0.7645  0.9717
 2437TIP3   OH228801   1.441   1.780  13.741 -0.4560 -0.2489 -0.2983
 2437TIP3    H128802   1.479   1.717  13.803 -1.6984 -0.3768  0.3544
 2437TIP3    H228803   1.478   1.755  13.657 -1.4049 -2.3049 -0.1730
 2438TIP3   OH228804   6.334   2.593   5.643 -0.4524 -0.1387  0.3261
 2438TIP3    H128805   6.368   2.558   5.561  2.9762  1.3964  0.8926
 2438TIP3    H228806   6.278   2.666   5.617  1.2769  0.8818 -0.7113
 2439TIP3   OH228807   5.361   5.725   3.869 -0.0111 -0.3731 -0.1348
 2439TIP3    H128808   5.275   5.765   3.862 -0.0062 -0.3734 -0.1977
 2439TIP3    H228809   5.398   5.762   3.949 -0.6516 -1.4941  0.7099
 2440TIP3   OH228810   0.666   0.745   4.121  0.2346  0.1478 -0.8036
 2440TIP3    H128811   0.717   0.665   4.119 -0.9358 -0.6246 -0.7977
 2440TIP3    H228812   0.686   0.785   4.205  1.4367  0.2844 -1.1420
 2441TIP3   OH228813   4.692   4.559  12.182  0.0294 -0.1796  0.5842
 2441TIP3    H128814   4.617   4.551  12.241 -1.8292 -1.6030 -1.7921
 2441TIP3    H228815   4.723   4.469  12.170  0.9269  0.1792  0.0769
 2442TIP3   OH228816   3.952   4.633   5.417  0.7286 -0.0305 -0.3024
 2442TIP3    H128817   3.974   4.596   5.331 -1.3989 -1.7997 -0.1652
 2442TIP3    H228818   3.864   4.602   5.435  1.8919 -1.7378  3.5854
 2443TIP3   OH228819   4.767   4.351   2.594 -0.2992  0.3517  0.1136
 2443TIP3    H128820   4.835   4.284   2.592 -0.9940 -0.3473 -1.3161
 2443TIP3    H228821   4.726   4.341   2.680  0.5393 -0.0871  0.4730
 2444TIP3   OH228822   6.677   4.183   2.874 -0.1591 -0.9234 -0.4056
 2444TIP3    H128823   6.588   4.165   2.845 -1.2376 -0.2183  2.1965
 2444TIP3    H228824   6.691   4.275   2.854  0.2309 -1.1745 -1.3363
 2445TIP3   OH228825   3.039   3.093   5.502 -0.0233  0.3821 -0.4088
 2445TIP3    H128826   3.003   3.181   5.490  2.8487  1.8037  0.4654
 2445TIP3    H228827   3.036   3.079   5.597 -0.1793 -0.3596 -0.5193
 2446TIP3   OH228828   4.067   6.554  12.904 -0.2961  0.0890 -0.1467
 2446TIP3    H128829   3.974   6.531  12.906 -0.0579 -1.2171 -1.7926
 2446TIP3    H228830   4.075   6.611  12.828  0.7580 -2.7580 -2.3566
 2447TIP3   OH228831   5.667   3.061  13.221 -0.3499  0.1393 -0.4462
 2447TIP3    H128832   5.701   2.978  13.185 -1.1558  0.3677 -1.8167
 2447TIP3    H228833   5.730   3.127  13.191 -1.5131  0.4626 -2.3692
 2448TIP3   OH228834   5.494   4.658   3.726 -0.0255 -0.1239  0.4526
 2448TIP3    H128835   5.424   4.652   3.661 -1.1292  2.0718  1.3353
 2448TIP3    H228836   5.449   4.656   3.810  1.1743 -0.5773  1.1129
 2449TIP3   OH228837   3.843   6.637   4.901 -0.0096 -0.1800 -1.0163
 2449TIP3    H128838   3.905   6.625   4.829  0.0303 -2.2889 -0.6997
 2449TIP3    H228839   3.860   6.725   4.933  1.7809 -0.1516 -1.9130
 2450TIP3   OH228840   6.535   1.482   3.317  0.1484  0.0418 -0.6168
 2450TIP3    H128841   6.445   1.486   3.285  0.1547 -0.0666 -0.6472
 2450TIP3    H228842   6.533   1.419   3.389  0.1732  0.1428 -0.5259
 2451TIP3   OH228843   1.935   1.405  15.912  0.8649 -0.0629  0.5603
 2451TIP3    H128844   1.887   1.323  15.926  1.7714 -0.3558  2.3037
 2451TIP3    H228845   2.005   1.381  15.852  2.3418 -1.1423  2.5849
 2452TIP3   OH228846   5.758   0.537  11.856 -0.5091  0.4161  0.2226
 2452TIP3    H128847   5.745   0.457  11.907  0.4222 -0.4490 -0.8338
 2452TIP3    H228848   5.684   0.537  11.794  0.7575 -0.9833 -1.3986
 2453TIP3   OH228849   4.820   4.784  14.785  0.1616 -0.0360  0.5735
 2453TIP3    H128850   4.906   4.824  14.788 -0.4382  1.2426  1.5874
 2453TIP3    H228851   4.829   4.704  14.836  0.7007  0.1835  0.8312
 2454TIP3   OH228852   5.498   0.494  15.442 -0.0826  0.1188  0.0676
 2454TIP3    H128853   5.542   0.560  15.497  0.2731 -0.2822  0.2683
 2454TIP3    H228854   5.569   0.443  15.404 -0.3702 -0.5084  0.3573
 2455TIP3   OH228855   6.519   4.105   6.552 -0.1001  0.1720 -0.4459
 2455TIP3    H128856   6.448   4.156   6.512  1.7507  2.7775 -0.6945
 2455TIP3    H228857   6.597   4.157   6.535  1.0319  1.3345  6.0053
 2456TIP3   OH228858   0.466   2.482   1.006  0.1980 -0.0504 -0.0400
 2456TIP3    H128859   0.458   2.571   0.973 -1.4829  0.3678  1.3236
 2456TIP3    H228860   0.392   2.435   0.967  2.3664 -1.5852 -2.6499
 2457TIP3   OH228861   5.039   2.597  14.485 -0.5514 -0.3499 -0.1166
 2457TIP3    H128862   5.020   2.690  14.495  0.4439 -0.0297 -1.0065
 2457TIP3    H228863   5.076   2.589  14.397 -0.3901 -1.5478  0.0354
 2458TIP3   OH228864   4.073   3.297   1.892 -0.2036 -0.5490 -0.3073
 2458TIP3    H128865   4.070   3.213   1.847 -1.0224 -0.2515 -0.8383
 2458TIP3    H228866   3.983   3.331   1.885 -0.3785 -0.5157  1.5843
 2459TIP3   OH228867   6.370   2.330  14.146  0.1843 -0.1634  0.4080
 2459TIP3    H128868   6.400   2.318  14.057 -0.4505  1.4721 -0.0786
 2459TIP3    H228869   6.296   2.270  14.156  1.5671 -1.8912  0.5718
 2460TIP3   OH228870   2.094   6.644  14.743 -0.2092 -0.5959 -0.5190
 2460TIP3    H128871   2.087   6.554  14.711  2.6826 -0.4212 -1.9500
 2460TIP3    H228872   2.005   6.679  14.736 -1.2464 -3.0763 -0.6434
 2461TIP3   OH228873   5.793   3.112   3.685 -0.3383 -0.6015 -0.6080
 2461TIP3    H128874   5.755   3.135   3.770  0.7304  4.5803 -1.1896
 2461TIP3    H228875   5.853   3.040   3.704 -1.9665 -1.3219  2.4508
 2462TIP3   OH228876   6.752   2.196  17.021  0.0177 -0.4847  0.1725
 2462TIP3    H128877   6.683   2.144  16.980  0.3202 -1.2830  0.6742
 2462TIP3    H228878   6.831   2.174  16.972  0.2513 -0.9250  0.7368
 2463TIP3   OH228879   2.820   4.675   4.151  0.0161 -0.1829 -0.9642
 2463TIP3    H128880   2.894   4.655   4.208 -1.5251 -2.3548  0.4570
 2463TIP3    H228881   2.765   4.734   4.204  0.0502  0.2907 -1.4510
 2464TIP3   OH228882   3.468   1.972   5.373  0.1494 -0.5891 -0.6895
 2464TIP3    H128883   3.478   1.967   5.468 -2.0613 -2.1777 -0.4508
 2464TIP3    H228884   3.548   2.014   5.342  0.7330  0.3811  1.9042
 2465TIP3   OH228885   1.321   2.865  11.120  0.0524 -0.4047 -0.1348
 2465TIP3    H128886   1.394   2.891  11.064  0.7318 -1.4388  0.2460
 2465TIP3    H228887   1.359   2.856  11.207 -1.1836  2.1929  0.7950
 2466TIP3   OH228888   2.375   5.722  11.071  0.2472  0.6054  0.3196
 2466TIP3    H128889   2.440   5.717  11.001 -0.5707 -1.1011 -0.3828
 2466TIP3    H228890   2.395   5.646  11.126  0.4889  1.5821  1.6147
 2467TIP3   OH228891   4.976   2.878   1.490  0.0367 -0.0334 -0.1264
 2467TIP3    H128892   4.885   2.897   1.469  0.5059  2.9793  0.1694
 2467TIP3    H228893   4.987   2.909   1.580  1.1116 -1.3720  0.2396
 2468TIP3   OH228894   4.515   0.141  12.176  0.4006  0.3507 -0.1685
 2468TIP3    H128895   4.545   0.057  12.209  1.9837  0.4717 -1.2013
 2468TIP3    H228896   4.560   0.206  12.229  0.9275  0.5278 -0.8088
 2469TIP3   OH228897   0.648   4.401  11.273  0.7113  0.1683  0.3288
 2469TIP3    H128898   0.612   4.489  11.284  1.5219  0.5086  0.3297
 2469TIP3    H228899   0.703   4.388  11.350  0.0521 -0.6211  0.6796
 2470TIP3   OH228900   4.737   3.294  16.065  0.0504  0.2746  0.6543
 2470TIP3    H128901   4.793   3.360  16.105 -1.5238  0.4893  2.6893
 2470TIP3    H228902   4.666   3.282  16.128 -2.1154 -0.1085 -1.7010
 2471TIP3   OH228903   3.821   3.999   2.107  0.0734 -0.6495  0.2270
 2471TIP3    H128904   3.896   3.988   2.165 -1.8743 -1.7357  2.7356
 2471TIP3    H228905   3.837   4.082   2.062  1.4020  0.6545  2.8897
 2472TIP3   OH228906   1.979   2.063  12.255  0.0972 -0.5624  0.0448
 2472TIP3    H128907   1.946   2.108  12.177 -1.5453 -1.5349  0.1255
 2472TIP3    H228908   1.918   2.088  12.325  1.6430  0.4241  1.0885
 2473TIP3   OH228909   3.487   3.294   1.980 -0.3978 -0.9379 -0.1142
 2473TIP3    H128910   3.560   3.329   2.030 -1.2177 -1.7333  1.7154
 2473TIP3    H228911   3.425   3.367   1.973 -0.3743 -0.8843  0.2339
 2474TIP3   OH228912   3.575   4.744   5.817  0.2023 -0.7642 -0.3558
 2474TIP3    H128913   3.563   4.649   5.813 -1.4437 -0.5861 -0.5853
 2474TIP3    H228914   3.535   4.777   5.736 -4.1356  0.4516  1.9416
 2475TIP3   OH228915   6.506   3.731   0.056  0.2363  0.8485 -0.0055
 2475TIP3    H128916   6.548   3.744   0.142  0.4234 -0.0958  0.0548
 2475TIP3    H228917   6.485   3.819   0.026 -1.9938  1.1101  2.0595
 2476TIP3   OH228918   2.712   0.177   3.313  0.5557  0.4799 -0.6588
 2476TIP3    H128919   2.733   0.085   3.299 -0.3832  0.0843  0.3918
 2476TIP3    H228920   2.754   0.199   3.396  0.0257  0.7461 -0.4577
 2477TIP3   OH228921   3.676   4.745  12.815  0.0218 -0.4580  0.3451
 2477TIP3    H128922   3.763   4.711  12.836  0.3764  0.5490  0.5443
 2477TIP3    H228923   3.671   4.740  12.719 -0.3949 -2.1452  0.4193
 2478TIP3   OH228924   1.014   0.115   0.661  0.1875  0.4972 -0.2408
 2478TIP3    H128925   1.099   0.131   0.622  0.7929  0.4551  1.0044
 2478TIP3    H228926   1.024   0.032   0.707 -0.3467  0.7694  0.3916
 2479TIP3   OH228927   6.386   0.741  15.244  0.0813 -1.0542 -0.3709
 2479TIP3    H128928   6.314   0.679  15.233  0.5366 -1.3896 -1.6361
 2479TIP3    H228929   6.355   0.802  15.311 -1.0788 -1.6171 -0.3693
 2480TIP3   OH228930   3.159   6.499  13.831  0.1259  0.4819  0.0336
 2480TIP3    H128931   3.174   6.468  13.920  0.3357 -3.8722 -1.2717
 2480TIP3    H228932   3.066   6.484  13.816  0.5312 -1.0583 -1.1423
 2481TIP3   OH228933   1.466   4.570  16.570  0.7042  0.1720 -0.2071
 2481TIP3    H128934   1.390   4.527  16.531 -0.2767  0.7837  0.9236
 2481TIP3    H228935   1.440   4.662  16.577  2.0631  0.6361 -0.9678
 2482TIP3   OH228936   3.575   4.344  16.189 -0.3465 -0.0023 -0.0419
 2482TIP3    H128937   3.574   4.439  16.189 -0.6010  0.0003  0.4139
 2482TIP3    H228938   3.529   4.320  16.270 -0.9026 -0.5104 -0.4936
 2483TIP3   OH228939   6.488   2.641  12.901 -0.1859  0.4009  0.1973
 2483TIP3    H128940   6.548   2.614  12.970  0.3195  2.6528  0.7304
 2483TIP3    H228941   6.402   2.640  12.943 -0.4136 -1.7013 -0.2321
 2484TIP3   OH228942   0.673   4.999   1.420 -0.5675  0.1591  0.1663
 2484TIP3    H128943   0.630   5.064   1.475  1.6448  0.7417  1.2983
 2484TIP3    H228944   0.693   4.926   1.479  1.2980  0.5427  0.0673
 2485TIP3   OH228945   3.405   2.788  12.512  0.7996 -0.2770 -0.4525
 2485TIP3    H128946   3.325   2.795  12.461  0.1986  1.3357  0.6490
 2485TIP3    H228947   3.381   2.816  12.600  2.1578 -1.5255  0.3844
 2486TIP3   OH228948   0.803   1.795   3.756  0.5129  0.3282  0.1884
 2486TIP3    H128949   0.729   1.847   3.726  0.0858  0.4375  1.3753
 2486TIP3    H228950   0.829   1.835   3.839  2.2142  0.5909 -0.4280
 2487TIP3   OH228951   3.095   3.930  16.754  0.4148  0.2380  0.1358
 2487TIP3    H128952   3.053   3.981  16.685  1.2723 -0.0335 -0.6105
 2487TIP3    H228953   3.031   3.863  16.778 -1.1007  2.1529  1.7690
 2488TIP3   OH228954   6.555   0.044  11.178  0.8293  0.4885  0.2239
 2488TIP3    H128955   6.538   0.068  11.087 -1.8626  0.0727  0.5409
 2488TIP3    H228956   6.570   0.127  11.222 -1.2258  1.0293 -0.0114
 2489TIP3   OH228957   2.394   3.688  12.661  0.0843 -0.7595  0.5433
 2489TIP3    H128958   2.395   3.676  12.566 -3.0174  1.3902  0.0782
 2489TIP3    H228959   2.416   3.780  12.675 -0.7868 -0.6967  1.7386
 2490TIP3   OH228960   5.083   2.437   4.802  0.1356 -0.4659  0.1039
 2490TIP3    H128961   5.174   2.455   4.777  0.3479 -0.2689  0.9905
 2490TIP3    H228962   5.082   2.446   4.897 -1.4764  2.6103 -0.1006
 2491TIP3   OH228963   0.936   1.171   0.114 -0.3764  0.1391  0.3722
 2491TIP3    H128964   0.904   1.185   0.203  0.6802  1.3744  0.5815
 2491TIP3    H228965   0.856   1.167   0.061 -1.0706 -1.6991  1.4770
 2492TIP3   OH228966   3.784   0.325  14.905  0.5535 -0.7145 -0.1150
 2492TIP3    H128967   3.704   0.308  14.857  1.4350 -1.4343 -1.3806
 2492TIP3    H228968   3.802   0.418  14.890 -1.1294  0.0265  1.9464
 2493TIP3   OH228969   0.329   2.571  16.794  0.0383 -0.3917 -0.0190
 2493TIP3    H128970   0.402   2.564  16.856 -0.3722  0.6227  0.6166
 2493TIP3    H228971   0.362   2.532  16.713  1.5749  0.7181  0.0219
 2494TIP3   OH228972   4.903   2.183  12.102  0.0641  0.0908 -0.1070
 2494TIP3    H128973   4.890   2.159  12.011 -0.4975  0.0688 -0.0285
 2494TIP3    H228974   4.817   2.213  12.131 -0.3844 -2.0757  1.0554
 2495TIP3   OH228975   3.663   2.356  13.337  0.8820  0.1565 -0.1400
 2495TIP3    H128976   3.755   2.376  13.357  1.5663 -1.1986 -1.7007
 2495TIP3    H228977   3.640   2.417  13.267 -0.1934  2.0534  1.7538
 2496TIP3   OH228978   1.504   3.549   4.485 -0.4006 -0.7107 -0.1096
 2496TIP3    H128979   1.422   3.580   4.523 -0.1918  0.8888 -0.9033
 2496TIP3    H228980   1.571   3.571   4.550 -0.3886 -0.4588 -0.2060
 2497TIP3   OH228981   4.812   3.952   2.664  0.3804  0.1474  0.1988
 2497TIP3    H128982   4.859   4.021   2.618  1.9077 -0.4537  0.8013
 2497TIP3    H228983   4.831   3.872   2.614  0.6708 -0.2315  0.9007
 2498TIP3   OH228984   4.662   2.120  11.675  0.0073 -0.0890 -0.7766
 2498TIP3    H128985   4.736   2.062  11.693  0.9148  1.1725 -0.3676
 2498TIP3    H228986   4.692   2.175  11.602  0.1605  1.6049  0.5249
 2499TIP3   OH228987   1.629   2.651   2.739  0.1234  0.0692  0.0382
 2499TIP3    H128988   1.584   2.672   2.821  0.7239 -1.4061  0.7654
 2499TIP3    H228989   1.717   2.687   2.749  0.1699 -0.0311 -0.0124
 2500TIP3   OH228990   2.913   6.840   2.415  0.3640 -0.1395 -0.2829
 2500TIP3    H128991   2.917   6.897   2.339  2.7784 -1.6914 -1.4482
 2500TIP3    H228992   3.005   6.821   2.436 -0.2760 -1.1498  1.9637
 2501TIP3   OH228993   6.646   4.862  14.743 -0.1430  0.0479  0.1938
 2501TIP3    H128994   6.662   4.956  14.734  0.6288 -0.1717 -0.8724
 2501TIP3    H228995   6.557   4.856  14.780 -0.7207  1.1777 -0.9297
 2502TIP3   OH228996   0.282   4.866  15.850 -0.6901 -0.1034 -0.4131
 2502TIP3    H128997   0.219   4.840  15.917  0.6476 -0.0763  0.8946
 2502TIP3    H228998   0.331   4.786  15.832  1.8019  0.7766  1.8314
 2503TIP3   OH228999   4.122   4.541  13.032 -0.1126 -0.2749  0.3057
 2503TIP3    H129000   4.131   4.455  12.990  0.8525 -1.0257  1.9373
 2503TIP3    H229001   4.115   4.521  13.125  0.3965  1.4341  0.7425
 2504TIP3   OH229002   2.680   3.122   1.442  1.0007  0.2671 -0.0370
 2504TIP3    H129003   2.618   3.088   1.378  0.7937  1.4094 -0.4757
 2504TIP3    H229004   2.760   3.071   1.428  1.8031  2.0923 -2.9775
 2505TIP3   OH229005   6.354   4.111   1.992 -0.4179 -0.1415  0.3421
 2505TIP3    H129006   6.340   4.205   2.005 -1.8047 -0.4322  1.1539
 2505TIP3    H229007   6.320   4.071   2.072  0.1059 -1.3401 -0.0219
 2506TIP3   OH229008   2.257   0.312  13.036  0.2172 -0.1002  0.1487
 2506TIP3    H129009   2.287   0.392  13.079  0.8452  0.7222 -1.7206
 2506TIP3    H229010   2.232   0.255  13.108 -0.7234  1.9402  1.5494
 2507TIP3   OH229011   2.419   2.046   2.042 -0.6894  0.3043 -0.2416
 2507TIP3    H129012   2.405   1.952   2.031 -0.2726  0.1159  0.7515
 2507TIP3    H229013   2.514   2.056   2.048 -0.6288  0.9847 -1.8783
 2508TIP3   OH229014   5.237   0.103   5.086 -0.3162 -0.2571  0.3447
 2508TIP3    H129015   5.329   0.078   5.088 -0.3891 -0.5774 -0.0842
 2508TIP3    H229016   5.231   0.180   5.143  0.0284 -0.8472  1.2028
 2509TIP3   OH229017   4.857   2.633   5.672 -0.0944  0.2106  0.9514
 2509TIP3    H129018   4.799   2.616   5.747 -1.0768  1.2468  0.4594
 2509TIP3    H229019   4.881   2.725   5.681 -0.7759  0.5418 -0.3630
 2510TIP3   OH229020   3.661   2.881   4.073 -0.3837  0.5298  0.0702
 2510TIP3    H129021   3.639   2.863   3.981  0.9483 -1.0961  0.0336
 2510TIP3    H229022   3.757   2.887   4.073 -0.3840  0.6287  1.3431
 2511TIP3   OH229023   6.321   3.336  13.742 -0.1872 -0.5166 -0.0516
 2511TIP3    H129024   6.393   3.391  13.771 -0.3149 -0.3244 -0.1008
 2511TIP3    H229025   6.267   3.393  13.687  0.3461 -1.0269 -1.1367
 2512TIP3   OH229026   4.674   0.541  15.453 -0.3149  0.1617 -0.0630
 2512TIP3    H129027   4.640   0.599  15.521 -1.0502  1.1019 -1.1930
 2512TIP3    H229028   4.766   0.529  15.476 -0.5823  0.3068  1.1786
 2513TIP3   OH229029   5.425   2.448   4.936  0.4152 -0.2935  0.3195
 2513TIP3    H129030   5.493   2.498   4.981 -0.3975 -0.0110  1.2750
 2513TIP3    H229031   5.444   2.356   4.958  1.8044 -0.4442 -1.2941
 2514TIP3   OH229032   6.228   5.870   0.340  0.3880 -0.2553 -0.0976
 2514TIP3    H129033   6.322   5.888   0.332  0.0785  1.3101 -0.4372
 2514TIP3    H229034   6.187   5.925   0.274 -0.9047  0.3190  1.1326
 2515TIP3   OH229035   4.253   1.513  13.190 -0.4108  0.1302 -0.1249
 2515TIP3    H129036   4.317   1.446  13.213 -2.2657 -1.4883  0.5301
 2515TIP3    H229037   4.294   1.595  13.219  1.4288 -0.8136  0.0911
 2516TIP3   OH229038   0.591   4.878  11.508 -0.4024  0.2447 -0.0647
 2516TIP3    H129039   0.572   4.957  11.457 -2.9421  1.0727  1.9535
 2516TIP3    H229040   0.511   4.827  11.503  0.4000 -1.1287  0.5814
 2517TIP3   OH229041   0.612   2.257  12.979  0.0291 -0.2951  0.0363
 2517TIP3    H129042   0.578   2.327  13.035 -0.0248  0.9711 -1.5042
 2517TIP3    H229043   0.654   2.303  12.907  0.6416 -1.8772 -0.6528
 2518TIP3   OH229044   3.099   1.752  15.412 -1.0209  0.3595 -0.3508
 2518TIP3    H129045   3.176   1.791  15.371 -1.1393 -0.4193 -1.3295
 2518TIP3    H229046   3.073   1.816  15.479 -0.2040  1.1561 -0.7733
 2519TIP3   OH229047   3.816   5.320   5.630  0.1865  0.5366  0.0112
 2519TIP3    H129048   3.893   5.290   5.677  0.5941 -1.5867 -1.8444
 2519TIP3    H229049   3.835   5.412   5.609  1.7224  0.3496  0.4934
 2520TIP3   OH229050   6.399   4.837   1.863 -0.4721  0.0028 -0.4688
 2520TIP3    H129051   6.350   4.795   1.934  0.2407 -0.0637 -0.0043
 2520TIP3    H229052   6.449   4.765   1.823 -0.0208  0.2363 -0.3229
 2521TIP3   OH229053   4.267   6.245   5.785  0.1416 -0.7495 -0.1296
 2521TIP3    H129054   4.346   6.263   5.734 -1.1294 -0.2877 -2.0280
 2521TIP3    H229055   4.274   6.152   5.807  1.3893 -0.6256  0.0948
 2522TIP3   OH229056   6.460   5.068  12.593  0.0931  0.6535  0.1261
 2522TIP3    H129057   6.396   4.998  12.586  2.1805 -1.2934 -1.1384
 2522TIP3    H229058   6.449   5.103  12.681 -3.5529  1.3976 -0.4991
 2523TIP3   OH229059   0.721   1.611   5.168  0.1024 -0.1891 -0.2846
 2523TIP3    H129060   0.709   1.643   5.257 -0.7763  0.7589 -0.7115
 2523TIP3    H229061   0.763   1.683   5.122  2.4580 -1.4114 -0.1955
 2524TIP3   OH229062   5.694   0.677  16.531 -0.6874 -0.6035  0.1232
 2524TIP3    H129063   5.733   0.710  16.612  0.6905 -0.8167 -0.4342
 2524TIP3    H229064   5.656   0.592  16.556  0.3516 -1.0037  0.4161
 2525TIP3   OH229065   1.334   2.262  15.346 -0.1570  0.1718  0.3515
 2525TIP3    H129066   1.413   2.315  15.358  0.0021  0.1283 -0.4247
 2525TIP3    H229067   1.297   2.252  15.434 -0.2999  1.7461  0.4960
 2526TIP3   OH229068   3.909   2.035   2.613  0.3479 -0.4320 -0.4648
 2526TIP3    H129069   3.976   2.086   2.658  0.6820  0.8060 -2.2492
 2526TIP3    H229070   3.879   1.972   2.678  0.6400  1.3695  1.5188
 2527TIP3   OH229071   3.098   5.548   1.447 -0.3945  0.5799  0.4453
 2527TIP3    H129072   3.108   5.462   1.407 -1.0321  0.5305  0.3697
 2527TIP3    H229073   3.149   5.544   1.528 -1.3490 -0.2682  1.0307
 2528TIP3   OH229074   1.785   2.061   1.015  0.7409  0.6690  0.3014
 2528TIP3    H129075   1.867   2.011   1.024 -0.2269 -1.4654 -1.7497
 2528TIP3    H229076   1.730   2.031   1.088  1.2965  1.1945  0.9573
 2529TIP3   OH229077   5.462   4.153   4.041 -0.0611 -0.1006 -0.0141
 2529TIP3    H129078   5.383   4.152   4.094 -0.0354 -0.3320  0.0229
 2529TIP3    H229079   5.474   4.244   4.016  0.7373  0.2605  1.5878
 2530TIP3   OH229080   5.926   6.128  15.506 -0.5737  0.1395  0.4387
 2530TIP3    H129081   5.857   6.103  15.568 -0.2211  0.3748  0.9299
 2530TIP3    H229082   6.004   6.140  15.560 -0.4078  0.9458  0.0376
 2531TIP3   OH229083   1.849   3.353  16.134  0.4254  0.3641 -0.0231
 2531TIP3    H129084   1.832   3.445  16.115 -0.2028  0.2544 -0.0154
 2531TIP3    H229085   1.762   3.313  16.138  0.6636 -0.1173  0.5373
 2532TIP3   OH229086   6.736   0.924   2.639  0.3735  0.0755 -0.0075
 2532TIP3    H129087   6.719   0.954   2.728  1.2652 -0.7691  0.4683
 2532TIP3    H229088   6.826   0.950   2.622  0.6638 -0.9634 -0.1433
 2533TIP3   OH229089   6.090   4.736  14.417 -0.1033  0.4667  0.1443
 2533TIP3    H129090   6.098   4.796  14.344 -0.3350 -0.5660 -0.7537
 2533TIP3    H229091   6.004   4.695  14.407  0.0012  0.0560  0.7864
 2534TIP3   OH229092   2.440   4.958   5.063 -0.1156  0.0921 -0.0616
 2534TIP3    H129093   2.504   5.028   5.079 -0.1065  0.0396  0.1276
 2534TIP3    H229094   2.492   4.878   5.057  0.1552  0.3826 -2.6033
 2535TIP3   OH229095   5.017   1.587  12.743  0.6384 -0.7064  0.1568
 2535TIP3    H129096   4.927   1.557  12.756  0.4812 -0.6337 -0.6661
 2535TIP3    H229097   5.026   1.665  12.797 -0.0562 -0.2485 -0.3699
 2536TIP3   OH229098   5.087   4.847  14.771  0.2876  0.3070  0.5459
 2536TIP3    H129099   5.097   4.875  14.680  2.6093  0.9244  0.9301
 2536TIP3    H229100   5.176   4.838  14.803 -0.4759 -0.5582  2.5917
 2537TIP3   OH229101   6.150   3.647  12.388 -0.4228  0.1414  0.2206
 2537TIP3    H129102   6.085   3.660  12.457  0.4557 -0.4238  1.1855
 2537TIP3    H229103   6.099   3.624  12.310 -1.3277 -2.8156  1.5298
 2538TIP3   OH229104   3.159   4.142  13.212 -0.1450 -0.0411 -0.5366
 2538TIP3    H129105   3.237   4.176  13.256 -1.2200 -0.6238  2.0216
 2538TIP3    H229106   3.178   4.050  13.197 -1.0063 -0.7402  2.0543
 2539TIP3   OH229107   4.713   5.252  16.904  0.0612 -0.3253 -0.6105
 2539TIP3    H129108   4.749   5.173  16.945 -4.0641 -1.3220  1.6701
 2539TIP3    H229109   4.666   5.219  16.827 -1.7051 -0.2424  0.3708
 2540TIP3   OH229110   0.411   6.020   2.432  0.1446  0.2269  0.3117
 2540TIP3    H129111   0.482   5.999   2.493 -0.4810  0.2415  1.0630
 2540TIP3    H229112   0.410   5.947   2.370 -0.2209 -0.5718  1.2500
 2541TIP3   OH229113   3.928   1.205   3.567  0.1676 -0.5053 -0.0084
 2541TIP3    H129114   3.934   1.175   3.476  2.6129 -0.2951  0.0236
 2541TIP3    H229115   3.849   1.162   3.601 -0.1412 -1.5316 -1.8814
 2542TIP3   OH229116   0.858   3.729   2.576  0.5147 -0.2633 -0.6590
 2542TIP3    H129117   0.903   3.706   2.495  0.1570  0.8793 -1.1959
 2542TIP3    H229118   0.891   3.816   2.599  0.0927 -0.2773  0.0406
 2543TIP3   OH229119   1.347   4.197   3.642  0.5224 -0.2720  0.1320
 2543TIP3    H129120   1.335   4.109   3.606 -0.2417 -0.4126  0.7054
 2543TIP3    H229121   1.382   4.249   3.569 -0.2771 -0.7323 -0.5902
 2544TIP3   OH229122   6.125   0.074   0.280 -0.4367 -0.0400 -0.5946
 2544TIP3    H129123   6.047   0.121   0.311 -0.2728  0.1098 -0.4116
 2544TIP3    H229124   6.119  -0.012   0.322  0.6675  0.7243  1.2159
 2545TIP3   OH229125   2.614   4.238  15.966  0.9635 -0.2856  0.3169
 2545TIP3    H129126   2.584   4.149  15.983  1.6419 -1.2529 -2.7777
 2545TIP3    H229127   2.542   4.279  15.918  1.9393 -0.4348 -1.3711
 2546TIP3   OH229128   3.047   1.186   4.190 -0.2065  0.3267 -0.0764
 2546TIP3    H129129   3.129   1.228   4.219 -0.0160  1.3258 -1.9431
 2546TIP3    H229130   2.980   1.253   4.204 -0.5496 -0.1230  0.4729
 2547TIP3   OH229131   1.065   2.349  16.101  0.1115 -0.3390 -0.3275
 2547TIP3    H129132   0.973   2.349  16.129  0.1685  0.8128 -0.0977
 2547TIP3    H229133   1.077   2.264  16.058 -0.9045 -0.7307  0.1404
 2548TIP3   OH229134   0.256   1.815   6.168  0.2135  0.1479  0.3424
 2548TIP3    H129135   0.317   1.884   6.143  1.4554  0.3178  3.3579
 2548TIP3    H229136   0.310   1.735   6.169 -0.0020 -0.0026  1.3285
 2549TIP3   OH229137   4.768   0.761  16.909 -0.4636 -0.0451  0.0117
 2549TIP3    H129138   4.771   0.735  17.001 -0.0382  2.7828  0.9100
 2549TIP3    H229139   4.771   0.679  16.860 -4.0191 -1.8932  2.4846
 2550TIP3   OH229140   6.107   4.054  14.579 -0.7249  0.6663 -0.5739
 2550TIP3    H129141   6.176   3.993  14.604 -0.8251  1.0927  0.8209
 2550TIP3    H229142   6.151   4.115  14.519 -0.1349  0.3586 -0.4656
 2551TIP3   OH229143   5.272   3.453   4.054 -0.0287 -0.0681 -0.2554
 2551TIP3    H129144   5.223   3.400   4.116  1.6846 -1.0475  0.3335
 2551TIP3    H229145   5.286   3.536   4.099 -0.5683 -0.0148 -0.1780
 2552TIP3   OH229146   4.131   5.760  15.137 -0.6032  0.3068 -0.0141
 2552TIP3    H129147   4.223   5.743  15.158 -0.9838  0.3031  1.7876
 2552TIP3    H229148   4.134   5.800  15.050  1.0592 -0.0784 -0.1798
 2553TIP3   OH229149   1.638   1.339   5.688  0.1558  0.1881  0.4894
 2553TIP3    H129150   1.694   1.414   5.669 -1.3986  1.4702  0.6873
 2553TIP3    H229151   1.689   1.285   5.748  1.5719  0.7357 -0.1832
 2554TIP3   OH229152   3.849   5.866  11.587 -0.2400 -0.0468  0.2630
 2554TIP3    H129153   3.928   5.835  11.630 -0.2841  0.6484  0.8815
 2554TIP3    H229154   3.777   5.830  11.640 -0.3352 -0.4145 -0.1102
 2555TIP3   OH229155   1.204   1.239   3.251 -0.1449  0.3892 -0.7143
 2555TIP3    H129156   1.204   1.247   3.347  0.1263 -2.2818 -0.4051
 2555TIP3    H229157   1.288   1.278   3.224  0.8322 -0.8359  0.4135
 2556TIP3   OH229158   6.322   4.081   5.908 -0.0474  0.2671  0.7771
 2556TIP3    H129159   6.293   4.171   5.898 -0.6359  0.0165  0.0855
 2556TIP3    H229160   6.417   4.086   5.917  0.0523  0.8803 -0.4250
 2557TIP3   OH229161   2.821   5.584   1.695 -0.0465 -0.2482 -0.1821
 2557TIP3    H129162   2.859   5.496   1.697  2.4626  0.6985 -1.3665
 2557TIP3    H229163   2.736   5.573   1.653  0.4444 -2.0309 -0.7804
 2558TIP3   OH229164   2.367   3.127  16.961 -0.0558 -0.2575  0.4555
 2558TIP3    H129165   2.356   3.169  16.876 -0.0238  0.5750  0.8505
 2558TIP3    H229166   2.371   3.033  16.941  2.3579  0.0232 -0.6981
 2559TIP3   OH229167   2.934   4.428  14.855 -0.1352 -0.1879 -0.1185
 2559TIP3    H129168   2.900   4.420  14.765  1.1576  1.3050 -0.7939
 2559TIP3    H229169   3.014   4.376  14.855 -0.5167 -0.7827  0.3999
 2560TIP3   OH229170   0.491   3.249  14.584 -0.1795  0.2904 -0.1278
 2560TIP3    H129171   0.553   3.202  14.640  0.0982 -0.2386 -0.8621
 2560TIP3    H229172   0.422   3.186  14.567  0.2835  0.0723 -1.2632
 2561TIP3   OH229173   5.117   3.843   1.990  0.2104  0.0697  0.9003
 2561TIP3    H129174   5.143   3.753   2.013 -1.9930 -0.2202  2.5895
 2561TIP3    H229175   5.058   3.870   2.061  0.3760  2.6724  0.1484
 2562TIP3   OH229176   3.250   0.989  12.959  0.2404  0.1526 -0.5700
 2562TIP3    H129177   3.234   0.941  12.878 -2.6907 -0.1110  0.0504
 2562TIP3    H229178   3.200   1.071  12.948  3.3905  2.2227 -0.7356
 2563TIP3   OH229179   5.466   3.239   4.231  0.6493  0.0035  0.0904
 2563TIP3    H129180   5.417   3.169   4.273  3.2216 -2.3548 -0.5104
 2563TIP3    H229181   5.450   3.316   4.286 -0.4160 -1.6253  2.1895
 2564TIP3   OH229182   1.649   3.684  17.063  0.5690 -0.1551 -0.3720
 2564TIP3    H129183   1.627   3.602  17.106  0.8695 -0.1318 -0.1667
 2564TIP3    H229184   1.576   3.701  17.004  0.9697 -1.0712 -1.1463
 2565TIP3   OH229185   0.039   0.357   4.519  0.5832 -0.0728  0.2171
 2565TIP3    H129186  -0.025   0.287   4.507  0.6319 -0.2745  1.0792
 2565TIP3    H229187   0.111   0.316   4.567  1.4792  0.0928 -0.9349
 2566TIP3   OH229188   3.579   5.036   0.336  0.1990 -0.2592 -0.1196
 2566TIP3    H129189   3.557   4.943   0.344 -0.0464 -0.2422 -0.5602
 2566TIP3    H229190   3.495   5.081   0.336  0.1912 -0.2168 -2.1400
 2567TIP3   OH229191   3.665   0.292   3.060 -0.2731 -0.0002 -0.8459
 2567TIP3    H129192   3.672   0.282   2.965 -0.8483  1.4058 -1.0619
 2567TIP3    H229193   3.630   0.380   3.072 -3.5945 -1.3714  0.5546
 2568TIP3   OH229194   2.223   0.547  14.975  0.1120  0.0344 -0.1177
 2568TIP3    H129195   2.242   0.640  14.981  0.2553 -0.0020  0.0128
 2568TIP3    H229196   2.155   0.532  15.042 -1.2227  0.3742 -1.3422
 2569TIP3   OH229197   2.427   2.372  12.865 -0.1878 -0.9803 -0.1785
 2569TIP3    H129198   2.354   2.310  12.856  0.0021 -0.9995 -1.8995
 2569TIP3    H229199   2.492   2.342  12.802 -0.0156  0.8663 -0.9211
 2570TIP3   OH229200   4.238   3.638   4.420 -0.2905  0.4808 -0.0992
 2570TIP3    H129201   4.181   3.617   4.345  0.9706 -0.9219 -0.7211
 2570TIP3    H229202   4.227   3.563   4.479  0.3776  0.5310  0.0886
 2571TIP3   OH229203   0.940   3.426  15.657  0.0384  0.7656 -0.0873
 2571TIP3    H129204   0.914   3.404  15.568 -0.6558 -0.0638  0.3049
 2571TIP3    H229205   0.937   3.343  15.704 -0.0702  1.2728  0.8190
 2572TIP3   OH229206   2.473   1.732  16.264  0.0455  0.0377 -0.4448
 2572TIP3    H129207   2.394   1.737  16.318  0.3099 -1.4444  0.1376
 2572TIP3    H229208   2.468   1.646  16.221  2.3832 -1.1504  1.3780
 2573TIP3   OH229209   0.558   0.460  13.207 -0.3445 -0.6938 -1.0172
 2573TIP3    H129210   0.645   0.461  13.167 -0.1050  0.4946 -0.5081
 2573TIP3    H229211   0.499   0.437  13.135  0.4401 -2.2023 -1.2155
 2574TIP3   OH229212   1.715   3.615  14.541  0.0665 -0.0097 -1.0266
 2574TIP3    H129213   1.692   3.707  14.557 -1.1103 -0.3125 -0.8823
 2574TIP3    H229214   1.679   3.596  14.454 -0.5452 -0.5941 -0.6569
 2575TIP3   OH229215   1.239   1.390  12.984 -0.0758  0.0303  0.1259
 2575TIP3    H129216   1.208   1.300  12.995 -2.5796  0.9987  1.7695
 2575TIP3    H229217   1.245   1.425  13.072 -1.4910  2.1617 -0.5461
 2576TIP3   OH229218   1.067   4.598   4.392 -0.5069  0.5320 -0.1300
 2576TIP3    H129219   0.985   4.626   4.351 -1.0693 -0.9401 -0.0917
 2576TIP3    H229220   1.039   4.546   4.467  0.4535 -0.1896 -0.2518
 2577TIP3   OH229221   5.919   4.425  16.261 -0.1267 -0.2590 -0.2021
 2577TIP3    H129222   5.943   4.340  16.225 -0.6702 -0.7733  0.6295
 2577TIP3    H229223   5.888   4.475  16.185  0.8576 -0.5353 -0.8199
 2578TIP3   OH229224   2.807   1.252   5.952 -0.2092  0.2446 -0.5200
 2578TIP3    H129225   2.821   1.344   5.927  2.0887  0.5366  1.4718
 2578TIP3    H229226   2.894   1.212   5.944 -1.0290 -1.6145 -0.6392
 2579TIP3   OH229227   5.061   1.600  12.187 -0.5995  0.4323  0.2167
 2579TIP3    H129228   5.134   1.543  12.162 -2.2525 -1.2092 -1.1577
 2579TIP3    H229229   5.038   1.646  12.107  0.1778  2.5163  1.1213
 2580TIP3   OH229230   3.819   0.631   6.502 -0.3529 -0.1403  0.0951
 2580TIP3    H129231   3.797   0.708   6.554  2.7006  1.9807 -1.5220
 2580TIP3    H229232   3.889   0.588   6.551  0.4283  0.1659 -0.7275
 2581TIP3   OH229233   2.802   2.755   0.096  0.0595 -0.1969 -0.3840
 2581TIP3    H129234   2.763   2.838   0.123  0.7702 -0.5782  2.1137
 2581TIP3    H229235   2.738   2.689   0.124  1.2363 -0.6667  1.3691
 2582TIP3   OH229236   6.146   1.324   5.131  0.1424  0.1619  0.1637
 2582TIP3    H129237   6.052   1.334   5.149  0.6802  1.2627  2.8809
 2582TIP3    H229238   6.165   1.392   5.067 -1.0571 -0.7686 -1.2555
 2583TIP3   OH229239   4.096   2.359  16.269  0.1702 -0.9823 -0.0359
 2583TIP3    H129240   4.038   2.385  16.340 -2.5054 -2.5360 -1.4647
 2583TIP3    H229241   4.151   2.291  16.306  2.0962  1.3589  1.6977
 2584TIP3   OH229242   1.907   3.657  16.743  0.2862  0.0364 -0.0218
 2584TIP3    H129243   1.941   3.605  16.671  1.6070  1.5702 -0.5767
 2584TIP3    H229244   1.816   3.675  16.719  1.2659  2.3790 -2.5517
 2585TIP3   OH229245   6.390   6.804   3.790  0.0409  0.0569  0.0570
 2585TIP3    H129246   6.462   6.837   3.843 -0.0538  0.4037 -0.0308
 2585TIP3    H229247   6.426   6.797   3.701 -0.1333  0.5492 -0.0512
 2586TIP3   OH229248   4.717   4.229  11.532  0.2266 -0.3430  0.6689
 2586TIP3    H129249   4.655   4.301  11.540 -1.5169 -1.7864  0.6970
 2586TIP3    H229250   4.769   4.250  11.455 -1.5907 -0.0166 -0.5148
 2587TIP3   OH229251   5.662   6.783   4.981  0.8115  0.4323 -0.0521
 2587TIP3    H129252   5.610   6.806   4.904  1.7435  0.9031 -0.5536
 2587TIP3    H229253   5.714   6.707   4.953  0.6356  0.1599  0.3456
 2588TIP3   OH229254   0.376   6.253   2.727  0.6327  0.3546  0.0383
 2588TIP3    H129255   0.423   6.177   2.760  0.4520 -0.3954 -1.3397
 2588TIP3    H229256   0.441   6.300   2.674  0.1761 -0.0090 -0.8549
 2589TIP3   OH229257   4.058   5.327  13.105 -0.3486 -0.6241 -0.1862
 2589TIP3    H129258   4.000   5.366  13.170 -1.3998 -1.2691 -0.7045
 2589TIP3    H229259   3.999   5.286  13.042  0.6390  0.1806 -1.6834
 2590TIP3   OH229260   3.674   1.075  16.568 -0.0393 -0.2186  0.1845
 2590TIP3    H129261   3.640   0.993  16.533  0.0731 -0.0403 -0.3528
 2590TIP3    H229262   3.747   1.097  16.511  1.9451 -1.3253  2.1305
 2591TIP3   OH229263   0.268   6.115   1.867  0.1144 -0.2560  0.0873
 2591TIP3    H129264   0.298   6.203   1.845 -2.3550  0.5084 -0.4933
 2591TIP3    H229265   0.265   6.069   1.784 -0.6094 -0.2240  0.0947
 2592TIP3   OH229266   2.964   5.228  10.555  0.1597  0.0606  0.3046
 2592TIP3    H129267   2.997   5.138  10.548  0.6567  0.3056 -0.5460
 2592TIP3    H229268   2.982   5.252  10.646 -0.1208 -0.7530  0.5862
 2593TIP3   OH229269   1.185   0.120   3.343  0.1833 -0.3338  0.2450
 2593TIP3    H129270   1.185   0.124   3.439  0.2413 -0.9358  0.2774
 2593TIP3    H229271   1.115   0.057   3.323  1.8388 -2.2086  0.0043
 2594TIP3   OH229272   1.211   5.568  13.954  0.4351  0.0885 -0.1594
 2594TIP3    H129273   1.258   5.520  14.022 -1.2875 -1.1102  0.2443
 2594TIP3    H229274   1.182   5.500  13.893 -0.6093  0.7946 -0.4803
 2595TIP3   OH229275   0.315   3.001   2.242  0.3080 -0.0307 -0.2170
 2595TIP3    H129276   0.335   2.918   2.198  0.7664  0.3326 -0.7086
 2595TIP3    H229277   0.394   3.020   2.293  1.2269  1.3196 -2.0162
 2596TIP3   OH229278   4.095   2.360  15.067  0.0534 -0.4934  0.2532
 2596TIP3    H129279   4.073   2.443  15.110  2.4634  0.4961 -0.2725
 2596TIP3    H229280   4.175   2.332  15.110 -0.0044 -1.8825 -0.5011
 2597TIP3   OH229281   6.484   4.721  13.378 -0.6926 -0.2050 -0.1254
 2597TIP3    H129282   6.522   4.724  13.466 -0.5289 -0.7055 -0.1762
 2597TIP3    H229283   6.399   4.764  13.388  0.5732  2.5916 -0.3947
 2598TIP3   OH229284   5.164   2.898  16.927  0.4089 -0.3198 -0.1324
 2598TIP3    H129285   5.203   2.921  17.011  1.0998  1.6583 -0.9390
 2598TIP3    H229286   5.238   2.883  16.869  0.1970  3.5076 -1.6915
 2599TIP3   OH229287   5.161   1.375  12.931 -0.4380 -0.2552 -0.1903
 2599TIP3    H129288   5.226   1.338  12.871 -1.5139 -2.0206 -0.3238
 2599TIP3    H229289   5.085   1.394  12.875 -0.8413 -0.3215  0.3277
 2600TIP3   OH229290   1.371   2.048   2.145  0.6769 -0.0331  0.6608
 2600TIP3    H129291   1.320   2.129   2.138 -1.0919 -1.2136 -1.1252
 2600TIP3    H229292   1.447   2.063   2.089  0.6295  0.5655  0.7526
 2601TIP3   OH229293   6.139   3.623  16.552 -0.2673 -0.1031  0.5445
 2601TIP3    H129294   6.092   3.706  16.540  0.7481  0.8481  2.5002
 2601TIP3    H229295   6.227   3.641  16.517 -0.6577 -1.1098 -1.0165
 2602TIP3   OH229296   4.716   6.599   1.546 -0.4471 -0.6100  0.3825
 2602TIP3    H129297   4.751   6.574   1.460  0.1160 -0.4521  0.5596
 2602TIP3    H229298   4.706   6.694   1.541 -0.1823 -0.5712  0.5722
 2603TIP3   OH229299   4.865   4.742   0.776 -0.1114  0.0283  0.2182
 2603TIP3    H129300   4.793   4.698   0.729 -1.4873  3.1199 -0.8294
 2603TIP3    H229301   4.826   4.770   0.859  0.9037 -1.1078  1.1157
 2604TIP3   OH229302   4.016   1.058   1.624 -0.4713 -0.2332  0.0952
 2604TIP3    H129303   4.006   1.064   1.529 -0.5388 -1.4485  0.0163
 2604TIP3    H229304   3.950   1.119   1.658 -1.3643 -0.7574 -0.6241
 2605TIP3   OH229305   3.077   0.134   1.639 -0.1745 -0.0859  0.4981
 2605TIP3    H129306   3.081   0.171   1.727 -0.8051  0.5428  0.2699
 2605TIP3    H229307   3.147   0.068   1.637  1.2862  1.3912  0.7803
 2606TIP3   OH229308   2.899   3.323   3.877 -0.3612 -0.2743  0.1741
 2606TIP3    H129309   2.816   3.369   3.868  0.0770  0.5366  0.2656
 2606TIP3    H229310   2.933   3.350   3.962  1.0206  1.0963 -0.7754
 2607TIP3   OH229311   0.088   6.425  12.120 -0.1677  0.1361 -0.7475
 2607TIP3    H129312   0.098   6.365  12.046  1.0672  0.3362 -0.7667
 2607TIP3    H229313   0.103   6.370  12.197 -1.6977 -0.1232 -0.6174
 2608TIP3   OH229314   0.901   1.858   4.464 -0.2775  0.6337 -0.0809
 2608TIP3    H129315   0.984   1.864   4.417  0.4415 -1.1882  0.8811
 2608TIP3    H229316   0.913   1.914   4.541  0.6907 -0.8604  0.8924
 2609TIP3   OH229317   4.106   0.438   3.154 -0.6753 -0.1096  0.1412
 2609TIP3    H129318   4.154   0.506   3.202  0.6487  0.3857 -1.8041
 2609TIP3    H229319   4.058   0.485   3.087 -0.7140 -0.9944 -0.4686
 2610TIP3   OH229320   4.379   5.861   0.248 -0.1737  0.4166  0.2601
 2610TIP3    H129321   4.443   5.822   0.307 -0.1886  0.4473  0.2967
 2610TIP3    H229322   4.427   5.877   0.167  0.0126  0.9627  0.4726
 2611TIP3   OH229323   1.471   4.454  11.166 -0.1984 -0.1808 -0.1188
 2611TIP3    H129324   1.535   4.483  11.102 -0.3458 -1.0127 -0.6566
 2611TIP3    H229325   1.483   4.359  11.171 -0.2159 -0.1330  1.0591
 2612TIP3   OH229326   2.603   6.311   2.889  0.7109 -1.0965  0.0108
 2612TIP3    H129327   2.597   6.305   2.984  1.7187 -1.5224  0.0650
 2612TIP3    H229328   2.532   6.369   2.863  1.9663  1.1231  1.2599
 2613TIP3   OH229329   3.436   4.608  11.331 -0.0808  0.3325 -0.4174
 2613TIP3    H129330   3.405   4.621  11.242 -1.3473 -0.3459 -0.0991
 2613TIP3    H229331   3.435   4.513  11.343 -0.5189  0.4437  0.5147
 2614TIP3   OH229332   3.971   4.694   5.679  0.1334 -0.2622 -0.1548
 2614TIP3    H129333   3.983   4.691   5.584 -1.2685 -0.0600 -0.3634
 2614TIP3    H229334   3.947   4.785   5.698 -3.1275 -0.9930 -0.1427
 2615TIP3   OH229335   5.886   1.246   0.698  0.4494  0.2152 -0.3792
 2615TIP3    H129336   5.911   1.154   0.692  1.0866  0.2569  1.2893
 2615TIP3    H229337   5.967   1.293   0.716 -0.0040  0.9950 -0.2955
 2616TIP3   OH229338   4.664   6.783  12.787 -0.1233 -0.4541 -0.1681
 2616TIP3    H129339   4.572   6.796  12.764 -0.0166 -1.2811 -1.1514
 2616TIP3    H229340   4.692   6.712  12.730  1.7603  1.2908 -1.5582
 2617TIP3   OH229341   2.705   0.974   5.820 -0.7152  0.2384  0.4290
 2617TIP3    H129342   2.641   1.041   5.843  0.8053  2.2637 -0.8295
 2617TIP3    H229343   2.772   1.021   5.769  1.2180 -1.9538  0.7564
 2618TIP3   OH229344   2.207   0.948   5.982  0.2485  0.3555 -0.1239
 2618TIP3    H129345   2.246   0.870   5.941 -1.6503 -0.2143 -0.9857
 2618TIP3    H229346   2.234   1.021   5.926  0.4125  0.0403 -0.4571
 2619TIP3   OH229347   0.976   0.214  13.707 -0.6514  0.0426  0.4093
 2619TIP3    H129348   0.960   0.185  13.797  0.2872  0.3606  0.6895
 2619TIP3    H229349   0.931   0.298  13.700  0.0965  0.4983  0.9046
 2620TIP3   OH229350   3.945   0.522  12.636 -0.1540 -0.0452 -0.9033
 2620TIP3    H129351   3.922   0.596  12.692 -0.3267 -0.7148 -0.0735
 2620TIP3    H229352   4.039   0.532  12.621 -0.1070  0.1456 -0.4952
 2621TIP3   OH229353   2.584   2.497   1.086  0.1561 -0.0795  0.5610
 2621TIP3    H129354   2.550   2.493   1.175  0.2078  0.9173  0.6332
 2621TIP3    H229355   2.525   2.555   1.039  1.3191  1.1100  0.5063
 2622TIP3   OH229356   2.974   0.780   0.626  0.2520  0.3233  0.3095
 2622TIP3    H129357   2.940   0.709   0.573 -0.1633 -0.1746  1.2127
 2622TIP3    H229358   3.029   0.737   0.692  0.0946  0.8386  0.7877
 2623TIP3   OH229359   0.857   5.877   4.743 -0.3066  0.2946  0.5704
 2623TIP3    H129360   0.838   5.808   4.806 -0.6264  0.1252  0.2915
 2623TIP3    H229361   0.773   5.898   4.703 -0.2426  0.9782  0.7830
 2624TIP3   OH229362   5.637   3.518  15.259 -0.2276 -1.0779 -0.1049
 2624TIP3    H129363   5.605   3.570  15.185  1.4801 -1.2934 -1.0641
 2624TIP3    H229364   5.723   3.487  15.230 -0.4795 -3.0425  1.0938
 2625TIP3   OH229365   4.873   3.864  13.863 -0.0046  0.1138  0.0287
 2625TIP3    H129366   4.914   3.905  13.787 -2.0770 -0.3755 -1.4521
 2625TIP3    H229367   4.780   3.863  13.841 -0.6810  0.0374  2.6507
 2626TIP3   OH229368   5.408   5.159  10.480 -0.1359 -0.2208  0.7671
 2626TIP3    H129369   5.411   5.085  10.419 -0.0355 -0.1121  0.6394
 2626TIP3    H229370   5.337   5.214  10.446  1.4227  1.0508 -0.6602
 2627TIP3   OH229371   2.188   0.599   2.637  0.0445  0.5471  0.2772
 2627TIP3    H129372   2.278   0.585   2.608 -0.5861 -0.5421 -1.2311
 2627TIP3    H229373   2.173   0.531   2.703  0.5485  1.2392  1.1429
 2628TIP3   OH229374   2.927   0.040  11.337 -0.2883  0.1371 -0.0708
 2628TIP3    H129375   2.908  -0.048  11.304 -1.7790 -0.1748  1.5017
 2628TIP3    H229376   3.019   0.036  11.363 -0.5381 -1.2185  0.7141
 2629TIP3   OH229377   2.062   6.491  12.087 -0.1774 -0.1602  0.1822
 2629TIP3    H129378   2.123   6.448  12.146 -0.5348 -0.0561  0.6318
 2629TIP3    H229379   2.116   6.518  12.012  0.4308  0.4551  0.8344
 2630TIP3   OH229380   2.284   6.324  13.409 -0.0423 -0.3484  0.2351
 2630TIP3    H129381   2.358   6.282  13.364  0.3464  0.9383 -0.3622
 2630TIP3    H229382   2.226   6.251  13.431  1.0296 -1.2999  0.0269
 2631TIP3   OH229383   2.068   4.914   1.464 -0.0340  0.0898  0.6991
 2631TIP3    H129384   2.122   4.963   1.402 -1.1763  0.8702  0.2654
 2631TIP3    H229385   2.122   4.905   1.542  0.6506  0.9785  0.3444
 2632TIP3   OH229386   0.442   4.991   5.085  0.1937 -0.5788  0.1203
 2632TIP3    H129387   0.357   5.015   5.048  0.1044 -1.4724 -0.2839
 2632TIP3    H229388   0.493   5.072   5.082 -0.0060 -0.4672 -1.4470
 2633TIP3   OH229389   3.219   2.011   5.700  0.0544 -0.0628  0.1555
 2633TIP3    H129390   3.261   1.947   5.756  1.7356  0.7380 -0.1474
 2633TIP3    H229391   3.206   2.088   5.756 -1.0230 -0.2950  0.2439
 2634TIP3   OH229392   2.473   4.389   0.237  0.1077 -0.0024  0.2249
 2634TIP3    H129393   2.542   4.422   0.179  1.4782 -1.8854  0.6860
 2634TIP3    H229394   2.409   4.351   0.177  0.7248 -0.5104 -0.1268
 2635TIP3   OH229395   3.009   4.445   1.156  0.2472 -0.5329  0.3110
 2635TIP3    H129396   3.097   4.421   1.185  1.0817 -1.3093 -2.5584
 2635TIP3    H229397   3.022   4.520   1.099 -1.1653  0.2337  0.9372
 2636TIP3   OH229398   0.660   0.292   0.276  0.2874 -0.0102 -0.1479
 2636TIP3    H129399   0.733   0.309   0.335  1.7134 -1.8639 -1.2816
 2636TIP3    H229400   0.697   0.302   0.188 -0.9731 -0.3772 -0.7426
 2637TIP3   OH229401   2.816   2.981  15.954 -0.4293  0.1972 -0.3170
 2637TIP3    H129402   2.845   3.056  15.903  0.9301  1.4419  2.1300
 2637TIP3    H229403   2.847   2.905  15.905  1.9048  1.3557 -0.7733
 2638TIP3   OH229404   3.156   2.952   2.668 -0.1314 -0.0887  0.0226
 2638TIP3    H129405   3.140   2.912   2.753 -1.1057  1.1432  0.4394
 2638TIP3    H229406   3.073   2.991   2.643  0.9966  2.6253  0.1510
 2639TIP3   OH229407   1.509   6.727  13.109  0.2132 -0.1034 -0.5135
 2639TIP3    H129408   1.460   6.649  13.082  1.8222 -1.0707 -0.7604
 2639TIP3    H229409   1.578   6.736  13.043  1.4892  0.1333  0.7954
 2640TIP3   OH229410   1.327   4.285  10.964  0.2424  0.2326 -0.0340
 2640TIP3    H129411   1.334   4.250  10.875 -1.4948  0.1102 -0.1632
 2640TIP3    H229412   1.284   4.370  10.954 -1.8279 -0.6490  0.7924
 2641TIP3   OH229413   4.369   5.567   0.523  0.4144 -0.4886  0.4504
 2641TIP3    H129414   4.312   5.552   0.448  1.4718  0.4744 -0.5922
 2641TIP3    H229415   4.310   5.596   0.592 -0.7056 -2.2721  0.3166
 2642TIP3   OH229416   4.006   2.970  14.316 -0.0893 -0.0635 -0.0889
 2642TIP3    H129417   4.080   2.946  14.372  2.1153  1.8564 -1.9961
 2642TIP3    H229418   4.039   2.961  14.227 -2.8232 -0.9701 -1.1174
 2643TIP3   OH229419   5.874   5.598  16.974  0.1640  0.2251 -0.6391
 2643TIP3    H129420   5.893   5.532  16.907 -0.7018  0.4505 -1.1213
 2643TIP3    H229421   5.928   5.674  16.948  1.0338 -0.2157 -0.1771
 2644TIP3   OH229422   3.338   0.032   4.157  0.3799  0.1509  0.1184
 2644TIP3    H129423   3.278   0.020   4.230  1.9463 -0.0999  1.4104
 2644TIP3    H229424   3.406  -0.034   4.170  1.6978  1.3303 -0.4954
 2645TIP3   OH229425   0.139   5.895   0.534  0.6019  0.4076  0.0840
 2645TIP3    H129426   0.162   5.827   0.470 -0.0948  0.4643 -0.2352
 2645TIP3    H229427   0.222   5.914   0.579  0.5782 -1.5041  1.0215
 2646TIP3   OH229428   1.212   6.406  11.414  0.0168 -0.3076  0.5386
 2646TIP3    H129429   1.143   6.462  11.380  0.6902 -0.0583 -0.4460
 2646TIP3    H229430   1.290   6.429  11.363  0.1828 -2.5483 -0.3494
 2647TIP3   OH229431   2.723   5.638  16.501 -0.1414 -0.3273 -0.2299
 2647TIP3    H129432   2.797   5.622  16.443 -0.2515  1.1872 -0.8405
 2647TIP3    H229433   2.760   5.636  16.589  0.6464  0.4642 -0.5371
 2648TIP3   OH229434   5.855   6.144  15.884  0.2093 -0.3789 -0.1535
 2648TIP3    H129435   5.845   6.206  15.812  1.0914 -0.6224 -0.4993
 2648TIP3    H229436   5.813   6.186  15.959 -0.4789 -0.0042 -0.7382
 2649TIP3   OH229437   5.924   4.074  15.956  0.3349 -0.8882 -0.1182
 2649TIP3    H129438   5.843   4.091  15.908  0.3194 -0.1144  0.1707
 2649TIP3    H229439   5.993   4.084  15.891  0.2974 -0.0690 -0.0375
 2650TIP3   OH229440   3.125   4.876   5.059 -0.3537  0.6607  0.1942
 2650TIP3    H129441   3.153   4.960   5.097 -0.2617  0.9078 -0.4042
 2650TIP3    H229442   3.192   4.814   5.086  0.0964  0.9844 -0.1432
 2651TIP3   OH229443   0.560   5.214  12.036  0.0553  0.4636 -0.6511
 2651TIP3    H129444   0.605   5.198  12.119 -0.4576  2.2139  0.0074
 2651TIP3    H229445   0.629   5.241  11.976  0.2891  0.2340 -0.4849
 2652TIP3   OH229446   2.619   3.886  16.847  0.4218 -0.0626  0.0179
 2652TIP3    H129447   2.536   3.840  16.863 -0.0111  0.3410 -1.0416
 2652TIP3    H229448   2.686   3.819  16.863 -0.1568 -0.7383 -0.3276
 2653TIP3   OH229449   2.797   1.404  14.183  0.1179  0.2531  0.0753
 2653TIP3    H129450   2.855   1.331  14.207 -0.3193 -0.2482 -0.3872
 2653TIP3    H229451   2.715   1.386  14.228  0.0986  0.6107  0.1868
 2654TIP3   OH229452   6.436   6.631   0.006 -0.5903  0.6490 -0.3291
 2654TIP3    H129453   6.361   6.616  -0.052 -1.6406  0.7905  0.9377
 2654TIP3    H229454   6.416   6.713   0.051  0.0097  0.3667  0.4860
 2655TIP3   OH229455   5.732   3.896   0.835 -0.0896 -0.1715  0.1751
 2655TIP3    H129456   5.814   3.927   0.873  0.7851 -2.0078 -0.1082
 2655TIP3    H229457   5.748   3.804   0.814 -2.3042 -0.6539  0.3191
 2656TIP3   OH229458   6.571   6.685   5.120 -0.1494 -0.4359  0.2043
 2656TIP3    H129459   6.636   6.722   5.060  0.1156 -1.3362 -0.0749
 2656TIP3    H229460   6.618   6.616   5.166 -0.7946 -0.8088  0.3112
 2657TIP3   OH229461   4.669   3.337  13.146  0.1498 -0.2022  0.1856
 2657TIP3    H129462   4.600   3.331  13.079  1.4198 -2.1745 -1.0505
 2657TIP3    H229463   4.693   3.429  13.148 -0.6083  0.0611 -1.3777
 2658TIP3   OH229464   4.144   6.263   4.211  0.0662 -0.0792  0.1383
 2658TIP3    H129465   4.151   6.184   4.158  1.6422  1.2574 -1.8097
 2658TIP3    H229466   4.120   6.332   4.149 -1.6351  0.9553  1.8350
 2659TIP3   OH229467   3.159   5.241   0.015 -0.1656 -0.0280  0.1011
 2659TIP3    H129468   3.117   5.303   0.075 -0.1791 -1.1764  1.3416
 2659TIP3    H229469   3.249   5.272   0.008 -0.7768  1.5495 -1.3199
 2660TIP3   OH229470   0.814   4.666  16.208 -0.3456  0.0750 -0.1605
 2660TIP3    H129471   0.879   4.628  16.268 -0.4597  3.2261  2.2417
 2660TIP3    H229472   0.818   4.611  16.130  4.2144 -0.7495  0.3732
 2661TIP3   OH229473   1.060   2.213  15.489  1.0305  0.1513  0.1261
 2661TIP3    H129474   1.063   2.157  15.412  0.2175  2.3084 -1.5749
 2661TIP3    H229475   1.028   2.157  15.559 -1.1334 -1.1999 -1.8047
 2662TIP3   OH229476   5.997   0.628   3.514  0.7392 -0.1866 -0.3340
 2662TIP3    H129477   5.989   0.539   3.479  0.2748 -0.0317 -0.6260
 2662TIP3    H229478   6.039   0.616   3.599  1.3033 -0.6224 -0.6656
 2663TIP3   OH229479   1.725   3.980   0.165  0.1018 -0.7347  0.2697
 2663TIP3    H129480   1.725   4.026   0.249  1.5648  0.5840 -0.3934
 2663TIP3    H229481   1.671   4.035   0.108  2.7555  0.9074 -0.8350
 2664TIP3   OH229482   6.013   4.093  13.589  0.0042 -0.3039 -0.3275
 2664TIP3    H129483   6.085   4.035  13.563 -0.9149 -3.0892  2.7528
 2664TIP3    H229484   6.051   4.181  13.581  2.9456 -1.4987 -1.1002
 2665TIP3   OH229485   4.009   1.418  16.707 -0.3224  0.0069 -0.1450
 2665TIP3    H129486   4.066   1.359  16.756 -1.2372  1.0367  2.3723
 2665TIP3    H229487   4.066   1.491  16.683 -0.1456  0.1584  0.6965
 2666TIP3   OH229488   2.724   2.634   0.407 -0.1626  0.3623 -0.1070
 2666TIP3    H129489   2.807   2.602   0.371  0.2620  1.5297 -0.2007
 2666TIP3    H229490   2.713   2.721   0.368 -2.0531 -0.2532 -1.0908
 2667TIP3   OH229491   3.049   2.887  14.908  0.1720  0.1818 -0.2387
 2667TIP3    H129492   2.966   2.858  14.945  0.6995 -1.1142 -0.0158
 2667TIP3    H229493   3.098   2.920  14.983  0.3998 -0.4078 -0.1189
 2668TIP3   OH229494   5.239   3.346  16.165 -0.9461  0.4026  0.5978
 2668TIP3    H129495   5.184   3.281  16.121 -1.7290  0.8177  0.9303
 2668TIP3    H229496   5.327   3.329  16.134 -1.1225 -0.8999  0.7760
 2669TIP3   OH229497   5.831   4.955   1.997  0.6839 -0.1901 -0.0140
 2669TIP3    H129498   5.898   4.990   2.056 -0.0601  1.7523 -0.2442
 2669TIP3    H229499   5.851   4.995   1.912  0.2548 -0.9667 -0.4930
 2670TIP3   OH229500   0.988   4.836  11.743 -0.4186 -0.2338  0.0225
 2670TIP3    H129501   1.034   4.911  11.781 -0.7037 -0.1218  0.1474
 2670TIP3    H229502   1.038   4.815  11.664 -1.2399  1.0977 -0.8949
 2671TIP3   OH229503   4.292   3.039  12.790 -0.2096 -0.4925 -0.2206
 2671TIP3    H129504   4.219   3.086  12.832  1.5932  0.4510  2.1239
 2671TIP3    H229505   4.283   2.949  12.821 -0.3893 -0.3899  0.0311
 2672TIP3   OH229506   6.090   3.591  10.812 -0.7817  0.0225 -0.1855
 2672TIP3    H129507   6.176   3.549  10.812 -0.5495  0.4158 -2.0012
 2672TIP3    H229508   6.028   3.517  10.811 -0.4556 -0.2590  0.0659
 2673TIP3   OH229509   0.893   2.305  11.295  0.2398 -0.5773 -0.1648
 2673TIP3    H129510   0.853   2.227  11.334  1.0306 -1.3059 -0.7806
 2673TIP3    H229511   0.987   2.291  11.304  0.3994  0.0031 -0.8561
 2674TIP3   OH229512   4.213   2.253  15.996  0.3987  0.1660 -0.6321
 2674TIP3    H129513   4.282   2.216  16.050  0.2104 -0.3385 -0.7331
 2674TIP3    H229514   4.233   2.347  15.993 -0.1125  0.3646  1.0629
 2675TIP3   OH229515   6.793   5.658   6.028 -0.5593  0.3369  0.3579
 2675TIP3    H129516   6.766   5.576   5.986  0.8782 -0.0083  0.0806
 2675TIP3    H229517   6.713   5.689   6.072 -1.5053 -0.4372 -0.7537
 2676TIP3   OH229518   3.373   4.794   3.693  0.0775 -0.8693  0.1345
 2676TIP3    H129519   3.348   4.783   3.784 -0.6917  3.1298  0.5883
 2676TIP3    H229520   3.467   4.812   3.695 -0.2671  1.1680  0.4810
 2677TIP3   OH229521   0.064   0.646  10.516  0.6464 -0.5812  0.3535
 2677TIP3    H129522   0.128   0.650  10.444 -1.5193 -0.3791 -1.6776
 2677TIP3    H229523   0.088   0.566  10.564  0.5290 -2.3382 -2.3012
 2678TIP3   OH229524   3.432   1.328   4.824 -0.3226  0.5566 -0.8275
 2678TIP3    H129525   3.449   1.305   4.733 -1.5276 -0.2395 -0.8707
 2678TIP3    H229526   3.349   1.286   4.845  0.6285 -0.5098  1.0832
 2679TIP3   OH229527   4.186   1.951  11.448  0.5272  0.0147  0.0619
 2679TIP3    H129528   4.163   1.859  11.453  1.9803 -0.3782  0.0531
 2679TIP3    H229529   4.156   1.988  11.531  0.6876 -0.6515  0.4253
 2680TIP3   OH229530   1.082   0.938  13.198  0.3496  0.0848  0.1335
 2680TIP3    H129531   0.993   0.935  13.233  1.1674 -0.2718  2.3417
 2680TIP3    H229532   1.115   0.849  13.209  0.7238 -0.0019 -1.4662
 2681TIP3   OH229533   5.362   3.826  15.369  0.4189  0.1994  0.0283
 2681TIP3    H129534   5.305   3.788  15.302 -0.1101 -0.0350  0.6007
 2681TIP3    H229535   5.402   3.901  15.326 -1.2909  1.1355 -0.0124
 2682TIP3   OH229536   2.378   1.784  13.656  0.5153  0.2028  0.0545
 2682TIP3    H129537   2.374   1.769  13.562 -1.5474  1.3096 -0.1116
 2682TIP3    H229538   2.362   1.698  13.695 -0.2418  0.0067 -0.6547
 2683TIP3   OH229539   4.265   5.966   4.798  0.0300 -0.7189  0.0291
 2683TIP3    H129540   4.343   5.957   4.853 -0.8617 -2.3436  1.1150
 2683TIP3    H229541   4.239   5.876   4.779 -1.9965 -0.2471  0.3302
 2684TIP3   OH229542   3.292   2.278   4.864 -0.1731  0.6667 -0.0695
 2684TIP3    H129543   3.344   2.354   4.839  0.2950  1.0452  1.8890
 2684TIP3    H229544   3.205   2.313   4.881 -0.0195  0.7368  0.5947
 2685TIP3   OH229545   1.047   6.257  14.715 -0.0131 -0.0134  0.4435
 2685TIP3    H129546   1.101   6.205  14.655 -0.7663 -2.2793  1.6204
 2685TIP3    H229547   0.975   6.289  14.660 -1.1758 -2.7661  0.1624
 2686TIP3   OH229548   2.035   2.819  10.666  0.2371  0.0618  0.0885
 2686TIP3    H129549   1.959   2.872  10.640  0.5024 -0.0847 -1.0387
 2686TIP3    H229550   2.021   2.801  10.759 -0.8219  0.5090  0.0294
 2687TIP3   OH229551   0.784   2.412  14.677  0.7301  0.3217 -0.0075
 2687TIP3    H129552   0.842   2.393  14.750  3.1008  0.7242 -1.6344
 2687TIP3    H229553   0.836   2.390  14.599 -1.7525 -0.3595 -1.5951
 2688TIP3   OH229554   4.696   6.515   5.479  0.0962 -0.2717 -0.6331
 2688TIP3    H129555   4.614   6.537   5.435  0.9104  1.7642 -1.2648
 2688TIP3    H229556   4.670   6.479   5.563 -1.4465 -0.9773 -1.3832
 2689TIP3   OH229557   5.936   4.129  15.330 -0.1620  0.1637 -0.4376
 2689TIP3    H129558   6.026   4.129  15.362 -0.6213 -0.2348  0.9458
 2689TIP3    H229559   5.889   4.189  15.389 -0.8139  0.3316 -1.1047
 2690TIP3   OH229560   6.807   1.290   6.387 -1.0919 -0.1694 -0.5073
 2690TIP3    H129561   6.842   1.317   6.471 -0.0544 -0.9573 -0.6581
 2690TIP3    H229562   6.857   1.211   6.364  0.4398  1.3894 -2.9984
 2691TIP3   OH229563   5.335   4.265   0.200  0.2561  0.0270  0.1374
 2691TIP3    H129564   5.318   4.332   0.267  3.1386  0.9785  0.0653
 2691TIP3    H229565   5.258   4.266   0.144 -0.7011  1.7326  1.3971
 2692TIP3   OH229566   1.065   0.930   3.231 -0.7853  0.2315  0.4154
 2692TIP3    H129567   1.052   0.978   3.312  0.9240  1.6469 -0.1103
 2692TIP3    H229568   1.154   0.952   3.203 -0.9101 -1.1476 -1.2385
 2693TIP3   OH229569   1.089   5.381  13.793 -0.0870  0.8100  0.2526
 2693TIP3    H129570   1.004   5.349  13.765 -0.4643  0.8686  1.2710
 2693TIP3    H229571   1.116   5.318  13.861 -0.2526  1.9082  1.3705
 2694TIP3   OH229572   2.413   4.218  15.409  0.0673 -0.1494  0.2740
 2694TIP3    H129573   2.391   4.189  15.498  0.5020 -0.4031  0.2981
 2694TIP3    H229574   2.474   4.152  15.376  0.3320  0.2340 -0.0147
 2695TIP3   OH229575   3.006   3.352   2.676 -0.0148  0.2800  0.4302
 2695TIP3    H129576   3.085   3.360   2.621  0.3419  0.9674  1.0232
 2695TIP3    H229577   2.947   3.419   2.642 -0.5913 -0.6385 -0.4038
 2696TIP3   OH229578   3.795   6.343   3.209 -0.0920  0.2035 -0.0901
 2696TIP3    H129579   3.882   6.377   3.190 -0.2819 -0.0984 -1.5979
 2696TIP3    H229580   3.806   6.296   3.292  1.2415 -0.0506 -0.3876
 2697TIP3   OH229581   4.923   5.135  14.368  0.0791  0.0132 -0.2322
 2697TIP3    H129582   4.855   5.109  14.430 -1.5885  2.0996 -1.0635
 2697TIP3    H229583   4.902   5.086  14.288 -0.2343  0.3895 -0.3804
 2698TIP3   OH229584   6.067   6.030  13.655  0.5652 -0.5242  0.0149
 2698TIP3    H129585   6.022   6.057  13.575 -0.7306 -0.7919  0.6243
 2698TIP3    H229586   6.159   6.044  13.636  0.1351  1.7767 -0.6262
 2699TIP3   OH229587   4.730   2.129  15.294  0.4504  0.5970  0.7665
 2699TIP3    H129588   4.767   2.074  15.363  0.4803  0.1829  0.4188
 2699TIP3    H229589   4.765   2.216  15.312  2.5845 -0.0009 -0.2560
 2700TIP3   OH229590   5.930   5.670  11.741  0.2147  0.8103  0.2860
 2700TIP3    H129591   5.847   5.714  11.760 -1.2395 -1.7308  0.1883
 2700TIP3    H229592   5.923   5.642  11.650  1.1103  0.4222  0.3193
 2701TIP3   OH229593   3.514   4.533  15.070 -0.2406  0.0498  0.1758
 2701TIP3    H129594   3.558   4.595  15.128 -0.9497  0.3881  0.3587
 2701TIP3    H229595   3.585   4.495  15.017  0.2345  0.7767  0.2799
 2702TIP3   OH229596   6.318   5.814   3.487  0.0655 -0.0028  0.1575
 2702TIP3    H129597   6.313   5.900   3.445 -0.2025  0.4307  1.0639
 2702TIP3    H229598   6.260   5.821   3.563  1.5265 -0.3395  1.3557
 2703TIP3   OH229599   3.364   2.035  15.387 -0.4952 -0.2710 -0.4582
 2703TIP3    H129600   3.417   2.109  15.358  0.0300 -0.7594 -0.7548
 2703TIP3    H229601   3.426   1.977  15.432 -1.3186  0.6025  1.9546
 2704TIP3   OH229602   1.489   6.354   1.568 -0.8641 -0.4962  0.8767
 2704TIP3    H129603   1.545   6.367   1.492 -1.5642  0.6557  0.5383
 2704TIP3    H229604   1.504   6.431   1.623 -2.3351  0.0001  0.6274
 2705TIP3   OH229605   0.258   5.572   2.614 -0.0256 -0.1220  0.3721
 2705TIP3    H129606   0.233   5.651   2.663 -1.7618  0.4857 -1.3647
 2705TIP3    H229607   0.227   5.500   2.668  1.9743  0.2816  2.2017
 2706TIP3   OH229608   0.973   3.800   4.519 -0.4244 -0.2283 -1.1604
 2706TIP3    H129609   1.055   3.847   4.534  0.0096 -1.0352 -0.9805
 2706TIP3    H229610   0.905   3.858   4.555  0.2319 -0.3826  0.3575
 2707TIP3   OH229611   0.439   2.962  12.929 -0.1305 -0.2057 -0.3074
 2707TIP3    H129612   0.426   3.050  12.892  0.4176  0.3470  0.7583
 2707TIP3    H229613   0.405   2.969  13.019 -1.8827 -1.6450 -0.7960
 2708TIP3   OH229614   0.981   0.117   0.959  0.5232 -0.4170 -0.5151
 2708TIP3    H129615   1.073   0.130   0.980  0.1211  0.9069  0.6197
 2708TIP3    H229616   0.972   0.147   0.868  1.3591 -1.4797 -0.9736
 2709TIP3   OH229617   6.234   0.420  14.717  0.4648  0.0790 -0.2826
 2709TIP3    H129618   6.211   0.503  14.758 -0.5016  1.0240 -2.5674
 2709TIP3    H229619   6.153   0.389  14.677  0.6298 -2.3891  1.1371
 2710TIP3   OH229620   2.329   2.332  10.709 -0.3024  1.1583  0.2489
 2710TIP3    H129621   2.313   2.243  10.678  2.6587  0.3302  0.7509
 2710TIP3    H229622   2.250   2.356  10.757 -1.1050 -1.2863  0.2589
 2711TIP3   OH229623   1.064   6.015   2.476 -0.2105 -0.1419 -0.0353
 2711TIP3    H129624   1.076   5.980   2.564 -1.1608  0.2391  0.2664
 2711TIP3    H229625   0.979   6.060   2.480 -0.6094 -0.7357 -1.3443
 2712TIP3   OH229626   1.825   4.015  14.508  0.0558  0.2748  0.1627
 2712TIP3    H129627   1.892   4.009  14.440  0.1607  0.0503  0.2839
 2712TIP3    H229628   1.810   4.108  14.519  1.6638  0.4376  1.4076
 2713TIP3   OH229629   2.472   3.373  12.427 -0.2253  0.3484  0.2761
 2713TIP3    H129630   2.493   3.425  12.504 -0.8792  1.6346 -0.3766
 2713TIP3    H229631   2.443   3.289  12.462  1.3674  0.1988  1.3373
 2714TIP3   OH229632   5.574   0.946   3.651 -0.1827 -0.3765  0.8926
 2714TIP3    H129633   5.587   1.034   3.616 -0.7041 -1.1452 -1.3845
 2714TIP3    H229634   5.662   0.917   3.676  0.0844  0.5442  1.0575
 2715TIP3   OH229635   4.190   3.010  12.258 -0.0340 -0.4279  0.0070
 2715TIP3    H129636   4.263   3.038  12.314  0.7990 -1.9488 -0.2522
 2715TIP3    H229637   4.123   3.078  12.270  1.1267  0.6227  0.8298
 2716TIP3   OH229638   4.774   5.762  11.662  0.6327 -0.2161 -0.4160
 2716TIP3    H129639   4.785   5.734  11.753  1.2309  1.9687  0.2443
 2716TIP3    H229640   4.680   5.753  11.645  0.4048  0.0340  0.6601
 2717TIP3   OH229641   1.877   3.502  12.310 -0.4650  0.2099  0.2887
 2717TIP3    H129642   1.923   3.555  12.246  1.2485 -0.9988  0.4639
 2717TIP3    H229643   1.809   3.560  12.345 -1.7057  0.8032 -2.8002
 2718TIP3   OH229644   6.521   1.726   1.476  0.1923 -0.0471  0.5138
 2718TIP3    H129645   6.594   1.786   1.464 -0.2934  0.3937 -0.3266
 2718TIP3    H229646   6.547   1.646   1.430 -0.2674  0.4777 -0.7200
 2719TIP3   OH229647   2.469   6.505   2.572 -0.1328 -0.9214  0.3200
 2719TIP3    H129648   2.538   6.531   2.633 -0.3924 -1.9603  1.0698
 2719TIP3    H229649   2.390   6.548   2.605  0.2229  0.7210 -0.8529
 2720TIP3   OH229650   1.601   4.070   1.913 -0.5579  0.2706  0.0397
 2720TIP3    H129651   1.555   4.094   1.993 -0.6721  0.2309 -0.0137
 2720TIP3    H229652   1.684   4.032   1.943 -0.3577  0.7602  0.1234
 2721TIP3   OH229653   4.373   1.685   4.512 -0.3912  0.2134 -0.1785
 2721TIP3    H129654   4.333   1.762   4.553  0.5331  0.9877 -0.6911
 2721TIP3    H229655   4.467   1.703   4.515 -0.0598 -1.4916  0.8580
 2722TIP3   OH229656   1.868   5.231  12.493 -0.1731  0.2491  0.1233
 2722TIP3    H129657   1.801   5.180  12.447  1.0287 -1.0296 -0.2540
 2722TIP3    H229658   1.880   5.309  12.439  1.8255 -1.5947 -2.3536
 2723TIP3   OH229659   6.340   6.659  15.842 -0.2580 -0.0815 -0.9469
 2723TIP3    H129660   6.417   6.606  15.821  2.6657  3.2951  0.2591
 2723TIP3    H229661   6.336   6.658  15.938  0.5288  2.5310 -0.8212
 2724TIP3   OH229662   3.057   2.854  16.138  0.3283  0.3877  0.3295
 2724TIP3    H129663   2.978   2.809  16.107  1.2249 -0.1133 -1.3423
 2724TIP3    H229664   3.033   2.946  16.139 -0.0514  0.3171 -0.9161
 2725TIP3   OH229665   4.805   3.370  14.669 -0.3300  0.0404  0.5879
 2725TIP3    H129666   4.788   3.279  14.645  0.4532 -0.7136  2.6302
 2725TIP3    H229667   4.844   3.408  14.591 -1.8479 -0.9986 -0.7341
 2726TIP3   OH229668   0.602   3.301   5.169  0.4146 -0.6338 -0.0891
 2726TIP3    H129669   0.577   3.352   5.246  0.0708 -2.0193  0.7466
 2726TIP3    H229670   0.693   3.275   5.185  0.2212 -1.2505  0.0560
 2727TIP3   OH229671   0.705   2.131  16.882  0.4248 -0.0437 -0.1742
 2727TIP3    H129672   0.792   2.129  16.923 -0.1750  1.7354  1.3300
 2727TIP3    H229673   0.716   2.185  16.804  0.6785  0.1942  0.0255
 2728TIP3   OH229674   3.706   2.524   5.689  0.5713 -0.1560  0.2783
 2728TIP3    H129675   3.697   2.525   5.784  2.0100 -1.0047  0.4493
 2728TIP3    H229676   3.691   2.432   5.664 -2.1131  0.4234 -0.6207
 2729TIP3   OH229677   5.399   5.242   5.669  0.2679  0.1683  0.0765
 2729TIP3    H129678   5.487   5.229   5.703  0.4854 -1.7064 -1.0872
 2729TIP3    H229679   5.409   5.241   5.574 -0.8562  1.2711 -0.0852
 2730TIP3   OH229680   2.689   6.718  15.958 -0.3960 -0.4808  0.3579
 2730TIP3    H129681   2.736   6.688  16.036  2.0162  1.4083 -0.2409
 2730TIP3    H229682   2.704   6.648  15.894  1.7421  0.0266  0.2000
 2731TIP3   OH229683   3.774   4.627  13.408  0.0473  0.2021  0.1997
 2731TIP3    H129684   3.682   4.645  13.425 -1.3169 -3.5737 -1.9988
 2731TIP3    H229685   3.794   4.551  13.463  1.5380  0.2926 -0.1817
 2732TIP3   OH229686   3.950   4.463  16.210 -0.0674  0.7034 -0.4935
 2732TIP3    H129687   3.926   4.373  16.186  0.0855  0.4664  0.2330
 2732TIP3    H229688   3.887   4.488  16.277 -0.8015  1.5502 -1.4750
 2733TIP3   OH229689   2.740   1.432  15.551 -0.0316 -0.8424 -0.2536
 2733TIP3    H129690   2.788   1.472  15.624 -0.7695  0.4281 -0.4281
 2733TIP3    H229691   2.656   1.406  15.589 -0.5605  0.1479 -0.6949
 2734TIP3   OH229692   3.235   6.302   0.004  1.1586  0.1763  0.0025
 2734TIP3    H129693   3.220   6.380  -0.050 -1.6188 -0.0571  0.3072
 2734TIP3    H229694   3.233   6.229  -0.059 -1.4708 -0.0406  0.2422
 2735TIP3   OH229695   2.796   6.798  13.283  0.1237  0.0846 -0.0379
 2735TIP3    H129696   2.848   6.750  13.347  2.1158 -0.0593 -1.6440
 2735TIP3    H229697   2.745   6.731  13.237 -0.2441  0.0256  0.4491
 2736TIP3   OH229698   4.336   0.271   2.361  0.1101 -0.2818 -0.2599
 2736TIP3    H129699   4.373   0.185   2.342 -0.0725 -0.9375  2.0295
 2736TIP3    H229700   4.369   0.293   2.449 -0.9963  1.3315 -0.1915
 2737TIP3   OH229701   5.163   1.923  16.077  0.2951 -0.0074 -0.1723
 2737TIP3    H129702   5.135   2.015  16.076 -0.3359 -0.1943 -1.3668
 2737TIP3    H229703   5.243   1.922  16.023  0.2201 -0.1796 -0.2806
 2738TIP3   OH229704   3.875   1.187  11.328 -0.7409 -0.3728 -0.1005
 2738TIP3    H129705   3.934   1.261  11.317  1.3380 -1.9095  0.0638
 2738TIP3    H229706   3.825   1.208  11.407  1.6925 -0.2528  1.5322
 2739TIP3   OH229707   2.264   3.501   1.029  0.0741 -0.0815  0.5165
 2739TIP3    H129708   2.249   3.586   0.988 -1.8975  0.2465  1.7482
 2739TIP3    H229709   2.210   3.440   0.979 -0.5027 -0.1070  1.1475
 2740TIP3   OH229710   1.582   1.037  16.076  0.4575 -0.1727  0.3298
 2740TIP3    H129711   1.600   1.083  15.994  1.0466 -0.3829  0.3334
 2740TIP3    H229712   1.599   0.945  16.057 -0.0481 -0.3099  0.5107
 2741TIP3   OH229713   0.238   3.968  16.782 -0.2110 -0.4241 -0.1962
 2741TIP3    H129714   0.167   3.963  16.718 -0.8930 -0.0947  0.5127
 2741TIP3    H229715   0.208   4.032  16.846  0.9819  0.1494 -0.1790
 2742TIP3   OH229716   4.639   4.294  13.358 -0.0449 -0.3759 -0.5007
 2742TIP3    H129717   4.596   4.358  13.414 -0.1015 -0.6408 -0.2432
 2742TIP3    H229718   4.703   4.345  13.309  0.8136 -0.3337  0.6313
 2743TIP3   OH229719   1.770   5.475  13.861  0.3061  0.3023 -0.5293
 2743TIP3    H129720   1.690   5.528  13.863  0.9919  1.3431  0.1642
 2743TIP3    H229721   1.758   5.411  13.932 -0.2378 -0.0479 -0.9316
 2744TIP3   OH229722   1.669   0.779  15.695  0.6742  0.1950 -0.1102
 2744TIP3    H129723   1.726   0.824  15.757  0.8801 -1.3217  0.8546
 2744TIP3    H229724   1.643   0.847  15.632  1.6087  1.4448  0.8076
 2745TIP3   OH229725   2.174   3.278   5.883 -0.0773 -0.0604 -0.2756
 2745TIP3    H129726   2.167   3.254   5.975 -1.5877 -1.0576 -0.6099
 2745TIP3    H229727   2.268   3.289   5.868  0.1609  0.8278  1.5293
 2746TIP3   OH229728   5.128   6.786   2.960  0.2920  0.2604 -0.1780
 2746TIP3    H129729   5.088   6.851   2.902  0.3303  0.0098 -0.4855
 2746TIP3    H229730   5.058   6.761   3.020 -0.3263 -0.9368 -1.3564
 2747TIP3   OH229731   6.014   0.207  15.163 -0.0026  0.1351 -0.3092
 2747TIP3    H129732   6.092   0.164  15.198 -0.5256 -0.3120  0.3354
 2747TIP3    H229733   5.987   0.267  15.232 -0.2777  0.2294 -0.4974
 2748TIP3   OH229734   3.789   4.185   4.265  0.1682  0.4409 -0.3578
 2748TIP3    H129735   3.697   4.160   4.267  0.4309 -0.5555 -0.4465
 2748TIP3    H229736   3.815   4.176   4.174  0.2795  1.0348 -0.3918
 2749TIP3   OH229737   2.056   4.500  16.405  0.1070  0.4336 -0.4918
 2749TIP3    H129738   2.120   4.513  16.475 -0.6759 -0.0111  0.3225
 2749TIP3    H229739   2.076   4.568  16.341  1.4473  0.2476 -0.2971
 2750TIP3   OH229740   3.510   4.490   3.197 -0.0485 -0.2390 -0.7645
 2750TIP3    H129741   3.549   4.573   3.225  1.1362 -0.3063 -2.0734
 2750TIP3    H229742   3.466   4.456   3.275  0.3106  1.1296  0.0615
 2751TIP3   OH229743   0.188   4.323  12.494 -0.4063 -0.2607  0.2514
 2751TIP3    H129744   0.231   4.257  12.440  2.5220  0.3297  1.7199
 2751TIP3    H229745   0.167   4.277  12.575 -1.1789 -0.1057  0.1545
 2752TIP3   OH229746   6.109   2.573   1.626 -0.5476 -0.2361  0.1471
 2752TIP3    H129747   6.017   2.590   1.605 -1.0763 -0.3652  2.1606
 2752TIP3    H229748   6.141   2.519   1.553 -1.9273  0.1579 -0.7925
 2753TIP3   OH229749   0.990   0.787   4.490 -0.3208  0.0700 -0.4133
 2753TIP3    H129750   1.065   0.785   4.430 -0.8313 -0.3497 -1.0620
 2753TIP3    H229751   1.020   0.740   4.568 -0.1599 -0.8433 -1.0016
 2754TIP3   OH229752   3.274   3.912  16.506  0.5000 -0.0046 -0.1367
 2754TIP3    H129753   3.204   3.876  16.561  1.3011 -0.2415  0.7506
 2754TIP3    H229754   3.282   4.003  16.534 -0.5301  0.5010 -1.3723
 2755TIP3   OH229755   0.161   2.493   4.465  0.9661  0.3717  0.9023
 2755TIP3    H129756   0.066   2.477   4.462  0.8546  1.1156 -0.3842
 2755TIP3    H229757   0.200   2.407   4.447  0.4658  0.5138 -1.1130
 2756TIP3   OH229758   1.261   0.687  15.740  0.1203 -0.7322 -0.2329
 2756TIP3    H129759   1.306   0.606  15.714  0.3167 -0.7506  0.1552
 2756TIP3    H229760   1.309   0.756  15.694 -0.0395 -0.8313 -0.5543
 2757TIP3   OH229761   6.042   1.331   0.383  0.6631 -0.0106  0.4779
 2757TIP3    H129762   6.060   1.296   0.296  0.8946 -2.1941  1.3361
 2757TIP3    H229763   6.007   1.419   0.367  1.3844 -0.0760 -1.7545
 2758TIP3   OH229764   3.571   3.623   5.055  0.1100 -0.3855  0.3178
 2758TIP3    H129765   3.501   3.558   5.044  1.3293 -1.8679  0.9607
 2758TIP3    H229766   3.539   3.681   5.124  0.3307 -2.3161  2.1469
 2759TIP3   OH229767   6.162   4.453   1.016 -0.2197 -0.6091  0.5181
 2759TIP3    H129768   6.102   4.518   1.053  0.7078  0.0154  0.9548
 2759TIP3    H229769   6.104   4.387   0.978 -1.1915 -0.6160  1.9235
 2760TIP3   OH229770   3.336   6.761  14.648 -0.0316 -0.2429 -0.3152
 2760TIP3    H129771   3.357   6.674  14.681 -1.5441 -0.0670  1.2519
 2760TIP3    H229772   3.258   6.748  14.595  1.3387 -0.2274 -2.4541
 2761TIP3   OH229773   5.159   5.394   0.597  0.5310  0.8278 -0.0366
 2761TIP3    H129774   5.195   5.328   0.656 -0.0335 -0.8762 -1.5036
 2761TIP3    H229775   5.235   5.429   0.550  0.6988  0.1264 -0.2994
 2762TIP3   OH229776   0.105   4.720  16.040  0.1723  0.7497 -0.6298
 2762TIP3    H129777   0.060   4.691  16.119 -1.0726  2.5203 -0.6201
 2762TIP3    H229778   0.135   4.639  15.998 -1.0472 -0.3578  0.5392
 2763TIP3   OH229779   0.491   6.333  10.550  0.2626 -0.2394 -0.2872
 2763TIP3    H129780   0.399   6.346  10.526 -0.8693 -2.7525  2.1746
 2763TIP3    H229781   0.503   6.389  10.626  1.8287  2.4688 -2.3399
 2764TIP3   OH229782   2.538   5.546  14.911 -0.0557 -0.1811  0.0634
 2764TIP3    H129783   2.516   5.490  14.985 -1.5622  0.3026  0.0162
 2764TIP3    H229784   2.493   5.507  14.836  1.1171 -0.4305 -0.5367
 2765TIP3   OH229785   4.760   0.707  13.089  0.5376 -0.1040 -0.3909
 2765TIP3    H129786   4.751   0.628  13.036 -1.4382  0.4422 -0.9554
 2765TIP3    H229787   4.672   0.746  13.090  0.9581  0.9630  1.6550
 2766TIP3   OH229788   1.742   6.321   2.138  0.9695 -0.2977  0.9096
 2766TIP3    H129789   1.664   6.316   2.082  0.8905 -0.4809  1.0357
 2766TIP3    H229790   1.808   6.364   2.084 -0.0541  2.5358  1.7151
 2767TIP3   OH229791   1.144   0.506  16.893  0.7342 -0.3220 -0.3638
 2767TIP3    H129792   1.180   0.536  16.977  1.1259  0.4870 -0.8080
 2767TIP3    H229793   1.049   0.506  16.907  0.8287 -1.0083  0.3399
 2768TIP3   OH229794   2.026   6.555   5.062  0.3824 -0.0191 -0.6377
 2768TIP3    H129795   2.043   6.489   4.994 -0.1437 -0.5388 -0.2834
 2768TIP3    H229796   2.016   6.637   5.014 -1.2358 -0.5773 -1.3418
 2769TIP3   OH229797   0.015   4.016  14.175  0.0044  0.1505  0.3496
 2769TIP3    H129798   0.007   3.968  14.092 -1.1082  0.6228  0.1675
 2769TIP3    H229799  -0.031   3.961  14.239 -1.0025  0.8052  0.2056
 2770TIP3   OH229800   2.360   2.934   5.680 -0.0314  0.0440  0.2292
 2770TIP3    H129801   2.294   3.003   5.691 -0.3217 -0.4119  1.3991
 2770TIP3    H229802   2.424   2.972   5.619 -0.0697  1.4451  1.0261
 2771TIP3   OH229803   4.218   5.118   5.777 -0.0120 -0.1627 -0.4171
 2771TIP3    H129804   4.218   5.025   5.801 -0.2019 -0.2114 -0.6091
 2771TIP3    H229805   4.279   5.158   5.839 -0.6158 -0.2637  0.2630
 2772TIP3   OH229806   6.806   0.729   5.824  0.1224  0.4423  0.6936
 2772TIP3    H129807   6.732   0.740   5.884  0.2867  1.1259  0.7783
 2772TIP3    H229808   6.881   0.718   5.882  0.0184 -0.8161  0.6096
 2773TIP3   OH229809   1.763   0.934  11.338 -1.1248  0.2832  0.0554
 2773TIP3    H129810   1.721   0.943  11.252  0.3458  2.0686 -0.5534
 2773TIP3    H229811   1.775   0.840  11.349 -1.7476 -0.0126 -1.4906
 2774TIP3   OH229812   1.763   6.696  11.329 -0.1042 -0.0643 -0.5568
 2774TIP3    H129813   1.829   6.632  11.356  2.4353  1.3125 -2.8954
 2774TIP3    H229814   1.725   6.728  11.411  2.7475 -0.4032  1.0301
 2775TIP3   OH229815   3.999   0.494  16.321  0.4307 -0.4864  0.6737
 2775TIP3    H129816   4.042   0.567  16.366  1.5058 -0.4548 -0.3627
 2775TIP3    H229817   4.022   0.417  16.373  0.0589 -0.2225  1.2478
 2776TIP3   OH229818   1.373   3.062   3.875 -0.4098 -0.5933 -0.2886
 2776TIP3    H129819   1.350   3.087   3.785 -1.1073 -3.5595 -1.0378
 2776TIP3    H229820   1.454   3.013   3.867 -0.0460 -0.2133  0.8444
 2777TIP3   OH229821   0.888   1.619  13.264  0.4430  0.6249 -0.2284
 2777TIP3    H129822   0.865   1.701  13.309 -2.8194 -0.0912 -0.2974
 2777TIP3    H229823   0.843   1.551  13.314  2.8248 -1.1472 -0.3649
 2778TIP3   OH229824   3.274   5.229   3.408  0.1106 -0.2622 -0.2149
 2778TIP3    H129825   3.292   5.283   3.485 -0.6686  1.1158 -0.9674
 2778TIP3    H229826   3.294   5.140   3.437  0.9005  0.3373  1.2348
 2779TIP3   OH229827   3.415   0.039  11.389  0.8605 -0.6599  0.1416
 2779TIP3    H129828   3.420  -0.051  11.419  1.2275 -0.9694 -0.7954
 2779TIP3    H229829   3.442   0.035  11.297  0.0106  0.2659 -0.1697
 2780TIP3   OH229830   1.935   6.141  12.434 -0.2509  0.1123  0.0573
 2780TIP3    H129831   1.975   6.133  12.348  1.1659  0.7103  0.6216
 2780TIP3    H229832   1.953   6.057  12.477 -0.9996 -0.2047 -0.2197
 2781TIP3   OH229833   3.315   6.206   3.714 -0.1050  0.3293  0.0903
 2781TIP3    H129834   3.381   6.160   3.765  0.3310  0.6607 -0.1626
 2781TIP3    H229835   3.363   6.277   3.671 -0.5963  0.4848 -0.2156
 2782TIP3   OH229836   4.901   4.413   0.423 -0.2303 -0.4239 -0.1514
 2782TIP3    H129837   4.808   4.409   0.403 -0.1389  1.3652 -1.1911
 2782TIP3    H229838   4.923   4.506   0.418  1.3793 -0.6622  1.2672
 2783TIP3   OH229839   0.671   2.671   2.427  0.1534  0.2732  0.1488
 2783TIP3    H129840   0.608   2.600   2.435  0.3571 -0.1778 -1.7825
 2783TIP3    H229841   0.756   2.627   2.419  0.2873  0.7219 -1.0082
 2784TIP3   OH229842   3.739   1.685   5.520  0.2588 -0.1653 -0.6059
 2784TIP3    H129843   3.775   1.677   5.432  0.3168  0.4859 -0.6439
 2784TIP3    H229844   3.730   1.595   5.550  0.2859 -0.3925 -1.2584
 2785TIP3   OH229845   2.323   5.224   0.154 -0.1751  0.5529 -0.3152
 2785TIP3    H129846   2.270   5.157   0.111 -0.9384  1.0655 -0.1833
 2785TIP3    H229847   2.323   5.297   0.092 -1.0413  1.1884  0.4103
 2786TIP3   OH229848   3.865   3.689   4.374  0.3892 -0.0155  0.2364
 2786TIP3    H129849   3.945   3.673   4.324  0.8487 -0.6419  1.1449
 2786TIP3    H229850   3.802   3.628   4.336  0.2915  0.5616 -0.5604
 2787TIP3   OH229851   2.160   1.404  16.081  0.0031 -0.4275 -0.3460
 2787TIP3    H129852   2.195   1.372  15.998 -1.5493 -0.2733 -1.0817
 2787TIP3    H229853   2.066   1.413  16.066  0.0998  2.8776  0.3272
 2788TIP3   OH229854   1.306   5.867   0.366  0.3313  0.1678 -0.4701
 2788TIP3    H129855   1.386   5.881   0.315  0.5566  0.1209 -0.1317
 2788TIP3    H229856   1.241   5.923   0.324  0.6559  0.5375 -0.4859
 2789TIP3   OH229857   0.267   0.689   2.123  0.3514 -0.4674 -0.2399
 2789TIP3    H129858   0.178   0.656   2.114  0.3596 -1.0038  1.2432
 2789TIP3    H229859   0.309   0.627   2.182  1.4278  0.2900 -0.1861
 2790TIP3   OH229860   4.389   2.910  15.125 -0.1160  0.1162 -0.2523
 2790TIP3    H129861   4.354   2.944  15.043 -0.2652  0.6578  0.0256
 2790TIP3    H229862   4.318   2.921  15.188  1.2887  3.7519  0.9836
 2791TIP3   OH229863   5.712   1.785  14.671 -0.5901 -0.2743  0.4721
 2791TIP3    H129864   5.673   1.872  14.660 -1.2649 -0.0180  3.7888
 2791TIP3    H229865   5.805   1.799  14.659 -0.8367  0.5344 -0.6736
 2792TIP3   OH229866   4.968   6.564   5.470  0.5390  0.3265  0.0328
 2792TIP3    H129867   4.882   6.522   5.473  0.7751 -0.1905 -0.2749
 2792TIP3    H229868   5.013   6.520   5.397  0.2499  2.1843 -1.3378
 2793TIP3   OH229869   6.058   4.137  12.400  0.4246 -0.1163  0.5837
 2793TIP3    H129870   5.979   4.085  12.412  0.5113 -0.2102  0.7509
 2793TIP3    H229871   6.028   4.219  12.361  0.4379 -0.8230 -0.9726
 2794TIP3   OH229872   5.464   4.079   3.518 -0.0208 -0.2309  0.4778
 2794TIP3    H129873   5.448   4.056   3.426  1.9317  0.2693 -0.0501
 2794TIP3    H229874   5.552   4.046   3.535  0.4988  1.5456  1.4924
 2795TIP3   OH229875   4.929   0.229   0.645 -0.6495  0.4240  0.0894
 2795TIP3    H129876   4.909   0.172   0.719 -1.0965 -0.2018 -0.4923
 2795TIP3    H229877   4.845   0.271   0.624 -1.2664 -1.5641 -1.8259
 2796TIP3   OH229878   1.165   0.105  13.963  0.1083  0.4602 -0.6509
 2796TIP3    H129879   1.223   0.107  14.039 -0.4579  1.5724 -0.2226
 2796TIP3    H229880   1.082   0.140  13.995  0.3933  2.8039 -2.1638
 2797TIP3   OH229881   5.953   2.099   2.794 -0.7528  0.4717  0.1402
 2797TIP3    H129882   5.935   2.046   2.871  2.7126  0.0774  0.8456
 2797TIP3    H229883   5.984   2.037   2.729 -0.9222  1.1349 -0.5911
 2798TIP3   OH229884   1.834   0.660   5.270  0.4293 -0.3874  0.4454
 2798TIP3    H129885   1.842   0.576   5.224 -0.3872 -0.7269  0.8956
 2798TIP3    H229886   1.760   0.703   5.227  1.1501  0.3320 -0.1101
 2799TIP3   OH229887   1.632   0.032  11.169 -0.2979 -0.1910 -0.2088
 2799TIP3    H129888   1.685  -0.042  11.199  2.2022  1.5869  0.0543
 2799TIP3    H229889   1.659   0.046  11.079 -1.0492  0.1685 -0.3897
 2800TIP3   OH229890   1.056   3.713   5.415 -0.1225  0.0790  0.0382
 2800TIP3    H129891   1.125   3.774   5.440  0.0323 -0.2974  0.5323
 2800TIP3    H229892   0.992   3.767   5.369  0.1520  0.5583  0.2181
 2801TIP3   OH229893   3.968   1.201  13.017  0.0219 -0.0830  0.5731
 2801TIP3    H129894   3.925   1.280  12.984 -0.3027  0.1124  1.4366
 2801TIP3    H229895   4.051   1.198  12.970 -0.4123  0.1963 -0.2324
 2802TIP3   OH229896   4.234   6.774   3.371  0.3718 -0.0733  0.0064
 2802TIP3    H129897   4.195   6.715   3.435 -1.7808 -0.1316 -1.2396
 2802TIP3    H229898   4.193   6.859   3.389  0.5019  0.1276 -0.6305
 2803TIP3   OH229899   4.748   1.680   3.879 -0.0141  0.5684 -0.3628
 2803TIP3    H129900   4.800   1.746   3.925  0.6229  0.4597 -0.9079
 2803TIP3    H229901   4.812   1.613   3.853 -0.7181 -0.5037  0.5939
 2804TIP3   OH229902   4.501   2.848  13.087  0.3882 -0.4588  0.3862
 2804TIP3    H129903   4.576   2.906  13.098  0.8596 -0.9808 -0.0075
 2804TIP3    H229904   4.425   2.902  13.111  0.7490  0.5259 -0.5698
 2805TIP3   OH229905   5.315   5.586  16.849  0.0101 -0.3075  0.7298
 2805TIP3    H129906   5.333   5.596  16.756  0.3548  0.3106  0.8568
 2805TIP3    H229907   5.267   5.665  16.873 -0.1742 -0.5150  1.0501
 2806TIP3   OH229908   3.277   3.495   5.878 -0.1660 -0.3137  0.2737
 2806TIP3    H129909   3.339   3.566   5.897  0.9180 -0.8488 -1.1036
 2806TIP3    H229910   3.200   3.517   5.930  1.6051 -0.3069  3.1457
 2807TIP3   OH229911   3.946   6.564  11.908 -0.1180  0.0831  0.2142
 2807TIP3    H129912   3.964   6.587  11.999 -2.3692 -1.3676  1.1235
 2807TIP3    H229913   3.938   6.647  11.863  0.4357  0.8433  1.4614
 2808TIP3   OH229914   6.142   3.241   0.305  0.2093  0.0227  0.0793
 2808TIP3    H129915   6.141   3.170   0.370  2.0883  1.1852  1.4885
 2808TIP3    H229916   6.174   3.317   0.354 -1.7083  1.8900 -1.3825
 2809TIP3   OH229917   6.707   2.870   5.165 -0.1301 -0.2411  0.4153
 2809TIP3    H129918   6.628   2.923   5.175  0.2070  0.0591  1.5974
 2809TIP3    H229919   6.697   2.799   5.228  0.2731 -0.5479  0.1414
 2810TIP3   OH229920   6.386   1.155  14.154  0.6340 -0.1187 -0.0773
 2810TIP3    H129921   6.470   1.184  14.120  0.7399  0.8353  0.9295
 2810TIP3    H229922   6.406   1.120  14.241  0.5302 -3.4437 -1.2360
 2811TIP3   OH229923   6.778   6.842   2.760  0.1126  0.0351 -0.0318
 2811TIP3    H129924   6.831   6.884   2.828 -2.4369  0.2194  1.9889
 2811TIP3    H229925   6.688   6.853   2.789 -1.0230 -1.3660 -2.6539
 2812TIP3   OH229926   0.939   5.249  13.067  0.4126  0.2047  0.3110
 2812TIP3    H129927   1.009   5.284  13.122  1.5141  1.9494 -2.0166
 2812TIP3    H229928   0.879   5.323  13.055 -0.6968 -0.6395  0.5053
 2813TIP3   OH229929   4.886   2.751   3.768  0.6140  0.0978 -0.0717
 2813TIP3    H129930   4.968   2.782   3.805 -0.4713  1.2252  1.5403
 2813TIP3    H229931   4.867   2.669   3.815  0.3357  0.3522  0.2603
 2814TIP3   OH229932   5.425   3.325  14.167  0.3300 -0.4098  0.5228
 2814TIP3    H129933   5.489   3.383  14.209  0.0197 -0.8007  1.5643
 2814TIP3    H229934   5.350   3.325  14.227  0.1637 -1.5506  0.3336
 2815TIP3   OH229935   3.725   6.461   5.917 -0.1402 -0.2139 -0.2165
 2815TIP3    H129936   3.754   6.423   6.000 -0.7140 -1.0104 -0.3614
 2815TIP3    H229937   3.630   6.449   5.917 -0.2553  0.6173 -0.5856
 2816TIP3   OH229938   0.840   1.344   2.868  0.1447 -0.4781 -0.6888
 2816TIP3    H129939   0.809   1.427   2.903  1.5164  0.8143 -2.3488
 2816TIP3    H229940   0.900   1.310   2.935  0.3502  0.3957 -0.4237
 2817TIP3   OH229941   3.636   1.762   2.530  0.2288  0.0073  0.8759
 2817TIP3    H129942   3.681   1.678   2.535 -0.3328 -0.4375 -0.9657
 2817TIP3    H229943   3.562   1.747   2.471  0.2470  1.8306  0.3235
 2818TIP3   OH229944   2.773   0.822   1.222  0.0618  0.6140  0.1094
 2818TIP3    H129945   2.755   0.910   1.254 -1.4706  0.2506  0.3099
 2818TIP3    H229946   2.700   0.801   1.164 -0.9904 -1.4483  2.0214
 2819TIP3   OH229947   4.082   4.606  16.977  0.6128  0.3510 -0.4021
 2819TIP3    H129948   4.105   4.592  17.069 -1.4655  1.3075  0.3141
 2819TIP3    H229949   4.030   4.529  16.954 -1.5489  1.5474  0.2364
 2820TIP3   OH229950   0.702   2.855  12.569 -0.5447  0.1168 -0.0792
 2820TIP3    H129951   0.747   2.782  12.611  1.0862  1.7898  1.1990
 2820TIP3    H229952   0.760   2.881  12.497 -0.6082  0.8056  0.1135
 2821TIP3   OH229953   1.489   4.819  11.132  0.1962 -0.5976  0.9464
 2821TIP3    H129954   1.506   4.725  11.146 -0.3855 -0.6356  1.4143
 2821TIP3    H229955   1.576   4.859  11.133  0.3762 -0.9587  2.1033
 2822TIP3   OH229956   4.116   3.256   0.703  0.0487 -0.7554 -0.0053
 2822TIP3    H129957   4.203   3.240   0.738  0.4057  0.2330 -0.4132
 2822TIP3    H229958   4.097   3.179   0.648  0.5184 -1.1277  0.3531
 2823TIP3   OH229959   2.415   5.241  14.453 -0.4371 -0.5875 -0.1085
 2823TIP3    H129960   2.498   5.254  14.499 -0.4845 -2.4681  0.6022
 2823TIP3    H229961   2.438   5.185  14.379 -1.0868 -1.3686  0.2608
 2824TIP3   OH229962   0.285   2.203  16.167 -0.3192 -0.4254  0.1798
 2824TIP3    H129963   0.216   2.148  16.132 -2.0522  1.4563  0.4233
 2824TIP3    H229964   0.366   2.155  16.149 -1.3659 -1.2160 -3.1453
 2825TIP3   OH229965   5.223   4.307  11.778  0.0829  0.4519  0.1994
 2825TIP3    H129966   5.139   4.262  11.773 -1.3816  2.7372  2.1018
 2825TIP3    H229967   5.257   4.284  11.865  0.3587  1.2371  0.3075
 2826TIP3   OH229968   1.818   1.608  13.499  0.5398  0.0518 -0.7378
 2826TIP3    H129969   1.909   1.585  13.517 -0.4757 -2.6716  1.4666
 2826TIP3    H229970   1.804   1.690  13.547  1.2568 -0.6356  0.6708
 2827TIP3   OH229971   1.696   2.400   1.420  0.2665 -0.5342  0.1527
 2827TIP3    H129972   1.740   2.485   1.426 -0.2115 -0.0952 -1.8607
 2827TIP3    H229973   1.762   2.341   1.385 -0.1338 -0.3428 -0.9680
 2828TIP3   OH229974   3.561   0.395   0.176  0.7943 -0.1552 -0.1579
 2828TIP3    H129975   3.604   0.474   0.209  2.3772 -0.5954 -1.0558
 2828TIP3    H229976   3.558   0.408   0.081 -1.4260  0.0022 -0.1274
 2829TIP3   OH229977   1.464   3.746  11.855 -0.0795  0.3072 -0.0191
 2829TIP3    H129978   1.448   3.811  11.923 -1.2214 -1.4084  1.4752
 2829TIP3    H229979   1.377   3.729  11.818 -0.2067 -1.8651  1.1327
 2830TIP3   OH229980   3.359   4.747   5.223 -0.0175 -0.6347  0.8401
 2830TIP3    H129981   3.395   4.788   5.144 -1.9380 -0.0958  0.1884
 2830TIP3    H229982   3.379   4.654   5.213  0.2610 -0.4928 -0.0064
 2831TIP3   OH229983   6.557   3.102  15.408 -0.3797 -0.3380  0.2373
 2831TIP3    H129984   6.529   3.187  15.373  2.1522  0.3022 -0.4386
 2831TIP3    H229985   6.490   3.080  15.473 -0.9761  2.3283  0.6615
 2832TIP3   OH229986   4.839   6.570  13.827 -0.0423 -0.1324  0.3671
 2832TIP3    H129987   4.846   6.562  13.922 -2.8948 -0.8242  0.6115
 2832TIP3    H229988   4.809   6.483  13.798  0.7971  0.0609 -1.1880
 2833TIP3   OH229989   6.229   6.773   4.180  0.5698  0.0037 -0.0970
 2833TIP3    H129990   6.199   6.725   4.258 -0.8289  0.8402 -0.0873
 2833TIP3    H229991   6.227   6.708   4.110 -3.5020  0.3943 -0.5965
 2834TIP3   OH229992   3.685   5.281   4.532  0.2593  0.1067  0.3818
 2834TIP3    H129993   3.604   5.329   4.550 -0.7289 -1.4995  0.3716
 2834TIP3    H229994   3.706   5.237   4.614  0.0075 -1.0653 -0.1625
 2835TIP3   OH229995   0.603   5.949   5.126 -0.0122  0.2479 -0.1469
 2835TIP3    H129996   0.682   5.965   5.178  0.4105  3.2141 -1.4760
 2835TIP3    H229997   0.534   5.997   5.172 -1.2994 -2.6884  1.2593
 2836TIP3   OH229998   0.083   2.019  14.364  0.0285  0.2519 -0.2017
 2836TIP3    H129999  -0.001   1.996  14.325  0.5346 -0.2634 -1.0087
 2836TIP3    H230000   0.065   2.097  14.416 -1.0459 -0.1240  0.0163
 2837TIP3   OH230001   6.276   3.440  10.914 -0.5894  0.8840  0.0529
 2837TIP3    H130002   6.326   3.473  10.988 -1.7086 -0.7337  1.6228
 2837TIP3    H230003   6.328   3.366  10.881 -0.0405  1.6650 -0.8887
 2838TIP3   OH230004   0.619   1.914  10.920 -0.0331  0.1518  0.1555
 2838TIP3    H130005   0.664   1.958  10.992 -1.7706  1.0203  0.7579
 2838TIP3    H230006   0.593   1.829  10.957  2.1478 -0.9294 -0.5978
 2839TIP3   OH230007   5.442   5.246   4.119 -0.0381 -0.4746 -0.1051
 2839TIP3    H130008   5.433   5.158   4.083  2.1707 -0.9774  0.4654
 2839TIP3    H230009   5.358   5.288   4.100 -0.7914 -2.3775 -1.2308
 2840TIP3   OH230010   1.814   0.817   4.957  0.1832  0.2194  0.5631
 2840TIP3    H130011   1.735   0.805   5.010 -0.2146  0.0471 -0.0530
 2840TIP3    H230012   1.788   0.879   4.889 -0.2766 -1.8125 -1.2545
 2841TIP3   OH230013   3.417   1.595   1.161  0.3513  0.0994  0.6705
 2841TIP3    H130014   3.420   1.622   1.252  0.1593 -0.5645  0.8793
 2841TIP3    H230015   3.465   1.512   1.159 -0.4427 -0.3619  0.3482
 2842TIP3   OH230016   4.561   5.378  13.819 -0.3726 -0.2613 -0.0423
 2842TIP3    H130017   4.525   5.333  13.743  1.1788 -2.1703  0.2592
 2842TIP3    H230018   4.538   5.470  13.806 -2.1256 -0.8684 -1.6263
 2843TIP3   OH230019   1.253   5.487   0.060 -0.3483  0.2242  0.0815
 2843TIP3    H130020   1.319   5.554   0.076  0.9072 -0.8205 -0.4641
 2843TIP3    H230021   1.254   5.474  -0.035 -0.7305 -0.3853  0.1521
 2844TIP3   OH230022   0.416   0.832  15.459 -0.6409 -0.3042  0.5827
 2844TIP3    H130023   0.369   0.790  15.532 -0.6246 -0.9165  0.2480
 2844TIP3    H230024   0.451   0.759  15.408 -0.8176  0.1147 -0.1516
 2845TIP3   OH230025   5.704   2.462   5.465  0.1750 -0.0321  0.0947
 2845TIP3    H130026   5.781   2.508   5.497  1.4676 -2.1515  0.2457
 2845TIP3    H230027   5.630   2.516   5.493  1.5786  2.7147 -1.1017
 2846TIP3   OH230028   4.970   5.785   5.324  0.0911 -0.4439 -0.1561
 2846TIP3    H130029   5.045   5.733   5.355 -0.8126 -1.6178  0.1516
 2846TIP3    H230030   4.966   5.767   5.230  1.2648  1.0641 -0.5295
 2847TIP3   OH230031   5.919   2.230   1.237 -0.3282  0.3635 -0.5567
 2847TIP3    H130032   6.004   2.270   1.218  0.7965 -1.3852  0.5712
 2847TIP3    H230033   5.889   2.274   1.317  1.3901 -1.5954  1.2786
 2848TIP3   OH230034   4.163   5.308  11.287 -0.6452 -0.4154 -0.3460
 2848TIP3    H130035   4.078   5.272  11.259 -0.3788 -0.4018 -1.2017
 2848TIP3    H230036   4.155   5.402  11.271 -0.2573 -0.4907 -1.0228
 2849TIP3   OH230037   1.437   3.912   4.675  0.0775 -0.2208 -0.3363
 2849TIP3    H130038   1.421   3.906   4.581 -2.8875  0.5006  0.0236
 2849TIP3    H230039   1.454   3.821   4.702  1.7733 -0.3267 -1.6470
 2850TIP3   OH230040   3.582   4.282   1.765 -0.0397  0.4470  0.3670
 2850TIP3    H130041   3.603   4.189   1.776 -0.1850  0.3444 -0.1680
 2850TIP3    H230042   3.516   4.283   1.695  2.3712  1.2031 -2.0734
 2851TIP3   OH230043   4.735   0.078  15.668  0.1555 -0.6839  0.0805
 2851TIP3    H130044   4.694   0.151  15.714  0.5386 -0.2388 -0.2782
 2851TIP3    H230045   4.822   0.110  15.645  0.3179 -1.2473 -0.1037
 2852TIP3   OH230046   5.842   2.464  13.992  0.2939 -0.3970  0.1026
 2852TIP3    H130047   5.852   2.376  14.028  1.2239 -0.8841 -1.2655
 2852TIP3    H230048   5.909   2.470  13.924  0.4514  1.4844  0.3712
 2853TIP3   OH230049   4.877   6.843   3.466  0.2488  0.2739  0.2908
 2853TIP3    H130050   4.956   6.889   3.438 -0.2599  0.8941 -0.1452
 2853TIP3    H230051   4.809   6.873   3.406 -0.3811 -0.0398  0.8353
 2854TIP3   OH230052   2.923   1.684   4.741  0.0378 -0.0161 -0.2558
 2854TIP3    H130053   2.840   1.636   4.748 -1.2024  2.1210  0.8217
 2854TIP3    H230054   2.974   1.657   4.817 -0.8366  0.6440  0.5903
 2855TIP3   OH230055   1.559   2.979   5.865  0.3255  0.4337 -0.1830
 2855TIP3    H130056   1.523   3.067   5.851  0.5822  0.9305  1.9308
 2855TIP3    H230057   1.626   2.991   5.933  0.7314 -1.3255 -0.2270
 2856TIP3   OH230058   5.639   0.860  15.734 -0.0771 -0.1336  0.1309
 2856TIP3    H130059   5.605   0.823  15.815  0.0327 -1.9835 -0.6179
 2856TIP3    H230060   5.596   0.946  15.727 -0.6249 -0.2327  1.7574
 2857TIP3   OH230061   1.071   6.494  16.900 -0.0107  0.0723  0.3067
 2857TIP3    H130062   0.987   6.470  16.939 -0.0266 -1.6863 -0.7002
 2857TIP3    H230063   1.053   6.575  16.852 -1.1055 -0.2145  0.1950
 2858TIP3   OH230064   0.517   6.255   5.542  0.5126  0.0914  0.4354
 2858TIP3    H130065   0.432   6.243   5.500  0.4691 -1.1895  0.8512
 2858TIP3    H230066   0.496   6.289   5.629  0.3454 -1.2248  0.9249
 2859TIP3   OH230067   0.908   1.858   0.285 -0.1183 -0.1792 -0.3592
 2859TIP3    H130068   0.857   1.785   0.321  1.0489 -1.1142 -0.5362
 2859TIP3    H230069   0.844   1.929   0.273 -1.0237 -0.7243  1.0645
 2860TIP3   OH230070   0.208   3.927  11.614 -0.2614 -0.1495  0.3673
 2860TIP3    H130071   0.154   3.960  11.686 -2.3629 -1.1661 -0.6383
 2860TIP3    H230072   0.264   4.000  11.590  1.4187 -0.1372  3.7702
 2861TIP3   OH230073   4.897   6.325  10.309  0.0726 -0.3984  0.2482
 2861TIP3    H130074   4.916   6.418  10.305  1.8669 -0.7487 -1.1019
 2861TIP3    H230075   4.981   6.283  10.288 -0.8210 -2.2965  0.2607
 2862TIP3   OH230076   6.639   5.334   2.587  0.1287 -0.3219 -0.2102
 2862TIP3    H130077   6.734   5.329   2.578  0.3219  1.2485  0.6784
 2862TIP3    H230078   6.614   5.249   2.622  1.0147 -1.2818 -1.7994
 2863TIP3   OH230079   3.734   2.150  16.387  0.0172  0.0582 -0.3442
 2863TIP3    H130080   3.763   2.176  16.475 -1.1720  0.6538 -0.0987
 2863TIP3    H230081   3.815   2.132  16.339  0.7351  0.7553  0.5655
 2864TIP3   OH230082   3.096   1.639  11.600 -0.2815  0.1066 -0.0501
 2864TIP3    H130083   3.159   1.575  11.566 -3.2337 -3.3252  0.3790
 2864TIP3    H230084   3.117   1.720  11.553  2.1906 -1.7396 -2.4435
 2865TIP3   OH230085   5.982   0.658  12.613  0.0867 -0.1014  0.0949
 2865TIP3    H130086   5.950   0.730  12.669  0.0071  1.5257 -1.9345
 2865TIP3    H230087   6.044   0.700  12.553  0.0732 -1.7451 -1.1199
 2866TIP3   OH230088   1.214   2.966   1.775 -0.1979  0.0485  0.0456
 2866TIP3    H130089   1.189   2.873   1.776  1.5382 -0.4550  0.2309
 2866TIP3    H230090   1.289   2.970   1.716 -0.7306  1.4824 -0.5551
 2867TIP3   OH230091   2.074   2.777  10.399  0.5947  0.5117 -0.3981
 2867TIP3    H130092   2.091   2.785  10.493 -0.6922 -0.6488 -0.0482
 2867TIP3    H230093   2.151   2.817  10.358  1.9234 -0.3485  1.1278
 2868TIP3   OH230094   2.983   3.916  13.694 -0.1385  0.4387 -0.1603
 2868TIP3    H130095   3.027   3.834  13.713  0.6491  0.8837 -0.0199
 2868TIP3    H230096   2.968   3.956  13.780  0.8097  1.1103 -0.2873
 2869TIP3   OH230097   4.219   6.499   5.128 -0.0317  0.0992  0.2835
 2869TIP3    H130098   4.188   6.500   5.038 -0.3130 -0.7163  0.3705
 2869TIP3    H230099   4.301   6.550   5.126 -1.3203  2.2977  0.0576
 2870TIP3   OH230100   2.472   3.091  11.931  0.4771  0.2404 -0.4068
 2870TIP3    H130101   2.384   3.123  11.951  0.7398 -0.8801  3.1001
 2870TIP3    H230102   2.527   3.169  11.936 -0.2814  1.1279 -3.5365
 2871TIP3   OH230103   1.443   5.653   2.854 -0.1056  0.3591 -0.4201
 2871TIP3    H130104   1.514   5.714   2.835  1.6831 -1.8560 -1.1686
 2871TIP3    H230105   1.486   5.572   2.880 -2.4058 -0.5961  0.7483
 2872TIP3   OH230106   5.230   0.957  14.060  0.0443 -0.1547 -0.3315
 2872TIP3    H130107   5.256   1.023  14.123  1.6079 -0.6452 -0.4180
 2872TIP3    H230108   5.147   0.923  14.093  0.8612 -0.4477  1.5114
 2873TIP3   OH230109   2.899   6.209   2.326 -0.2441  0.5977  0.3940
 2873TIP3    H130110   2.837   6.262   2.375  1.2986  0.4240  2.7099
 2873TIP3    H230111   2.890   6.121   2.362  1.4102  0.6010  0.9235
 2874TIP3   OH230112   0.628   6.672  14.842 -0.4063 -0.4137 -0.6127
 2874TIP3    H130113   0.604   6.764  14.834  1.2562  0.2212  1.0674
 2874TIP3    H230114   0.680   6.654  14.764  0.7685  0.6121 -0.0999
 2875TIP3   OH230115   4.979   5.058   4.081  0.2184  0.1189  0.0661
 2875TIP3    H130116   4.990   4.975   4.035 -0.0741 -0.2322  0.6135
 2875TIP3    H230117   4.987   5.125   4.013 -1.9590 -0.4484 -0.8316
 2876TIP3   OH230118   0.723   1.068  15.809 -0.3085  0.3811 -0.3004
 2876TIP3    H130119   0.692   1.155  15.835  0.4432  0.1296  1.5674
 2876TIP3    H230120   0.740   1.076  15.715 -1.7833  1.7629 -0.4987
 2877TIP3   OH230121   6.100   0.527  11.316  0.4303 -0.2531 -1.0939
 2877TIP3    H130122   6.136   0.457  11.262  1.0033  1.4061 -2.9547
 2877TIP3    H230123   6.165   0.539  11.386  1.0949 -0.5072 -1.6597
 2878TIP3   OH230124   6.387   4.799   4.658  0.0608  0.5731  0.5854
 2878TIP3    H130125   6.355   4.720   4.615 -0.1603  1.1558 -0.3767
 2878TIP3    H230126   6.456   4.831   4.600  2.0524 -0.3601  2.3469
 2879TIP3   OH230127   2.221   5.680  14.860  0.3453 -0.1165  0.5020
 2879TIP3    H130128   2.209   5.769  14.896  0.5595 -0.4632  1.4588
 2879TIP3    H230129   2.186   5.622  14.928  0.0397 -0.7639 -0.1952
 2880TIP3   OH230130   1.125   6.221  13.631 -0.2789 -0.1927  0.1254
 2880TIP3    H130131   1.153   6.176  13.551  0.1509  1.2238 -0.5597
 2880TIP3    H230132   1.164   6.170  13.702 -1.1527 -1.8221 -0.5164
 2881TIP3   OH230133   4.227   0.995  14.153 -0.1398 -0.0026  0.5367
 2881TIP3    H130134   4.293   0.927  14.162  0.8212  0.9493  0.9376
 2881TIP3    H230135   4.241   1.030  14.065  1.1193  1.3982  1.2514
 2882TIP3   OH230136   3.882   0.384   5.459  0.6415 -0.0292  0.3287
 2882TIP3    H130137   3.861   0.447   5.528  2.2483 -0.8779  1.6499
 2882TIP3    H230138   3.828   0.308   5.478 -2.3453  1.2865 -2.0568
 2883TIP3   OH230139   4.035   4.872  16.931 -0.2912  0.3656 -0.1579
 2883TIP3    H130140   4.048   4.777  16.934 -1.7594  0.0670 -2.0059
 2883TIP3    H230141   4.117   4.906  16.896  0.3196 -0.1720  0.7026
 2884TIP3   OH230142   0.447   5.162   0.410  0.1418  0.1614  0.5825
 2884TIP3    H130143   0.527   5.115   0.389  1.0967  1.3218  1.5427
 2884TIP3    H230144   0.387   5.139   0.339  1.6600  0.1044 -0.7412
 2885TIP3   OH230145   6.655   1.637   6.397  0.5674 -0.2459  0.2817
 2885TIP3    H130146   6.750   1.625   6.402  0.9642  0.4497 -3.2334
 2885TIP3    H230147   6.644   1.731   6.382 -0.4706 -0.6007 -1.4455
 2886TIP3   OH230148   1.783   2.696   1.055  0.0055 -0.6336  0.3013
 2886TIP3    H130149   1.760   2.739   1.137 -1.1873 -1.0454  0.2150
 2886TIP3    H230150   1.699   2.683   1.011 -0.0902 -5.0016  1.3055
 2887TIP3   OH230151   3.467   6.239  13.361 -0.2499 -0.1996 -0.0497
 2887TIP3    H130152   3.438   6.222  13.271 -1.1063 -0.8798  0.3324
 2887TIP3    H230153   3.553   6.278  13.352 -0.0542 -0.8450 -1.1499
 2888TIP3   OH230154   6.683   2.952  14.083  0.3848  0.0236  0.2749
 2888TIP3    H130155   6.626   3.029  14.083  2.0137  1.3008  1.3976
 2888TIP3    H230156   6.732   2.959  14.001  2.4308  1.7557  1.5449
 2889TIP3   OH230157   6.222   2.183  11.243 -0.0765 -0.7047  0.0092
 2889TIP3    H130158   6.134   2.192  11.206  0.7172 -0.9131 -2.0840
 2889TIP3    H230159   6.246   2.092  11.226  0.5400 -0.6513  0.5617
 2890TIP3   OH230160   1.079   2.699   3.398  0.0663 -0.2657 -0.3242
 2890TIP3    H130161   1.072   2.754   3.476 -1.1216  1.7462 -1.7339
 2890TIP3    H230162   1.011   2.632   3.410  0.1774 -0.2324  0.5533
 2891TIP3   OH230163   3.019   3.027  13.152  0.0772  0.1772 -0.2133
 2891TIP3    H130164   2.955   3.027  13.082  0.3230  1.3516 -0.4637
 2891TIP3    H230165   3.001   2.948  13.202  0.4829 -1.1875 -2.1170
 2892TIP3   OH230166   0.454   1.348   5.005  0.5466  0.4882 -0.4758
 2892TIP3    H130167   0.435   1.407   4.932  0.5841  0.1486 -0.7604
 2892TIP3    H230168   0.547   1.328   4.997  0.9008  1.6196  0.5319
 2893TIP3   OH230169   2.219   4.448   1.447  0.0224 -0.3843 -0.1961
 2893TIP3    H130170   2.250   4.358   1.461  4.3649  0.7696 -1.0501
 2893TIP3    H230171   2.172   4.445   1.364  1.6520 -1.5978 -1.1177
 2894TIP3   OH230172   3.853   4.368   1.219 -0.2064  0.0070  0.5620
 2894TIP3    H130173   3.792   4.352   1.290 -0.6457  0.9676  0.4097
 2894TIP3    H230174   3.938   4.343   1.254 -0.7736 -2.3397  0.4396
 2895TIP3   OH230175   6.457   3.455   1.824  0.0750 -0.7075 -0.2307
 2895TIP3    H130176   6.503   3.501   1.754 -0.9445 -1.5932 -1.5286
 2895TIP3    H230177   6.489   3.365   1.820 -0.2902 -0.8626  0.1727
 2896TIP3   OH230178   1.937   1.489  16.318  0.0677 -0.1901  0.2448
 2896TIP3    H130179   1.910   1.426  16.384  0.4209 -0.8524 -0.2230
 2896TIP3    H230180   2.021   1.523  16.350 -0.3988  0.4665  0.7751
 2897TIP3   OH230181   1.661   1.947   5.459  0.2264  0.5688 -0.0443
 2897TIP3    H130182   1.751   1.955   5.427  0.3852 -0.8648 -0.0439
 2897TIP3    H230183   1.607   1.979   5.386  0.7113  0.4611 -0.4602
 2898TIP3   OH230184   4.275   1.938   2.362  0.5300  0.2004  0.4306
 2898TIP3    H130185   4.324   1.919   2.442 -0.6573  0.3604  1.2195
 2898TIP3    H230186   4.183   1.927   2.387  0.1493  0.0320 -0.9777
 2899TIP3   OH230187   5.636   5.309   0.636 -0.2836  0.4682  0.5843
 2899TIP3    H130188   5.568   5.317   0.569  0.7094  0.6932 -0.4401
 2899TIP3    H230189   5.662   5.400   0.654 -0.4399  0.3979  1.1614
 2900TIP3   OH230190   3.702   0.267  12.802  0.5280  0.2268  0.1496
 2900TIP3    H130191   3.653   0.315  12.868  3.4866  1.4821  1.6570
 2900TIP3    H230192   3.747   0.199  12.851  0.4658 -0.7603 -1.1176
 2901TIP3   OH230193   5.214   6.122  12.854  0.5427  0.1476 -0.1603
 2901TIP3    H130194   5.230   6.030  12.831  2.0938  0.6983 -1.4784
 2901TIP3    H230195   5.295   6.167  12.831 -0.6063  2.0593 -0.7058
 2902TIP3   OH230196   5.645   2.762   3.835 -0.4851 -0.2456  0.2966
 2902TIP3    H130197   5.731   2.721   3.842 -2.0481 -4.3795 -1.3543
 2902TIP3    H230198   5.598   2.707   3.772 -4.1836  2.1486  0.6826
 2903TIP3   OH230199   3.244   2.400  12.520 -0.2538  0.3749  0.6632
 2903TIP3    H130200   3.325   2.439  12.555 -0.2360  1.0877 -0.1299
 2903TIP3    H230201   3.270   2.312  12.493  0.2567  0.5784  0.4605
 2904TIP3   OH230202   5.849   2.012   3.883 -0.1488  0.2058  0.0289
 2904TIP3    H130203   5.826   2.051   3.968  1.4010  0.4576  0.3636
 2904TIP3    H230204   5.943   2.026   3.875 -0.6317  3.1558 -3.2166
 2905TIP3   OH230205   0.452   6.312   6.727 -0.1352  0.1673  0.0501
 2905TIP3    H130206   0.382   6.327   6.664 -0.4272 -1.3408 -0.0271
 2905TIP3    H230207   0.533   6.323   6.677 -0.3050  1.5854  0.0616
 2906TIP3   OH230208   0.217   3.558  14.039 -0.3019 -0.0220  0.0154
 2906TIP3    H130209   0.255   3.582  14.124  2.1214  2.5789 -1.6160
 2906TIP3    H230210   0.289   3.515  13.992 -1.2608 -0.4233 -1.1302
 2907TIP3   OH230211   3.873   6.263  10.592 -0.2382  0.3547  0.1278
 2907TIP3    H130212   3.814   6.226  10.526 -1.2517  1.0732  0.6320
 2907TIP3    H230213   3.825   6.258  10.674 -0.1259  2.1679  0.3284
 2908TIP3   OH230214   3.223   1.839  14.236 -0.0807 -0.2736  0.0512
 2908TIP3    H130215   3.130   1.822  14.221  0.2021 -1.4564 -0.4337
 2908TIP3    H230216   3.261   1.754  14.255  0.7977  0.2906  0.9542
 2909TIP3   OH230217   2.426   6.819   4.230 -0.1216  0.1855 -0.0972
 2909TIP3    H130218   2.387   6.753   4.288 -0.5920  0.7589  0.2551
 2909TIP3    H230219   2.480   6.873   4.288  0.1398  0.1966 -0.3530
 2910TIP3   OH230220   1.577   4.339  16.499  0.2918 -0.1775  0.3005
 2910TIP3    H130221   1.517   4.409  16.524 -1.4722 -2.4096  2.9733
 2910TIP3    H230222   1.663   4.370  16.524 -0.1156  1.8777 -0.6901
 2911TIP3   OH230223   2.815   1.030   3.715  0.2187 -0.2575 -0.5746
 2911TIP3    H130224   2.843   1.122   3.719 -1.1072  0.1783 -0.9018
 2911TIP3    H230225   2.880   0.984   3.767  1.1456  0.8082 -0.7421
 2912TIP3   OH230226   6.565   6.612   2.869 -0.1073  0.0128 -0.6249
 2912TIP3    H130227   6.560   6.587   2.777  0.3230 -2.9749  0.0534
 2912TIP3    H230228   6.476   6.640   2.891 -0.5738 -0.6053 -1.6388
 2913TIP3   OH230229   2.742   6.855  11.528  0.3856  0.2514 -0.3908
 2913TIP3    H130230   2.800   6.898  11.464  1.2919  0.4651  0.5517
 2913TIP3    H230231   2.776   6.766  11.536 -0.5233 -0.1913 -1.1474
 2914TIP3   OH230232   3.847   1.529   1.650 -0.9234 -0.2447  0.1683
 2914TIP3    H130233   3.904   1.477   1.593  1.3250  1.3628  0.8102
 2914TIP3    H230234   3.841   1.615   1.607 -0.3770  0.5412  1.6014
 2915TIP3   OH230235   3.760   1.411  12.976 -0.2725  0.4777 -0.1182
 2915TIP3    H130236   3.761   1.478  12.908  0.7541  0.3522 -0.2375
 2915TIP3    H230237   3.804   1.451  13.050 -0.9636  0.4453  0.3117
 2916TIP3   OH230238   0.880   6.775   5.769 -0.5123 -0.1192 -0.3236
 2916TIP3    H130239   0.810   6.835   5.742 -2.3496 -2.2389 -0.6162
 2916TIP3    H230240   0.955   6.800   5.715 -1.6592  0.9490 -1.5181
 2917TIP3   OH230241   5.407   0.051   2.393 -0.1376  0.1420 -0.2476
 2917TIP3    H130242   5.343   0.016   2.455  1.2893  1.6898  2.2770
 2917TIP3    H230243   5.462   0.109   2.445  1.7139  0.9267 -2.8411
 2918TIP3   OH230244   4.174   2.696  16.160 -0.8685  0.2746  0.2550
 2918TIP3    H130245   4.186   2.778  16.112 -0.1981  0.1327  0.1745
 2918TIP3    H230246   4.185   2.628  16.094 -3.4509  0.1205 -0.1307
 2919TIP3   OH230247   2.702   6.634  13.832 -0.1013  0.3736 -0.3321
 2919TIP3    H130248   2.680   6.724  13.805  0.3230  0.6628  0.2572
 2919TIP3    H230249   2.653   6.620  13.913  0.3433  0.3186 -0.0663
 2920TIP3   OH230250   3.650   6.434  15.859 -0.1803 -0.3793  0.4384
 2920TIP3    H130251   3.740   6.400  15.864 -0.4970 -1.1868  0.9437
 2920TIP3    H230252   3.635   6.475  15.944 -0.6835 -1.3075  0.8120
 2921TIP3   OH230253   4.517   5.701   3.216  0.1631 -0.0061 -0.3696
 2921TIP3    H130254   4.594   5.708   3.272  0.4981 -0.2309 -0.8001
 2921TIP3    H230255   4.552   5.697   3.127 -0.3343 -0.3479 -0.5521
 2922TIP3   OH230256   5.234   0.570   4.361 -0.2314  0.8002  0.2948
 2922TIP3    H130257   5.298   0.562   4.291  1.5387  2.2892  1.6609
 2922TIP3    H230258   5.150   0.583   4.316  0.9850  2.7739 -1.5675
 2923TIP3   OH230259   1.801   2.954   0.723 -0.0176  0.2038 -0.1697
 2923TIP3    H130260   1.742   2.881   0.701  0.2288  0.6298 -2.4173
 2923TIP3    H230261   1.747   3.032   0.714  0.4182  0.4752 -0.4548
 2924TIP3   OH230262   0.903   0.386   5.564  0.0455  0.1645 -0.7201
 2924TIP3    H130263   0.859   0.464   5.598  1.1877  0.5469 -0.0510
 2924TIP3    H230264   0.996   0.406   5.572  0.3534 -0.8103 -1.6390
 2925TIP3   OH230265   2.592   4.971  11.484  0.0122 -0.8380  0.2356
 2925TIP3    H130266   2.673   5.021  11.475 -1.2855  1.3405 -0.3243
 2925TIP3    H230267   2.592   4.940  11.575  0.9362  0.1293  0.5855
 2926TIP3   OH230268   3.988   3.323   3.516 -0.0754 -0.1419  0.0503
 2926TIP3    H130269   3.917   3.305   3.579 -0.8335 -1.7045 -1.1777
 2926TIP3    H230270   3.988   3.418   3.507 -0.8868  0.0149  1.3458
 2927TIP3   OH230271   4.343   6.516   2.660 -0.3993  0.0087  0.6727
 2927TIP3    H130272   4.401   6.586   2.687  0.7196 -1.3473  1.9672
 2927TIP3    H230273   4.400   6.439   2.654 -1.1519 -0.4324 -2.7441
 2928TIP3   OH230274   4.620   5.522  11.653  0.1551  0.3432 -0.2134
 2928TIP3    H130275   4.553   5.460  11.627  1.2513 -1.3803  0.8610
 2928TIP3    H230276   4.658   5.553  11.571  1.0786 -2.1398 -0.8054
 2929TIP3   OH230277   1.264   2.907   5.937 -0.0602  0.0274  0.2627
 2929TIP3    H130278   1.255   2.839   6.004 -0.7704 -2.5637 -2.2541
 2929TIP3    H230279   1.358   2.926   5.934  0.0861 -0.4620  1.3639
 2930TIP3   OH230280   5.784   3.623   0.789 -0.3212 -0.8654  0.0921
 2930TIP3    H130281   5.864   3.595   0.744 -0.5915  0.7874 -1.5017
 2930TIP3    H230282   5.713   3.588   0.735 -0.6504  0.5520 -0.4355
 2931TIP3   OH230283   2.782   4.171   0.622  0.6726 -0.2453 -0.0772
 2931TIP3    H130284   2.723   4.096   0.629 -1.6404  1.4166 -0.4947
 2931TIP3    H230285   2.755   4.230   0.692  0.0368  1.6873 -1.8302
 2932TIP3   OH230286   6.626   5.530   1.853 -0.2194  0.0297 -0.3106
 2932TIP3    H130287   6.572   5.457   1.882  1.4850 -1.6804 -1.2652
 2932TIP3    H230288   6.626   5.525   1.757  0.6268  0.7467 -0.3681
 2933TIP3   OH230289   2.777   3.849  10.713  0.2931 -0.6770 -0.4641
 2933TIP3    H130290   2.719   3.877  10.642  0.3704 -2.4049 -1.2397
 2933TIP3    H230291   2.721   3.799  10.772  0.4711 -0.2122  0.1085
 2934TIP3   OH230292   5.005   2.110   3.504  0.2965  0.3273 -0.6681
 2934TIP3    H130293   5.087   2.067   3.529  0.5631  1.2244  0.0469
 2934TIP3    H230294   5.027   2.165   3.430  0.6722  1.6392  0.3903
 2935TIP3   OH230295   6.630   6.128   4.034 -0.3546  0.5902 -0.4467
 2935TIP3    H130296   6.619   6.163   3.946 -1.8878 -1.3009 -1.1044
 2935TIP3    H230297   6.723   6.107   4.041 -0.1130  1.3157 -1.3944
 2936TIP3   OH230298   6.675   5.714  14.876 -0.9132  0.1556 -0.0941
 2936TIP3    H130299   6.746   5.778  14.870  0.2096 -1.1340 -0.9612
 2936TIP3    H230300   6.719   5.629  14.880 -2.3968 -0.6625 -0.4218
 2937TIP3   OH230301   1.963   6.574  11.488  0.2192  0.0967 -0.0645
 2937TIP3    H130302   2.025   6.520  11.439 -0.3832  0.5076 -1.3219
 2937TIP3    H230303   1.999   6.662  11.485 -0.5126  0.3885 -1.0278
 2938TIP3   OH230304   2.772   4.970   0.692 -0.3755 -0.3887 -0.3555
 2938TIP3    H130305   2.861   4.994   0.667 -0.4873 -0.2783 -0.6466
 2938TIP3    H230306   2.730   5.052   0.716  0.1338 -0.6201  1.5446
 2939TIP3   OH230307   5.860   2.038  11.478 -0.0574  0.3901  0.2282
 2939TIP3    H130308   5.861   1.981  11.401 -1.9470  0.5351  0.0465
 2939TIP3    H230309   5.937   2.012  11.529  0.5808 -0.4925 -1.1383
 2940TIP3   OH230310   1.794   4.655   2.046  0.1241  0.1263  0.0570
 2940TIP3    H130311   1.837   4.583   2.092 -1.3393 -0.9863 -0.2284
 2940TIP3    H230312   1.779   4.622   1.958 -0.7887  0.6773 -0.0062
 2941TIP3   OH230313   0.952   0.621  15.578  0.1316  0.0925  0.3687
 2941TIP3    H130314   0.874   0.581  15.542  1.2946 -3.4607  1.4076
 2941TIP3    H230315   1.019   0.611  15.510  0.3494  0.7928  0.4633
 2942TIP3   OH230316   1.060   5.101  11.813  0.1716  0.6573  0.0025
 2942TIP3    H130317   1.089   5.159  11.743  0.8372 -0.2210 -0.4726
 2942TIP3    H230318   0.964   5.105  11.809  0.1078 -0.8934 -2.3190
 2943TIP3   OH230319   6.224   4.736  12.142 -0.1648 -0.1155  0.1834
 2943TIP3    H130320   6.310   4.721  12.102 -0.6607 -2.1617 -0.2135
 2943TIP3    H230321   6.199   4.824  12.112  1.1129 -0.0979 -0.9344
 2944TIP3   OH230322   3.363   5.308   0.955  0.2004 -0.0341 -0.4033
 2944TIP3    H130323   3.409   5.304   0.872  0.8999 -0.2255 -0.0126
 2944TIP3    H230324   3.357   5.402   0.975 -1.7303  0.1690 -1.6110
 2945TIP3   OH230325   3.617   2.828  11.717  0.1238 -0.2087 -0.4878
 2945TIP3    H130326   3.627   2.923  11.714 -1.2884 -0.0607 -2.6145
 2945TIP3    H230327   3.552   2.813  11.786 -1.5084  0.6376 -1.7621
 2946TIP3   OH230328   6.185   6.587  12.223 -0.2834 -0.5644  0.3739
 2946TIP3    H130329   6.162   6.518  12.161  0.9629  0.9910 -2.0199
 2946TIP3    H230330   6.265   6.625  12.187 -1.0692  2.3032  1.3557
 2947TIP3   OH230331   1.432   1.407   3.210  0.0758 -0.2620 -0.2317
 2947TIP3    H130332   1.435   1.464   3.287 -0.0616 -0.2383 -0.2444
 2947TIP3    H230333   1.524   1.392   3.188  0.1891 -2.1940  1.3577
 2948TIP3   OH230334   3.281   6.354   1.199 -0.5588  0.0423 -0.0350
 2948TIP3    H130335   3.298   6.418   1.130 -1.1012 -0.5776 -0.7459
 2948TIP3    H230336   3.326   6.275   1.171 -0.5951 -0.1522  0.4413
 2949TIP3   OH230337   1.403   4.289   4.297  0.2015  0.8547  0.0667
 2949TIP3    H130338   1.491   4.253   4.282  0.1814  1.1993 -0.9644
 2949TIP3    H230339   1.397   4.364   4.237 -0.8361  0.7617  0.0332
 2950TIP3   OH230340   2.397   3.551   5.471 -0.2604  0.1212  0.0503
 2950TIP3    H130341   2.394   3.465   5.431  0.8482  0.0097  0.1759
 2950TIP3    H230342   2.440   3.606   5.405 -0.8579  0.5620  0.0161
 2951TIP3   OH230343   3.796   0.317   2.760  0.1657 -1.0269 -0.3982
 2951TIP3    H130344   3.891   0.320   2.747  0.2610 -1.7126  0.1136
 2951TIP3    H230345   3.777   0.227   2.784 -0.6478 -0.9405 -0.6780
 2952TIP3   OH230346   1.591   6.716   4.511 -0.6789 -0.7525 -0.2287
 2952TIP3    H130347   1.564   6.787   4.452  1.5649  0.6300  0.2943
 2952TIP3    H230348   1.649   6.661   4.458 -1.1472 -1.3188 -0.1697
 2953TIP3   OH230349   5.102   6.252  13.268  0.0512 -0.5351 -0.0946
 2953TIP3    H130350   5.076   6.260  13.177  1.4490  0.2913 -0.4437
 2953TIP3    H230351   5.180   6.196  13.266  0.0027 -0.6432  0.6159
 2954TIP3   OH230352   6.854   0.908   1.842 -0.3428 -0.1956  0.6186
 2954TIP3    H130353   6.870   0.940   1.753  0.2893  3.0800  1.7671
 2954TIP3    H230354   6.938   0.874   1.871 -0.4424 -0.8547  0.1801
 2955TIP3   OH230355   4.956   1.264   1.120 -0.4019  0.8944 -0.6016
 2955TIP3    H130356   4.944   1.185   1.173 -0.7964  0.6678 -1.0297
 2955TIP3    H230357   4.900   1.329   1.161  0.8330  1.3222  0.4901
 2956TIP3   OH230358   4.671   4.827   4.021  0.1747  0.1278  0.1773
 2956TIP3    H130359   4.678   4.834   4.116  1.0218 -1.9159  0.3048
 2956TIP3    H230360   4.638   4.739   4.005  0.0476  0.4336 -1.4410
 2957TIP3   OH230361   4.526   4.162  13.676 -0.3598  0.1798 -0.6010
 2957TIP3    H130362   4.594   4.213  13.722 -0.8514 -0.0740  0.4472
 2957TIP3    H230363   4.447   4.216  13.683 -0.4664  0.0835 -1.0539
 2958TIP3   OH230364   2.445   5.169  13.566 -0.5187  0.1586 -0.6054
 2958TIP3    H130365   2.427   5.195  13.476 -2.1865  0.3700 -0.2419
 2958TIP3    H230366   2.363   5.185  13.612  0.3330  0.1217  0.9725
 2959TIP3   OH230367   4.765   6.158   1.061 -0.6258 -0.5938  0.2631
 2959TIP3    H130368   4.763   6.071   1.022 -3.1702 -0.0344 -1.0929
 2959TIP3    H230369   4.687   6.201   1.027  1.7057  3.0679 -1.0834
 2960TIP3   OH230370   2.637   0.033  11.791 -0.3119  0.6878 -0.5507
 2960TIP3    H130371   2.656  -0.032  11.724  1.1934  0.3311  0.1856
 2960TIP3    H230372   2.669   0.115  11.755 -0.6547  0.7259 -0.7753
 2961TIP3   OH230373   3.403   1.960  12.231  0.4576  0.3756  0.4913
 2961TIP3    H130374   3.478   1.998  12.277 -0.8848 -0.1541  3.2918
 2961TIP3    H230375   3.430   1.869  12.214  0.5439  0.2308  1.3466
 2962TIP3   OH230376   1.192   4.013  13.370 -0.8823  0.2274 -0.4001
 2962TIP3    H130377   1.114   4.056  13.404 -0.8134 -0.2322  0.3635
 2962TIP3    H230378   1.246   3.997  13.447  0.2926  1.1771 -1.0025
 2963TIP3   OH230379   1.742   1.449  12.603 -0.5622  0.0940  0.7160
 2963TIP3    H130380   1.797   1.511  12.652  0.0831 -0.5032  0.7581
 2963TIP3    H230381   1.681   1.414  12.667  0.4464 -0.8795  1.1804
 2964TIP3   OH230382   2.128   2.389  16.896  0.0639 -0.0812  0.2142
 2964TIP3    H130383   2.084   2.352  16.820  3.5276 -0.5121 -1.7630
 2964TIP3    H230384   2.060   2.442  16.939 -2.2315 -0.2953 -2.7931
 2965TIP3   OH230385   6.607   4.953   5.477 -0.2021 -0.0373 -0.3849
 2965TIP3    H130386   6.583   4.878   5.532  0.5899  0.0312  0.0678
 2965TIP3    H230387   6.612   4.917   5.388  0.7659 -0.6689 -0.0914
 2966TIP3   OH230388   0.318   4.137  14.120 -0.2188  0.2311 -0.6986
 2966TIP3    H130389   0.225   4.140  14.143  0.0733  1.5857  0.4058
 2966TIP3    H230390   0.320   4.150  14.025 -1.0280  4.0412 -0.3491
 2967TIP3   OH230391   0.531   4.188   4.350  0.0539 -0.3344 -0.1710
 2967TIP3    H130392   0.587   4.115   4.376  0.7079 -0.3611 -1.5592
 2967TIP3    H230393   0.592   4.258   4.328 -0.5618  0.5737  0.9053
 2968TIP3   OH230394   3.880   3.773   1.696  0.1113  0.0402  0.4971
 2968TIP3    H130395   3.942   3.702   1.711 -1.7060 -1.7988 -0.1486
 2968TIP3    H230396   3.875   3.780   1.600  1.4488  2.2256  0.5160
 2969TIP3   OH230397   5.755   0.288   2.925  0.5826 -0.0598  0.2980
 2969TIP3    H130398   5.699   0.216   2.956  0.0942  0.2765  0.2148
 2969TIP3    H230399   5.711   0.319   2.846  1.1565 -0.1066 -0.0428
 2970TIP3   OH230400   1.329   5.849   4.934  0.5518 -0.3478  0.0494
 2970TIP3    H130401   1.424   5.841   4.935  0.5415 -0.6075 -0.5959
 2970TIP3    H230402   1.304   5.829   4.844 -0.1014 -0.1240  0.1742
 2971TIP3   OH230403   4.394   6.851  13.489  0.0773  0.0529 -0.0628
 2971TIP3    H130404   4.345   6.848  13.571  0.6842 -3.1772  0.3209
 2971TIP3    H230405   4.411   6.944  13.474 -4.2852  1.1984  0.8334
 2972TIP3   OH230406   1.331   0.772  12.087 -0.1366 -1.0363 -0.2790
 2972TIP3    H130407   1.388   0.849  12.085 -2.6401  0.9793  0.3093
 2972TIP3    H230408   1.315   0.757  12.180 -1.4052 -0.8456 -0.4493
 2973TIP3   OH230409   3.729   3.090   3.577  0.2531  0.2948  0.0451
 2973TIP3    H130410   3.683   3.025   3.629  1.0501  0.5804  1.1283
 2973TIP3    H230411   3.692   3.080   3.489 -0.3850 -0.8827  0.4247
 2974TIP3   OH230412   3.617   5.880  16.636 -0.1762  0.5808  0.1987
 2974TIP3    H130413   3.529   5.877  16.599 -0.0557  1.2341 -0.1570
 2974TIP3    H230414   3.658   5.957  16.595  0.5641  0.2735  0.3469
 2975TIP3   OH230415   0.705   1.821  14.551  0.0102 -0.2173 -0.2736
 2975TIP3    H130416   0.734   1.832  14.642  0.3645  4.1000 -0.6971
 2975TIP3    H230417   0.781   1.784  14.506  0.0797 -1.6987  0.9967
 2976TIP3   OH230418   4.269   4.907   6.777  0.0284 -0.0033 -0.3217
 2976TIP3    H130419   4.347   4.864   6.742 -1.0546 -2.7536  0.3853
 2976TIP3    H230420   4.205   4.902   6.706 -1.6395 -4.1307  1.1624
 2977TIP3   OH230421   0.671   3.267   4.699  0.9657 -0.0775  0.3943
 2977TIP3    H130422   0.625   3.193   4.659  1.4164  0.1668 -0.6096
 2977TIP3    H230423   0.763   3.252   4.678  1.2347  0.0066  1.4565
 2978TIP3   OH230424   4.632   4.293   2.946  0.3752 -0.4056 -0.1436
 2978TIP3    H130425   4.581   4.302   3.026 -0.9805 -0.1479 -0.9989
 2978TIP3    H230426   4.648   4.199   2.938  0.5630 -0.4271  0.4424
 2979TIP3   OH230427   6.412   1.045  15.853  0.1671 -0.4973  0.4091
 2979TIP3    H130428   6.445   0.993  15.927  0.4750 -0.6216  0.1863
 2979TIP3    H230429   6.369   0.981  15.797 -2.1798 -0.0797  1.6258
 2980TIP3   OH230430   2.212   5.166  13.720 -0.4781  0.1478 -0.3117
 2980TIP3    H130431   2.153   5.232  13.684 -0.6954  0.2908  0.2822
 2980TIP3    H230432   2.165   5.131  13.795  0.0257 -0.0222 -0.0710
 2981TIP3   OH230433   4.364   6.247  11.187 -0.0768 -0.1844  0.1940
 2981TIP3    H130434   4.459   6.236  11.177 -0.0988  0.8314 -1.3821
 2981TIP3    H230435   4.353   6.339  11.210 -0.7502  0.0815 -1.1150
 2982TIP3   OH230436   2.747   5.094  12.907 -0.1367  0.2636 -0.0092
 2982TIP3    H130437   2.753   5.137  12.821 -0.7720  0.9322  0.2666
 2982TIP3    H230438   2.657   5.063  12.911  0.2198 -0.8179 -0.0564
 2983TIP3   OH230439   3.842   1.010   5.748  0.4469  0.0588  0.0056
 2983TIP3    H130440   3.924   0.968   5.771  1.0117  1.0818 -0.0902
 2983TIP3    H230441   3.797   1.023   5.832  0.5263 -0.1957  0.0884
 2984TIP3   OH230442   2.538   6.043   5.511  0.0884  0.2170  0.5642
 2984TIP3    H130443   2.551   6.089   5.428 -0.0787 -1.1907 -0.2746
 2984TIP3    H230444   2.620   5.994   5.524  0.4663  1.1182  1.7034
 2985TIP3   OH230445   5.499   0.927  13.620 -0.2583 -0.2202 -1.1384
 2985TIP3    H130446   5.434   0.902  13.555 -0.1256 -0.9164 -1.0204
 2985TIP3    H230447   5.557   0.988  13.575 -0.2264 -0.6195 -1.6422
 2986TIP3   OH230448   5.942   3.891  10.813  0.4559 -0.7171  0.3764
 2986TIP3    H130449   5.895   3.938  10.882  0.6689  0.4627 -0.2519
 2986TIP3    H230450   5.977   3.960  10.757  0.4554 -1.6468 -0.7998
 2987TIP3   OH230451   2.772   4.955  14.052  0.2251  0.1831 -0.9389
 2987TIP3    H130452   2.711   4.895  14.095 -0.3970  1.0831 -0.5423
 2987TIP3    H230453   2.798   5.017  14.120 -0.4374  1.3653 -1.7229
 2988TIP3   OH230454   2.441   0.831   2.250 -0.3815  0.2816  0.2712
 2988TIP3    H130455   2.523   0.857   2.294  0.0766 -0.1854 -0.3025
 2988TIP3    H230456   2.465   0.756   2.196 -1.6566 -1.3020  1.7785
 2989TIP3   OH230457   3.915   0.398   5.185  0.2268  0.1144  0.2473
 2989TIP3    H130458   3.888   0.394   5.277 -0.7551  0.6329 -0.0080
 2989TIP3    H230459   3.988   0.460   5.184 -0.7546  1.3031  0.4617
 2990TIP3   OH230460   5.874   6.396   1.566 -0.0872  0.9045  0.1237
 2990TIP3    H130461   5.938   6.439   1.623 -0.4511 -0.2786  1.4727
 2990TIP3    H230462   5.883   6.441   1.482 -0.3465  3.4887  1.3850
 2991TIP3   OH230463   6.330   5.575  11.313  0.0880 -0.0023  0.0441
 2991TIP3    H130464   6.244   5.616  11.324  0.9742  1.9382  0.0554
 2991TIP3    H230465   6.364   5.569  11.403 -0.3546 -1.5704  0.1343
 2992TIP3   OH230466   2.568   5.635   4.304  0.4021  0.3660  0.0578
 2992TIP3    H130467   2.593   5.663   4.216 -0.5401  0.7678 -0.1034
 2992TIP3    H230468   2.606   5.701   4.363  3.1980 -1.2558  0.2172
 2993TIP3   OH230469   3.627   2.191  13.123 -0.8997 -0.5512  0.0023
 2993TIP3    H130470   3.563   2.123  13.146 -1.4126  0.3909  1.4866
 2993TIP3    H230471   3.650   2.232  13.206 -0.1214  0.6999 -0.7887
 2994TIP3   OH230472   3.868   2.638   2.184  0.7165  0.0865  0.1664
 2994TIP3    H130473   3.844   2.726   2.213  1.5902  0.0626  1.0389
 2994TIP3    H230474   3.853   2.583   2.261  3.8075  0.1426  0.9599
 2995TIP3   OH230475   1.511   2.232   4.102 -0.3247  0.0187  0.2481
 2995TIP3    H130476   1.593   2.184   4.089 -1.3798 -1.5596 -0.8320
 2995TIP3    H230477   1.491   2.219   4.195  0.1359 -0.4333  0.2908
 2996TIP3   OH230478   1.256   6.174   0.687  0.6556  0.3007 -0.3433
 2996TIP3    H130479   1.316   6.123   0.742  1.0721  0.7790 -0.3507
 2996TIP3    H230480   1.188   6.203   0.748  1.1937  0.9520 -0.0369
 2997TIP3   OH230481   6.807   3.923   0.151 -0.0249 -0.6208 -0.2993
 2997TIP3    H130482   6.738   3.988   0.165 -0.3869 -0.5669 -2.0210
 2997TIP3    H230483   6.831   3.894   0.239  0.0486  1.7175  0.5334
 2998TIP3   OH230484   3.271   6.612   4.641 -0.3691 -0.6431  0.3525
 2998TIP3    H130485   3.342   6.650   4.691 -0.8303  0.1416  0.4264
 2998TIP3    H230486   3.202   6.679   4.640 -0.6097 -0.8674 -0.8016
 2999TIP3   OH230487   6.214   1.009  12.945  0.2432 -0.2707  0.1885
 2999TIP3    H130488   6.281   0.952  12.908  0.4133  0.1426 -0.1490
 2999TIP3    H230489   6.150   1.021  12.874 -0.8493 -1.6500  0.8830
 3000TIP3   OH230490   4.405   1.893   4.852  0.0881 -0.2786  0.2428
 3000TIP3    H130491   4.398   1.890   4.947  1.1416  0.1109  0.3492
 3000TIP3    H230492   4.407   1.802   4.825 -0.4266 -0.3908  0.5696
 3001TIP3   OH230493   5.591   0.923  15.146  0.4271  0.5762  0.8694
 3001TIP3    H130494   5.659   0.954  15.206  1.3433  0.3377 -0.0097
 3001TIP3    H230495   5.639   0.869  15.082 -0.4668  1.0183 -0.2075
 3002TIP3   OH230496   6.235   5.835   0.944  0.4726 -0.1643 -0.0113
 3002TIP3    H130497   6.184   5.816   0.865  0.8108  0.6038 -0.4203
 3002TIP3    H230498   6.172   5.827   1.015 -0.2208  0.7203 -0.5047
 3003TIP3   OH230499   6.767   5.197   6.617 -0.0220  0.7711 -0.2142
 3003TIP3    H130500   6.738   5.287   6.604  1.0626  1.2791  0.6328
 3003TIP3    H230501   6.859   5.206   6.645 -0.4604 -0.4607  1.8098
 3004TIP3   OH230502   1.442   3.965  13.212  0.0906  0.1718 -0.0609
 3004TIP3    H130503   1.349   3.974  13.234  0.4664 -0.7039  2.1601
 3004TIP3    H230504   1.488   4.016  13.279  1.2136  1.0609 -1.4674
 3005TIP3   OH230505   1.557   4.571   6.816  0.1215  0.1482 -0.4997
 3005TIP3    H130506   1.572   4.598   6.726  1.1298  1.4439  0.0289
 3005TIP3    H230507   1.538   4.652   6.863 -0.6535 -0.5409  0.4148
 3006TIP3   OH230508   5.476   2.590  12.905  0.2679 -0.4693 -0.5627
 3006TIP3    H130509   5.420   2.514  12.895 -0.2599 -0.1281 -0.2205
 3006TIP3    H230510   5.489   2.623  12.815 -0.3014 -0.3886 -0.6159
 3007TIP3   OH230511   1.558   3.977   1.326  0.5121  0.2014 -0.5015
 3007TIP3    H130512   1.531   3.989   1.235 -0.2332  0.4166 -0.2594
 3007TIP3    H230513   1.487   3.926   1.366  0.5614  0.5790  0.0903
 3008TIP3   OH230514   2.076   1.880  11.494  0.2687 -0.6523  0.0803
 3008TIP3    H130515   2.088   1.816  11.424 -0.0647 -0.6773  0.0453
 3008TIP3    H230516   1.995   1.854  11.537 -1.3492  1.2898 -1.5962
 3009TIP3   OH230517   6.752   3.243  14.827 -0.3992  0.1751  0.3410
 3009TIP3    H130518   6.788   3.244  14.916 -0.8589  1.4652  0.5400
 3009TIP3    H230519   6.657   3.236  14.840 -0.4271 -0.2946 -0.0788
 3010TIP3   OH230520   2.848   1.793  16.634 -0.2337  0.4633 -0.1002
 3010TIP3    H130521   2.887   1.729  16.574 -1.7016 -0.3606 -0.2015
 3010TIP3    H230522   2.763   1.813  16.596 -1.5225 -0.6148  2.0624
 3011TIP3   OH230523   3.444   6.093   1.601  0.8315 -0.1755  0.3852
 3011TIP3    H130524   3.462   6.168   1.546 -1.6990  1.1235  1.1631
 3011TIP3    H230525   3.438   6.019   1.541 -0.0100  0.8772 -0.8647
 3012TIP3   OH230526   6.027   5.866   5.395 -0.1344  0.0939  0.2807
 3012TIP3    H130527   6.027   5.798   5.463  1.2391  1.1738  1.4188
 3012TIP3    H230528   6.113   5.906   5.400 -0.4802  1.1270 -1.2012
 3013TIP3   OH230529   6.724   6.464   5.190  0.0526 -0.0343 -0.1366
 3013TIP3    H130530   6.729   6.373   5.219  0.8861 -0.2337 -0.8467
 3013TIP3    H230531   6.753   6.461   5.099  0.6930  1.0309  0.0177
 3014TIP3   OH230532   3.063   2.529   6.258 -0.3694  0.2350 -0.7708
 3014TIP3    H130533   3.057   2.486   6.343  0.7584 -0.1567 -0.8689
 3014TIP3    H230534   3.031   2.618   6.273  1.3809  0.7075  0.4826
 3015TIP3   OH230535   1.817   0.924  13.858 -0.4964 -0.4751  0.2485
 3015TIP3    H130536   1.808   0.846  13.802 -1.4734  0.1399 -0.5005
 3015TIP3    H230537   1.875   0.982  13.808  0.2938 -0.7421  0.8419
 3016TIP3   OH230538   0.758   2.833   1.684  0.5152  0.4364  0.5287
 3016TIP3    H130539   0.680   2.796   1.642  0.3948  1.8311 -0.5289
 3016TIP3    H230540   0.804   2.756   1.720 -1.9377 -0.3075  2.2856
 3017TIP3   OH230541   2.105   3.092   3.356  0.1307  0.3856  0.2985
 3017TIP3    H130542   2.192   3.075   3.321  0.3316  0.2918  0.8353
 3017TIP3    H230543   2.116   3.088   3.451  0.1280  3.2221  0.4991
 3018TIP3   OH230544   2.970   4.331   6.496 -0.1126  0.6155  0.5953
 3018TIP3    H130545   2.905   4.399   6.509  0.4976  1.3535 -0.1184
 3018TIP3    H230546   2.936   4.279   6.423 -1.3057 -0.7833  2.0687
 3019TIP3   OH230547   5.312   4.180  12.004  0.3332 -0.5472  0.9510
 3019TIP3    H130548   5.371   4.120  11.959  0.3765 -0.8636  1.4197
 3019TIP3    H230549   5.250   4.124  12.050 -1.7874 -0.2167 -1.3488
 3020TIP3   OH230550   1.377   2.635  12.434 -0.1193 -0.6062  0.2903
 3020TIP3    H130551   1.356   2.728  12.427  1.3010 -0.1518  1.4545
 3020TIP3    H230552   1.293   2.590  12.419 -0.4940  0.7377 -2.0675
 3021TIP3   OH230553   3.846   5.481  13.924  0.2269 -0.0355 -0.1742
 3021TIP3    H130554   3.847   5.577  13.931 -1.1732 -0.1118  1.8299
 3021TIP3    H230555   3.765   5.462  13.875 -1.9048 -0.2346  3.1023
 3022TIP3   OH230556   6.631   3.425   4.914  0.6169 -0.0530 -0.0387
 3022TIP3    H130557   6.607   3.375   4.992 -0.2781  0.5602  0.0879
 3022TIP3    H230558   6.555   3.418   4.856  1.4370 -0.8567 -1.0526
 3023TIP3   OH230559   6.217   5.929   4.742 -0.3495  0.1511  0.5339
 3023TIP3    H130560   6.201   5.888   4.827  0.5561  1.3623  1.3148
 3023TIP3    H230561   6.312   5.934   4.735 -0.4282  1.0530 -0.0608
 3024TIP3   OH230562   4.701   6.612  11.637 -0.2936 -0.3092  0.0138
 3024TIP3    H130563   4.669   6.584  11.552 -0.7375  2.2025 -0.7439
 3024TIP3    H230564   4.782   6.562  11.650  0.0343 -0.4373 -2.1147
 3025TIP3   OH230565   4.459   5.692   5.518 -0.1164  0.4886  0.3601
 3025TIP3    H130566   4.479   5.698   5.611 -0.6850  0.6816  0.4742
 3025TIP3    H230567   4.366   5.712   5.512  0.2242  1.9924 -0.4127
 3026TIP3   OH230568   3.480   2.729   4.574 -0.0076  0.3155 -0.8463
 3026TIP3    H130569   3.477   2.820   4.544 -1.7776  0.1650 -1.2322
 3026TIP3    H230570   3.543   2.686   4.515 -0.1139  1.0134 -1.4771
 3027TIP3   OH230571   1.841   1.305  15.114 -0.2275  0.7519 -0.5859
 3027TIP3    H130572   1.776   1.373  15.133 -0.5045  1.3015 -3.1721
 3027TIP3    H230573   1.920   1.353  15.089  0.6537  0.0797  0.7983
 3028TIP3   OH230574   3.468   6.814   2.913  0.5171  0.0325 -0.0969
 3028TIP3    H130575   3.447   6.896   2.958  1.4559  0.1323  0.1867
 3028TIP3    H230576   3.393   6.798   2.856 -0.0195  0.6867  0.4070
 3029TIP3   OH230577   0.448   0.602   4.221  0.0218  0.2478  0.3435
 3029TIP3    H130578   0.529   0.607   4.170  1.2838 -0.4815  2.1704
 3029TIP3    H230579   0.450   0.678   4.278  0.1929 -0.5674  1.4506
 3030TIP3   OH230580   5.762   1.639   0.207 -0.3708 -0.2162 -0.5363
 3030TIP3    H130581   5.781   1.608   0.118 -0.8114 -0.7581 -0.4445
 3030TIP3    H230582   5.822   1.589   0.263  2.1954  2.3436 -0.7736
 3031TIP3   OH230583   0.166   6.175   4.436  0.4142 -0.1235  1.0420
 3031TIP3    H130584   0.221   6.111   4.482 -0.5741 -1.3089  0.6435
 3031TIP3    H230585   0.093   6.123   4.403 -0.6266  1.3057  1.0332
 3032TIP3   OH230586   4.451   3.413  13.980 -0.1504  0.3909  0.1473
 3032TIP3    H130587   4.477   3.336  13.929 -1.0767 -0.8179  1.4362
 3032TIP3    H230588   4.383   3.454  13.927 -0.6572 -0.4879  0.0977
 3033TIP3   OH230589   4.987   2.835  16.586  0.1670 -0.0724 -0.8729
 3033TIP3    H130590   4.935   2.907  16.551  1.5589  1.0168 -0.7939
 3033TIP3    H230591   4.925   2.785  16.640 -0.6111  1.6794 -0.0522
 3034TIP3   OH230592   6.199   4.023  16.894  0.0926  0.0280 -0.3456
 3034TIP3    H130593   6.252   4.103  16.896  0.2960 -0.1249  0.7097
 3034TIP3    H230594   6.137   4.038  16.823 -0.1028  1.2781  0.0585
 3035TIP3   OH230595   0.402   4.139  11.582  0.0548 -0.3608  0.0234
 3035TIP3    H130596   0.392   4.193  11.660 -0.2044 -0.9479  0.4045
 3035TIP3    H230597   0.496   4.130  11.570  0.1311  1.1182 -0.7180
 3036TIP3   OH230598   6.341   0.765  13.712 -0.1461  0.2369  0.0918
 3036TIP3    H130599   6.264   0.709  13.722 -1.8792  2.2361 -1.2228
 3036TIP3    H230600   6.328   0.835  13.776  0.9615  0.2139  0.3518
 3037TIP3   OH230601   5.584   4.785   5.298  0.3447  0.1609 -0.6186
 3037TIP3    H130602   5.597   4.749   5.386  2.0651  0.5211 -0.6940
 3037TIP3    H230603   5.603   4.878   5.308  0.1013  0.2835 -1.2893
 3038TIP3   OH230604   1.796   0.270  14.025  0.1598 -0.2263  0.0739
 3038TIP3    H130605   1.871   0.216  14.048  0.8762  0.4903 -0.5277
 3038TIP3    H230606   1.820   0.358  14.055 -0.2984  0.0705 -0.4193
 3039TIP3   OH230607   5.375   3.029  16.170 -0.3378  0.1541 -0.2234
 3039TIP3    H130608   5.310   2.982  16.222 -0.9651  0.1358 -0.9862
 3039TIP3    H230609   5.376   2.982  16.086  1.0081 -0.1254 -0.0690
 3040TIP3   OH230610   5.434   6.376   5.674  0.4623 -0.2360 -0.0149
 3040TIP3    H130611   5.393   6.374   5.760  1.2840  1.0518  0.4470
 3040TIP3    H230612   5.440   6.469   5.652  0.8958 -0.5095 -1.1505
 3041TIP3   OH230613   2.085   0.242   4.981 -0.0429 -0.1875  0.1670
 3041TIP3    H130614   2.152   0.310   4.979 -0.6757  0.4903  1.2345
 3041TIP3    H230615   2.053   0.237   4.891  1.2459 -0.3359 -0.2947
 3042TIP3   OH230616   3.992   2.664  12.422 -0.6974 -0.1246  0.1820
 3042TIP3    H130617   4.020   2.627  12.338 -0.3336  0.3105  0.1077
 3042TIP3    H230618   3.897   2.653  12.422 -0.5973 -1.0656  0.1706
 3043TIP3   OH230619   4.652   5.235  14.984  0.5658  0.7514  0.4219
 3043TIP3    H130620   4.714   5.181  15.033  2.6815  1.9314 -0.8101
 3043TIP3    H230621   4.602   5.172  14.932  1.0406 -0.2089  1.0805
 3044TIP3   OH230622   6.731   6.105   4.813  0.2765 -0.0047 -0.2796
 3044TIP3    H130623   6.654   6.110   4.757  0.1271 -0.4390 -0.1171
 3044TIP3    H230624   6.762   6.015   4.805  1.0253  0.2775 -0.6768
 3045TIP3   OH230625   1.280   1.212   2.357  0.1096  0.2782  0.2603
 3045TIP3    H130626   1.366   1.175   2.376  1.1234  1.3832 -1.7844
 3045TIP3    H230627   1.294   1.307   2.360 -0.2051  0.5373 -3.0149
 3046TIP3   OH230628   4.023   3.888  10.920 -0.0137 -0.4124 -0.1283
 3046TIP3    H130629   3.992   3.818  10.863  1.0177 -2.6621  1.8958
 3046TIP3    H230630   4.114   3.865  10.938 -0.1072  0.5957  1.8443
 3047TIP3   OH230631   4.741   6.759  13.266 -0.5139  0.0066  0.1062
 3047TIP3    H130632   4.655   6.751  13.308  0.1106 -0.1717  1.4154
 3047TIP3    H230633   4.737   6.843  13.220 -1.5787 -0.2735 -0.3401
 3048TIP3   OH230634   5.656   2.172   4.779 -0.1715  0.3048  0.1235
 3048TIP3    H130635   5.652   2.203   4.869 -0.8401  0.5499  0.0171
 3048TIP3    H230636   5.638   2.078   4.785  0.1723  0.2480  0.2820
 3049TIP3   OH230637   3.991   6.023   0.254  0.0311 -0.4751 -0.4906
 3049TIP3    H130638   3.943   5.955   0.207  0.9435 -0.6833 -1.1526
 3049TIP3    H230639   4.068   6.040   0.199  1.6055 -1.3330  1.3492
 3050TIP3   OH230640   2.573   6.188  14.679 -0.1718 -0.1977 -0.4329
 3050TIP3    H130641   2.550   6.155  14.766  1.2235  0.4007  0.2017
 3050TIP3    H230642   2.585   6.110  14.625 -0.6468 -0.5843  0.0187
 3051TIP3   OH230643   5.441   6.319  11.465  0.0209  0.1449  0.2352
 3051TIP3    H130644   5.467   6.232  11.494 -0.5974 -0.1328 -0.0056
 3051TIP3    H230645   5.346   6.321  11.479  0.1813  1.1905  1.2892
 3052TIP3   OH230646   5.326   1.319  14.957  0.8648 -0.1490 -0.0642
 3052TIP3    H130647   5.345   1.365  14.875 -0.5121 -1.8458 -1.4340
 3052TIP3    H230648   5.403   1.264  14.971  2.0689  1.7153  1.0348
 3053TIP3   OH230649   3.661   0.556  11.594 -0.8767  0.1722  0.0375
 3053TIP3    H130650   3.703   0.491  11.651 -1.1245  0.4131  0.4923
 3053TIP3    H230651   3.699   0.539  11.508 -1.4898 -1.0805 -0.0134
 3054TIP3   OH230652   2.948   4.463  11.127  0.3532 -0.0404  0.5820
 3054TIP3    H130653   2.934   4.556  11.113 -1.3185 -0.1244  1.4204
 3054TIP3    H230654   3.043   4.454  11.138  0.5173  1.5931  0.7264
 3055TIP3   OH230655   1.131   0.278  15.803  0.0705 -0.8673  0.2714
 3055TIP3    H130656   1.182   0.321  15.734  0.0630 -0.3633  0.5707
 3055TIP3    H230657   1.188   0.281  15.880 -1.3947  2.2748  1.4101
 3056TIP3   OH230658   2.491   5.710   1.194 -0.4483 -0.2993 -0.0460
 3056TIP3    H130659   2.533   5.625   1.193  0.0411 -0.0644 -1.1299
 3056TIP3    H230660   2.426   5.704   1.264 -0.0011 -1.3447  0.2966
 3057TIP3   OH230661   2.709   1.434  14.724  0.4887  0.2017  0.2671
 3057TIP3    H130662   2.780   1.410  14.783  0.4646  0.6600  0.4940
 3057TIP3    H230663   2.658   1.354  14.713  1.8444 -0.5227 -1.0505
 3058TIP3   OH230664   0.033   6.113  10.041 -0.0921  0.5754  0.0692
 3058TIP3    H130665   0.084   6.161  10.106 -0.0574  1.3562 -0.5250
 3058TIP3    H230666  -0.054   6.153  10.044 -0.2638  0.2178  0.0378
 3059TIP3   OH230667   2.107   3.220   4.606 -0.0329  0.6887  0.6556
 3059TIP3    H130668   2.081   3.281   4.537 -0.0325 -0.2892 -0.2225
 3059TIP3    H230669   2.037   3.228   4.671  0.5249  2.4324  1.1059
 3060TIP3   OH230670   1.837   2.232  14.130  0.1862  0.1440  0.0229
 3060TIP3    H130671   1.835   2.219  14.035 -2.3022  0.2295  0.0042
 3060TIP3    H230672   1.816   2.325  14.141  0.7787  0.2051  0.6627
 3061TIP3   OH230673   5.884   4.609   0.658 -0.3912  0.1030  0.0793
 3061TIP3    H130674   5.908   4.661   0.734 -1.5613  1.2130 -0.2759
 3061TIP3    H230675   5.819   4.546   0.691 -0.5274  0.2534  0.0995
 3062TIP3   OH230676   3.170   4.709  14.016 -0.2921 -1.1541  0.1680
 3062TIP3    H130677   3.180   4.732  13.924 -1.2695  0.6457  0.4757
 3062TIP3    H230678   3.075   4.700  14.028 -0.3100  0.3048  1.3552
 3063TIP3   OH230679   3.956   2.460  16.022  0.4459  0.4672  0.5855
 3063TIP3    H130680   3.925   2.539  16.067 -1.3339 -0.6762  1.4773
 3063TIP3    H230681   3.997   2.408  16.092 -1.4351 -0.8731  0.7609
 3064TIP3   OH230682   0.935   4.219  12.161 -0.1075 -0.1910  0.1454
 3064TIP3    H130683   0.863   4.280  12.144  0.5151  0.2001 -1.2518
 3064TIP3    H230684   0.918   4.186  12.250 -2.1094 -0.2783 -0.2218
 3065TIP3   OH230685   4.118   5.570   2.984  0.3233  0.5343 -0.2061
 3065TIP3    H130686   4.077   5.557   2.899 -0.1991 -2.4667  0.3735
 3065TIP3    H230687   4.205   5.605   2.964  1.2837 -2.5939 -2.2816
 3066TIP3   OH230688   1.781   1.838   3.293 -0.4635 -0.1997  0.5630
 3066TIP3    H130689   1.723   1.877   3.228 -0.5727 -1.8557 -0.3793
 3066TIP3    H230690   1.743   1.862   3.377 -0.5997  1.5653  0.0411
 3067TIP3   OH230691   1.828   5.871   2.210 -0.2778 -0.2363 -0.1329
 3067TIP3    H130692   1.789   5.864   2.123  0.1076  0.1260 -0.3371
 3067TIP3    H230693   1.911   5.823   2.203  0.4708  1.0585 -0.3971
 3068TIP3   OH230694   1.728   1.486  14.802 -0.1673 -0.0667  0.5223
 3068TIP3    H130695   1.778   1.530  14.870  1.2433  0.0865 -0.5806
 3068TIP3    H230696   1.684   1.556  14.754 -1.5291 -0.2018  1.5029
 3069TIP3   OH230697   2.766   2.564   3.898  0.6071 -0.4914 -0.2638
 3069TIP3    H130698   2.721   2.612   3.829 -0.0971 -1.4554 -0.4969
 3069TIP3    H230699   2.839   2.620   3.923  0.1420  0.4266 -0.9258
 3070TIP3   OH230700   5.434   3.610  11.415  0.3305 -0.3550  0.3326
 3070TIP3    H130701   5.436   3.692  11.464 -0.3906 -0.3328  0.3347
 3070TIP3    H230702   5.410   3.635  11.326  0.4804 -0.5255  0.2423
 3071TIP3   OH230703   0.141   0.997  15.430  0.1119  0.0449 -0.1716
 3071TIP3    H130704   0.230   0.965  15.417 -0.3875 -1.6549  0.3495
 3071TIP3    H230705   0.095   0.924  15.471 -1.3360  1.1558  0.2580
 3072TIP3   OH230706   5.001   4.991  16.424 -0.1976  0.1680  0.2492
 3072TIP3    H130707   4.924   4.949  16.384  0.2884 -0.1313 -0.3887
 3072TIP3    H230708   4.999   4.961  16.515 -1.1500  0.6180  0.3900
 3073TIP3   OH230709   2.734   4.758  15.544  0.2293  0.6414 -0.6106
 3073TIP3    H130710   2.759   4.839  15.587 -0.8235 -0.4108  2.1971
 3073TIP3    H230711   2.639   4.758  15.546  0.1270 -1.9931  2.4432
 3074TIP3   OH230712   3.636   1.930   1.050  0.9120  0.0823 -0.5489
 3074TIP3    H130713   3.720   1.976   1.055  0.9875  0.2019 -2.1572
 3074TIP3    H230714   3.647   1.870   0.976  0.8032 -2.5735  1.4894
 3075TIP3   OH230715   4.656   1.395  13.093  0.4884  0.2702 -0.2760
 3075TIP3    H130716   4.609   1.350  13.021  0.2633 -0.2502  0.1849
 3075TIP3    H230717   4.635   1.487  13.080  0.5075  0.1931 -0.9262
 3076TIP3   OH230718   4.056   3.066   0.527  0.0393 -0.4607  0.5983
 3076TIP3    H130719   4.003   3.005   0.475 -0.5757 -0.5130  1.2707
 3076TIP3    H230720   4.146   3.047   0.502 -0.2504 -0.2952 -0.6621
 3077TIP3   OH230721   3.879   2.820  15.565  0.2119 -0.6778  0.7069
 3077TIP3    H130722   3.880   2.743  15.622  0.6310 -0.5951  0.8188
 3077TIP3    H230723   3.968   2.823  15.529  0.8051  0.8046  2.1301
 3078TIP3   OH230724   5.109   3.024   4.702 -0.2840  1.0400 -0.2309
 3078TIP3    H130725   5.171   2.951   4.710 -0.7584  0.7237  0.7264
 3078TIP3    H230726   5.033   2.986   4.658 -0.3058  1.0953 -0.2403
 3079TIP3   OH230727   6.150   1.702   0.569 -0.0934  0.6224 -0.3500
 3079TIP3    H130728   6.149   1.622   0.622 -1.4199 -0.1107 -1.4122
 3079TIP3    H230729   6.241   1.730   0.570  0.7428 -1.8271 -1.2596
 3080TIP3   OH230730   4.369   1.684  15.796 -0.0754  0.4940  0.2274
 3080TIP3    H130731   4.408   1.599  15.776 -1.4164 -0.4078  1.2277
 3080TIP3    H230732   4.412   1.745  15.736  0.2619 -1.0379 -1.1618
 3081TIP3   OH230733   6.165   0.859  16.746 -0.6234 -0.4412  0.0295
 3081TIP3    H130734   6.213   0.919  16.689  0.0846  0.2785  1.3323
 3081TIP3    H230735   6.160   0.777  16.696  2.6204 -0.7997  0.0852
 3082TIP3   OH230736   3.784   6.109   4.021  0.0580 -0.7221  0.2778
 3082TIP3    H130737   3.855   6.150   3.973  0.1265  0.0313  1.0078
 3082TIP3    H230738   3.782   6.019   3.989  0.8909 -0.5636 -0.2353
 3083TIP3   OH230739   4.824   4.918  11.453 -0.4541  0.1678  0.1016
 3083TIP3    H130740   4.877   4.898  11.376 -1.0293 -0.5751 -0.1135
 3083TIP3    H230741   4.737   4.884  11.432 -0.6138 -0.0562  1.0800
 3084TIP3   OH230742   4.140   2.834  13.756  0.8662 -0.2524 -0.5580
 3084TIP3    H130743   4.061   2.839  13.810 -0.3244 -1.9250 -2.0313
 3084TIP3    H230744   4.141   2.917  13.709  0.9029  0.4554  0.6547
 3085TIP3   OH230745   5.311   5.617  15.592 -0.1642 -0.1840 -0.5226
 3085TIP3    H130746   5.319   5.684  15.661  0.4943 -0.0859 -0.6900
 3085TIP3    H230747   5.314   5.534  15.640 -1.9382 -0.1075 -0.2139
 3086TIP3   OH230748   4.920   5.675   5.045 -0.2359 -0.5694 -0.8329
 3086TIP3    H130749   4.967   5.592   5.042 -1.2387 -1.1659 -0.7529
 3086TIP3    H230750   4.988   5.742   5.039  0.5137 -1.4029 -2.0418
 3087TIP3   OH230751   3.717   4.969  12.589  0.0358  0.2402 -0.2666
 3087TIP3    H130752   3.792   5.018  12.621 -0.8025  1.7567 -0.5629
 3087TIP3    H230753   3.752   4.881  12.572  1.2570  0.3034  1.5844
 3088TIP3   OH230754   6.311   6.842   2.509 -0.0148  0.4264  0.2129
 3088TIP3    H130755   6.335   6.934   2.524  0.4878  0.1324  1.2851
 3088TIP3    H230756   6.344   6.823   2.422  0.1545  1.1715  0.1047
 3089TIP3   OH230757   4.456   0.175   2.886  0.0779 -0.1328 -0.7864
 3089TIP3    H130758   4.409   0.245   2.931  0.3141 -0.9402  0.8070
 3089TIP3    H230759   4.421   0.095   2.925  2.8541 -0.7772  0.6770
 3090TIP3   OH230760   3.261   1.357  12.323  0.5234  0.5586 -0.0151
 3090TIP3    H130761   3.278   1.364  12.417  2.4242  0.2787 -0.3006
 3090TIP3    H230762   3.169   1.333  12.318  0.8536 -1.4079  1.8570
 3091TIP3   OH230763   5.725   0.287  11.181  0.7337 -0.9633 -0.0913
 3091TIP3    H130764   5.660   0.288  11.110  0.1981  1.2847  0.3582
 3091TIP3    H230765   5.686   0.230  11.247 -0.9060  0.4508  0.2269
 3092TIP3   OH230766   5.097   1.198   4.748  0.2644 -0.2791  0.0541
 3092TIP3    H130767   5.130   1.129   4.806  0.0416  0.3587  0.9671
 3092TIP3    H230768   5.025   1.237   4.797  1.1355  1.3739  0.0657
 3093TIP3   OH230769   1.298   5.666  11.981  0.0871  0.1681  0.4005
 3093TIP3    H130770   1.342   5.585  11.955 -0.9600 -0.8390  1.6438
 3093TIP3    H230771   1.312   5.672  12.075  1.5248  2.3326  0.1129
 3094TIP3   OH230772   2.217   5.070  15.539  0.0493  0.2460  0.5873
 3094TIP3    H130773   2.279   5.138  15.513  0.5260 -0.0841  0.8552
 3094TIP3    H230774   2.265   4.988  15.529 -0.6020 -0.0858  0.0052
 3095TIP3   OH230775   1.258   6.678   5.724  0.2466  0.1056 -0.5062
 3095TIP3    H130776   1.288   6.594   5.689  1.9150  1.4909 -2.6701
 3095TIP3    H230777   1.278   6.741   5.655 -1.6169  2.2097  0.7358
 3096TIP3   OH230778   1.759   5.564   3.464  0.2771 -0.5502 -0.9708
 3096TIP3    H130779   1.821   5.503   3.505 -1.0199  0.2937  2.6059
 3096TIP3    H230780   1.810   5.643   3.447  0.9433 -1.0653 -1.4343
 3097TIP3   OH230781   1.209   5.232   6.596  0.3881 -0.3195  0.1129
 3097TIP3    H130782   1.137   5.207   6.538  0.8817 -0.6503 -0.3619
 3097TIP3    H230783   1.175   5.307   6.645 -0.0740 -0.0891 -0.5403
 3098TIP3   OH230784   3.334   3.295  16.603 -0.4754  0.0999  0.2093
 3098TIP3    H130785   3.387   3.224  16.567 -0.3922  0.3249 -0.1202
 3098TIP3    H230786   3.394   3.370  16.604 -0.2335 -0.0860  1.5415
 3099TIP3   OH230787   1.017   2.191   1.218 -0.1150  0.4551  0.3814
 3099TIP3    H130788   0.947   2.131   1.192  1.2666 -0.7201 -0.7595
 3099TIP3    H230789   1.045   2.160   1.304 -0.2063  0.1938  0.3178
 3100TIP3   OH230790   1.146   3.134   1.047 -0.3611 -0.4912 -0.2313
 3100TIP3    H130791   1.210   3.069   1.019  0.6513  0.5132 -0.3541
 3100TIP3    H230792   1.177   3.162   1.134 -1.6453 -1.2549  0.4940
 3101TIP3   OH230793   2.431   4.653  12.733  0.0695  0.4063  0.1094
 3101TIP3    H130794   2.339   4.629  12.721  0.0977  1.2943 -2.4939
 3101TIP3    H230795   2.478   4.570  12.734 -0.6881 -0.0276  0.8968
 3102TIP3   OH230796   5.873   3.195  11.287  0.1438 -0.0915 -0.2067
 3102TIP3    H130797   5.923   3.235  11.216  0.3647 -1.2587 -0.7194
 3102TIP3    H230798   5.785   3.231  11.277 -0.0973 -1.0122 -1.7143
 3103TIP3   OH230799   3.738   2.366   3.144  0.0393  0.0262  0.1719
 3103TIP3    H130800   3.793   2.417   3.085 -1.1518  1.2342  0.0488
 3103TIP3    H230801   3.649   2.393   3.123 -0.4700 -0.1028  1.9584
 3104TIP3   OH230802   4.841   0.336  11.943 -0.5158 -0.3433  0.2003
 3104TIP3    H130803   4.858   0.420  11.901  1.1633 -0.8633 -0.2425
 3104TIP3    H230804   4.767   0.300  11.893 -0.3095  0.2350 -0.5523
 3105TIP3   OH230805   6.798   5.878  12.320  0.2037  0.3337 -0.4218
 3105TIP3    H130806   6.790   5.788  12.352 -0.0712  0.0566 -1.2542
 3105TIP3    H230807   6.863   5.874  12.250 -0.4468  0.6221 -1.0517
 3106TIP3   OH230808   1.122   1.447  16.048 -0.2359 -0.2162 -0.3261
 3106TIP3    H130809   1.075   1.437  15.965  0.4258 -0.4434 -0.6786
 3106TIP3    H230810   1.156   1.537  16.047  0.0103 -0.3093 -0.4307
 3107TIP3   OH230811   4.428   2.534  14.820 -0.3460  1.0059  0.0256
 3107TIP3    H130812   4.385   2.490  14.893  0.5151  0.7737  0.4043
 3107TIP3    H230813   4.515   2.493  14.815  0.1417  2.0394 -0.1849
 3108TIP3   OH230814   4.342   6.085  13.129 -0.3074 -0.8902 -0.1499
 3108TIP3    H130815   4.376   5.995  13.125 -0.5256 -0.9700 -0.3023
 3108TIP3    H230816   4.420   6.140  13.134  0.1468 -0.8350 -4.2401
 3109TIP3   OH230817   6.790   1.707  13.052  1.0912  0.3495  0.0550
 3109TIP3    H130818   6.718   1.770  13.060  1.8325  1.5221 -1.8424
 3109TIP3    H230819   6.863   1.748  13.098  1.3155  0.4946 -0.4170
 3110TIP3   OH230820   3.703   0.409  14.011  0.1105  0.4127 -0.2894
 3110TIP3    H130821   3.703   0.347  13.938 -0.4129  2.3241 -2.0032
 3110TIP3    H230822   3.613   0.410  14.043  0.0267  0.5738 -0.5277
 3111TIP3   OH230823   4.516   1.685  12.685 -0.3679  0.3763 -0.4461
 3111TIP3    H130824   4.606   1.654  12.674 -0.5234 -0.2160 -0.0995
 3111TIP3    H230825   4.513   1.719  12.774 -1.1358 -1.9338  0.4770
 3112TIP3   OH230826   6.651   1.701   2.302 -0.1389  0.3970  0.8798
 3112TIP3    H130827   6.617   1.673   2.388 -1.2345  0.0707  0.3656
 3112TIP3    H230828   6.591   1.661   2.239 -0.4521  2.0957  0.0243
 3113TIP3   OH230829   2.315   4.306  11.878  0.1412  0.2454 -0.1041
 3113TIP3    H130830   2.355   4.302  11.791 -0.1390 -0.1706 -0.2140
 3113TIP3    H230831   2.236   4.359  11.865  1.6856  2.9313  0.5222
 3114TIP3   OH230832   1.614   1.210  11.197  0.0938  0.2412 -0.5123
 3114TIP3    H130833   1.523   1.222  11.225 -0.4037 -0.4877 -1.7265
 3114TIP3    H230834   1.614   1.125  11.153  1.0182  0.9531 -1.9307
 3115TIP3   OH230835   4.681   3.550   2.068 -0.0015  0.3471 -0.5455
 3115TIP3    H130836   4.655   3.567   2.158 -0.2777 -0.9295 -0.3624
 3115TIP3    H230837   4.606   3.577   2.015 -1.2912 -2.0630 -0.1174
 3116TIP3   OH230838   0.818   5.126   2.401  0.1990 -0.0206 -0.0668
 3116TIP3    H130839   0.896   5.101   2.352  0.5431  0.0211  0.4577
 3116TIP3    H230840   0.748   5.074   2.362  0.9413 -2.0677  1.1584
 3117TIP3   OH230841   2.329   2.588  16.885 -0.5201 -0.0627 -0.5917
 3117TIP3    H130842   2.422   2.567  16.882 -0.3900  0.6114 -1.8821
 3117TIP3    H230843   2.288   2.506  16.914  0.3638 -0.7710 -1.2617
 3118TIP3   OH230844   3.425   3.749   5.276  1.1511 -0.2857 -0.1592
 3118TIP3    H130845   3.358   3.817   5.266  0.4194 -1.1305 -1.2501
 3118TIP3    H230846   3.465   3.768   5.361 -2.5761 -1.5678  2.1351
 3119TIP3   OH230847   1.813   5.321   5.164  0.2600 -0.2735 -0.1796
 3119TIP3    H130848   1.846   5.295   5.250 -1.8086 -0.2218  0.6769
 3119TIP3    H230849   1.792   5.238   5.121 -1.6124 -0.2712  0.6175
 3120TIP3   OH230850   5.776   1.304   2.414  0.2880 -0.7521  0.3374
 3120TIP3    H130851   5.799   1.296   2.322 -1.0970  0.1325 -0.1302
 3120TIP3    H230852   5.701   1.246   2.425  0.0733 -0.4048  0.7410
 3121TIP3   OH230853   5.915   4.914  12.273 -0.3117  0.2380  0.0294
 3121TIP3    H130854   5.895   4.998  12.315 -1.3160  0.1983 -0.3236
 3121TIP3    H230855   5.830   4.883  12.241 -0.0864 -1.3164  0.8620
 3122TIP3   OH230856   6.192   0.963  10.842  0.2845 -0.5268 -0.8853
 3122TIP3    H130857   6.205   1.055  10.862 -0.9775 -0.4398 -0.3802
 3122TIP3    H230858   6.254   0.917  10.898  0.0922 -0.0424 -0.2705
 3123TIP3   OH230859   1.592   4.602   2.781 -0.2943  0.2083  0.3827
 3123TIP3    H130860   1.514   4.577   2.830  1.2389 -2.5430  1.7111
 3123TIP3    H230861   1.656   4.625   2.848  1.0835 -1.1099 -0.4027
 3124TIP3   OH230862   1.216   3.614   0.752 -0.1777 -0.0245 -0.2232
 3124TIP3    H130863   1.306   3.626   0.782  0.1406 -1.2989 -0.5934
 3124TIP3    H230864   1.186   3.536   0.799 -1.6851  1.3427  1.1836
 3125TIP3   OH230865   0.174   2.239   4.590 -0.2920 -0.0755 -0.0012
 3125TIP3    H130866   0.131   2.156   4.569 -0.9449  0.1639  0.3423
 3125TIP3    H230867   0.265   2.216   4.607 -0.3221 -0.6232 -0.5722
 3126TIP3   OH230868   6.089   5.041   3.574  0.5715  0.2740  0.4057
 3126TIP3    H130869   6.121   4.973   3.515  0.4931 -0.2393  0.9424
 3126TIP3    H230870   6.167   5.069   3.623  0.9631  1.8219 -1.0070
 3127TIP3   OH230871   2.232   6.172  14.936  0.1122 -0.6213 -0.5171
 3127TIP3    H130872   2.291   6.196  15.007 -0.8567 -3.0544  1.2653
 3127TIP3    H230873   2.289   6.134  14.869  1.1275  2.4117 -1.5337
 3128TIP3   OH230874   6.430   5.921   2.641 -0.2248  0.8943 -0.0581
 3128TIP3    H130875   6.431   6.003   2.689  0.0917  1.0830 -0.3818
 3128TIP3    H230876   6.479   5.939   2.560 -0.0922  0.3731 -0.1018
 3129TIP3   OH230877   1.096   1.778   1.699 -0.0710 -0.2663 -0.0322
 3129TIP3    H130878   1.043   1.764   1.620 -1.5464  1.3150  0.6194
 3129TIP3    H230879   1.036   1.763   1.772  1.0481 -0.8669  0.7876
 3130TIP3   OH230880   6.833   5.903   1.386 -0.4877  0.0847 -0.2633
 3130TIP3    H130881   6.819   5.870   1.474 -0.3152 -1.3987 -0.7626
 3130TIP3    H230882   6.798   5.992   1.388  0.0408  0.2909  1.4454
 3131TIP3   OH230883   1.956   3.189   5.488  0.0035 -0.0997 -0.2062
 3131TIP3    H130884   2.007   3.133   5.546 -0.7216  0.6290  1.2042
 3131TIP3    H230885   1.881   3.135   5.463 -1.2192  0.4747  1.9500
 3132TIP3   OH230886   3.455   0.639  13.131 -0.1735  0.4156 -0.3045
 3132TIP3    H130887   3.376   0.676  13.170  0.4914  0.6540  0.8725
 3132TIP3    H230888   3.510   0.715  13.113  0.5792  0.1425  0.7312
 3133TIP3   OH230889   2.306   3.913  15.267  0.0507 -0.4968  0.5438
 3133TIP3    H130890   2.228   3.860  15.250 -0.9580 -0.5142  4.4327
 3133TIP3    H230891   2.312   3.919  15.362  0.8314  5.2953  0.4911
 3134TIP3   OH230892   6.498   6.495   4.167 -0.0014 -0.5288  0.8538
 3134TIP3    H130893   6.549   6.564   4.124 -0.9304  0.0956  0.7093
 3134TIP3    H230894   6.496   6.520   4.259 -0.2899 -0.3911  0.8110
 3135TIP3   OH230895   0.804   1.093  11.328  0.0635  0.2217 -0.2136
 3135TIP3    H130896   0.743   1.129  11.264 -2.1291  0.6376  1.9653
 3135TIP3    H230897   0.815   1.002  11.302 -0.0757  0.5941 -1.6479
 3136TIP3   OH230898   6.141   0.995   6.216 -0.2908 -0.3291  0.6438
 3136TIP3    H130899   6.187   1.041   6.285 -0.2410  0.0677  0.3498
 3136TIP3    H230900   6.051   0.987   6.249 -0.7827  1.6677 -0.0749
 3137TIP3   OH230901   4.269   3.966  11.990  0.3487  0.4137  0.0589
 3137TIP3    H130902   4.228   4.018  11.921  0.2071 -1.6748 -1.5594
 3137TIP3    H230903   4.351   3.936  11.952  0.4150 -0.5530  0.9099
 3138TIP3   OH230904   4.922   4.576   2.403  0.6094  0.1960 -0.1084
 3138TIP3    H130905   5.007   4.534   2.415  0.3093 -0.6003 -0.6877
 3138TIP3    H230906   4.867   4.542   2.474  0.8071  0.8165  0.3480
 3139TIP3   OH230907   2.039   1.343   1.438  0.1210  0.3683  0.0831
 3139TIP3    H130908   2.013   1.415   1.496 -0.1078 -1.5536  2.5046
 3139TIP3    H230909   1.990   1.268   1.469  0.7091 -0.9906 -2.0736
 3140TIP3   OH230910   3.694   1.341   5.860 -0.0885 -0.1713 -0.0971
 3140TIP3    H130911   3.718   1.259   5.903 -1.7159 -0.4965  0.2667
 3140TIP3    H230912   3.709   1.408   5.926  1.7583 -0.0777 -0.5690
 3141TIP3   OH230913   5.359   3.108   4.758  0.2493 -0.2188  0.7101
 3141TIP3    H130914   5.269   3.092   4.728  0.1922  0.5199  0.4800
 3141TIP3    H230915   5.374   3.201   4.742  1.1032 -0.3602  0.6164
 3142TIP3   OH230916   1.391   6.162   5.009 -0.2125 -0.6777 -0.1205
 3142TIP3    H130917   1.341   6.080   5.001  0.2490 -0.8853 -0.9419
 3142TIP3    H230918   1.324   6.230   5.012 -0.7367 -1.1958  3.0139
 3143TIP3   OH230919   5.302   2.796   4.702  0.1841 -0.2567  0.5954
 3143TIP3    H130920   5.385   2.767   4.664  1.0753 -1.4649  3.2328
 3143TIP3    H230921   5.244   2.721   4.694  0.5736 -0.7348  2.1001
 3144TIP3   OH230922   2.035   3.892   5.614  0.0592  0.2079  0.6502
 3144TIP3    H130923   1.950   3.905   5.656 -1.2453 -1.5816 -1.2359
 3144TIP3    H230924   2.048   3.798   5.614  1.5391  0.3780 -0.0990
 3145TIP3   OH230925   6.829   2.267  11.221 -0.4214  0.0942  0.6619
 3145TIP3    H130926   6.771   2.275  11.145  0.4119  1.2324  0.1060
 3145TIP3    H230927   6.800   2.188  11.266 -2.0310  0.3354  0.0991
 3146TIP3   OH230928   5.612   6.323  14.953  0.0551 -0.1144  0.0301
 3146TIP3    H130929   5.694   6.275  14.937  0.3910  0.5688 -0.3525
 3146TIP3    H230930   5.626   6.408  14.911 -0.8029  0.0601  0.0868
 3147TIP3   OH230931   4.900   1.561  11.016 -0.3227 -0.0051  0.3008
 3147TIP3    H130932   4.816   1.523  11.043 -0.7236 -0.0191 -0.8824
 3147TIP3    H230933   4.909   1.536  10.924  1.9494 -1.7424  0.8819
 3148TIP3   OH230934   1.520   0.685  14.801 -0.1816 -0.1348  0.0752
 3148TIP3    H130935   1.461   0.665  14.728 -0.5967 -1.0097  0.6366
 3148TIP3    H230936   1.576   0.608  14.809 -1.6677 -1.1230  2.1339
 3149TIP3   OH230937   2.328   4.258   3.925  0.3414  0.0299  0.7313
 3149TIP3    H130938   2.418   4.256   3.955 -0.1729 -0.6452  2.3369
 3149TIP3    H230939   2.277   4.280   4.003 -0.9840 -0.8107  0.1452
 3150TIP3   OH230940   3.948   5.572  11.646  0.1320 -0.1535 -0.6627
 3150TIP3    H130941   3.940   5.560  11.552 -1.1967 -1.5765 -0.3938
 3150TIP3    H230942   3.977   5.487  11.679 -1.3595 -0.2716  0.4129
 3151TIP3   OH230943   1.866   6.201  13.870  0.4946  0.0567  0.1497
 3151TIP3    H130944   1.778   6.161  13.873  1.1383 -1.4325  0.2651
 3151TIP3    H230945   1.849   6.295  13.868 -1.0883 -0.1440  1.4777
 3152TIP3   OH230946   2.642   2.459   2.171  0.1219  0.4825 -0.6314
 3152TIP3    H130947   2.698   2.526   2.212  2.4081 -1.3099 -0.6097
 3152TIP3    H230948   2.703   2.397   2.132 -1.8931 -1.5104 -0.8386
 3153TIP3   OH230949   1.484   4.274  12.055  0.2171 -0.3691  0.2396
 3153TIP3    H130950   1.389   4.278  12.044  0.3875 -1.6518 -2.2936
 3153TIP3    H230951   1.497   4.208  12.123 -0.6969 -1.1074 -0.2741
 3154TIP3   OH230952   6.243   3.259   5.022  0.0934  0.3324  0.6182
 3154TIP3    H130953   6.216   3.225   5.107 -1.6581 -0.4713 -0.2056
 3154TIP3    H230954   6.185   3.215   4.959 -0.4374  2.7870 -0.7619
 3155TIP3   OH230955   6.747   4.540  10.116  0.4206  0.0913 -0.0185
 3155TIP3    H130956   6.659   4.523  10.152  0.2237  0.9444 -0.0721
 3155TIP3    H230957   6.776   4.455  10.084 -0.1844 -0.3072  0.4512
 3156TIP3   OH230958   2.401   4.952   2.059  0.2482 -0.1296  0.0850
 3156TIP3    H130959   2.348   4.934   2.137  0.2534 -1.1972 -0.1428
 3156TIP3    H230960   2.491   4.948   2.089  0.2338  0.6451  0.2567
 3157TIP3   OH230961   1.196   1.288   2.630  0.1673 -0.0823 -0.5048
 3157TIP3    H130962   1.142   1.350   2.679  0.9558 -0.3671  0.7971
 3157TIP3    H230963   1.257   1.343   2.580 -0.3275  0.2098 -0.7907
 3158TIP3   OH230964   1.714   2.746   0.334 -0.5099 -0.3279 -0.6094
 3158TIP3    H130965   1.807   2.757   0.352  0.4454 -0.3321 -4.6707
 3158TIP3    H230966   1.678   2.834   0.342  0.4836  0.2116 -1.7786
 3159TIP3   OH230967   1.181   4.115   3.023  0.4242  0.2556  0.2225
 3159TIP3    H130968   1.226   4.131   3.106 -0.7291  0.6858  0.7806
 3159TIP3    H230969   1.166   4.020   3.022  0.7945  0.1956  0.3248
 3160TIP3   OH230970   5.743   0.553   4.665 -0.0275  0.3982  0.5539
 3160TIP3    H130971   5.668   0.610   4.650 -0.1085  0.5717  1.5411
 3160TIP3    H230972   5.777   0.534   4.578 -1.2125  0.3125  0.0914
 3161TIP3   OH230973   3.668   4.931  14.375  0.1504 -0.0683 -0.0314
 3161TIP3    H130974   3.755   4.890  14.371  1.0074  1.6038  0.6848
 3161TIP3    H230975   3.671   4.999  14.308 -0.4190  0.3709  0.3907
 3162TIP3   OH230976   5.352   5.649  12.591  0.3800  0.1433 -0.2886
 3162TIP3    H130977   5.344   5.726  12.535 -2.0709  1.1789  1.2837
 3162TIP3    H230978   5.339   5.575  12.533 -0.8182  1.1143 -1.3078
 3163TIP3   OH230979   6.356   0.651  16.055 -0.1167  0.2491 -0.2236
 3163TIP3    H130980   6.435   0.689  16.017 -0.1225 -0.5447 -1.0666
 3163TIP3    H230981   6.343   0.569  16.007 -1.2012  0.1514  0.2065
 3164TIP3   OH230982   4.541   1.042   1.877 -0.0438 -0.0919  0.2683
 3164TIP3    H130983   4.484   1.118   1.889  0.1163  0.2953 -1.2296
 3164TIP3    H230984   4.495   0.970   1.919 -1.0619  0.4582  0.1231
 3165TIP3   OH230985   5.158   5.856  13.154 -0.3407 -0.0449  0.2803
 3165TIP3    H130986   5.230   5.813  13.200 -1.5369  0.0679  2.3806
 3165TIP3    H230987   5.128   5.791  13.090  1.9012  0.1059 -1.0546
 3166TIP3   OH230988   1.023   4.798  10.988  0.1254 -0.4814 -0.1658
 3166TIP3    H130989   0.940   4.751  10.986  0.7038 -1.6030  0.6312
 3166TIP3    H230990   1.078   4.753  10.924  0.3127 -0.1241 -0.2627
 3167TIP3   OH230991   0.543   6.250  13.219  0.0076  0.1237  0.0557
 3167TIP3    H130992   0.460   6.297  13.219 -0.1657 -0.1717  0.6304
 3167TIP3    H230993   0.600   6.301  13.276  0.0376  0.0123  0.1267
 3168TIP3   OH230994   2.532   0.997   3.351 -0.6883  0.0487  0.6649
 3168TIP3    H130995   2.614   0.948   3.351 -0.9112 -0.4329  2.5942
 3168TIP3    H230996   2.556   1.086   3.375 -0.5927  0.2572 -0.1682
 3169TIP3   OH230997   2.791   2.855   1.665  0.3017  0.5285  0.0565
 3169TIP3    H130998   2.814   2.922   1.600 -1.6682  1.5567  0.3478
 3169TIP3    H230999   2.710   2.816   1.631 -0.1388  0.3099  1.3317
 3170TIP3   OH231000   3.470   2.315   3.096 -0.2392  0.1524 -0.0872
 3170TIP3    H131001   3.463   2.348   3.186 -0.0025 -0.0879  0.0183
 3170TIP3    H231002   3.415   2.375   3.045  0.6653  1.0929  0.0059
 3171TIP3   OH231003   1.134   6.111  11.145 -1.0118  0.5291 -0.4915
 3171TIP3    H131004   1.209   6.152  11.186 -0.2783 -0.7560 -0.4968
 3171TIP3    H231005   1.061   6.130  11.204 -0.4163  0.6533  0.2213
 3172TIP3   OH231006   6.756   0.587   5.561  0.1138 -0.1878 -0.0846
 3172TIP3    H131007   6.714   0.603   5.646  0.5869 -0.1219  0.1380
 3172TIP3    H231008   6.683   0.571   5.501 -0.3935  2.2356 -0.2134
 3173TIP3   OH231009   0.254   3.198   4.452  0.2305 -0.5024  0.0712
 3173TIP3    H131010   0.284   3.189   4.543 -0.5518 -0.3268  0.3492
 3173TIP3    H231011   0.162   3.222   4.459  0.4093  0.4950 -0.7603
 3174TIP3   OH231012   5.846   1.382  16.801  0.1868  0.0941 -0.2241
 3174TIP3    H131013   5.938   1.397  16.820  0.1098  3.2238 -1.6202
 3174TIP3    H231014   5.799   1.437  16.864 -0.6095  0.2096 -0.8939
 3175TIP3   OH231015   0.744   5.685   1.273  0.3814 -0.0272 -0.2409
 3175TIP3    H131016   0.724   5.593   1.289  0.4173  0.2293  1.4991
 3175TIP3    H231017   0.689   5.733   1.336  1.1284  1.0716 -0.3895
 3176TIP3   OH231018   3.444   0.461   5.392 -0.3318 -0.4697  0.2585
 3176TIP3    H131019   3.371   0.484   5.335 -0.1346 -2.2513 -0.7775
 3176TIP3    H231020   3.515   0.518   5.363 -0.9851  0.5233  0.5551
 3177TIP3   OH231021   3.001   6.733  11.944  0.5673 -0.4540 -0.2930
 3177TIP3    H131022   3.085   6.772  11.919  0.0209  1.8478  1.1017
 3177TIP3    H231023   2.957   6.802  11.994 -1.6816 -1.9992  0.0113
 3178TIP3   OH231024   1.775   6.693   1.618 -0.0341 -0.2898  0.2229
 3178TIP3    H131025   1.802   6.765   1.561  2.1965  1.8553  3.5974
 3178TIP3    H231026   1.693   6.723   1.657  1.0972  0.7794  1.9326
 3179TIP3   OH231027   0.435   1.197   2.610  0.4285  0.1842 -0.5977
 3179TIP3    H131028   0.365   1.224   2.670  0.5178  1.1646 -0.9198
 3179TIP3    H231029   0.439   1.102   2.620  0.1838  0.2872  0.6689
 3180TIP3   OH231030   3.412   1.866   2.896  0.2723 -0.0531 -0.1889
 3180TIP3    H131031   3.482   1.931   2.888  0.7064 -0.5146 -0.1658
 3180TIP3    H231032   3.389   1.845   2.805  0.0451  0.2258 -0.1960
 3181TIP3   OH231033   5.669   5.306   0.960  0.0395  0.4598 -0.5135
 3181TIP3    H131034   5.628   5.231   0.917 -0.6468  0.0996  0.7231
 3181TIP3    H231035   5.682   5.278   1.050  1.6406  1.1243 -0.4923
 3182TIP3   OH231036   4.654   2.091   6.096  0.2030 -0.5290 -0.0025
 3182TIP3    H131037   4.619   2.019   6.149  0.0713 -1.5153 -1.3945
 3182TIP3    H231038   4.730   2.054   6.052  0.0490  0.1319 -0.8527
 3183TIP3   OH231039   3.630   4.319   4.959  0.2666  0.5548  0.5779
 3183TIP3    H131040   3.571   4.288   4.891  0.3936 -0.9433  1.1226
 3183TIP3    H231041   3.718   4.313   4.921  0.4559 -1.3868  1.2031
 3184TIP3   OH231042   0.523   0.927   3.818 -0.3831 -0.4524  0.0498
 3184TIP3    H131043   0.576   0.908   3.895  1.1516  1.0577 -0.5786
 3184TIP3    H231044   0.508   1.021   3.821 -1.8746 -0.6447 -0.5472
 3185TIP3   OH231045   6.682   4.362   5.887  0.2208 -0.8882  0.2337
 3185TIP3    H131046   6.602   4.392   5.929 -0.2758 -0.4415 -0.9724
 3185TIP3    H231047   6.733   4.443   5.874  0.4647 -1.0476  0.1984
 3186TIP3   OH231048   4.479   0.718  15.057 -0.3567 -0.5965  0.2168
 3186TIP3    H131049   4.407   0.663  15.087 -0.5793 -1.6581 -2.0721
 3186TIP3    H231050   4.441   0.775  14.990  0.4481  0.5193  0.6690
 3187TIP3   OH231051   1.015   6.123  16.623  0.0263  0.1033 -0.1200
 3187TIP3    H131052   1.067   6.072  16.684 -0.7583  0.4721  0.8908
 3187TIP3    H231053   1.070   6.132  16.545  1.9411  1.4642  1.3153
 3188TIP3   OH231054   0.587   0.192  13.847  0.4328  0.8973  0.3602
 3188TIP3    H131055   0.615   0.249  13.775 -0.0084  1.4216  0.6028
 3188TIP3    H231056   0.660   0.196  13.910  0.6969  0.6565  0.0740
 3189TIP3   OH231057   0.674   2.472  13.828  0.6094  0.2668 -0.3435
 3189TIP3    H131058   0.629   2.470  13.912 -1.1443 -1.6089 -1.2473
 3189TIP3    H231059   0.720   2.388  13.823 -0.3171 -0.1837 -1.7373
 3190TIP3   OH231060   4.190   6.542  13.659  0.1630  0.4918  0.2016
 3190TIP3    H131061   4.223   6.630  13.674  2.3845  0.0901 -1.7644
 3190TIP3    H231062   4.236   6.488  13.724 -0.4342  0.6084  0.7344
 3191TIP3   OH231063   0.729   5.073   3.826 -0.2665 -0.2113  0.1129
 3191TIP3    H131064   0.718   4.978   3.817 -2.3673 -0.0502  0.5202
 3191TIP3    H231065   0.649   5.102   3.870  0.3277  1.7649 -0.0372
 3192TIP3   OH231066   1.544   1.135   2.420 -0.1512 -0.0492  0.1917
 3192TIP3    H131067   1.598   1.066   2.382 -0.2009 -0.3860  0.7292
 3192TIP3    H231068   1.586   1.217   2.390  1.4476 -0.2831  1.6597
 3193TIP3   OH231069   5.065   4.910   3.199 -0.0667 -0.0287 -0.7778
 3193TIP3    H131070   5.000   4.949   3.258  0.7717  0.6237 -0.2682
 3193TIP3    H231071   5.039   4.940   3.112 -0.1060  0.7284 -0.5105
 3194TIP3   OH231072   1.477   2.929  16.830  0.0221  0.3644 -0.1351
 3194TIP3    H131073   1.417   2.939  16.904 -1.4061  0.3138 -1.2346
 3194TIP3    H231074   1.562   2.908  16.870 -0.9464 -0.7856  1.4456
 3195TIP3   OH231075   4.553   0.141   3.217  0.4923 -0.2716 -0.4687
 3195TIP3    H131076   4.540   0.077   3.287  0.9595  1.0108  0.8380
 3195TIP3    H231077   4.465   0.171   3.195  0.2722 -1.3082 -1.0762
 3196TIP3   OH231078   2.510   6.152  16.947 -0.3598 -0.3219 -0.3980
 3196TIP3    H131079   2.509   6.247  16.934 -0.2068 -0.4732 -1.6833
 3196TIP3    H231080   2.546   6.140  17.035 -0.5679  0.8134 -0.1426
 3197TIP3   OH231081   5.908   2.378  11.689 -0.0302  0.2158  0.0474
 3197TIP3    H131082   6.003   2.366  11.686 -0.1884 -1.4811  0.4897
 3197TIP3    H231083   5.891   2.406  11.779  0.0775  0.8102 -0.1165
 3198TIP3   OH231084   6.739   6.227  12.995  0.1148 -0.3630 -0.0651
 3198TIP3    H131085   6.675   6.260  13.057  0.5997 -1.1690  0.8792
 3198TIP3    H231086   6.749   6.134  13.016 -1.0880 -1.1510 -2.5524
 3199TIP3   OH231087   6.516   5.676   2.878 -0.1290  0.6234 -0.0655
 3199TIP3    H131088   6.541   5.662   2.787 -0.4252 -2.0471  0.1820
 3199TIP3    H231089   6.542   5.766   2.897  0.6135  1.0002 -2.5468
 3200TIP3   OH231090   3.647   2.167   0.709 -0.3760 -0.0160 -0.2126
 3200TIP3    H131091   3.679   2.090   0.662  1.0850 -0.2032  1.0011
 3200TIP3    H231092   3.712   2.236   0.691 -0.3092  0.1842  0.6954
 3201TIP3   OH231093   3.519   3.452   5.462 -1.1573 -0.1561  0.4556
 3201TIP3    H131094   3.467   3.393   5.517 -2.4820 -0.4679 -1.0541
 3201TIP3    H231095   3.490   3.433   5.373  1.1305  0.1417 -0.3933
 3202TIP3   OH231096   4.502   6.115  11.881 -0.4212 -0.2615  0.3351
 3202TIP3    H131097   4.480   6.179  11.814  0.2140  1.8580  2.0416
 3202TIP3    H231098   4.441   6.132  11.953  0.5702 -0.6858  1.3198
 3203TIP3   OH231099   0.955   6.817  12.149  0.2637 -0.3242 -0.3382
 3203TIP3    H131100   0.877   6.866  12.174  0.2704 -0.7129  0.4693
 3203TIP3    H231101   1.020   6.884  12.131 -0.2223  0.0025 -0.9368
 3204TIP3   OH231102   2.604   4.037   5.711 -0.2253 -0.5328 -0.5852
 3204TIP3    H131103   2.597   4.132   5.717 -0.2030 -0.5646  0.0314
 3204TIP3    H231104   2.534   4.003   5.767 -1.0112 -0.8929 -1.7666
 3205TIP3   OH231105   3.957   0.306  12.383 -0.4561  0.0931 -0.0522
 3205TIP3    H131106   3.871   0.313  12.424  0.6290  0.3359  2.3412
 3205TIP3    H231107   3.987   0.218  12.404  1.4569  1.2512  2.6939
 3206TIP3   OH231108   1.540   4.183  10.517 -0.1181  0.2761 -0.4104
 3206TIP3    H131109   1.566   4.098  10.481  0.7963 -0.5621  2.0425
 3206TIP3    H231110   1.620   4.220  10.553 -0.9644  0.9563  0.8760
 3207TIP3   OH231111   6.591   3.197   0.890  0.5729 -0.2698 -0.8560
 3207TIP3    H131112   6.519   3.134   0.885 -0.0777  0.3936 -0.0631
 3207TIP3    H231113   6.667   3.143   0.914  0.3570 -0.9753 -1.6960
 3208TIP3   OH231114   0.125   3.390  10.853  0.3850  0.0565 -0.0796
 3208TIP3    H131115   0.143   3.482  10.873  1.6084 -0.2924  0.5507
 3208TIP3    H231116   0.208   3.345  10.872  0.1615 -1.0079 -1.4663
 3209TIP3   OH231117   3.531   1.282  13.299 -0.2043 -0.2211  0.2553
 3209TIP3    H131118   3.624   1.302  13.290 -0.5278  1.2898  0.0780
 3209TIP3    H231119   3.515   1.215  13.233  0.5175  0.3284 -0.4958
 3210TIP3   OH231120   4.609   5.102   5.425  0.1867 -0.2419  0.4366
 3210TIP3    H131121   4.558   5.037   5.474  1.0914 -1.7059 -0.5013
 3210TIP3    H231122   4.700   5.074   5.434  0.7582  1.6338  1.0367
 3211TIP3   OH231123   0.489   3.276   4.304  0.8024  0.0351  0.0622
 3211TIP3    H131124   0.517   3.303   4.391  0.3685  0.2537  0.1353
 3211TIP3    H231125   0.399   3.245   4.316  0.4893  0.7284 -0.4314
 3212TIP3   OH231126   6.677   4.883  14.000  1.2790 -0.6034  0.1183
 3212TIP3    H131127   6.648   4.819  14.064  0.5305 -0.0005  0.3919
 3212TIP3    H231128   6.599   4.936  13.981  2.0579  0.7260  0.4853
 3213TIP3   OH231129   4.193   1.141   4.501 -0.2300  0.1555 -0.2587
 3213TIP3    H131130   4.116   1.182   4.460 -0.4831  0.3184  0.3618
 3213TIP3    H231131   4.166   1.126   4.592  0.1722 -0.5819 -0.2520
 3214TIP3   OH231132   1.920   4.476   2.250  0.1741  0.1899  0.0705
 3214TIP3    H131133   1.996   4.445   2.300 -0.9476 -1.6904  0.7309
 3214TIP3    H231134   1.903   4.406   2.187 -1.1231  0.5021  0.0539
 3215TIP3   OH231135   5.149   5.997   3.452 -0.3476 -0.7971 -0.0198
 3215TIP3    H131136   5.133   6.070   3.513 -1.7353 -2.2615  1.4951
 3215TIP3    H231137   5.169   6.039   3.369 -0.8520  1.3077  0.8491
 3216TIP3   OH231138   4.510   1.069  13.177 -0.2471  0.0995 -0.1943
 3216TIP3    H131139   4.605   1.081  13.167 -0.2407  2.3143  1.6581
 3216TIP3    H231140   4.486   1.008  13.108  2.5858 -0.8351 -0.4705
 3217TIP3   OH231141   3.007   1.234  16.431 -0.3383 -0.6621  0.0028
 3217TIP3    H131142   2.963   1.230  16.346 -1.7402  0.6289  0.6393
 3217TIP3    H231143   3.046   1.322  16.434  1.1626 -1.2877  0.0330
 3218TIP3   OH231144   2.336   4.206   0.004  0.4977  0.2060  0.0751
 3218TIP3    H131145   2.421   4.186  -0.036 -0.4446 -0.0899 -1.9218
 3218TIP3    H231146   2.323   4.136   0.069  0.2625 -1.8740 -2.0682
 3219TIP3   OH231147   6.733   0.987   5.367  0.4258 -0.3418  1.0134
 3219TIP3    H131148   6.696   0.952   5.448 -0.3955  0.9494  1.2242
 3219TIP3    H231149   6.791   1.058   5.394 -1.6649  1.7113  0.4473
 3220TIP3   OH231150   6.516   4.061   4.798 -0.9538 -0.4015  0.0136
 3220TIP3    H131151   6.499   4.067   4.704 -0.7102 -1.3916 -0.1005
 3220TIP3    H231152   6.513   3.968   4.818  2.5741 -0.5692  0.3026
 3221TIP3   OH231153   5.113   5.388  15.326  0.2266  0.2483  0.3528
 3221TIP3    H131154   5.195   5.400  15.278  0.0362 -0.5430 -0.1827
 3221TIP3    H231155   5.126   5.307  15.375  0.4698  1.1069  1.7644
 3222TIP3   OH231156   2.756   3.452   2.024 -0.2488 -0.1125 -0.2343
 3222TIP3    H131157   2.818   3.379   2.022  0.8901  0.8157 -1.6178
 3222TIP3    H231158   2.731   3.464   1.932 -1.4501  0.3988  0.1440
 3223TIP3   OH231159   4.393   6.521  14.237  0.4133 -0.1488 -0.3115
 3223TIP3    H131160   4.485   6.496  14.225  0.3123 -1.3590  1.1730
 3223TIP3    H231161   4.347   6.438  14.252 -0.9997  0.4036 -1.3670
 3224TIP3   OH231162   3.208   3.928  16.030 -0.7798 -0.1370 -0.4233
 3224TIP3    H131163   3.138   3.864  16.017 -1.0813  0.1656 -0.3161
 3224TIP3    H231164   3.272   3.909  15.961 -1.1920 -0.1159 -0.8107
 3225TIP3   OH231165   3.805   1.622   4.960  0.1169 -0.6614 -0.2721
 3225TIP3    H131166   3.730   1.614   4.901 -0.7890  2.3997  0.2873
 3225TIP3    H231167   3.767   1.619   5.048  0.1817  2.9172  0.0281
 3226TIP3   OH231168   6.644   5.614   2.627 -0.0342  0.2038  0.5137
 3226TIP3    H131169   6.612   5.638   2.540  0.6237 -0.0520  0.1938
 3226TIP3    H231170   6.640   5.518   2.629  1.3983  0.1204  0.1849
 3227TIP3   OH231171   0.816   3.057   5.257  0.4217  0.7219  0.0273
 3227TIP3    H131172   0.724   3.050   5.284  0.2172  1.2314 -0.5086
 3227TIP3    H231173   0.811   3.072   5.163  1.0922 -0.2786 -0.1840
 3228TIP3   OH231174   4.473   1.092  12.121 -0.1011  0.0391  0.0271
 3228TIP3    H131175   4.382   1.064  12.110 -0.3201  0.3689  0.9821
 3228TIP3    H231176   4.487   1.156  12.051 -1.1437  1.2812  0.9124
 3229TIP3   OH231177   2.112   5.773  12.026 -0.8518  0.1539 -0.4378
 3229TIP3    H131178   2.168   5.722  11.968  0.2920  1.3909 -0.4593
 3229TIP3    H231179   2.080   5.845  11.972 -0.9789  0.4891  0.0762
 3230TIP3   OH231180   5.911   4.397  12.873 -0.6015  0.7658 -0.0597
 3230TIP3    H131181   5.925   4.359  12.786 -1.1014  1.3251 -0.3888
 3230TIP3    H231182   5.827   4.361  12.902 -0.2236  0.2277  0.3898
 3231TIP3   OH231183   2.042   5.115  13.937  0.6252 -0.0482  0.0194
 3231TIP3    H131184   2.042   5.178  14.009 -1.2510 -0.4153  0.4095
 3231TIP3    H231185   2.020   5.031  13.979  2.0218 -0.7629 -0.6396
 3232TIP3   OH231186   2.502   6.825  12.510 -0.1154 -0.1979  0.8215
 3232TIP3    H131187   2.579   6.829  12.566  1.5371  1.1616 -1.3538
 3232TIP3    H231188   2.448   6.899  12.537  0.5368  0.2906  0.8170
 3233TIP3   OH231189   0.882   0.290  16.274 -0.2555 -0.2574  0.9934
 3233TIP3    H131190   0.851   0.341  16.199  0.2375 -0.3779  0.7065
 3233TIP3    H231191   0.963   0.249  16.244  1.5417  1.9568  2.4833
 3234TIP3   OH231192   2.091   1.973   5.172  0.3507 -0.2229  0.5043
 3234TIP3    H131193   2.167   2.032   5.165 -0.2828  0.4672 -0.8947
 3234TIP3    H231194   2.053   1.973   5.085 -1.1303 -0.7673  1.1294
 3235TIP3   OH231195   2.199   1.257  11.626  0.7766  0.2095 -0.0410
 3235TIP3    H131196   2.287   1.221  11.616  0.2628 -0.9541 -0.6209
 3235TIP3    H231197   2.188   1.315  11.550  0.0365 -1.8982 -1.6504
 3236TIP3   OH231198   0.776   5.471   5.802 -0.4329  0.5007  0.0915
 3236TIP3    H131199   0.775   5.399   5.865 -0.8661 -1.7150 -2.2810
 3236TIP3    H231200   0.850   5.526   5.830 -0.2020 -0.7147  2.1058
 3237TIP3   OH231201   2.901   5.729  11.772  0.1279  1.0165 -0.5749
 3237TIP3    H131202   2.915   5.739  11.866 -2.6305  0.3486  0.0048
 3237TIP3    H231203   2.969   5.783  11.731  0.1607  2.9489  1.8354
 3238TIP3   OH231204   0.572   1.666   0.122 -0.3896 -0.7755 -0.7461
 3238TIP3    H131205   0.523   1.748   0.113  0.6424  0.2607  2.0764
 3238TIP3    H231206   0.508   1.604   0.156 -0.1862  0.2433  1.7460
 3239TIP3   OH231207   5.139   0.485   3.202 -0.5723  0.0480 -0.4052
 3239TIP3    H131208   5.114   0.506   3.292  0.0713  1.1802 -0.4845
 3239TIP3    H231209   5.220   0.436   3.210 -0.9685 -0.6082 -0.3337
 3240TIP3   OH231210   1.080   3.422  16.836  0.0183 -0.3043  0.1115
 3240TIP3    H131211   1.015   3.421  16.906  1.3649 -0.4633  1.4060
 3240TIP3    H231212   1.050   3.356  16.774 -0.8217 -0.6802  0.9078
 3241TIP3   OH231213   1.798   5.122  10.884  0.2989  0.1718 -0.1437
 3241TIP3    H131214   1.862   5.137  10.953 -0.7083 -1.4523  1.2146
 3241TIP3    H231215   1.841   5.152  10.804  2.1438  0.5099  0.9303
 3242TIP3   OH231216   3.506   1.756  12.058 -0.0929 -0.2785  0.3988
 3242TIP3    H131217   3.583   1.788  12.012 -0.3050 -1.6405 -0.9911
 3242TIP3    H231218   3.527   1.665  12.081 -0.9618 -0.4085  0.7380
 3243TIP3   OH231219   5.765   3.308   4.903 -0.0179  0.0527  0.0688
 3243TIP3    H131220   5.793   3.348   4.985 -1.0176  0.5983  0.1541
 3243TIP3    H231221   5.710   3.374   4.861  0.3782 -0.2712 -0.9883
 3244TIP3   OH231222   3.580   6.264   4.195 -0.1236 -0.3859  0.1130
 3244TIP3    H131223   3.575   6.249   4.289 -1.5039 -1.2382 -0.0594
 3244TIP3    H231224   3.611   6.181   4.159  0.6232  0.0089 -0.1696
 3245TIP3   OH231225   0.284   2.730  14.568 -0.1066  0.2966 -0.6636
 3245TIP3    H131226   0.210   2.671  14.552  0.1103 -0.2494  0.2726
 3245TIP3    H231227   0.362   2.674  14.559  0.1534  0.6913 -0.8814
 3246TIP3   OH231228   5.599   5.598   5.196 -0.5210 -0.2318 -0.1196
 3246TIP3    H131229   5.621   5.683   5.236 -1.3530 -0.4319  0.8014
 3246TIP3    H231230   5.676   5.576   5.144  0.4109  0.3038  0.9631
 3247TIP3   OH231231   3.380   1.755  15.303  0.1911  0.1985  0.1112
 3247TIP3    H131232   3.370   1.794  15.217  0.0294  2.4888  1.1017
 3247TIP3    H231233   3.474   1.743  15.313  0.1741 -0.5875 -0.5690
 3248TIP3   OH231234   2.197   3.282   3.698  0.2276  0.3340 -0.3744
 3248TIP3    H131235   2.223   3.194   3.674 -0.2764  0.0678  0.0175
 3248TIP3    H231236   2.256   3.307   3.769  0.4384  0.3483 -0.5578
 3249TIP3   OH231237   4.237   5.629   1.326 -0.4358 -0.0661 -0.1482
 3249TIP3    H131238   4.329   5.604   1.339  0.6459  1.8985 -3.0846
 3249TIP3    H231239   4.234   5.721   1.351 -1.9552 -0.4065  1.0543
 3250TIP3   OH231240   6.034   2.942  15.617 -0.3986 -0.2805  0.1483
 3250TIP3    H131241   6.001   2.860  15.579  1.8650 -1.1166 -0.1806
 3250TIP3    H231242   5.964   3.005  15.602 -1.2640 -1.5786 -1.7337
 3251TIP3   OH231243   0.246   6.847  11.395 -0.0631 -0.0655 -0.2051
 3251TIP3    H131244   0.275   6.916  11.336 -1.9011  0.1259 -0.9466
 3251TIP3    H231245   0.204   6.893  11.468  0.0006 -0.3631  0.0241
 3252TIP3   OH231246   1.574   4.553   1.419 -0.3842  0.6280 -0.4342
 3252TIP3    H131247   1.540   4.539   1.507  2.6039  0.4180  0.7875
 3252TIP3    H231248   1.599   4.645   1.417  0.1919  0.4677 -0.8429
 3253TIP3   OH231249   2.809   1.905   1.654  0.2737  0.1944  0.0598
 3253TIP3    H131250   2.867   1.958   1.600  0.3358 -1.0950 -1.2067
 3253TIP3    H231251   2.802   1.822   1.607 -1.7653 -0.0646  0.7170
 3254TIP3   OH231252   0.181   6.100   5.387  0.1108 -0.6164 -0.1969
 3254TIP3    H131253   0.108   6.093   5.326  0.0250 -1.0506 -0.0471
 3254TIP3    H231254   0.139   6.108   5.473  0.2325 -1.5722 -0.0350
 3255TIP3   OH231255   5.912   3.396  16.561  0.2756  0.3900  0.4253
 3255TIP3    H131256   5.973   3.470  16.563 -0.7096  1.1902  1.4692
 3255TIP3    H231257   5.862   3.403  16.642 -0.9376 -0.4876 -0.2182
 3256TIP3   OH231258   3.411   5.637   3.936 -0.3624  0.0696 -0.1820
 3256TIP3    H131259   3.490   5.665   3.981 -0.0428 -0.7164 -0.2423
 3256TIP3    H231260   3.441   5.607   3.850 -1.0640  2.4026 -1.3150
 3257TIP3   OH231261   1.673   3.282  14.399 -0.2496  0.6339  0.4090
 3257TIP3    H131262   1.752   3.331  14.376 -0.1698  1.1005  1.6115
 3257TIP3    H231263   1.601   3.343  14.383 -0.3981  0.2066 -0.6934
 3258TIP3   OH231264   3.317   3.837   5.824  0.0211 -0.2645 -0.0757
 3258TIP3    H131265   3.327   3.924   5.862 -0.7942 -0.2045  0.0072
 3258TIP3    H231266   3.268   3.851   5.743 -0.6155 -0.7074  0.2280
 3259TIP3   OH231267   6.229   3.445   3.483  0.2721  0.3715  0.2215
 3259TIP3    H131268   6.182   3.406   3.557 -0.4167  0.8133  0.0281
 3259TIP3    H231269   6.212   3.539   3.491  2.1965  0.7042  0.8878
 3260TIP3   OH231270   4.991   1.771   1.382 -0.5080 -0.6868  0.5140
 3260TIP3    H131271   4.971   1.798   1.472  0.6427 -1.4681  1.0352
 3260TIP3    H231272   5.000   1.676   1.387 -2.0491 -0.9240 -0.7845
 3261TIP3   OH231273   4.737   4.061  11.153  0.6367  0.0913  0.6036
 3261TIP3    H131274   4.688   4.050  11.234  0.6275  0.1306  0.6030
 3261TIP3    H231275   4.679   4.110  11.095  0.3027 -0.6773  0.2699
 3262TIP3   OH231276   6.476   1.896   1.264  0.4222 -0.4664  0.0267
 3262TIP3    H131277   6.409   1.857   1.209 -2.3370  1.8814  1.4488
 3262TIP3    H231278   6.462   1.856   1.350  1.3825 -0.5273  0.1625
 3263TIP3   OH231279   0.822   2.583  15.534  0.5590 -0.7162  0.7868
 3263TIP3    H131280   0.888   2.649  15.557 -1.6744  1.4970  1.2887
 3263TIP3    H231281   0.822   2.522  15.608  3.1531 -1.8043 -0.0028
 3264TIP3   OH231282   4.027   0.888  15.293 -0.2280  0.0965  0.2765
 3264TIP3    H131283   4.072   0.946  15.232 -2.0623 -0.1548 -1.3992
 3264TIP3    H231284   4.091   0.819  15.313  0.9915  1.1265  0.0627
 3265TIP3   OH231285   0.456   3.322   5.397  0.1888 -0.2596  0.2049
 3265TIP3    H131286   0.480   3.242   5.443 -1.5726 -0.7848  0.2930
 3265TIP3    H231287   0.381   3.357   5.446 -1.4332 -0.5698 -1.9127
 3266TIP3   OH231288   3.436   1.849   4.615 -0.3746  0.0035 -0.0926
 3266TIP3    H131289   3.447   1.884   4.527  0.9327  3.1145  1.1615
 3266TIP3    H231290   3.372   1.907   4.656  0.0640 -0.5432  1.4192
 3267TIP3   OH231291   3.089   4.269   0.080 -0.2705  0.0108  0.2794
 3267TIP3    H131292   3.001   4.233   0.069  0.0449 -0.5705 -0.4372
 3267TIP3    H231293   3.075   4.360   0.104 -1.0689 -0.0688  0.1447
 3268TIP3   OH231294   6.658   2.827  13.068  0.6895  0.0511  0.0435
 3268TIP3    H131295   6.570   2.817  13.106  1.0782  2.6999  1.9011
 3268TIP3    H231296   6.641   2.854  12.978 -0.2535 -4.2651 -1.3383
 3269TIP3   OH231297   5.024   3.685   1.310  0.0289  0.0159 -0.3781
 3269TIP3    H131298   4.943   3.690   1.360 -0.0315  1.3915 -0.5661
 3269TIP3    H231299   5.054   3.595   1.321 -0.2782  0.1179  1.6496
 3270TIP3   OH231300   6.381   1.330  12.365 -0.8172  0.2627 -0.0711
 3270TIP3    H131301   6.449   1.375  12.414 -1.3727  1.6196 -0.5089
 3270TIP3    H231302   6.363   1.386  12.290 -1.0088 -1.0622 -1.0672
 3271TIP3   OH231303   3.763   3.248  15.751  0.6796 -0.3801  0.4044
 3271TIP3    H131304   3.751   3.178  15.687  0.2961  0.1241 -0.0850
 3271TIP3    H231305   3.710   3.221  15.826 -1.3770  0.4441 -0.6495
 3272TIP3   OH231306   1.673   4.301   5.114  0.1972 -0.4647 -0.1547
 3272TIP3    H131307   1.655   4.317   5.022  0.0908 -0.2115 -0.0909
 3272TIP3    H231308   1.653   4.208   5.127 -1.3642 -0.1450 -0.0276
 3273TIP3   OH231309   0.330   3.911  13.647  0.6104 -0.2607 -0.5388
 3273TIP3    H131310   0.263   3.845  13.627  0.5186 -0.2141 -0.3876
 3273TIP3    H231311   0.406   3.884  13.596  1.4598 -1.9911  1.4940
 3274TIP3   OH231312   6.482   2.322   2.706  0.4686 -0.0759  0.1747
 3274TIP3    H131313   6.492   2.227   2.712 -0.3499 -0.2685 -1.0345
 3274TIP3    H231314   6.484   2.352   2.796  0.5804 -1.2595  0.5917
 3275TIP3   OH231315   2.977   2.925   4.675 -0.1933  0.1091 -0.1135
 3275TIP3    H131316   2.945   3.006   4.636  0.1054 -0.1466 -0.9245
 3275TIP3    H231317   3.071   2.927   4.660  0.3702  1.2423  2.9650
 3276TIP3   OH231318   6.067   1.783   3.539  0.3097 -0.3722  0.4621
 3276TIP3    H131319   6.157   1.810   3.520  0.4264 -1.0662 -0.0090
 3276TIP3    H231320   6.067   1.766   3.633  0.7724 -0.7096  0.4097
 3277TIP3   OH231321   4.035   6.730   0.226 -0.1641  0.5537  0.2855
 3277TIP3    H131322   3.974   6.663   0.195  1.8027 -1.0287 -0.3460
 3277TIP3    H231323   4.026   6.728   0.321 -2.0068  1.3072  0.1754
 3278TIP3   OH231324   3.650   0.634   0.297  0.3657  0.2102 -0.1542
 3278TIP3    H131325   3.629   0.690   0.372  0.8872  1.8953 -1.2003
 3278TIP3    H231326   3.743   0.650   0.281  1.0432 -2.4317  0.6423
 3279TIP3   OH231327   1.844   6.122   3.439 -0.4522  0.0856  0.2675
 3279TIP3    H131328   1.917   6.160   3.487 -0.6481 -1.2082  1.6706
 3279TIP3    H231329   1.767   6.142   3.493 -0.9588  0.3429 -0.5419
 3280TIP3   OH231330   1.730   0.209  11.377  0.1015 -0.0539  0.0110
 3280TIP3    H131331   1.669   0.175  11.442 -0.2551  1.8667  0.7697
 3280TIP3    H231332   1.716   0.155  11.300 -1.5746 -0.5465  0.6185
 3281TIP3   OH231333   6.129   2.813   1.167  0.0924 -0.4391 -0.3800
 3281TIP3    H131334   6.059   2.866   1.128  1.3995  0.1389 -2.0580
 3281TIP3    H231335   6.203   2.873   1.174  1.0797 -1.5804 -0.7029
 3282TIP3   OH231336   4.347   3.898  16.064  0.0636  0.2044 -0.0140
 3282TIP3    H131337   4.269   3.954  16.074  1.0456  1.4320  1.1491
 3282TIP3    H231338   4.314   3.809  16.080 -1.4086  0.4885 -1.2191
 3283TIP3   OH231339   1.873   2.544  12.945 -0.2676  0.2712  0.5523
 3283TIP3    H131340   1.908   2.458  12.967 -0.1918  0.5038  1.3819
 3283TIP3    H231341   1.778   2.534  12.950 -0.4390 -0.5135 -2.2719
 3284TIP3   OH231342   6.497   5.668  12.641 -0.3052 -0.2816  0.0368
 3284TIP3    H131343   6.415   5.669  12.591 -1.2980 -0.0942  1.5868
 3284TIP3    H231344   6.500   5.580  12.679  0.2822 -0.3275 -0.1207
 3285TIP3   OH231345   4.875   0.555  11.790 -0.0772 -0.1647  0.3706
 3285TIP3    H131346   4.874   0.548  11.695 -0.7772 -0.6559  0.4081
 3285TIP3    H231347   4.913   0.641  11.807  0.2489 -0.1595 -0.3441
 3286TIP3   OH231348   0.103   2.559  11.653  0.2526 -0.3363 -0.3761
 3286TIP3    H131349   0.083   2.498  11.725 -2.7617  0.1024 -0.7215
 3286TIP3    H231350   0.128   2.640  11.697  0.2784 -0.6189  0.1400
 3287TIP3   OH231351   4.806   6.660   0.528  0.0657  0.2718  0.2222
 3287TIP3    H131352   4.729   6.681   0.476 -1.3872  2.2512  2.9461
 3287TIP3    H231353   4.804   6.565   0.538 -2.3421  0.3153  0.6393
 3288TIP3   OH231354   4.049   2.092  14.089  0.0081  0.0923 -0.1807
 3288TIP3    H131355   4.094   2.155  14.034  0.6753 -0.4716 -0.3018
 3288TIP3    H231356   3.956   2.112  14.079  0.2470  1.6898  0.5808
 3289TIP3   OH231357   5.045   0.806   2.007  0.0745 -0.7626 -0.5819
 3289TIP3    H131358   5.104   0.734   2.029 -0.2801 -1.0555 -0.5712
 3289TIP3    H231359   5.032   0.799   1.913  2.0342  0.8331 -1.0204
 3290TIP3   OH231360   3.131   4.201   4.795  0.9927 -0.6364 -0.3974
 3290TIP3    H131361   3.114   4.167   4.707  0.8585  0.9005 -0.9941
 3290TIP3    H231362   3.215   4.246   4.787  1.0748 -0.6458  0.3173
 3291TIP3   OH231363   5.022   1.063  15.803  0.7033 -0.4914  0.0842
 3291TIP3    H131364   5.062   0.977  15.790  1.7588  0.0231 -0.1569
 3291TIP3    H231365   5.035   1.081  15.896 -1.4446 -1.5134  0.6353
 3292TIP3   OH231366   4.238   6.276  14.215 -0.2814 -0.6319 -0.2271
 3292TIP3    H131367   4.309   6.227  14.174 -0.3036 -1.0909  0.2700
 3292TIP3    H231368   4.161   6.220  14.205 -0.5103 -0.2718 -0.4991
 3293TIP3   OH231369   2.941   3.607   4.307 -0.1423 -0.2783 -0.2292
 3293TIP3    H131370   2.996   3.674   4.350 -0.6744 -0.4723  0.7978
 3293TIP3    H231371   2.854   3.648   4.301 -0.1812 -0.4260 -0.7278
 3294TIP3   OH231372   5.409   4.531  15.732  0.4773 -0.4411 -0.3669
 3294TIP3    H131373   5.365   4.616  15.740  0.3409 -0.6220  0.8669
 3294TIP3    H231374   5.501   4.550  15.750  0.0914 -0.9362  2.5352
 3295TIP3   OH231375   3.648   2.744  13.893 -0.3694  0.2327  0.4961
 3295TIP3    H131376   3.599   2.808  13.842  0.3789  0.4793  0.0717
 3295TIP3    H231377   3.581   2.689  13.934 -0.9883 -0.1466 -0.9537
 3296TIP3   OH231378   1.117   5.294  11.624  0.0249 -0.5615  0.0141
 3296TIP3    H131379   1.192   5.339  11.587 -0.2755 -0.4477 -0.4639
 3296TIP3    H231380   1.068   5.262  11.548 -2.5502  2.7571  0.0692
 3297TIP3   OH231381   5.837   6.096  14.928 -0.4168  0.7744 -0.5970
 3297TIP3    H131382   5.839   6.031  14.998 -1.1439  0.3483 -0.9602
 3297TIP3    H231383   5.914   6.150  14.943  1.1842 -1.1736 -1.2412
 3298TIP3   OH231384   6.651   1.346   5.373  0.0689 -0.1379 -0.2565
 3298TIP3    H131385   6.600   1.375   5.450  0.3653  2.3290 -0.9134
 3298TIP3    H231386   6.742   1.356   5.400  0.1895 -0.7290 -0.4352
 3299TIP3   OH231387   3.916   1.782   1.545 -0.5360  0.5240  0.9263
 3299TIP3    H131388   3.978   1.842   1.502  0.4906 -1.1481 -0.0354
 3299TIP3    H231389   3.830   1.821   1.530  0.1014  1.7533  0.3262
 3300TIP3   OH231390   6.417   6.838  11.631  0.1170 -0.3191 -0.5044
 3300TIP3    H131391   6.414   6.774  11.561  1.2313  0.5028 -1.3445
 3300TIP3    H231392   6.470   6.797  11.699  2.2850  0.3155 -1.7350
 3301TIP3   OH231393   3.831   0.801  12.252  0.2325 -0.3266  0.4806
 3301TIP3    H131394   3.757   0.856  12.227  0.6743 -0.5694 -1.5069
 3301TIP3    H231395   3.792   0.718  12.281 -0.3364  0.3192  1.6291
 3302TIP3   OH231396   5.167   1.847  14.364 -0.4946 -0.4337  0.1719
 3302TIP3    H131397   5.152   1.912  14.433  0.3265 -0.2762  0.2116
 3302TIP3    H231398   5.251   1.873  14.325  0.4831 -2.1667  1.0145
 3303TIP3   OH231399   4.875   2.261   2.898  0.0169 -0.2356 -0.2174
 3303TIP3    H131400   4.921   2.309   2.966 -1.1989  0.8371 -0.1051
 3303TIP3    H231401   4.943   2.232   2.838  1.0491 -0.7337  1.1556
 3304TIP3   OH231402   2.181   1.695   4.249  0.7978  0.0094  0.4391
 3304TIP3    H131403   2.237   1.691   4.172  0.4771  0.6218  0.1659
 3304TIP3    H231404   2.160   1.604   4.268  1.6009 -0.2074  0.3431
 3305TIP3   OH231405   4.190   5.749   4.421 -0.5703  0.4416 -0.3779
 3305TIP3    H131406   4.231   5.741   4.507 -1.5221  3.8842  0.5557
 3305TIP3    H231407   4.247   5.809   4.372 -0.9509 -0.1126 -1.5475
 3306TIP3   OH231408   2.702   1.227  12.297 -0.0055 -0.3133 -0.3394
 3306TIP3    H131409   2.667   1.315  12.310 -0.2626 -0.6352  1.3717
 3306TIP3    H231410   2.638   1.169  12.338  1.7922 -1.0073  1.7168
 3307TIP3   OH231411   3.712   5.786  16.876  0.0464  0.1813 -0.7998
 3307TIP3    H131412   3.655   5.791  16.799 -0.9830  1.5027  0.0008
 3307TIP3    H231413   3.685   5.706  16.921 -1.4896  0.9768 -0.2379
 3308TIP3   OH231414   1.432   5.501   5.121 -0.1983  0.2544  0.6513
 3308TIP3    H131415   1.405   5.562   5.053  2.7394  1.0946  0.1258
 3308TIP3    H231416   1.444   5.418   5.075 -0.3803  0.2540  0.6020
 3309TIP3   OH231417   2.149   2.327  12.297  0.1756 -0.0655  0.0208
 3309TIP3    H131418   2.217   2.270  12.333  0.6759  2.2353  3.1795
 3309TIP3    H231419   2.129   2.289  12.212  2.5774 -3.1273  0.6145
 3310TIP3   OH231420   0.957   2.089  17.028  0.0640  0.3388 -0.2152
 3310TIP3    H131421   1.046   2.125  17.030  0.9137 -1.6571  1.2138
 3310TIP3    H231422   0.936   2.070  17.119 -0.9225 -1.2562 -0.7170
 3311TIP3   OH231423   3.555   5.087  15.915  0.4218 -0.0908  0.5075
 3311TIP3    H131424   3.532   5.161  15.971  0.8804 -0.8023  1.6729
 3311TIP3    H231425   3.640   5.057  15.948  0.0338 -1.4086  0.3683
 3312TIP3   OH231426   1.411   2.908  11.379 -0.1158 -0.0587  0.1774
 3312TIP3    H131427   1.493   2.869  11.410 -0.0204  0.7066  0.9019
 3312TIP3    H231428   1.346   2.882  11.443 -0.6216 -1.2952 -0.7889
 3313TIP3   OH231429   6.067   0.127  11.509  0.4159  0.3704  0.3034
 3313TIP3    H131430   6.142   0.185  11.508  0.2784  0.6264  2.1217
 3313TIP3    H231431   6.101   0.042  11.481  1.5862  0.2964  1.8227
 3314TIP3   OH231432   5.519   1.692  14.175 -0.3960 -0.0276  0.4639
 3314TIP3    H131433   5.530   1.729  14.263 -0.0365 -0.8071  0.7561
 3314TIP3    H231434   5.604   1.654  14.155 -0.5298 -0.0034 -0.1550
 3315TIP3   OH231435   5.678   4.754   3.242 -0.3437 -0.7217 -0.1437
 3315TIP3    H131436   5.612   4.729   3.306  0.0717  0.6586  0.8781
 3315TIP3    H231437   5.644   4.723   3.158 -0.5172 -3.3349  0.7981
 3316TIP3   OH231438   4.291   1.673  11.113 -0.2920 -0.5595  0.1971
 3316TIP3    H131439   4.287   1.700  11.205 -2.6899  0.8832 -0.2453
 3316TIP3    H231440   4.362   1.726  11.076  0.1999 -0.6112  1.0403
 3317TIP3   OH231441   6.665   6.648   3.794 -0.2987 -0.3123 -0.1824
 3317TIP3    H131442   6.580   6.604   3.789 -0.5796  0.3013 -3.6087
 3317TIP3    H231443   6.663   6.694   3.878 -3.2077 -0.6010  0.0286
 3318TIP3   OH231444   0.058   6.366  13.281  0.1994 -0.2887  0.2157
 3318TIP3    H131445   0.005   6.362  13.361 -0.4658 -1.4470 -0.2530
 3318TIP3    H231446  -0.005   6.349  13.211  0.7521  0.8205 -0.5859
 3319TIP3   OH231447   0.612   0.806  13.818 -0.1507 -0.8526  0.0318
 3319TIP3    H131448   0.651   0.731  13.773  0.3631  0.0216 -1.0263
 3319TIP3    H231449   0.657   0.808  13.903  0.1755 -1.4503 -0.1130
 3320TIP3   OH231450   1.366   5.107   0.712 -0.9787 -0.0113 -0.5680
 3320TIP3    H131451   1.348   5.090   0.805  1.2776  1.3571  0.2264
 3320TIP3    H231452   1.312   5.182   0.690 -0.7562  0.3142 -0.0295
 3321TIP3   OH231453   2.215   1.527  15.516 -0.1260 -0.0167  0.2020
 3321TIP3    H131454   2.212   1.466  15.590  1.0414 -1.2498 -0.7391
 3321TIP3    H231455   2.124   1.554  15.504 -0.4234 -0.2531  1.6894
 3322TIP3   OH231456   2.546   5.665   0.753  0.1397 -0.8207 -0.1403
 3322TIP3    H131457   2.457   5.629   0.755 -0.2002 -0.0163 -0.4232
 3322TIP3    H231458   2.600   5.596   0.791 -0.6805 -1.1065  0.5451
 3323TIP3   OH231459   0.550   6.475   6.063 -0.1873 -0.6654  0.1593
 3323TIP3    H131460   0.520   6.503   6.149  1.1281 -0.2016  0.4802
 3323TIP3    H231461   0.603   6.548   6.031 -0.2119 -1.0592 -0.8081
 3324TIP3   OH231462   3.480   4.638  14.486 -0.5702 -0.1132 -0.1727
 3324TIP3    H131463   3.550   4.672  14.541  0.7097 -0.0346 -1.7660
 3324TIP3    H231464   3.519   4.632  14.399 -2.3544 -0.7251 -0.9765
 3325TIP3   OH231465   0.001   1.698  14.108 -0.3848  0.1998  0.2120
 3325TIP3    H131466  -0.044   1.774  14.073 -2.4251 -1.0956 -0.1784
 3325TIP3    H231467  -0.056   1.667  14.179 -0.0048 -1.3405 -0.1064
 3326TIP3   OH231468   4.896   4.652   0.097  0.3097 -0.0732  0.0869
 3326TIP3    H131469   4.836   4.716   0.058  0.0685  0.5340  1.4239
 3326TIP3    H231470   4.910   4.683   0.186 -1.1072 -2.7448  1.3478
 3327TIP3   OH231471   6.846   6.597  13.835  0.1601  0.1348  0.7165
 3327TIP3    H131472   6.801   6.555  13.908 -1.0749  0.7226  0.3306
 3327TIP3    H231473   6.939   6.589  13.856 -0.1541 -0.0729  2.1377
 3328TIP3   OH231474   4.349   6.692  12.162  0.5869 -0.2737 -0.6649
 3328TIP3    H131475   4.342   6.714  12.069  4.0043 -0.1138 -1.0026
 3328TIP3    H231476   4.321   6.600  12.167  2.1204 -0.8931 -2.2528
 3329TIP3   OH231477   4.191   5.638   4.953 -0.2023 -0.2254  0.4377
 3329TIP3    H131478   4.175   5.555   4.997  0.2472  0.0501  1.1482
 3329TIP3    H231479   4.278   5.664   4.982 -0.4285  0.6014  0.4097
 3330TIP3   OH231480   3.617   0.193  11.526 -0.2390 -0.2040 -0.2239
 3330TIP3    H131481   3.555   0.133  11.485 -0.3319 -0.9144  0.9106
 3330TIP3    H231482   3.574   0.220  11.607 -0.6154  2.1983 -1.1638
 3331TIP3   OH231483   2.846   6.227  15.416 -0.9352 -0.6802  0.1207
 3331TIP3    H131484   2.757   6.191  15.427 -0.3024 -2.1665  0.6431
 3331TIP3    H231485   2.873   6.253  15.504 -1.2646  0.8838 -0.2090
 3332TIP3   OH231486   4.706   6.113   2.428 -0.2196  0.0365  0.0243
 3332TIP3    H131487   4.712   6.022   2.456 -0.0044 -0.3727 -1.2842
 3332TIP3    H231488   4.659   6.110   2.344  0.9893  0.9685 -0.7370
 3333TIP3   OH231489   2.022   4.025  14.314 -0.1191  0.2014  0.0063
 3333TIP3    H131490   2.052   4.113  14.336  1.8498 -0.2924 -0.4528
 3333TIP3    H231491   2.006   4.028  14.219 -0.4868  0.1821  0.0670
 3334TIP3   OH231492   3.594   6.174   1.820 -0.7150 -0.3421 -0.1726
 3334TIP3    H131493   3.683   6.148   1.797 -0.7229  0.2573 -0.9071
 3334TIP3    H231494   3.539   6.136   1.750 -0.7115  1.7031 -1.3599
 3335TIP3   OH231495   1.895   6.047  14.786 -0.4594  0.0306 -0.2860
 3335TIP3    H131496   1.838   6.086  14.720 -0.5475 -0.5233 -0.5411
 3335TIP3    H231497   1.859   5.960  14.800  1.3720 -1.0455 -1.7895
 3336TIP3   OH231498   6.289   6.739  13.716 -0.3769 -0.4202  0.1516
 3336TIP3    H131499   6.323   6.794  13.787 -0.3422  1.6448 -1.3569
 3336TIP3    H231500   6.205   6.780  13.694 -0.5725 -1.2676 -0.7220
 3337TIP3   OH231501   4.559   4.879  13.672  0.0588  0.7643  0.0976
 3337TIP3    H131502   4.586   4.799  13.627 -0.8837  0.8556 -0.6713
 3337TIP3    H231503   4.616   4.947  13.635  1.1307  0.4047  1.0405
 3338TIP3   OH231504   4.927   2.631   1.367  0.3260 -0.2681  0.4784
 3338TIP3    H131505   4.936   2.717   1.407  1.0060  0.3631 -0.9601
 3338TIP3    H231506   4.838   2.631   1.331  0.8167  0.4599 -0.8256
 3339TIP3   OH231507   6.432   0.077   4.263  0.1607  0.0314  0.1181
 3339TIP3    H131508   6.360   0.019   4.237 -0.9841  0.7035  1.5979
 3339TIP3    H231509   6.404   0.112   4.347  1.2117  2.0710 -0.3256
 3340TIP3   OH231510   2.027   5.154   6.384 -0.3496 -0.2874 -0.4273
 3340TIP3    H131511   2.058   5.072   6.422  0.5914 -0.8529 -2.2729
 3340TIP3    H231512   1.944   5.132   6.343 -1.6767  0.4629  1.6837
 3341TIP3   OH231513   4.356   1.262   1.852  0.2701  0.1774 -0.1460
 3341TIP3    H131514   4.297   1.190   1.875 -0.9518  0.9966 -0.5648
 3341TIP3    H231515   4.305   1.316   1.791  1.1792  1.3377  0.0769
 3342TIP3   OH231516   2.054   5.049  14.820  0.3328 -0.3139  0.4995
 3342TIP3    H131517   2.066   5.085  14.732 -3.6872  0.5646  0.1204
 3342TIP3    H231518   2.039   4.955  14.806 -0.2616 -0.1808  0.2106
 3343TIP3   OH231519   5.097   1.339  14.811  0.1024 -0.3390 -0.4793
 3343TIP3    H131520   5.166   1.333  14.876 -0.0854 -0.8184 -0.3249
 3343TIP3    H231521   5.111   1.265  14.753  0.6123  0.3996 -1.3322
 3344TIP3   OH231522   4.409   2.656   2.881  0.2861  0.1779 -0.3202
 3344TIP3    H131523   4.409   2.729   2.819  0.8937 -0.5086 -1.1458
 3344TIP3    H231524   4.345   2.681   2.947  0.3788  1.3957 -0.6652
 3345TIP3   OH231525   0.132   6.524   5.331 -0.3691  0.1897 -0.6402
 3345TIP3    H131526   0.134   6.619   5.318 -0.6593  0.2433 -0.3041
 3345TIP3    H231527   0.113   6.489   5.244  0.7212  0.3815 -0.9691
 3346TIP3   OH231528   6.398   2.538  16.538  0.5766  0.1568  0.0520
 3346TIP3    H131529   6.449   2.463  16.571  1.5870  1.1221  0.7436
 3346TIP3    H231530   6.370   2.584  16.617  0.5794  0.9121 -0.3863
 3347TIP3   OH231531   6.603   6.706   2.100 -1.1415  0.0374 -0.0833
 3347TIP3    H131532   6.548   6.727   2.025 -0.0110 -0.7274 -1.1568
 3347TIP3    H231533   6.673   6.651   2.065 -0.0903  0.3724  1.3628
 3348TIP3   OH231534   2.374   5.745   4.643  0.8029  0.1690 -0.2082
 3348TIP3    H131535   2.298   5.687   4.633  0.7527 -0.1439  1.7468
 3348TIP3    H231536   2.449   5.686   4.645  0.9772  0.3707 -0.6167
 3349TIP3   OH231537   5.415   1.385  11.782 -0.4732 -0.5751  0.3183
 3349TIP3    H131538   5.475   1.413  11.713 -0.2496 -0.3507  0.6005
 3349TIP3    H231539   5.455   1.306  11.817 -1.0069 -1.1558 -0.3508
 3350TIP3   OH231540   0.435   6.338  13.894  0.1326  0.4669 -0.4988
 3350TIP3    H131541   0.527   6.356  13.873  0.6777 -1.0371  0.4741
 3350TIP3    H231542   0.427   6.243  13.886 -1.4257  0.6006 -0.8258
 3351TIP3   OH231543   3.447   5.664   3.274  0.5023 -0.2513 -0.6230
 3351TIP3    H131544   3.382   5.678   3.206  0.6654  0.6452 -0.6014
 3351TIP3    H231545   3.480   5.751   3.294  0.1845 -0.4471  0.8779
 3352TIP3   OH231546   1.245   1.283  14.879  0.2324 -0.7902 -0.3851
 3352TIP3    H131547   1.338   1.300  14.895 -0.5608  3.5512  0.8048
 3352TIP3    H231548   1.225   1.335  14.801 -1.3633 -1.0535 -0.1797
 3353TIP3   OH231549   6.326   3.414   3.899  0.0898  0.3838  0.8662
 3353TIP3    H131550   6.337   3.322   3.923 -0.0123 -0.4681 -2.0308
 3353TIP3    H231551   6.412   3.453   3.914  0.4979 -0.5054  0.8872
 3354TIP3   OH231552   1.854   1.123   1.174  0.3428  0.9083  0.1999
 3354TIP3    H131553   1.826   1.100   1.263 -1.0735  0.5953 -0.3019
 3354TIP3    H231554   1.825   1.213   1.162 -0.9221  0.4309 -0.4895
 3355TIP3   OH231555   4.964   0.174  15.904  0.2136  0.3120  0.2017
 3355TIP3    H131556   4.889   0.113  15.899 -0.2150  0.8669 -0.3174
 3355TIP3    H231557   5.038   0.123  15.872 -0.0805 -0.0455  0.0739
 3356TIP3   OH231558   2.476   2.593  10.969 -0.1689  0.0954 -0.2595
 3356TIP3    H131559   2.468   2.679  10.928 -0.3801 -0.2685 -0.9947
 3356TIP3    H231560   2.387   2.569  10.995  0.1907  1.2411  2.3909
 3357TIP3   OH231561   5.783   2.342  12.495  0.0713  0.5015 -0.0267
 3357TIP3    H131562   5.791   2.258  12.540  1.2920 -0.5209 -2.0115
 3357TIP3    H231563   5.694   2.371  12.514 -0.9193 -1.9926 -0.4780
 3358TIP3   OH231564   1.772   3.311   5.116 -0.3518 -0.1159  0.3165
 3358TIP3    H131565   1.800   3.228   5.079 -2.9072  0.1194 -2.5674
 3358TIP3    H231566   1.701   3.288   5.177  1.6580 -0.2361  2.7709
 3359TIP3   OH231567   0.773   5.921   0.901 -0.1467  0.0834  0.0259
 3359TIP3    H131568   0.748   5.902   0.810 -0.1460  1.6995 -0.3465
 3359TIP3    H231569   0.795   6.015   0.900 -0.3181  0.1620  1.7331
 3360TIP3   OH231570   0.127   2.902  13.640 -0.4923 -0.1353  0.0965
 3360TIP3    H131571   0.111   2.888  13.733  0.8390 -1.3059  0.1772
 3360TIP3    H231572   0.214   2.942  13.635 -0.3136 -0.5870 -0.6631
 3361TIP3   OH231573   0.719   5.115   5.286  0.1101  0.3140  0.0030
 3361TIP3    H131574   0.703   5.153   5.199  2.3186  0.8593 -0.2359
 3361TIP3    H231575   0.814   5.120   5.296  0.4699 -4.0160  0.5263
 3362TIP3   OH231576   3.760   6.652  15.228 -0.0683 -0.4484 -0.6370
 3362TIP3    H131577   3.810   6.693  15.299 -0.8129  1.0748 -0.9515
 3362TIP3    H231578   3.798   6.565  15.218  2.8705  0.8114 -1.2141
 3363TIP3   OH231579   1.142   2.300   5.131  0.6180 -0.1824 -0.0846
 3363TIP3    H131580   1.094   2.364   5.183  1.9542 -0.6583  1.8386
 3363TIP3    H231581   1.131   2.329   5.040  1.2877  2.8738  0.6966
 3364TIP3   OH231582   0.371   0.106  15.899 -0.1430 -0.4586  0.0966
 3364TIP3    H131583   0.287   0.063  15.916 -0.1705 -1.3674 -1.9759
 3364TIP3    H231584   0.384   0.165  15.973 -3.2161  0.6653 -0.1311
 3365TIP3   OH231585   3.568   2.111   5.895  0.6138  0.3306 -0.0307
 3365TIP3    H131586   3.520   2.033   5.865 -1.1958  1.1253  0.6613
 3365TIP3    H231587   3.628   2.077   5.961 -0.6645 -0.4185  0.7927
 3366TIP3   OH231588   4.884   2.821  11.902 -0.5383 -0.4614 -0.0789
 3366TIP3    H131589   4.947   2.766  11.950  0.8755  0.9825 -0.1964
 3366TIP3    H231590   4.851   2.883  11.966 -0.1842  0.1654 -0.4864
 3367TIP3   OH231591   0.189   3.650  10.894 -0.2693  0.0580 -0.4959
 3367TIP3    H131592   0.243   3.657  10.973  0.6065  0.8426 -1.1384
 3367TIP3    H231593   0.120   3.714  10.907 -0.4400 -0.1977 -0.1308
 3368TIP3   OH231594   6.407   2.521  10.735 -0.0044 -0.0674  0.3526
 3368TIP3    H131595   6.366   2.599  10.698  0.8882 -0.1545 -0.8845
 3368TIP3    H231596   6.403   2.456  10.664  1.0654 -0.4907  0.6690
 3369TIP3   OH231597   1.197   2.144   0.977 -0.4514  0.2245 -0.3782
 3369TIP3    H131598   1.283   2.104   0.960 -0.4932  0.1436 -0.3974
 3369TIP3    H231599   1.176   2.119   1.067  0.3004  1.6130  0.2135
 3370TIP3   OH231600   6.340   3.481   6.092 -0.0036  0.7290 -0.1105
 3370TIP3    H131601   6.369   3.488   6.183  1.0615 -1.4401 -0.2319
 3370TIP3    H231602   6.417   3.449   6.045 -1.2144 -0.4702 -1.3510
 3371TIP3   OH231603   1.203   2.029   5.150  0.5157 -0.2121  0.4057
 3371TIP3    H131604   1.167   1.999   5.234 -0.7824 -1.2896 -0.4922
 3371TIP3    H231605   1.167   2.117   5.140  1.8710  0.5205  1.6323
 3372TIP3   OH231606   3.156   0.117  16.766  0.2076  0.1178 -0.7357
 3372TIP3    H131607   3.178   0.174  16.840  2.0553 -2.6254  1.0282
 3372TIP3    H231608   3.214   0.144  16.696  0.1239  1.2171 -0.4015
 3373TIP3   OH231609   5.154   3.975  12.138 -0.0429 -0.9013  0.4511
 3373TIP3    H131610   5.188   3.989  12.227  1.0153  0.2005 -0.0909
 3373TIP3    H231611   5.059   3.975  12.149  0.0554 -0.2684  1.5325
 3374TIP3   OH231612   2.930   4.001  10.512 -0.0887 -0.3881 -0.0148
 3374TIP3    H131613   2.841   3.969  10.499  0.0408 -0.3835 -0.9828
 3374TIP3    H231614   2.986   3.925  10.492  0.1122 -0.6849  1.5456
 3375TIP3   OH231615   1.949   5.837   4.463  0.0784 -0.0894  0.8700
 3375TIP3    H131616   1.910   5.753   4.441  0.4596 -0.2091  0.6405
 3375TIP3    H231617   1.962   5.833   4.558  0.5130 -0.4746  0.7986
 3376TIP3   OH231618   1.343   6.585   1.698 -0.9163  0.3799 -0.1316
 3376TIP3    H131619   1.294   6.591   1.616 -1.2375  0.5168  0.0731
 3376TIP3    H231620   1.286   6.624   1.764 -1.8721 -2.2030  0.7130
 3377TIP3   OH231621   0.750   1.891  16.173 -0.1574  0.5741 -0.4220
 3377TIP3    H131622   0.828   1.925  16.129  0.9100 -1.1059  0.1056
 3377TIP3    H231623   0.773   1.802  16.199 -2.2292  0.0490 -0.1689
 3378TIP3   OH231624   4.549   4.471  14.527  0.0071  0.3750 -0.0628
 3378TIP3    H131625   4.600   4.473  14.446 -1.6945  0.1774 -1.1987
 3378TIP3    H231626   4.521   4.561  14.541 -1.1073  0.1452 -0.6730
 3379TIP3   OH231627   1.381   0.354   0.760  0.1788  0.1180  0.2501
 3379TIP3    H131628   1.446   0.408   0.804 -0.3981 -0.6395  2.1055
 3379TIP3    H231629   1.350   0.409   0.687  0.2295  1.9552  1.5407
 3380TIP3   OH231630   1.266   5.102   4.080  0.4303 -0.0571 -0.2510
 3380TIP3    H131631   1.240   5.093   4.172 -0.3830 -2.0052 -0.6269
 3380TIP3    H231632   1.357   5.130   4.084  0.9348 -1.7017  1.1915
 3381TIP3   OH231633   5.270   0.374  15.778  0.1212 -0.5915  0.3487
 3381TIP3    H131634   5.181   0.391  15.809 -0.9298 -2.8184 -1.1626
 3381TIP3    H231635   5.323   0.442  15.819 -1.9225 -0.3854  2.9193
 3382TIP3   OH231636   5.509   3.601  14.603 -0.7694  0.1510 -0.8486
 3382TIP3    H131637   5.580   3.623  14.543 -1.0972 -0.8668 -1.6357
 3382TIP3    H231638   5.472   3.685  14.629  1.1918  0.7662  0.1802
 3383TIP3   OH231639   6.776   3.606  12.399 -0.1355  0.0137 -0.4682
 3383TIP3    H131640   6.820   3.522  12.387 -0.8281 -0.5158  0.5650
 3383TIP3    H231641   6.794   3.629  12.491  0.4068  1.2143 -0.8456
 3384TIP3   OH231642   3.762   6.821   3.823 -0.3729  0.3297 -0.3162
 3384TIP3    H131643   3.823   6.893   3.840 -0.8648  0.6565  0.0870
 3384TIP3    H231644   3.795   6.780   3.743  1.3095 -0.5025  0.7376
 3385TIP3   OH231645   0.836   2.907   4.383  0.3385  0.2760  0.1150
 3385TIP3    H131646   0.763   2.919   4.443 -0.6087  0.0191 -0.9625
 3385TIP3    H231647   0.818   2.966   4.310  0.3126 -1.0074 -0.9480
 3386TIP3   OH231648   1.957   2.208   0.508  0.5250 -0.2288 -0.4236
 3386TIP3    H131649   1.987   2.288   0.552 -0.7351 -0.3338  0.6993
 3386TIP3    H231650   1.909   2.160   0.576  0.2700 -1.3878 -1.3909
 3387TIP3   OH231651   1.723   4.383  13.614  0.1613  0.5959 -0.1949
 3387TIP3    H131652   1.719   4.382  13.519  0.7951 -1.3364 -0.2457
 3387TIP3    H231653   1.811   4.351  13.635  0.0398  1.0160  1.0378
 3388TIP3   OH231654   6.226   3.942  14.935  0.0134 -0.0438  0.1300
 3388TIP3    H131655   6.223   3.875  15.004 -0.1789 -0.3185 -0.1418
 3388TIP3    H231656   6.301   3.919  14.882  0.4415  0.4422  0.5143
 3389TIP3   OH231657   0.812   5.954   4.333 -0.2923 -0.3147  0.1842
 3389TIP3    H131658   0.896   5.965   4.378  0.3862 -0.9377 -0.8793
 3389TIP3    H231659   0.811   5.862   4.307 -1.5645 -0.4472  0.6436
 3390TIP3   OH231660   6.334   1.253   6.316 -0.5047  0.1035  0.0325
 3390TIP3    H131661   6.401   1.321   6.311 -1.3912  0.9727 -0.4027
 3390TIP3    H231662   6.251   1.300   6.303 -0.9886 -1.4417 -3.5388
 3391TIP3   OH231663   0.840   0.555  14.873  0.3419  0.6372  0.0136
 3391TIP3    H131664   0.796   0.598  14.801  1.6890  1.3847 -0.4005
 3391TIP3    H231665   0.804   0.466  14.874  0.3737  0.5740 -1.6496
 3392TIP3   OH231666   1.964   6.282  14.914  0.2392 -0.1586  0.1918
 3392TIP3    H131667   1.928   6.205  14.869  0.3986 -0.4693  0.5837
 3392TIP3    H231668   2.057   6.262  14.925  0.5625  0.6702 -0.8731
 3393TIP3   OH231669   5.050   2.634   0.759 -0.1766 -0.3475 -0.8655
 3393TIP3    H131670   5.104   2.706   0.725 -0.6582  0.3302 -0.2138
 3393TIP3    H231671   4.971   2.636   0.705 -0.9003  0.6678  0.2035
 3394TIP3   OH231672   1.767   0.123  12.471  0.2240 -0.3497 -0.4774
 3394TIP3    H131673   1.855   0.143  12.442  0.4656  0.7102  0.8640
 3394TIP3    H231674   1.771   0.131  12.566 -1.4265  0.2269 -0.4231
 3395TIP3   OH231675   1.635   1.904   3.522  0.0217 -0.3848 -0.5558
 3395TIP3    H131676   1.565   1.942   3.576  0.0542 -0.3455 -0.5413
 3395TIP3    H231677   1.710   1.899   3.581  0.3350  0.5440 -0.8581
 3396TIP3   OH231678   5.730   0.836  13.791 -0.0638  0.3926 -0.2679
 3396TIP3    H131679   5.666   0.809  13.724  0.2380 -1.0706 -0.0080
 3396TIP3    H231680   5.677   0.865  13.865 -0.4034  1.4505 -0.9150
 3397TIP3   OH231681   0.829   0.727  13.302  0.5136  0.1754  0.2553
 3397TIP3    H131682   0.798   0.681  13.223  0.0975 -0.9014  1.0221
 3397TIP3    H231683   0.871   0.659  13.354  1.0500  0.9401  0.8462
 3398TIP3   OH231684   3.168   0.065   4.483  0.0574  0.0645 -0.1988
 3398TIP3    H131685   3.248   0.098   4.525  0.9002  0.5180 -2.0431
 3398TIP3    H231686   3.110   0.044   4.556  0.6063  2.8153  1.1911
 3399TIP3   OH231687   1.457   1.467   2.166  0.4307  0.1756 -0.6979
 3399TIP3    H131688   1.533   1.493   2.217  0.5150 -0.1780 -0.6401
 3399TIP3    H231689   1.386   1.521   2.200  0.5515  0.1601 -0.4175
 3400TIP3   OH231690   0.627   2.319   3.607  0.1480  0.0846 -0.0834
 3400TIP3    H131691   0.596   2.273   3.686  1.6373 -2.9268 -1.0711
 3400TIP3    H231692   0.577   2.280   3.536  1.0332  0.4659 -0.9353
 3401TIP3   OH231693   6.249   6.464  15.430 -0.5444 -0.1479 -0.1201
 3401TIP3    H131694   6.272   6.443  15.339 -1.9147  1.3862 -0.8690
 3401TIP3    H231695   6.216   6.554  15.426 -0.6183 -0.0461  1.9150
 3402TIP3   OH231696   5.690   4.697  15.494  0.2176  0.4903 -0.1858
 3402TIP3    H131697   5.785   4.689  15.504  0.2961  0.8221 -0.6179
 3402TIP3    H231698   5.673   4.791  15.505 -0.0921  0.3978  0.1301
 3403TIP3   OH231699   1.291   6.630   1.425  0.3705  0.3267  0.0604
 3403TIP3    H131700   1.312   6.724   1.426 -1.8442  0.9032 -1.2469
 3403TIP3    H231701   1.242   6.617   1.344  2.8570 -2.5557 -1.1540
 3404TIP3   OH231702   6.812   1.918  13.744  0.1053 -0.1082  0.0684
 3404TIP3    H131703   6.843   1.832  13.716  0.6145  0.4038 -0.9879
 3404TIP3    H231704   6.823   1.918  13.839  2.2039 -0.4033 -0.1256
 3405TIP3   OH231705   5.422   1.634   3.415  0.5216 -0.2332 -0.0198
 3405TIP3    H131706   5.486   1.564   3.430  0.8122  0.1890  0.7351
 3405TIP3    H231707   5.473   1.703   3.373  0.3117 -0.3180 -0.4261
 3406TIP3   OH231708   6.099   5.174   5.116  0.0907  0.2599 -0.0806
 3406TIP3    H131709   6.007   5.180   5.091  0.0089 -0.0608  0.1403
 3406TIP3    H231710   6.135   5.261   5.097 -0.6258  0.8903  1.2997
 3407TIP3   OH231711   4.788   4.833   0.371  0.0449 -0.0315  0.0752
 3407TIP3    H131712   4.763   4.911   0.421  0.5080  0.5083 -0.5219
 3407TIP3    H231713   4.714   4.773   0.382  0.6921 -0.4694  2.5015
 3408TIP3   OH231714   1.578   1.201  10.867  0.0404  0.3490  0.0287
 3408TIP3    H131715   1.533   1.267  10.921  0.8594  0.0859  1.0695
 3408TIP3    H231716   1.649   1.249  10.825  1.0016  0.0593  1.2450
 3409TIP3   OH231717   4.246   3.972  15.079  0.2955  0.0473 -0.5220
 3409TIP3    H131718   4.196   3.989  15.159 -0.2617 -1.0722 -0.6104
 3409TIP3    H231719   4.247   4.056  15.033 -0.2167  0.4584  0.1929
 3410TIP3   OH231720   1.968   5.955  15.418  0.4365 -0.0066  0.7758
 3410TIP3    H131721   1.996   5.863  15.414 -0.2918 -0.1900 -1.4904
 3410TIP3    H231722   1.873   5.951  15.408  0.5784  1.0495 -1.6154
 3411TIP3   OH231723   0.346   5.481  15.875  0.2985 -0.4572 -0.0884
 3411TIP3    H131724   0.305   5.483  15.961 -0.3876 -3.5904 -0.2121
 3411TIP3    H231725   0.350   5.573  15.847 -1.0663  0.4728  2.4901
 3412TIP3   OH231726   1.701   3.144  12.567 -0.2751  0.2322 -0.4895
 3412TIP3    H131727   1.714   3.105  12.654 -1.1403  2.4918  0.7303
 3412TIP3    H231728   1.691   3.069  12.509 -0.9598 -1.3751  1.5592
 3413TIP3   OH231729   5.733   4.896  11.076  0.3672 -0.2081  0.0078
 3413TIP3    H131730   5.710   4.989  11.073 -1.3238 -0.5267  1.6634
 3413TIP3    H231731   5.733   4.869  10.984  1.3347  1.4904 -0.5390
 3414TIP3   OH231732   2.023   1.886  17.014 -0.1835  0.4099 -0.0278
 3414TIP3    H131733   2.063   1.973  17.018 -0.3696  0.4659  0.6218
 3414TIP3    H231734   2.071   1.834  17.079 -0.6091  0.2481  0.1607
 3415TIP3   OH231735   3.182   3.666  15.073 -0.1920  0.0573  0.1579
 3415TIP3    H131736   3.193   3.572  15.086 -0.2248  0.1808  1.1923
 3415TIP3    H231737   3.265   3.704  15.101 -0.7127  0.4418  1.2536
 3416TIP3   OH231738   3.701   2.131   5.376  0.7718  0.8277  0.0962
 3416TIP3    H131739   3.683   2.166   5.463  0.8413  0.0740  0.4140
 3416TIP3    H231740   3.794   2.108   5.378  0.4120 -0.7068  0.3700
 3417TIP3   OH231741   6.021   4.675   1.673  0.3508 -0.4900  0.2113
 3417TIP3    H131742   5.945   4.697   1.728 -0.2154 -1.2025 -0.2730
 3417TIP3    H231743   5.984   4.630   1.598  1.2075 -0.2869 -0.3452
 3418TIP3   OH231744   4.997   2.502  11.047 -0.9184  0.0468 -0.4469
 3418TIP3    H131745   4.946   2.485  10.968 -1.2141  0.8071 -0.4275
 3418TIP3    H231746   5.004   2.597  11.051 -0.0810 -0.0200 -0.0769
 3419TIP3   OH231747   5.407   4.587   0.737 -0.4083 -0.3104 -0.0669
 3419TIP3    H131748   5.365   4.532   0.671 -0.9819 -1.1466  0.9715
 3419TIP3    H231749   5.337   4.644   0.769 -0.4024 -0.6711  0.5992
 3420TIP3   OH231750   5.186   1.496  15.964  0.8236 -0.0238 -0.0305
 3420TIP3    H131751   5.186   1.502  15.869  0.4897 -1.2238 -0.1127
 3420TIP3    H231752   5.095   1.478  15.988  1.3503 -2.6053  0.2934
 3421TIP3   OH231753   6.312   4.240  14.134  0.0440  0.2446  0.1062
 3421TIP3    H131754   6.330   4.219  14.042 -0.1429  0.1806  0.0835
 3421TIP3    H231755   6.393   4.279  14.166 -0.8109  3.1892 -0.9429
 3422TIP3   OH231756   5.721   0.114   0.643  0.3992  0.0529  0.3386
 3422TIP3    H131757   5.645   0.130   0.699  0.3103  1.4905 -0.1481
 3422TIP3    H231758   5.793   0.098   0.704  0.0240  0.2299  0.8389
 3423TIP3   OH231759   6.028   0.173   3.136 -0.0286  0.4665 -0.2806
 3423TIP3    H131760   5.968   0.099   3.145 -0.9974  1.4852  2.8182
 3423TIP3    H231761   5.971   0.250   3.135  1.1135  1.3469 -0.3829
 3424TIP3   OH231762   0.065   5.188  11.627  0.3265  0.3597 -0.1838
 3424TIP3    H131763   0.064   5.259  11.564  0.1739  1.1650  0.7070
 3424TIP3    H231764  -0.026   5.176  11.651 -0.0214 -1.9404 -2.2596
 3425TIP3   OH231765   5.884   3.607   4.294  0.0762 -0.9191  0.2034
 3425TIP3    H131766   5.896   3.623   4.201  1.4884 -1.9119  0.1956
 3425TIP3    H231767   5.789   3.611   4.307 -0.0510  1.1115 -0.8982
 3426TIP3   OH231768   4.686   0.431   5.704 -0.7628  0.0466 -0.0721
 3426TIP3    H131769   4.738   0.396   5.777  0.3237  1.5185 -0.0943
 3426TIP3    H231770   4.737   0.410   5.626 -2.0723 -1.7926 -0.4947
 3427TIP3   OH231771   3.842   0.592  14.893  0.0666 -0.1488  0.3904
 3427TIP3    H131772   3.866   0.636  14.974 -0.2672  0.2988  0.2501
 3427TIP3    H231773   3.856   0.658  14.825  1.3011 -0.8213 -0.0465
 3428TIP3   OH231774   0.978   4.237  15.998  0.3879  0.0420 -0.3456
 3428TIP3    H131775   1.009   4.179  15.928  3.2108  0.5467  0.3710
 3428TIP3    H231776   0.926   4.181  16.055  0.1776 -0.9581 -1.4774
 3429TIP3   OH231777   2.363   6.629   5.588  0.4611 -0.0424  0.1013
 3429TIP3    H131778   2.454   6.630   5.557 -0.0125 -0.4285 -1.4094
 3429TIP3    H231779   2.360   6.697   5.656  1.5810  0.9015 -0.7414
 3430TIP3   OH231780   0.054   5.459  11.195  0.1133  0.4395 -0.5413
 3430TIP3    H131781   0.082   5.548  11.172  0.0005  0.6126 -0.0116
 3430TIP3    H231782  -0.037   5.469  11.223  0.5708  0.4086  1.0319
 3431TIP3   OH231783   6.299   5.027   3.364 -0.6419  0.2191  0.2206
 3431TIP3    H131784   6.300   5.056   3.456  0.8659  0.8481  0.0428
 3431TIP3    H231785   6.391   5.012   3.343 -1.0498 -0.9083 -0.9116
 3432TIP3   OH231786   2.945   2.237  15.076 -0.0958 -0.3117  0.2132
 3432TIP3    H131787   2.970   2.150  15.044  0.2785 -0.4937  0.9963
 3432TIP3    H231788   2.923   2.224  15.168 -1.1844  0.2107  0.0446
 3433TIP3   OH231789   6.788   1.440   4.490  0.0235  0.2252 -0.9897
 3433TIP3    H131790   6.874   1.458   4.527 -0.5130  0.1608  0.3325
 3433TIP3    H231791   6.745   1.385   4.555 -1.4178  1.1545 -1.1266
 3434TIP3   OH231792   6.379   2.390   6.114  0.0062  0.6046  0.4239
 3434TIP3    H131793   6.402   2.363   6.025  0.4097  1.3635  0.2864
 3434TIP3    H231794   6.302   2.445   6.104 -0.1357  0.4373  0.5805
 3435TIP3   OH231795   3.061   4.119   2.272 -0.3283  0.1156 -0.7052
 3435TIP3    H131796   3.126   4.074   2.328  0.3238  0.6343 -1.0265
 3435TIP3    H231797   3.108   4.137   2.191 -0.8988  0.4524 -0.9658
 3436TIP3   OH231798   4.493   6.731   6.409  0.3534 -0.0558  0.2485
 3436TIP3    H131799   4.500   6.799   6.476 -1.7752 -1.2158  1.7988
 3436TIP3    H231800   4.459   6.777   6.332 -2.3870  0.5444  1.6835
 3437TIP3   OH231801   1.396   2.062   0.383 -0.0217 -0.2931  0.3922
 3437TIP3    H131802   1.309   2.026   0.363  0.2159 -0.8182  0.2816
 3437TIP3    H231803   1.382   2.117   0.459 -0.7209  0.7529 -0.4582
 3438TIP3   OH231804   0.249   4.713   2.983 -0.2551 -0.0052 -0.0039
 3438TIP3    H131805   0.259   4.619   2.997 -2.7785 -0.1794  1.1190
 3438TIP3    H231806   0.334   4.750   3.007  1.2085 -2.0492 -1.6925
 3439TIP3   OH231807   2.379   1.678  11.339 -0.5281 -0.6532  0.0661
 3439TIP3    H131808   2.322   1.608  11.307 -1.4322 -0.5430  1.3455
 3439TIP3    H231809   2.420   1.714  11.260 -2.7311 -0.3080 -0.9996
 3440TIP3   OH231810   5.167   6.683  17.019  0.2929 -0.5948 -0.4227
 3440TIP3    H131811   5.113   6.604  17.009  0.4712 -0.5596 -1.8170
 3440TIP3    H231812   5.255   6.649  17.037  0.1997 -0.6913 -0.1423
 3441TIP3   OH231813   2.193   4.440   2.918 -0.0066 -0.6291 -0.3356
 3441TIP3    H131814   2.197   4.529   2.883  1.8962 -0.5460 -0.0028
 3441TIP3    H231815   2.157   4.388   2.845 -0.0652  0.2161 -0.9317
 3442TIP3   OH231816   0.537   5.526   2.550 -0.0415 -0.1882  0.3960
 3442TIP3    H131817   0.451   5.560   2.575 -1.0288 -1.7373 -0.7355
 3442TIP3    H231818   0.559   5.573   2.469 -0.6930 -1.0998 -0.3235
 3443TIP3   OH231819   0.050   6.127   1.114  0.0334 -0.1818  0.3298
 3443TIP3    H131820  -0.044   6.110   1.121  0.2551 -0.9134  1.9283
 3443TIP3    H231821   0.058   6.220   1.135 -0.1130 -0.6985  3.0111
 3444TIP3   OH231822   5.466   4.317  16.359 -0.7318  0.2323 -0.0336
 3444TIP3    H131823   5.502   4.232  16.385 -0.4423  0.0772 -0.9097
 3444TIP3    H231824   5.524   4.381  16.400 -0.5096 -0.0009  0.0190
 3445TIP3   OH231825   6.031   0.929  13.160  0.0926  0.2864  0.0532
 3445TIP3    H131826   6.056   0.837  13.159  1.4570  0.5724  1.8657
 3445TIP3    H231827   6.094   0.972  13.102  0.5855  0.3037  0.5947
 3446TIP3   OH231828   0.980   2.136  10.975 -0.2939  0.5007 -0.0586
 3446TIP3    H131829   1.003   2.078  11.048 -1.7206 -0.4267 -0.3000
 3446TIP3    H231830   1.064   2.158  10.934  0.3056 -1.9094 -0.3184
 3447TIP3   OH231831   0.149   5.505   1.742 -0.4405 -0.6258  0.0440
 3447TIP3    H131832   0.083   5.503   1.811 -0.1795  1.6032  0.4214
 3447TIP3    H231833   0.230   5.529   1.787 -0.0231 -0.2544 -0.8783
 3448TIP3   OH231834   4.523   1.575  11.960  0.3623 -0.1871  0.1490
 3448TIP3    H131835   4.605   1.611  11.925  1.4607 -0.5850  2.1355
 3448TIP3    H231836   4.457   1.640  11.938  1.7132  1.4785  0.7860
 3449TIP3   OH231837   4.189   6.562   4.452  0.3777  1.2190 -0.0169
 3449TIP3    H131838   4.265   6.539   4.397  0.5786  1.5354  0.1261
 3449TIP3    H231839   4.228   6.603   4.529 -0.0123  2.8586 -0.6603
 3450TIP3   OH231840   1.422   5.734  14.311  0.0486 -0.0027 -0.5037
 3450TIP3    H131841   1.478   5.761  14.383 -0.2833 -2.7760  0.9305
 3450TIP3    H231842   1.333   5.735  14.348 -0.3781  0.4928 -1.5082
 3451TIP3   OH231843   2.980   6.665  15.682 -0.8820  0.1967 -0.0412
 3451TIP3    H131844   3.039   6.618  15.622 -1.0861  0.5149 -0.4986
 3451TIP3    H231845   2.914   6.600  15.705 -0.2890 -0.2036  0.5801
 3452TIP3   OH231846   0.072   0.076  16.507  0.0782 -0.1609 -0.0490
 3452TIP3    H131847   0.160   0.109  16.489  1.1290 -2.0703  1.1193
 3452TIP3    H231848   0.063  -0.001  16.451 -0.5794 -0.3788  0.3369
 3453TIP3   OH231849   1.648   4.657  15.030  0.1848  0.4463 -0.0659
 3453TIP3    H131850   1.608   4.741  15.053 -0.6947 -0.2588  1.1498
 3453TIP3    H231851   1.741   4.675  15.024  0.1240  1.3113  1.2319
 3454TIP3   OH231852   2.144   3.006   1.361 -0.4845 -0.1964 -0.0711
 3454TIP3    H131853   2.100   2.944   1.303 -0.7896 -0.2735  0.2340
 3454TIP3    H231854   2.155   3.085   1.308 -1.7022  0.0939  0.0748
 3455TIP3   OH231855   1.655   5.877   0.823  0.0716 -0.3880 -0.1834
 3455TIP3    H131856   1.746   5.905   0.832 -0.1108  0.7916 -1.6078
 3455TIP3    H231857   1.647   5.852   0.731 -1.1521 -0.0292 -0.1906
 3456TIP3   OH231858   1.580   6.049  15.839  0.0378  0.0904 -0.2955
 3456TIP3    H131859   1.625   6.023  15.919  0.1128 -1.0924 -0.7104
 3456TIP3    H231860   1.550   6.139  15.856 -0.6658 -0.4367  1.3636
 3457TIP3   OH231861   6.548   3.317   5.159 -0.2640 -0.9446 -0.0819
 3457TIP3    H131862   6.484   3.370   5.207 -1.1516 -1.5670 -0.5456
 3457TIP3    H231863   6.551   3.234   5.206 -2.2818 -2.1309 -1.8907
 3458TIP3   OH231864   5.468   3.333  15.812  0.1027 -0.1772 -0.1629
 3458TIP3    H131865   5.522   3.277  15.757  0.4773 -0.0350  0.0614
 3458TIP3    H231866   5.501   3.319  15.901 -1.5822 -1.7082  0.2885
 3459TIP3   OH231867   5.939   3.669   4.048 -0.3210 -0.5002  0.5579
 3459TIP3    H131868   6.024   3.633   4.022 -0.3853  0.1860 -0.6576
 3459TIP3    H231869   5.881   3.650   3.975  0.1069  3.6721 -1.1394
 3460TIP3   OH231870   6.811   3.149  15.554  0.3782 -0.1868  0.0685
 3460TIP3    H131871   6.788   3.241  15.568  1.4580  0.0482  0.4636
 3460TIP3    H231872   6.748   3.117  15.490 -2.0141 -0.0482  2.1820
 3461TIP3   OH231873   6.576   0.918   4.208  0.7372  0.6663 -0.2437
 3461TIP3    H131874   6.559   0.831   4.244  2.4115  0.2569 -0.3504
 3461TIP3    H231875   6.565   0.907   4.114 -0.2457  0.8937 -0.1702
 3462TIP3   OH231876   2.811   2.799   3.099 -0.5840 -0.2803  0.0946
 3462TIP3    H131877   2.830   2.824   3.189 -0.3607 -0.0062 -0.0265
 3462TIP3    H231878   2.749   2.727   3.106  1.2555 -1.9063  0.5269
 3463TIP3   OH231879   3.183   2.050  15.013  0.0461 -0.2115  0.0638
 3463TIP3    H131880   3.230   1.970  15.038 -0.9566 -0.4235  1.3664
 3463TIP3    H231881   3.185   2.049  14.917 -1.1151 -2.5519 -0.0171
 3464TIP3   OH231882   3.482   3.885  12.873  0.1794 -0.7048 -0.2130
 3464TIP3    H131883   3.429   3.963  12.887  1.9624  0.7049 -0.9714
 3464TIP3    H231884   3.420   3.818  12.844 -1.1226  1.0061 -1.5626
 3465TIP3   OH231885   1.481   4.214   4.675 -0.2805 -0.5952 -0.0403
 3465TIP3    H131886   1.475   4.119   4.681 -0.4693 -0.6436 -0.8721
 3465TIP3    H231887   1.410   4.239   4.615 -0.0005  0.0318 -0.1252
 3466TIP3   OH231888   3.075   1.638   5.844  0.1342 -0.2948  0.2650
 3466TIP3    H131889   3.091   1.575   5.774 -1.1324 -0.7187  0.3351
 3466TIP3    H231890   3.162   1.668   5.869  0.7364 -1.5805 -0.1713
 3467TIP3   OH231891   4.437   1.649  11.397 -0.1839  0.3203 -0.3842
 3467TIP3    H131892   4.397   1.678  11.480  2.0043  0.0135  0.8668
 3467TIP3    H231893   4.462   1.730  11.353  1.3725  0.4945  0.7355
 3468TIP3   OH231894   1.977   1.095  15.715 -0.0753 -0.2085 -0.7016
 3468TIP3    H131895   1.945   1.018  15.761  0.5449 -0.6675 -1.0329
 3468TIP3    H231896   2.027   1.143  15.781  1.6283 -1.3559 -1.1182
 3469TIP3   OH231897   3.649   1.394   1.778 -0.5514 -0.1938  0.6108
 3469TIP3    H131898   3.702   1.459   1.733  0.2001 -0.0273  1.6920
 3469TIP3    H231899   3.605   1.345   1.708  2.3188 -1.4587 -0.4450
 3470TIP3   OH231900   0.965   3.967   5.532 -0.1327  0.1693 -0.2975
 3470TIP3    H131901   0.953   4.039   5.594 -0.3028  0.8762 -1.1337
 3470TIP3    H231902   0.878   3.948   5.499 -0.0791 -0.3859 -0.1319
 3471TIP3   OH231903   4.157   4.811   0.530 -0.2255  0.1702  0.4151
 3471TIP3    H131904   4.237   4.789   0.481 -0.5730 -0.2738  0.0350
 3471TIP3    H231905   4.099   4.737   0.516 -0.6730  0.4454  0.7725
 3472TIP3   OH231906   6.447   6.180  14.514  0.2315 -0.1393 -0.3864
 3472TIP3    H131907   6.456   6.198  14.608  1.9964 -1.8827 -0.1385
 3472TIP3    H231908   6.528   6.213  14.475 -0.3823  0.3580 -1.2634
 3473TIP3   OH231909   1.235   5.451   5.529  0.6280 -0.4279  0.4207
 3473TIP3    H131910   1.295   5.428   5.600  0.3064 -2.0862  0.1964
 3473TIP3    H231911   1.153   5.473   5.573  0.1287 -2.4244  0.5583
 3474TIP3   OH231912   6.727   5.373   2.289 -0.2440 -0.0760  0.0700
 3474TIP3    H131913   6.662   5.321   2.243  0.1192 -0.4100 -0.0704
 3474TIP3    H231914   6.725   5.341   2.379  0.5721 -0.9315 -0.1991
 3475TIP3   OH231915   0.471   0.038  12.662  0.2982  0.4771 -0.0094
 3475TIP3    H131916   0.542  -0.027  12.666 -1.7572 -1.9266 -0.5291
 3475TIP3    H231917   0.400  -0.001  12.713 -1.6001  1.5589 -1.7050
 3476TIP3   OH231918   0.832   4.757   4.310  0.7651  0.0985 -0.9593
 3476TIP3    H131919   0.804   4.699   4.240 -0.6187 -0.3158 -0.0956
 3476TIP3    H231920   0.826   4.845   4.272 -0.8604 -0.0498 -1.0990
 3477TIP3   OH231921   5.236   1.526   2.555 -0.1129 -0.2703  0.0145
 3477TIP3    H131922   5.228   1.451   2.615  1.6570 -1.3621 -1.0226
 3477TIP3    H231923   5.202   1.494   2.472  0.6334  0.0900 -0.4341
 3478TIP3   OH231924   4.358   4.749  15.020 -1.0041 -0.1604 -0.8391
 3478TIP3    H131925   4.283   4.712  15.068  0.2059 -0.8535  0.6181
 3478TIP3    H231926   4.426   4.682  15.028 -0.2107  0.4603 -2.1275
 3479TIP3   OH231927   5.538   0.724  13.152 -0.2583  0.3268  0.0924
 3479TIP3    H131928   5.593   0.755  13.080  1.9948  1.0217  2.0125
 3479TIP3    H231929   5.457   0.775  13.144  1.1257  2.6097 -0.2087
 3480TIP3   OH231930   5.099   3.852  14.442  0.0073  0.2958  0.2608
 3480TIP3    H131931   5.092   3.881  14.533 -1.0463 -0.0004  0.2828
 3480TIP3    H231932   5.017   3.805  14.425  0.3450  0.0399 -0.7327
 3481TIP3   OH231933   6.133   3.786   0.289  0.3174  0.1853 -0.5382
 3481TIP3    H131934   6.120   3.694   0.268 -1.3631  0.3109 -0.2267
 3481TIP3    H231935   6.044   3.819   0.306  0.9581  1.6807  0.0608
 3482TIP3   OH231936   6.644   6.437   1.118  0.1754 -0.6961 -0.4491
 3482TIP3    H131937   6.571   6.381   1.091 -2.8302  2.4722  0.3111
 3482TIP3    H231938   6.648   6.505   1.050 -0.6646  1.6775  1.7402
 3483TIP3   OH231939   1.649   2.916   2.417 -0.9192  0.9527 -0.4958
 3483TIP3    H131940   1.703   2.991   2.442  0.5054 -0.2527  0.1958
 3483TIP3    H231941   1.708   2.841   2.424 -2.1619 -0.1808 -1.6660
 3484TIP3   OH231942   5.239   3.742  15.135  0.0103 -0.5932 -0.0105
 3484TIP3    H131943   5.222   3.779  15.048 -1.0071 -1.5325 -0.2406
 3484TIP3    H231944   5.233   3.648  15.122  0.9576 -0.7860  0.8727
 3485TIP3   OH231945   3.508   3.419   2.395 -0.2120 -0.1728  0.1166
 3485TIP3    H131946   3.556   3.368   2.330  1.5651  0.6359  0.7356
 3485TIP3    H231947   3.426   3.371   2.408  1.0769 -2.4638  0.1643
 3486TIP3   OH231948   3.677   0.390  11.329 -0.1733  0.4969 -0.4229
 3486TIP3    H131949   3.614   0.357  11.265  0.0872  1.8709 -1.4098
 3486TIP3    H231950   3.672   0.327  11.401 -2.0054  0.0693 -0.8684
 3487TIP3   OH231951   3.356   5.862  15.274  0.2198  0.3050 -0.0076
 3487TIP3    H131952   3.414   5.792  15.243  0.8461  1.2451 -1.0437
 3487TIP3    H231953   3.354   5.925  15.202 -1.7640  0.5195  0.1815
 3488TIP3   OH231954   5.328   4.361  16.624  0.4078 -0.5431 -0.2188
 3488TIP3    H131955   5.355   4.272  16.648  1.5685 -0.7907 -2.2465
 3488TIP3    H231956   5.258   4.349  16.561 -2.1200  0.0936  2.2618
 3489TIP3   OH231957   1.099   6.025  14.123 -0.0499 -0.5701 -0.6900
 3489TIP3    H131958   1.156   6.059  14.192 -1.0197 -1.9695  0.8875
 3489TIP3    H231959   1.025   6.087  14.121  0.0495 -0.4461 -0.5608
 3490TIP3   OH231960   6.157   6.456   1.612  0.0692 -0.4269 -0.1134
 3490TIP3    H131961   6.188   6.392   1.676  0.4536 -0.1456 -0.0153
 3490TIP3    H231962   6.232   6.470   1.554  0.5058  1.0810  0.7712
 3491TIP3   OH231963   0.763   3.297   1.959  0.3974 -0.2702  0.2021
 3491TIP3    H131964   0.820   3.238   1.909 -1.1366 -0.1340 -1.8139
 3491TIP3    H231965   0.823   3.357   2.003  1.8624 -0.6584 -1.1776
 3492TIP3   OH231966   3.113   6.160  13.901 -0.4308 -0.6766 -0.5453
 3492TIP3    H131967   3.166   6.180  13.978  0.8099 -2.1789 -0.9600
 3492TIP3    H231968   3.024   6.186  13.926  0.4539  2.0906  0.1115
 3493TIP3   OH231969   0.986   5.707  16.422 -0.1833  0.7505  0.3299
 3493TIP3    H131970   0.965   5.684  16.331  1.2163 -1.4477  0.4937
 3493TIP3    H231971   1.081   5.718  16.423  0.1765 -1.6863  1.9362
 3494TIP3   OH231972   3.269   3.999   5.189  0.0328 -0.2258 -0.2280
 3494TIP3    H131973   3.303   4.066   5.249 -0.4785  0.2087 -0.4151
 3494TIP3    H231974   3.175   3.998   5.206 -0.6024  1.8876 -2.9171
 3495TIP3   OH231975   4.534   6.211   5.741 -0.1386 -0.4635  0.2374
 3495TIP3    H131976   4.538   6.155   5.819 -1.6718 -1.3897 -0.3038
 3495TIP3    H231977   4.594   6.283   5.761 -1.3404 -0.0590  2.7613
 3496TIP3   OH231978   5.221   3.860  14.897 -0.0786  0.1765 -0.0424
 3496TIP3    H131979   5.230   3.929  14.831  0.8414 -0.0935 -0.2139
 3496TIP3    H231980   5.205   3.781  14.847  1.4346 -0.1762 -0.0186
 3497TIP3   OH231981   5.751   5.608  14.138 -0.6938  0.2686  0.1222
 3497TIP3    H131982   5.702   5.627  14.218 -1.4035  0.2540 -0.3023
 3497TIP3    H231983   5.816   5.677  14.133  0.2151 -0.4425  1.3872
 3498TIP3   OH231984   1.315   5.996   4.223  0.1750 -0.4512 -0.0344
 3498TIP3    H131985   1.357   6.077   4.196  0.4765 -0.7807 -0.5918
 3498TIP3    H231986   1.366   5.927   4.179  0.8622 -1.0363  1.6124
 3499TIP3   OH231987   3.594   5.968   6.439 -0.0851 -0.4968  0.1360
 3499TIP3    H131988   3.602   5.891   6.496 -0.6804  0.0675  1.0105
 3499TIP3    H231989   3.674   6.017   6.454 -1.2856  0.9204  2.4702
 3500TIP3   OH231990   5.805   4.297   5.223  0.0875  0.1252 -0.4521
 3500TIP3    H131991   5.791   4.384   5.260  1.0051 -0.2343  0.8066
 3500TIP3    H231992   5.885   4.305   5.171 -0.1733  0.1750 -0.8528
 3501TIP3   OH231993   6.572   4.756  12.441 -0.0250 -0.3413  0.8117
 3501TIP3    H131994   6.662   4.786  12.449 -0.0889 -0.2429  1.1937
 3501TIP3    H231995   6.555   4.753  12.347  0.2553  0.0013  0.7514
 3502TIP3   OH231996   5.980   3.726  12.595  0.2258  0.1268  0.5009
 3502TIP3    H131997   5.908   3.768  12.641 -0.1343  1.2312 -1.0116
 3502TIP3    H231998   6.058   3.753  12.644 -0.3094 -0.8547  1.9864
 3503TIP3   OH231999   2.170   2.837  12.253  0.4528 -0.5346 -0.2655
 3503TIP3    H132000   2.124   2.797  12.179  0.3882  0.3168 -0.6994
 3503TIP3    H232001   2.101   2.881  12.303  0.3061 -2.1231  1.0156
 3504TIP3   OH232002   3.104   1.188   1.617 -0.2298 -0.5238 -0.5788
 3504TIP3    H132003   3.078   1.097   1.633  0.2564 -1.0016 -2.3175
 3504TIP3    H232004   3.026   1.239   1.638 -1.3540 -1.5867 -2.0309
 3505TIP3   OH232005   1.979   2.029   4.926  0.3158 -0.6832 -0.8109
 3505TIP3    H132006   1.969   2.123   4.934  0.3924 -0.7461  0.1116
 3505TIP3    H232007   1.948   2.009   4.838  0.1924  0.1837 -0.9720
 3506TIP3   OH232008   0.672   2.712   5.219  0.3576  0.2237 -0.5259
 3506TIP3    H132009   0.632   2.708   5.132 -0.2124 -0.5189 -0.2452
 3506TIP3    H232010   0.753   2.662   5.211  0.1624 -0.0902 -0.5625
 3507TIP3   OH232011   6.285   3.032   6.441  0.7773 -0.4830 -0.1070
 3507TIP3    H132012   6.273   3.021   6.536 -0.6680  0.0937 -0.1969
 3507TIP3    H232013   6.238   2.958   6.402 -0.8966  0.6879 -0.4203
 3508TIP3   OH232014   1.489   3.200  15.467 -0.5273 -0.3339  0.0639
 3508TIP3    H132015   1.484   3.210  15.372 -3.0530 -2.9625 -0.2233
 3508TIP3    H232016   1.561   3.138  15.480 -0.0207  0.2144 -0.1139
 3509TIP3   OH232017   6.203   2.990   3.367 -0.2466  0.3477 -0.1536
 3509TIP3    H132018   6.181   2.918   3.425  0.3002  0.6312  0.4161
 3509TIP3    H232019   6.147   3.062   3.394 -2.0400 -0.3327 -1.8369
 3510TIP3   OH232020   1.086   6.309   6.172  0.0005  0.2654  0.0693
 3510TIP3    H132021   1.114   6.285   6.084 -1.3291  1.3229 -0.6944
 3510TIP3    H232022   1.091   6.228   6.222 -1.8663 -1.0434 -1.7009
 3511TIP3   OH232023   1.979   6.520  16.055  0.8219 -0.0448  0.0685
 3511TIP3    H132024   1.936   6.591  16.006 -0.8299 -1.2486 -0.3070
 3511TIP3    H232025   2.022   6.468  15.988  2.0134  0.5538  0.3443
 3512TIP3   OH232026   0.912   5.978   1.201 -0.3587 -0.0839  0.2647
 3512TIP3    H132027   0.899   5.997   1.294  0.3049  1.0621  0.1434
 3512TIP3    H232028   0.898   6.062   1.157 -0.7214 -0.6263 -0.6859
 3513TIP3   OH232029   2.239   1.784   6.518 -0.5256 -0.7254  0.4940
 3513TIP3    H132030   2.235   1.727   6.441  1.0861 -0.6205  0.2890
 3513TIP3    H232031   2.199   1.866   6.490  0.9286 -0.3404 -0.6007
 3514TIP3   OH232032   0.161   4.124  16.102 -0.2245 -0.2508 -0.2065
 3514TIP3    H132033   0.175   4.186  16.174  2.7394 -0.6137 -0.3471
 3514TIP3    H232034   0.098   4.061  16.137  0.7856 -0.1531  1.9108
 3515TIP3   OH232035   0.155   2.586   0.265 -0.0096  0.2564 -0.5860
 3515TIP3    H132036   0.066   2.585   0.231 -0.8714  0.8742  1.4907
 3515TIP3    H232037   0.205   2.637   0.202 -0.8473 -0.9621 -2.3165
 3516TIP3   OH232038   0.084   5.875   0.048 -0.0626  0.3049  0.1418
 3516TIP3    H132039   0.143   5.949   0.043  2.2236 -1.4241  0.1281
 3516TIP3    H232040   0.067   5.851  -0.043 -0.6970  0.6772  0.1498
 3517TIP3   OH232041   1.323   2.461  16.111  0.0712  0.0026  0.2168
 3517TIP3    H132042   1.234   2.428  16.102  0.5966 -1.1175 -1.4579
 3517TIP3    H232043   1.351   2.434  16.198 -0.6281 -1.2380  0.0724
 3518TIP3   OH232044   4.693   2.678   2.853 -0.1793  0.3735  0.1095
 3518TIP3    H132045   4.711   2.598   2.803 -1.5235 -0.1645  0.4362
 3518TIP3    H232046   4.608   2.662   2.894  0.8145  0.8263  2.5118
 3519TIP3   OH232047   0.262   3.828   0.310  0.5566 -0.0136  0.0496
 3519TIP3    H132048   0.268   3.923   0.321  0.1231 -0.0273  0.4408
 3519TIP3    H232049   0.326   3.793   0.372  1.5720  0.0508 -0.9361
 3520TIP3   OH232050   5.001   4.916  11.237  0.3784  0.4695  0.5453
 3520TIP3    H132051   5.078   4.858  11.240  0.2038  0.0277 -1.6582
 3520TIP3    H232052   5.035   4.997  11.199 -0.0068  0.6915  0.6775
 3521TIP3   OH232053   1.403   3.185   2.309 -0.2957  0.1133 -0.5093
 3521TIP3    H132054   1.482   3.224   2.273  0.5158 -0.2179  0.8327
 3521TIP3    H232055   1.342   3.259   2.318  0.1125  0.4989 -0.8644
 3522TIP3   OH232056   3.123   5.850  13.549 -0.3265 -0.4332  0.0620
 3522TIP3    H132057   3.126   5.782  13.616 -2.4151 -0.7973 -0.1549
 3522TIP3    H232058   3.122   5.803  13.466  1.1972 -0.0158 -0.2173
 3523TIP3   OH232059   4.962   5.156  14.906 -0.0591 -0.3380  0.3542
 3523TIP3    H132060   4.988   5.246  14.886 -0.7340 -0.2078  0.0495
 3523TIP3    H232061   5.045   5.108  14.911  0.2832  0.2135  0.1049
 3524TIP3   OH232062   2.199   6.825  12.743  0.5450 -0.3094 -0.1759
 3524TIP3    H132063   2.284   6.849  12.779  1.0082 -1.4568 -0.4759
 3524TIP3    H232064   2.173   6.747  12.792 -1.1510  0.9928  1.1114
 3525TIP3   OH232065   5.025   5.748  14.031 -0.3463 -0.0210  0.1093
 3525TIP3    H132066   4.998   5.729  13.941  0.0296 -4.7956  0.7271
 3525TIP3    H232067   4.942   5.750  14.080 -0.3958 -0.9421  0.0871
 3526TIP3   OH232068   3.907   1.710  15.059  0.2605  0.2411 -0.4105
 3526TIP3    H132069   3.977   1.761  15.017 -0.8108  1.1735 -1.1345
 3526TIP3    H232070   3.857   1.775  15.109  0.3210 -0.5339  0.6990
 3527TIP3   OH232071   0.730   1.976  14.789 -0.4543  0.1376 -0.3694
 3527TIP3    H132072   0.645   2.018  14.773 -0.2016  1.1464  0.7603
 3527TIP3    H232073   0.717   1.929  14.871  0.8451  2.7324  1.4800
 3528TIP3   OH232074   5.600   5.477   1.622 -0.7201  0.5318 -0.0890
 3528TIP3    H132075   5.578   5.437   1.538 -2.1498  0.3602  0.3431
 3528TIP3    H232076   5.581   5.409   1.686  0.9371  0.4434  0.3626
 3529TIP3   OH232077   1.438   4.309  12.500  0.4743 -0.3496 -0.1170
 3529TIP3    H132078   1.366   4.268  12.549  1.5572 -2.1638  0.0613
 3529TIP3    H232079   1.395   4.367  12.438 -0.9749  2.0524  2.8581
 3530TIP3   OH232080   2.484   0.640   0.022 -0.2983 -0.1056  0.0962
 3530TIP3    H132081   2.405   0.666  -0.026 -2.6106 -1.9912  2.5905
 3530TIP3    H232082   2.542   0.716   0.016 -1.7849  0.9550 -2.7592
 3531TIP3   OH232083   3.230   5.672  10.522  0.3267 -0.3143  0.3586
 3531TIP3    H132084   3.146   5.654  10.564 -1.7950  2.0714 -2.3823
 3531TIP3    H232085   3.228   5.620  10.442  2.0434 -1.0905  0.7864
 3532TIP3   OH232086   6.506   1.507   4.830 -0.1622 -0.4076 -0.5359
 3532TIP3    H132087   6.583   1.455   4.805 -0.0894 -0.3339 -0.4673
 3532TIP3    H232088   6.542   1.578   4.883 -0.3114 -0.5465 -0.2460
 3533TIP3   OH232089   3.567   1.759   3.714 -0.5437  0.2164 -0.4168
 3533TIP3    H132090   3.528   1.722   3.793  1.2976  3.3886  2.2343
 3533TIP3    H232091   3.661   1.765   3.734 -0.2149  2.3960 -2.2182
 3534TIP3   OH232092   1.278   0.285   6.580  0.6827  0.1383  0.0222
 3534TIP3    H132093   1.333   0.276   6.658 -0.0750 -1.1323  0.4544
 3534TIP3    H232094   1.192   0.251   6.608  0.5946 -1.0503 -1.5670
 3535TIP3   OH232095   6.364   0.942  14.775  0.0427 -0.2838  0.5120
 3535TIP3    H132096   6.381   0.929  14.869 -2.0363  1.1349  1.1452
 3535TIP3    H232097   6.360   1.037  14.764 -1.3595 -0.4517 -0.6710
 3536TIP3   OH232098   4.032   6.826   4.557  0.5203 -0.0269 -0.3861
 3536TIP3    H132099   4.039   6.746   4.506 -0.4752 -1.1814  1.1653
 3536TIP3    H232100   4.041   6.797   4.648  2.2244  1.9220  0.1400
 3537TIP3   OH232101   0.070   3.418   2.043  0.2058  0.4554  0.4619
 3537TIP3    H132102   0.004   3.486   2.045 -1.6470 -1.2327 -0.3002
 3537TIP3    H232103   0.152   3.465   2.026 -0.8427  2.5386  0.7981
 3538TIP3   OH232104   6.532   3.721   5.294 -0.6432 -0.0915 -0.4156
 3538TIP3    H132105   6.586   3.672   5.357 -1.4811 -0.4192  0.0616
 3538TIP3    H232106   6.487   3.654   5.244 -0.7546  0.1866 -0.6895
 3539TIP3   OH232107   6.232   0.214   2.943 -0.4840  0.2063  0.6482
 3539TIP3    H132108   6.219   0.192   3.035 -0.5271 -1.1926  0.3300
 3539TIP3    H232109   6.248   0.130   2.900  2.1974  1.0800 -0.2123
 3540TIP3   OH232110   2.143   3.116  14.012  0.3166 -0.4198  0.4148
 3540TIP3    H132111   2.102   3.077  13.935 -0.6901  0.4984  0.4666
 3540TIP3    H232112   2.134   3.048  14.080  1.2177 -1.2343 -0.2492
 3541TIP3   OH232113   0.894   3.184   1.609  0.0847  0.2072  0.4884
 3541TIP3    H132114   0.800   3.180   1.621 -0.2832 -0.3453 -2.0083
 3541TIP3    H232115   0.906   3.208   1.517  2.3884  0.4161  0.7669
 3542TIP3   OH232116   4.600   3.975  11.608 -0.2738  0.5955 -0.1095
 3542TIP3    H132117   4.649   4.056  11.591  1.4919 -0.1117  1.2836
 3542TIP3    H232118   4.647   3.933  11.680 -0.3119 -2.3287 -1.6426
 3543TIP3   OH232119   2.254   6.591  16.780 -0.0546  0.2241  0.2541
 3543TIP3    H132120   2.248   6.680  16.815 -0.4249 -0.0747  0.9740
 3543TIP3    H232121   2.167   6.555  16.791  0.2745 -0.4712  0.6363
 3544TIP3   OH232122   0.889   5.379  15.674  0.3562 -0.8795  0.1717
 3544TIP3    H132123   0.948   5.378  15.750  3.2621 -0.4945 -1.9453
 3544TIP3    H232124   0.832   5.454  15.689  1.4452 -0.2895  1.5705
 3545TIP3   OH232125   0.380   0.847  14.535 -0.6591 -0.4024  0.0069
 3545TIP3    H132126   0.434   0.785  14.584 -1.0152 -1.1672 -0.5384
 3545TIP3    H232127   0.367   0.921  14.595  1.3837  0.0313 -0.0253
 3546TIP3   OH232128   1.212   4.268  12.143  0.2801 -0.2496 -0.0363
 3546TIP3    H132129   1.117   4.257  12.152  0.1516 -0.8814 -1.7172
 3546TIP3    H232130   1.249   4.184  12.171  0.5912  0.7417  2.8897
 3547TIP3   OH232131   4.725   0.293   2.747 -0.3386  0.2756 -0.2960
 3547TIP3    H132132   4.729   0.373   2.694 -1.7948 -0.1666 -1.1147
 3547TIP3    H232133   4.686   0.228   2.690 -0.0634 -0.7835  0.6839
 3548TIP3   OH232134   6.615   0.085   3.884  0.6645 -0.0401 -0.5633
 3548TIP3    H132135   6.641   0.131   3.964  0.3474 -1.4053  0.3493
 3548TIP3    H232136   6.693   0.089   3.828  0.3956  2.2861 -0.8748
 3549TIP3   OH232137   3.035   3.111   4.364 -0.1522  0.3398 -0.3898
 3549TIP3    H132138   3.025   3.017   4.381 -1.6637  0.5226 -0.0690
 3549TIP3    H232139   2.995   3.153   4.440  1.0306  1.2535 -0.2619
 3550TIP3   OH232140   2.229   3.745   0.865 -0.3209 -0.8666 -0.4510
 3550TIP3    H132141   2.288   3.736   0.790  1.1470 -0.0147  0.5669
 3550TIP3    H232142   2.189   3.831   0.854  0.1931 -0.5737 -0.0624
 3551TIP3   OH232143   6.242   4.869   1.320 -0.1681 -0.2477 -0.3047
 3551TIP3    H132144   6.245   4.845   1.227  1.0539 -2.2957  0.1976
 3551TIP3    H232145   6.157   4.836   1.351  0.4484 -1.8329 -0.1930
 3552TIP3   OH232146   3.068   3.677  16.001  0.4389 -0.2412 -0.0766
 3552TIP3    H132147   2.992   3.628  15.973  1.6669 -2.3272  0.0380
 3552TIP3    H232148   3.133   3.610  16.023  1.4603  1.3926  2.2454
 3553TIP3   OH232149   4.277   4.995   3.696 -0.6811  0.3190 -0.1279
 3553TIP3    H132150   4.292   5.054   3.770  0.1856 -1.4516  1.1686
 3553TIP3    H232151   4.365   4.975   3.663 -1.0032  0.2167 -0.9447
 3554TIP3   OH232152   2.368   5.931   3.694 -0.2141 -0.1129  0.1850
 3554TIP3    H132153   2.410   5.844   3.696  1.8370  0.7707 -1.0132
 3554TIP3    H232154   2.430   5.986   3.646 -2.6189  1.4461 -1.3220
 3555TIP3   OH232155   4.069   3.968   2.639 -0.0681 -0.1811 -0.1528
 3555TIP3    H132156   4.120   3.972   2.558 -0.4421  0.4119 -0.3644
 3555TIP3    H232157   4.080   3.878   2.670 -0.6574 -0.6917 -1.3432
 3556TIP3   OH232158   3.262   2.281   5.733  0.2529 -0.0972  0.0366
 3556TIP3    H132159   3.185   2.338   5.728  0.8125  0.8847  1.5568
 3556TIP3    H232160   3.308   2.295   5.651  0.4798  1.8791  0.4492
 3557TIP3   OH232161   1.024   5.073  13.334  0.2364 -0.1830  0.1366
 3557TIP3    H132162   0.934   5.099  13.316 -0.3954 -3.3682 -2.2509
 3557TIP3    H232163   1.076   5.122  13.269  0.0778  0.5443  0.5421
 3558TIP3   OH232164   6.443   6.244   5.159  0.1935 -0.8354 -0.6108
 3558TIP3    H132165   6.440   6.224   5.253 -2.1574 -0.6247 -0.5939
 3558TIP3    H232166   6.482   6.331   5.155  0.7434 -1.0330  0.1088
 3559TIP3   OH232167   3.447   4.570  16.053  0.4472 -0.5137 -0.1599
 3559TIP3    H132168   3.394   4.571  16.132 -0.7827  1.6941 -0.9202
 3559TIP3    H232169   3.385   4.552  15.982  0.5293  2.2582 -1.0848
 3560TIP3   OH232170   3.531   5.912   3.697 -0.0086 -0.1651  0.6721
 3560TIP3    H132171   3.574   5.986   3.653  0.3656 -0.2624  0.8730
 3560TIP3    H232172   3.469   5.880   3.632  0.8666 -0.6062  0.0242
 3561TIP3   OH232173   4.033   6.403   5.555 -0.1475  0.2748  0.5835
 3561TIP3    H132174   4.055   6.310   5.563  2.2256  0.8608  1.8529
 3561TIP3    H232175   4.062   6.427   5.467 -0.8943 -0.1949  0.2017
 3562TIP3   OH232176   6.801   1.757   5.624 -0.7303  0.1701  0.3410
 3562TIP3    H132177   6.726   1.790   5.574  0.9043 -0.0764 -2.4872
 3562TIP3    H232178   6.829   1.832   5.677 -1.4518  1.0633 -0.4928
 3563TIP3   OH232179   4.651   1.345   4.651  0.3775  0.3419 -0.3650
 3563TIP3    H132180   4.639   1.413   4.717  1.7395  0.8760 -0.6374
 3563TIP3    H232181   4.562   1.311   4.635 -0.1138  0.9991  0.8731
 3564TIP3   OH232182   0.032   1.588  16.543 -0.2957 -0.3604 -0.6226
 3564TIP3    H132183   0.078   1.614  16.623  2.0425  0.1003 -2.0062
 3564TIP3    H232184  -0.054   1.628  16.550  0.0667  0.1695  1.3734
 3565TIP3   OH232185   4.131   4.696  16.655 -0.6699  0.0348  0.6120
 3565TIP3    H132186   4.178   4.779  16.661  0.3667 -0.4860  0.0290
 3565TIP3    H232187   4.133   4.660  16.744 -0.4099  0.2638  0.6988
 3566TIP3   OH232188   3.286   0.569   5.204 -0.0086 -0.0384 -0.5423
 3566TIP3    H132189   3.216   0.552   5.141 -0.6213  0.3144  0.0444
 3566TIP3    H232190   3.366   0.563   5.152 -0.4873 -0.1460 -1.2775
 3567TIP3   OH232191   3.158   4.524   3.560  0.4498 -0.3186  0.6818
 3567TIP3    H132192   3.223   4.545   3.492 -0.1344 -0.1659  0.1630
 3567TIP3    H232193   3.210   4.514   3.640  1.0059  0.8034  0.4839
 3568TIP3   OH232194   5.816   1.221  15.189  0.4142 -0.1126 -0.1192
 3568TIP3    H132195   5.763   1.283  15.139  0.6768  0.4189  0.2608
 3568TIP3    H232196   5.757   1.187  15.256  0.6422  0.7516  0.5352
 3569TIP3   OH232197   6.844   0.537   0.431  0.5456 -0.0604 -0.1236
 3569TIP3    H132198   6.820   0.566   0.343 -0.8748 -1.5190 -0.2672
 3569TIP3    H232199   6.814   0.608   0.488  1.0946  0.7060 -0.7759
 3570TIP3   OH232200   1.419   6.457   2.596 -0.4428  0.5517 -0.5488
 3570TIP3    H132201   1.342   6.401   2.589  0.2914 -0.5773  0.0111
 3570TIP3    H232202   1.486   6.413   2.543  0.4761  0.2744  0.7911
 3571TIP3   OH232203   0.931   2.546  13.684 -0.1361  0.1953  0.2466
 3571TIP3    H132204   0.957   2.604  13.756  3.0755 -2.0450  1.1395
 3571TIP3    H232205   0.962   2.460  13.711 -0.5704 -1.1043 -2.9790
 3572TIP3   OH232206   6.515   0.151  16.713 -0.5061  0.2091 -0.3184
 3572TIP3    H132207   6.523   0.239  16.676  2.1944  1.6392  3.1314
 3572TIP3    H232208   6.476   0.165  16.800  1.1152 -1.7974  0.8176
 3573TIP3   OH232209   4.512   6.651   1.741  0.2282 -0.1612 -0.4312
 3573TIP3    H132210   4.542   6.617   1.657 -0.4695  1.3027 -1.3057
 3573TIP3    H232211   4.429   6.606   1.757 -0.1879  0.3599 -1.0795
 3574TIP3   OH232212   3.402   6.362   3.323  0.7331  0.0960 -0.4545
 3574TIP3    H132213   3.440   6.348   3.410 -0.1380  0.5194  0.0014
 3574TIP3    H232214   3.438   6.291   3.270 -1.9770 -2.7902  1.2752
 3575TIP3   OH232215   5.113   0.314  16.890 -0.2888  0.0133  0.1228
 3575TIP3    H132216   5.179   0.348  16.950 -1.6122 -0.6000  2.0175
 3575TIP3    H232217   5.096   0.225  16.920 -2.1410  0.2369 -0.1081
 3576TIP3   OH232218   3.184   5.532  14.719  0.0807 -0.2585  0.0259
 3576TIP3    H132219   3.179   5.551  14.812 -1.6606 -0.1608 -0.0477
 3576TIP3    H232220   3.242   5.599  14.684 -1.0297  1.1364  0.7222
 3577TIP3   OH232221   2.584   6.454   6.321  0.3991 -0.4968  0.7186
 3577TIP3    H132222   2.600   6.530   6.266  0.4539 -1.2787 -0.3976
 3577TIP3    H232223   2.552   6.387   6.260 -1.6949 -0.7354  1.9800
 3578TIP3   OH232224   0.215   2.278  17.097  0.1877  0.7412 -0.1587
 3578TIP3    H132225   0.181   2.308  17.181  2.0136  1.7486  0.2618
 3578TIP3    H232226   0.158   2.320  17.032  0.1898  1.8524  0.5336
 3579TIP3   OH232227   6.210   2.637   2.853  0.1356  0.0615  0.6071
 3579TIP3    H132228   6.172   2.725   2.864  0.1731  0.4107 -1.6624
 3579TIP3    H232229   6.134   2.579   2.853 -0.0911  0.3444 -0.0069
 3580TIP3   OH232230   2.687   5.871   3.159 -0.6521  0.4079 -0.2906
 3580TIP3    H132231   2.649   5.801   3.212  0.3498 -1.2570 -1.7106
 3580TIP3    H232232   2.612   5.926   3.135 -1.7593 -1.1849 -0.6364
 3581TIP3   OH232233   3.577   5.928   3.220 -0.4214  0.0566 -0.6556
 3581TIP3    H132234   3.630   5.963   3.292 -0.9378  0.3618 -0.4249
 3581TIP3    H232235   3.640   5.915   3.149 -0.1683  1.1621 -0.6498
 3582TIP3   OH232236   0.878   0.522   2.799 -0.3050 -0.4286 -0.2358
 3582TIP3    H132237   0.937   0.496   2.870 -2.3119 -1.3142  1.2026
 3582TIP3    H232238   0.918   0.601   2.762  1.8771 -1.1190  0.4787
 3583TIP3   OH232239   4.296   2.522  15.324 -0.3041 -0.3279  0.3777
 3583TIP3    H132240   4.248   2.576  15.261  0.6054 -1.9117 -1.7840
 3583TIP3    H232241   4.309   2.438  15.279  0.6493 -1.4512  2.5928
 3584TIP3   OH232242   3.761   3.978   0.122 -0.0629 -0.9497  0.7175
 3584TIP3    H132243   3.815   3.926   0.063 -1.3240 -2.3295  0.7149
 3584TIP3    H232244   3.814   3.987   0.202  1.0330 -0.3556 -0.0484
 3585TIP3   OH232245   4.332   3.048  15.528  0.5320 -0.0772  0.1601
 3585TIP3    H132246   4.263   3.020  15.468  0.0241  0.2861  0.5589
 3585TIP3    H232247   4.409   3.061  15.472  0.2530 -0.4048 -0.3036
 3586TIP3   OH232248   1.099   4.306   5.402 -0.2146  0.6461 -0.1259
 3586TIP3    H132249   1.098   4.230   5.344 -1.1094  0.2414  0.4028
 3586TIP3    H232250   1.051   4.278   5.479 -1.3692  2.0456 -0.2948
 3587TIP3   OH232251   4.784   4.526  16.065  0.1434 -0.1195 -0.0630
 3587TIP3    H132252   4.771   4.433  16.043 -0.2892 -0.2177  0.5975
 3587TIP3    H232253   4.737   4.538  16.147 -2.6362  1.4363 -1.7181
 3588TIP3   OH232254   5.066   6.693  16.635 -0.0699  0.0690  0.5266
 3588TIP3    H132255   5.153   6.672  16.602 -0.7031 -1.6355 -0.1497
 3588TIP3    H232256   5.059   6.788  16.623  1.6717  0.2512  0.6030
 3589TIP3   OH232257   3.672   2.339   2.204 -0.5656 -0.0420  0.0119
 3589TIP3    H132258   3.599   2.279   2.222 -1.4455  0.9118 -0.2912
 3589TIP3    H232259   3.750   2.286   2.219 -1.2949 -0.7501  1.5521
 3590TIP3   OH232260   1.738   1.976  17.007  0.3954 -0.3736  0.7340
 3590TIP3    H132261   1.818   2.029  17.016  0.7016 -0.8298  0.7691
 3590TIP3    H232262   1.751   1.903  17.069  0.5169 -1.1257 -0.1495
 3591TIP3   OH232263   2.671   6.378  16.417  0.2727  0.0886 -0.1221
 3591TIP3    H132264   2.700   6.309  16.476 -0.9217 -2.0875 -1.9625
 3591TIP3    H232265   2.592   6.413  16.459  0.3930 -0.2400  0.3893
 3592TIP3   OH232266   4.313   6.198  11.464 -0.3412 -0.0549 -0.5054
 3592TIP3    H132267   4.279   6.109  11.455 -1.2540  0.0049  1.6504
 3592TIP3    H232268   4.331   6.226  11.375 -2.6018 -1.4159 -1.4865
 3593TIP3   OH232269   4.253   2.684   3.948 -0.1034 -0.0151 -0.2733
 3593TIP3    H132270   4.263   2.590   3.936  0.5017 -0.2447  1.6371
 3593TIP3    H232271   4.192   2.711   3.880  1.1719 -1.4471 -2.0702
 3594TIP3   OH232272   2.212   5.246  11.458  0.3856  0.3163  0.7078
 3594TIP3    H132273   2.184   5.220  11.545 -0.9701 -0.1026  0.1681
 3594TIP3    H232274   2.207   5.166  11.406  1.4352  0.4998  0.2926
 3595TIP3   OH232275   3.990   0.940  11.427  0.3663  0.2068 -1.0856
 3595TIP3    H132276   3.935   1.014  11.403  0.9161  1.2473  0.6905
 3595TIP3    H232277   3.999   0.889  11.346  1.3221  2.9359 -2.8249
 3596TIP3   OH232278   6.652   4.432   3.917 -0.8227 -0.7456 -0.1385
 3596TIP3    H132279   6.590   4.366   3.948  1.2723 -2.7573  0.0915
 3596TIP3    H232280   6.720   4.435   3.985  1.0205 -1.1346 -1.8675
 3597TIP3   OH232281   5.052   0.388  16.033 -0.0315  0.4414  0.6919
 3597TIP3    H132282   5.020   0.324  15.969 -0.4479 -0.1566  1.4863
 3597TIP3    H232283   5.017   0.472  16.001 -0.7398  0.0697  0.4597
 3598TIP3   OH232284   3.338   1.165  14.978 -0.5123  0.1371  0.4797
 3598TIP3    H132285   3.250   1.198  14.960 -0.2045  1.3463  1.0677
 3598TIP3    H232286   3.382   1.166  14.893 -0.1156  2.5603  0.6449
 3599TIP3   OH232287   3.475   5.034  14.535  0.2110  0.1473 -0.6611
 3599TIP3    H132288   3.556   4.995  14.502 -0.6494 -2.3864 -0.0220
 3599TIP3    H232289   3.455   4.984  14.615 -1.1070  1.8508  0.1482
 3600TIP3   OH232290   2.961   6.736   3.731  0.3810  0.1713 -0.5164
 3600TIP3    H132291   3.049   6.718   3.763  0.4102 -0.6692 -1.0661
 3600TIP3    H232292   2.928   6.804   3.791  1.0115 -0.2480  0.3288
 3601TIP3   OH232293   2.461   4.083   3.610  0.5076  0.1764 -0.1389
 3601TIP3    H132294   2.416   4.166   3.597 -0.3522  0.0622  1.7477
 3601TIP3    H232295   2.465   4.044   3.523 -0.1264  1.6518 -0.8661
 3602TIP3   OH232296   6.664   1.035   1.321 -0.1294  0.0123 -0.2571
 3602TIP3    H132297   6.659   0.940   1.311 -0.4231  0.0658 -0.6801
 3602TIP3    H232298   6.740   1.050   1.377 -1.4395 -0.5928  1.7897
 3603TIP3   OH232299   2.304   5.568  10.807  0.0977 -0.5844  0.6165
 3603TIP3    H132300   2.372   5.562  10.873 -0.5773 -0.6033  1.3251
 3603TIP3    H232301   2.348   5.550  10.724  0.8032 -1.3149  1.1417
 3604TIP3   OH232302   2.798   3.223  14.908  0.0522  0.5575  1.0796
 3604TIP3    H132303   2.754   3.214  14.993 -0.6234  0.9048  0.7734
 3604TIP3    H232304   2.887   3.250  14.930  0.3373 -0.7870  1.7492
 3605TIP3   OH232305   4.849   5.756  13.051 -0.6094 -0.8721 -0.7927
 3605TIP3    H132306   4.840   5.770  12.957 -0.2013 -0.4376 -0.7637
 3605TIP3    H232307   4.850   5.660  13.060 -2.0320 -0.9393 -1.0987
 3606TIP3   OH232308   1.173   0.112   2.071 -0.0867 -0.1177  0.0486
 3606TIP3    H132309   1.243   0.074   2.017 -0.9510 -0.4294 -0.8779
 3606TIP3    H232310   1.220   0.153   2.144  0.9838 -1.4443  0.1597
 3607TIP3   OH232311   2.344   4.840  10.611  0.3129  0.0711 -0.1998
 3607TIP3    H132312   2.300   4.924  10.598  1.3691  0.4493 -1.4270
 3607TIP3    H232313   2.353   4.803  10.524 -1.1746 -1.9162  0.3844
 3608TIP3   OH232314   1.223   0.140   2.760 -0.0939  0.9160  0.1057
 3608TIP3    H132315   1.156   0.072   2.760 -0.4450  1.1002 -2.9179
 3608TIP3    H232316   1.304   0.095   2.784 -0.8020  0.0766  0.9858
 3609TIP3   OH232317   0.116   5.852  15.786 -0.4981 -0.6362  0.0628
 3609TIP3    H132318   0.199   5.807  15.801 -1.6911 -3.1726 -0.2881
 3609TIP3    H232319   0.063   5.830  15.863 -0.4965  2.0128  0.9135
 3610TIP3   OH232320   5.501   4.703  12.461 -0.3887 -0.3144  0.0043
 3610TIP3    H132321   5.451   4.689  12.381 -0.2411 -0.4532 -0.0644
 3610TIP3    H232322   5.560   4.628  12.466  0.6809  0.4747 -0.5659
 3611TIP3   OH232323   4.339   1.947  13.988  0.4008  0.0421 -0.6641
 3611TIP3    H132324   4.410   1.931  14.050 -0.9230 -0.3433  0.8027
 3611TIP3    H232325   4.298   2.029  14.018  1.0350  1.0238 -2.3154
 3612TIP3   OH232326   5.775   4.776  10.822  0.4615 -0.2420 -0.7003
 3612TIP3    H132327   5.764   4.731  10.738  0.5709  1.1496 -1.4858
 3612TIP3    H232328   5.866   4.758  10.847  1.1833  1.2844 -2.0923
 3613TIP3   OH232329   0.076   6.041  10.725  0.2184 -0.4023 -0.2953
 3613TIP3    H132330   0.030   6.124  10.717 -0.6457 -0.5041  2.3544
 3613TIP3    H232331   0.159   6.055  10.681  0.0594  1.8504 -0.0142
 3614TIP3   OH232332   0.082   1.692  16.036  0.4551  0.5372  0.3400
 3614TIP3    H132333  -0.007   1.712  16.066  0.4447  0.8700  0.0929
 3614TIP3    H232334   0.072   1.671  15.943  0.8032  1.8971 -0.0248
 3615TIP3   OH232335   0.812   5.678   4.309 -0.7976  0.1178 -0.0169
 3615TIP3    H132336   0.894   5.648   4.348  0.1284 -0.0528 -1.9695
 3615TIP3    H232337   0.831   5.684   4.215 -2.0530  3.1236 -0.1960
 3616TIP3   OH232338   6.419   3.083  13.656  0.2127  0.2781 -0.2790
 3616TIP3    H132339   6.369   3.073  13.575  0.3195 -0.2964 -0.2761
 3616TIP3    H232340   6.375   3.155  13.703  0.0153  0.4605 -0.7388
 3617TIP3   OH232341   5.270   3.536   3.704 -0.4604 -0.0931 -0.3441
 3617TIP3    H132342   5.286   3.509   3.794 -0.2970 -1.6722 -0.8164
 3617TIP3    H232343   5.335   3.604   3.687  0.9375 -1.2675  0.0826
 3618TIP3   OH232344   3.232   6.368  12.273  0.1121 -0.3053 -0.1376
 3618TIP3    H132345   3.325   6.377  12.251  0.6722 -1.1029  1.6987
 3618TIP3    H232346   3.187   6.379  12.190  2.0690 -3.5802 -1.8386
 3619TIP3   OH232347   0.224   6.213  14.162 -0.7966 -0.3730  0.8778
 3619TIP3    H132348   0.223   6.252  14.250 -0.7399  3.3806 -0.6002
 3619TIP3    H232349   0.300   6.253  14.119 -2.2758 -0.0424 -1.6451
 3620TIP3   OH232350   1.936   6.076   1.696  0.0522 -0.5518 -0.4727
 3620TIP3    H132351   1.856   6.054   1.742 -1.3055 -0.5804 -2.6912
 3620TIP3    H232352   2.000   6.011   1.726 -0.5389 -0.1854  1.7457
 3621TIP3   OH232353   3.316   5.372   4.833  0.5449 -0.2701  0.3258
 3621TIP3    H132354   3.243   5.332   4.784 -0.3872 -0.4836  1.8128
 3621TIP3    H232355   3.336   5.452   4.785 -1.3654  0.3109  0.4173
 3622TIP3   OH232356   6.276   2.563  15.912  0.0298  0.7519  0.4738
 3622TIP3    H132357   6.293   2.470  15.923 -1.8751 -0.0438 -2.3794
 3622TIP3    H232358   6.318   2.586  15.830  0.0333  2.3256  0.8759
 3623TIP3   OH232359   6.782   3.409  13.836 -0.9126  0.0253  0.0532
 3623TIP3    H132360   6.694   3.439  13.813 -0.3236  0.9567 -1.1210
 3623TIP3    H232361   6.807   3.465  13.909  0.2399  2.7760 -2.2154
 3624TIP3   OH232362   3.695   1.310  11.564 -0.9136  0.0308  0.2307
 3624TIP3    H132363   3.653   1.267  11.638 -1.1739 -0.2788 -0.0905
 3624TIP3    H232364   3.623   1.343  11.511 -0.7798 -0.8132 -0.5072
 3625TIP3   OH232365   2.656   1.286   6.324  0.0911  0.1536 -0.1885
 3625TIP3    H132366   2.579   1.233   6.346  0.0430 -0.3200 -1.4198
 3625TIP3    H232367   2.621   1.358   6.272  0.5291 -0.3724 -1.2322
 3626TIP3   OH232368   3.056   3.761   5.050  0.1566 -0.1676 -0.4058
 3626TIP3    H132369   2.974   3.781   5.003 -0.9553  0.8379  1.8055
 3626TIP3    H232370   3.122   3.754   4.981 -1.7663 -0.9382 -2.2656
 3627TIP3   OH232371   1.610   0.997   2.804 -0.4281  0.1417  0.2258
 3627TIP3    H132372   1.673   1.063   2.772  0.2109 -0.5897 -0.0640
 3627TIP3    H232373   1.530   1.047   2.821 -0.6422  0.6809 -1.9952
 3628TIP3   OH232374   2.492   5.406   6.547  0.2193 -0.1734 -0.4009
 3628TIP3    H132375   2.482   5.436   6.637  2.1805 -0.0707 -0.1639
 3628TIP3    H232376   2.568   5.454   6.514 -1.6948  1.4459 -2.8868
 3629TIP3   OH232377   0.987   6.043  10.611 -0.3279  0.0068  0.5859
 3629TIP3    H132378   1.050   6.040  10.683 -0.8218  0.3475  1.0368
 3629TIP3    H232379   0.995   6.132  10.575  1.0377 -0.6287 -0.8107
 3630TIP3   OH232380   5.161   4.123   5.005 -0.4440 -0.3169 -0.4286
 3630TIP3    H132381   5.095   4.190   5.027 -0.8772 -0.7110 -0.5068
 3630TIP3    H232382   5.136   4.093   4.918  0.8665  0.7482 -1.1916
 3631TIP3   OH232383   2.054   5.523   2.834  0.1509 -0.3963  0.2043
 3631TIP3    H132384   2.075   5.542   2.926 -1.4820 -1.5001  0.8531
 3631TIP3    H232385   2.020   5.433   2.835 -0.7332 -0.1189 -1.3443
 3632TIP3   OH232386   3.266   5.895   4.366  0.4362  0.0175 -0.0552
 3632TIP3    H132387   3.312   5.924   4.287 -0.8622  1.6970 -0.2418
 3632TIP3    H232388   3.255   5.801   4.353  0.2366  0.2563 -1.8915
 3633TIP3   OH232389   0.474   4.653  10.771 -0.2238  0.4935 -0.0411
 3633TIP3    H132390   0.459   4.589  10.841  0.2127 -0.6111 -0.9279
 3633TIP3    H232391   0.493   4.600  10.694  0.6054  1.7040 -0.7000
 3634TIP3   OH232392   3.647   5.533   0.242  0.5253  0.9499 -0.5692
 3634TIP3    H132393   3.735   5.545   0.280  1.1524 -1.1050 -1.2536
 3634TIP3    H232394   3.652   5.450   0.195 -1.9188  0.6112 -0.3499
 3635TIP3   OH232395   1.171   3.732   2.310 -0.0409  0.7841 -0.1757
 3635TIP3    H132396   1.168   3.702   2.401  0.7939  1.4644  0.0981
 3635TIP3    H232397   1.240   3.798   2.310  0.0706  0.6835 -1.3427
 3636TIP3   OH232398   3.333   1.294   2.627 -0.1135 -0.1453  0.0335
 3636TIP3    H132399   3.304   1.377   2.664 -1.7721 -1.2674  1.3973
 3636TIP3    H232400   3.294   1.227   2.683  2.3710 -1.8717 -0.1155
 3637TIP3   OH232401   1.626   4.366   5.969  0.3671  0.8336  0.4218
 3637TIP3    H132402   1.677   4.301   5.922  0.6654  0.6615  0.9798
 3637TIP3    H232403   1.541   4.324   5.986 -0.4005  1.5015 -1.4730
 3638TIP3   OH232404   0.905   3.858   5.910 -0.3823  0.0664  0.2386
 3638TIP3    H132405   0.971   3.908   5.863 -0.6464 -0.7454 -1.0444
 3638TIP3    H232406   0.821   3.888   5.874 -0.5533 -1.1329 -0.4439
 3639TIP3   OH232407   2.810   3.586  12.656 -0.1308  0.3531  1.1302
 3639TIP3    H132408   2.798   3.672  12.616  0.0966 -0.3434 -0.5399
 3639TIP3    H232409   2.823   3.527  12.582 -0.9965 -1.2464  2.1818
 3640TIP3   OH232410   1.709   3.731  16.239  0.2607 -0.1305  0.3428
 3640TIP3    H132411   1.640   3.717  16.304  0.5631  0.7964  0.8837
 3640TIP3    H232412   1.679   3.805  16.187 -1.0970 -2.2793 -2.1715
 3641TIP3   OH232413   1.181   5.627  15.093 -0.1653 -0.2218 -0.5442
 3641TIP3    H132414   1.132   5.600  15.171 -0.4573  0.2894 -0.5418
 3641TIP3    H232415   1.115   5.629  15.023 -0.3058  1.0788 -0.4068
 3642TIP3   OH232416   5.962   4.993   0.309  0.2553 -0.6312 -0.1758
 3642TIP3    H132417   6.006   4.950   0.383 -0.5001  0.6374  1.0505
 3642TIP3    H232418   5.891   5.043   0.349 -0.3445 -0.1201 -1.8044
 3643TIP3   OH232419   5.616   0.914   0.589 -0.2820 -0.2745 -0.1845
 3643TIP3    H132420   5.554   0.878   0.525 -1.2845 -1.2085  1.2521
 3643TIP3    H232421   5.699   0.872   0.569  0.0875  1.3469 -2.4504
 3644TIP3   OH232422   0.563   0.340  16.643  0.5496  0.6195  0.0989
 3644TIP3    H132423   0.620   0.320  16.717  0.7319 -0.8248 -0.3983
 3644TIP3    H232424   0.623   0.350  16.569  0.2052 -0.9135 -0.4267
 3645TIP3   OH232425   4.267   4.224   2.659  0.0284  0.2570 -0.0533
 3645TIP3    H132426   4.330   4.196   2.726  0.3113 -2.4355 -1.3111
 3645TIP3    H232427   4.182   4.219   2.703  0.3393 -0.0194  0.5261
 3646TIP3   OH232428   2.235   0.690   4.826 -0.2958  0.8956 -0.2347
 3646TIP3    H132429   2.268   0.772   4.862  0.9403 -0.1251  1.1101
 3646TIP3    H232430   2.311   0.651   4.782  0.2290 -1.1346  2.2180
 3647TIP3   OH232431   4.182   4.994  14.685  0.0965  0.7762  0.3153
 3647TIP3    H132432   4.205   5.013  14.776  0.4287 -1.3914  0.7490
 3647TIP3    H232433   4.263   4.960  14.647 -0.7176 -0.9436  0.0244
 3648TIP3   OH232434   0.025   6.299   3.907 -0.6714  0.4503 -0.0752
 3648TIP3    H132435   0.055   6.265   3.823 -0.7911 -0.1353  0.1161
 3648TIP3    H232436  -0.067   6.323   3.892 -0.9893 -0.5997  0.1574
 3649TIP3   OH232437   0.791   2.972  15.819 -0.2406 -0.1557  0.3996
 3649TIP3    H132438   0.769   2.886  15.854  1.7779 -1.2923 -0.8977
 3649TIP3    H232439   0.714   2.999  15.769 -0.3788 -1.9086 -0.3865
 3650TIP3   OH232440   6.219   0.747   2.851 -0.6750  0.1742  0.2676
 3650TIP3    H132441   6.253   0.757   2.940  0.2658  2.0325 -0.2416
 3650TIP3    H232442   6.265   0.671   2.816  0.4013  0.5785  0.7565
 3651TIP3   OH232443   2.415   0.270  16.857 -0.2802  0.1097  0.7523
 3651TIP3    H132444   2.463   0.216  16.919  2.0647 -0.1911 -1.1897
 3651TIP3    H232445   2.468   0.349  16.847 -0.7800  0.3009 -0.6021
 3652TIP3   OH232446   0.349   6.039  12.939  0.2859 -0.1628  0.0221
 3652TIP3    H132447   0.306   5.971  12.887  0.1650 -0.4856  0.5321
 3652TIP3    H232448   0.342   6.118  12.886  1.4588 -0.7766 -1.1196
 3653TIP3   OH232449   3.003   5.440   0.141  0.0810 -0.2835 -0.7164
 3653TIP3    H132450   2.915   5.476   0.156 -0.0953 -0.5857 -1.0106
 3653TIP3    H232451   3.060   5.517   0.135  0.2002 -0.1244  1.6206
 3654TIP3   OH232452   6.008   1.463  10.921  0.2849 -0.7379  0.2909
 3654TIP3    H132453   6.042   1.409  10.850  0.7592  0.1184 -0.1428
 3654TIP3    H232454   5.928   1.418  10.948 -1.9974  0.7883 -3.2356
 3655TIP3   OH232455   2.523   1.446   6.131  0.5962 -0.7144 -0.1512
 3655TIP3    H132456   2.558   1.432   6.044 -1.0533  0.0303 -0.9769
 3655TIP3    H232457   2.428   1.452   6.119  0.2699 -1.1357  1.7630
 3656TIP3   OH232458   0.368   2.986  11.363  0.1256 -0.0874 -0.2613
 3656TIP3    H132459   0.391   3.048  11.293 -0.0243 -0.3625 -0.5559
 3656TIP3    H232460   0.278   3.009  11.387 -0.6451 -1.4187 -1.7120
 3657TIP3   OH232461   0.612   3.365   1.275 -0.4046 -0.0687 -0.1028
 3657TIP3    H132462   0.564   3.446   1.287 -1.2615 -0.6984  0.8879
 3657TIP3    H232463   0.549   3.296   1.295 -0.2824 -1.0953 -2.7907
 3658TIP3   OH232464   1.946   2.997  12.387  0.3747  0.0273  0.0068
 3658TIP3    H132465   1.977   3.088  12.384  1.6112 -0.3973 -1.7619
 3658TIP3    H232466   1.961   2.970  12.478 -1.5365  2.0376  1.0346
 3659TIP3   OH232467   5.479   5.084   1.425  0.3426 -0.0850 -0.4107
 3659TIP3    H132468   5.427   5.162   1.442  1.6969  0.6562  0.5819
 3659TIP3    H232469   5.440   5.045   1.346 -0.6471  1.3294 -0.6548
 3660TIP3   OH232470   3.491   1.812  12.881  0.1266 -0.1854 -0.0437
 3660TIP3    H132471   3.409   1.780  12.919 -0.4012  0.6656 -0.4209
 3660TIP3    H232472   3.479   1.802  12.787  0.5834 -0.3360 -0.0860
 3661TIP3   OH232473   2.757   5.426   6.474 -0.6886  0.2062 -0.4159
 3661TIP3    H132474   2.832   5.368   6.488  0.5469  2.2354  2.4636
 3661TIP3    H232475   2.792   5.498   6.422 -1.9722 -1.0375 -3.1675
 3662TIP3   OH232476   2.798   4.393  11.812 -0.0726  0.3989  0.3870
 3662TIP3    H132477   2.726   4.432  11.862 -1.0872 -1.1439  0.1903
 3662TIP3    H232478   2.794   4.437  11.727 -1.1318 -0.0389  0.2009
 3663TIP3   OH232479   5.017   5.976  13.385 -0.5269 -0.7263  0.6673
 3663TIP3    H132480   5.038   5.943  13.298 -1.2885 -1.5106  0.7617
 3663TIP3    H232481   4.959   6.051  13.369 -0.6124 -0.8292  0.4908
 3664TIP3   OH232482   1.401   2.867   4.451 -0.4186 -0.4548  0.3111
 3664TIP3    H132483   1.492   2.878   4.478 -0.8044 -1.6730  2.4398
 3664TIP3    H232484   1.351   2.915   4.517 -1.3570 -1.3331  0.2713
 3665TIP3   OH232485   1.755   6.332  12.055  0.2449 -1.0024 -0.7606
 3665TIP3    H132486   1.810   6.283  11.995  1.4782 -0.4882 -0.0783
 3665TIP3    H232487   1.815   6.368  12.120 -1.0186 -1.3446  0.6674
 3666TIP3   OH232488   3.504   6.576  15.412  0.5689  0.6315  0.0008
 3666TIP3    H132489   3.493   6.600  15.504  1.3145 -1.0688  0.5611
 3666TIP3    H232490   3.571   6.637  15.379  0.3094  1.2342  0.5674
 3667TIP3   OH232491   4.028   1.019   3.839 -0.2343  0.1353 -0.3858
 3667TIP3    H132492   3.934   1.016   3.825 -0.1117 -1.9019 -1.0270
 3667TIP3    H232493   4.049   1.113   3.842 -2.3083  0.6178  0.1377
 3668TIP3   OH232494   0.129   4.843   2.291  0.3629  0.0066 -0.6508
 3668TIP3    H132495   0.100   4.931   2.315  2.1894  0.4166  0.2751
 3668TIP3    H232496   0.070   4.785   2.338 -1.4235  0.6878 -1.9581
 3669TIP3   OH232497   6.619   4.674  16.735 -0.4605  0.0533  0.4331
 3669TIP3    H132498   6.663   4.626  16.806 -0.4005 -1.4916 -0.5969
 3669TIP3    H232499   6.640   4.766  16.752 -0.8175 -0.2059  2.6667
 3670TIP3   OH232500   2.246   2.767   1.092 -0.5140 -0.4914  0.3361
 3670TIP3    H132501   2.166   2.722   1.118 -1.7373  0.4287 -1.5968
 3670TIP3    H232502   2.266   2.733   1.005  0.6253  0.0420  0.3630
 3671TIP3   OH232503   2.236   5.554   3.945  0.1476 -0.3224  0.3028
 3671TIP3    H132504   2.276   5.636   3.974  0.7014  0.1019 -1.5176
 3671TIP3    H232505   2.235   5.499   4.023 -1.8583  1.9726  2.0854
 3672TIP3   OH232506   4.498   1.211  13.526 -0.5913  0.0353 -0.1220
 3672TIP3    H132507   4.404   1.206  13.511 -0.4493  0.2722 -1.1714
 3672TIP3    H232508   4.537   1.199  13.440  0.3603 -0.5030  0.3677
 3673TIP3   OH232509   3.075   1.195   6.825 -0.0264 -0.1182  0.9144
 3673TIP3    H132510   3.039   1.247   6.753  0.0230 -0.0528  0.9372
 3673TIP3    H232511   3.095   1.110   6.785 -0.3551 -0.2059  0.9378
 3674TIP3   OH232512   2.664   5.440  14.115 -0.2954  1.0742 -0.0259
 3674TIP3    H132513   2.693   5.481  14.196  1.6706 -1.0741  0.4721
 3674TIP3    H232514   2.569   5.440  14.121 -0.2323 -0.2785  3.0495
 3675TIP3   OH232515   3.227   3.455  11.104  0.4945 -0.0436  0.5301
 3675TIP3    H132516   3.235   3.418  11.016 -3.5601 -0.2876  0.0890
 3675TIP3    H232517   3.270   3.390  11.161  1.5609 -0.8009 -1.0499
 3676TIP3   OH232518   2.068   2.592  16.426 -0.0339  0.0930 -0.0032
 3676TIP3    H132519   2.001   2.552  16.371 -0.0134  1.1339 -0.8166
 3676TIP3    H232520   2.024   2.665  16.469  0.2317 -0.0662  0.5611
 3677TIP3   OH232521   0.762   5.824   3.990  0.2666  0.1122 -0.2503
 3677TIP3    H132522   0.714   5.879   3.927 -0.4964 -1.8162 -1.4422
 3677TIP3    H232523   0.852   5.857   3.986 -0.3841  2.0717  0.0306
 3678TIP3   OH232524   4.080   0.164   3.440 -0.1639  0.3429  0.4208
 3678TIP3    H132525   4.107   0.253   3.465  2.9746 -0.0155 -1.1497
 3678TIP3    H232526   4.007   0.178   3.379  0.4179  1.8956  0.0103
 3679TIP3   OH232527   6.315   2.222   5.422 -0.1297  0.0830 -0.7112
 3679TIP3    H132528   6.337   2.155   5.358  1.9670 -0.7666  0.7635
 3679TIP3    H232529   6.271   2.175   5.492  1.5954  0.1083  0.4621
 3680TIP3   OH232530   4.640   4.679   5.528 -0.1104  0.3212 -0.7163
 3680TIP3    H132531   4.722   4.629   5.524  0.5369  1.4385 -3.3981
 3680TIP3    H232532   4.577   4.625   5.480 -0.4786  0.3040 -0.2230
 3681TIP3   OH232533   1.074   5.098   4.634 -0.3276 -0.6140  0.0184
 3681TIP3    H132534   1.131   5.159   4.588 -2.4791  0.0562 -1.9974
 3681TIP3    H232535   1.118   5.013   4.625  0.6063 -0.0542 -0.9988
 3682TIP3   OH232536   4.018   1.315  12.243  0.2536  0.1654  0.6705
 3682TIP3    H132537   3.952   1.361  12.193  0.4948  0.6530  0.7972
 3682TIP3    H232538   4.089   1.297  12.181 -0.7113 -1.9145  0.0816
 3683TIP3   OH232539   1.437   5.885  11.204 -0.0940 -0.2550 -0.6829
 3683TIP3    H132540   1.363   5.939  11.175 -0.9280 -1.4863 -0.8773
 3683TIP3    H232541   1.498   5.888  11.130 -1.3340 -1.7543 -1.8281
 3684TIP3   OH232542   0.693   5.795   2.774 -0.3051 -0.7317  0.3029
 3684TIP3    H132543   0.613   5.796   2.827 -0.7035 -0.5603 -0.2827
 3684TIP3    H232544   0.703   5.704   2.748 -0.8168 -0.6119 -0.3510
 3685TIP3   OH232545   5.206   2.438   2.557 -0.2156 -0.0359 -0.0316
 3685TIP3    H132546   5.266   2.364   2.549 -3.5914 -2.8521 -1.5063
 3685TIP3    H232547   5.182   2.460   2.467 -2.7046 -0.2275  0.5080
 3686TIP3   OH232548   6.260   0.594  13.295 -0.3413 -0.3693  0.3117
 3686TIP3    H132549   6.198   0.599  13.222 -0.3009 -1.0422  0.2250
 3686TIP3    H232550   6.329   0.657  13.272 -0.8753  0.2219  0.3013
 3687TIP3   OH232551   3.695   6.527   2.769  0.0987  0.2043  0.0753
 3687TIP3    H132552   3.720   6.588   2.699  0.3855 -0.1449 -0.1265
 3687TIP3    H232553   3.698   6.580   2.849 -0.2877  0.6228 -0.1756
 3688TIP3   OH232554   3.322   0.367  13.503  0.1418  0.0370  0.3019
 3688TIP3    H132555   3.276   0.451  13.502 -0.0971 -0.0949 -0.2339
 3688TIP3    H232556   3.412   0.389  13.529  0.4160  0.6400 -1.0438
 3689TIP3   OH232557   2.494   4.374   2.380  0.5044  0.1080  0.0182
 3689TIP3    H132558   2.569   4.421   2.416  0.5018 -0.2637  0.5116
 3689TIP3    H232559   2.500   4.388   2.285  1.1153  0.1975  0.0677
 3690TIP3   OH232560   4.539   6.219  12.851  0.2010 -0.5446 -0.0354
 3690TIP3    H132561   4.542   6.209  12.946 -1.2620 -2.0643 -0.0945
 3690TIP3    H232562   4.492   6.301  12.837  1.0731  0.0710  0.5250
 3691TIP3   OH232563   2.066   4.068  10.465 -0.6159  0.8363  0.0352
 3691TIP3    H132564   2.099   3.991  10.419  0.4618  1.8466 -0.9489
 3691TIP3    H232565   2.144   4.114  10.495 -1.2745  0.8494  1.8575
 3692TIP3   OH232566   0.944   0.517   0.090 -0.1018  0.0024  0.4299
 3692TIP3    H132567   0.984   0.430   0.091  0.8046  0.4002  0.6454
 3692TIP3    H232568   0.974   0.557   0.172 -0.7217  0.4248  0.4556
 3693TIP3   OH232569   1.567   6.661   5.555 -0.9748  0.6183 -0.2945
 3693TIP3    H132570   1.636   6.650   5.621 -0.8851  1.5251 -0.2298
 3693TIP3    H232571   1.523   6.743   5.580 -0.6856  1.1847 -1.5932
 3694TIP3   OH232572   0.449   5.993   4.181  0.8133  0.1394  0.0897
 3694TIP3    H132573   0.443   5.972   4.088 -0.2384  0.9654 -0.0504
 3694TIP3    H232574   0.372   5.952   4.220  0.9283  0.2965  0.4855
 3695TIP3   OH232575   4.537   3.687  15.044 -0.3204  0.2282 -0.1591
 3695TIP3    H132576   4.512   3.657  14.957 -1.1090  3.7490 -1.2687
 3695TIP3    H232577   4.633   3.679  15.046 -0.3916 -1.1820 -0.7342
 3696TIP3   OH232578   2.040   2.314  11.412  0.1985 -0.6337 -0.4265
 3696TIP3    H132579   2.033   2.355  11.498 -0.8075  0.0653 -0.8224
 3696TIP3    H232580   1.993   2.231  11.420 -1.2074  0.1066 -0.6848
 3697TIP3   OH232581   3.446   1.966   6.250  0.1628  0.3476  0.0981
 3697TIP3    H132582   3.490   2.031   6.305  1.0545  1.3317 -1.6931
 3697TIP3    H232583   3.515   1.905   6.226 -0.0846  0.2644 -0.4029
 3698TIP3   OH232584   4.113   5.764   5.214 -0.0784 -0.8561  0.3258
 3698TIP3    H132585   4.089   5.730   5.128 -1.2593  0.4368  0.1263
 3698TIP3    H232586   4.204   5.793   5.203 -0.6604  0.6377 -0.9369
 3699TIP3   OH232587   2.957   4.686   1.016  0.3914  0.1480 -0.1279
 3699TIP3    H132588   2.870   4.726   1.014  0.9873  1.4976 -0.4104
 3699TIP3    H232589   3.011   4.745   0.964  1.4607 -0.7363 -0.0511
 3700TIP3   OH232590   1.126   0.308   2.564 -0.6433  0.0216  0.2512
 3700TIP3    H132591   1.138   0.269   2.651 -1.4650 -0.1034  0.3143
 3700TIP3    H232592   1.132   0.235   2.503  0.1137  0.1351  0.1833
 3701TIP3   OH232593   3.760   5.388  15.978  0.0853  0.0839 -0.4413
 3701TIP3    H132594   3.826   5.349  15.921  1.0490  0.3654  0.4518
 3701TIP3    H232595   3.810   5.440  16.041 -1.0964  2.2582 -1.1859
 3702TIP3   OH232596   5.729   2.380   4.133 -0.0334 -0.1748 -0.4143
 3702TIP3    H132597   5.809   2.409   4.177  1.1657 -0.2238 -2.4691
 3702TIP3    H232598   5.727   2.285   4.145  1.1469 -0.3935 -1.7807
 3703TIP3   OH232599   4.425   4.745  16.490 -0.1264 -0.2165 -0.2714
 3703TIP3    H132600   4.357   4.768  16.426  0.1538 -0.4454 -0.6578
 3703TIP3    H232601   4.411   4.653  16.508 -0.5268 -0.0305  0.3980
 3704TIP3   OH232602   3.878   1.609   1.927 -0.3813 -0.4454 -0.1231
 3704TIP3    H132603   3.853   1.580   1.840  0.6703 -0.8758 -0.2916
 3704TIP3    H232604   3.942   1.679   1.911 -1.9591  1.1925  0.2869
 3705TIP3   OH232605   3.465   1.184   4.574  0.1759  0.0530  0.5793
 3705TIP3    H132606   3.379   1.143   4.584 -1.2078  2.6158  0.0165
 3705TIP3    H232607   3.484   1.175   4.480 -0.1096  0.6482  0.4633
 3706TIP3   OH232608   6.852   1.712   3.430 -0.1522 -0.6846 -0.7335
 3706TIP3    H132609   6.795   1.752   3.497  2.4633  1.4723  0.3775
 3706TIP3    H232610   6.873   1.626   3.466 -1.2030 -0.7762 -0.2900
 3707TIP3   OH232611   5.094   2.293   3.327 -0.2654 -0.6279  0.4810
 3707TIP3    H132612   5.188   2.311   3.334  0.1323 -2.4072  0.2150
 3707TIP3    H232613   5.060   2.367   3.277  1.2352 -0.5826 -0.5609
 3708TIP3   OH232614   5.609   4.949  12.135 -0.9527  0.8307  0.1785
 3708TIP3    H132615   5.552   4.872  12.138 -1.7472  1.3605 -0.6329
 3708TIP3    H232616   5.633   4.965  12.227 -1.0975 -0.1328  0.3966
 3709TIP3   OH232617   5.778   0.119  17.068  0.6014  0.1675  0.1842
 3709TIP3    H132618   5.708   0.104  17.130  0.7422  0.3609  0.3929
 3709TIP3    H232619   5.760   0.207  17.033  0.5364  0.0702 -0.0286
 3710TIP3   OH232620   2.759   4.339   1.243  0.1976 -0.4274 -0.1103
 3710TIP3    H132621   2.807   4.409   1.200 -0.6921 -0.2715 -0.8817
 3710TIP3    H232622   2.674   4.377   1.265 -0.4605 -1.3529 -0.9202
 3711TIP3   OH232623   1.915   6.720  10.991  0.4678  0.7355 -0.2978
 3711TIP3    H132624   1.974   6.702  10.918 -1.3057 -0.5707 -1.4797
 3711TIP3    H232625   1.839   6.762  10.952  0.0166  1.1802  0.9874
 3712TIP3   OH232626   0.775   1.673   6.406 -0.1744  0.1259  0.0280
 3712TIP3    H132627   0.724   1.592   6.411  0.5218 -0.3376 -0.1457
 3712TIP3    H232628   0.801   1.691   6.496 -1.3757  0.8549  0.2414
 3713TIP3   OH232629   0.899   4.151  14.975 -0.1136 -0.0060  0.0945
 3713TIP3    H132630   0.968   4.113  15.030 -1.9322 -0.4322  2.2645
 3713TIP3    H232631   0.836   4.080  14.964 -0.5268  0.5422 -1.3302
 3714TIP3   OH232632   1.105   0.592  14.965 -0.1386 -0.4210  0.4040
 3714TIP3    H132633   1.119   0.650  14.890  0.2064 -0.7375  0.2249
 3714TIP3    H232634   1.010   0.580  14.968 -0.0786 -1.3957 -0.7442
 3715TIP3   OH232635   0.294   4.081   1.147  0.2570 -0.0570 -0.1616
 3715TIP3    H132636   0.371   4.029   1.173  0.5276 -1.2206 -2.9907
 3715TIP3    H232637   0.328   4.168   1.130  0.6729 -0.1759  0.0546
 3716TIP3   OH232638   3.815   4.929  16.753  0.5153 -0.0412  0.7658
 3716TIP3    H132639   3.875   4.916  16.679  0.3991 -0.3416  0.7218
 3716TIP3    H232640   3.871   4.929  16.830  0.7288  1.0159  0.6296
 3717TIP3   OH232641   1.787   2.651  11.525 -0.5799  0.1558  0.5685
 3717TIP3    H132642   1.821   2.640  11.614 -1.9146  0.3457  1.1171
 3717TIP3    H232643   1.730   2.727  11.530  0.6323  1.2235 -0.8603
 3718TIP3   OH232644   3.523   3.314  15.584 -0.6159 -0.4580  0.1590
 3718TIP3    H132645   3.612   3.283  15.573  0.0434  1.2640  0.2711
 3718TIP3    H232646   3.469   3.235  15.582  1.0086 -1.6533  1.3978
 3719TIP3   OH232647   3.625   5.366   4.902  0.2588  0.7192 -0.0519
 3719TIP3    H132648   3.644   5.354   4.995  0.9490  0.7325 -0.1858
 3719TIP3    H232649   3.554   5.304   4.884 -1.1161  1.9570  0.8659
 3720TIP3   OH232650   0.035   6.184  11.246  0.2005  0.4017 -1.0712
 3720TIP3    H132651   0.006   6.167  11.156 -0.2499 -0.9988 -0.6850
 3720TIP3    H232652   0.128   6.202  11.238  0.8812 -2.7575 -1.5589
 3721TIP3   OH232653   0.160   6.193   2.493  0.1191 -0.2367  0.0900
 3721TIP3    H132654   0.249   6.166   2.473  0.5761 -0.9626  2.7480
 3721TIP3    H232655   0.109   6.112   2.485  0.2139 -0.4179  1.1255
 3722TIP3   OH232656   1.081   0.432   1.005 -0.4827 -0.3285 -0.5478
 3722TIP3    H132657   1.167   0.472   1.016 -1.9073  3.1155 -0.6536
 3722TIP3    H232658   1.057   0.402   1.093  0.6466 -1.0510 -0.4656
 3723TIP3   OH232659   3.997   3.125  13.212  0.2203  0.3454  0.0568
 3723TIP3    H132660   4.009   3.099  13.303 -0.9011 -0.0236  0.1157
 3723TIP3    H232661   3.960   3.213  13.217  1.0732  0.7228 -0.0761
 3724TIP3   OH232662   0.383   6.245  15.441  0.1667  0.5086 -0.0316
 3724TIP3    H132663   0.418   6.156  15.432  1.2859  0.9752 -0.4699
 3724TIP3    H232664   0.460   6.301  15.439 -0.6348  1.6112 -1.3701
 3725TIP3   OH232665   0.905   3.281  13.135  0.2859  0.4843  0.2413
 3725TIP3    H132666   0.929   3.290  13.043 -0.3315  0.4469  0.0782
 3725TIP3    H232667   0.905   3.186  13.151  0.4027  0.4910  0.2845
 3726TIP3   OH232668   4.015   5.295   3.569 -0.1143  0.6111 -0.3526
 3726TIP3    H132669   4.019   5.200   3.583 -0.6116  0.3918 -1.5307
 3726TIP3    H232670   4.106   5.323   3.569  0.0355  0.1382  0.0333
 3727TIP3   OH232671   1.944   1.954  16.245 -0.2595 -0.2326  0.7743
 3727TIP3    H132672   1.871   2.016  16.248 -0.9087 -0.6740 -2.5437
 3727TIP3    H232673   1.930   1.898  16.322 -1.7878  1.3942  1.7752
 3728TIP3   OH232674   4.115   3.963   4.232 -0.1429  0.1529 -0.2051
 3728TIP3    H132675   4.041   3.920   4.190 -0.4851 -1.0926  1.5919
 3728TIP3    H232676   4.113   3.933   4.322  3.2386 -0.8996 -0.3284
 3729TIP3   OH232677   1.299   2.220   0.604 -0.2206  0.2761 -0.0073
 3729TIP3    H132678   1.279   2.313   0.599  2.6592  0.9960 -0.3890
 3729TIP3    H232679   1.323   2.206   0.696  2.1774  0.7137 -0.4781
 3730TIP3   OH232680   6.579   6.457   0.202 -0.4657  0.1699 -0.1875
 3730TIP3    H132681   6.512   6.414   0.148 -0.9705  3.1249 -2.1781
 3730TIP3    H232682   6.578   6.548   0.172  0.3156  1.7062  3.9009
 3731TIP3   OH232683   0.591   5.517  11.122 -0.1319  0.6878  0.1031
 3731TIP3    H132684   0.515   5.466  11.091  0.4830  0.6381 -1.4118
 3731TIP3    H232685   0.554   5.603  11.143 -0.5635  0.8324 -1.1215
 3732TIP3   OH232686   5.260   5.383  15.724  0.3443  0.7957  0.2824
 3732TIP3    H132687   5.260   5.351  15.814 -0.3291  0.0024  0.0150
 3732TIP3    H232688   5.168   5.393  15.702  0.4749  4.1000  0.7198
 3733TIP3   OH232689   1.217   4.476  11.315 -0.2208  0.4663 -0.1491
 3733TIP3    H132690   1.234   4.400  11.371  0.9457  0.9967  0.2360
 3733TIP3    H232691   1.287   4.474  11.251 -0.4160  1.0082 -0.3802
 3734TIP3   OH232692   3.111   6.048   3.617  0.0663  0.2763 -0.2235
 3734TIP3    H132693   3.177   6.076   3.679 -0.1183  2.4279 -0.9073
 3734TIP3    H232694   3.159   6.034   3.535  0.0065 -0.5523 -0.1288
 3735TIP3   OH232695   2.584   3.993   4.512 -0.2022  0.4818  0.3922
 3735TIP3    H132696   2.531   4.056   4.463 -0.3653 -0.5489 -0.8186
 3735TIP3    H232697   2.542   3.988   4.598 -1.5528  0.3288 -0.2477
 3736TIP3   OH232698   3.237   5.576  12.126  0.0353 -0.4601 -0.2107
 3736TIP3    H132699   3.152   5.549  12.159  0.2667 -0.3389  0.5060
 3736TIP3    H232700   3.280   5.494  12.099 -2.2112 -0.3149 -5.6227
 3737TIP3   OH232701   3.588   0.490   6.611 -0.0714 -0.5211 -0.8531
 3737TIP3    H132702   3.678   0.490   6.644 -1.0691 -2.3588  2.2692
 3737TIP3    H232703   3.597   0.494   6.516  3.3281 -1.6059 -0.7019
 3738TIP3   OH232704   3.678   3.596  16.361 -0.5656  0.6853 -0.4027
 3738TIP3    H132705   3.592   3.554  16.358 -0.2414  0.0159 -3.6984
 3738TIP3    H232706   3.663   3.684  16.326  0.1502  0.3143 -1.7059
 3739TIP3   OH232707   6.617   4.953   6.552 -0.3096 -0.3035  0.2326
 3739TIP3    H132708   6.676   5.029   6.554  1.0519 -1.3346  0.5689
 3739TIP3    H232709   6.540   4.984   6.504  0.6091  1.0154 -0.4548
 3740TIP3   OH232710   6.132   2.358   4.068  0.1151 -0.0740 -0.1292
 3740TIP3    H132711   6.177   2.417   4.130  1.6582 -1.5164  0.2039
 3740TIP3    H232712   6.161   2.389   3.982 -1.0463  1.1581 -0.1070
 3741TIP3   OH232713   4.254   3.467   2.370  0.2936  0.1672  0.3233
 3741TIP3    H132714   4.213   3.509   2.446  0.2560  1.0280 -0.1672
 3741TIP3    H232715   4.318   3.407   2.408 -0.0844  0.2095  1.0492
 3742TIP3   OH232716   2.987   0.212   3.125 -0.3998  0.1874  0.2797
 3742TIP3    H132717   2.955   0.291   3.080 -0.2133 -0.0098 -0.2122
 3742TIP3    H232718   2.971   0.141   3.063  1.3010  0.1245 -0.1513
 3743TIP3   OH232719   2.008   3.351   1.392  0.0017 -0.1885 -0.4463
 3743TIP3    H132720   1.944   3.304   1.339 -0.1447  0.0902 -0.5135
 3743TIP3    H232721   2.093   3.328   1.353 -0.1646  0.8136 -1.4298
 3744TIP3   OH232722   3.245   4.455  16.195 -0.4282  0.1596 -0.3355
 3744TIP3    H132723   3.172   4.499  16.152 -0.9444  0.3000  0.6489
 3744TIP3    H232724   3.219   4.363  16.199 -1.3246  0.4440  1.4607
 3745TIP3   OH232725   4.778   5.936   1.906 -0.0676 -0.0161 -0.5583
 3745TIP3    H132726   4.809   5.947   1.816  1.7444  0.1107  0.0321
 3745TIP3    H232727   4.771   5.841   1.918 -1.5111 -0.0078 -1.1865
 3746TIP3   OH232728   1.851   1.643  12.757 -0.6138  0.0163 -0.0714
 3746TIP3    H132729   1.864   1.620  12.849 -0.6381  1.0363  0.2068
 3746TIP3    H232730   1.771   1.695  12.757 -0.0142  0.9682 -0.4987
 3747TIP3   OH232731   3.474   6.180   6.276 -0.0116  0.2661  0.4145
 3747TIP3    H132732   3.532   6.141   6.341  0.5996 -0.1859 -0.3781
 3747TIP3    H232733   3.517   6.263   6.252  1.2193 -0.8040 -1.3477
 3748TIP3   OH232734   1.440   4.469   0.074 -0.8253 -0.0116 -0.1175
 3748TIP3    H132735   1.351   4.436   0.073 -0.3468 -1.4912 -2.6448
 3748TIP3    H232736   1.444   4.530   0.000 -0.0704  1.0626  0.7755
 3749TIP3   OH232737   5.632   3.710   1.733 -0.1365  0.5412 -0.8208
 3749TIP3    H132738   5.700   3.765   1.772  0.4716 -0.0424 -1.0528
 3749TIP3    H232739   5.669   3.682   1.650 -1.0677  1.0391 -1.4173
 3750TIP3   OH232740   4.878   4.191  13.570  0.1384  0.1249 -0.4277
 3750TIP3    H132741   4.925   4.138  13.505  0.0677 -2.8745  1.7283
 3750TIP3    H232742   4.786   4.186  13.543 -0.1982 -2.9283  0.8598
 3751TIP3   OH232743   0.724   2.980   0.565  0.1435  0.4528  0.4086
 3751TIP3    H132744   0.769   2.897   0.548 -0.1753  0.6074 -1.3858
 3751TIP3    H232745   0.749   3.003   0.654  1.2951 -0.9006  0.4724
 3752TIP3   OH232746   3.695   6.086  12.558  0.3884  0.6243  0.0939
 3752TIP3    H132747   3.743   6.086  12.475  1.2398  0.2783  0.5689
 3752TIP3    H232748   3.747   6.142  12.615  1.0160 -0.8545  1.0361
 3753TIP3   OH232749   4.568   3.129  15.305 -0.0690  0.0136  0.3291
 3753TIP3    H132750   4.503   3.132  15.235  0.6138 -0.2628 -0.3327
 3753TIP3    H232751   4.583   3.221  15.326  2.3808  0.4095 -2.4671
 3754TIP3   OH232752   5.313   0.602   5.444 -0.3481  0.4208  0.2937
 3754TIP3    H132753   5.245   0.616   5.378 -0.6290  2.5709  0.9673
 3754TIP3    H232754   5.390   0.576   5.394 -0.6932  1.5004 -0.8479
 3755TIP3   OH232755   5.318   0.888  14.787  0.1479 -1.0345  0.0776
 3755TIP3    H132756   5.293   0.800  14.816 -0.0169 -0.6406  1.1938
 3755TIP3    H232757   5.285   0.946  14.856 -1.3472  0.0926 -1.4769
 3756TIP3   OH232758   6.304   6.021  13.335  0.4382 -1.1276 -0.3135
 3756TIP3    H132759   6.365   6.053  13.401  2.1960  0.6548 -2.6454
 3756TIP3    H232760   6.350   5.950  13.291 -0.0241 -1.1702 -0.7410
 3757TIP3   OH232761   3.264   1.353  13.108 -0.4316  0.4968  0.1865
 3757TIP3    H132762   3.345   1.341  13.058 -1.3397  0.9530 -1.4639
 3757TIP3    H232763   3.200   1.298  13.064 -1.0573  0.1402  1.4760
 3758TIP3   OH232764   5.904   1.768   2.660 -0.2324  0.3400  0.3487
 3758TIP3    H132765   5.989   1.810   2.651  0.7572 -1.5223  0.5239
 3758TIP3    H232766   5.842   1.829   2.618  1.1911  1.6246  0.0429
 3759TIP3   OH232767   5.155   2.050   2.230  0.0029  0.2008 -0.1287
 3759TIP3    H132768   5.066   2.077   2.254 -0.6647  0.0565 -2.1908
 3759TIP3    H232769   5.167   1.966   2.274 -1.0671  0.0265 -0.1411
 3760TIP3   OH232770   3.985   0.064  12.112  0.3209 -0.3140 -0.0917
 3760TIP3    H132771   3.983  -0.031  12.125  0.1697 -0.2390  0.4311
 3760TIP3    H232772   4.058   0.094  12.166  2.0908 -0.4349 -2.2783
 3761TIP3   OH232773   5.140   3.193   2.834 -0.3504 -0.4360 -0.4910
 3761TIP3    H132774   5.123   3.201   2.741  1.2043 -2.3083 -1.0168
 3761TIP3    H232775   5.080   3.125   2.864 -0.0645 -0.6519 -0.3974
 3762TIP3   OH232776   2.660   5.570  11.751  0.0892  0.3414 -0.1209
 3762TIP3    H132777   2.720   5.644  11.741 -0.3246  0.4895 -1.7576
 3762TIP3    H232778   2.576   5.610  11.772  0.0946  0.2732  0.0306
 3763TIP3   OH232779   5.946   2.561   5.253  0.1038  0.3297 -0.1463
 3763TIP3    H132780   5.912   2.594   5.337  1.5903  0.8510  0.2899
 3763TIP3    H232781   5.960   2.468   5.268 -2.1774 -0.1568 -0.7192
 3764TIP3   OH232782   0.738   6.502   5.824  0.1343 -0.1818  0.4574
 3764TIP3    H132783   0.756   6.587   5.783  0.3235 -0.1807  0.5423
 3764TIP3    H232784   0.642   6.498   5.828  0.0967 -0.4457 -0.5297
 3765TIP3   OH232785   4.087   3.082   3.582 -0.6607  0.2257 -0.4064
 3765TIP3    H132786   4.130   3.116   3.660 -0.8914  0.0321 -0.1908
 3765TIP3    H232787   4.038   3.156   3.546 -2.2204 -0.1803  0.7894
 3766TIP3   OH232788   2.129   2.100   0.250  0.0756 -0.1500 -0.2551
 3766TIP3    H132789   2.137   2.175   0.190 -1.6396 -0.2829 -0.7261
 3766TIP3    H232790   2.163   2.132   0.333  0.4464  0.7757 -0.7404
 3767TIP3   OH232791   5.943   5.033  13.603 -0.1937  0.5787  0.3728
 3767TIP3    H132792   6.030   5.000  13.580 -0.9471 -1.0615 -0.2751
 3767TIP3    H232793   5.960   5.116  13.647  2.0956 -1.8677  4.8126
 3768TIP3   OH232794   1.009   2.430   3.839 -0.1539  0.1034  0.0371
 3768TIP3    H132795   1.094   2.446   3.799  0.1795  0.4875  0.8761
 3768TIP3    H232796   1.029   2.418   3.932 -1.1665  1.6681  0.4948
 3769TIP3   OH232797   0.271   0.416   1.051  0.1831  0.4238 -0.4660
 3769TIP3    H132798   0.205   0.450   1.111 -0.8226 -0.8039 -0.8558
 3769TIP3    H232799   0.331   0.367   1.107 -1.4290 -1.7672 -0.5283
 3770TIP3   OH232800   3.271   6.823  15.308 -0.0401 -1.0482 -0.1974
 3770TIP3    H132801   3.198   6.865  15.265  1.6235  2.1554 -0.1856
 3770TIP3    H232802   3.279   6.737  15.266 -2.4369 -0.6442 -1.6089
 3771TIP3   OH232803   3.633   3.559  11.861  0.5570 -0.0917 -0.2143
 3771TIP3    H132804   3.629   3.563  11.956  2.2583  1.3714 -0.1464
 3771TIP3    H232805   3.679   3.477  11.842 -0.1287 -0.5824  0.1691
 3772TIP3   OH232806   6.704   2.146   5.701  0.2273 -0.1021 -0.3084
 3772TIP3    H132807   6.682   2.213   5.766  0.0985  0.6042 -1.0457
 3772TIP3    H232808   6.742   2.196   5.628 -0.7574 -0.7161 -1.2738
 3773TIP3   OH232809   2.123   3.436  10.647  0.2369  0.1401  0.7013
 3773TIP3    H132810   2.206   3.475  10.676  0.4055  0.8306 -0.6566
 3773TIP3    H232811   2.064   3.510  10.637  0.4593  0.0840 -1.5747
 3774TIP3   OH232812   0.533   5.896  11.061  0.1501 -0.0567 -0.0003
 3774TIP3    H132813   0.629   5.892  11.065  0.1487 -0.3320 -0.2205
 3774TIP3    H232814   0.503   5.826  11.119  0.0864 -0.1521 -0.1473
 3775TIP3   OH232815   1.530   0.924  11.681 -0.3014  0.2367 -1.0401
 3775TIP3    H132816   1.550   0.993  11.618  1.4241 -0.1790 -0.9845
 3775TIP3    H232817   1.473   0.863  11.633 -1.1025  1.2077 -1.3641
 3776TIP3   OH232818   5.388   2.774  15.487  0.1639 -0.0008 -0.4922
 3776TIP3    H132819   5.368   2.745  15.577  0.0933 -2.3253 -1.1818
 3776TIP3    H232820   5.483   2.768  15.481  0.2221  0.7419 -0.4121
 3777TIP3   OH232821   0.232   1.948  14.908  0.3585  0.3355 -0.2056
 3777TIP3    H132822   0.217   2.041  14.893  1.6718  0.6877  0.4676
 3777TIP3    H232823   0.320   1.932  14.872 -0.1101 -0.8046 -0.9073
 3778TIP3   OH232824   2.081   6.068  13.276  0.1096  0.2486  0.1362
 3778TIP3    H132825   2.047   6.128  13.210 -1.4914 -0.0675  0.6357
 3778TIP3    H232826   2.015   6.068  13.345  0.3594 -1.5993  0.4323
 3779TIP3   OH232827   3.171   5.521  15.032 -0.0081  0.0292 -0.0503
 3779TIP3    H132828   3.200   5.433  15.057  1.8433  0.3983 -0.7522
 3779TIP3    H232829   3.143   5.562  15.114 -2.1965 -1.6125  0.1170
 3780TIP3   OH232830   5.864   3.936   0.379 -0.1003 -0.1263 -0.2104
 3780TIP3    H132831   5.813   3.982   0.445  0.9784 -0.6555  1.0487
 3780TIP3    H232832   5.829   3.967   0.296 -2.1021 -0.0756  0.5776
 3781TIP3   OH232833   5.230   3.219  11.152 -0.1915 -0.1459  0.3555
 3781TIP3    H132834   5.153   3.196  11.205 -0.8431 -1.8608 -1.2328
 3781TIP3    H232835   5.208   3.189  11.064  1.7382  0.6646 -0.4492
 3782TIP3   OH232836   5.007   3.567   4.702  0.1590 -0.9263  0.3592
 3782TIP3    H132837   5.024   3.512   4.778  0.0222 -0.0507  1.0502
 3782TIP3    H232838   4.959   3.642   4.738 -0.2355 -0.6816 -0.6546
 3783TIP3   OH232839   1.646   1.653  14.024  0.1522  0.4276 -0.3121
 3783TIP3    H132840   1.639   1.675  13.931 -0.7103  0.9258 -0.1346
 3783TIP3    H232841   1.592   1.717  14.069  0.4522  0.1088  0.5316
 3784TIP3   OH232842   3.509   1.359  11.364 -0.1402 -0.2936  0.2599
 3784TIP3    H132843   3.529   1.288  11.303  0.8420 -1.0451  1.4004
 3784TIP3    H232844   3.569   1.430  11.340 -0.6035 -0.1234 -0.4073
 3785TIP3   OH232845   1.961   4.568   0.110 -0.1886  0.1754  0.4485
 3785TIP3    H132846   2.006   4.486   0.086  0.5974  0.6725  0.1628
 3785TIP3    H232847   1.871   4.542   0.127 -0.3045 -0.5229 -1.0989
 3786TIP3   OH232848   2.685   2.219   2.781  0.0552  0.0313 -0.3947
 3786TIP3    H132849   2.621   2.181   2.842  0.4502 -0.2664 -0.1570
 3786TIP3    H232850   2.632   2.256   2.711 -0.3362 -1.3023 -0.8408
 3787TIP3   OH232851   5.006   0.256   4.398 -0.2741  0.1283 -0.1190
 3787TIP3    H132852   4.996   0.323   4.466 -0.9228  2.5144 -2.3673
 3787TIP3    H232853   5.096   0.224   4.408  0.1553  1.5622  0.8889
 3788TIP3   OH232854   3.761   1.698   3.386  0.0661 -0.0753 -0.6308
 3788TIP3    H132855   3.751   1.678   3.479 -1.9537  1.1987 -0.5246
 3788TIP3    H232856   3.853   1.677   3.367  0.2239 -1.4555  1.3450
 3789TIP3   OH232857   3.347   2.896  12.113  0.1916 -0.0368  0.0281
 3789TIP3    H132858   3.382   2.809  12.129 -1.0355 -0.7137 -0.7505
 3789TIP3    H232859   3.368   2.914  12.021 -0.5164  0.0082 -0.1319
 3790TIP3   OH232860   0.204   5.568  16.115 -0.0080  0.5300 -0.1653
 3790TIP3    H132861   0.283   5.588  16.166 -0.6709 -1.0179  1.6070
 3790TIP3    H232862   0.158   5.652  16.109  1.2451  1.2382 -0.3143
 3791TIP3   OH232863   3.777   1.334  10.603  0.7930 -0.4409  0.0656
 3791TIP3    H132864   3.732   1.411  10.638  0.4794 -0.8575  0.6005
 3791TIP3    H232865   3.870   1.353  10.616  0.7714  0.2823 -0.7488
 3792TIP3   OH232866   0.834   4.727  13.772  0.4457 -0.4069 -0.3817
 3792TIP3    H132867   0.914   4.675  13.763  0.9032  0.3728 -0.9164
 3792TIP3    H232868   0.862   4.817  13.762 -0.5239 -0.1217 -0.6742
 3793TIP3   OH232869   4.368   5.527   3.411  0.8111  0.2459 -0.4501
 3793TIP3    H132870   4.397   5.604   3.363  1.2201  0.6106  0.3558
 3793TIP3    H232871   4.361   5.458   3.345 -1.0921  1.3422 -1.4694
 3794TIP3   OH232872   4.301   0.404   2.944  0.4625 -0.6311 -0.0852
 3794TIP3    H132873   4.323   0.465   2.874  1.6635 -1.2446 -0.2754
 3794TIP3    H232874   4.278   0.460   3.019  1.7613  0.0771 -0.1801
 3795TIP3   OH232875   4.210   2.602  11.646 -0.1982  0.8590  0.3096
 3795TIP3    H132876   4.297   2.570  11.624 -1.0331 -0.7915 -0.7342
 3795TIP3    H232877   4.226   2.684  11.694  2.0115 -0.6874  2.4503
 3796TIP3   OH232878   5.493   0.290   1.712 -0.4565  0.2261  0.1128
 3796TIP3    H132879   5.520   0.215   1.658 -2.3138 -1.1245  0.9402
 3796TIP3    H232880   5.474   0.252   1.797  0.1643  1.9596  1.0657
 3797TIP3   OH232881   4.402   6.143   1.842  0.1327 -0.2238  0.2032
 3797TIP3    H132882   4.348   6.169   1.917  0.0521 -0.1038  0.1030
 3797TIP3    H232883   4.492   6.157   1.872  0.1222 -0.7375  0.4866
 3798TIP3   OH232884   2.602   6.521  13.590 -0.0826 -0.0726  0.4521
 3798TIP3    H132885   2.637   6.544  13.677 -1.5464  0.0669  1.0412
 3798TIP3    H232886   2.509   6.542  13.596 -1.1581 -4.0468  0.3004
 3799TIP3   OH232887   6.374   5.584   4.331  0.1660  0.5065  0.1436
 3799TIP3    H132888   6.339   5.495   4.340 -0.9102  0.8109 -0.8911
 3799TIP3    H232889   6.387   5.613   4.421 -0.1757 -0.4220  0.5078
 3800TIP3   OH232890   4.076   6.572  16.586 -0.1304  0.0072 -0.6342
 3800TIP3    H132891   4.103   6.536  16.670 -2.2994 -2.6426 -0.9204
 3800TIP3    H232892   4.040   6.497  16.539 -2.9198  2.1666 -2.2493
 3801TIP3   OH232893   5.291   3.030  14.429 -0.5032 -0.4031  0.4046
 3801TIP3    H132894   5.316   3.106  14.375 -1.1409  0.0698  0.7628
 3801TIP3    H232895   5.370   3.011  14.479 -0.2036 -0.2388  0.0085
 3802TIP3   OH232896   2.603   2.026  12.839 -0.3193  0.4729 -0.5725
 3802TIP3    H132897   2.564   1.997  12.922 -0.6226 -1.6804 -1.3976
 3802TIP3    H232898   2.683   2.071  12.865 -0.4349 -0.1048  0.9162
 3803TIP3   OH232899   4.688   0.282  15.135 -0.0529  0.4652 -0.0130
 3803TIP3    H132900   4.696   0.234  15.218 -1.1009  1.9891  1.0172
 3803TIP3    H232901   4.755   0.350  15.141  1.2736 -0.6666 -1.3652
 3804TIP3   OH232902   6.098   5.107  12.722  0.2604 -0.3850  0.4232
 3804TIP3    H132903   6.132   5.187  12.682 -1.4443  0.1294 -0.0931
 3804TIP3    H232904   6.086   5.129  12.815  0.8415 -0.4107  0.5055
 3805TIP3   OH232905   6.004   0.492  13.909  0.5398 -0.2839  0.5721
 3805TIP3    H132906   5.993   0.577  13.866  1.4473 -0.3440  0.1961
 3805TIP3    H232907   6.096   0.490  13.936 -0.1618  0.1267  3.3671
 3806TIP3   OH232908   4.523   5.744   6.186  0.0716 -0.4342 -0.1476
 3806TIP3    H132909   4.563   5.828   6.164 -1.6941  1.0088  1.7292
 3806TIP3    H232910   4.595   5.690   6.219  0.7217  1.7280  2.2323
 3807TIP3   OH232911   1.952   5.717  16.081  0.6117 -0.3482 -0.0325
 3807TIP3    H132912   1.906   5.783  16.030  1.4911  0.1192 -0.2208
 3807TIP3    H232913   2.044   5.731  16.063  0.8089 -1.9234 -0.4338
 3808TIP3   OH232914   4.426   1.279   5.789 -0.4245 -0.4683  0.1439
 3808TIP3    H132915   4.403   1.224   5.864 -0.5034  0.2541  0.6664
 3808TIP3    H232916   4.342   1.301   5.750 -0.3573 -1.1914 -0.4146
 3809TIP3   OH232917   4.535   5.415   2.839  0.2997  0.4507 -0.0969
 3809TIP3    H132918   4.481   5.340   2.860 -1.4596  2.3173  2.6828
 3809TIP3    H232919   4.610   5.410   2.899  1.3429 -0.1444 -1.3861
 3810TIP3   OH232920   2.955   4.567   5.734  0.3896  0.2354 -0.0465
 3810TIP3    H132921   2.925   4.580   5.824  2.0807 -0.6785  0.7076
 3810TIP3    H232922   2.984   4.653   5.705 -0.3665  0.5792  0.1921
 3811TIP3   OH232923   6.471   3.333  11.481  0.4818  0.1813 -0.1527
 3811TIP3    H132924   6.539   3.401  11.474 -1.5998  2.3459 -0.6769
 3811TIP3    H232925   6.444   3.317  11.391  0.6188 -1.0514  0.0092
 3812TIP3   OH232926   3.063   1.024  13.826 -0.2022  0.5158 -0.4677
 3812TIP3    H132927   3.128   1.036  13.757 -0.3480 -0.6620 -0.8288
 3812TIP3    H232928   2.982   1.059  13.790  0.0085  1.1325 -0.3671
 3813TIP3   OH232929   0.614   0.233  14.154  0.1315 -0.0849  0.0318
 3813TIP3    H132930   0.559   0.268  14.084  0.4623  1.1989  0.3951
 3813TIP3    H232931   0.660   0.159  14.113 -0.5086 -0.0477 -0.7804
 3814TIP3   OH232932   2.743   0.768  14.084 -0.4428 -0.3435  0.0333
 3814TIP3    H132933   2.831   0.736  14.103 -0.6656  0.0219  1.9054
 3814TIP3    H232934   2.685   0.699  14.115 -0.8528  0.5874  1.4246
 3815TIP3   OH232935   6.193   4.838   3.184 -0.0313  0.0399 -0.2569
 3815TIP3    H132936   6.105   4.872   3.200  0.3377  0.0175  2.0854
 3815TIP3    H232937   6.245   4.870   3.257  1.2574 -2.2488 -0.0705
 3816TIP3   OH232938   5.520   1.341  13.188 -0.2771 -0.0491  0.2571
 3816TIP3    H132939   5.572   1.332  13.268  2.5521 -0.6993 -1.4735
 3816TIP3    H232940   5.525   1.434  13.167 -1.3339  0.1847  0.9942
 3817TIP3   OH232941   6.222   2.100   5.921 -0.3929  0.0702 -0.2286
 3817TIP3    H132942   6.189   2.189   5.925  0.0107  0.2307 -0.3956
 3817TIP3    H232943   6.163   2.054   5.861  0.0587  0.5203 -1.0307
 3818TIP3   OH232944   6.058   4.128   4.059 -0.3159 -0.2001  0.0587
 3818TIP3    H132945   5.988   4.161   4.003  0.0808  0.5506 -0.0101
 3818TIP3    H232946   6.136   4.178   4.032 -0.1328  0.2278  1.3197
 3819TIP3   OH232947   3.670   4.559   0.032  0.0183  0.5460  0.0106
 3819TIP3    H132948   3.681   4.611  -0.048 -0.7178  1.8778  0.7448
 3819TIP3    H232949   3.681   4.469   0.003  3.8860  1.1259 -0.9081
 3820TIP3   OH232950   5.419   0.093  13.074  0.7464 -0.3534 -0.0430
 3820TIP3    H132951   5.376   0.040  13.007  1.5875  0.6617 -1.4426
 3820TIP3    H232952   5.499   0.125  13.032  0.2394  2.0699  0.6886
 3821TIP3   OH232953   6.455   6.459  11.570  0.5338 -0.3484 -0.6564
 3821TIP3    H132954   6.444   6.500  11.484 -0.8660  0.4410 -0.1342
 3821TIP3    H232955   6.479   6.368  11.550  3.0223  0.4975 -1.8416
 3822TIP3   OH232956   5.591   2.860  10.727  0.1876  0.1231 -0.2642
 3822TIP3    H132957   5.622   2.881  10.816  1.2764  0.0620 -0.6097
 3822TIP3    H232958   5.529   2.789  10.740  0.9124 -0.4139  0.3924
 3823TIP3   OH232959   6.209   2.408   5.128  0.0091  0.0767  0.0906
 3823TIP3    H132960   6.140   2.385   5.191 -2.0658 -0.9390 -2.4152
 3823TIP3    H232961   6.197   2.348   5.055  2.3697  1.1726 -1.3181
 3824TIP3   OH232962   4.109   3.874  13.060 -0.0045 -0.1061  0.3363
 3824TIP3    H132963   4.066   3.949  13.101  1.0892  1.3001 -0.9700
 3824TIP3    H232964   4.095   3.802  13.121 -3.4615  0.4290  0.4042
 3825TIP3   OH232965   2.807   4.453  12.455 -0.1344  0.5513 -0.0514
 3825TIP3    H132966   2.796   4.542  12.488 -1.9573 -0.0776  1.2166
 3825TIP3    H232967   2.747   4.400  12.508  0.1352 -1.2636 -1.4494
 3826TIP3   OH232968   2.316   2.176  15.418  0.0696  0.0710 -0.1223
 3826TIP3    H132969   2.335   2.104  15.359  0.1187  0.4719 -0.5983
 3826TIP3    H232970   2.390   2.236  15.409 -0.1418  0.3545  0.0017
 3827TIP3   OH232971   3.751   5.912  12.874 -0.3528  0.0061  0.5668
 3827TIP3    H132972   3.713   5.872  12.795 -0.9456 -0.0196  0.8576
 3827TIP3    H232973   3.798   5.989  12.842 -0.6602  0.0419  0.1916
 3828TIP3   OH232974   6.141   4.515  11.129 -0.0281 -0.2667  0.2372
 3828TIP3    H132975   6.183   4.460  11.062 -0.3409 -0.2282  0.0027
 3828TIP3    H232976   6.130   4.457  11.204 -0.6094 -0.6096 -0.1050
 3829TIP3   OH232977   1.418   4.997   4.683  0.0042  0.3482 -0.1509
 3829TIP3    H132978   1.343   4.947   4.713 -0.2181  1.0763  0.5420
 3829TIP3    H232979   1.414   4.992   4.587 -1.5460  1.2568 -0.1724
 3830TIP3   OH232980   3.273   0.392  10.862  0.6059 -0.3416 -0.0858
 3830TIP3    H132981   3.314   0.457  10.805 -1.3025 -0.3835 -1.5824
 3830TIP3    H232982   3.240   0.443  10.936  3.4869 -0.3433  1.3867
 3831TIP3   OH232983   2.781   3.626   0.219  0.0662 -0.2379 -0.1038
 3831TIP3    H132984   2.749   3.608   0.307 -1.2734 -1.3063 -0.7697
 3831TIP3    H232985   2.746   3.712   0.197  1.5405  0.6617  0.8747
 3832TIP3   OH232986   0.131   5.423  11.461 -0.0075 -0.0776 -0.0450
 3832TIP3    H132987   0.100   5.389  11.377 -2.9330 -0.4994  1.1020
 3832TIP3    H232988   0.149   5.515  11.445  1.2520 -0.5277 -1.5127
 3833TIP3   OH232989   2.294   6.463   1.929 -0.1271 -0.0384 -0.2190
 3833TIP3    H132990   2.349   6.460   2.007 -1.1457  1.8445  0.6535
 3833TIP3    H232991   2.282   6.372   1.905  0.3970 -0.6803  1.7242
 3834TIP3   OH232992   1.173   4.539  14.022 -0.5069  0.2844  0.4665
 3834TIP3    H132993   1.149   4.628  14.045 -1.4020 -0.1690  1.3783
 3834TIP3    H232994   1.185   4.495  14.106 -1.9045 -0.9080  0.0875
 3835TIP3   OH232995   5.800   4.624   5.245 -0.2571 -0.1496  0.2128
 3835TIP3    H132996   5.776   4.576   5.324 -4.6941  0.5504 -0.4613
 3835TIP3    H232997   5.734   4.693   5.238  1.7079  1.6552 -2.5843
 3836TIP3   OH232998   2.549   5.668   5.632 -0.1982  0.0039  0.2899
 3836TIP3    H132999   2.617   5.714   5.681  0.1448  0.7919 -0.8779
 3836TIP3    H233000   2.588   5.583   5.611 -0.1965 -0.1815  1.0107
 3837TIP3   OH233001   5.339   5.357  13.655 -0.1867 -0.6846 -0.2654
 3837TIP3    H133002   5.258   5.401  13.678  1.4153  1.4198  1.8806
 3837TIP3    H233003   5.381   5.415  13.592 -0.1132 -1.5252 -1.0057
 3838TIP3   OH233004   2.796   2.505  16.557 -0.3617 -0.7293 -0.5401
 3838TIP3    H133005   2.792   2.583  16.612  0.4391 -0.3242 -1.0515
 3838TIP3    H233006   2.744   2.527  16.480 -1.4980 -1.3036  0.0329
 3839TIP3   OH233007   6.734   3.430  13.458  0.2591  0.1930 -0.5229
 3839TIP3    H133008   6.748   3.348  13.505  0.1948 -0.6481 -1.9386
 3839TIP3    H233009   6.646   3.422  13.422 -0.2107  1.3945  0.2914
 3840TIP3   OH233010   6.247   1.925  11.235  0.0480  0.3248 -0.0647
 3840TIP3    H133011   6.265   1.858  11.169 -0.4343 -0.4467  0.5563
 3840TIP3    H233012   6.314   1.912  11.302 -1.9186 -1.8057  1.6915
 3841TIP3   OH233013   6.151   0.110  16.734  0.3120 -0.0562 -0.2295
 3841TIP3    H133014   6.160   0.022  16.698  0.5054  0.8690 -2.6032
 3841TIP3    H233015   6.057   0.128  16.731  0.3070 -0.0508 -0.0667
 3842TIP3   OH233016   4.691   5.449  13.173  0.0459 -0.2173  0.0498
 3842TIP3    H133017   4.639   5.386  13.124 -0.3678 -1.1413  1.6224
 3842TIP3    H233018   4.636   5.527  13.180 -0.5596 -0.6747  0.4470
 3843TIP3   OH233019   3.845   1.247  17.020  0.0839  0.3921 -0.6048
 3843TIP3    H133020   3.827   1.334  16.985 -2.2317  0.3872  0.3903
 3843TIP3    H233021   3.793   1.242  17.101  0.4254 -1.7877 -0.4475
 3844TIP3   OH233022   0.420   6.322   3.538  0.1105 -0.1585  0.3744
 3844TIP3    H133023   0.392   6.264   3.609  0.5818 -0.1024  0.6092
 3844TIP3    H233024   0.491   6.275   3.494  0.7613  0.3936  0.8113
 3845TIP3   OH233025   3.307   2.749   4.796 -0.0149 -0.4113 -0.1416
 3845TIP3    H133026   3.304   2.823   4.858  0.2042 -2.0395  1.9391
 3845TIP3    H233027   3.371   2.775   4.730 -0.2193  1.4010  0.3262
 3846TIP3   OH233028   2.394   0.020  14.634  0.3894  0.4448  0.4001
 3846TIP3    H133029   2.414  -0.069  14.603  0.3741  0.4323  0.4257
 3846TIP3    H233030   2.477   0.068  14.623  0.1119  0.7121 -0.5942
 3847TIP3   OH233031   5.525   4.370  13.193 -0.3755 -0.2861 -0.6553
 3847TIP3    H133032   5.435   4.361  13.225 -0.6559 -1.4885 -1.6610
 3847TIP3    H233033   5.569   4.425  13.257 -2.3331  2.0047 -1.1505
 3848TIP3   OH233034   4.691   5.231  16.250  0.8297 -0.2306 -0.3438
 3848TIP3    H133035   4.714   5.309  16.301  2.6165 -1.0038  0.0700
 3848TIP3    H233036   4.762   5.221  16.188 -0.6491 -0.0951 -2.1531
 3849TIP3   OH233037   6.384   3.783  12.420 -0.0811 -0.8986  0.1287
 3849TIP3    H133038   6.300   3.738  12.406 -1.1403  0.8316  0.6015
 3849TIP3    H233039   6.442   3.746  12.354 -1.7168 -0.9284 -1.3604
 3850TIP3   OH233040   2.326   6.259   1.575 -0.0676  0.8660 -0.3811
 3850TIP3    H133041   2.390   6.282   1.508  0.8342 -0.9839 -0.2074
 3850TIP3    H233042   2.277   6.186   1.538  0.2051  0.0497  0.7906
 3851TIP3   OH233043   6.176   0.807  11.747 -0.3739  0.6112 -0.2572
 3851TIP3    H133044   6.154   0.828  11.656 -0.9148  0.0044 -0.2755
 3851TIP3    H233045   6.136   0.722  11.762  0.9994  0.0033  0.0913
 3852TIP3   OH233046   6.163   4.897  15.619  0.0275 -0.0339  0.2577
 3852TIP3    H133047   6.245   4.850  15.602  0.3871  0.5856  0.2415
 3852TIP3    H233048   6.186   4.990  15.609 -1.6145  0.1418 -4.2078
 3853TIP3   OH233049   0.138   4.952   3.102 -0.3211 -0.0223 -0.2982
 3853TIP3    H133050   0.180   4.868   3.088 -0.6473 -0.0769 -1.0197
 3853TIP3    H233051   0.194   5.015   3.055 -0.6039  0.0162 -0.5914
 3854TIP3   OH233052   6.484   3.734  15.960 -0.2266 -0.6069  0.1943
 3854TIP3    H133053   6.498   3.691  15.876 -0.2938 -2.7519  1.2267
 3854TIP3    H233054   6.572   3.759  15.989 -0.2666  0.8438 -0.8034
 3855TIP3   OH233055   5.593   6.109   4.550 -0.1313 -0.0253 -0.0755
 3855TIP3    H133056   5.628   6.154   4.627  0.4735  1.3236 -1.0985
 3855TIP3    H233057   5.590   6.177   4.482 -0.4826 -1.2245 -1.2950
 3856TIP3   OH233058   4.001   3.687  16.919  0.5399  0.5924  1.0455
 3856TIP3    H133059   3.993   3.729  16.833 -1.7850 -0.0478  0.8970
 3856TIP3    H233060   3.947   3.741  16.977 -1.6819 -1.5042  1.0645
 3857TIP3   OH233061   2.648   2.176  13.612  0.0025 -0.2344  0.3776
 3857TIP3    H133062   2.657   2.184  13.517 -2.7114 -2.1097 -0.1230
 3857TIP3    H233063   2.724   2.124  13.638  1.1849  0.9231 -0.6028
 3858TIP3   OH233064   0.400   4.933   4.626 -0.6915  0.0941  0.4695
 3858TIP3    H133065   0.489   4.968   4.615 -0.1312 -0.7163  2.0278
 3858TIP3    H233066   0.360   4.991   4.692 -1.2011  0.2472  0.0297
 3859TIP3   OH233067   6.460   5.071  15.963 -0.6138  0.8629 -0.0767
 3859TIP3    H133068   6.456   5.077  15.867 -2.1769 -0.4904 -0.1429
 3859TIP3    H233069   6.489   4.981  15.980  1.6250  1.6786  0.7588
 3860TIP3   OH233070   6.072   3.250   3.321 -0.1630  0.1293  0.0830
 3860TIP3    H133071   6.139   3.301   3.365  1.4698  0.2693 -2.3836
 3860TIP3    H233072   5.990   3.291   3.346  0.7595  0.9317  1.9515
 3861TIP3   OH233073   1.232   2.178  16.396 -0.4631 -0.8895  0.2029
 3861TIP3    H133074   1.257   2.089  16.371 -2.8673 -1.7796  0.7245
 3861TIP3    H233075   1.137   2.175  16.405 -0.6601  1.8672 -0.1676
 3862TIP3   OH233076   0.115   2.448   2.956 -0.1269  0.2391  0.4123
 3862TIP3    H133077   0.148   2.511   3.020 -0.1610 -0.6754  1.3531
 3862TIP3    H233078   0.174   2.372   2.964 -0.1504  0.0936 -0.6189
 3863TIP3   OH233079   3.642   3.500   3.247 -0.0312 -0.4231  0.7554
 3863TIP3    H133080   3.712   3.496   3.312  1.8328  0.4790 -1.0830
 3863TIP3    H233081   3.663   3.429   3.186 -1.2722 -0.7201  0.6573
 3864TIP3   OH233082   0.443   1.554   4.606 -0.4818 -0.4726 -0.4800
 3864TIP3    H133083   0.360   1.572   4.650 -1.0123 -3.6891  0.0779
 3864TIP3    H233084   0.424   1.480   4.549  1.7375 -0.4938 -1.2742
 3865TIP3   OH233085   1.068   5.851   0.958 -0.1282  0.6378 -0.6772
 3865TIP3    H133086   1.159   5.821   0.955 -0.7686 -1.8070  1.1664
 3865TIP3    H233087   1.044   5.862   0.866  1.1067 -1.8391 -1.4023
 3866TIP3   OH233088   6.709   4.638   0.344 -0.8482 -0.2633  0.2494
 3866TIP3    H133089   6.728   4.576   0.414 -0.0625  0.8604  1.0680
 3866TIP3    H233090   6.638   4.598   0.294 -1.3808 -1.1216  1.6555
 3867TIP3   OH233091   5.448   3.970  11.917 -0.1752  0.1947 -0.3483
 3867TIP3    H133092   5.530   4.004  11.883 -0.4140  1.4790  0.3220
 3867TIP3    H233093   5.461   3.875  11.922  1.3259  0.4039 -0.0672
 3868TIP3   OH233094   5.434   6.646   5.733 -0.0702  0.3123 -0.2847
 3868TIP3    H133095   5.370   6.679   5.670  0.9178  0.8096 -1.0681
 3868TIP3    H233096   5.395   6.664   5.819 -0.5834  1.4065 -0.7308
 3869TIP3   OH233097   0.652   2.542   0.745 -0.0232  0.0695 -0.0945
 3869TIP3    H133098   0.712   2.476   0.710 -1.5971 -2.3042  1.3597
 3869TIP3    H233099   0.598   2.568   0.671 -0.6892 -1.8663 -0.3527
 3870TIP3   OH233100   1.006   5.432   0.152 -0.0790  0.1947  0.2192
 3870TIP3    H133101   0.994   5.497   0.222  0.4424  0.4403  0.0850
 3870TIP3    H233102   1.094   5.450   0.118 -0.2786 -0.0106 -0.4114
 3871TIP3   OH233103   1.730   6.516  15.219 -0.1787 -0.3140 -0.1040
 3871TIP3    H133104   1.800   6.457  15.247  0.0532  0.1604  0.3295
 3871TIP3    H233105   1.664   6.509  15.288  0.5113  1.0649  0.7474
 3872TIP3   OH233106   5.335   4.349   0.524 -0.1429  0.5877  0.0732
 3872TIP3    H133107   5.275   4.306   0.463 -0.4326 -0.0314  0.7781
 3872TIP3    H233108   5.335   4.293   0.601  1.1477  0.7160  0.1861
 3873TIP3   OH233109   6.306   4.661  13.097 -0.6588  0.4092  0.5178
 3873TIP3    H133110   6.269   4.747  13.077  0.0168  0.6716  0.3671
 3873TIP3    H233111   6.264   4.601  13.035 -0.7196  0.7257  0.2527
 3874TIP3   OH233112   6.053   1.966  12.755  0.9679  0.3051  0.0875
 3874TIP3    H133113   6.088   1.905  12.690  0.6317  0.0655  0.1300
 3874TIP3    H233114   5.993   1.913  12.808  1.6042  0.3871  0.8996
 3875TIP3   OH233115   6.285   5.565  10.947 -0.0563 -0.4212 -0.4339
 3875TIP3    H133116   6.205   5.533  10.990 -0.1980 -0.2200 -0.5482
 3875TIP3    H233117   6.338   5.486  10.935 -0.0115 -0.4789  0.1183
 3876TIP3   OH233118   6.023   5.205   4.369  0.2747  0.5291 -0.0909
 3876TIP3    H133119   6.039   5.205   4.463  1.2192 -3.9813 -0.0274
 3876TIP3    H233120   5.934   5.171   4.359  1.0523 -1.4340 -0.7653
 3877TIP3   OH233121   5.331   6.712   5.303 -0.2492 -0.2194 -0.0878
 3877TIP3    H133122   5.380   6.736   5.224  1.1952 -0.7353  0.6287
 3877TIP3    H233123   5.327   6.617   5.301  3.2823 -0.6099  2.3668
 3878TIP3   OH233124   6.669   0.441  12.869  0.2248  0.3226 -0.4448
 3878TIP3    H133125   6.596   0.405  12.920  1.8076 -0.2626  1.5172
 3878TIP3    H233126   6.735   0.372  12.869  1.7039  1.6794 -0.1588
 3879TIP3   OH233127   6.820   4.284  10.031  0.3101  0.3171 -0.3791
 3879TIP3    H133128   6.727   4.289  10.009 -0.1099 -0.8701  0.9659
 3879TIP3    H233129   6.825   4.220  10.101  1.7240  2.8170  2.0141
 3880TIP3   OH233130   0.951   3.667   3.553 -0.0701  0.6355 -0.0468
 3880TIP3    H133131   1.036   3.622   3.553 -1.2129 -1.6955  0.3024
 3880TIP3    H233132   0.907   3.634   3.475 -1.8388 -0.7686  1.4440
 3881TIP3   OH233133   6.570   2.440   3.359  0.0085  0.7178  0.6884
 3881TIP3    H133134   6.525   2.356   3.367  0.8724  0.4197  3.6516
 3881TIP3    H233135   6.585   2.450   3.265  0.3528 -2.7066  0.2384
 3882TIP3   OH233136   5.199   5.232  13.942  0.6515 -0.6827  0.5023
 3882TIP3    H133137   5.131   5.187  13.893  1.3207 -1.7462  0.5235
 3882TIP3    H233138   5.278   5.221  13.890  0.8763  0.3200  0.6019
 3883TIP3   OH233139   4.138   3.726  16.164  0.0825  0.6626 -0.3242
 3883TIP3    H133140   4.110   3.713  16.254  0.7390 -1.3922 -0.3608
 3883TIP3    H233141   4.074   3.679  16.112  0.1709  1.1391 -0.8744
 3884TIP3   OH233142   4.383   1.845  17.057 -0.1846  0.3104  0.0268
 3884TIP3    H133143   4.425   1.764  17.027 -0.0072 -0.1576  1.4658
 3884TIP3    H233144   4.446   1.914  17.038  1.2021 -0.3514  1.9188
 3885TIP3   OH233145   2.591   4.295  12.541 -0.0714  0.2213 -0.0753
 3885TIP3    H133146   2.600   4.200  12.545 -0.4532  0.2351  1.4324
 3885TIP3    H233147   2.497   4.310  12.531  0.0228  0.4392 -0.6662
 3886TIP3   OH233148   6.445   4.465  12.262 -0.5560 -0.1903  0.1272
 3886TIP3    H133149   6.480   4.398  12.320 -0.8951 -0.0525  0.4925
 3886TIP3    H233150   6.380   4.419  12.208  0.9321 -0.7036 -1.3246
 3887TIP3   OH233151   0.232   0.913  16.111 -0.0042  0.1387 -0.3172
 3887TIP3    H133152   0.325   0.913  16.132  0.4490 -1.7791 -2.0370
 3887TIP3    H233153   0.192   0.862  16.181  0.4624 -0.2435 -0.3193
 3888TIP3   OH233154   2.830   1.609  16.165 -0.3572 -0.6750  0.5695
 3888TIP3    H133155   2.784   1.533  16.129  0.7521 -1.7312  1.2856
 3888TIP3    H233156   2.761   1.668  16.194 -1.2471 -1.2463 -0.3284
 3889TIP3   OH233157   0.708   6.654   1.678  0.8281 -0.0224 -0.1776
 3889TIP3    H133158   0.786   6.687   1.633  1.8188  1.3718  2.3302
 3889TIP3    H233159   0.742   6.591   1.742 -0.2727 -0.5550 -0.0947
 3890TIP3   OH233160   3.250   0.741   3.406  0.1752  0.1814  0.9616
 3890TIP3    H133161   3.308   0.768   3.335  1.6810 -3.0655  0.7993
 3890TIP3    H233162   3.306   0.694   3.467 -1.7535 -0.3027  2.4723
 3891TIP3   OH233163   3.243   5.383   1.930 -0.7996 -0.3849 -0.0053
 3891TIP3    H133164   3.186   5.311   1.956 -1.1767  0.3056  1.1692
 3891TIP3    H233165   3.189   5.461   1.939 -0.1630  0.1297 -0.4905
 3892TIP3   OH233166   4.660   1.842   1.885 -0.1678  0.0952  0.3657
 3892TIP3    H133167   4.609   1.812   1.809 -0.5160  1.7038 -0.0936
 3892TIP3    H233168   4.748   1.808   1.870  1.1009  4.0131 -3.3335
 3893TIP3   OH233169   4.128   6.433  12.313  0.1672  0.1431  0.5240
 3893TIP3    H133170   4.086   6.511  12.348 -1.0297  0.2054 -0.9524
 3893TIP3    H233171   4.124   6.370  12.385 -0.0981  0.9867  1.2727
 3894TIP3   OH233172   0.329   5.690  14.405  0.1151  0.0415 -0.0519
 3894TIP3    H133173   0.241   5.680  14.442  0.1281 -0.0701 -0.0498
 3894TIP3    H233174   0.325   5.771  14.354 -0.4747 -0.7998 -1.4097
 3895TIP3   OH233175   5.128   5.875   0.842 -0.1281  0.0685 -0.1062
 3895TIP3    H133176   5.081   5.899   0.922  0.3474  0.3134  0.1009
 3895TIP3    H233177   5.216   5.912   0.853 -0.4115  1.1734 -1.2709
 3896TIP3   OH233178   3.114   3.453   3.796  0.2506  0.0656 -0.3503
 3896TIP3    H133179   3.033   3.404   3.812 -0.7246  1.2672 -1.4519
 3896TIP3    H233180   3.086   3.544   3.787  1.7767  0.5537 -0.4468
 3897TIP3   OH233181   0.325   2.108  16.465 -0.0676 -0.1883 -0.6654
 3897TIP3    H133182   0.252   2.165  16.441  1.1595  0.7219 -2.4276
 3897TIP3    H233183   0.358   2.073  16.382  1.3491 -0.7848  0.0987
 3898TIP3   OH233184   6.454   2.832   0.755  0.5340  0.1834  0.0467
 3898TIP3    H133185   6.424   2.821   0.845 -0.4606 -0.0052 -0.3044
 3898TIP3    H233186   6.411   2.762   0.706  4.5739 -2.7324  0.1624
 3899TIP3   OH233187   6.662   0.517   2.946  0.1608 -0.2820  0.1664
 3899TIP3    H133188   6.743   0.550   2.906  0.0955  0.4054  0.5830
 3899TIP3    H233189   6.692   0.454   3.012  0.4212  0.6901  1.0041
 3900TIP3   OH233190   1.691   0.868   5.896  0.3161  0.1683  0.2913
 3900TIP3    H133191   1.629   0.824   5.954 -2.3044 -0.7620 -2.8971
 3900TIP3    H233192   1.769   0.813   5.897 -0.5026 -1.0159  1.2205
 3901TIP3   OH233193   1.488   5.835  12.415 -0.5333 -0.1704 -0.6871
 3901TIP3    H133194   1.470   5.829  12.322 -1.4622 -0.5456 -0.4962
 3901TIP3    H233195   1.403   5.857  12.455 -0.0561  0.4532  0.0215
 3902TIP3   OH233196   5.927   4.145  11.491 -0.2591  0.1447  0.3903
 3902TIP3    H133197   5.961   4.145  11.581  0.1796  0.9842  0.2293
 3902TIP3    H233198   5.886   4.231  11.481 -2.9438 -0.9714  0.7495
 3903TIP3   OH233199   4.246   3.145   2.303  0.1618  0.2307 -0.2717
 3903TIP3    H133200   4.253   3.095   2.384 -1.6224 -1.1264 -0.8742
 3903TIP3    H233201   4.167   3.199   2.315  0.5648  0.9192 -0.6475
 3904TIP3   OH233202   2.225   2.725  12.913 -0.0812 -0.0481 -0.8535
 3904TIP3    H133203   2.202   2.635  12.935 -0.4938  0.6004  1.7419
 3904TIP3    H233204   2.319   2.722  12.892  0.2635 -0.9072  0.6495
 3905TIP3   OH233205   2.197   0.425   2.857  0.1438 -0.4770 -0.6279
 3905TIP3    H133206   2.140   0.468   2.920  1.7933 -0.2512  0.7797
 3905TIP3    H233207   2.198   0.333   2.884  0.7517 -0.4041 -0.3871
 3906TIP3   OH233208   6.340   2.968   1.225 -0.0088  0.4191  0.3130
 3906TIP3    H133209   6.290   3.048   1.209 -0.1337  0.1371 -0.8192
 3906TIP3    H233210   6.427   2.999   1.251  1.3184  1.0935 -4.1583
 3907TIP3   OH233211   3.803   0.059   5.335  0.2412  0.1791  0.3428
 3907TIP3    H133212   3.835   0.023   5.418  0.9114 -0.9615 -0.3850
 3907TIP3    H233213   3.745   0.131   5.361  1.7852  0.9663  1.7486
 3908TIP3   OH233214   3.606   5.963   1.067  0.2904 -0.1368  0.0670
 3908TIP3    H133215   3.700   5.961   1.049  0.3698  0.7501  0.3431
 3908TIP3    H233216   3.576   5.874   1.048  1.0565 -0.2448 -0.6815
 3909TIP3   OH233217   1.327   1.092   1.461 -0.3733 -0.2649 -0.0112
 3909TIP3    H133218   1.319   0.999   1.483 -1.0310 -0.3402 -0.5437
 3909TIP3    H233219   1.307   1.096   1.367 -0.1497  0.3865 -0.0336
 3910TIP3   OH233220   6.541   0.487   2.597  0.3829 -0.4333 -0.2249
 3910TIP3    H133221   6.492   0.519   2.673 -1.0129  0.4459 -1.4669
 3910TIP3    H233222   6.625   0.533   2.603 -0.5892  1.4903 -0.4780
 3911TIP3   OH233223   1.933   0.571  15.921  0.0062 -0.0904 -0.5242
 3911TIP3    H133224   1.888   0.564  16.005  0.3275  2.8010 -0.0243
 3911TIP3    H233225   2.018   0.528  15.936 -0.2119 -0.2187  0.4036
 3912TIP3   OH233226   2.725   0.544   5.155  0.1944  0.6731 -0.1288
 3912TIP3    H133227   2.814   0.552   5.191 -0.1598  0.7542  0.7484
 3912TIP3    H233228   2.668   0.580   5.223 -0.4894  0.9623 -0.8355
 3913TIP3   OH233229   5.952   3.601   3.084  0.2486 -0.2386 -0.2605
 3913TIP3    H133230   5.976   3.522   3.035  3.0018  1.0507 -1.1851
 3913TIP3    H233231   5.962   3.575   3.176  1.9674 -0.7582 -0.5674
 3914TIP3   OH233232   5.301   1.150  16.725 -0.1606  0.3321 -0.3678
 3914TIP3    H133233   5.258   1.207  16.661  1.1157  1.0183 -0.6413
 3914TIP3    H233234   5.302   1.201  16.806  0.8226  0.6374 -0.5652
 3915TIP3   OH233235   1.558   0.321   4.713 -0.5763  0.1678  0.0242
 3915TIP3    H133236   1.556   0.362   4.626 -1.2375  1.5301  0.6507
 3915TIP3    H233237   1.651   0.322   4.737 -0.4257  0.0759 -0.5308
 3916TIP3   OH233238   2.911   3.887   4.140  0.2454 -0.3785  0.0793
 3916TIP3    H133239   2.990   3.873   4.087 -1.2021 -1.9198 -1.8141
 3916TIP3    H233240   2.849   3.928   4.080 -0.4449  0.8345  1.5503
 3917TIP3   OH233241   2.849   4.072   2.621  0.3775  0.3551  0.5239
 3917TIP3    H133242   2.923   4.114   2.576  0.0290 -0.3670 -0.7676
 3917TIP3    H233243   2.791   4.144   2.644 -0.8454  0.5992 -2.8194
 3918TIP3   OH233244   4.024   2.655  13.410  0.2310  0.3493 -0.5029
 3918TIP3    H133245   3.961   2.714  13.370  0.9913  0.3926 -1.6781
 3918TIP3    H233246   4.020   2.675  13.504 -1.8262  0.0012 -0.4780
 3919TIP3   OH233247   6.385   3.938  13.949  0.0085 -0.1332  0.2380
 3919TIP3    H133248   6.397   3.874  14.019  2.9012 -0.2925 -0.3036
 3919TIP3    H233249   6.392   3.886  13.868 -0.0765  0.5174 -0.1932
 3920TIP3   OH233250   1.824   4.101  16.289 -0.2754  0.4250  0.3188
 3920TIP3    H133251   1.859   4.049  16.362  0.4866  1.6450  0.8554
 3920TIP3    H233252   1.810   4.188  16.327  1.1355  1.3748 -1.2594
 3921TIP3   OH233253   5.898   1.493  15.248  0.3858  0.0037  0.7734
 3921TIP3    H133254   5.875   1.404  15.220 -1.7071  0.5872  0.4589
 3921TIP3    H233255   5.868   1.498  15.338 -0.4840  0.6908  0.4623
 3922TIP3   OH233256   1.142   0.843   6.527  0.6311  0.5679  0.1663
 3922TIP3    H133257   1.084   0.861   6.453  3.2925 -0.7648 -2.4171
 3922TIP3    H233258   1.177   0.929   6.552  1.6449  0.8086 -1.9103
 3923TIP3   OH233259   4.867   5.380   2.786  0.1731  0.7671  0.2400
 3923TIP3    H133260   4.793   5.441   2.793 -0.5880 -0.1725  0.5522
 3923TIP3    H233261   4.895   5.365   2.876  1.0452  1.4394  0.1048
 3924TIP3   OH233262   4.849   1.400  15.247 -0.2445 -0.0044  0.0475
 3924TIP3    H133263   4.938   1.367  15.232 -0.5976 -2.0275  1.8572
 3924TIP3    H233264   4.850   1.430  15.338 -1.6884 -1.2180  0.5110
 3925TIP3   OH233265   6.408   0.478  11.198 -0.6916  0.4298  0.1627
 3925TIP3    H133266   6.342   0.410  11.183 -1.8049  1.1989  1.4212
 3925TIP3    H233267   6.491   0.430  11.203 -1.2752 -0.6706 -0.3398
 3926TIP3   OH233268   1.167   5.039  13.555  0.2110 -0.6013 -0.3559
 3926TIP3    H133269   1.125   5.033  13.469 -0.6310  0.8338 -0.0748
 3926TIP3    H233270   1.202   4.951  13.571 -1.9408 -1.6258 -0.9867
 3927TIP3   OH233271   0.050   6.414   1.224 -0.3284  0.2742 -0.4558
 3927TIP3    H133272  -0.040   6.421   1.193 -0.6602 -0.8697  0.1661
 3927TIP3    H233273   0.099   6.477   1.172 -1.1464 -0.4600 -2.1970
 3928TIP3   OH233274   0.358   3.819  14.147 -0.3961 -0.0994 -0.2384
 3928TIP3    H133275   0.403   3.897  14.116  1.7559 -1.7031 -1.4272
 3928TIP3    H233276   0.300   3.794  14.075 -0.0502 -0.3615 -0.4269
 3929TIP3   OH233277   5.307   3.681   4.661 -0.1287  0.4941  0.5433
 3929TIP3    H133278   5.212   3.677   4.648 -0.2110 -0.7930  1.3187
 3929TIP3    H233279   5.340   3.601   4.619  0.5279  0.5670  0.9089
 3930TIP3   OH233280   5.699   5.559  13.867  0.5031  0.8220  0.2223
 3930TIP3    H133281   5.733   5.604  13.944 -1.1371  1.4377  0.6417
 3930TIP3    H233282   5.608   5.538  13.890  0.6387 -0.9817 -0.7211
 3931TIP3   OH233283   3.160   2.338   3.819  0.2924  0.0924 -0.0210
 3931TIP3    H133284   3.230   2.395   3.850  0.2657  0.8037 -1.2152
 3931TIP3    H233285   3.100   2.331   3.893 -0.7915  3.3396 -0.4572
 3932TIP3   OH233286   2.680   4.242   5.897 -0.0919 -0.4157  0.5803
 3932TIP3    H133287   2.621   4.276   5.829  1.3343  0.7751 -0.1126
 3932TIP3    H233288   2.641   4.270   5.979 -0.1899  0.9022  0.1033
 3933TIP3   OH233289   0.090   1.030   0.661  0.1970 -0.1518  0.2043
 3933TIP3    H133290   0.159   1.088   0.630  0.6631 -0.4015  0.7581
 3933TIP3    H233291   0.091   1.040   0.757  0.2403 -1.0130  0.2981
 3934TIP3   OH233292   1.058   0.893   4.778 -0.0497 -0.1853 -0.0547
 3934TIP3    H133293   1.114   0.856   4.710  0.3934  0.4050 -0.0138
 3934TIP3    H233294   1.053   0.986   4.758 -1.6435 -0.3389 -0.4940
 3935TIP3   OH233295   1.275   0.253  13.564  1.0082  0.3380 -0.1042
 3935TIP3    H133296   1.271   0.201  13.484 -0.0980 -0.9604  0.7454
 3935TIP3    H233297   1.347   0.314  13.549  0.8270  0.1404 -2.0778
 3936TIP3   OH233298   3.354   5.321  15.525  0.0484 -0.5943  0.0979
 3936TIP3    H133299   3.393   5.243  15.566  0.2825 -0.4339  0.1803
 3936TIP3    H233300   3.409   5.393  15.554  1.3585 -0.6839 -1.9672
 3937TIP3   OH233301   3.740   0.669  16.087 -0.2017 -0.2394  0.4355
 3937TIP3    H133302   3.644   0.663  16.083 -0.4408  0.0539  3.5663
 3937TIP3    H233303   3.761   0.745  16.033 -1.6471 -0.6091 -0.7340
 3938TIP3   OH233304   3.797   0.331  15.858 -0.4905 -0.4561  0.2167
 3938TIP3    H133305   3.811   0.407  15.802 -0.1070  0.4244  1.4525
 3938TIP3    H233306   3.737   0.362  15.926  0.7717 -0.7912  1.5564
 3939TIP3   OH233307   2.728   1.860   5.686  0.2733  0.4098 -0.8225
 3939TIP3    H133308   2.777   1.935   5.719  0.6172  1.1720 -2.9027
 3939TIP3    H233309   2.735   1.794   5.755  1.8746  1.5011  0.1097
 3940TIP3   OH233310   3.243   6.746  13.715 -0.0290 -0.1677  0.1645
 3940TIP3    H133311   3.206   6.660  13.699 -0.9155  0.4410 -1.3106
 3940TIP3    H233312   3.182   6.788  13.775  0.6990 -0.7453  1.3277
 3941TIP3   OH233313   1.501   4.507   2.261 -0.3466  0.1752 -0.1200
 3941TIP3    H133314   1.567   4.520   2.330  0.9484  1.4234 -1.5290
 3941TIP3    H233315   1.449   4.587   2.262  0.2283  0.5808 -1.1274
 3942TIP3   OH233316   3.121   3.493  10.537  0.2372  0.2119  0.2310
 3942TIP3    H133317   3.212   3.513  10.517  0.1339  0.6153  0.1463
 3942TIP3    H233318   3.106   3.406  10.500 -0.0441  1.0544 -1.8223
 3943TIP3   OH233319   0.692   6.077  16.074  0.6190 -0.2273 -0.6758
 3943TIP3    H133320   0.778   6.103  16.107  0.5685 -0.8537 -0.0199
 3943TIP3    H233321   0.666   6.148  16.016  1.1214  0.4770 -0.0626
 3944TIP3   OH233322   2.808   2.983   5.205  0.1111 -0.5000  0.6448
 3944TIP3    H133323   2.805   2.964   5.111 -0.4077 -2.1750  0.9725
 3944TIP3    H233324   2.850   2.907   5.244 -4.2337 -2.4078  2.2992
 3945TIP3   OH233325   0.581   2.829   2.953 -0.0703  0.6890  0.3045
 3945TIP3    H133326   0.602   2.768   3.024  0.3822 -0.2849 -0.6411
 3945TIP3    H233327   0.659   2.882   2.943  0.9052 -0.9186 -1.1785
 3946TIP3   OH233328   6.187   2.159  11.561 -0.3991 -0.2269 -0.3163
 3946TIP3    H133329   6.205   2.183  11.470  1.1992 -1.1599 -0.2704
 3946TIP3    H233330   6.228   2.228  11.613 -1.0913  0.1679 -0.2752
 3947TIP3   OH233331   6.528   4.624  15.861 -0.0947 -0.3531 -0.5260
 3947TIP3    H133332   6.505   4.633  15.768 -0.1670  2.9209 -0.3364
 3947TIP3    H233333   6.452   4.581  15.899 -1.0421  0.1861 -1.6970
 3948TIP3   OH233334   1.704   4.086   1.528 -0.6913  0.2504  0.4010
 3948TIP3    H133335   1.722   4.007   1.580  1.0694 -0.1377 -0.6910
 3948TIP3    H233336   1.650   4.055   1.456 -1.4123  0.3899  0.8723
 3949TIP3   OH233337   4.000   2.573   5.457  0.1777  0.3017 -0.1991
 3949TIP3    H133338   4.022   2.499   5.400 -1.4039  0.7917 -1.5199
 3949TIP3    H233339   3.995   2.534   5.545  0.8475 -0.8471 -0.6453
 3950TIP3   OH233340   5.635   6.599  14.863 -0.0516  0.2486  0.4030
 3950TIP3    H133341   5.568   6.619  14.927 -0.0861 -0.4730  0.6028
 3950TIP3    H233342   5.595   6.618  14.779 -1.0774 -1.6127  0.4119
 3951TIP3   OH233343   6.686   5.851   3.499 -1.1084 -0.5000  0.4390
 3951TIP3    H133344   6.614   5.850   3.437  0.3795 -0.5431 -1.3783
 3951TIP3    H233345   6.736   5.772   3.478 -0.1673 -0.1252  1.1877
 3952TIP3   OH233346   2.138   3.439  15.359 -0.1907 -0.1007  0.5826
 3952TIP3    H133347   2.188   3.491  15.296  0.7557 -1.4548  0.1643
 3952TIP3    H233348   2.052   3.429  15.318 -0.1949  0.6487  0.3998
 3953TIP3   OH233349   5.418   6.464   5.338 -0.2771 -0.5012 -0.9062
 3953TIP3    H133350   5.443   6.379   5.374  0.3644  0.6000  1.4723
 3953TIP3    H233351   5.494   6.520   5.355 -0.1994  0.3127 -3.5067
 3954TIP3   OH233352   5.974   5.762   4.552 -0.0393 -0.5905  0.2635
 3954TIP3    H133353   6.057   5.797   4.519  0.1479 -1.4504 -0.1801
 3954TIP3    H233354   5.943   5.704   4.483 -0.4357 -1.1674  0.9174
 3955TIP3   OH233355   1.170   3.095  16.351 -0.9134 -0.6407 -0.4696
 3955TIP3    H133356   1.093   3.103  16.294 -0.6999  1.0595 -0.5460
 3955TIP3    H233357   1.221   3.174  16.334  0.2456 -1.1513  0.5068
 3956TIP3   OH233358   2.066   6.325  14.016  0.0072  0.1765  0.4935
 3956TIP3    H133359   2.159   6.329  13.992  0.2350 -1.7273  0.8662
 3956TIP3    H233360   2.026   6.272  13.947 -0.9599  1.4983 -0.0031
 3957TIP3   OH233361   1.650   2.287   1.683 -0.2632  0.1038  0.1352
 3957TIP3    H133362   1.708   2.308   1.610  1.5418  1.1102  1.7559
 3957TIP3    H233363   1.617   2.372   1.713 -1.6083 -0.3596  0.0333
 3958TIP3   OH233364   0.827   6.683  11.630 -0.1414 -0.4391  0.5257
 3958TIP3    H133365   0.900   6.739  11.654 -0.3130 -0.3748  0.9154
 3958TIP3    H233366   0.797   6.717  11.546  0.0363 -0.2266  0.5470
 3959TIP3   OH233367   0.852   1.918  13.194  0.4129 -0.4397  0.2174
 3959TIP3    H133368   0.940   1.952  13.211  1.3406 -1.8222 -1.5367
 3959TIP3    H233369   0.816   1.978  13.128  0.8518 -1.0467 -0.5847
 3960TIP3   OH233370   3.741   6.809  15.686 -0.2702  0.3108 -0.0359
 3960TIP3    H133371   3.729   6.763  15.770  1.0964 -0.3883 -0.1951
 3960TIP3    H233372   3.653   6.815  15.650 -0.7087 -0.6669  0.8009
 3961TIP3   OH233373   1.107   0.509  12.753 -0.1001  0.2056  0.1725
 3961TIP3    H133374   1.083   0.514  12.661 -1.2281 -1.0346  0.3608
 3961TIP3    H233375   1.148   0.422  12.762  0.3262  0.4626  0.7677
 3962TIP3   OH233376   2.115   6.641  14.013 -0.3350 -0.3017 -0.2043
 3962TIP3    H133377   2.123   6.548  13.993 -2.8341 -0.9965  1.4855
 3962TIP3    H233378   2.021   6.658  14.012  0.0538  2.3732 -0.9649
 3963TIP3   OH233379   5.275   6.530  15.397 -0.1603  0.4380 -0.6387
 3963TIP3    H133380   5.291   6.454  15.341 -1.0744  1.0868 -1.8190
 3963TIP3    H233381   5.318   6.603  15.352  2.0258  0.4381  1.2300
 3964TIP3   OH233382   5.776   1.815  14.307  0.1410  0.1945  0.1986
 3964TIP3    H133383   5.858   1.805  14.355  0.2510  1.1292  0.2345
 3964TIP3    H233384   5.790   1.769  14.225 -0.0997 -1.5607  1.0949
 3965TIP3   OH233385   4.741   4.306  12.097 -0.1841  0.3133 -0.2109
 3965TIP3    H133386   4.711   4.235  12.154 -0.8653 -0.3333 -1.3415
 3965TIP3    H233387   4.776   4.261  12.020 -0.6286  1.2058 -0.9500
 3966TIP3   OH233388   5.019   2.968   2.934  0.4653 -0.1501  0.0041
 3966TIP3    H133389   5.112   2.944   2.940  0.6822  0.3106 -1.1877
 3966TIP3    H233390   4.987   2.922   2.857 -0.0195  0.5398 -0.2171
 3967TIP3   OH233391   5.702   2.267  15.399 -0.0676 -0.4442 -0.4031
 3967TIP3    H133392   5.708   2.310  15.484 -0.7702  0.6300 -0.8673
 3967TIP3    H233393   5.775   2.303  15.348 -1.9555  2.0294 -1.5365
 3968TIP3   OH233394   6.372   2.887  12.512 -0.0978 -0.5909 -0.2126
 3968TIP3    H133395   6.337   2.933  12.589 -0.2745  1.9621 -1.6834
 3968TIP3    H233396   6.445   2.835  12.545 -0.5441 -0.0385  1.7587
 3969TIP3   OH233397   3.743   1.865  13.203 -0.0073  0.1756 -0.1772
 3969TIP3    H133398   3.696   1.910  13.274  1.6649  0.6096  0.7121
 3969TIP3    H233399   3.785   1.936  13.154 -0.4481 -0.1891 -1.1145
 3970TIP3   OH233400   1.161   5.316  13.196  0.4750 -0.3483  0.0492
 3970TIP3    H133401   1.168   5.410  13.217 -1.1653  0.0303 -0.8835
 3970TIP3    H233402   1.246   5.293  13.160  0.7350  0.9250 -0.2002
 3971TIP3   OH233403   5.800   1.803   3.456 -0.3130  0.0022  0.2829
 3971TIP3    H133404   5.895   1.809   3.465 -0.2232  1.0462 -1.0963
 3971TIP3    H233405   5.777   1.722   3.503  1.0928  0.3153  1.6109
 3972TIP3   OH233406   3.958   5.464   3.813 -0.0671 -0.0752  0.3067
 3972TIP3    H133407   3.982   5.393   3.753  0.2990  0.5970 -0.3530
 3972TIP3    H233408   3.876   5.435   3.853 -1.5649  0.4476 -2.1915
 3973TIP3   OH233409   2.352   3.124   3.063 -0.7993 -0.6322  0.0942
 3973TIP3    H133410   2.331   3.189   3.129 -0.1613 -2.7913  2.6063
 3973TIP3    H233411   2.431   3.081   3.096 -0.4089 -1.7985 -2.1333
 3974TIP3   OH233412   6.067   0.207  15.593  0.0193  0.2672 -0.3185
 3974TIP3    H133413   6.103   0.204  15.505 -1.3383  0.9954 -0.9158
 3974TIP3    H233414   5.973   0.193  15.582 -0.1715  0.3370  1.0182
 3975TIP3   OH233415   6.142   2.813   6.316 -0.0283  0.1175  0.9047
 3975TIP3    H133416   6.092   2.731   6.321  1.0975 -0.5731  1.2678
 3975TIP3    H233417   6.110   2.855   6.236 -0.5918 -0.7038  0.6757
 3976TIP3   OH233418   3.382   5.741   0.365 -0.1890  0.0931 -0.1146
 3976TIP3    H133419   3.353   5.819   0.413  0.2195  0.9837 -1.2354
 3976TIP3    H233420   3.478   5.743   0.373 -0.0599  0.6695 -1.5173
 3977TIP3   OH233421   4.507   6.142  10.924 -0.6173  0.5603  0.0321
 3977TIP3    H133422   4.541   6.108  10.842 -0.3730  1.0404 -0.0691
 3977TIP3    H233423   4.438   6.080  10.950  0.5205 -0.5873  0.3971
 3978TIP3   OH233424   4.580   5.827   3.975  0.4318 -0.0408  0.8316
 3978TIP3    H133425   4.507   5.870   3.931  0.9311  0.8481  0.8608
 3978TIP3    H233426   4.655   5.843   3.918  1.0407  0.9101  1.8582
 3979TIP3   OH233427   2.363   3.733  16.843 -0.5189 -1.1487 -0.1612
 3979TIP3    H133428   2.290   3.793  16.858 -0.4561 -1.0392 -0.2944
 3979TIP3    H233429   2.340   3.654  16.893 -1.8356 -2.0320 -2.0430
 3980TIP3   OH233430   3.785   4.053   3.227  0.1353 -0.3871  0.2946
 3980TIP3    H133431   3.744   3.991   3.167  2.0787 -1.8172  0.3457
 3980TIP3    H233432   3.768   4.016   3.314 -0.4724  0.3092  0.4868
 3981TIP3   OH233433   6.120   6.353  16.459 -0.6817  0.8819  0.0729
 3981TIP3    H133434   6.128   6.264  16.493 -0.1555  0.6254 -0.6914
 3981TIP3    H233435   6.140   6.345  16.365 -1.2043  1.7080 -0.1242
 3982TIP3   OH233436   3.025   3.430  15.606 -0.2131  0.3457  0.1010
 3982TIP3    H133437   3.034   3.335  15.617 -0.8764  0.2622 -0.0742
 3982TIP3    H233438   3.094   3.467  15.662  0.0965 -0.2381  0.1146
 3983TIP3   OH233439   4.109   3.892   4.498  0.3822  0.1875  0.2764
 3983TIP3    H133440   4.116   3.905   4.592 -2.6102 -1.3254  0.8534
 3983TIP3    H233441   4.141   3.802   4.484  0.5624  0.3100 -0.1079
 3984TIP3   OH233442   5.863   2.088   4.403 -0.3115  0.5535 -0.9257
 3984TIP3    H133443   5.937   2.112   4.346  1.6057 -1.8164  0.3883
 3984TIP3    H233444   5.880   2.135   4.485 -1.0617  1.0616 -1.0443
 3985TIP3   OH233445   1.225   0.232  12.913 -0.4705  0.3220  0.3895
 3985TIP3    H133446   1.238   0.213  12.820 -0.3151  2.2434 -0.0373
 3985TIP3    H233447   1.200   0.148  12.952  1.3091 -0.9299 -1.0151
 3986TIP3   OH233448   3.125   0.599  16.754  0.0084  0.1463  0.2273
 3986TIP3    H133449   3.046   0.587  16.807  0.5161 -0.2386  0.9179
 3986TIP3    H233450   3.185   0.532  16.785 -0.1728 -1.0444 -1.8391
 3987TIP3   OH233451   2.537   4.906   4.208 -0.5615  0.1781  0.7063
 3987TIP3    H133452   2.601   4.887   4.139 -1.7333 -0.5872 -0.2091
 3987TIP3    H233453   2.453   4.910   4.163 -1.0720  2.2668  1.7118
 3988TIP3   OH233454   1.652   6.041   4.584 -0.3649  0.6591  0.5052
 3988TIP3    H133455   1.682   5.950   4.581  0.2924  0.7902  2.3162
 3988TIP3    H233456   1.557   6.034   4.591 -0.2070  0.0301  2.5212
 3989TIP3   OH233457   0.057   4.578  14.323  0.0138  0.3566  0.2413
 3989TIP3    H133458  -0.023   4.530  14.344  0.9656 -0.3882  2.5435
 3989TIP3    H233459   0.126   4.529  14.368  1.8811  0.6838 -2.0629
 3990TIP3   OH233460   6.529   1.864  14.478  0.0921  0.1978  0.5200
 3990TIP3    H133461   6.564   1.776  14.465 -0.4988  0.0517 -0.1733
 3990TIP3    H233462   6.573   1.896  14.556 -0.3289 -1.0518  1.3081
 3991TIP3   OH233463   3.404   2.160  12.837 -0.5552 -0.6438  0.1759
 3991TIP3    H133464   3.482   2.177  12.783 -1.7229  1.0273 -1.1062
 3991TIP3    H233465   3.369   2.247  12.856 -1.9033 -1.3502  1.0666
 3992TIP3   OH233466   4.510   2.507   3.905  0.4465 -0.0404  0.3189
 3992TIP3    H133467   4.460   2.486   3.984 -1.2395  1.0998 -0.3872
 3992TIP3    H233468   4.561   2.584   3.929 -1.0374  1.0944 -0.0322
 3993TIP3   OH233469   3.012   5.955   3.898  0.2088 -0.2130  0.3467
 3993TIP3    H133470   3.092   5.923   3.856  0.5010 -0.0133  0.7472
 3993TIP3    H233471   3.033   6.045   3.923 -0.8000  0.5352 -1.3028
 3994TIP3   OH233472   0.322   4.269   1.773  0.3175  0.1246  0.0811
 3994TIP3    H133473   0.252   4.212   1.808  2.5019 -1.6729  1.8892
 3994TIP3    H233474   0.328   4.341   1.836  1.5140 -0.9377  1.2541
 3995TIP3   OH233475   0.174   1.761   3.847 -0.0257 -0.6818  0.0402
 3995TIP3    H133476   0.222   1.785   3.926 -0.0312  3.0028 -0.9131
 3995TIP3    H233477   0.086   1.738   3.879 -0.3101  1.6263  1.1597
 3996TIP3   OH233478   0.350   6.520   1.392 -0.0118  0.2318 -0.1459
 3996TIP3    H133479   0.388   6.593   1.441 -0.6425 -0.6060  1.6981
 3996TIP3    H233480   0.309   6.561   1.316 -2.2329  2.1422  1.9234
 3997TIP3   OH233481   2.513   4.575  16.430 -0.0716 -0.8593  0.1111
 3997TIP3    H133482   2.524   4.647  16.369  0.3672 -1.2380 -0.2587
 3997TIP3    H233483   2.526   4.496  16.378 -1.5336 -1.2545  0.2822
 3998TIP3   OH233484   2.077   5.294   0.372  0.2750  0.3097  0.2050
 3998TIP3    H133485   2.067   5.348   0.294 -1.7632 -1.6933 -1.0496
 3998TIP3    H233486   2.072   5.356   0.445 -0.4514  1.9664 -1.1821
 3999TIP3   OH233487   5.807   1.141   5.357  0.1132 -0.0348  0.0616
 3999TIP3    H133488   5.798   1.222   5.408 -0.4413 -0.0009 -0.0917
 3999TIP3    H233489   5.805   1.170   5.266  1.0238 -0.1050  0.0110
 4000TIP3   OH233490   3.162   2.228   2.280 -0.5314  0.6677  0.2755
 4000TIP3    H133491   3.176   2.292   2.349 -0.9728  0.8729  0.1843
 4000TIP3    H233492   3.202   2.267   2.202  0.9645 -0.0618  0.6398
 4001TIP3   OH233493   1.582   5.667   2.263  0.0622 -0.7587 -0.5900
 4001TIP3    H133494   1.597   5.761   2.261 -0.7379 -0.6316 -1.3116
 4001TIP3    H233495   1.516   5.655   2.332  0.1958 -0.7919 -0.4687
 4002TIP3   OH233496   1.109   6.652   2.568 -0.0419  0.0750  0.4473
 4002TIP3    H133497   1.035   6.682   2.516  0.0816 -2.0436 -1.0995
 4002TIP3    H233498   1.185   6.668   2.512  0.3157 -0.4481  0.7716
 4003TIP3   OH233499   3.480   3.026  15.284 -0.4207 -0.4164  0.0320
 4003TIP3    H133500   3.501   2.951  15.339  1.8539 -0.0084 -0.1695
 4003TIP3    H233501   3.542   3.021  15.212 -1.3605  0.7264 -0.8948
 4004TIP3   OH233502   5.067   4.626  16.866  0.1716  0.1266 -0.3817
 4004TIP3    H133503   5.148   4.676  16.851  0.5383  0.3175  1.8673
 4004TIP3    H233504   5.089   4.568  16.939 -1.3263 -0.8135 -0.6563
 4005TIP3   OH233505   2.366   0.880   4.185 -0.0586  0.7407  0.0067
 4005TIP3    H133506   2.340   0.865   4.094 -1.2566  1.2555  0.2397
 4005TIP3    H233507   2.443   0.825   4.197 -0.4487 -0.0838 -1.0411
 4006TIP3   OH233508   4.848   4.120  15.153 -0.4060 -0.0985 -0.2600
 4006TIP3    H133509   4.868   4.055  15.086 -1.3977 -0.1313 -0.5419
 4006TIP3    H233510   4.883   4.083  15.234  1.7284  0.3963 -0.8761
 4007TIP3   OH233511   4.879   3.799  15.951  0.4868  0.2080 -0.5762
 4007TIP3    H133512   4.853   3.891  15.951  1.2923  0.4469  0.5284
 4007TIP3    H233513   4.974   3.800  15.947  0.9083 -0.3698  3.9350
 4008TIP3   OH233514   0.624   3.397  13.408 -0.2368  0.0674 -0.2156
 4008TIP3    H133515   0.605   3.465  13.473  0.1311  0.7588 -0.8252
 4008TIP3    H233516   0.720   3.387  13.412 -0.3422 -0.9032  0.3441
 4009TIP3   OH233517   1.256   1.340  15.390 -0.0639 -0.5899 -0.1678
 4009TIP3    H133518   1.233   1.266  15.333  1.0821 -1.2952  0.2439
 4009TIP3    H233519   1.187   1.342  15.455 -0.2039 -1.1980 -0.2848
 4010TIP3   OH233520   2.689   6.605   4.351  0.0050  0.0041 -0.1024
 4010TIP3    H133521   2.733   6.681   4.388 -0.2817  0.2171 -0.1915
 4010TIP3    H233522   2.742   6.581   4.275  0.6026 -0.4462  0.4450
 4011TIP3   OH233523   6.579   3.569  11.420  0.0434  0.3309 -0.4225
 4011TIP3    H133524   6.606   3.601  11.507 -2.0335  1.0299  0.0301
 4011TIP3    H233525   6.659   3.571  11.368  0.8824  2.1866  0.8216
 4012TIP3   OH233526   6.813   1.399   5.158  0.0467 -0.8601  0.1271
 4012TIP3    H133527   6.879   1.330   5.151  0.4237 -0.5558  0.6251
 4012TIP3    H233528   6.802   1.413   5.252  0.5839  0.3303  0.0351
 4013TIP3   OH233529   6.149   5.934   2.020 -0.4513  0.5941  0.2104
 4013TIP3    H133530   6.211   5.862   2.018  1.2598  2.0081 -0.1576
 4013TIP3    H233531   6.145   5.960   2.112  0.8705  1.5759  0.0222
 4014TIP3   OH233532   4.146   2.948  11.253 -0.5053 -0.3063 -0.1828
 4014TIP3    H133533   4.113   3.001  11.326 -0.1429 -0.2738 -0.0386
 4014TIP3    H233534   4.234   2.984  11.236 -0.7775  0.0131 -0.9645
 4015TIP3   OH233535   4.072   0.426   3.572 -0.5598 -0.3927 -0.4129
 4015TIP3    H133536   3.996   0.404   3.626 -1.1015 -0.8129 -1.3180
 4015TIP3    H233537   4.108   0.505   3.613 -2.0179  0.3457 -0.4621
 4016TIP3   OH233538   2.865   0.673   4.139 -0.9670  0.1522  0.6571
 4016TIP3    H133539   2.838   0.625   4.060 -1.5790  0.4737  0.6676
 4016TIP3    H233540   2.833   0.762   4.125 -1.0536  0.2163  1.2581
 4017TIP3   OH233541   3.352   2.411   6.292  0.0819 -0.3276 -0.2166
 4017TIP3    H133542   3.425   2.469   6.316 -0.7073  0.6011 -0.0264
 4017TIP3    H233543   3.387   2.323   6.306  0.2524  0.1139  2.6762
 4018TIP3   OH233544   3.118   1.937  12.194  0.4613  0.1658  0.1654
 4018TIP3    H133545   3.168   1.885  12.257 -1.8980 -2.8111 -0.2173
 4018TIP3    H233546   3.167   1.928  12.111  1.5730  1.0092  0.6982
 4019TIP3   OH233547   4.055   0.559  11.435  0.2673 -0.1751  0.3374
 4019TIP3    H133548   3.961   0.547  11.451  0.0987  0.6477  0.0107
 4019TIP3    H233549   4.067   0.532  11.344  1.2106 -4.7797  1.5439
 4020TIP3   OH233550   1.265   4.275   2.319 -0.2007  0.2658 -0.0581
 4020TIP3    H133551   1.280   4.357   2.365  0.0607  0.0185  0.3056
 4020TIP3    H233552   1.171   4.274   2.302 -0.9768 -1.1119  3.3986
 4021TIP3   OH233553   5.355   4.917   2.118  0.0601  0.0705  0.0790
 4021TIP3    H133554   5.276   4.883   2.161  0.3645  0.3998  0.9354
 4021TIP3    H233555   5.339   4.906   2.025 -0.9784  0.0864  0.2480
 4022TIP3   OH233556   6.556   6.290  12.341 -0.0451 -0.0130 -0.5071
 4022TIP3    H133557   6.550   6.199  12.372  0.8554 -1.4361 -3.9551
 4022TIP3    H233558   6.501   6.291  12.263  0.2821  2.3257 -0.7554
 4023TIP3   OH233559   5.894   1.718  16.772 -0.1591 -0.8492 -0.1405
 4023TIP3    H133560   5.868   1.807  16.799  0.4744 -0.5357 -0.5427
 4023TIP3    H233561   5.908   1.726  16.677  0.2679 -1.2910 -0.1128
 4024TIP3   OH233562   4.976   2.155   2.384 -0.2204 -0.3191  0.1339
 4024TIP3    H133563   4.900   2.183   2.435 -0.5909 -1.6397  0.3532
 4024TIP3    H233564   5.048   2.155   2.447 -0.0233  0.8776 -0.0597
 4025TIP3   OH233565   6.724   4.616   1.776 -0.0874 -0.0116 -0.0175
 4025TIP3    H133566   6.776   4.681   1.730 -0.0780 -1.3695 -2.0440
 4025TIP3    H233567   6.766   4.608   1.862  0.9497  1.3488 -0.3654
 4026TIP3   OH233568   4.838   0.925  16.158 -0.3472 -0.0189  0.1108
 4026TIP3    H133569   4.875   0.850  16.112 -1.0816  0.2907 -1.0238
 4026TIP3    H233570   4.903   0.948  16.224  0.8476 -0.3383 -0.9269
 4027TIP3   OH233571   2.232   6.624   1.620  0.2070  0.3568  0.2656
 4027TIP3    H133572   2.176   6.597   1.547  0.7941  0.3449 -0.1897
 4027TIP3    H233573   2.181   6.605   1.698  0.3073 -1.3931 -0.0606
 4028TIP3   OH233574   4.788   3.903  16.919 -0.0347 -0.1213  0.3619
 4028TIP3    H133575   4.791   3.959  16.997  0.4771 -0.3019  0.4708
 4028TIP3    H233576   4.848   3.944  16.857  1.4201 -1.3050  0.9470
 4029TIP3   OH233577   6.012   6.825  13.865 -0.3009 -0.1817  0.1953
 4029TIP3    H133578   5.920   6.826  13.892 -0.8049  0.4051 -1.4170
 4029TIP3    H233579   6.049   6.904  13.905 -0.6799 -0.0365  0.2667
 4030TIP3   OH233580   4.209   0.300   5.292 -0.5643 -0.0734  0.3766
 4030TIP3    H133581   4.169   0.222   5.253 -0.3942 -0.0744  0.2051
 4030TIP3    H233582   4.189   0.293   5.385 -0.7664 -0.1928  0.3244
 4031TIP3   OH233583   3.006   3.623   5.574 -0.2360 -0.0793  0.9170
 4031TIP3    H133584   2.932   3.602   5.517  1.1225 -1.4224 -0.4543
 4031TIP3    H233585   3.060   3.544   5.575  2.6905  1.6811 -0.5916
 4032TIP3   OH233586   2.386   1.599  13.403 -0.5323 -0.4278  0.1451
 4032TIP3    H133587   2.430   1.665  13.350 -3.0471  0.0860 -1.4609
 4032TIP3    H233588   2.323   1.558  13.344 -1.8812 -1.4577  2.1562
 4033TIP3   OH233589   0.955   1.227  16.477  0.5242 -0.1271  0.1767
 4033TIP3    H133590   0.947   1.140  16.516 -0.7800 -0.1371 -0.0660
 4033TIP3    H233591   0.981   1.211  16.386 -0.3762 -0.3094 -0.0562
 4034TIP3   OH233592   5.505   0.569  12.170 -0.4320 -0.1403  0.1036
 4034TIP3    H133593   5.487   0.599  12.260 -0.3655 -3.9790  1.5705
 4034TIP3    H233594   5.418   0.556  12.132 -0.4674  0.1628  0.0710
 4035TIP3   OH233595   0.327   2.937   5.118  0.0231  0.2092 -0.2612
 4035TIP3    H133596   0.294   2.860   5.073  0.8040 -0.7066  0.6593
 4035TIP3    H233597   0.254   2.967   5.172  0.0576 -0.6218  0.2744
 4036TIP3   OH233598   3.221   6.000   5.258  0.6357 -0.5222 -0.2724
 4036TIP3    H133599   3.157   5.956   5.314 -0.6822  0.3702 -1.0226
 4036TIP3    H233600   3.260   6.067   5.314 -0.2295 -0.0419 -0.2248
 4037TIP3   OH233601   5.229   5.857  15.250  0.3830  0.1879  0.2892
 4037TIP3    H133602   5.178   5.924  15.204  0.8716  1.0353  0.9496
 4037TIP3    H233603   5.172   5.780  15.251  0.1139  0.3460 -1.1536
 4038TIP3   OH233604   2.503   5.930  12.796 -0.2713  0.6723 -0.5707
 4038TIP3    H133605   2.493   5.928  12.891  1.7961 -2.1005 -0.2795
 4038TIP3    H233606   2.555   6.008  12.779 -0.9235  1.3721  0.5193
 4039TIP3   OH233607   6.680   6.207  17.043  0.6862 -0.0812 -0.4279
 4039TIP3    H133608   6.743   6.139  17.019  1.7600  0.9396 -0.5702
 4039TIP3    H233609   6.670   6.260  16.964  2.0620  1.6113  0.4824
 4040TIP3   OH233610   1.140   6.480  15.276 -0.1616 -0.4745 -0.0210
 4040TIP3    H133611   1.080   6.510  15.208  1.4417 -2.1953 -2.3519
 4040TIP3    H233612   1.208   6.547  15.280 -0.5976 -0.0445  0.4196
 4041TIP3   OH233613   0.397   4.001   1.502 -0.4147 -0.1109 -0.4567
 4041TIP3    H133614   0.345   4.073   1.467 -1.3865 -0.5135  0.1215
 4041TIP3    H233615   0.422   3.950   1.425 -0.9722  0.0232 -0.7308
 4042TIP3   OH233616   1.729   3.214   3.047  0.5093  0.8876 -0.0039
 4042TIP3    H133617   1.708   3.216   2.953  3.5452 -2.3191 -0.9719
 4042TIP3    H233618   1.823   3.195   3.050  0.3332 -0.1728  3.7204
 4043TIP3   OH233619   3.447   3.341  11.245  0.3372  0.6400 -0.7322
 4043TIP3    H133620   3.487   3.328  11.331 -0.1282  0.0242 -0.6057
 4043TIP3    H233621   3.471   3.431  11.221 -0.1035  1.0645  0.3450
 4044TIP3   OH233622   5.642   1.461  12.846 -0.1157  0.5476 -0.8208
 4044TIP3    H133623   5.600   1.435  12.764  0.6391 -0.8663 -0.7865
 4044TIP3    H233624   5.571   1.462  12.911 -0.7857  2.0239 -1.5355
 4045TIP3   OH233625   1.616   0.095   0.306  0.3182  0.3688  0.0101
 4045TIP3    H133626   1.635   0.010   0.346  1.7958  0.3956 -0.5898
 4045TIP3    H233627   1.558   0.138   0.369 -0.6278 -1.1368  0.2341
 4046TIP3   OH233628   3.298   2.183  11.201 -0.3487  0.6248 -0.5236
 4046TIP3    H133629   3.245   2.230  11.136 -1.5680 -0.6072 -0.4494
 4046TIP3    H233630   3.315   2.098  11.161  0.9872  0.7336 -0.2299
 4047TIP3   OH233631   0.085   4.788   1.660 -0.1816  0.1913 -0.1161
 4047TIP3    H133632   0.054   4.828   1.578  2.3798  0.8080 -0.8616
 4047TIP3    H233633   0.164   4.836   1.682  1.0769 -2.1813  0.8676
 4048TIP3   OH233634   0.559   2.754  15.175  0.2595 -0.8982  0.3702
 4048TIP3    H133635   0.514   2.673  15.197  2.1215 -0.9957  4.9082
 4048TIP3    H233636   0.621   2.730  15.106 -2.3945 -2.0366 -1.8243
 4049TIP3   OH233637   1.549   4.348   2.602 -0.2436  0.1344  0.0570
 4049TIP3    H133638   1.558   4.270   2.657 -1.8739 -0.7977 -0.9007
 4049TIP3    H233639   1.562   4.421   2.661 -1.2834 -0.8417  1.5555
 4050TIP3   OH233640   0.712   0.017  10.849 -0.6475 -0.3424  0.2575
 4050TIP3    H133641   0.644  -0.020  10.794 -0.4106  0.0771 -0.3429
 4050TIP3    H233642   0.685   0.108  10.862 -0.0749 -0.0976 -0.2160
 4051TIP3   OH233643   1.876   4.662  16.945  0.1975 -0.4242  0.8717
 4051TIP3    H133644   1.932   4.648  17.021  0.6832 -1.9237  0.2727
 4051TIP3    H233645   1.935   4.696  16.878  0.0502 -0.3733  0.7687
 4052TIP3   OH233646   3.575   5.210   6.206 -0.7177 -0.1864 -0.6214
 4052TIP3    H133647   3.516   5.148   6.249 -1.5900  0.6196 -0.6284
 4052TIP3    H233648   3.646   5.155   6.173 -1.6426 -1.2485 -0.9508
 4053TIP3   OH233649   2.164   3.223   0.039  0.1232 -0.0158  0.6433
 4053TIP3    H133650   2.222   3.205  -0.035 -2.4120  1.9765 -2.0922
 4053TIP3    H233651   2.122   3.139   0.058  1.0402 -0.6289  0.0337
 4054TIP3   OH233652   0.127   4.642  11.261 -0.2348 -0.2527  0.0915
 4054TIP3    H133653   0.036   4.669  11.251 -0.5011 -1.1276  0.0509
 4054TIP3    H233654   0.129   4.552  11.228  0.1078 -1.1285  2.3606
 4055TIP3   OH233655   1.629   5.217  10.605  0.2832  0.5644  0.2288
 4055TIP3    H133656   1.627   5.254  10.517 -1.5275  1.7230  0.7058
 4055TIP3    H233657   1.537   5.210  10.630  0.7124 -1.0530  1.5191
 4056TIP3   OH233658   0.991   1.224   5.550 -0.9794 -0.6658 -0.2802
 4056TIP3    H133659   1.000   1.256   5.640  1.1368 -0.6255 -0.4441
 4056TIP3    H233660   0.898   1.231   5.531 -1.2982  0.5554  1.4608
 4057TIP3   OH233661   4.485   4.492   4.526 -0.3632 -0.2329  0.3871
 4057TIP3    H133662   4.416   4.508   4.590 -2.5125  1.4651 -2.1526
 4057TIP3    H233663   4.529   4.577   4.516  0.2964 -0.6103 -0.0032
 4058TIP3   OH233664   5.478   3.871   3.033 -0.0127  0.0025 -0.5071
 4058TIP3    H133665   5.570   3.844   3.032  2.1927  5.8419  0.2982
 4058TIP3    H233666   5.456   3.876   3.126 -0.1357  1.1004 -0.5823
 4059TIP3   OH233667   1.662   0.375   0.629  0.0710 -0.1685 -0.4730
 4059TIP3    H133668   1.710   0.457   0.617 -3.0645  1.9004 -0.1685
 4059TIP3    H233669   1.572   0.397   0.606 -0.9732 -3.5117 -0.0806
 4060TIP3   OH233670   6.615   5.292   3.937  0.0355 -0.2869  0.4524
 4060TIP3    H133671   6.559   5.336   4.000 -1.5603 -1.4228 -0.0926
 4060TIP3    H233672   6.593   5.332   3.853  0.5998 -0.2396  0.3182
 4061TIP3   OH233673   0.830   5.627   5.168 -0.1270 -0.2512 -0.4049
 4061TIP3    H133674   0.822   5.697   5.232  0.9765 -1.0844  0.6876
 4061TIP3    H233675   0.882   5.560   5.212 -0.5124 -1.4384 -1.6872
 4062TIP3   OH233676   1.440   5.329  14.576  0.1088 -0.1990 -0.1403
 4062TIP3    H133677   1.518   5.285  14.610 -0.4581 -1.0624  0.0758
 4062TIP3    H233678   1.474   5.405  14.530  1.0437 -0.2710  0.4047
 4063TIP3   OH233679   5.821   0.489  14.681 -0.2944  0.3590  0.1408
 4063TIP3    H133680   5.736   0.501  14.638  0.0010  0.0805 -0.5351
 4063TIP3    H233681   5.808   0.414  14.739 -0.4126  0.0801 -0.2421
 4064TIP3   OH233682   2.556   2.941   2.929  0.0278 -0.5351  0.0327
 4064TIP3    H133683   2.556   2.906   3.018  0.8269  0.6274  0.5152
 4064TIP3    H233684   2.648   2.960   2.911 -0.2199 -0.0469 -0.7428
 4065TIP3   OH233685   6.571   3.770   0.336  0.1505  0.1263 -0.5852
 4065TIP3    H133686   6.659   3.776   0.373  1.0663 -2.6435 -2.0590
 4065TIP3    H233687   6.512   3.781   0.410  1.7879 -0.4253  0.8442
 4066TIP3   OH233688   4.905   2.500  15.710  0.1746 -0.0117  0.5432
 4066TIP3    H133689   4.933   2.578  15.661 -0.3899 -0.6018 -0.7692
 4066TIP3    H233690   4.948   2.427  15.665 -1.3545 -0.6844  0.1122
 4067TIP3   OH233691   3.610   2.923  16.224 -0.3325 -0.5218  0.2308
 4067TIP3    H133692   3.591   2.865  16.150  1.3949 -2.3037  1.0782
 4067TIP3    H233693   3.702   2.946  16.213 -0.6805  1.1766  0.5551
 4068TIP3   OH233694   2.078   1.134   2.345  0.1764 -0.2919  0.2884
 4068TIP3    H133695   2.084   1.168   2.434 -0.0888  0.5638 -0.0087
 4068TIP3    H233696   2.125   1.051   2.347 -0.4626 -0.6457  1.4072
 4069TIP3   OH233697   5.135   5.445  12.093  0.0697 -0.3580  0.0522
 4069TIP3    H133698   5.106   5.434  12.183 -1.0299 -0.9901 -0.3500
 4069TIP3    H233699   5.120   5.360  12.052  1.4342 -0.3604 -0.5019
 4070TIP3   OH233700   6.229   0.890   2.607  0.0281  0.0681 -0.3934
 4070TIP3    H133701   6.141   0.852   2.607  0.3827 -0.7750 -0.4834
 4070TIP3    H233702   6.241   0.921   2.697 -1.0491  1.8835 -0.8181
 4071TIP3   OH233703   1.398   3.383  16.461 -0.3001  0.1006  0.2409
 4071TIP3    H133704   1.333   3.384  16.391 -0.8647 -1.8393  0.6728
 4071TIP3    H233705   1.435   3.295  16.458 -0.1074  0.0659  2.1567
 4072TIP3   OH233706   6.435   5.446   4.111  0.1290 -0.0352  0.7240
 4072TIP3    H133707   6.393   5.488   4.186 -0.1791  1.5702 -0.2999
 4072TIP3    H233708   6.462   5.519   4.055  0.2130 -1.1910 -0.7939
 4073TIP3   OH233709   1.862   3.271  12.892 -0.2090 -0.0992  0.0104
 4073TIP3    H133710   1.942   3.322  12.883  0.2216 -1.0736 -2.0300
 4073TIP3    H233711   1.850   3.262  12.987  1.7111  0.6218  0.3575
 4074TIP3   OH233712   3.332   3.132  15.670 -0.1376  0.0239  0.1780
 4074TIP3    H133713   3.249   3.162  15.633 -0.5888  0.7092  1.6857
 4074TIP3    H233714   3.315   3.122  15.763  0.6487 -2.7121  0.1300
 4075TIP3   OH233715   4.520   2.985  10.913  0.0351  0.0200  0.7738
 4075TIP3    H133716   4.469   3.060  10.940  0.3735  0.9991 -1.1389
 4075TIP3    H233717   4.512   2.983  10.818  2.9410 -0.1785  0.4272
 4076TIP3   OH233718   3.550   4.904   6.582 -0.3552  0.3626  0.7812
 4076TIP3    H133719   3.526   4.975   6.521 -0.9508  1.4864  2.2655
 4076TIP3    H233720   3.624   4.939   6.630  0.2102 -0.5851  0.6083
 4077TIP3   OH233721   1.964   1.004   3.392  0.4745  0.1790 -0.2201
 4077TIP3    H133722   2.051   1.035   3.366  1.1524 -0.9969  0.5607
 4077TIP3    H233723   1.980   0.916   3.428 -1.2327 -0.6993 -1.4715
 4078TIP3   OH233724   4.641   2.168   3.253  0.2204  0.3213 -0.4031
 4078TIP3    H133725   4.551   2.193   3.274 -0.2817 -0.0331 -1.9779
 4078TIP3    H233726   4.686   2.252   3.238  0.6693  0.6122  2.0543
 4079TIP3   OH233727   4.310   2.890   3.480 -0.1178 -0.0970  0.0530
 4079TIP3    H133728   4.216   2.879   3.467 -0.2314  1.2175 -0.3322
 4079TIP3    H233729   4.321   2.980   3.509  0.9923 -0.3613  0.5161
 4080TIP3   OH233730   0.177   3.950   5.509  0.2912 -0.3923 -0.3960
 4080TIP3    H133731   0.177   3.922   5.601  2.7838  2.4252  0.6463
 4080TIP3    H233732   0.148   4.041   5.512  1.5497  0.1184 -2.2296
 4081TIP3   OH233733   2.403   3.777  11.898  0.4383 -0.7105 -0.4502
 4081TIP3    H133734   2.499   3.770  11.904  0.2960 -1.3135  2.0843
 4081TIP3    H233735   2.388   3.851  11.839  2.4699 -0.2135 -0.4193
 4082TIP3   OH233736   6.668   4.943  16.475  0.5273 -0.7930  0.1475
 4082TIP3    H133737   6.687   4.929  16.383  0.7583 -1.3306  0.2765
 4082TIP3    H233738   6.743   4.992  16.508  0.7013 -1.0764  0.1738
 4083TIP3   OH233739   2.013   4.880  10.228  0.7772 -0.2107  0.7294
 4083TIP3    H133740   1.965   4.939  10.170  2.3448 -0.4279 -0.8380
 4083TIP3    H233741   2.026   4.932  10.308  1.7728  1.4528 -0.4537
 4084TIP3   OH233742   1.108   6.717  11.107  0.2428 -0.1066 -0.0169
 4084TIP3    H133743   1.053   6.694  11.033 -0.1667  1.3312 -0.1917
 4084TIP3    H233744   1.183   6.763  11.067  0.3235  0.1317  0.4040
 4085TIP3   OH233745   3.640   2.874   0.364 -0.5735  0.3169 -0.1538
 4085TIP3    H133746   3.709   2.841   0.421 -1.4490  1.1532  1.4680
 4085TIP3    H233747   3.672   2.859   0.275  1.6345  0.5907  0.5455
 4086TIP3   OH233748   4.336   2.457   5.815  0.1946 -0.0641  0.1023
 4086TIP3    H133749   4.394   2.527   5.784 -0.6153  0.2583 -0.7051
 4086TIP3    H233750   4.397   2.388   5.846  1.0716 -0.4847 -2.3694
 4087TIP3   OH233751   1.836   1.379   3.916  0.1364  0.1132 -0.2104
 4087TIP3    H133752   1.791   1.297   3.938 -1.8981  1.2585  0.1086
 4087TIP3    H233753   1.879   1.361   3.832 -1.5032 -0.8641 -0.8856
 4088TIP3   OH233754   1.954   2.593  14.252 -0.1533 -0.1817 -0.5463
 4088TIP3    H133755   2.000   2.522  14.208 -0.0215 -1.3065  1.2644
 4088TIP3    H233756   1.891   2.549  14.310 -0.3059  1.1724  0.3852
 4089TIP3   OH233757   5.603   4.277   0.238  0.4367  0.2802 -0.4519
 4089TIP3    H133758   5.508   4.270   0.227  0.4103  0.9550 -0.7274
 4089TIP3    H233759   5.635   4.188   0.228 -0.1254  0.1097 -0.7986
 4090TIP3   OH233760   1.515   1.509  14.272 -0.2572 -0.3384  0.3570
 4090TIP3    H133761   1.480   1.575  14.332 -3.0665 -2.1291  0.8993
 4090TIP3    H233762   1.483   1.535  14.185 -0.5547 -0.4653  0.4277
 4091TIP3   OH233763   3.897   5.262  12.341  0.6678  0.0037 -0.3057
 4091TIP3    H133764   3.856   5.228  12.421  0.2888 -0.4081 -0.6716
 4091TIP3    H233765   3.945   5.188  12.305 -0.7463 -0.3959 -1.4883
 4092TIP3   OH233766   1.812   3.031  12.802  0.0362  0.3604 -0.0156
 4092TIP3    H133767   1.802   3.124  12.821 -1.1122  0.1176  0.6454
 4092TIP3    H233768   1.905   3.021  12.781  0.4058  1.4539  0.9857
 4093TIP3   OH233769   3.160   4.817   0.863 -0.4577  0.5681 -0.0140
 4093TIP3    H133770   3.244   4.773   0.871 -0.9647 -0.5587 -0.5401
 4093TIP3    H233771   3.175   4.905   0.895  0.7164  0.1404  0.6566
 4094TIP3   OH233772   3.353   6.021   1.905 -0.6335  0.2117 -0.0321
 4094TIP3    H133773   3.307   6.008   1.823 -0.8132 -0.7575  0.2026
 4094TIP3    H233774   3.433   6.067   1.881  0.0833 -1.4529 -0.9942
 4095TIP3   OH233775   0.212   3.996   6.625  0.3348  0.7105  0.3445
 4095TIP3    H133776   0.184   4.085   6.605  0.9247  1.1423  1.3558
 4095TIP3    H233777   0.148   3.964   6.689  0.0919  0.3762 -0.0575
 4096TIP3   OH233778   3.355   5.299  11.819 -0.2220 -0.0716  0.4700
 4096TIP3    H133779   3.414   5.278  11.891  1.9186  0.3809 -1.0569
 4096TIP3    H233780   3.325   5.388  11.837  1.3168  0.5362  0.2177
 4097TIP3   OH233781   5.607   2.181  13.048  0.6776  0.1574 -0.4045
 4097TIP3    H133782   5.619   2.252  13.110 -0.1359 -0.4551  0.4858
 4097TIP3    H233783   5.614   2.101  13.101  0.4741 -0.3978 -1.1890
 4098TIP3   OH233784   1.232   4.544   3.320 -0.0650 -0.1755 -0.1262
 4098TIP3    H133785   1.194   4.461   3.349  0.8499  0.1691  2.3494
 4098TIP3    H233786   1.288   4.572   3.393 -0.4005  2.6639 -0.8194
 4099TIP3   OH233787   5.480   6.553   3.196 -0.2364 -0.1485  0.0406
 4099TIP3    H133788   5.425   6.609   3.250 -0.8018 -1.2138  0.6054
 4099TIP3    H233789   5.500   6.478   3.252  0.3223 -0.6175 -0.7631
 4100TIP3   OH233790   2.236   0.559  14.446  0.1398 -0.3511  0.1203
 4100TIP3    H133791   2.288   0.517  14.515  0.2311  0.8064  0.7770
 4100TIP3    H233792   2.262   0.651  14.449 -0.1761 -0.1986 -1.1802
 4101TIP3   OH233793   6.195   4.460  11.488  0.2613 -0.5659  0.0302
 4101TIP3    H133794   6.156   4.435  11.404 -0.8832  0.5730  0.2101
 4101TIP3    H233795   6.162   4.548  11.505  2.7467  0.3923  0.3056
 4102TIP3   OH233796   5.008   5.579  16.142 -0.3743  0.2962 -1.0076
 4102TIP3    H133797   5.071   5.588  16.070 -0.3368  1.3122 -0.8562
 4102TIP3    H233798   5.018   5.659  16.193 -0.6264 -0.2782 -0.0404
 4103TIP3   OH233799   3.129   6.167   5.010  0.0124  0.2781  0.4876
 4103TIP3    H133800   3.092   6.126   4.932 -0.0788  0.7027  0.3042
 4103TIP3    H233801   3.095   6.114   5.083  1.3038 -1.0238  0.1742
 4104TIP3   OH233802   3.177   4.340   5.748 -0.1767  0.1004 -0.4036
 4104TIP3    H133803   3.118   4.416   5.744 -0.0965  0.1127 -1.4634
 4104TIP3    H233804   3.119   4.265   5.756 -0.2369  0.3168  1.8180
 4105TIP3   OH233805   5.611   6.630   0.771 -0.1440 -0.1022  0.2861
 4105TIP3    H133806   5.605   6.723   0.791 -0.8597 -0.2942  1.0200
 4105TIP3    H233807   5.704   6.611   0.771  0.0503  0.7572 -0.5931
 4106TIP3   OH233808   1.319   1.673   0.089 -0.1551  0.1094 -0.1817
 4106TIP3    H133809   1.342   1.612   0.160  3.4865  1.3784 -0.1005
 4106TIP3    H233810   1.350   1.629   0.010 -0.5420  0.4405 -0.5149
 4107TIP3   OH233811   4.810   3.117  14.562  0.1089 -0.2921  0.4400
 4107TIP3    H133812   4.724   3.093  14.528  0.0938  0.3158  0.0418
 4107TIP3    H233813   4.868   3.111  14.487  0.4447 -0.8159  0.7332
 4108TIP3   OH233814   1.191   5.770  13.776 -0.0785 -0.2088 -0.3498
 4108TIP3    H133815   1.168   5.693  13.829  0.2123  0.5739  0.9516
 4108TIP3    H233816   1.159   5.749  13.688 -1.7219 -1.0131  0.4098
 4109TIP3   OH233817   4.051   3.886   4.767 -0.1512  0.6718 -0.0361
 4109TIP3    H133818   4.102   3.918   4.841  0.1804 -0.4188  0.2207
 4109TIP3    H233819   3.969   3.856   4.806  0.9400 -2.1470  0.2982
 4110TIP3   OH233820   6.207   6.259   4.715 -0.2185 -0.3477 -0.4331
 4110TIP3    H133821   6.251   6.175   4.706 -0.4135 -0.4665 -0.3096
 4110TIP3    H233822   6.153   6.267   4.637 -0.7026 -0.6453 -0.1363
 4111TIP3   OH233823   1.637   4.553  10.993 -0.8046  0.6109 -0.0814
 4111TIP3    H133824   1.662   4.543  10.901  0.1315  1.8134  0.0194
 4111TIP3    H233825   1.718   4.581  11.037 -0.5473 -2.2756  1.5814
 4112TIP3   OH233826   5.061   6.359  14.229 -0.1063 -0.0813  0.2482
 4112TIP3    H133827   5.137   6.315  14.191  0.7542  0.7952  0.8855
 4112TIP3    H233828   4.986   6.307  14.201  0.4552  0.4390 -2.5128
 4113TIP3   OH233829   6.172   4.004   6.236 -0.9277 -0.2037 -0.2217
 4113TIP3    H133830   6.133   3.998   6.323  0.0852 -0.2865  0.2489
 4113TIP3    H233831   6.101   4.032   6.179 -1.8160 -1.0065  0.4717
 4114TIP3   OH233832   0.397   6.702   0.133 -0.5758 -0.1147  0.1287
 4114TIP3    H133833   0.359   6.621   0.100 -1.2296  0.6342 -0.9881
 4114TIP3    H233834   0.395   6.762   0.059  2.6900  0.0241 -0.0029
 4115TIP3   OH233835   0.957   0.202   3.020  0.5413 -0.4886 -0.3144
 4115TIP3    H133836   0.979   0.290   2.987  0.3654 -0.7607 -1.1757
 4115TIP3    H233837   0.920   0.157   2.945 -1.0486 -0.7323  0.5768
 4116TIP3   OH233838   6.046   0.105  12.154 -0.2487  0.1047  0.3880
 4116TIP3    H133839   6.030   0.199  12.154 -2.9483 -0.2531  0.9431
 4116TIP3    H233840   6.107   0.090  12.226  0.6433  1.4560 -0.0605
 4117TIP3   OH233841   2.874   0.157  10.972  0.2452 -0.1223 -0.1867
 4117TIP3    H133842   2.957   0.163  10.926  1.0443  1.6756  1.3794
 4117TIP3    H233843   2.833   0.243  10.962 -0.4383 -0.3025  0.7956
 4118TIP3   OH233844   2.803   6.483  12.803 -0.5198  0.6479  0.0061
 4118TIP3    H133845   2.782   6.402  12.755 -1.6338  0.3107  1.0278
 4118TIP3    H233846   2.874   6.458  12.862 -1.5328  0.1343  1.0337
 4119TIP3   OH233847   2.435   0.330   5.849  0.2953  0.0448 -0.0715
 4119TIP3    H133848   2.506   0.380   5.889 -0.8485  0.3522  1.6801
 4119TIP3    H233849   2.360   0.344   5.906 -0.4057 -2.7276 -0.1422
 4120TIP3   OH233850   2.089   0.356  16.270 -0.4007  0.4151 -0.0146
 4120TIP3    H133851   2.060   0.288  16.209  0.0324  0.0745  0.1481
 4120TIP3    H233852   2.031   0.346  16.345 -0.0630 -0.0817  0.1942
 4121TIP3   OH233853   5.109   4.656  12.030  0.2686  0.4567 -0.2159
 4121TIP3    H133854   5.086   4.565  12.049  1.2409  0.2342 -0.0505
 4121TIP3    H233855   5.091   4.666  11.937  0.9007 -0.1499 -0.4130
 4122TIP3   OH233856   2.233   3.259   1.254 -0.3037 -0.0712 -0.9332
 4122TIP3    H133857   2.301   3.274   1.319  1.7604 -0.3128 -2.9303
 4122TIP3    H233858   2.278   3.216   1.181 -2.4373  0.4840 -2.6747
 4123TIP3   OH233859   0.642   2.308   3.121 -0.8530 -0.5867 -0.1423
 4123TIP3    H133860   0.692   2.249   3.177  0.1559  0.3473 -0.0318
 4123TIP3    H233861   0.550   2.287   3.141 -0.5192 -0.9377  1.1478
 4124TIP3   OH233862   2.165   3.692   0.085  0.5160  0.5034  0.3819
 4124TIP3    H133863   2.130   3.725   0.002  1.4282  0.8918  0.1378
 4124TIP3    H233864   2.114   3.737   0.152  1.1040  1.7399  0.0399
 4125TIP3   OH233865   5.205   3.963  13.176  0.4865  0.1619 -0.0922
 4125TIP3    H133866   5.119   3.974  13.217  0.7029  2.8177 -0.1741
 4125TIP3    H233867   5.267   3.972  13.248  0.7310 -1.6824 -0.0450
 4126TIP3   OH233868   5.675   0.906   5.389  0.4052  0.1845 -0.0054
 4126TIP3    H133869   5.727   0.985   5.383  0.8546 -0.0245  0.9929
 4126TIP3    H233870   5.719   0.843   5.332  1.0803  0.1022  0.6025
 4127TIP3   OH233871   5.510   6.262  17.091 -0.4304  0.5332 -0.7059
 4127TIP3    H133872   5.535   6.335  17.147  0.1887  0.9978 -1.5759
 4127TIP3    H233873   5.549   6.185  17.132  0.5237  0.9500 -0.8211
 4128TIP3   OH233874   0.872   4.289  12.614 -0.0672  0.2649  0.3275
 4128TIP3    H133875   0.940   4.222  12.613  0.3531  0.6589  1.5191
 4128TIP3    H233876   0.811   4.261  12.682 -2.4041 -1.2933 -2.1723
 4129TIP3   OH233877   2.491   4.954  15.404  0.1742 -0.4880  0.0257
 4129TIP3    H133878   2.528   4.905  15.331 -1.3313 -0.9024 -0.4763
 4129TIP3    H233879   2.422   4.897  15.439  0.3309  0.0492  1.2653
 4130TIP3   OH233880   0.483   1.038  15.179 -0.1542 -0.8660  0.0846
 4130TIP3    H133881   0.444   0.979  15.116 -0.3691 -0.2806 -0.3371
 4130TIP3    H233882   0.454   1.006  15.264 -1.6395 -0.3875 -0.2222
 4131TIP3   OH233883   4.106   6.731   1.589  0.4704  0.4139 -0.3159
 4131TIP3    H133884   4.065   6.675   1.655  1.3120  0.8062  0.5629
 4131TIP3    H233885   4.173   6.677   1.548  0.2907  0.3278 -0.4977
 4132TIP3   OH233886   5.947   6.241  12.283  0.3827  0.4022  0.0014
 4132TIP3    H133887   5.983   6.240  12.371 -1.6944 -0.3490  0.9131
 4132TIP3    H233888   6.006   6.297  12.233  2.4388 -0.3337  1.4838
 4133TIP3   OH233889   1.460   3.938   6.574 -0.0867 -0.5643  0.3694
 4133TIP3    H133890   1.373   3.972   6.595  0.1479 -0.4296  1.1550
 4133TIP3    H233891   1.449   3.894   6.489 -0.8409 -0.2668  0.3066
 4134TIP3   OH233892   3.772   0.378   3.382 -0.3141 -0.2930 -0.2166
 4134TIP3    H133893   3.763   0.370   3.477 -0.2950  0.0214 -0.1896
 4134TIP3    H233894   3.698   0.431   3.355  1.2666  2.1473 -0.0213
 4135TIP3   OH233895   2.926   4.688   3.519  0.1845 -0.6017  0.7570
 4135TIP3    H133896   2.893   4.698   3.430  2.1722  0.4640  0.0650
 4135TIP3    H233897   2.998   4.624   3.511  0.7780 -0.0454  1.4534
 4136TIP3   OH233898   3.013   0.674  14.126 -0.1370  0.7101 -0.0093
 4136TIP3    H133899   3.097   0.650  14.087 -0.9698 -1.0532 -0.8403
 4136TIP3    H233900   3.036   0.720  14.206  1.6188  0.6856 -0.4616
 4137TIP3   OH233901   3.381   5.265  12.462 -0.1169 -0.0304  0.1430
 4137TIP3    H133902   3.455   5.323  12.480 -0.3902  0.1638  0.6677
 4137TIP3    H233903   3.356   5.230  12.548 -2.1194  1.7198  0.3667
 4138TIP3   OH233904   4.938   1.205   0.306  0.2700 -0.3332 -0.2239
 4138TIP3    H133905   5.021   1.247   0.283  0.6191  0.0495  1.5678
 4138TIP3    H233906   4.927   1.136   0.241  1.0049  0.8600 -1.6582
 4139TIP3   OH233907   6.339   1.094  15.267 -0.1095 -0.4827  0.1533
 4139TIP3    H133908   6.331   1.050  15.352  0.0066 -0.6729  0.0659
 4139TIP3    H233909   6.256   1.076  15.223 -0.6191  0.5362  0.6573
 4140TIP3   OH233910   2.430   0.361   4.288  0.4078  0.4160 -0.2549
 4140TIP3    H133911   2.393   0.448   4.305 -1.2317 -0.4094  0.6566
 4140TIP3    H233912   2.519   0.378   4.257  0.6985  2.3604  1.4811
 4141TIP3   OH233913   1.580   2.652  14.718  0.5403  0.3598 -0.4562
 4141TIP3    H133914   1.609   2.702  14.794 -1.7971  0.8178  0.1900
 4141TIP3    H233915   1.541   2.573  14.754  1.0149 -0.2695 -1.2950
 4142TIP3   OH233916   6.274   1.218   1.198  0.1876  0.3087 -0.5512
 4142TIP3    H133917   6.277   1.133   1.154  2.0269  0.9479 -1.7702
 4142TIP3    H233918   6.211   1.269   1.147  0.6211  0.3233 -1.0787
 4143TIP3   OH233919   3.184   5.612   5.228 -0.4363  0.2445  0.5862
 4143TIP3    H133920   3.233   5.612   5.311  0.0059  1.1600  0.3327
 4143TIP3    H233921   3.233   5.670   5.171 -1.6580  0.9551  0.2168
 4144TIP3   OH233922   3.457   6.275  12.675  0.2836  0.0667 -0.1093
 4144TIP3    H133923   3.436   6.257  12.584 -0.0903 -1.0321  0.1850
 4144TIP3    H233924   3.443   6.192  12.720  1.5202  0.3031  0.7671
 4145TIP3   OH233925   2.819   3.219   5.312 -0.8688 -0.4640  0.1736
 4145TIP3    H133926   2.767   3.215   5.393 -1.1534 -1.0928 -0.0331
 4145TIP3    H233927   2.818   3.129   5.279  1.7666 -0.8956  1.0403
 4146TIP3   OH233928   2.114   0.041   5.944 -0.4887  0.5749 -0.2414
 4146TIP3    H133929   2.160   0.061   6.025 -0.6986  0.2960 -0.0513
 4146TIP3    H233930   2.171  -0.020   5.897 -0.8535 -0.0942  0.1831
 4147TIP3   OH233931   4.724   4.858  16.372  0.3907 -0.3030 -0.2466
 4147TIP3    H133932   4.689   4.895  16.454  0.5799  1.3663 -0.8791
 4147TIP3    H233933   4.706   4.764  16.379 -3.7127  0.2875 -0.2369
 4148TIP3   OH233934   6.717   1.914  13.997  0.2343 -0.1084  0.1371
 4148TIP3    H133935   6.681   1.993  14.037 -0.1152  0.1686 -0.7135
 4148TIP3    H233936   6.659   1.895  13.923 -0.0085 -1.4670  0.6336
 4149TIP3   OH233937   0.987   0.974  13.916  0.3531  0.1998 -0.1023
 4149TIP3    H133938   1.021   0.905  13.859  0.1004 -0.3922  0.4452
 4149TIP3    H233939   0.911   1.009  13.868 -2.0204 -2.6056  1.2342
 4150TIP3   OH233940   2.167   1.052  16.170 -0.4192  0.4490 -0.5889
 4150TIP3    H133941   2.188   1.001  16.092  0.1789 -0.0327 -0.1201
 4150TIP3    H233942   2.247   1.101  16.189  0.1149 -0.8954  0.8270
 4151TIP3   OH233943   2.732   3.092  11.178 -0.3383  0.3593 -0.3902
 4151TIP3    H133944   2.693   3.006  11.164 -0.4063  0.6178 -1.9198
 4151TIP3    H233945   2.782   3.110  11.098 -0.8315  2.0069 -0.3670
 4152TIP3   OH233946   1.559   0.536   4.890  0.2199  0.8611  0.5784
 4152TIP3    H133947   1.640   0.513   4.935  1.1941 -1.7442 -2.1495
 4152TIP3    H233948   1.530   0.454   4.850 -2.3135  2.3013 -0.7794
 4153TIP3   OH233949   2.511   5.331  11.433  0.5245  0.0522  0.8821
 4153TIP3    H133950   2.484   5.383  11.508  1.2334 -1.8200  2.5285
 4153TIP3    H233951   2.464   5.248  11.443  0.6429 -0.2399 -0.7565
 4154TIP3   OH233952   0.804   0.895   3.642  0.0661  0.3487  0.3792
 4154TIP3    H133953   0.792   0.868   3.732 -1.1706  1.0144  0.4388
 4154TIP3    H233954   0.768   0.984   3.639  1.1977  0.8011 -0.4925
 4155TIP3   OH233955   5.725   4.398   4.577  0.1661  0.0899  0.1992
 4155TIP3    H133956   5.804   4.347   4.558 -0.1018  0.5637 -2.6179
 4155TIP3    H233957   5.741   4.437   4.663  2.7529 -0.2669 -0.0553
 4156TIP3   OH233958   5.174   2.508  13.246 -0.1994 -0.0742 -0.3287
 4156TIP3    H133959   5.192   2.514  13.152 -0.3799 -0.1802 -0.3713
 4156TIP3    H233960   5.259   2.491  13.286  0.0716  1.1297 -0.3602
 4157TIP3   OH233961   3.115   4.959  16.785 -0.0901 -0.4896 -0.1434
 4157TIP3    H133962   3.114   5.032  16.723 -1.5035 -1.5338 -1.4193
 4157TIP3    H233963   3.037   4.908  16.764  0.1966 -1.7080  1.5331
 4158TIP3   OH233964   2.847   2.146  15.299  0.2272 -0.0337  0.6550
 4158TIP3    H133965   2.788   2.220  15.312  0.7919  0.3434  1.0853
 4158TIP3    H233966   2.788   2.073  15.279 -0.3048  0.6371 -0.3472
 4159TIP3   OH233967   3.572   5.176   1.070  0.3100 -0.3450  0.5598
 4159TIP3    H133968   3.620   5.234   1.129 -0.6588 -1.5238  2.6467
 4159TIP3    H233969   3.504   5.231   1.033 -0.2563  0.0546  2.0876
 4160TIP3   OH233970   5.690   3.891   3.564  0.4496  0.1714  0.0910
 4160TIP3    H133971   5.710   3.867   3.473  2.2916  0.7614  0.2871
 4160TIP3    H233972   5.773   3.924   3.598 -0.7804  2.2788  1.2492
 4161TIP3   OH233973   1.824   2.738   4.217 -0.0245 -0.0327  0.2192
 4161TIP3    H133974   1.815   2.816   4.163  0.0846  1.7274  2.5612
 4161TIP3    H233975   1.881   2.766   4.289 -0.9287 -1.9307  1.7472
 4162TIP3   OH233976   6.798   4.081   5.780 -0.1967 -0.1999 -0.0632
 4162TIP3    H133977   6.879   4.086   5.832 -0.2657  0.2664  0.0035
 4162TIP3    H233978   6.762   4.169   5.783 -1.5878 -0.7647  1.2982
 4163TIP3   OH233979   3.523   4.241  11.689  0.3616  0.6829  0.2747
 4163TIP3    H133980   3.533   4.331  11.660  1.5582  0.6225  0.4460
 4163TIP3    H233981   3.610   4.216  11.721  0.0299 -0.5030  0.3042
 4164TIP3   OH233982   4.557   2.282   1.532  0.4728 -0.5292  0.6788
 4164TIP3    H133983   4.620   2.210   1.532  0.0070 -1.0413  3.0524
 4164TIP3    H233984   4.473   2.239   1.514  0.5069 -0.1512 -0.4638
 4165TIP3   OH233985   6.228   1.690  16.045  0.1899  0.5683 -0.1748
 4165TIP3    H133986   6.309   1.723  16.006  0.5562 -0.5242 -0.3892
 4165TIP3    H233987   6.238   1.595  16.042 -1.1984  0.4175 -0.3780
 4166TIP3   OH233988   3.694   2.294   5.128 -0.3095  0.1181 -0.1569
 4166TIP3    H133989   3.614   2.262   5.086  0.0326 -0.1506 -0.6154
 4166TIP3    H233990   3.669   2.378   5.166 -1.0842 -0.4382  0.6029
 4167TIP3   OH233991   0.314   3.343  10.449  0.0622  0.4977  0.2027
 4167TIP3    H133992   0.371   3.283  10.497  1.7427  0.3666 -1.8008
 4167TIP3    H233993   0.242   3.362  10.509  1.2426 -0.8468  2.1371
 4168TIP3   OH233994   0.451   4.202  14.902  0.2385  0.7063 -0.0579
 4168TIP3    H133995   0.380   4.206  14.838  0.6137 -2.2500 -0.8021
 4168TIP3    H233996   0.420   4.254  14.976 -3.3128 -1.4180  0.1592
 4169TIP3   OH233997   1.069   0.234  15.221  0.1209 -0.0797  0.0408
 4169TIP3    H133998   1.004   0.265  15.284  1.5938  1.2831  0.9578
 4169TIP3    H233999   1.134   0.304  15.217  1.0165 -0.9517 -1.6209
 4170TIP3   OH234000   0.505   4.103   5.073 -0.1364  0.0301  0.1116
 4170TIP3    H134001   0.419   4.121   5.112 -0.2828  0.0064 -0.1964
 4170TIP3    H234002   0.561   4.174   5.105 -0.4358  0.4119 -0.2053
 4171TIP3   OH234003   0.740   6.348   5.420  0.0458 -0.0464  0.0469
 4171TIP3    H134004   0.653   6.336   5.459 -0.1200 -0.2583 -0.3840
 4171TIP3    H234005   0.723   6.395   5.338  0.2016 -1.1629 -0.6473
 4172TIP3   OH234006   5.281   1.860   5.301 -0.2849  0.2797  0.0985
 4172TIP3    H134007   5.274   1.772   5.338  1.5689 -0.1567 -0.4923
 4172TIP3    H234008   5.198   1.902   5.323 -1.3791 -1.7374  0.0415
 4173TIP3   OH234009   0.176   0.720   0.422 -0.3674  0.0504  0.4648
 4173TIP3    H134010   0.151   0.631   0.396  1.7940 -0.0830 -1.5978
 4173TIP3    H234011   0.101   0.774   0.399 -0.5906 -0.8804 -1.1276
 4174TIP3   OH234012   6.584   1.896   5.539  0.3782 -0.4978  0.2240
 4174TIP3    H134013   6.489   1.908   5.534  0.2711 -0.7201  1.4290
 4174TIP3    H234014   6.618   1.981   5.565  0.7305  0.1321 -2.1181
 4175TIP3   OH234015   1.037   5.608  12.779  0.7643  0.3140 -0.0773
 4175TIP3    H134016   0.964   5.547  12.786  1.1183 -0.5980 -3.0318
 4175TIP3    H234017   1.114   5.555  12.799  0.9029  0.3232 -0.5744
 4176TIP3   OH234018   1.965   3.810  14.645  0.0390  0.0751 -0.6771
 4176TIP3    H134019   1.923   3.893  14.622  1.3239  0.8545 -0.2715
 4176TIP3    H234020   2.032   3.834  14.709  0.0756 -1.3564 -0.1495
 4177TIP3   OH234021   0.032   0.981   0.319  0.3043  0.0059 -0.3001
 4177TIP3    H134022  -0.001   1.067   0.346  1.4931  0.3611  0.1059
 4177TIP3    H234023  -0.019   0.958   0.241 -1.3541  0.1870  0.6956
 4178TIP3   OH234024   0.165   6.483  15.016  0.2541  0.4752  0.6386
 4178TIP3    H134025   0.242   6.433  15.043 -0.9857 -1.9940 -0.1104
 4178TIP3    H234026   0.184   6.511  14.927  0.6455  0.7318  0.7962
 4179TIP3   OH234027   5.168   3.811  12.672 -0.3591  0.5841  0.2133
 4179TIP3    H134028   5.077   3.789  12.649 -0.5016  0.7149  0.6401
 4179TIP3    H234029   5.191   3.747  12.740 -0.3989  1.0328  0.6617
 4180TIP3   OH234030   3.526   2.697   2.459  0.1846 -0.0101  0.3254
 4180TIP3    H134031   3.548   2.605   2.448  0.0312  0.0443 -0.4484
 4180TIP3    H234032   3.452   2.697   2.521  0.0769 -0.4134  0.1988
 4181TIP3   OH234033   2.218   4.264  11.062  0.4741 -0.1267 -0.2822
 4181TIP3    H134034   2.126   4.282  11.083  0.6742  0.6315 -0.0047
 4181TIP3    H234035   2.224   4.279  10.968  0.4150  0.3023 -0.2211
 4182TIP3   OH234036   0.692   5.672   2.362  0.0794  0.5014  0.3498
 4182TIP3    H134037   0.756   5.741   2.347  0.3405  0.1294 -0.3133
 4182TIP3    H234038   0.727   5.596   2.314 -0.8961  0.3164 -0.0949
 4183TIP3   OH234039   4.388   0.420  14.693 -0.2011  0.6131  0.1199
 4183TIP3    H134040   4.328   0.485  14.731 -0.5305 -0.3688  1.3229
 4183TIP3    H234041   4.449   0.399  14.764  3.7215  3.8727 -1.8648
 4184TIP3   OH234042   5.652   6.243   2.842 -0.4705  0.0248 -0.1594
 4184TIP3    H134043   5.583   6.301   2.811 -0.3958  0.0655 -0.2499
 4184TIP3    H234044   5.697   6.214   2.762  0.6830  1.3211 -0.0170
 4185TIP3   OH234045   2.594   1.036   0.974 -0.2973  0.9710  0.1345
 4185TIP3    H134046   2.673   0.987   0.948 -0.5525  0.0322  1.0565
 4185TIP3    H234047   2.522   0.989   0.932 -0.5659  0.3693  1.2114
 4186TIP3   OH234048   4.627   6.104   3.904  0.0496  0.2568 -0.1380
 4186TIP3    H134049   4.570   6.176   3.880  1.3382  1.0526 -0.9639
 4186TIP3    H234050   4.605   6.084   3.995 -1.4931  0.5513 -0.4299
 4187TIP3   OH234051   3.486   4.108   2.596 -0.5129 -0.1131 -0.0072
 4187TIP3    H134052   3.451   4.154   2.672 -0.9382  1.5865 -1.1540
 4187TIP3    H234053   3.497   4.177   2.530 -2.4978 -1.8408 -2.3302
 4188TIP3   OH234054   5.462   6.072  11.540 -0.0832  0.4816  0.4150
 4188TIP3    H134055   5.477   6.042  11.450 -0.7847  0.3354  0.3391
 4188TIP3    H234056   5.377   6.035  11.563  0.8913 -1.0276  1.8033
 4189TIP3   OH234057   2.794   0.585  11.814  0.3630  0.0069  0.0462
 4189TIP3    H134058   2.756   0.518  11.870 -0.5574  0.3839 -0.0956
 4189TIP3    H234059   2.874   0.546  11.779 -0.5134 -1.2956 -0.5985
 4190TIP3   OH234060   3.587   4.363   5.625 -0.3742  0.1976  0.4010
 4190TIP3    H134061   3.527   4.426   5.666 -1.2795 -0.8294  0.6878
 4190TIP3    H234062   3.671   4.380   5.667 -0.5862  1.2639  0.4264
 4191TIP3   OH234063   3.068   0.951   5.368  0.2759  0.5035 -0.3264
 4191TIP3    H134064   3.127   1.024   5.385  1.6335 -0.7131  0.3335
 4191TIP3    H234065   3.125   0.875   5.358 -1.1249 -0.5667 -0.5298
 4192TIP3   OH234066   2.278   3.492   1.696 -0.6816  0.3375  0.1180
 4192TIP3    H134067   2.189   3.501   1.662 -0.7487 -0.3512  0.1026
 4192TIP3    H234068   2.287   3.564   1.759 -0.4308  1.8562 -1.5818
 4193TIP3   OH234069   0.692   6.124   4.667 -0.3648  0.1785 -0.5047
 4193TIP3    H134070   0.642   6.100   4.745  0.6258 -1.7835 -0.4267
 4193TIP3    H234071   0.633   6.106   4.594 -0.3538 -0.5708 -0.3355
 4194TIP3   OH234072   0.489   3.223  15.218  0.0548  0.5681 -0.2310
 4194TIP3    H134073   0.547   3.258  15.286 -0.7774  0.5143  0.5311
 4194TIP3    H234074   0.420   3.289  15.210 -1.7545 -1.0110  1.4999
 4195TIP3   OH234075   3.688   5.322  16.586 -0.3935 -0.1223 -0.2561
 4195TIP3    H134076   3.648   5.409  16.575 -0.6994 -0.5369 -3.8891
 4195TIP3    H234077   3.782   5.338  16.574 -0.4785 -0.2643 -1.2398
 4196TIP3   OH234078   2.507   3.659   1.746 -0.6104 -0.2731  0.6059
 4196TIP3    H134079   2.452   3.727   1.709 -0.9135 -0.3899  0.8416
 4196TIP3    H234080   2.464   3.577   1.721 -0.6457 -0.3587  0.9492
 4197TIP3   OH234081   5.897   2.824   5.213 -0.2551  0.1005 -0.5998
 4197TIP3    H134082   5.885   2.729   5.217  2.4511 -0.2674  0.8863
 4197TIP3    H234083   5.853   2.857   5.291  0.1914 -0.1308 -0.2465
 4198TIP3   OH234084   4.868   6.343  16.205 -0.3798  0.2174  0.2889
 4198TIP3    H134085   4.934   6.383  16.148 -1.1196  1.3883  0.2144
 4198TIP3    H234086   4.877   6.390  16.289 -0.9649  0.2480  0.3423
 4199TIP3   OH234087   0.492   6.647  14.354  0.3566  0.2799 -0.2471
 4199TIP3    H134088   0.498   6.572  14.296  0.1750  1.4771 -1.8692
 4199TIP3    H234089   0.424   6.622  14.418 -0.3280 -0.5963 -1.2822
 4200TIP3   OH234090   5.527   1.145  11.842  0.2580  0.6087  0.4732
 4200TIP3    H134091   5.588   1.099  11.785  0.0594  1.0877 -0.1438
 4200TIP3    H234092   5.482   1.076  11.890  0.7500  0.2199  0.3817
 4201TIP3   OH234093   6.371   5.765  14.210  0.1768  0.1558  0.0158
 4201TIP3    H134094   6.322   5.691  14.245  1.1492 -0.3098  0.4473
 4201TIP3    H234095   6.346   5.839  14.264 -1.1270  0.2465 -0.6869
 4202TIP3   OH234096   4.792   1.147  13.154  0.1052 -0.4034  0.4612
 4202TIP3    H134097   4.882   1.128  13.129 -0.0132  0.5079 -0.7874
 4202TIP3    H234098   4.786   1.243  13.147 -1.2153 -0.5350 -0.4509
 4203TIP3   OH234099   1.769   1.153  11.927 -0.5849 -0.5803  0.1137
 4203TIP3    H134100   1.708   1.195  11.867 -0.0367 -0.3993 -0.3275
 4203TIP3    H234101   1.853   1.153  11.880 -0.3404 -1.2098  0.5332
 4204TIP3   OH234102   2.822   6.783   4.510 -0.3849  0.2997 -1.0114
 4204TIP3    H134103   2.808   6.744   4.596 -1.0211  0.2988 -1.1070
 4204TIP3    H234104   2.786   6.872   4.518  0.1207  0.5131 -1.0928
 4205TIP3   OH234105   2.279   2.191   5.611 -0.3252  0.0916  0.7453
 4205TIP3    H134106   2.334   2.181   5.533 -1.7275 -0.6293 -0.1795
 4205TIP3    H234107   2.296   2.281   5.640 -0.4957  0.7228 -0.9677
 4206TIP3   OH234108   3.537   5.134   3.521 -0.6422  0.0638 -0.2761
 4206TIP3    H134109   3.485   5.067   3.477  1.1855 -0.1977 -2.2088
 4206TIP3    H234110   3.591   5.172   3.451  2.6183 -0.4873  1.7515
 4207TIP3   OH234111   6.351   2.603   1.317 -0.4946  0.7222 -0.7081
 4207TIP3    H134112   6.430   2.550   1.308 -1.1362 -0.0773 -1.8151
 4207TIP3    H234113   6.379   2.680   1.367  0.5589 -0.4222  0.5162
 4208TIP3   OH234114   0.692   1.462   4.589 -0.0425 -0.0723 -0.3660
 4208TIP3    H134115   0.604   1.492   4.609  0.9421  1.6906  1.7301
 4208TIP3    H234116   0.719   1.514   4.513 -0.2569  0.5208 -0.0397
 4209TIP3   OH234117   4.414   0.598   1.876 -0.2778 -0.4170 -0.2031
 4209TIP3    H134118   4.489   0.635   1.922 -0.9206  1.5053 -0.5946
 4209TIP3    H234119   4.443   0.512   1.846  1.1708 -0.4221  1.1117
 4210TIP3   OH234120   3.408   2.620  12.160  0.2839 -0.3171  0.0425
 4210TIP3    H134121   3.346   2.552  12.184 -0.0531  0.0725  0.2984
 4210TIP3    H234122   3.482   2.607  12.219  0.3876 -0.6913 -0.1653
 4211TIP3   OH234123   5.518   4.923  10.700  0.7670  0.8261  0.2341
 4211TIP3    H134124   5.539   4.830  10.699 -1.2437  0.3039 -1.0084
 4211TIP3    H234125   5.556   4.957  10.619  1.1286  0.9997  0.4740
 4212TIP3   OH234126   1.187   0.275   1.554 -0.4570  0.0562 -0.1021
 4212TIP3    H134127   1.226   0.324   1.626  0.3570  0.6310 -0.9018
 4212TIP3    H234128   1.097   0.307   1.549 -0.1475  0.9490 -0.1447
 4213TIP3   OH234129   2.379   3.704  15.980 -0.4100 -0.2237  0.1501
 4213TIP3    H134130   2.342   3.680  15.895 -1.0480  1.8258 -0.2064
 4213TIP3    H234131   2.302   3.717  16.036 -0.2982  2.5739 -0.1783
 4214TIP3   OH234132   3.486   4.341   0.880  0.1630  0.1413  0.1403
 4214TIP3    H134133   3.542   4.414   0.853  1.8858 -1.6691 -1.5298
 4214TIP3    H234134   3.408   4.382   0.918  0.6949  2.8323 -1.4768
 4215TIP3   OH234135   5.619   3.068   3.138 -0.3873  0.6479  0.2225
 4215TIP3    H134136   5.666   3.082   3.056  0.9099 -0.6380  0.6846
 4215TIP3    H234137   5.567   2.989   3.123  0.7161 -0.2577  0.9341
 4216TIP3   OH234138   1.591   4.987   3.673  0.0728  0.1800 -0.2100
 4216TIP3    H134139   1.501   5.018   3.661 -0.3579 -0.2179  1.7019
 4216TIP3    H234140   1.644   5.067   3.669 -0.4665  0.5370 -0.3596
 4217TIP3   OH234141   6.101   4.714   6.040  0.4745 -0.0104 -0.2350
 4217TIP3    H134142   6.146   4.655   6.101  2.0499  0.4464 -0.9291
 4217TIP3    H234143   6.051   4.655   5.983  0.4583 -0.5489  0.3214
 4218TIP3   OH234144   5.087   4.265  16.552  0.2229 -0.0093  0.3550
 4218TIP3    H134145   5.070   4.295  16.463  1.5194  0.4424  0.2315
 4218TIP3    H234146   5.110   4.172  16.541  1.7858  0.3828  0.0056
 4219TIP3   OH234147   4.127   4.717  15.496  0.5485  0.6373 -0.1696
 4219TIP3    H134148   4.176   4.782  15.445 -0.0130  2.2073  1.2048
 4219TIP3    H234149   4.154   4.732  15.586  0.0591 -0.7639  0.2284
 4220TIP3   OH234150   0.416   3.315  12.075  0.1464 -0.0395  0.3155
 4220TIP3    H134151   0.436   3.387  12.134 -0.7530  0.2314  0.3021
 4220TIP3    H234152   0.363   3.255  12.127  2.0248 -1.4059  0.7648
 4221TIP3   OH234153   3.274   0.604   2.584  0.3415 -0.2034  0.5685
 4221TIP3    H134154   3.323   0.568   2.510  0.1838  1.3677 -0.3665
 4221TIP3    H234155   3.203   0.654   2.543  1.6308  2.7157  1.6143
 4222TIP3   OH234156   5.088   0.120  16.515 -0.5542  1.0048  0.3304
 4222TIP3    H134157   5.058   0.188  16.455  0.2553  0.5513 -0.6147
 4222TIP3    H234158   5.167   0.157  16.555 -0.3136  0.7708  0.0786
 4223TIP3   OH234159   5.699   1.397   4.334 -0.2997  0.1876 -0.0056
 4223TIP3    H134160   5.721   1.338   4.262 -0.3334  0.3729 -0.1685
 4223TIP3    H234161   5.623   1.356   4.375  0.0540 -0.2046  0.2650
 4224TIP3   OH234162   2.678   0.995  12.977  0.3497  0.6905  0.2612
 4224TIP3    H134163   2.720   0.944  13.045  0.6441  2.3316  1.3758
 4224TIP3    H234164   2.630   1.063  13.024  1.2052  2.3546 -1.1508
 4225TIP3   OH234165   4.329   2.005   5.515  0.1515 -0.0939  0.3396
 4225TIP3    H134166   4.349   1.930   5.570 -0.0969 -0.7675 -0.4621
 4225TIP3    H234167   4.351   2.081   5.569  2.1328 -0.7394  0.5422
 4226TIP3   OH234168   5.473   2.605   5.557 -0.9663 -0.1073  0.0379
 4226TIP3    H134169   5.414   2.626   5.630 -1.3579  1.2662 -0.6469
 4226TIP3    H234170   5.414   2.595   5.482 -0.5219 -1.0606 -0.2018
 4227TIP3   OH234171   3.571   1.033   4.271 -0.4417  0.9161  0.0018
 4227TIP3    H134172   3.663   1.012   4.253 -1.0017 -2.2155  0.1132
 4227TIP3    H234173   3.544   0.967   4.335 -2.3643  2.8053  1.2596
 4228TIP3   OH234174   4.077   1.899  14.932 -0.3581 -0.0599  0.2904
 4228TIP3    H134175   4.137   1.894  14.857 -1.2003 -1.7391 -0.3398
 4228TIP3    H234176   4.055   1.991  14.938 -0.5656  0.0890 -1.8217
 4229TIP3   OH234177   2.655   1.040  16.948  0.3168  0.4798  0.2283
 4229TIP3    H134178   2.664   0.951  16.915  2.9619 -0.5040  3.0631
 4229TIP3    H234179   2.564   1.062  16.932 -1.6116 -4.2219  2.5421
 4230TIP3   OH234180   6.304   0.787   5.399  0.1811 -0.4838 -0.5638
 4230TIP3    H134181   6.221   0.825   5.426  0.1688  1.0066 -2.4985
 4230TIP3    H234182   6.342   0.753   5.480 -1.9205 -0.4951  0.4974
 4231TIP3   OH234183   1.377   3.920  14.982  0.2141 -0.2978  0.3542
 4231TIP3    H134184   1.445   3.980  14.952 -0.5567  0.1595 -0.5637
 4231TIP3    H234185   1.386   3.843  14.926  0.3738 -0.5112  0.6661
 4232TIP3   OH234186   6.551   1.584   0.051 -0.5777  0.1209  0.3193
 4232TIP3    H134187   6.508   1.549   0.128 -1.5637 -0.3366 -0.4111
 4232TIP3    H234188   6.480   1.624   0.000  0.1409  0.9476 -0.0654
 4233TIP3   OH234189   6.402   2.584  13.558  0.3309 -0.4790  0.3540
 4233TIP3    H134190   6.469   2.525  13.524  0.6678  0.3816 -0.5396
 4233TIP3    H234191   6.335   2.587  13.489 -0.4182 -0.9748  1.0428
 4234TIP3   OH234192   2.725   2.342  14.594  0.5879  0.2748  0.1364
 4234TIP3    H134193   2.766   2.306  14.673  2.2221  1.1489 -0.2576
 4234TIP3    H234194   2.690   2.427  14.621  0.0912  0.0561  0.1885
 4235TIP3   OH234195   0.345   5.957   6.245 -0.0831  0.3478 -0.2003
 4235TIP3    H134196   0.323   6.049   6.233 -2.5289  0.2588  2.4505
 4235TIP3    H234197   0.438   5.956   6.267  0.0512  2.1391 -0.5904
 4236TIP3   OH234198   5.347   1.703   2.196  0.1287 -0.1127 -0.2707
 4236TIP3    H134199   5.403   1.660   2.131  0.3847 -0.4244  0.1549
 4236TIP3    H234200   5.374   1.795   2.192  1.1625 -0.3646  0.4065
 4237TIP3   OH234201   5.847   4.529   3.204 -0.3362  0.3163 -0.0775
 4237TIP3    H134202   5.771   4.585   3.192 -0.1471  0.0784 -2.9971
 4237TIP3    H234203   5.890   4.563   3.283 -1.7513  2.4430 -0.1666
 4238TIP3   OH234204   1.564   1.668   3.762  0.7957 -0.5525 -0.6336
 4238TIP3    H134205   1.489   1.723   3.738 -0.2986 -2.5883 -2.2778
 4238TIP3    H234206   1.636   1.700   3.708  0.2154 -0.6267 -1.4676
 4239TIP3   OH234207   4.530   4.491  13.513 -0.4546 -0.2511  0.1442
 4239TIP3    H134208   4.452   4.545  13.528  0.6265  1.1225  1.0006
 4239TIP3    H234209   4.580   4.498  13.593  0.0924 -1.9702 -0.0039
 4240TIP3   OH234210   0.837   0.800   1.875 -0.5096  0.0744 -0.1588
 4240TIP3    H134211   0.762   0.858   1.865  1.0263  2.0046 -1.1501
 4240TIP3    H234212   0.912   0.858   1.885  0.8480 -1.7818  1.1828
 4241TIP3   OH234213   3.878   6.607   6.764 -0.8010  0.2678 -0.1747
 4241TIP3    H134214   3.792   6.593   6.803 -1.6007 -0.9874 -2.2034
 4241TIP3    H234215   3.907   6.691   6.798 -2.5038  0.3737  1.1242
 4242TIP3   OH234216   0.935   5.551  10.828  0.1484 -0.1236 -0.2979
 4242TIP3    H134217   0.868   5.535  10.762  0.4303  0.2022 -0.6664
 4242TIP3    H234218   0.920   5.642  10.855 -2.1513 -1.2072  2.5704
 4243TIP3   OH234219   4.738   6.045  11.670 -0.1045 -0.5918  0.2866
 4243TIP3    H134220   4.654   6.070  11.709  0.4678  0.0977  1.1098
 4243TIP3    H234221   4.729   5.952  11.651 -0.9201 -0.6100  0.7188
 4244TIP3   OH234222   2.094   3.901   5.169 -0.1509 -0.3630  0.4417
 4244TIP3    H134223   2.121   3.819   5.208  0.6052  0.0859  0.8791
 4244TIP3    H234224   2.116   3.968   5.234  0.4761  0.3257 -0.4469
 4245TIP3   OH234225   0.163   2.746   3.661 -0.3554  0.4779 -0.4792
 4245TIP3    H134226   0.111   2.798   3.723  0.0124 -0.4506  0.6555
 4245TIP3    H234227   0.103   2.679   3.630  0.1438 -0.7316  1.0002
 4246TIP3   OH234228   1.795   3.334   4.630 -0.2124  0.5467 -0.4573
 4246TIP3    H134229   1.780   3.278   4.554 -0.0104  0.5648 -0.5121
 4246TIP3    H234230   1.839   3.277   4.693 -0.5800  0.4702 -0.2662
 4247TIP3   OH234231   6.670   5.992   3.733  0.1247  0.3859 -0.3645
 4247TIP3    H134232   6.589   5.979   3.782  1.9248 -0.9299  2.5524
 4247TIP3    H234233   6.656   5.947   3.650 -2.1436  0.3466 -0.0200
 4248TIP3   OH234234   6.246   0.325  12.917 -0.0723 -0.5345 -0.3018
 4248TIP3    H134235   6.238   0.253  12.980  0.6486 -1.5928 -1.3692
 4248TIP3    H234236   6.296   0.392  12.964 -1.0977 -0.5363  0.8487
 4249TIP3   OH234237   4.719   0.068  13.023 -0.1457  0.2233 -0.2917
 4249TIP3    H134238   4.640   0.118  13.002 -1.7895 -3.2563 -3.4989
 4249TIP3    H234239   4.734   0.013  12.946  2.9776 -2.3338  1.8848
 4250TIP3   OH234240   6.651   0.236  13.659 -1.0278  0.0206 -0.4500
 4250TIP3    H134241   6.609   0.321  13.674 -0.0339  0.2842  1.0913
 4250TIP3    H234242   6.607   0.176  13.719 -0.5439 -0.1476 -0.2569
 4251TIP3   OH234243   5.081   4.692  13.912  0.4554  0.6908  1.0858
 4251TIP3    H134244   5.076   4.716  13.820 -1.0289  0.9501  1.2240
 4251TIP3    H234245   5.171   4.714  13.938  1.0408  0.1695 -0.4017
 4252TIP3   OH234246   1.495   6.274  13.479 -0.8268  0.1253  0.3666
 4252TIP3    H134247   1.443   6.196  13.457  1.3451 -1.4360  0.4590
 4252TIP3    H234248   1.475   6.290  13.571 -1.7376  0.0534  0.1923
 4253TIP3   OH234249   6.282   5.946   5.394 -0.3763  0.4590 -0.3844
 4253TIP3    H134250   6.277   6.033   5.433  0.8586  0.7987 -0.9350
 4253TIP3    H234251   6.328   5.892   5.458  3.8761  1.5991 -2.1343
 4254TIP3   OH234252   6.270   5.224  16.734  0.5383  0.2752 -0.1233
 4254TIP3    H134253   6.343   5.276  16.770  0.9157 -0.1562 -0.2571
 4254TIP3    H234254   6.287   5.222  16.640  0.4261  0.0560 -0.1384
 4255TIP3   OH234255   2.884   6.450  13.795  0.2958 -0.0768  0.3264
 4255TIP3    H134256   2.826   6.524  13.810  2.6306  1.5003  2.3426
 4255TIP3    H234257   2.843   6.377  13.842 -0.5368  0.7223  0.8713
 4256TIP3   OH234258   3.301   2.263   4.062 -0.1139 -0.0937  0.4621
 4256TIP3    H134259   3.350   2.319   4.002 -0.4145  0.0302  0.3318
 4256TIP3    H234260   3.298   2.178   4.019  1.2167 -0.5134  1.1059
 4257TIP3   OH234261   6.401   5.147  12.870  0.6308  0.1003  0.2248
 4257TIP3    H134262   6.492   5.132  12.895  0.5591  1.9600  1.7855
 4257TIP3    H234263   6.350   5.088  12.926  0.6941  1.7451  2.1110
 4258TIP3   OH234264   3.344   4.884   3.012 -0.1786  0.2171 -0.2482
 4258TIP3    H134265   3.353   4.978   3.028  1.0576  0.2448 -0.9996
 4258TIP3    H234266   3.271   4.876   2.951 -0.4043  0.6612 -0.0404
 4259TIP3   OH234267   0.243   6.146  13.354  0.8854 -0.3989 -0.3315
 4259TIP3    H134268   0.221   6.231  13.314  0.5708 -0.2076  0.2321
 4259TIP3    H234269   0.174   6.133  13.420  0.4902 -1.4586 -0.9350
 4260TIP3   OH234270   0.468   4.674   2.778 -0.5788  0.6248  0.3485
 4260TIP3    H134271   0.550   4.629   2.796  0.0343  1.3785 -0.4658
 4260TIP3    H234272   0.401   4.607   2.790  0.3054 -0.5803 -1.0367
 4261TIP3   OH234273   5.722   5.969  14.042 -0.3868 -0.4335 -0.0680
 4261TIP3    H134274   5.680   5.980  14.127  1.3074 -1.2626  0.9133
 4261TIP3    H234275   5.732   6.058  14.008 -0.2692 -0.0377  0.9949
 4262TIP3   OH234276   5.570   6.684   4.731  0.4308  0.0042 -0.0017
 4262TIP3    H134277   5.475   6.692   4.722  0.3759 -0.9518 -0.4320
 4262TIP3    H234278   5.587   6.590   4.723  1.4744  0.2238 -0.5644
 4263TIP3   OH234279   2.415   5.798  14.204  0.0467 -0.4641  0.4396
 4263TIP3    H134280   2.393   5.842  14.122 -0.5012  0.4859  1.0669
 4263TIP3    H234281   2.416   5.705  14.182 -1.1314 -0.3029 -0.4153
 4264TIP3   OH234282   4.296   5.882  15.532  0.3633 -0.2784 -0.1398
 4264TIP3    H134283   4.216   5.833  15.547  0.8888 -1.9420 -2.1947
 4264TIP3    H234284   4.278   5.935  15.455  0.6499  0.7909  0.5110
 4265TIP3   OH234285   2.754   5.906  14.077 -0.1557 -0.1451 -0.1952
 4265TIP3    H134286   2.706   5.939  14.001 -0.0318 -0.8889 -0.6055
 4265TIP3    H234287   2.799   5.828  14.044 -0.2096 -0.5516  0.6770
 4266TIP3   OH234288   3.151   4.379  13.870 -0.0294 -0.0328  0.2954
 4266TIP3    H134289   3.191   4.309  13.921 -1.1543  0.0096  1.2810
 4266TIP3    H234290   3.076   4.408  13.923 -0.7318  0.5993 -0.9850
 4267TIP3   OH234291   3.897   0.482  16.926 -0.3695  0.0978  0.2938
 4267TIP3    H134292   3.879   0.399  16.970  1.1119  1.5405  4.0411
 4267TIP3    H234293   3.818   0.534  16.941 -0.6738 -0.0653 -0.6712
 4268TIP3   OH234294   5.425   6.016  12.599 -0.3701  0.0873  0.4884
 4268TIP3    H134295   5.412   5.970  12.516  2.2893  0.2069 -0.0767
 4268TIP3    H234296   5.368   5.970  12.661 -1.3427 -0.9034 -1.0626
 4269TIP3   OH234297   1.033   5.869  12.714  0.3718 -0.1271  0.2177
 4269TIP3    H134298   0.984   5.851  12.634 -1.8460 -0.9433  1.6624
 4269TIP3    H234299   1.054   5.783  12.749 -0.8334  0.1383  1.7023
 4270TIP3   OH234300   6.009   0.799  11.248 -0.8295  0.0562 -0.6580
 4270TIP3    H134301   5.943   0.841  11.193 -1.5419  0.9329  0.8186
 4270TIP3    H234302   5.992   0.705  11.238 -2.4133  0.2672 -0.2006
 4271TIP3   OH234303   1.240   2.747  13.310 -0.2897 -0.4253 -0.9014
 4271TIP3    H134304   1.197   2.672  13.350 -2.4762  0.9984 -0.3891
 4271TIP3    H234305   1.331   2.740  13.339 -1.0344 -1.3388  1.5479
 4272TIP3   OH234306   2.825   5.210   2.127 -0.2137  0.3954 -0.1443
 4272TIP3    H134307   2.918   5.204   2.105  0.0716 -1.8441  1.3201
 4272TIP3    H234308   2.812   5.301   2.155  1.7901  0.4739  0.6473
 4273TIP3   OH234309   4.105   1.089   4.783 -0.0057 -0.3206 -0.0830
 4273TIP3    H134310   4.067   1.010   4.743 -0.4105 -0.3476  0.3441
 4273TIP3    H234311   4.111   1.068   4.876 -0.1378  0.1614  0.0373
 4274TIP3   OH234312   3.424   0.321  15.437 -0.0908 -0.1965  0.0060
 4274TIP3    H134313   3.335   0.304  15.466  0.2934 -0.8552  0.8206
 4274TIP3    H234314   3.461   0.378  15.504  0.7860 -1.6873  0.8354
 4275TIP3   OH234315   4.374   2.387  11.601  0.5320 -0.0886 -0.0379
 4275TIP3    H134316   4.396   2.326  11.672 -0.7802  1.2649  1.6397
 4275TIP3    H234317   4.357   2.331  11.526  2.0445 -1.5868  0.6723
 4276TIP3   OH234318   5.343   4.833   5.671  0.5106  0.2481 -0.0520
 4276TIP3    H134319   5.318   4.875   5.753 -1.9090 -2.2096  0.6015
 4276TIP3    H234320   5.431   4.800   5.687  0.6235  1.0252  1.0353
 4277TIP3   OH234321   1.999   2.814   0.873  0.2335 -0.6573 -0.1660
 4277TIP3    H134322   1.947   2.868   0.813 -0.5804 -0.3590  0.7836
 4277TIP3    H234323   1.936   2.754   0.912  0.9136 -1.4480 -0.2449
 4278TIP3   OH234324   5.487   4.638  13.986  0.2562 -0.0098  0.3975
 4278TIP3    H134325   5.555   4.572  13.998  0.5827  0.1861 -0.3661
 4278TIP3    H234326   5.465   4.633  13.893  0.9221  1.5702  0.1315
 4279TIP3   OH234327   2.761   2.201   0.312  0.3794  0.1678  0.8695
 4279TIP3    H134328   2.781   2.174   0.402  1.4645 -1.9171  0.0825
 4279TIP3    H234329   2.835   2.254   0.286  0.5901 -0.1266  0.8626
 4280TIP3   OH234330   1.302   5.233  11.304 -0.4600 -0.0667 -0.3043
 4280TIP3    H134331   1.327   5.280  11.224  0.0753  0.8398  0.3629
 4280TIP3    H234332   1.371   5.167  11.315 -1.3465 -1.2078 -1.3789
 4281TIP3   OH234333   5.184   6.314  12.514  0.2671 -0.3741  0.6856
 4281TIP3    H134334   5.165   6.355  12.429  3.0613  0.6028  0.4063
 4281TIP3    H234335   5.248   6.246  12.493  1.8569  0.6084  2.0522
 4282TIP3   OH234336   5.085   5.872  11.168  0.2319  0.0524 -0.0710
 4282TIP3    H134337   5.078   5.965  11.146 -0.2514 -0.0792 -0.5020
 4282TIP3    H234338   4.994   5.844  11.183  0.4331 -0.1823  0.7680
 4283TIP3   OH234339   3.267   6.724   2.679 -0.0906  0.1401  0.1967
 4283TIP3    H134340   3.235   6.659   2.742 -0.4665  0.9610  0.8666
 4283TIP3    H234341   3.208   6.716   2.605  0.0269 -0.4666  0.1635
 4284TIP3   OH234342   2.855   5.662  13.401  0.2154 -0.5254 -0.0164
 4284TIP3    H134343   2.901   5.583  13.427  1.5299  0.3753  0.5017
 4284TIP3    H234344   2.891   5.684  13.315  0.0506 -0.3452 -0.0411
 4285TIP3   OH234345   6.769   0.580  15.200  0.4829 -0.5722  0.1457
 4285TIP3    H134346   6.695   0.585  15.261  0.9077 -0.9755  0.7110
 4285TIP3    H234347   6.799   0.670  15.190  1.7215 -0.6990  2.2005
 4286TIP3   OH234348   0.453   1.005   2.053  0.3478 -0.1424  0.1888
 4286TIP3    H134349   0.497   0.950   2.118  0.5680 -0.3516 -0.1377
 4286TIP3    H234350   0.402   1.068   2.105  2.3136  1.1787  0.6278
 4287TIP3   OH234351   6.447   1.458  15.734 -0.2226  0.3250 -0.0856
 4287TIP3    H134352   6.440   1.363  15.726 -0.8312  0.4529 -1.3274
 4287TIP3    H234353   6.357   1.489  15.724 -0.5015  0.8836  3.2954
 4288TIP3   OH234354   2.135   4.819   4.404 -0.2140  0.2621 -0.2136
 4288TIP3    H134355   2.184   4.741   4.379  1.1784  0.8995  0.4155
 4288TIP3    H234356   2.099   4.799   4.490  1.5431  0.8574  0.7208
 4289TIP3   OH234357   5.217   1.427  16.863  0.4836  0.0477 -0.3360
 4289TIP3    H134358   5.208   1.520  16.841 -2.1618  0.0272  0.3220
 4289TIP3    H234359   5.139   1.386  16.824  1.2850 -1.8046 -0.0834
 4290TIP3   OH234360   3.432   2.512   4.832  0.5380 -0.8397 -0.1479
 4290TIP3    H134361   3.391   2.595   4.809 -0.8522 -1.6704 -0.8240
 4290TIP3    H234362   3.506   2.536   4.888  0.0502  0.8214 -0.1614
 4291TIP3   OH234363   1.607   4.052  14.920 -0.4358 -0.1817 -0.0001
 4291TIP3    H134364   1.683   4.087  14.875  0.0115  1.8929  2.1526
 4291TIP3    H234365   1.643   3.993  14.987 -1.0630 -2.9060 -1.8890
 4292TIP3   OH234366   2.742   2.784   4.639  0.2253  0.1563 -0.2820
 4292TIP3    H134367   2.666   2.835   4.610 -0.3904 -1.3340 -1.4365
 4292TIP3    H234368   2.816   2.845   4.634 -0.7506  1.3894  0.0367
 4293TIP3   OH234369   2.071   3.540  15.923 -0.3483  0.8255 -0.2386
 4293TIP3    H134370   1.979   3.524  15.946 -0.1255 -1.1097 -0.5534
 4293TIP3    H234371   2.072   3.536  15.827  0.4717 -2.1439 -0.2101
 4294TIP3   OH234372   2.565   6.143   4.123 -0.4227 -0.6200 -0.1541
 4294TIP3    H134373   2.491   6.142   4.063  0.4225 -0.6034 -1.2327
 4294TIP3    H234374   2.641   6.162   4.067  0.2383  0.5682  1.0893
 4295TIP3   OH234375   0.129   5.719  11.478 -0.1696  0.6281 -0.4850
 4295TIP3    H134376   0.065   5.691  11.544  2.1556 -1.4975  1.0433
 4295TIP3    H234377   0.178   5.789  11.521  1.0562 -0.4543 -0.0573
 4296TIP3   OH234378   0.331   0.517   2.356  0.1555  0.0011  0.1913
 4296TIP3    H134379   0.406   0.480   2.402 -0.4867  0.6097  1.7671
 4296TIP3    H234380   0.255   0.473   2.393 -0.3543  0.0507 -0.7463
 4297TIP3   OH234381   1.907   2.714  13.280 -0.3016  0.4169 -0.1277
 4297TIP3    H134382   1.829   2.722  13.225 -1.3799 -0.3476  1.2164
 4297TIP3    H234383   1.980   2.713  13.218 -1.5123 -1.3176 -1.6372
 4298TIP3   OH234384   0.905   0.273  13.244 -0.5243  0.3785  0.3048
 4298TIP3    H134385   0.904   0.178  13.237  1.6575  0.2344  1.2358
 4298TIP3    H234386   0.993   0.298  13.219 -1.2441  2.2496 -0.5711
 4299TIP3   OH234387   3.546   5.158   2.067 -0.1668  0.0511 -0.2139
 4299TIP3    H134388   3.537   5.086   2.005 -1.2582 -1.5082  1.6240
 4299TIP3    H234389   3.461   5.161   2.112 -0.0067  2.2359  0.0560
 4300TIP3   OH234390   0.166   6.116   4.106  0.2540 -0.2587  0.0601
 4300TIP3    H134391   0.238   6.064   4.071  0.7346  1.5518 -1.8739
 4300TIP3    H234392   0.105   6.125   4.032 -0.5782  0.5850  0.8183
 4301TIP3   OH234393   5.057   4.619   4.026  0.4368  0.8295 -0.7650
 4301TIP3    H134394   4.987   4.631   3.962 -0.6823 -0.0875  0.2256
 4301TIP3    H234395   5.019   4.649   4.109  1.4530  0.9154 -0.3127
 4302TIP3   OH234396   3.154   1.001   3.658  0.7243  0.3153  0.6780
 4302TIP3    H134397   3.103   0.943   3.601  1.5340  1.2928 -1.1219
 4302TIP3    H234398   3.157   0.955   3.742 -0.4393 -1.2375 -0.0753
 4303TIP3   OH234399   2.191   5.226   3.030  0.1082  0.9194 -0.7689
 4303TIP3    H134400   2.135   5.216   2.953 -0.4667  1.0233 -0.3702
 4303TIP3    H234401   2.133   5.261   3.097  0.1567 -0.8295  0.2466
 4304TIP3   OH234402   0.767   2.484  10.368 -0.0355  0.1368  0.4346
 4304TIP3    H134403   0.803   2.513  10.284 -1.1732 -0.3398 -0.2437
 4304TIP3    H234404   0.787   2.555  10.429 -0.9256  1.4292 -0.7078
 4305TIP3   OH234405   4.711   5.578   5.396 -0.3052 -0.1306 -0.0024
 4305TIP3    H134406   4.619   5.604   5.400 -0.4036 -0.3984 -0.4035
 4305TIP3    H234407   4.759   5.658   5.372 -0.1947  0.4791  2.1223
 4306TIP3   OH234408   6.782   1.613  11.558  0.4870 -0.3705  0.2942
 4306TIP3    H134409   6.745   1.526  11.576 -0.7820  0.2460  0.8095
 4306TIP3    H234410   6.783   1.656  11.643  1.0094  0.1661  0.0194
 4307TIP3   OH234411   0.378   2.686   0.643 -0.3031  0.1515 -0.0749
 4307TIP3    H134412   0.371   2.672   0.549  0.9184  1.6145 -0.4138
 4307TIP3    H234413   0.437   2.761   0.653  0.9652 -1.0056  1.9131
 4308TIP3   OH234414   5.054   4.809  10.924 -0.2055 -0.8642 -0.0593
 4308TIP3    H134415   5.090   4.883  10.973 -1.8998 -0.0964  0.0911
 4308TIP3    H234416   5.102   4.809  10.842 -1.7019  1.9032 -1.0583
 4309TIP3   OH234417   1.971   6.259  11.019  0.2203  0.5037  0.0701
 4309TIP3    H134418   1.947   6.262  10.926  1.5162  0.3470 -0.2888
 4309TIP3    H234419   2.053   6.308  11.024 -0.0487  0.8599  1.2103
 4310TIP3   OH234420   5.219   4.919   0.316 -0.0854  0.2714  0.5414
 4310TIP3    H134421   5.231   5.009   0.346 -1.7150  1.2646 -1.5055
 4310TIP3    H234422   5.131   4.918   0.277  1.0524 -1.2818 -2.3513
 4311TIP3   OH234423   2.428   0.125  16.594  0.6909  0.2854 -0.8745
 4311TIP3    H134424   2.424   0.183  16.669 -0.9442  0.4101 -1.0072
 4311TIP3    H234425   2.468   0.045  16.627  1.3807  0.8761 -0.2647
 4312TIP3   OH234426   4.732   2.989   2.515  0.4252 -0.2770 -0.0256
 4312TIP3    H134427   4.688   2.995   2.430 -0.3653 -0.1151  0.3847
 4312TIP3    H234428   4.740   2.895   2.531  0.2505 -0.3086 -0.1180
 4313TIP3   OH234429   6.169   0.533   1.689 -0.4096  0.2742  0.7347
 4313TIP3    H134430   6.156   0.609   1.747  1.2540 -0.4096  2.1000
 4313TIP3    H234431   6.161   0.458   1.747  1.6308 -0.4252  0.1915
 4314TIP3   OH234432   0.219   4.933   3.686 -0.6875  0.3499 -0.0786
 4314TIP3    H134433   0.158   4.860   3.694 -0.7836  0.4470  0.1018
 4314TIP3    H234434   0.304   4.892   3.675 -0.6582  0.1998  0.6357
 4315TIP3   OH234435   1.218   6.013   1.239 -0.3709 -0.5569 -0.1004
 4315TIP3    H134436   1.140   6.013   1.183 -0.4173 -3.5139 -0.1957
 4315TIP3    H234437   1.185   5.993   1.326  0.1951 -1.3713 -0.0594
 4316TIP3   OH234438   0.567   2.248  10.595  0.6183  0.0107  0.3970
 4316TIP3    H134439   0.512   2.306  10.544  0.3601 -0.3575  0.2504
 4316TIP3    H234440   0.636   2.220  10.535 -0.6388 -1.7743 -0.3047
 4317TIP3   OH234441   0.291   4.932  12.186  0.3395  0.7941  0.6576
 4317TIP3    H134442   0.208   4.891  12.161  0.9599  0.8376 -1.8030
 4317TIP3    H234443   0.269   4.988  12.260 -1.6921  0.3032  0.4935
 4318TIP3   OH234444   3.618   4.557   6.334  0.2472 -0.5248 -0.0770
 4318TIP3    H134445   3.607   4.465   6.356 -0.8335 -0.4697 -0.3581
 4318TIP3    H234446   3.535   4.598   6.358  1.1506  0.6437  1.3232
 4319TIP3   OH234447   4.432   0.171   1.579  0.4967  0.5224 -0.1376
 4319TIP3    H134448   4.344   0.147   1.551  0.8713  0.2872 -1.1655
 4319TIP3    H234449   4.435   0.266   1.570  0.2440  0.5666  0.2251
 4320TIP3   OH234450   1.375   0.181   4.877  0.0585  0.8214  0.2991
 4320TIP3    H134451   1.317   0.149   4.808 -1.1709  1.4666  0.9864
 4320TIP3    H234452   1.440   0.234   4.831 -0.8925  1.4589 -0.3627
 4321TIP3   OH234453   5.273   4.870  13.463 -0.0174  0.0675 -0.2792
 4321TIP3    H134454   5.265   4.854  13.369  2.0452 -1.1340 -0.3181
 4321TIP3    H234455   5.309   4.958  13.470 -1.4539  0.6953 -0.5291
 4322TIP3   OH234456   2.847   6.554   0.764 -0.3922  0.1446 -0.0515
 4322TIP3    H134457   2.781   6.620   0.786 -1.3241  0.0111 -2.2037
 4322TIP3    H234458   2.871   6.515   0.848 -1.0389  2.0699  1.0894
 4323TIP3   OH234459   6.805   0.366   3.910  0.0287 -0.0706  0.3215
 4323TIP3    H134460   6.853   0.307   3.967 -0.7323  1.1054  2.2852
 4323TIP3    H234461   6.725   0.386   3.958  0.0868  2.2329 -0.4105
 4324TIP3   OH234462   0.553   1.637   5.399 -0.0167 -0.1215  0.0104
 4324TIP3    H134463   0.465   1.667   5.378 -0.6068 -0.2407  2.0985
 4324TIP3    H234464   0.556   1.547   5.369 -0.7643 -0.2486  0.3001
 4325TIP3   OH234465   5.638   4.851   2.233 -0.4082 -0.4889 -0.0933
 4325TIP3    H134466   5.546   4.852   2.209 -0.4708  3.3330 -0.3693
 4325TIP3    H234467   5.685   4.853   2.149 -0.2667  1.2705 -0.0116
 4326TIP3   OH234468   3.764   6.144  14.496 -0.2334 -0.0662  0.3183
 4326TIP3    H134469   3.803   6.057  14.496  1.9105  0.8488 -0.1657
 4326TIP3    H234470   3.735   6.157  14.587 -1.1687 -1.4761  0.2705
 4327TIP3   OH234471   6.738   5.957  13.097 -0.0243  0.5462 -0.2212
 4327TIP3    H134472   6.723   5.898  13.024 -1.5135 -1.5399  1.6284
 4327TIP3    H234473   6.826   5.936  13.127 -0.3352 -0.3858  0.0737
 4328TIP3   OH234474   1.085   1.395  13.592  0.3350  0.0830  0.0317
 4328TIP3    H134475   1.051   1.334  13.526 -1.3506  0.5331  0.4482
 4328TIP3    H234476   1.054   1.359  13.675  0.3043  0.8910  0.3714
 4329TIP3   OH234477   3.541   4.989  12.359  0.3689 -0.1099  0.1908
 4329TIP3    H134478   3.485   5.061  12.386  0.1232 -0.1876 -0.1070
 4329TIP3    H234479   3.606   4.981  12.430 -0.8081 -0.9049  1.2247
 4330TIP3   OH234480   5.842   5.035  12.636  0.0855 -0.4783 -0.1137
 4330TIP3    H134481   5.937   5.023  12.633  0.2508  0.3413  1.2569
 4330TIP3    H234482   5.823   5.061  12.726 -1.5429 -1.3676 -0.1484
 4331TIP3   OH234483   3.274   0.388  13.865 -0.6156  0.1721  0.0335
 4331TIP3    H134484   3.301   0.443  13.791  1.3724 -0.1894  0.4401
 4331TIP3    H234485   3.213   0.324  13.827  3.6894 -2.9355 -2.4507
 4332TIP3   OH234486   5.368   2.274  11.869  0.1045 -0.1888 -0.0549
 4332TIP3    H134487   5.321   2.199  11.904 -0.0281 -0.0754  0.0134
 4332TIP3    H234488   5.451   2.276  11.917 -0.5062  0.5775  1.0139
 4333TIP3   OH234489   6.309   6.704   1.938 -0.2024 -0.1658 -0.9246
 4333TIP3    H134490   6.378   6.658   1.889 -1.0344 -1.1383 -1.2181
 4333TIP3    H234491   6.301   6.788   1.894  0.8718  0.0126 -0.8143
 4334TIP3   OH234492   2.155   0.340  15.596  0.1836 -0.3925 -0.3771
 4334TIP3    H134493   2.209   0.260  15.595 -0.1329 -0.5965 -1.4472
 4334TIP3    H234494   2.165   0.373  15.686 -1.0690 -2.5737  0.6709
 4335TIP3   OH234495   4.896   4.762  16.117 -0.3474  0.0129  0.2544
 4335TIP3    H134496   4.863   4.803  16.197  0.9564  0.4292  0.5911
 4335TIP3    H234497   4.851   4.677  16.114 -0.9512  0.2903  1.0374
 4336TIP3   OH234498   0.100   5.022   2.726 -0.0322 -0.4196 -0.6848
 4336TIP3    H134499   0.064   4.948   2.774  0.0392 -0.7337 -1.1172
 4336TIP3    H234500   0.193   5.023   2.749 -0.0477 -0.4198 -0.6224
 4337TIP3   OH234501   2.727   0.225   2.927 -0.0865  0.0804  0.6950
 4337TIP3    H134502   2.766   0.251   2.843 -1.1159 -0.7609 -0.0712
 4337TIP3    H234503   2.776   0.148   2.953 -0.8222 -0.6346  0.0204
 4338TIP3   OH234504   3.861   5.856   4.787 -0.3999  0.1132  0.0013
 4338TIP3    H134505   3.861   5.761   4.795 -0.1066  0.1577  0.6007
 4338TIP3    H234506   3.844   5.888   4.876  0.3388  0.6197 -0.0266
 4339TIP3   OH234507   0.515   6.683   2.914 -0.3521  0.1679  0.3303
 4339TIP3    H134508   0.496   6.749   2.980 -0.3921  0.5216 -0.0315
 4339TIP3    H234509   0.586   6.721   2.862  0.2533 -0.4586  0.6773
 4340TIP3   OH234510   3.712   4.672  16.886  0.7139  0.6272  0.8947
 4340TIP3    H134511   3.639   4.646  16.830  0.9207  1.4100  0.2398
 4340TIP3    H234512   3.788   4.671  16.828  1.2103 -0.0649  1.5437
 4341TIP3   OH234513   4.352   2.521  12.897  0.0271 -0.0022 -0.3750
 4341TIP3    H134514   4.371   2.466  12.973  0.4020  0.6963  0.0416
 4341TIP3    H234515   4.429   2.577  12.887  0.4163 -0.7397 -1.8663
 4342TIP3   OH234516   0.454   2.692   5.397  0.4801 -0.4374  0.1334
 4342TIP3    H134517   0.424   2.772   5.440 -2.5692 -1.2736 -0.1771
 4342TIP3    H234518   0.527   2.720   5.342  1.2476  1.5710  2.0616
 4343TIP3   OH234519   6.726   5.376  15.333  0.5434 -0.6000 -0.4617
 4343TIP3    H134520   6.819   5.377  15.312  0.8476 -3.0283  0.4258
 4343TIP3    H234521   6.708   5.285  15.357 -1.6605  0.1664  1.1228
 4344TIP3   OH234522   1.300   0.480   4.649  0.6930 -0.8690  0.0877
 4344TIP3    H134523   1.324   0.396   4.688  3.6260  0.1513  0.7691
 4344TIP3    H234524   1.362   0.492   4.578  0.3175  0.7105 -0.0078
 4345TIP3   OH234525   0.252   1.467  11.848 -0.4043 -0.4908 -0.4961
 4345TIP3    H134526   0.192   1.468  11.773  1.0852  2.0444 -1.7907
 4345TIP3    H234527   0.224   1.540  11.903  0.1681 -0.6427  0.0080
 4346TIP3   OH234528   4.837   4.087   0.039 -0.7482 -0.4841 -0.2026
 4346TIP3    H134529   4.867   4.176   0.061  0.1261 -0.7532 -0.2484
 4346TIP3    H234530   4.896   4.030   0.087  1.3831 -1.1100 -3.2392
 4347TIP3   OH234531   2.358   3.285   4.685 -0.2770  0.2070 -0.7515
 4347TIP3    H134532   2.264   3.283   4.702 -0.1055  0.0945  0.2464
 4347TIP3    H234533   2.373   3.215   4.623 -0.0427 -4.1967  3.6395
 4348TIP3   OH234534   2.652   3.405   6.070 -0.1159  0.6258  0.4906
 4348TIP3    H134535   2.707   3.329   6.051  0.3027  0.9344  0.4589
 4348TIP3    H234536   2.651   3.455   5.988  1.1192  1.5950  1.0218
 4349TIP3   OH234537   4.311   2.232  11.379  0.5032 -0.0246  0.4098
 4349TIP3    H134538   4.366   2.208  11.305 -1.3197  0.4506 -1.1865
 4349TIP3    H234539   4.223   2.200  11.355 -0.3020  0.8761  1.9877
 4350TIP3   OH234540   5.660   1.684  16.091  0.3389  0.0812 -0.3996
 4350TIP3    H134541   5.586   1.682  16.031  2.0288  1.0999 -2.6664
 4350TIP3    H234542   5.667   1.594  16.123 -1.9653  0.0129  0.1008
 4351TIP3   OH234543   2.124   5.321  16.845  0.4640 -0.3227 -0.5738
 4351TIP3    H134544   2.143   5.396  16.901  1.1144 -1.2137  0.4246
 4351TIP3    H234545   2.189   5.327  16.775  2.6735 -1.6857  1.2235
 4352TIP3   OH234546   0.879   6.166   0.793  0.1458 -0.5489 -0.0704
 4352TIP3    H134547   0.831   6.249   0.803  1.4180  0.0226  1.8051
 4352TIP3    H234548   0.891   6.158   0.698 -1.4779  0.5268 -0.4214
 4353TIP3   OH234549   0.052   2.135  13.290  0.4971 -0.7438 -0.0628
 4353TIP3    H134550   0.071   2.228  13.283 -0.3255 -0.6474 -1.3616
 4353TIP3    H234551  -0.003   2.127  13.368 -0.8668  0.1265 -0.8980
 4354TIP3   OH234552   5.099   5.626  15.851 -0.2736  0.0909  0.1875
 4354TIP3    H134553   5.112   5.627  15.757  1.2071 -0.1203  0.3784
 4354TIP3    H234554   5.144   5.705  15.883 -0.4300 -0.0461  0.7589
 4355TIP3   OH234555   0.053   0.074  14.968 -0.1178 -0.0294  0.5731
 4355TIP3    H134556  -0.041   0.080  14.948 -0.7248 -1.4135  2.6418
 4355TIP3    H234557   0.091   0.033  14.891 -1.6555 -1.6312  0.5807
 4356TIP3   OH234558   1.484   2.286   1.194 -0.0188  0.1922  0.2397
 4356TIP3    H134559   1.516   2.231   1.123 -0.1515 -0.7104  0.8688
 4356TIP3    H234560   1.401   2.321   1.162  0.5986  0.9386 -0.5991
 4357TIP3   OH234561   2.084   4.687  16.760  0.1389 -0.3476  0.2211
 4357TIP3    H134562   2.141   4.649  16.693 -0.3020 -0.8772  0.1434
 4357TIP3    H234563   2.141   4.697  16.837  0.2793 -1.0835  0.2154
 4358TIP3   OH234564   4.341   1.983   1.785 -0.2703  0.2383  0.2918
 4358TIP3    H134565   4.290   1.911   1.824 -0.7990  1.0491  1.1574
 4358TIP3    H234566   4.387   2.022   1.859  1.7448 -0.5351 -0.4926
 4359TIP3   OH234567   5.347   3.395  10.803 -0.6249  0.4165  0.0812
 4359TIP3    H134568   5.301   3.316  10.775  1.2701 -0.0745 -1.9323
 4359TIP3    H234569   5.320   3.462  10.741  0.3883  0.4413 -0.3448
 4360TIP3   OH234570   5.587   4.798  16.602 -0.5429 -0.1150  0.4278
 4360TIP3    H134571   5.589   4.815  16.508 -1.0344  0.2351  0.4790
 4360TIP3    H234572   5.559   4.881  16.640  0.1327 -0.1038  0.9233
 4361TIP3   OH234573   1.443   2.123   1.756 -0.4941  0.2513 -0.0954
 4361TIP3    H134574   1.484   2.082   1.832  1.5539 -0.0853 -1.2950
 4361TIP3    H234575   1.505   2.190   1.728 -1.7325  1.1332 -0.8093
 4362TIP3   OH234576   0.442   5.943  13.373  0.3174  0.1822 -0.4998
 4362TIP3    H134577   0.397   5.869  13.333 -1.5323  0.4545  0.9467
 4362TIP3    H234578   0.381   6.016  13.363  0.9215  0.8453  0.5055
 4363TIP3   OH234579   6.354   5.099  14.631  0.5276 -0.1383  0.7165
 4363TIP3    H134580   6.313   5.077  14.548  0.4427 -2.2701  1.2733
 4363TIP3    H234581   6.426   5.157  14.608 -1.1340  1.5322 -0.5363
 4364TIP3   OH234582   4.039   0.245  13.208  0.1631 -0.1840  0.0658
 4364TIP3    H134583   4.102   0.175  13.223  0.0138  0.0485  2.0724
 4364TIP3    H234584   4.074   0.319  13.258  0.8109  1.5468 -2.7114
 4365TIP3   OH234585   0.043   5.248   2.528 -0.5194 -0.4018  0.0254
 4365TIP3    H134586   0.127   5.294   2.528 -0.1459 -1.0315 -1.1603
 4365TIP3    H234587   0.055   5.174   2.587 -0.9129  0.6187  1.4317
 4366TIP3   OH234588   3.756   0.966   1.055 -0.2924 -0.5343  0.3967
 4366TIP3    H134589   3.722   1.019   0.983  0.6426  1.1985  1.1780
 4366TIP3    H234590   3.706   0.995   1.131  0.9996  0.0902  1.0406
 4367TIP3   OH234591   2.276   4.966  13.347 -0.1303 -0.0325  0.1137
 4367TIP3    H134592   2.196   4.991  13.393 -0.6561 -0.3124 -0.6190
 4367TIP3    H234593   2.279   5.024  13.270 -0.1159 -0.6266 -0.3456
 4368TIP3   OH234594   1.587   6.148   6.324  0.1995 -0.3356 -0.2154
 4368TIP3    H134595   1.624   6.135   6.411  0.0980  1.7149  0.1732
 4368TIP3    H234596   1.494   6.167   6.339  0.0439 -0.5717 -0.8291
 4369TIP3   OH234597   1.083   5.687  15.811 -0.0087  0.2321 -0.2730
 4369TIP3    H134598   1.050   5.676  15.901 -0.1704  1.2970 -0.1873
 4369TIP3    H234599   1.174   5.712  15.823 -0.4250  1.8780 -0.3298
 4370TIP3   OH234600   4.133   3.155   1.364  0.1471 -0.0059 -0.0157
 4370TIP3    H134601   4.079   3.229   1.335 -2.4049 -2.5958 -2.5732
 4370TIP3    H234602   4.102   3.136   1.452 -1.7579 -0.1548 -0.6747
 4371TIP3   OH234603   1.413   6.169   5.575 -0.5431 -0.0636  0.0415
 4371TIP3    H134604   1.451   6.086   5.545 -1.1470 -0.2214 -0.2946
 4371TIP3    H234605   1.463   6.236   5.529 -1.4482 -0.2990 -1.3511
 4372TIP3   OH234606   5.594   1.133  10.434 -0.0241  0.3192 -0.1560
 4372TIP3    H134607   5.515   1.091  10.402 -0.1249  0.1704  0.2767
 4372TIP3    H234608   5.659   1.118  10.366 -1.0843  2.8866 -1.8925
 4373TIP3   OH234609   6.330   5.290  11.599  0.0685  0.0695  0.8162
 4373TIP3    H134610   6.326   5.200  11.632 -0.8236 -0.4722 -0.6798
 4373TIP3    H234611   6.392   5.286  11.527  0.8363  0.9048  1.4140
 4374TIP3   OH234612   0.976   3.845   0.840 -0.6120  0.6802  0.2608
 4374TIP3    H134613   1.048   3.783   0.832 -0.1703  1.3097 -1.0839
 4374TIP3    H234614   1.015   3.923   0.880 -0.8940  0.5039  0.8856
 4375TIP3   OH234615   0.009   1.399  13.380  0.0263 -0.2469 -0.4524
 4375TIP3    H134616  -0.015   1.307  13.388  0.5214 -0.2210  2.1838
 4375TIP3    H234617  -0.074   1.446  13.381 -0.1905 -0.4939  2.6895
 4376TIP3   OH234618   4.692   2.545  11.894  0.2073  0.4582 -0.0210
 4376TIP3    H134619   4.623   2.500  11.942  1.8985  0.3062  2.4439
 4376TIP3    H234620   4.708   2.625  11.943 -0.0732  1.8760 -2.1402
 4377TIP3   OH234621   6.759   2.615  14.022  0.3240  0.1612  0.4827
 4377TIP3    H134622   6.699   2.678  13.982  1.9069  0.3683 -1.7605
 4377TIP3    H234623   6.800   2.663  14.094  1.1367  1.6052 -0.8700
 4378TIP3   OH234624   6.248   4.958   6.032 -0.4041  0.0854 -0.0056
 4378TIP3    H134625   6.209   5.016   5.967 -0.4401  0.8476  0.6845
 4378TIP3    H234626   6.179   4.895   6.052 -1.1082  1.0723  0.7743
 4379TIP3   OH234627   1.334   2.413  15.037 -0.0696 -0.5450 -0.2594
 4379TIP3    H134628   1.340   2.393  15.131  0.1798  1.9217  0.3025
 4379TIP3    H234629   1.242   2.399  15.016 -0.4708  0.3875  0.7640
 4380TIP3   OH234630   4.134   0.287   5.587  0.0576 -0.2603 -0.9549
 4380TIP3    H134631   4.082   0.234   5.647 -0.8070  0.4069 -1.0819
 4380TIP3    H234632   4.075   0.359   5.562  0.2590 -0.7068 -2.8808
 4381TIP3   OH234633   3.626   5.840   2.935 -0.6994  0.6550  0.4713
 4381TIP3    H134634   3.614   5.851   2.840 -0.0553  0.2854  0.3376
 4381TIP3    H234635   3.542   5.808   2.966 -0.7044  0.0670 -0.1015
 4382TIP3   OH234636   0.184   3.076  12.480  0.0224  0.2869 -0.2306
 4382TIP3    H134637   0.197   3.128  12.559 -2.2644  2.2025 -0.9654
 4382TIP3    H234638   0.147   2.993  12.511 -1.7271  1.3655  0.7572
 4383TIP3   OH234639   3.850   0.052  16.158  0.2470  0.2287 -0.6998
 4383TIP3    H134640   3.816  -0.002  16.087  0.5851 -0.5742 -0.2677
 4383TIP3    H234641   3.799   0.025  16.235  2.0932 -1.3509  0.0735
 4384TIP3   OH234642   1.183   6.485   6.434 -0.0620 -0.0158  0.6804
 4384TIP3    H134643   1.169   6.410   6.492  3.1456 -0.1243  1.4943
 4384TIP3    H234644   1.214   6.555   6.492 -1.9206  1.6528 -0.2281
 4385TIP3   OH234645   5.339   0.872  15.786 -0.3359  0.4145  0.7780
 4385TIP3    H134646   5.270   0.807  15.794  0.7890 -0.8835  0.1995
 4385TIP3    H234647   5.351   0.885  15.692  0.8907 -0.1416  0.8398
 4386TIP3   OH234648   0.600   0.774   5.023  1.1653 -0.0818  0.1231
 4386TIP3    H134649   0.646   0.719   4.959  2.1617 -0.3822  1.0702
 4386TIP3    H234650   0.603   0.724   5.104  0.9607  0.8166  0.6967
 4387TIP3   OH234651   3.445   5.275   2.728 -0.0491 -0.5674  0.3919
 4387TIP3    H134652   3.506   5.269   2.801  0.4547  1.4522  0.2052
 4387TIP3    H234653   3.486   5.224   2.658 -0.4315 -2.3288  1.4121
 4388TIP3   OH234654   1.013   1.378   1.203 -0.1375 -0.4923  0.3449
 4388TIP3    H134655   1.090   1.432   1.186  0.6910 -0.9840  2.3321
 4388TIP3    H234656   0.939   1.437   1.188  0.6552  0.3913 -0.2062
 4389TIP3   OH234657   3.243   5.759   3.123 -0.5762  0.4592 -0.9222
 4389TIP3    H134658   3.210   5.849   3.132  0.1193  0.5651  1.2791
 4389TIP3    H234659   3.187   5.719   3.057 -2.4760  1.8125 -0.2082
 4390TIP3   OH234660   3.448   0.408  11.154  0.5518 -0.5342 -0.2497
 4390TIP3    H134661   3.486   0.493  11.172 -1.1190 -0.0345  1.2214
 4390TIP3    H234662   3.358   0.427  11.128  0.0667 -1.8391  0.3744
 4391TIP3   OH234663   1.098   4.388  14.865 -0.0381  0.1810  0.8196
 4391TIP3    H134664   1.007   4.368  14.890 -0.0002  1.3574  1.9945
 4391TIP3    H234665   1.146   4.307  14.881 -0.9588 -0.6177 -0.3122
 4392TIP3   OH234666   4.810   0.761   1.425  0.2215 -0.2940 -0.2798
 4392TIP3    H134667   4.805   0.706   1.347 -0.1533 -1.8117  0.7575
 4392TIP3    H234668   4.898   0.797   1.424 -0.0900  0.5024 -1.8816
 4393TIP3   OH234669   2.765   3.013  11.836  0.2660  0.4239  0.1967
 4393TIP3    H134670   2.693   2.952  11.852  1.2047 -1.1548 -1.2264
 4393TIP3    H234671   2.807   3.024  11.921  0.3612 -1.3367  0.4077
 4394TIP3   OH234672   2.136   0.362  11.000 -0.3176 -0.0615  0.3546
 4394TIP3    H134673   2.200   0.305  10.957  0.7279  0.1135  1.6118
 4394TIP3    H234674   2.058   0.356  10.945  0.6494 -0.5712 -1.0307
 4395TIP3   OH234675   1.582   1.793   4.008 -0.5492 -0.0076 -0.6395
 4395TIP3    H134676   1.489   1.777   4.023 -0.4722 -0.4876 -0.6598
 4395TIP3    H234677   1.601   1.752   3.924 -0.2174 -0.3166 -0.4192
 4396TIP3   OH234678   4.635   6.720  12.189 -0.3390  0.1110 -0.1461
 4396TIP3    H134679   4.645   6.709  12.094 -0.6203 -0.2466 -0.1340
 4396TIP3    H234680   4.556   6.672  12.211  0.3203 -0.7386  0.4452
 4397TIP3   OH234681   2.328   6.246   0.088 -0.0207 -0.0037  0.5470
 4397TIP3    H134682   2.421   6.265   0.098  0.0844 -0.0471 -0.2553
 4397TIP3    H234683   2.292   6.252   0.177  0.7995 -0.2973  0.9069
 4398TIP3   OH234684   5.264   4.426   4.437  0.2151  0.4731  0.1066
 4398TIP3    H134685   5.342   4.390   4.479 -0.0570  0.6827  0.8042
 4398TIP3    H234686   5.280   4.520   4.433  0.0072  0.5166  0.2433
 4399TIP3   OH234687   1.743   2.393   4.651 -0.1724  0.2434 -0.2623
 4399TIP3    H134688   1.799   2.396   4.729 -0.3516  2.4663 -0.1294
 4399TIP3    H234689   1.682   2.467   4.663  0.4104  1.2758 -2.9244
 4400TIP3   OH234690   2.410   3.356   1.489 -1.0242  0.4410  0.2055
 4400TIP3    H134691   2.442   3.278   1.534 -2.0492 -0.4045 -0.4760
 4400TIP3    H234692   2.348   3.395   1.550  0.3866  1.4377  1.0519
 4401TIP3   OH234693   2.216   2.964  13.374 -0.6665 -0.2305  0.5344
 4401TIP3    H134694   2.293   2.997  13.328 -1.8530 -0.2206 -1.5539
 4401TIP3    H234695   2.183   2.894  13.319 -1.2017 -1.4150  2.2718
 4402TIP3   OH234696   6.538   0.667   4.347  0.2801 -0.3025 -0.1624
 4402TIP3    H134697   6.614   0.676   4.405  0.3308 -0.3139 -0.2265
 4402TIP3    H234698   6.463   0.667   4.406  0.3286 -0.2720 -0.0995
 4403TIP3   OH234699   0.122   1.934   4.766  0.4554  0.0972  0.0408
 4403TIP3    H134700   0.041   1.985   4.774  1.8912  2.3598  0.9079
 4403TIP3    H234701   0.114   1.891   4.681 -1.7283  0.0703  0.1873
 4404TIP3   OH234702   0.110   3.196  11.892 -0.2890 -0.0943 -0.0033
 4404TIP3    H134703   0.121   3.110  11.932  0.7476  0.1569  0.2786
 4404TIP3    H234704   0.018   3.219  11.910  0.4082  0.5806  3.4443
 4405TIP3   OH234705   4.396   5.758  15.000 -0.5597 -0.0781  0.3951
 4405TIP3    H134706   4.384   5.844  14.959 -1.2906  0.2534  1.2749
 4405TIP3    H234707   4.480   5.727  14.966 -0.5024  0.7825 -0.2842
 4406TIP3   OH234708   4.616   5.340  14.093  0.1397 -0.3818  0.0930
 4406TIP3    H134709   4.526   5.353  14.123 -0.5942 -2.6789 -0.8420
 4406TIP3    H234710   4.608   5.331  13.998  1.6761  1.3722 -0.2566
 4407TIP3   OH234711   0.472   0.850  14.978 -0.3029 -0.4363 -0.3504
 4407TIP3    H134712   0.532   0.788  14.936  0.9353  0.4071  0.1208
 4407TIP3    H234713   0.446   0.910  14.908 -0.1183 -0.4353 -0.4162
 4408TIP3   OH234714   1.352   2.519  12.769  0.4973  0.1179  0.2591
 4408TIP3    H134715   1.358   2.427  12.793 -2.3278  0.3754  2.3858
 4408TIP3    H234716   1.285   2.522  12.700  0.4353  0.6090  0.3332
 4409TIP3   OH234717   5.500   4.327  15.309 -0.8449  0.0516  0.3469
 4409TIP3    H134718   5.432   4.342  15.375  1.1913  2.2123  2.1490
 4409TIP3    H234719   5.504   4.410  15.261 -0.6061 -0.6487 -0.8483
 4410TIP3   OH234720   3.058   4.522  11.565  0.4181  0.4973  0.7416
 4410TIP3    H134721   3.097   4.558  11.645  1.1980  1.0558  0.1293
 4410TIP3    H234722   3.103   4.439  11.552  0.8819  0.7874  0.4497
 4411TIP3   OH234723   3.550   4.535   1.855  0.0963 -0.2494 -0.3327
 4411TIP3    H134724   3.622   4.597   1.865 -0.3414 -0.1018  2.6442
 4411TIP3    H234725   3.593   4.454   1.827  0.9367  0.6895 -1.9534
 4412TIP3   OH234726   2.123   1.981  14.999 -0.2082  0.6526 -0.0191
 4412TIP3    H134727   2.093   1.929  14.924  1.3367  0.8816 -0.8296
 4412TIP3    H234728   2.064   1.957  15.070 -0.9106 -0.5332 -0.9747
 4413TIP3   OH234729   0.981   0.426  12.466  0.6980 -0.1558 -1.0354
 4413TIP3    H134730   1.046   0.356  12.456 -0.3595 -1.7131  1.7389
 4413TIP3    H234731   0.906   0.383  12.508 -1.5660  1.8880 -2.6835
 4414TIP3   OH234732   2.742   1.078   0.217 -0.2013 -0.0826 -0.3903
 4414TIP3    H134733   2.748   1.140   0.290 -0.5098  0.4183 -0.7834
 4414TIP3    H234734   2.757   1.132   0.139 -1.1058 -0.3845 -0.7781
 4415TIP3   OH234735   2.449   2.473   3.003  0.6255  0.6098 -0.7471
 4415TIP3    H134736   2.401   2.421   2.938  1.4937 -1.1890 -0.0251
 4415TIP3    H234737   2.450   2.561   2.967  0.7652 -0.2421 -3.0234
 4416TIP3   OH234738   5.815   5.391  13.376 -0.2789 -0.2320 -0.2625
 4416TIP3    H134739   5.775   5.387  13.463  1.2125 -0.6799  0.4493
 4416TIP3    H234740   5.827   5.300  13.350  0.8623 -0.1445 -0.1306
 4417TIP3   OH234741   0.220   4.234   3.515  0.3205 -0.0000 -0.2233
 4417TIP3    H134742   0.184   4.214   3.428 -1.0861 -2.3794  0.8078
 4417TIP3    H234743   0.155   4.291   3.555  0.6472  0.5622 -0.4886
 4418TIP3   OH234744   4.723   3.833  14.661  0.5933 -0.0583  0.3016
 4418TIP3    H134745   4.631   3.807  14.650 -0.2229  2.2329  1.0275
 4418TIP3    H234746   4.757   3.773  14.727 -1.5395  1.2403  2.7994
 4419TIP3   OH234747   3.403   5.842  14.133  0.2919 -0.3014  0.0937
 4419TIP3    H134748   3.409   5.930  14.096 -1.2050 -0.4289 -0.4829
 4419TIP3    H234749   3.475   5.838  14.197  0.6257  1.1811 -0.1655
 4420TIP3   OH234750   0.504   2.322  15.054  0.4872 -0.1540  0.3625
 4420TIP3    H134751   0.495   2.228  15.069  0.8049 -0.0812  1.0649
 4420TIP3    H234752   0.591   2.332  15.015  1.2543  0.0079  2.0142
 4421TIP3   OH234753   6.693   2.033   2.162  0.0591 -0.2560 -0.5046
 4421TIP3    H134754   6.742   1.952   2.178 -3.1301 -2.2041  0.4502
 4421TIP3    H234755   6.654   2.020   2.076 -1.1287 -0.1580 -0.0045
 4422TIP3   OH234756   0.981   4.938   3.938 -0.5873  0.0201  0.0554
 4422TIP3    H134757   0.953   4.975   3.854 -1.4814  1.0690  0.7972
 4422TIP3    H234758   1.071   4.968   3.949 -0.8192  0.7577 -0.0385
 4423TIP3   OH234759   2.292   6.061   3.988  0.0296 -1.0474  0.6473
 4423TIP3    H134760   2.299   6.015   3.904 -0.2106 -1.6114  0.9321
 4423TIP3    H234761   2.323   6.150   3.969 -0.0836 -1.1512 -0.0507
 4424TIP3   OH234762   0.855   3.906  13.302 -0.6208  0.3059  0.0260
 4424TIP3    H134763   0.876   3.867  13.387 -1.0549  0.7915  0.3616
 4424TIP3    H234764   0.923   3.873  13.243  0.2092  0.6729  0.7592
 4425TIP3   OH234765   2.460   1.696   6.654 -0.0408  0.3020 -0.0220
 4425TIP3    H134766   2.387   1.756   6.640 -0.6247 -0.8964 -2.7176
 4425TIP3    H234767   2.460   1.640   6.576  2.0962 -1.4883  1.1641
 4426TIP3   OH234768   1.262   3.657   4.579  0.1127 -0.0713  0.2034
 4426TIP3    H134769   1.246   3.564   4.562  1.0316 -0.4766  1.4771
 4426TIP3    H234770   1.282   3.662   4.672 -0.3902  1.4816  0.2628
 4427TIP3   OH234771   4.471   4.855  15.306 -0.3736  0.0470 -0.1861
 4427TIP3    H134772   4.510   4.824  15.224 -0.3945 -1.0707  0.2077
 4427TIP3    H234773   4.459   4.949  15.292  0.8893  0.1302 -0.9546
 4428TIP3   OH234774   1.174   4.012   3.967  0.2270 -0.6887  0.6766
 4428TIP3    H134775   1.178   4.098   4.010  0.8445 -0.1356 -0.4176
 4428TIP3    H234776   1.152   4.033   3.876 -1.2057 -1.8293  0.7466
 4429TIP3   OH234777   2.588   0.010   5.410  0.3552  0.0442  0.0212
 4429TIP3    H134778   2.631   0.089   5.443 -0.0348  0.1853  0.1943
 4429TIP3    H234779   2.568  -0.041   5.488  1.5701 -0.7415 -0.1482
 4430TIP3   OH234780   0.920   5.282  14.405 -0.1869  0.3763 -0.4973
 4430TIP3    H134781   0.963   5.199  14.385 -0.6337 -0.0380  0.2100
 4430TIP3    H234782   0.955   5.306  14.491  0.2166  1.1096 -0.8614
 4431TIP3   OH234783   4.640   2.211   0.829  0.1562 -0.1535  0.7623
 4431TIP3    H134784   4.651   2.229   0.736 -2.1908  1.4309  0.7078
 4431TIP3    H234785   4.680   2.286   0.873 -2.0272  1.0910  0.8129
 4432TIP3   OH234786   4.226   4.324   0.857  0.2064 -0.4850  0.3091
 4432TIP3    H134787   4.179   4.374   0.923 -0.5920  0.1947 -0.7401
 4432TIP3    H234788   4.168   4.324   0.781  0.2446 -2.8420  0.1848
 4433TIP3   OH234789   6.593   4.743   0.627 -0.4974 -0.5383  0.5311
 4433TIP3    H134790   6.639   4.666   0.592  0.6621  0.8700 -1.1853
 4433TIP3    H234791   6.508   4.709   0.655 -0.8940 -2.1028 -2.2250
 4434TIP3   OH234792   2.397   0.884   5.368  0.1405  0.1112  0.4774
 4434TIP3    H134793   2.344   0.817   5.326  0.1459  0.6332 -0.3836
 4434TIP3    H234794   2.485   0.848   5.372  0.5156  0.7103 -1.5449
 4435TIP3   OH234795   2.650   5.161   3.218  0.3259  0.0129  0.0592
 4435TIP3    H134796   2.680   5.221   3.150  0.9721 -0.7644 -0.3674
 4435TIP3    H234797   2.721   5.158   3.281 -0.7548  1.6463  1.4278
 4436TIP3   OH234798   0.271   2.748   4.941  0.1123  0.1225  0.6808
 4436TIP3    H134799   0.183   2.785   4.942  0.0798  0.1327 -0.5674
 4436TIP3    H234800   0.275   2.699   4.859  1.0289 -0.4857  1.0687
 4437TIP3   OH234801   2.233   0.729  15.479  0.2099  0.0594  1.1077
 4437TIP3    H134802   2.142   0.757  15.489  0.6724  1.1745  2.6027
 4437TIP3    H234803   2.280   0.809  15.458  0.8178 -0.5604  0.0660
 4438TIP3   OH234804   3.463   0.601   1.454  0.0051 -0.3445 -0.1953
 4438TIP3    H134805   3.540   0.613   1.510 -0.6799  1.6661  0.4211
 4438TIP3    H234806   3.405   0.673   1.479 -2.0050 -1.7068 -0.7666
 4439TIP3   OH234807   3.848   3.837  12.543  0.2515  0.4712  0.1135
 4439TIP3    H134808   3.809   3.893  12.610  0.0567  0.4683  0.0013
 4439TIP3    H234809   3.869   3.755  12.589  0.7369  0.7139  0.3298
 4440TIP3   OH234810   4.107   3.174   4.303  0.4934 -0.0664 -0.8041
 4440TIP3    H134811   4.062   3.216   4.376 -0.8347 -0.0676 -1.5857
 4440TIP3    H234812   4.182   3.130   4.343  0.2856  0.6465  0.4246
 4441TIP3   OH234813   1.433   6.421  12.072 -0.1084  0.3368 -0.0494
 4441TIP3    H134814   1.358   6.431  12.130 -0.1219 -0.1470  0.0273
 4441TIP3    H234815   1.509   6.441  12.126 -0.0963 -0.4480  0.2414
 4442TIP3   OH234816   6.353   4.286  16.709 -0.3219  0.3124 -0.4293
 4442TIP3    H134817   6.293   4.359  16.692 -0.6960  0.2913  0.7022
 4442TIP3    H234818   6.408   4.316  16.781  0.7649  0.1650 -1.1840
 4443TIP3   OH234819   0.491   1.553  16.309 -0.1856 -0.3409 -0.0636
 4443TIP3    H134820   0.583   1.563  16.331 -0.0769  0.0546 -0.6709
 4443TIP3    H234821   0.480   1.600  16.226 -0.9955 -0.1324  0.1490
 4444TIP3   OH234822   1.708   4.001  14.005  0.8245  0.2485  0.3167
 4444TIP3    H134823   1.666   3.938  13.946 -0.1522  1.1315  0.0385
 4444TIP3    H234824   1.647   4.009  14.078 -0.2116  2.5183 -0.6948
 4445TIP3   OH234825   3.288   4.308  12.510  0.1750  0.1622 -0.4336
 4445TIP3    H134826   3.240   4.363  12.449 -0.9630  0.1879  0.4548
 4445TIP3    H234827   3.294   4.360  12.590  1.0475 -0.1396 -0.2893
 4446TIP3   OH234828   3.044   3.345  14.867 -0.4607  0.3990  0.0516
 4446TIP3    H134829   3.105   3.349  14.793 -1.5844  0.1834 -0.9115
 4446TIP3    H234830   3.098   3.365  14.944  0.4306  2.2960 -0.9970
 4447TIP3   OH234831   0.029   1.886  16.356 -0.2456  0.6111  0.0380
 4447TIP3    H134832  -0.040   1.848  16.303  1.5141  0.2168 -2.1153
 4447TIP3    H234833  -0.012   1.962  16.398 -1.7465  1.0181 -1.9905
 4448TIP3   OH234834   0.093   3.837   3.423 -0.5944 -0.0482  0.2161
 4448TIP3    H134835   0.069   3.910   3.365  1.5472 -0.2355 -1.0241
 4448TIP3    H234836   0.143   3.878   3.494  1.6721 -0.3237 -1.1171
 4449TIP3   OH234837   0.856   5.858  15.038  0.1798 -0.1772  0.0578
 4449TIP3    H134838   0.908   5.933  15.011 -1.1059  0.1240 -1.7713
 4449TIP3    H234839   0.800   5.839  14.963  0.1432 -2.7019  0.6391
 4450TIP3   OH234840   5.782   0.934   1.382  0.3408  0.4876 -0.2369
 4450TIP3    H134841   5.809   0.862   1.324 -0.8233 -0.0910 -0.0894
 4450TIP3    H234842   5.862   0.983   1.398  1.7164 -2.1682  1.6504
 4451TIP3   OH234843   3.053   3.118  16.581 -0.1743  0.1678 -0.0261
 4451TIP3    H134844   3.147   3.107  16.590 -0.4491 -0.2096  3.7484
 4451TIP3    H234845   3.015   3.046  16.631 -2.4709  1.0507 -0.3552
 4452TIP3   OH234846   5.362   5.642   0.014 -0.0369  0.1273  0.2215
 4452TIP3    H134847   5.329   5.588  -0.058 -0.3512  0.5074  0.0746
 4452TIP3    H234848   5.449   5.670  -0.016 -0.3728  0.7082 -0.2514
 4453TIP3   OH234849   1.069   4.513  13.139  0.1207 -0.1135  0.2628
 4453TIP3    H134850   1.005   4.460  13.091 -0.8555  1.4000 -0.2172
 4453TIP3    H234851   1.125   4.550  13.070 -0.1506  0.6350  0.4307
 4454TIP3   OH234852   5.848   3.218   5.389 -1.0086  0.4616 -0.7939
 4454TIP3    H134853   5.849   3.253   5.300 -2.3622 -0.3030 -1.1391
 4454TIP3    H234854   5.762   3.245   5.423 -2.3082 -2.7614 -1.2102
 4455TIP3   OH234855   6.101   5.768  13.801  0.2873  0.2859  0.1593
 4455TIP3    H134856   6.189   5.794  13.830 -0.5507  1.5385  1.7163
 4455TIP3    H234857   6.068   5.846  13.755 -0.5263  0.3430  0.8244
 4456TIP3   OH234858   4.352   6.311  15.394 -0.0364  0.1558 -0.4727
 4456TIP3    H134859   4.426   6.360  15.430  0.4952 -0.7983 -0.2357
 4456TIP3    H234860   4.340   6.237  15.454  0.1638 -0.8545 -1.6349
 4457TIP3   OH234861   1.213   6.523   5.313 -0.2343  0.4036  0.0367
 4457TIP3    H134862   1.269   6.516   5.391  0.0200  0.8742 -0.0984
 4457TIP3    H234863   1.142   6.581   5.340 -1.1072 -0.8341  0.4573
 4458TIP3   OH234864   5.134   5.871   3.917 -0.2170  0.5967  0.0600
 4458TIP3    H134865   5.041   5.866   3.895  0.3902 -0.0405 -2.6707
 4458TIP3    H234866   5.150   5.964   3.934 -1.2887  0.7394  0.3692
 4459TIP3   OH234867   1.887   2.925   4.617 -0.0951 -0.3467 -0.0938
 4459TIP3    H134868   1.908   2.987   4.686  1.3458 -0.4186 -0.4247
 4459TIP3    H234869   1.910   2.839   4.654 -0.0398 -0.4595 -0.3829
 4460TIP3   OH234870   2.957   4.050  16.556  0.1696 -0.2131  0.4144
 4460TIP3    H134871   2.948   4.036  16.461 -3.1109 -1.4017  0.7611
 4460TIP3    H234872   2.959   4.145  16.566 -0.0360 -0.0550 -0.8102
 4461TIP3   OH234873   2.665   4.268  14.344 -0.8305 -0.1167 -0.3119
 4461TIP3    H134874   2.608   4.319  14.401 -0.5414 -1.4717  1.2669
 4461TIP3    H234875   2.728   4.331  14.310 -1.6620  0.9204  0.0201
 4462TIP3   OH234876   3.366   3.057   3.955 -0.4627  0.0675 -0.0897
 4462TIP3    H134877   3.289   3.001   3.948 -3.2156  3.4625  0.2306
 4462TIP3    H234878   3.375   3.074   4.048  0.8253 -0.3702 -0.1110
 4463TIP3   OH234879   1.754   0.722  13.620 -0.3753  0.5692  0.0049
 4463TIP3    H134880   1.721   0.675  13.697  1.5645 -0.3803  0.3215
 4463TIP3    H234881   1.761   0.656  13.552 -1.4382  1.2685 -0.8139
 4464TIP3   OH234882   0.360   1.273  14.466 -0.3957  0.6810  0.2054
 4464TIP3    H134883   0.356   1.268  14.562 -0.0970  0.4777  0.2098
 4464TIP3    H234884   0.350   1.182  14.437  2.4674  0.2782  0.1764
 4465TIP3   OH234885   1.479   2.295  15.693  0.0467 -0.6486 -0.0792
 4465TIP3    H134886   1.531   2.373  15.673  0.7749 -1.1156 -0.0255
 4465TIP3    H234887   1.479   2.291  15.789 -0.2959 -0.5218 -0.0705
 4466TIP3   OH234888   5.267   0.831  13.147 -0.1204 -0.1755  0.0061
 4466TIP3    H134889   5.269   0.898  13.079 -0.8936 -0.5652 -0.4147
 4466TIP3    H234890   5.185   0.784  13.132  0.7057 -1.6366 -0.1266
 4467TIP3   OH234891   5.317   3.676   4.253  0.1410 -0.4210  0.0286
 4467TIP3    H134892   5.319   3.757   4.305 -3.5786 -1.1134  1.4937
 4467TIP3    H234893   5.374   3.616   4.301 -0.5915 -0.0158  1.4563
 4468TIP3   OH234894   4.844   4.185  16.284 -0.1860 -0.2981 -0.0229
 4468TIP3    H134895   4.889   4.260  16.325 -0.3752  0.2941 -0.8649
 4468TIP3    H234896   4.822   4.217  16.196 -1.3671 -0.9246  0.0433
 4469TIP3   OH234897   4.089   1.601   5.178 -0.1721 -0.0448  0.0099
 4469TIP3    H134898   4.100   1.543   5.104 -1.2406  0.5596 -0.6549
 4469TIP3    H234899   3.999   1.586   5.207  0.3823 -0.6332  1.5108
 4470TIP3   OH234900   0.813   1.175  11.898 -0.1486  0.2210 -0.0971
 4470TIP3    H134901   0.902   1.204  11.918  0.0180 -1.1370  1.2735
 4470TIP3    H234902   0.814   1.160  11.803  1.2495 -0.2719 -0.0321
 4471TIP3   OH234903   5.643   1.208   4.687  0.3680  0.2267 -0.3733
 4471TIP3    H134904   5.697   1.154   4.746 -1.7849  0.0363  1.5969
 4471TIP3    H234905   5.585   1.145   4.644 -0.9997  0.7438  0.6431
 4472TIP3   OH234906   3.273   1.096  13.644 -0.3490  0.2577  0.6093
 4472TIP3    H134907   3.364   1.069  13.650 -0.6792 -1.2239 -0.4423
 4472TIP3    H234908   3.261   1.124  13.553 -0.1313  3.8262  1.5423
 4473TIP3   OH234909   3.271   6.468  14.381  0.3732  0.2630 -0.3322
 4473TIP3    H134910   3.364   6.451  14.366  0.3004  1.1435 -1.9060
 4473TIP3    H234911   3.229   6.382  14.372  0.8964  0.0497 -0.7363
 4474TIP3   OH234912   2.709   3.365  15.297 -0.4939  0.2661 -0.1510
 4474TIP3    H134913   2.635   3.424  15.309 -0.9508 -0.3392  0.0354
 4474TIP3    H234914   2.771   3.415  15.244 -0.2903  1.4022  1.1013
 4475TIP3   OH234915   0.267   5.294  14.520 -0.3793 -0.6850  0.3786
 4475TIP3    H134916   0.171   5.300  14.523 -0.3450  0.2666  0.0492
 4475TIP3    H234917   0.287   5.289  14.426 -0.0869 -0.3409  0.4199
 4476TIP3   OH234918   0.044   4.620   2.624 -0.4412  0.2109  0.6407
 4476TIP3    H134919   0.135   4.604   2.600 -0.2657  1.4036  0.4812
 4476TIP3    H234920  -0.004   4.614   2.542 -0.6737 -1.3466  0.8469
 4477TIP3   OH234921   6.407   6.214  16.709 -0.4811  0.0117  0.8031
 4477TIP3    H134922   6.334   6.159  16.680 -0.8188  0.7703  0.1942
 4477TIP3    H234923   6.430   6.266  16.632 -0.6672  1.2832  1.5786
 4478TIP3   OH234924   1.317   5.356   0.305 -0.3921 -0.4269  0.0151
 4478TIP3    H134925   1.373   5.433   0.317 -0.4306 -0.6187  1.7549
 4478TIP3    H234926   1.299   5.354   0.211  0.2150  1.2529 -0.1843
 4479TIP3   OH234927   4.204   3.649  15.825 -0.3598  0.4172  0.2989
 4479TIP3    H134928   4.123   3.621  15.867  0.8477 -2.9469  0.6814
 4479TIP3    H234929   4.270   3.649  15.894  0.4712  0.7613 -0.4587
 4480TIP3   OH234930   6.451   1.179   3.257  0.1470 -0.6549  0.3628
 4480TIP3    H134931   6.365   1.170   3.216 -0.6466  1.0259  1.5673
 4480TIP3    H234932   6.503   1.227   3.193  0.0803 -1.3075 -0.1936
 4481TIP3   OH234933   1.169   3.702  16.099 -0.0197 -0.2043 -0.6258
 4481TIP3    H134934   1.147   3.693  16.007 -0.2484 -1.4549 -0.4742
 4481TIP3    H234935   1.084   3.709  16.143  0.1010  0.7919 -0.5425
 4482TIP3   OH234936   2.268   3.159   1.766  0.8511  0.3044  0.2555
 4482TIP3    H134937   2.350   3.180   1.721  2.4633 -3.9908  0.6971
 4482TIP3    H234938   2.290   3.163   1.859 -0.0081  0.8839  0.4455
 4483TIP3   OH234939   5.306   0.712   2.367 -0.2422  0.1039 -0.0840
 4483TIP3    H134940   5.308   0.680   2.277 -0.2898 -0.5655  0.1455
 4483TIP3    H234941   5.226   0.674   2.404 -0.3993  0.6463  0.1447
 4484TIP3   OH234942   5.571   4.007  16.914  0.2350  0.1579  0.1789
 4484TIP3    H134943   5.637   4.073  16.892 -0.6329  1.0814  0.2647
 4484TIP3    H234944   5.519   4.049  16.983  0.5091 -1.1543  1.2114
 4485TIP3   OH234945   6.715   3.387  11.180 -0.2880  0.2496  0.1085
 4485TIP3    H134946   6.679   3.347  11.260  0.5339  0.7324  0.7232
 4485TIP3    H234947   6.808   3.398  11.198 -0.2754  1.2862 -0.5424
 4486TIP3   OH234948   0.114   1.218   2.198  0.4106  0.0926  0.0939
 4486TIP3    H134949   0.059   1.226   2.276  1.1207  1.3593  0.5038
 4486TIP3    H234950   0.190   1.167   2.228 -0.3271 -1.3561 -0.3824
 4487TIP3   OH234951   2.214   4.585  10.872 -0.2346  0.1201 -0.3281
 4487TIP3    H134952   2.220   4.491  10.860 -0.9381 -0.1848  1.3371
 4487TIP3    H234953   2.224   4.622  10.784 -2.8342 -1.6471 -1.4848
 4488TIP3   OH234954   5.340   6.577  11.087 -0.2749 -0.2524  0.0623
 4488TIP3    H134955   5.250   6.607  11.104 -0.4856 -0.7805 -0.1058
 4488TIP3    H234956   5.330   6.505  11.025  0.3103  0.0305 -0.3639
 4489TIP3   OH234957   4.476   3.209   4.897  0.5162  0.2075  0.2976
 4489TIP3    H134958   4.567   3.179   4.893  0.6061  0.4472  0.4969
 4489TIP3    H234959   4.435   3.153   4.963  1.2995  2.0615  2.4966
 4490TIP3   OH234960   5.885   2.684   5.493  0.6729  0.4810 -0.0503
 4490TIP3    H134961   5.883   2.778   5.477 -0.6193  0.5737  0.5556
 4490TIP3    H234962   5.935   2.675   5.575  0.0386  0.7267  0.3718
 4491TIP3   OH234963   0.187   6.469  12.618  0.0118 -0.0896  0.6771
 4491TIP3    H134964   0.102   6.434  12.645  0.2817 -0.2815  1.3022
 4491TIP3    H234965   0.206   6.538  12.683  0.0850  0.3224  0.2219
 4492TIP3   OH234966   4.835   3.542  14.110 -0.8130  0.7481  0.3441
 4492TIP3    H134967   4.751   3.585  14.121 -0.9999  0.6748 -0.6894
 4492TIP3    H234968   4.823   3.484  14.035 -0.3307 -0.5273  1.2093
 4493TIP3   OH234969   2.216   1.342   4.866  0.1570 -0.4999  0.1356
 4493TIP3    H134970   2.252   1.327   4.954  1.8721 -2.0825 -0.7616
 4493TIP3    H234971   2.129   1.303   4.868  0.3330 -0.8634  1.0159
 4494TIP3   OH234972   1.715   5.199  14.995  0.2821 -0.6098  0.0886
 4494TIP3    H134973   1.758   5.171  15.075 -2.8253 -1.7027  1.5210
 4494TIP3    H234974   1.726   5.294  14.993  1.0444 -0.6583  1.3894
 4495TIP3   OH234975   1.252   3.221   1.325  0.0265 -0.2847  0.0762
 4495TIP3    H134976   1.297   3.195   1.405  0.3470  2.0655  0.7347
 4495TIP3    H234977   1.190   3.288   1.353  0.5213  0.9781 -1.7023
 4496TIP3   OH234978   3.733   3.099  15.543  0.1546 -0.1982  0.0919
 4496TIP3    H134979   3.679   3.041  15.490 -1.0499  1.5586 -0.6989
 4496TIP3    H234980   3.809   3.118  15.487 -0.2363  0.2316 -0.3060
 4497TIP3   OH234981   5.541   5.870  16.649  0.7322  0.3305 -0.0264
 4497TIP3    H134982   5.494   5.797  16.607  2.7025 -0.2323 -1.4061
 4497TIP3    H234983   5.474   5.937  16.663 -0.5186 -0.4466 -1.8799
 4498TIP3   OH234984   5.713   2.181   2.398  0.2707 -0.3697  0.4531
 4498TIP3    H134985   5.743   2.127   2.325 -2.1007 -0.5354 -0.4934
 4498TIP3    H234986   5.738   2.270   2.373  1.9577 -0.7075  0.8199
 4499TIP3   OH234987   1.335   5.068   3.080 -0.5789 -0.2301 -0.1714
 4499TIP3    H134988   1.416   5.115   3.103 -0.2038 -0.1972 -1.4532
 4499TIP3    H234989   1.318   5.011   3.155 -1.5654  2.5376  1.8885
 4500TIP3   OH234990   1.063   4.958   5.338  0.8696  0.2427  0.0642
 4500TIP3    H134991   1.100   5.022   5.398 -0.3335 -0.6432  1.8416
 4500TIP3    H234992   1.027   5.010   5.266 -0.3870  1.6460  1.6222
 4501TIP3   OH234993   4.950   6.596  13.183 -0.1370 -0.0081 -0.1649
 4501TIP3    H134994   4.866   6.568  13.148 -0.4504  1.2867 -0.5173
 4501TIP3    H234995   4.929   6.670  13.239  0.5601 -0.9457  1.3923
 4502TIP3   OH234996   5.151   4.938   3.874  0.4076  0.3827  0.0108
 4502TIP3    H134997   5.061   4.930   3.844  0.5778  1.8915 -1.0243
 4502TIP3    H234998   5.199   4.872   3.823  0.2612  1.2041 -1.2440
 4503TIP3   OH234999   0.437   3.227   2.584 -0.1467 -0.2460  0.0109
 4503TIP3    H135000   0.349   3.249   2.613 -0.3123 -1.0916  0.1609
 4503TIP3    H235001   0.474   3.311   2.556 -0.4921  0.3458  1.2664
 4504TIP3   OH235002   2.089   0.914  16.525  0.4032 -0.2568  0.2675
 4504TIP3    H135003   2.044   0.995  16.501 -0.9455 -1.0719 -0.0557
 4504TIP3    H235004   2.088   0.913  16.621 -0.8958 -0.5616  0.2735
 4505TIP3   OH235005   4.086   6.284  10.894 -0.0798 -0.0388  0.0143
 4505TIP3    H135006   4.092   6.364  10.842 -0.9266 -0.7967 -1.3085
 4505TIP3    H235007   3.998   6.250  10.875 -0.6616 -0.0729  2.3821
 4506TIP3   OH235008   0.830   1.673  15.824 -1.2472 -0.0121  0.4979
 4506TIP3    H135009   0.822   1.582  15.796 -1.0940  0.7174 -2.2018
 4506TIP3    H235010   0.741   1.698  15.849 -1.7258 -0.3146 -0.8310
 4507TIP3   OH235011   6.339   4.286  13.833  0.2821  0.0011  0.1904
 4507TIP3    H135012   6.313   4.276  13.741 -0.3542  0.1799  0.3446
 4507TIP3    H235013   6.411   4.224  13.844 -0.1775 -0.6204 -0.2193
 4508TIP3   OH235014   4.829   0.923   0.147 -0.1495 -0.3391  0.0221
 4508TIP3    H135015   4.782   0.922   0.231  1.6124  0.7594  1.1007
 4508TIP3    H235016   4.844   0.831   0.127  0.0875 -0.6184  1.3527
 4509TIP3   OH235017   3.906   3.937   5.049  0.0005 -0.2032  0.1663
 4509TIP3    H135018   3.826   3.972   5.088  0.6693  0.6095  0.8437
 4509TIP3    H235019   3.909   3.846   5.080  0.2097  0.2543  1.5727
 4510TIP3   OH235020   1.006   6.180   2.171 -0.2668  0.1106 -0.4082
 4510TIP3    H135021   1.082   6.236   2.154 -1.2645  1.1548 -1.6812
 4510TIP3    H235022   0.978   6.204   2.259 -0.7131  1.7041 -0.9550
 4511TIP3   OH235023   4.088   1.906   0.282 -0.6208 -0.6305  0.7032
 4511TIP3    H135024   4.179   1.937   0.287 -1.0213  0.7399 -0.0503
 4511TIP3    H235025   4.094   1.812   0.298  1.1620 -0.9002 -1.1081
 4512TIP3   OH235026   6.008   0.521   1.462 -0.1056 -0.1838  0.0058
 4512TIP3    H135027   6.020   0.615   1.473  1.9219 -0.4530  0.4693
 4512TIP3    H235028   5.992   0.488   1.550 -2.5997 -0.1149 -0.3521
 4513TIP3   OH235029   5.971   3.944   3.240 -0.3205  0.4106 -0.5424
 4513TIP3    H135030   6.020   3.923   3.160  1.1020 -0.4634  0.5013
 4513TIP3    H235031   6.024   4.012   3.282 -0.4016 -0.0121  0.2481
 4514TIP3   OH235032   1.237   5.546   6.676  0.2388  0.0227 -0.4092
 4514TIP3    H135033   1.188   5.554   6.595  0.3050 -2.4787 -0.7852
 4514TIP3    H235034   1.232   5.632   6.717 -0.3958  1.1301 -2.7080
 4515TIP3   OH235035   4.230   1.177   2.313 -0.2151 -0.6740 -0.0666
 4515TIP3    H135036   4.313   1.130   2.303  0.2564  0.1824 -0.2504
 4515TIP3    H235037   4.235   1.248   2.248 -0.2007  0.6394  1.3162
 4516TIP3   OH235038   6.050   1.204  16.665 -0.4535  0.1606 -0.3192
 4516TIP3    H135039   5.962   1.228  16.695  0.4192  0.6595  2.1013
 4516TIP3    H235040   6.038   1.118  16.624 -2.2157  0.6995 -1.0597
 4517TIP3   OH235041   4.196   1.956  12.585  0.6704  0.2537 -0.1854
 4517TIP3    H135042   4.289   1.963  12.609  0.1577  3.3344  1.4219
 4517TIP3    H235043   4.152   1.940  12.668 -0.3976  1.1877 -0.5520
 4518TIP3   OH235044   3.683   0.925   1.427 -0.2910  0.5612  0.5559
 4518TIP3    H135045   3.680   1.009   1.381  0.5128  0.4411  0.2699
 4518TIP3    H235046   3.701   0.947   1.518 -0.5455  0.7228  0.5675
 4519TIP3   OH235047   0.687   1.752   4.122  0.5954  0.1297 -0.3952
 4519TIP3    H135048   0.658   1.835   4.084  0.4000  0.7144  0.9746
 4519TIP3    H235049   0.781   1.750   4.106  0.4485  0.1030 -1.3545
 4520TIP3   OH235050   3.104   2.153  16.783  0.1778  0.1532 -0.0412
 4520TIP3    H135051   3.106   2.096  16.706 -0.3945 -1.0002  0.7889
 4520TIP3    H235052   3.074   2.238  16.748 -2.4323 -0.9586 -0.7408
 4521TIP3   OH235053   2.401   0.288  11.249  0.1629 -1.0442 -0.7513
 4521TIP3    H135054   2.451   0.259  11.325  0.6409  0.9872 -0.2363
 4521TIP3    H235055   2.455   0.355  11.209 -0.7144 -1.1189 -2.1022
 4522TIP3   OH235056   1.108   6.161   0.932 -0.3618  0.2932 -0.5074
 4522TIP3    H135057   1.015   6.168   0.911 -0.4978  0.0729  0.0064
 4522TIP3    H235058   1.125   6.067   0.934  0.4084  0.3167 -2.8582
 4523TIP3   OH235059   0.608   1.579  12.293 -0.5592 -0.3507 -0.5117
 4523TIP3    H135060   0.584   1.494  12.257 -1.2722 -0.0179 -0.8350
 4523TIP3    H235061   0.525   1.621  12.314 -0.1817 -0.3147  1.0208
 4524TIP3   OH235062   4.493   4.490   2.365 -0.2867 -0.8086  0.0538
 4524TIP3    H135063   4.482   4.507   2.459 -0.8328  1.5472 -0.3627
 4524TIP3    H235064   4.516   4.576   2.328  1.3645 -1.9590 -1.7843
 4525TIP3   OH235065   0.050   0.193   6.158  0.2405  0.0365 -0.0583
 4525TIP3    H135066   0.049   0.098   6.165  0.2541  0.0434  0.0372
 4525TIP3    H235067   0.115   0.212   6.090 -0.0925 -0.0432 -0.4058
 4526TIP3   OH235068   1.072   4.982  15.907  0.3427 -0.5507  0.1144
 4526TIP3    H135069   1.096   5.016  15.821 -0.5292 -1.5488 -0.5544
 4526TIP3    H235070   0.976   4.980  15.906  0.3192 -0.4820  1.1508
 4527TIP3   OH235071   0.360   0.153   0.121 -0.0383  0.5934  0.4425
 4527TIP3    H135072   0.450   0.137   0.093 -0.0221  1.4816 -0.0760
 4527TIP3    H235073   0.365   0.233   0.173 -0.3932  0.1231  1.2127
 4528TIP3   OH235074   1.177   0.481   0.560  0.3770  0.0203  0.0282
 4528TIP3    H135075   1.164   0.568   0.597 -1.0905  0.3884 -1.2529
 4528TIP3    H235076   1.090   0.454   0.531  1.0690 -1.1931 -1.0364
 4529TIP3   OH235077   6.554   0.799  14.652  0.3395  0.5553  0.5798
 4529TIP3    H135078   6.473   0.845  14.674  0.4466  2.0552 -1.8595
 4529TIP3    H235079   6.624   0.861  14.672  0.6711  0.4199 -0.1150
 4530TIP3   OH235080   2.598   0.592  14.522  0.4232  0.2588 -0.4314
 4530TIP3    H135081   2.531   0.524  14.521  0.6614 -0.0454 -3.0345
 4530TIP3    H235082   2.655   0.569  14.595 -0.1908 -1.6378 -0.4980
 4531TIP3   OH235083   2.731   3.068  12.585 -0.3113 -0.3091  0.8361
 4531TIP3    H135084   2.682   3.116  12.651 -0.0143 -1.0947  1.6606
 4531TIP3    H235085   2.819   3.105  12.588 -1.1512  2.2982 -1.8491
 4532TIP3   OH235086   0.649   5.419  13.505 -0.3743 -0.2312  0.5061
 4532TIP3    H135087   0.554   5.412  13.514 -0.7199  3.3760  0.7635
 4532TIP3    H235088   0.667   5.513  13.504  3.1112 -0.7649 -0.7109
 4533TIP3   OH235089   6.794   5.618  16.566  0.4041 -0.1477  0.0247
 4533TIP3    H135090   6.791   5.557  16.640  0.8135  1.2490  1.2555
 4533TIP3    H235091   6.765   5.701  16.603  0.9680  0.6726 -1.3166
 4534TIP3   OH235092   0.249   1.153  12.602 -0.7462  0.0074 -0.1640
 4534TIP3    H135093   0.317   1.089  12.625 -0.1659  1.3013  2.1617
 4534TIP3    H235094   0.276   1.188  12.517  0.3160 -1.0467 -0.2842
 4535TIP3   OH235095   5.729   0.036   6.313 -0.1492  0.3764  0.4982
 4535TIP3    H135096   5.661   0.102   6.325  0.4855  1.0177  0.6681
 4535TIP3    H235097   5.693  -0.044   6.350 -0.3298  1.0122  1.7381
 4536TIP3   OH235098   6.098   3.732  11.082  0.0788  0.3390 -0.6737
 4536TIP3    H135099   6.025   3.746  11.142 -0.6883 -0.0175 -1.5127
 4536TIP3    H235100   6.171   3.706  11.140 -1.0187 -1.4226  0.0195
 4537TIP3   OH235101   2.726   3.392  11.653 -0.5060 -0.1932 -0.0190
 4537TIP3    H135102   2.747   3.446  11.577  3.2324 -2.0379 -0.5198
 4537TIP3    H235103   2.690   3.311  11.615 -3.1291  0.6258  0.5516
 4538TIP3   OH235104   3.205   1.502   2.721 -0.7193 -0.6038  0.0689
 4538TIP3    H135105   3.179   1.584   2.679 -0.2334 -0.4750  0.0118
 4538TIP3    H235106   3.230   1.528   2.810  0.0063 -0.5970 -0.1336
 4539TIP3   OH235107   5.765   6.734  16.622  0.3272 -0.3594 -0.0092
 4539TIP3    H135108   5.690   6.748  16.679 -0.0718 -1.5178 -0.2276
 4539TIP3    H235109   5.752   6.646  16.585  1.3727 -0.2599 -0.6717
 4540TIP3   OH235110   2.523   2.938   2.639  0.2991  0.0912 -0.5741
 4540TIP3    H135111   2.429   2.956   2.636 -0.1662 -1.8117  0.6804
 4540TIP3    H235112   2.546   2.943   2.732  0.9996 -1.2846 -0.6374
 4541TIP3   OH235113   1.113   5.334  11.038  0.1269 -0.4012 -0.1926
 4541TIP3    H135114   1.051   5.398  11.074  1.9692  0.2383  2.0222
 4541TIP3    H235115   1.158   5.381  10.968 -0.8425 -0.4277 -0.8655
 4542TIP3   OH235116   5.968   2.670  14.412  0.5451  0.0383  0.5772
 4542TIP3    H135117   5.999   2.708  14.494 -1.1359 -0.1394  1.3384
 4542TIP3    H235118   6.047   2.655  14.361  1.8028 -1.2043  2.7419
 4543TIP3   OH235119   2.458   3.996   0.480  0.3380  0.6580  0.4194
 4543TIP3    H135120   2.511   3.964   0.554 -0.8003  0.3696  1.1293
 4543TIP3    H235121   2.409   4.070   0.516 -1.9042 -0.8558  0.6114
 4544TIP3   OH235122   0.484   2.081   3.490  0.5712  0.1882  0.3843
 4544TIP3    H135123   0.574   2.071   3.460  0.2439 -1.3883 -0.1491
 4544TIP3    H235124   0.444   1.995   3.475 -1.2895  1.1234 -0.3176
 4545TIP3   OH235125   4.206   5.572  11.903 -0.5856  0.1997  0.5262
 4545TIP3    H135126   4.294   5.533  11.908  0.3333  2.1700  0.5565
 4545TIP3    H235127   4.196   5.621  11.984 -2.2985 -1.0532  1.1319
 4546TIP3   OH235128   0.587   3.611  16.551 -0.7881  0.5838  0.0569
 4546TIP3    H135129   0.677   3.633  16.575 -1.6263  1.5729  2.5599
 4546TIP3    H235130   0.534   3.683  16.585 -2.6402 -0.4024 -0.5848
 4547TIP3   OH235131   5.661   2.863  10.987 -0.4176 -0.6080  0.0832
 4547TIP3    H135132   5.617   2.943  11.015  1.5870  0.1946  1.1846
 4547TIP3    H235133   5.654   2.805  11.063 -0.4762 -0.8793 -0.1282
 4548TIP3   OH235134   2.762   0.067  15.578 -0.2066  0.8623  0.5205
 4548TIP3    H135135   2.757   0.061  15.483  1.6532  0.4852  0.3990
 4548TIP3    H235136   2.704  -0.002  15.610  0.1021  0.1569 -0.3945
 4549TIP3   OH235137   4.334   3.430   1.300 -0.0540  0.0425 -0.4147
 4549TIP3    H135138   4.285   3.407   1.221 -1.4977  0.9318  0.1573
 4549TIP3    H235139   4.399   3.493   1.271 -0.3099  0.0557 -0.9694
 4550TIP3   OH235140   1.252   1.813  11.639 -0.0073 -0.1648 -0.0963
 4550TIP3    H135141   1.325   1.751  11.643  1.3685  1.4408  0.6297
 4550TIP3    H235142   1.176   1.761  11.663  1.3655 -1.2096  2.3794
 4551TIP3   OH235143   0.357   2.501  13.730 -0.3706 -0.1602  0.2834
 4551TIP3    H135144   0.367   2.472  13.821 -1.4126  0.8607  0.7649
 4551TIP3    H235145   0.426   2.456  13.682  0.1708 -0.7606  1.5764
 4552TIP3   OH235146   1.709   6.453  11.533  0.2663  0.0630  0.3758
 4552TIP3    H135147   1.802   6.467  11.516  0.1444  1.5500  0.7578
 4552TIP3    H235148   1.695   6.490  11.620 -0.5445 -0.8340  0.6445
 4553TIP3   OH235149   4.917   0.668  16.036  0.0077  0.2864  0.0383
 4553TIP3    H135150   4.882   0.695  15.951 -0.0326  0.1622  0.0148
 4553TIP3    H235151   4.868   0.589  16.058  0.3957  0.0080 -0.0790
 4554TIP3   OH235152   5.863   1.504  13.165  0.2062 -1.2253 -0.6628
 4554TIP3    H135153   5.783   1.529  13.119  0.4396 -0.5714 -0.7286
 4554TIP3    H235154   5.907   1.442  13.106 -0.7194 -2.3605 -0.1880
 4555TIP3   OH235155   5.752   4.721  16.864  0.2095 -0.2492 -0.3093
 4555TIP3    H135156   5.755   4.755  16.774 -0.5921 -0.6943 -0.5135
 4555TIP3    H235157   5.684   4.773  16.907  1.2697  0.6433  0.3445
 4556TIP3   OH235158   6.760   0.925   1.036  0.2365  0.3786  0.3796
 4556TIP3    H135159   6.722   0.870   1.105  0.7454 -2.2204 -1.2726
 4556TIP3    H235160   6.685   0.963   0.991 -0.1892 -0.1467  0.6325
 4557TIP3   OH235161   5.729   3.858   5.378 -0.5669  0.1406 -0.1191
 4557TIP3    H135162   5.743   3.935   5.432  0.2686 -0.8718  1.1961
 4557TIP3    H235163   5.790   3.869   5.304 -2.3710  1.9732 -1.4374
 4558TIP3   OH235164   0.034   0.392  12.096 -0.0597 -0.2415  0.0017
 4558TIP3    H135165   0.047   0.298  12.086  1.0794 -0.1099  0.1178
 4558TIP3    H235166   0.024   0.424  12.007  2.6576 -0.0831 -0.3355
 4559TIP3   OH235167   0.098   3.730  16.687  0.3314 -0.3094  0.1160
 4559TIP3    H135168   0.008   3.727  16.720  0.2489 -1.3151 -0.1753
 4559TIP3    H235169   0.096   3.797  16.619 -0.0280  0.1655  0.5840
 4560TIP3   OH235170   0.366   4.536  11.038 -0.7500  0.0443 -0.5062
 4560TIP3    H135171   0.431   4.594  11.078  0.6143  0.3196 -2.9073
 4560TIP3    H235172   0.395   4.448  11.061 -1.6370  0.2135  1.4173
 4561TIP3   OH235173   0.230   3.219  14.190 -0.1487 -0.5976  0.2300
 4561TIP3    H135174   0.216   3.270  14.269 -0.0085  0.9383 -0.6950
 4561TIP3    H235175   0.324   3.225  14.174 -0.2696 -0.3107 -0.4133
 4562TIP3   OH235176   1.270   2.540   2.284  0.1395 -0.3765  0.3954
 4562TIP3    H135177   1.319   2.578   2.357 -3.0237 -0.0402  2.5337
 4562TIP3    H235178   1.217   2.611   2.250  0.7117 -0.8190 -1.5799
 4563TIP3   OH235179   4.819   5.867   3.011  0.4866 -0.4685  0.0317
 4563TIP3    H135180   4.897   5.872   3.067 -0.2922  2.0164  1.0250
 4563TIP3    H235181   4.835   5.930   2.941 -1.0022  0.8177  0.8054
 4564TIP3   OH235182   3.537   2.822  15.994 -0.0035 -1.0287  0.2195
 4564TIP3    H135183   3.541   2.818  15.898 -1.4025  0.3381  0.0620
 4564TIP3    H235184   3.443   2.825  16.014  0.2247  1.9124  1.4099
 4565TIP3   OH235185   2.477   0.240   5.195  0.0072 -0.1175  0.1042
 4565TIP3    H135186   2.419   0.169   5.165  0.0657 -0.4364  0.7344
 4565TIP3    H235187   2.540   0.251   5.124  0.8386 -1.6364  0.5712
 4566TIP3   OH235188   3.598   3.766   4.797  0.3687 -0.5745  0.0381
 4566TIP3    H135189   3.565   3.852   4.824 -2.0692 -1.1258 -0.9586
 4566TIP3    H235190   3.608   3.718   4.879 -3.1296 -0.9214  0.4040
 4567TIP3   OH235191   1.198   3.649   2.595  0.3090  0.5544 -0.0615
 4567TIP3    H135192   1.264   3.699   2.644 -0.4408  0.5757  0.9616
 4567TIP3    H235193   1.183   3.571   2.648  0.6223 -0.1944 -1.0692
 4568TIP3   OH235194   0.718   1.243   5.002 -0.1129  0.3021  0.3056
 4568TIP3    H135195   0.763   1.237   4.918 -0.8856  1.9639 -0.2813
 4568TIP3    H235196   0.782   1.213   5.066  0.3196 -1.5131 -0.9051
 4569TIP3   OH235197   5.104   2.876  13.194  0.1307  0.0629 -0.1059
 4569TIP3    H135198   5.133   2.792  13.159  0.0705 -0.1635  0.3825
 4569TIP3    H235199   5.019   2.858  13.232  0.2029  0.3058  0.1691
 4570TIP3   OH235200   0.123   3.562  16.238 -0.0062  0.4664 -0.1794
 4570TIP3    H135201   0.057   3.578  16.306  0.4065  3.1267 -0.2812
 4570TIP3    H235202   0.201   3.535  16.286  0.6140  3.3566  0.6612
 4571TIP3   OH235203   0.935   5.413  14.159  0.3844  0.0465  0.0208
 4571TIP3    H135204   0.899   5.363  14.085  2.7235  0.3529 -1.4581
 4571TIP3    H235205   0.936   5.351  14.232 -2.4065 -0.1294 -0.0002
 4572TIP3   OH235206   6.749   5.021  10.989  0.1427  0.5834 -0.3437
 4572TIP3    H135207   6.666   5.055  11.022 -0.8494  0.3911 -2.5353
 4572TIP3    H235208   6.752   4.931  11.021 -0.9148  0.3154 -0.9632
 4573TIP3   OH235209   6.747   1.444   2.823  0.4172 -0.3710 -0.3770
 4573TIP3    H135210   6.725   1.530   2.859  0.5882 -0.9255  1.0976
 4573TIP3    H235211   6.757   1.387   2.899  4.9077 -0.6863 -0.9659
 4574TIP3   OH235212   6.156   2.372   1.446  0.0634  0.3156  0.2457
 4574TIP3    H135213   6.180   2.336   1.360 -2.2438 -1.6811  0.3348
 4574TIP3    H235214   6.125   2.297   1.496  0.2142  1.6309  2.4476
 4575TIP3   OH235215   1.098   2.114   2.608  0.2399  0.1192  0.0652
 4575TIP3    H135216   1.075   2.158   2.691 -2.3572 -0.1079 -0.4276
 4575TIP3    H235217   1.111   2.186   2.547 -0.9846  0.2990 -0.0212
 4576TIP3   OH235218   1.355   1.404  11.147 -0.6654 -0.2331 -0.1492
 4576TIP3    H135219   1.336   1.348  11.072 -1.2029 -0.8059  0.3937
 4576TIP3    H235220   1.325   1.353  11.222  1.4493 -0.4279  0.6290
 4577TIP3   OH235221   6.678   2.465   2.501 -0.2010 -0.1516  0.5386
 4577TIP3    H135222   6.676   2.432   2.590  2.2900  0.4635  0.9118
 4577TIP3    H235223   6.730   2.546   2.506  1.7244 -1.1001 -1.6925
 4578TIP3   OH235224   5.133   5.669   3.601  0.1724  0.0485  0.2376
 4578TIP3    H135225   5.187   5.744   3.578  0.9937 -0.6186 -0.0820
 4578TIP3    H235226   5.185   5.593   3.574  0.5340 -0.7508  2.8277
 4579TIP3   OH235227   1.628   6.258  13.076 -0.3679  0.4103  0.6939
 4579TIP3    H135228   1.651   6.170  13.047  0.0529  1.1941 -1.5235
 4579TIP3    H235229   1.532   6.257  13.079 -0.5866  0.6669 -2.3978
 4580TIP3   OH235230   3.259   0.677  17.012 -0.1426  0.0739  0.2300
 4580TIP3    H135231   3.248   0.583  16.993 -2.2874  0.3308 -0.0158
 4580TIP3    H235232   3.172   0.706  17.040  1.0047  1.5045  2.6167
 4581TIP3   OH235233   5.452   1.236  16.457  0.0477 -0.5367 -0.1099
 4581TIP3    H135234   5.532   1.258  16.506 -0.6266  0.6075  0.5063
 4581TIP3    H235235   5.432   1.315  16.407 -2.0703  0.0993  1.6441
 4582TIP3   OH235236   0.382   4.879   2.381 -0.1546 -0.1443  0.1389
 4582TIP3    H135237   0.350   4.934   2.452  0.7639  0.0054  0.4515
 4582TIP3    H235238   0.304   4.837   2.346 -0.5980 -0.3903  1.3866
 4583TIP3   OH235239   0.645   3.230   0.821  0.2230  0.0129 -0.2773
 4583TIP3    H135240   0.724   3.217   0.872  0.1013 -1.3759 -0.4086
 4583TIP3    H235241   0.663   3.308   0.768  1.5519 -0.3629 -0.4051
 4584TIP3   OH235242   0.794   3.106   4.961  0.1354 -0.4993  0.2754
 4584TIP3    H135243   0.843   3.114   4.879  0.8228 -0.4678  0.6894
 4584TIP3    H235244   0.731   3.036   4.944 -1.2811  1.0025 -1.0505
 4585TIP3   OH235245   2.086   4.255  12.108  0.2314  0.1113 -0.1274
 4585TIP3    H135246   2.144   4.248  12.183  0.9960 -0.6202 -0.7647
 4585TIP3    H235247   2.080   4.166  12.073  1.3165  0.6939 -1.9449
 4586TIP3   OH235248   0.171   6.509   0.774 -0.4440 -0.2159 -0.2976
 4586TIP3    H135249   0.182   6.421   0.739  0.8546  0.2473 -1.1538
 4586TIP3    H235250   0.254   6.553   0.754 -1.5698  1.6447 -1.1863
 4587TIP3   OH235251   5.951   6.594  11.962 -0.3614  0.3905 -0.0864
 4587TIP3    H135252   5.984   6.671  11.914  3.0753 -0.7671  0.1639
 4587TIP3    H235253   6.011   6.584  12.036 -2.4379 -0.9386  1.5525
 4588TIP3   OH235254   0.693   5.093   3.385 -0.3726 -0.0065 -0.8624
 4588TIP3    H135255   0.611   5.141   3.368 -0.8185 -0.7387 -0.8379
 4588TIP3    H235256   0.762   5.153   3.357 -0.9133  0.6676 -0.7942
 4589TIP3   OH235257   0.409   0.355   6.446 -0.1560  0.7793 -0.2542
 4589TIP3    H135258   0.366   0.437   6.469  0.7576  1.2183 -0.0657
 4589TIP3    H235259   0.488   0.353   6.500  0.5877  0.4827 -1.2996
 4590TIP3   OH235260   5.117   0.972  10.318 -0.0510 -0.2297  0.4123
 4590TIP3    H135261   5.142   1.048  10.266 -1.5085  0.8611  1.2119
 4590TIP3    H235262   5.026   0.989  10.343  0.2943 -1.1320  2.5117
 4591TIP3   OH235263   5.314   5.301  12.846 -0.4521 -0.3796  0.2779
 4591TIP3    H135264   5.389   5.267  12.797  0.4882  0.8054  0.8591
 4591TIP3    H235265   5.240   5.288  12.787  0.5888  0.6647 -1.3295
 4592TIP3   OH235266   2.911   3.317   3.310 -0.1351 -0.1996  0.4830
 4592TIP3    H135267   2.964   3.301   3.232 -1.6478 -1.0534 -0.4066
 4592TIP3    H235268   2.820   3.304   3.281 -0.7389 -0.5752  2.3936
 4593TIP3   OH235269   3.176   6.410   5.364  0.2518 -0.3080  0.1310
 4593TIP3    H135270   3.212   6.419   5.275 -1.3467  1.7393 -0.3847
 4593TIP3    H235271   3.230   6.469   5.417 -0.2652  0.2807  0.0145
 4594TIP3   OH235272   2.934   3.265   1.991 -0.1687  0.0186  0.3651
 4594TIP3    H135273   2.916   3.208   1.916 -0.0376  0.3967  0.0488
 4594TIP3    H235274   2.966   3.205   2.059 -1.7525 -0.5674  0.6546
 4595TIP3   OH235275   3.896   1.105  10.966  0.6304  0.1929  0.0609
 4595TIP3    H135276   3.932   1.193  10.964 -0.2694  0.5910  0.4575
 4595TIP3    H235277   3.959   1.054  11.017  0.5146  0.9277  0.9731
 4596TIP3   OH235278   5.886   0.425   1.707 -0.0364  0.3309 -0.0933
 4596TIP3    H135279   5.925   0.346   1.745 -1.5302 -0.6436 -0.4923
 4596TIP3    H235280   5.828   0.457   1.775  2.0318  2.3168  0.8675
 4597TIP3   OH235281   4.163   4.235  11.283  0.3271  0.2535 -0.0725
 4597TIP3    H135282   4.209   4.314  11.253  1.2234 -0.0694  0.4512
 4597TIP3    H235283   4.104   4.214  11.211  0.4310  1.1201 -0.4283
 4598TIP3   OH235284   3.425   0.921   1.780  0.0038 -0.5444 -0.2246
 4598TIP3    H135285   3.508   0.966   1.765 -0.1628 -0.0737  0.2385
 4598TIP3    H235286   3.393   0.901   1.692  0.1801  0.0720 -0.4386
 4599TIP3   OH235287   3.313   6.364   4.085 -0.4147  0.4891 -0.1998
 4599TIP3    H135288   3.338   6.426   4.017  0.3105  0.0854 -0.3049
 4599TIP3    H235289   3.395   6.337   4.125 -0.9117  1.8553  1.8608
 4600TIP3   OH235290   2.302   6.845   3.114  0.1292  0.0416 -0.1010
 4600TIP3    H135291   2.377   6.811   3.163  0.7901 -1.3427 -1.9509
 4600TIP3    H235292   2.226   6.804   3.155  0.4529  0.5609  1.0659
 4601TIP3   OH235293   0.188   5.654   4.313 -0.1881  0.1358  0.2391
 4601TIP3    H135294   0.284   5.659   4.322 -0.2019  1.5245 -0.0918
 4601TIP3    H235295   0.174   5.588   4.245  0.5657  0.3199 -0.1163
 4602TIP3   OH235296   6.518   2.590  15.132 -0.3433  0.1063 -0.8811
 4602TIP3    H135297   6.503   2.644  15.209 -0.3816 -1.2090  0.0603
 4602TIP3    H235298   6.465   2.632  15.063 -0.3871  1.2302 -0.1876
 4603TIP3   OH235299   1.466   2.088   6.144 -0.4439  0.2428  0.1608
 4603TIP3    H135300   1.462   1.997   6.172  0.5179 -0.2744 -1.2579
 4603TIP3    H235301   1.560   2.109   6.144 -0.6253  1.0907  0.0432
 4604TIP3   OH235302   1.743   0.090  15.104 -0.0416  0.8092 -1.0652
 4604TIP3    H135303   1.774   0.157  15.043  0.3609  1.1629 -0.4788
 4604TIP3    H235304   1.795   0.012  15.081  0.5349  1.1079 -0.7820
 4605TIP3   OH235305   6.219   5.580   3.773  0.1700 -0.5839 -0.3434
 4605TIP3    H135306   6.148   5.531   3.731 -0.6020  0.3287 -0.1244
 4605TIP3    H235307   6.202   5.671   3.751 -0.2590 -0.0571  1.9080
 4606TIP3   OH235308   3.157   0.450  15.005 -0.1864 -0.2733 -0.3758
 4606TIP3    H135309   3.084   0.394  14.982  1.6519 -3.1672  0.3360
 4606TIP3    H235310   3.187   0.418  15.090  0.2233  2.6891  0.7174
 4607TIP3   OH235311   5.219   0.445   0.989 -0.4642 -0.0417 -0.6046
 4607TIP3    H135312   5.172   0.387   1.048  2.5077 -2.0253  0.0221
 4607TIP3    H235313   5.266   0.506   1.046 -0.1607  0.1803 -1.0786
 4608TIP3   OH235314   5.200   3.282  11.999  0.0694 -0.5031  0.2241
 4608TIP3    H135315   5.282   3.245  12.033  0.3780 -0.9060 -0.9131
 4608TIP3    H235316   5.219   3.303  11.907 -0.9047  0.0273  0.1285
 4609TIP3   OH235317   0.520   2.586   5.984 -0.0200  0.2281 -0.7733
 4609TIP3    H135318   0.447   2.624   5.934 -0.5718  0.6078  0.2990
 4609TIP3    H235319   0.485   2.502   6.016  1.5248 -1.8563 -4.0127
 4610TIP3   OH235320   5.898   3.468  14.902 -0.4038  0.4200 -0.2998
 4610TIP3    H135321   5.835   3.450  14.832  0.2600  0.6080 -0.9662
 4610TIP3    H235322   5.891   3.562  14.918  0.0528  0.5345 -0.7334
 4611TIP3   OH235323   1.078   4.697  13.361  1.0616 -0.3803 -0.3502
 4611TIP3    H135324   1.162   4.741  13.345  0.1318  1.3477 -0.7117
 4611TIP3    H235325   1.062   4.646  13.282  1.9644 -1.0922 -0.0964
 4612TIP3   OH235326   2.252   5.805   1.616  0.0134  0.5103 -0.1687
 4612TIP3    H135327   2.264   5.723   1.568  0.4271  0.8875 -0.7242
 4612TIP3    H235328   2.320   5.863   1.581 -0.9064  1.4148 -0.4883
 4613TIP3   OH235329   0.607   1.513   3.783  0.2999  0.5980 -0.3102
 4613TIP3    H135330   0.522   1.526   3.741  0.8356 -0.1410 -1.7113
 4613TIP3    H235331   0.586   1.493   3.874 -1.0100  0.7447 -0.5563
 4614TIP3   OH235332   5.303   3.525   3.243  0.3400  0.1776  0.4302
 4614TIP3    H135333   5.293   3.502   3.336 -0.7570  0.5991  0.4355
 4614TIP3    H235334   5.225   3.489   3.201  0.9900 -0.2915 -0.3979
 4615TIP3   OH235335   1.669   5.424   5.859  0.0186 -0.3781 -0.2517
 4615TIP3    H135336   1.704   5.420   5.949 -0.2191 -1.7713 -0.2096
 4615TIP3    H235337   1.714   5.354   5.813 -3.4416 -3.0311  0.0865
 4616TIP3   OH235338   5.479   0.853   0.851 -0.0904  0.0945  0.0204
 4616TIP3    H135339   5.518   0.901   0.778  0.4791  3.2522  2.1926
 4616TIP3    H235340   5.539   0.780   0.867  1.5752  1.2405 -0.6782
 4617TIP3   OH235341   0.691   4.028  12.698  0.4945  0.2142 -0.0250
 4617TIP3    H135342   0.663   4.119  12.701  0.2172  0.2146 -1.5885
 4617TIP3    H235343   0.624   3.980  12.746 -1.7663  0.3483 -2.7640
 4618TIP3   OH235344   1.575   3.980  15.832  0.2392  0.1937  0.6182
 4618TIP3    H135345   1.666   3.977  15.800  0.2381 -1.6528  0.6269
 4618TIP3    H235346   1.583   3.996  15.926  0.5008  0.8530  0.4902
 4619TIP3   OH235347   3.425   1.672   3.937  0.1052  0.1130 -0.6356
 4619TIP3    H135348   3.454   1.641   4.023  1.6533  0.9317 -0.8202
 4619TIP3    H235349   3.333   1.694   3.949  0.1747 -0.2274  0.6874
 4620TIP3   OH235350   1.981   0.026  11.862  0.6949 -0.5166 -0.0528
 4620TIP3    H135351   1.893   0.006  11.894  1.4636 -2.8693  0.8522
 4620TIP3    H235352   1.986   0.121  11.863 -1.4609 -0.3520  0.9326
 4621TIP3   OH235353   5.447   5.828   0.739  0.1691 -0.1223 -0.0606
 4621TIP3    H135354   5.432   5.895   0.672 -0.1014  1.3226  1.3923
 4621TIP3    H235355   5.509   5.768   0.698 -1.6718 -0.5890 -2.4459
 4622TIP3   OH235356   2.883   2.814   3.865 -0.3834 -0.0522  0.0069
 4622TIP3    H135357   2.849   2.780   3.782  1.1687  0.4000 -0.8512
 4622TIP3    H235358   2.912   2.903   3.844 -0.4437  0.2539  1.1662
 4623TIP3   OH235359   2.809   0.881   1.533 -0.3714  0.0087 -0.0296
 4623TIP3    H135360   2.740   0.833   1.486 -0.5271 -0.9973  1.1705
 4623TIP3    H235361   2.849   0.815   1.590  0.6233  0.9227  0.3633
 4624TIP3   OH235362   1.598   0.992  11.043 -0.0272 -0.0427 -0.2110
 4624TIP3    H135363   1.540   0.916  11.036 -1.6411  0.9661  1.6070
 4624TIP3    H235364   1.561   1.056  10.983  0.3612 -0.0563 -0.4748
 4625TIP3   OH235365   5.369   3.391  13.897  0.2003 -0.2002 -0.5462
 4625TIP3    H135366   5.370   3.343  13.980 -0.2056 -0.7679 -0.8612
 4625TIP3    H235367   5.289   3.362  13.854  0.5244 -0.0910 -1.2393
 4626TIP3   OH235368   3.970   1.170  15.873  0.3734  0.2598 -0.4838
 4626TIP3    H135369   3.949   1.206  15.788  1.1467  1.2601 -0.2656
 4626TIP3    H235370   4.026   1.236  15.915  0.0671 -0.2348  0.7684
 4627TIP3   OH235371   2.283   0.817  14.404  0.1838 -0.9217  0.3561
 4627TIP3    H135372   2.319   0.891  14.453  0.6299 -0.3016 -0.8600
 4627TIP3    H235373   2.313   0.832  14.314 -0.7461 -1.9366 -0.1368
 4628TIP3   OH235374   3.811   5.074   5.004  0.3816  0.4559  0.2457
 4628TIP3    H135375   3.751   5.014   4.959  0.1974  0.7513  0.0999
 4628TIP3    H235376   3.772   5.086   5.090  0.3999  0.3979  0.2628
 4629TIP3   OH235377   1.181   2.844   2.305 -0.6071  0.2216  0.6117
 4629TIP3    H135378   1.215   2.863   2.218 -1.3357 -1.0425  0.0369
 4629TIP3    H235379   1.242   2.888   2.364 -0.1277  1.1318 -0.5243
 4630TIP3   OH235380   3.104   1.994   6.064  0.0366 -0.3517  0.7348
 4630TIP3    H135381   3.125   1.918   6.118  1.4353 -0.2142  0.4344
 4630TIP3    H235382   3.017   1.976   6.028 -0.4150 -0.9654  2.1080
 4631TIP3   OH235383   1.548   2.052  11.029  0.3560 -0.2533  0.1045
 4631TIP3    H135384   1.500   1.992  11.087  1.2244  0.2161  1.3268
 4631TIP3    H235385   1.489   2.065  10.955 -0.3870 -1.6046  0.4264
 4632TIP3   OH235386   3.888   6.139  12.801  0.1253 -0.4360 -0.3428
 4632TIP3    H135387   3.905   6.227  12.766 -0.4459  0.1687  0.8540
 4632TIP3    H235388   3.930   6.139  12.887 -1.0163 -0.8631  0.2307
 4633TIP3   OH235389   5.989   2.578   6.279 -0.2216  0.1975 -0.3210
 4633TIP3    H135390   5.901   2.548   6.300  0.8922 -1.5820  2.3842
 4633TIP3    H235391   6.043   2.499   6.283  1.9851  1.6591  1.3696
 4634TIP3   OH235392   4.452   2.428  11.958  0.1611 -0.1287 -0.6671
 4634TIP3    H135393   4.429   2.348  11.911 -0.3812  1.2354 -2.8459
 4634TIP3    H235394   4.376   2.484  11.949 -0.0168  0.1718  2.0581
 4635TIP3   OH235395   0.126   3.703   5.311 -0.6619 -0.4054  0.0814
 4635TIP3    H135396   0.114   3.775   5.373  3.5394  0.0700  0.6613
 4635TIP3    H235397   0.149   3.747   5.229  0.6764 -0.9907  0.1094
 4636TIP3   OH235398   5.723   4.345   2.590  0.5547  0.1024  0.4558
 4636TIP3    H135399   5.736   4.333   2.495 -0.0365  1.1872  0.2250
 4636TIP3    H235400   5.641   4.300   2.609  1.2156 -1.0573  0.6780
 4637TIP3   OH235401   5.638   3.923   5.875  0.0715  0.2322  0.1971
 4637TIP3    H135402   5.617   3.874   5.796  0.2700  1.1066 -0.4077
 4637TIP3    H235403   5.732   3.942   5.867  0.6443 -1.6513  1.7592
 4638TIP3   OH235404   5.740   2.096  15.064 -0.1054  0.0662 -0.2872
 4638TIP3    H135405   5.658   2.110  15.110  0.1144 -0.2002  0.1950
 4638TIP3    H235406   5.724   2.020  15.008  0.0312 -0.4357  0.3476
 4639TIP3   OH235407   4.419   0.503  15.293  0.4178 -0.5426  0.7092
 4639TIP3    H135408   4.506   0.521  15.328  0.7953  2.4465 -1.3950
 4639TIP3    H235409   4.427   0.418  15.250  1.6816 -1.2433  2.2150
 4640TIP3   OH235410   2.037   5.740   3.954 -0.8633  0.1976 -0.4238
 4640TIP3    H135411   2.097   5.667   3.937 -0.6555  0.5024 -1.0078
 4640TIP3    H235412   2.092   5.807   3.995 -0.9035  0.3057 -0.5480
 4641TIP3   OH235413   5.878   4.076  16.945  0.2031 -0.2715 -0.0827
 4641TIP3    H135414   5.926   4.140  16.997  0.5615 -0.0505 -0.6720
 4641TIP3    H235415   5.905   4.093  16.854 -1.0168 -0.1162 -0.4416
 4642TIP3   OH235416   0.183   6.652   3.878 -0.0082 -0.4257 -0.4746
 4642TIP3    H135417   0.238   6.727   3.855  0.2071 -0.9607 -1.8245
 4642TIP3    H235418   0.245   6.585   3.905 -0.2241 -0.0264  1.1143
 4643TIP3   OH235419   0.226   2.061   5.980 -0.2297  0.2285  0.5298
 4643TIP3    H135420   0.310   2.040   6.020 -0.1567  0.8371  0.7061
 4643TIP3    H235421   0.198   2.142   6.023 -0.8804  0.0622  0.4394
 4644TIP3   OH235422   5.242   1.547   0.444 -0.2944 -0.5092  0.4825
 4644TIP3    H135423   5.176   1.588   0.501 -1.1840 -0.5332 -0.4960
 4644TIP3    H235424   5.321   1.599   0.458 -1.0418  0.7297  0.2473
 4645TIP3   OH235425   0.080   4.809   0.319 -0.5180  0.3104 -0.3210
 4645TIP3    H135426   0.117   4.798   0.406 -0.5792 -0.1661 -0.3477
 4645TIP3    H235427  -0.012   4.784   0.328 -0.7083  0.9725 -0.3678
 4646TIP3   OH235428   5.742   1.491   5.366  0.0095 -0.1757  0.5710
 4646TIP3    H135429   5.737   1.418   5.305 -0.4878 -0.3296  0.7948
 4646TIP3    H235430   5.726   1.568   5.311  2.0412 -0.0729  0.0430
 4647TIP3   OH235431   3.461   4.702  11.063  0.0604 -0.0432  0.0997
 4647TIP3    H135432   3.469   4.690  10.969  1.6110 -1.3951  0.3562
 4647TIP3    H235433   3.402   4.777  11.073 -1.7550 -1.0984 -1.8818
 4648TIP3   OH235434   0.988   0.140   0.389 -0.1071  0.2916 -0.2153
 4648TIP3    H135435   0.963   0.070   0.329  1.0096 -0.8509  0.5943
 4648TIP3    H235436   0.961   0.109   0.475 -0.9116  1.5285  0.0152
 4649TIP3   OH235437   5.431   2.838   0.902  0.2242 -0.5036  0.3314
 4649TIP3    H135438   5.473   2.919   0.933 -0.5735  0.6444 -1.4550
 4649TIP3    H235439   5.391   2.801   0.980  0.5181  0.8880  1.1837
 4650TIP3   OH235440   3.917   6.813   2.269  0.0960  0.5604 -0.0212
 4650TIP3    H135441   3.865   6.854   2.339  0.4319  0.4546  0.2977
 4650TIP3    H235442   3.872   6.836   2.188 -0.3938  0.5496  0.2447
 4651TIP3   OH235443   6.852   3.834   3.152 -1.1698 -0.5358 -0.4239
 4651TIP3    H135444   6.847   3.910   3.094 -1.0444 -0.1969 -0.0028
 4651TIP3    H235445   6.879   3.762   3.096  0.9848  0.1990 -0.4149
 4652TIP3   OH235446   0.191   2.311   0.270 -0.2450  0.0135  0.3319
 4652TIP3    H135447   0.179   2.405   0.258  0.5985 -0.0920 -1.6663
 4652TIP3    H235448   0.119   2.285   0.329  0.1976  2.0588  1.8779
 4653TIP3   OH235449   6.011   1.647   0.929 -0.0205  0.5426  0.0004
 4653TIP3    H135450   6.053   1.658   1.014  0.1353  1.6347 -0.2017
 4653TIP3    H235451   5.923   1.617   0.950 -0.0459  0.9859  0.5676
 4654TIP3   OH235452   4.044   1.124   2.003  0.3735 -0.6888  0.0801
 4654TIP3    H135453   4.052   1.200   2.061  1.3725 -0.3429 -0.4959
 4654TIP3    H235454   4.132   1.109   1.970 -0.1721 -0.8710 -1.3689
 4655TIP3   OH235455   4.090   1.696  15.763 -0.1912 -0.1204 -0.2541
 4655TIP3    H135456   4.181   1.672  15.776 -0.7619 -1.9121  0.8001
 4655TIP3    H235457   4.081   1.783  15.803  0.2931 -1.4413  3.0490
 4656TIP3   OH235458   4.482   1.336  12.845  0.0674  0.1501 -0.2635
 4656TIP3    H135459   4.488   1.278  12.769  1.8023 -0.8370  0.5532
 4656TIP3    H235460   4.419   1.404  12.819  0.4103 -0.2928 -2.4639
 4657TIP3   OH235461   3.610   1.974   1.739  0.5558 -0.9591  0.4124
 4657TIP3    H135462   3.527   1.937   1.770  0.2859 -1.4268 -0.8035
 4657TIP3    H235463   3.610   2.064   1.772 -1.3451 -0.3283 -1.1038
 4658TIP3   OH235464   4.641   0.290  12.380  0.1849  0.1072  0.0697
 4658TIP3    H135465   4.677   0.360  12.435  1.1952 -0.7520  0.5312
 4658TIP3    H235466   4.668   0.209  12.424  0.7309 -0.6068 -1.5154
 4659TIP3   OH235467   4.702   0.711   5.788  0.2955  0.2273 -0.0279
 4659TIP3    H135468   4.704   0.630   5.736 -0.3089 -0.1769  0.5666
 4659TIP3    H235469   4.762   0.695   5.861  1.5614  0.9948 -0.8472
 4660TIP3   OH235470   5.588   6.290  10.520  0.2473  0.8001  0.4843
 4660TIP3    H135471   5.617   6.270  10.431 -0.0831  0.2463  0.4935
 4660TIP3    H235472   5.585   6.385  10.524 -1.6580  0.8340 -0.7243
 4661TIP3   OH235473   2.931   2.455  14.461 -0.1401  0.2033 -0.1948
 4661TIP3    H135474   2.947   2.517  14.532 -0.5819 -0.8269  0.8313
 4661TIP3    H235475   2.856   2.404  14.489 -2.1464  1.5564 -2.6531
 4662TIP3   OH235476   5.288   5.512  14.649 -0.0392 -0.1599 -0.1267
 4662TIP3    H135477   5.293   5.417  14.653 -1.7400 -0.3419 -1.1241
 4662TIP3    H235478   5.235   5.537  14.725 -1.8111 -0.2986 -1.2544
 4663TIP3   OH235479   0.936   3.987  10.320 -0.2897 -0.1731 -0.2610
 4663TIP3    H135480   0.846   3.955  10.317 -0.3109 -0.0812 -0.6197
 4663TIP3    H235481   0.970   3.973  10.232  0.8266 -2.4473  0.4447
 4664TIP3   OH235482   4.766   1.606  11.833 -0.3706  0.0551  0.2048
 4664TIP3    H135483   4.823   1.530  11.845 -0.3862 -0.1972 -1.2151
 4664TIP3    H235484   4.762   1.618  11.739 -4.0928 -1.0374  0.0915
 4665TIP3   OH235485   1.469   4.479  13.718 -0.3572  0.3587 -0.1483
 4665TIP3    H135486   1.543   4.429  13.685 -0.2442  0.5011 -0.1136
 4665TIP3    H235487   1.431   4.520  13.639 -0.9698 -0.4619 -0.2913
 4666TIP3   OH235488   6.131   5.152   5.418  0.1480 -0.8185 -0.5301
 4666TIP3    H135489   6.217   5.166   5.457 -0.4309  0.3059  0.3732
 4666TIP3    H235490   6.139   5.187   5.329  0.2262  0.6106  0.0198
 4667TIP3   OH235491   5.355   3.446  11.060  0.1317  0.1145  0.0595
 4667TIP3    H135492   5.381   3.427  10.971 -1.9409  1.6681 -0.9712
 4667TIP3    H235493   5.318   3.364  11.093  1.6618 -0.6984 -0.1572
 4668TIP3   OH235494   5.038   3.443  11.796 -0.3569  0.1831  0.4173
 4668TIP3    H135495   5.031   3.517  11.857  0.1667  0.5068  0.1026
 4668TIP3    H235496   5.026   3.365  11.850 -0.6046  0.4927  0.8112
 4669TIP3   OH235497   2.361   2.128  16.262  0.3184 -1.2599  0.6332
 4669TIP3    H135498   2.437   2.096  16.213  0.9435  1.8070 -0.6027
 4669TIP3    H235499   2.286   2.094  16.213  0.9398 -0.9767 -0.5685
 4670TIP3   OH235500   3.205   0.031   0.405  0.3489  0.0489 -0.1693
 4670TIP3    H135501   3.148  -0.026   0.456 -0.1467  0.6139 -0.0776
 4670TIP3    H235502   3.201   0.115   0.451 -0.2391  0.6187 -1.2458
 4671TIP3   OH235503   1.032   4.998   0.618  0.1372 -0.0513 -0.0800
 4671TIP3    H135504   1.074   5.040   0.543  1.3548  0.7726  1.0436
 4671TIP3    H235505   0.938   5.009   0.601  0.3579 -0.6123 -1.8761
 4672TIP3   OH235506   1.832   2.623  16.286  0.5669  0.0077 -0.7603
 4672TIP3    H135507   1.770   2.677  16.336 -0.3149 -1.8625  0.2730
 4672TIP3    H235508   1.781   2.546  16.261  2.0051 -0.7407 -1.4690
 4673TIP3   OH235509   2.546   0.990   1.988 -0.1898 -0.2501  0.5033
 4673TIP3    H135510   2.496   1.027   2.060  1.0127  0.2267  1.1313
 4673TIP3    H235511   2.567   0.901   2.016  1.8910  0.5248  1.6695
 4674TIP3   OH235512   0.454   6.470   3.847  0.0732  0.2772  0.5575
 4674TIP3    H135513   0.461   6.466   3.942 -0.4367  1.8735  0.6953
 4674TIP3    H235514   0.486   6.385   3.816 -0.8812 -0.7322  2.2067
 4675TIP3   OH235515   3.469   1.533  11.663  0.2873  0.1874  0.0664
 4675TIP3    H135516   3.388   1.482  11.666 -0.5532  1.5011  1.9850
 4675TIP3    H235517   3.505   1.526  11.751  1.8755  0.2666 -0.5477
 4676TIP3   OH235518   1.311   6.723  11.580  0.1780 -0.3103  0.0325
 4676TIP3    H135519   1.369   6.649  11.596  1.6420  0.6817 -0.4247
 4676TIP3    H235520   1.330   6.750  11.490 -0.9053  0.1444 -0.0827
 4677TIP3   OH235521   2.100   5.019  11.266  0.2982 -0.3347 -0.2101
 4677TIP3    H135522   2.052   4.942  11.298 -0.9771  0.0470 -1.1792
 4677TIP3    H235523   2.185   4.983  11.238 -0.0982 -1.3165 -0.2115
 4678TIP3   OH235524   1.046   6.587   0.613 -0.3710  0.1543 -0.1085
 4678TIP3    H135525   1.053   6.556   0.703  0.9748  0.6290 -0.0266
 4678TIP3    H235526   0.954   6.613   0.603 -0.8482 -1.1453  0.6899
 4679TIP3   OH235527   6.568   3.077   5.599  0.0675  0.0345 -0.1807
 4679TIP3    H135528   6.643   3.103   5.653 -0.0873 -2.2364  1.2474
 4679TIP3    H235529   6.500   3.142   5.621  0.2293 -0.4293  1.9431
 4680TIP3   OH235530   0.216   2.110  12.299  0.1828  0.5695  0.5186
 4680TIP3    H135531   0.177   2.151  12.222 -0.2637 -0.0639  0.4029
 4680TIP3    H235532   0.181   2.160  12.373 -0.9970 -0.0866  0.4283
 4681TIP3   OH235533   0.540   1.528  13.019 -1.0554 -0.4644  0.5674
 4681TIP3    H135534   0.447   1.551  13.030 -0.7196  1.6288 -0.4519
 4681TIP3    H235535   0.587   1.605  13.051  0.4865 -2.4005  3.3382
 4682TIP3   OH235536   2.653   3.306   4.742 -0.3688 -0.4112  0.4863
 4682TIP3    H135537   2.699   3.387   4.761 -0.1780  0.5431 -3.2932
 4682TIP3    H235538   2.569   3.334   4.704  0.2139 -1.8415 -2.1025
 4683TIP3   OH235539   2.086   6.477   2.930 -0.3322 -0.1932  0.4810
 4683TIP3    H135540   2.034   6.399   2.911  1.5518 -1.5328  0.5346
 4683TIP3    H235541   2.102   6.473   3.024  2.4200 -1.5859  0.0505
 4684TIP3   OH235542   2.411   6.264   5.641 -0.0462  0.7604  0.5647
 4684TIP3    H135543   2.490   6.214   5.619  0.3556  1.4789  0.3786
 4684TIP3    H235544   2.431   6.304   5.725 -0.3232  0.7263  0.6487
 4685TIP3   OH235545   2.163   1.455   4.614  0.7627 -0.0217 -0.5608
 4685TIP3    H135546   2.101   1.424   4.549  0.8905  0.9715 -1.1759
 4685TIP3    H235547   2.158   1.390   4.685 -2.2487  0.9095  0.2143
 4686TIP3   OH235548   5.802   6.433   6.283  0.1668 -0.0329 -0.1372
 4686TIP3    H135549   5.847   6.349   6.274 -0.0246  0.0726 -2.7375
 4686TIP3    H235550   5.721   6.411   6.329  0.9572 -0.9160  0.8916
 4687TIP3   OH235551   4.417   2.389   4.140  0.0426 -0.4777 -0.1268
 4687TIP3    H135552   4.325   2.363   4.126  0.1589 -0.4323 -1.0101
 4687TIP3    H235553   4.430   2.377   4.234 -0.3249 -2.2874 -0.2553
 4688TIP3   OH235554   0.532   4.023   2.419 -0.0676 -0.2761 -0.3187
 4688TIP3    H135555   0.558   4.060   2.503  1.4861 -0.7262 -0.5540
 4688TIP3    H235556   0.558   3.931   2.425 -1.8157 -0.8100 -0.5575
 4689TIP3   OH235557   3.021   3.218   2.905 -0.0886 -0.5983  1.0350
 4689TIP3    H135558   3.005   3.257   2.819  2.6344 -1.9054 -0.1946
 4689TIP3    H235559   3.109   3.249   2.928 -0.3488 -1.1572  2.8565
 4690TIP3   OH235560   4.767   5.936  11.038  0.0582  0.2089 -0.0627
 4690TIP3    H135561   4.691   5.882  11.016  0.2408 -0.4330  0.8090
 4690TIP3    H235562   4.771   5.934  11.134  1.3044  0.0352 -0.1040
 4691TIP3   OH235563   3.261   4.856   2.502 -0.3196  0.1212  0.5235
 4691TIP3    H135564   3.324   4.910   2.453 -1.4358  1.1894  0.2050
 4691TIP3    H235565   3.178   4.870   2.456 -0.8246 -1.1408  1.0239
 4692TIP3   OH235566   0.762   4.998  14.190  0.4159  0.3146 -0.1352
 4692TIP3    H135567   0.673   5.032  14.198 -0.2689 -1.1079 -1.2953
 4692TIP3    H235568   0.767   4.965  14.100  1.3762 -1.5718  0.5497
 4693TIP3   OH235569   5.825   3.535   3.845  0.0542  0.6784  0.3899
 4693TIP3    H135570   5.739   3.507   3.812  1.4252 -0.6975 -2.3617
 4693TIP3    H235571   5.860   3.457   3.888  1.1783  0.1281 -1.4060
 4694TIP3   OH235572   6.015   2.089  17.027  0.4700 -0.4631  0.0363
 4694TIP3    H135573   6.111   2.084  17.025  0.4425 -1.7254  0.9933
 4694TIP3    H235574   5.996   2.148  17.100  0.5116 -1.5536  0.9534
 4695TIP3   OH235575   4.625   2.684  13.907 -0.3434 -0.1838  0.4703
 4695TIP3    H135576   4.540   2.688  13.865  0.1656  2.3507 -0.5174
 4695TIP3    H235577   4.679   2.631  13.849 -0.1536  1.7598 -1.2594
 4696TIP3   OH235578   1.957   6.571   3.744 -0.0555  0.1733  0.8390
 4696TIP3    H135579   1.956   6.639   3.812 -0.9406  2.0189 -0.9242
 4696TIP3    H235580   1.879   6.588   3.691  0.2089 -1.6568 -0.2424
 4697TIP3   OH235581   0.328   5.522   1.988 -0.2658 -0.8305 -0.2137
 4697TIP3    H135582   0.272   5.517   2.065  0.4874 -0.7576  0.3487
 4697TIP3    H235583   0.406   5.570   2.018  0.1903 -1.1108 -0.9198
 4698TIP3   OH235584   3.960   6.213   2.113  0.3867  0.4252 -0.8843
 4698TIP3    H135585   3.975   6.144   2.048 -1.9748 -1.4521  0.3812
 4698TIP3    H235586   3.865   6.223   2.116  0.5077  1.5258  1.1814
 4699TIP3   OH235587   1.464   3.321   3.054 -0.4758 -0.3530  0.4182
 4699TIP3    H135588   1.539   3.315   3.113  0.4124 -1.1066 -0.7522
 4699TIP3    H235589   1.404   3.252   3.084 -0.6807  0.1827  1.2874
 4700TIP3   OH235590   0.508   2.705  10.607  0.4160 -0.4621 -0.2968
 4700TIP3    H135591   0.577   2.647  10.576  0.2832 -0.2982 -0.9018
 4700TIP3    H235592   0.533   2.791  10.575  0.2331 -0.3052 -0.0188
 4701TIP3   OH235593   5.978   0.363  12.159 -0.1809  0.1647  0.4230
 4701TIP3    H135594   5.903   0.411  12.194 -0.3967  0.4067 -0.3475
 4701TIP3    H235595   6.006   0.414  12.083  0.1213 -0.4672  0.1008
 4702TIP3   OH235596   2.334   0.367   2.133  0.3594 -0.0502  0.6220
 4702TIP3    H135597   2.283   0.323   2.201 -0.9608  0.4010 -0.0514
 4702TIP3    H235598   2.359   0.297   2.072 -0.8623 -0.0488  0.0948
 4703TIP3   OH235599   0.520   1.929   5.193  0.1751 -0.1562  0.5929
 4703TIP3    H135600   0.536   1.931   5.099  0.2753 -2.4656  0.5229
 4703TIP3    H235601   0.442   1.874   5.203 -0.3967  0.8212  1.8192
 4704TIP3   OH235602   2.489   1.595  14.746 -0.2130  0.9806 -0.1055
 4704TIP3    H135603   2.496   1.580  14.841 -0.6786  0.9818 -0.0670
 4704TIP3    H235604   2.567   1.553  14.709 -0.6527 -0.0928  0.1606
 4705TIP3   OH235605   0.854   2.371   1.970  0.0164 -0.0752 -0.3522
 4705TIP3    H135606   0.910   2.349   2.045  1.6181 -0.3918 -1.5882
 4705TIP3    H235607   0.772   2.401   2.009  1.3768  1.3881  1.5932
 4706TIP3   OH235608   2.358   1.955  13.449  0.2338 -0.0347 -0.5981
 4706TIP3    H135609   2.391   1.970  13.360 -0.1951  0.8997 -0.6142
 4706TIP3    H235610   2.301   2.030  13.466  3.6635  2.3154  2.0758
 4707TIP3   OH235611   4.469   3.398   0.336  0.2167  0.8651 -0.1549
 4707TIP3    H135612   4.457   3.489   0.361  0.1990  0.7135  0.4242
 4707TIP3    H235613   4.564   3.385   0.336  0.1948  0.6232  0.7876
 4708TIP3   OH235614   3.195   5.155   5.600 -0.8598  1.0422 -0.6707
 4708TIP3    H135615   3.274   5.149   5.654 -0.8788  2.7904 -0.3892
 4708TIP3    H235616   3.228   5.179   5.513 -1.0614  1.7171 -0.5663
 4709TIP3   OH235617   2.593   3.422   4.440  0.6648  0.5814  0.3938
 4709TIP3    H135618   2.564   3.493   4.383  1.5643  0.5709 -0.0991
 4709TIP3    H235619   2.670   3.387   4.396  1.1460  0.3202  1.4312
 4710TIP3   OH235620   2.342   0.517  13.176  0.6569 -0.1906  0.0480
 4710TIP3    H135621   2.414   0.580  13.167 -0.0081  0.7396  0.9083
 4710TIP3    H235622   2.268   0.571  13.203  0.3522 -1.4937  2.0183
 4711TIP3   OH235623   6.606   1.004  10.627 -0.1639 -0.2912 -0.5683
 4711TIP3    H135624   6.539   0.940  10.649 -0.4160  0.1425 -0.0691
 4711TIP3    H235625   6.570   1.052  10.552 -0.6507  0.2932  0.0275
 4712TIP3   OH235626   2.213   4.669   4.667  0.1238  0.3496  0.2320
 4712TIP3    H135627   2.275   4.618   4.615  0.0403  0.4033  0.0791
 4712TIP3    H235628   2.267   4.731   4.716  0.1513  0.7471 -0.2896
 4713TIP3   OH235629   5.590   6.669   6.365  0.5297  0.4964 -0.0859
 4713TIP3    H135630   5.553   6.647   6.279  1.5728 -0.8709 -0.2176
 4713TIP3    H235631   5.532   6.627   6.428 -0.8583  2.3865 -0.0106
 4714TIP3   OH235632   6.526   0.132  15.725  0.3744  0.0267 -0.9561
 4714TIP3    H135633   6.581   0.077  15.670 -0.5319  0.6414 -2.5573
 4714TIP3    H235634   6.563   0.220  15.716  0.4804  0.0619 -0.2213
 4715TIP3   OH235635   0.568   4.726  10.391  0.4374  0.5540  0.4862
 4715TIP3    H135636   0.543   4.714  10.483 -0.1057 -0.8569  0.1902
 4715TIP3    H235637   0.653   4.770  10.394  0.7687 -0.1241  1.6954
 4716TIP3   OH235638   6.588   3.236  15.807  0.5582  0.1902  0.4058
 4716TIP3    H135639   6.565   3.144  15.791  1.2184 -0.0755  0.9226
 4716TIP3    H235640   6.529   3.263  15.876  1.6841 -0.4693  1.6804
 4717TIP3   OH235641   0.458   0.322   1.197  0.1451  0.6296  0.2031
 4717TIP3    H135642   0.503   0.243   1.230  0.9879  2.0755  2.8052
 4717TIP3    H235643   0.525   0.390   1.200 -0.2231  1.3146 -3.1523
 4718TIP3   OH235644   6.154   1.668   4.605 -0.1256 -0.2726 -0.1806
 4718TIP3    H135645   6.136   1.589   4.656 -2.1128 -0.0236 -0.4061
 4718TIP3    H235646   6.249   1.677   4.607  0.2702 -3.1900 -0.9458
 4719TIP3   OH235647   4.621   2.054  14.994  0.1012 -0.0090 -0.1254
 4719TIP3    H135648   4.580   2.094  14.917 -1.4887 -0.4544  0.4391
 4719TIP3    H235649   4.611   2.120  15.063 -0.1908 -0.3403  0.1559
 4720TIP3   OH235650   2.247   4.838   2.439 -0.5110 -0.0197  0.2580
 4720TIP3    H135651   2.217   4.898   2.371 -1.0631  0.0814  0.5881
 4720TIP3    H235652   2.167   4.803   2.478 -0.2038 -1.1408 -0.0719
 4721TIP3   OH235653   3.295   4.677  15.116 -0.1264  0.0667 -0.2619
 4721TIP3    H135654   3.368   4.615  15.112 -0.3989 -0.2236 -0.7295
 4721TIP3    H235655   3.247   4.663  15.035  0.3259  1.5156 -0.8070
 4722TIP3   OH235656   1.604   4.207  11.399 -0.8334 -0.0243  0.0647
 4722TIP3    H135657   1.585   4.128  11.450 -1.5803  0.3191  0.3415
 4722TIP3    H235658   1.546   4.202  11.323 -1.7559  0.8107  0.6790
 4723TIP3   OH235659   3.789   4.562   0.312 -0.1193  0.0442  0.0335
 4723TIP3    H135660   3.772   4.470   0.293  1.4786  0.0100 -1.4303
 4723TIP3    H235661   3.720   4.609   0.266 -1.1241 -0.4000  1.0366
 4724TIP3   OH235662   0.944   0.017   4.708 -0.4787  0.1832  0.0797
 4724TIP3    H135663   0.886   0.008   4.632 -0.8329 -2.7861  0.5758
 4724TIP3    H235664   1.030  -0.008   4.676 -0.1716  1.0621  0.1882
 4725TIP3   OH235665   4.715   5.354  13.420 -0.0162 -0.2854  0.3248
 4725TIP3    H135666   4.712   5.412  13.344 -0.6957  0.2751  0.7691
 4725TIP3    H235667   4.659   5.280  13.396  0.9860 -0.8639 -0.3085
 4726TIP3   OH235668   3.962   3.699  14.049 -0.1007 -0.5070 -0.0957
 4726TIP3    H135669   3.923   3.668  14.131 -3.4922 -2.2167 -2.1157
 4726TIP3    H235670   3.958   3.794  14.055 -1.4229 -0.6012  1.2647
 4727TIP3   OH235671   2.270   6.031  15.402 -0.0342 -0.2793 -0.3640
 4727TIP3    H135672   2.246   5.950  15.358  0.0527 -0.3793 -0.2325
 4727TIP3    H235673   2.289   6.003  15.492 -1.1814  0.0729 -0.0005
 4728TIP3   OH235674   5.110   5.858   5.017  0.1397  0.0915  0.4516
 4728TIP3    H135675   5.133   5.950   5.023 -0.2222  0.1557  0.8360
 4728TIP3    H235676   5.194   5.812   5.019  0.2871  0.3780  0.8549
 4729TIP3   OH235677   3.800   0.363  12.156  0.5354  0.4274  0.0564
 4729TIP3    H135678   3.802   0.459  12.149  0.2570  0.5283  1.1753
 4729TIP3    H235679   3.870   0.342  12.217 -1.1060  0.1774  1.9674
 4730TIP3   OH235680   0.490   6.478  14.135 -0.2117 -0.5558  0.4449
 4730TIP3    H135681   0.430   6.533  14.084 -0.5507  1.3458  2.7379
 4730TIP3    H235682   0.571   6.476  14.085 -0.7622  0.6230 -0.5231
 4731TIP3   OH235683   1.286   5.752   5.274  0.2553 -0.4238 -0.3589
 4731TIP3    H135684   1.301   5.815   5.203 -1.2618 -0.4653 -0.7570
 4731TIP3    H235685   1.274   5.668   5.229  1.2737 -0.8378  0.1060
 4732TIP3   OH235686   2.946   2.411   2.426  0.5098  0.2231 -0.5815
 4732TIP3    H135687   2.892   2.341   2.390 -0.0177  0.5308 -0.3918
 4732TIP3    H235688   2.989   2.450   2.350 -0.1259  0.4715 -0.8202
 4733TIP3   OH235689   0.855   4.105  11.081 -0.5605 -0.1776  0.1374
 4733TIP3    H135690   0.854   4.197  11.110 -2.1254 -0.1691  0.1349
 4733TIP3    H235691   0.854   4.110  10.985  0.7412 -0.2173  0.1028
 4734TIP3   OH235692   1.337   2.307   4.774  0.1387 -0.3360 -0.0227
 4734TIP3    H135693   1.381   2.352   4.701  0.7606 -0.0649  0.5099
 4734TIP3    H235694   1.274   2.249   4.731 -0.1776  0.5134 -0.7469
 4735TIP3   OH235695   6.465   6.243   5.424  0.3046  0.4145  0.0182
 4735TIP3    H135696   6.455   6.337   5.441  0.4153  0.5156 -0.4710
 4735TIP3    H235697   6.500   6.208   5.506  1.8767  1.0809 -0.3229
 4736TIP3   OH235698   3.457   3.201   0.111 -0.2195 -0.1569 -0.0796
 4736TIP3    H135699   3.435   3.136   0.044  0.0179 -0.9319  0.5849
 4736TIP3    H235700   3.476   3.150   0.189 -1.2200  0.7708  0.8093
 4737TIP3   OH235701   1.224   4.952   6.659  0.1219 -0.2000 -0.7310
 4737TIP3    H135702   1.223   5.041   6.623  0.0011  0.5036  0.9065
 4737TIP3    H235703   1.175   4.900   6.595  0.1892  0.9053 -1.7219
 4738TIP3   OH235704   3.536   5.389   1.817 -0.0606 -0.1072  0.2430
 4738TIP3    H135705   3.441   5.382   1.822 -0.0868  0.7745  1.8426
 4738TIP3    H235706   3.553   5.429   1.732 -1.3508  2.6470  1.1707
 4739TIP3   OH235707   4.044   5.762  15.590 -0.5236  0.0306 -0.5782
 4739TIP3    H135708   4.035   5.670  15.614  2.0509 -0.0834  0.2898
 4739TIP3    H235709   3.966   5.782  15.537 -1.2506 -2.5548 -0.5761
 4740TIP3   OH235710   1.382   2.786   0.141 -0.4385  0.5126  0.0456
 4740TIP3    H135711   1.384   2.692   0.162 -0.1015  0.9023  1.9883
 4740TIP3    H235712   1.321   2.793   0.068 -4.5213 -0.7398  2.9413
 4741TIP3   OH235713   2.964   3.974   5.227  0.1469 -0.1768  0.7178
 4741TIP3    H135714   2.960   3.909   5.157 -0.2662  2.6770 -2.1229
 4741TIP3    H235715   2.872   3.992   5.249  0.0560  1.7796 -0.9848
 4742TIP3   OH235716   4.737   1.550  12.594 -0.1360  0.8310  0.2326
 4742TIP3    H135717   4.676   1.478  12.579  0.4368  0.5586 -0.8821
 4742TIP3    H235718   4.821   1.508  12.611  0.3353  1.2108 -1.0209
 4743TIP3   OH235719   1.104   2.506   5.788 -0.0404 -0.4200  0.3864
 4743TIP3    H135720   1.163   2.479   5.858  1.0483 -0.3139 -0.4517
 4743TIP3    H235721   1.083   2.597   5.808 -0.0912 -0.5209  0.8011
 4744TIP3   OH235722   5.846   1.626  15.500  0.3134  0.4231  0.3718
 4744TIP3    H135723   5.928   1.674  15.489  0.3978  0.8827  2.5344
 4744TIP3    H235724   5.779   1.680  15.458  0.7402  1.3585  0.8764
 4745TIP3   OH235725   1.638   0.416   6.349 -0.2859  0.3225 -0.4264
 4745TIP3    H135726   1.700   0.436   6.279  0.6626 -0.7873  0.0664
 4745TIP3    H235727   1.678   0.344   6.397 -2.6712 -1.5310 -1.0460
 4746TIP3   OH235728   4.892   0.510  13.364 -0.1185 -0.8315 -0.2741
 4746TIP3    H135729   4.831   0.440  13.340  0.2889 -1.3897  0.2895
 4746TIP3    H235730   4.926   0.542  13.281 -1.1897 -0.4989 -0.5982
 4747TIP3   OH235731   4.997   5.155   0.480 -0.1154  0.2201  0.5810
 4747TIP3    H135732   4.971   5.230   0.535  0.2492  1.7666 -1.2474
 4747TIP3    H235733   4.956   5.080   0.522  0.3180  1.2781  3.0741
 4748TIP3   OH235734   1.420   0.046  14.691  0.1075 -0.0594  0.6228
 4748TIP3    H135735   1.421   0.043  14.596 -2.0657  0.6964  0.5100
 4748TIP3    H235736   1.511   0.058  14.717  0.7514 -0.4934 -1.3355
 4749TIP3   OH235737   3.169   3.288  16.993  0.2000 -0.4410  0.1855
 4749TIP3    H135738   3.198   3.372  16.958  1.6646 -1.6743 -1.8427
 4749TIP3    H235739   3.079   3.279  16.963  0.2907  0.0799 -0.2678
 4750TIP3   OH235740   5.103   2.616   4.377  0.4663  0.5618  0.0707
 4750TIP3    H135741   5.188   2.575   4.358  0.0679 -0.7412  1.0008
 4750TIP3    H235742   5.073   2.649   4.292  1.9310  1.1350 -0.2597
 4751TIP3   OH235743   6.467   3.278   3.603  0.9088  0.0841 -0.0171
 4751TIP3    H135744   6.507   3.294   3.517 -1.9006  0.3594 -1.3814
 4751TIP3    H235745   6.431   3.363   3.629 -0.5696 -0.5730  0.1475
 4752TIP3   OH235746   3.366   0.188   3.319 -0.3825 -0.4726 -0.6221
 4752TIP3    H135747   3.323   0.200   3.234  0.9162  1.2967 -1.0915
 4752TIP3    H235748   3.359   0.273   3.362  0.1362 -0.9761  0.5000
 4753TIP3   OH235749   3.934   2.568   4.185  0.3577 -0.1547  0.6328
 4753TIP3    H135750   3.933   2.504   4.257 -0.0720 -0.7911  0.0765
 4753TIP3    H235751   3.926   2.514   4.106 -2.9479  0.7137  0.2486
 4754TIP3   OH235752   3.092   6.282  14.934 -0.1184  0.4643  0.4535
 4754TIP3    H135753   3.087   6.376  14.949  0.0035  0.5410  0.0145
 4754TIP3    H235754   3.006   6.259  14.899  0.0406  0.5066  0.0348
 4755TIP3   OH235755   3.369   3.671   3.040 -0.5002  0.1115 -0.2032
 4755TIP3    H135756   3.378   3.639   3.130 -0.1698  0.2114 -0.2004
 4755TIP3    H235757   3.453   3.652   2.999 -0.1712  1.2800 -0.1023
 4756TIP3   OH235758   0.779   3.273  15.075 -0.1459  0.1782 -0.2240
 4756TIP3    H135759   0.691   3.300  15.102  0.2921  0.3620  1.0757
 4756TIP3    H235760   0.781   3.179  15.089  0.3241  0.3697  1.2159
 4757TIP3   OH235761   2.016   0.344   0.835  0.1354  0.1517 -0.0818
 4757TIP3    H135762   1.991   0.256   0.862  1.3229  0.5955  2.8065
 4757TIP3    H235763   2.070   0.331   0.757 -0.6365 -1.5458 -0.3723
 4758TIP3   OH235764   0.172   2.801  14.835 -0.7531  0.5457  0.2748
 4758TIP3    H135765   0.158   2.892  14.862 -3.1590  0.2101  0.3796
 4758TIP3    H235766   0.164   2.803  14.740  0.1183  0.5615  0.1935
 4759TIP3   OH235767   4.443   3.373   3.811  0.4453 -0.2519  0.4743
 4759TIP3    H135768   4.398   3.456   3.791 -0.0686 -0.9280 -1.4390
 4759TIP3    H235769   4.453   3.373   3.906 -0.9793  1.2783  0.6666
 4760TIP3   OH235770   2.743   4.106   2.020  0.0055 -0.0768  0.0945
 4760TIP3    H135771   2.736   4.133   2.112 -0.8381 -0.9268  0.3030
 4760TIP3    H235772   2.835   4.085   2.008  0.1238  0.0349  0.7564
 4761TIP3   OH235773   5.659   0.384  17.042 -0.0053 -0.7238 -0.3742
 4761TIP3    H135774   5.586   0.440  17.069 -0.3495  0.4826 -3.4166
 4761TIP3    H235775   5.737   0.433  17.068 -0.2560 -0.9250  0.8248
 4762TIP3   OH235776   5.183   2.127  12.019 -0.1260  0.3635  0.5303
 4762TIP3    H135777   5.107   2.069  12.022 -1.3218  1.6246 -1.8420
 4762TIP3    H235778   5.155   2.205  12.067  1.6530 -1.0173  4.1548
 4763TIP3   OH235779   2.026   0.620   0.205  1.0451  0.2732 -0.1343
 4763TIP3    H135780   1.943   0.611   0.252  1.5665 -0.8430  0.6107
 4763TIP3    H235781   2.093   0.616   0.274  1.7126  1.9992 -0.6270
 4764TIP3   OH235782   2.856   6.090   4.650 -0.2322 -0.4233  0.0532
 4764TIP3    H135783   2.787   6.096   4.717 -0.9099 -0.2953 -0.6398
 4764TIP3    H235784   2.809   6.095   4.567  0.6731  0.1907 -0.4327
 4765TIP3   OH235785   0.542   5.062   0.756  0.3186 -0.5943  0.1482
 4765TIP3    H135786   0.560   5.149   0.791 -0.5278 -0.9765  1.6228
 4765TIP3    H235787   0.447   5.056   0.753  0.3379 -0.6599 -2.1387
 4766TIP3   OH235788   5.859   1.897   1.267 -0.1888  0.0293 -0.0953
 4766TIP3    H135789   5.891   1.986   1.286  0.1541 -0.1276  0.0611
 4766TIP3    H235790   5.773   1.893   1.309 -1.0576  0.9297 -1.6884
 4767TIP3   OH235791   5.198   5.409  11.826 -0.3180 -0.4414 -0.1338
 4767TIP3    H135792   5.290   5.400  11.799 -0.7300  0.0529 -1.8401
 4767TIP3    H235793   5.202   5.463  11.905  0.7329  2.3713 -1.9537
 4768TIP3   OH235794   3.086   6.176   4.034 -0.0398 -0.3521 -0.1575
 4768TIP3    H135795   3.161   6.231   4.016 -0.6048  0.4800 -0.0249
 4768TIP3    H235796   3.104   6.139   4.121  0.1643 -0.0747 -0.0807
 4769TIP3   OH235797   4.697   2.320   2.004 -0.0311 -0.2650  0.1487
 4769TIP3    H135798   4.754   2.275   1.942  0.9122 -0.3544  1.0477
 4769TIP3    H235799   4.637   2.252   2.035  1.6784 -1.0907  1.8418
 4770TIP3   OH235800   3.138   3.921  14.445 -0.5793  0.1912 -0.5312
 4770TIP3    H135801   3.144   3.828  14.469  1.2159  0.4950  0.3258
 4770TIP3    H235802   3.065   3.925  14.383 -4.2278 -0.9634  3.2643
 4771TIP3   OH235803   0.461   4.313   2.261 -0.0919 -0.0596  0.8515
 4771TIP3    H135804   0.519   4.353   2.325  2.7452 -1.4536 -0.6740
 4771TIP3    H235805   0.479   4.219   2.268  0.1469 -0.2670 -1.7830
 4772TIP3   OH235806   3.848   0.181  10.644 -0.0235 -0.1354  0.2988
 4772TIP3    H135807   3.787   0.108  10.630 -0.3666  0.4074 -1.2429
 4772TIP3    H235808   3.934   0.140  10.651 -0.3624 -0.7834  0.7226
 4773TIP3   OH235809   5.835   6.531  15.543  0.5942 -0.1800 -0.0766
 4773TIP3    H135810   5.806   6.484  15.621  0.4576 -0.9874 -0.6071
 4773TIP3    H235811   5.846   6.463  15.476 -0.6545  0.6462 -1.1723
 4774TIP3   OH235812   3.947   3.426   2.151 -0.0386 -0.0781  0.2309
 4774TIP3    H135813   4.021   3.452   2.096 -1.0592  0.5030 -0.8969
 4774TIP3    H235814   3.947   3.490   2.222 -1.6396  2.2722 -1.7417
 4775TIP3   OH235815   1.544   1.497  12.161  0.4539 -0.3194  0.1571
 4775TIP3    H135816   1.577   1.410  12.182 -0.4791 -1.2212 -1.8318
 4775TIP3    H235817   1.449   1.487  12.159  0.1056  1.4312  2.4834
 4776TIP3   OH235818   0.620   1.475   4.056 -0.1945 -0.4529  0.1579
 4776TIP3    H135819   0.634   1.568   4.075  3.1900 -0.6978 -0.5048
 4776TIP3    H235820   0.676   1.429   4.118 -1.8505 -2.1107  0.5040
 4777TIP3   OH235821   4.192   1.462  11.522  0.1937  0.2701 -0.4299
 4777TIP3    H135822   4.237   1.516  11.587  0.5013  1.6994 -1.7765
 4777TIP3    H235823   4.110   1.437  11.564 -0.3020  2.4100  0.0050
 4778TIP3   OH235824   5.921   5.633   4.806  0.1464 -0.0286  0.3344
 4778TIP3    H135825   6.009   5.647   4.841  0.0500  1.3671  0.0897
 4778TIP3    H235826   5.925   5.668   4.717 -0.5627 -0.2471  0.2133
 4779TIP3   OH235827   1.825   0.748   3.542  0.1242  0.2928  0.1757
 4779TIP3    H135828   1.882   0.731   3.617 -0.0796 -1.0299  0.0649
 4779TIP3    H235829   1.837   0.670   3.486 -1.2787  0.3086 -0.1663
 4780TIP3   OH235830   2.929   5.180  13.847 -0.2958 -1.0615  0.0154
 4780TIP3    H135831   2.853   5.133  13.881  0.4587 -2.5732 -0.3191
 4780TIP3    H235832   2.921   5.174  13.752  0.2060 -1.1868 -0.0237
 4781TIP3   OH235833   2.650   2.967   2.190  0.1742  0.2892  0.1536
 4781TIP3    H135834   2.555   2.953   2.192  0.3832 -1.8277 -1.1349
 4781TIP3    H235835   2.666   3.037   2.253 -2.4222  1.9423 -0.8565
 4782TIP3   OH235836   6.728   1.874   3.221 -0.1215  0.1840  0.1374
 4782TIP3    H135837   6.693   1.934   3.287  0.7604 -0.4558  1.2273
 4782TIP3    H235838   6.778   1.809   3.271  1.7483  0.4636 -1.2361
 4783TIP3   OH235839   2.772   3.080  14.353  0.0351 -0.0536 -0.0334
 4783TIP3    H135840   2.767   3.020  14.428 -1.9644 -0.5464 -0.4977
 4783TIP3    H235841   2.818   3.030  14.286 -0.1479 -0.4466  0.1308
 4784TIP3   OH235842   0.964   3.458   4.225 -0.2070 -0.2093 -0.0137
 4784TIP3    H135843   0.895   3.447   4.290 -1.2485  1.6477 -0.7263
 4784TIP3    H235844   1.033   3.505   4.271 -1.9540  3.3971 -0.7116
 4785TIP3   OH235845   3.628   1.111  10.735  0.1848 -0.3101 -0.5890
 4785TIP3    H135846   3.673   1.153  10.661 -0.1723 -0.0233 -0.6463
 4785TIP3    H235847   3.676   1.141  10.812  0.6245 -0.6911 -0.7031
 4786TIP3   OH235848   1.225   1.410  14.644 -0.7751 -0.2262  0.6609
 4786TIP3    H135849   1.238   1.488  14.697  0.7594 -1.5908  2.4213
 4786TIP3    H235850   1.313   1.375  14.631 -1.5226 -2.3827  1.0938
 4787TIP3   OH235851   6.337   0.348   1.237  0.0958  0.5183 -0.1825
 4787TIP3    H135852   6.276   0.350   1.311  3.2890  0.9232  2.6743
 4787TIP3    H235853   6.324   0.262   1.197 -0.7295 -0.3555  1.8302
 4788TIP3   OH235854   2.389   0.940  13.142  0.1520 -0.9923 -0.5351
 4788TIP3    H135855   2.329   0.999  13.189  0.9507  0.8921 -1.7522
 4788TIP3    H235856   2.345   0.922  13.060  0.1778 -1.6490 -0.4107
 4789TIP3   OH235857   2.428   1.186   3.978  0.1201 -0.4906 -0.3018
 4789TIP3    H135858   2.421   1.246   4.052  2.1919 -1.4879  0.8107
 4789TIP3    H235859   2.350   1.132   3.984 -0.5590  0.5046  0.1469
 4790TIP3   OH235860   6.742   4.154   6.398 -0.6591 -0.1787  0.2322
 4790TIP3    H135861   6.817   4.178   6.452  0.3344  2.1511 -1.9800
 4790TIP3    H235862   6.780   4.133   6.313 -2.4710  0.7855 -0.8703
 4791TIP3   OH235863   5.526   2.731  10.162  0.1933  0.4400 -0.4727
 4791TIP3    H135864   5.531   2.796  10.232 -1.9317 -2.1857  2.4298
 4791TIP3    H235865   5.588   2.663  10.188  2.6966  1.3082 -3.6588
 4792TIP3   OH235866   5.036   0.487  12.509  0.7071 -0.1098 -0.0641
 4792TIP3    H135867   5.079   0.572  12.517  1.5155 -0.4516 -0.6264
 4792TIP3    H235868   5.084   0.442  12.439 -1.8097  0.2642 -2.1810
 4793TIP3   OH235869   0.772   4.600   3.296  0.4010  0.5003 -0.1615
 4793TIP3    H135870   0.850   4.591   3.351  0.2300  2.7744  0.5606
 4793TIP3    H235871   0.715   4.529   3.322 -0.1576  2.0956  3.5180
 4794TIP3   OH235872   2.106   3.677  14.952 -0.5805 -0.4107 -0.4609
 4794TIP3    H135873   2.140   3.765  14.934 -0.8387 -0.3287 -0.5453
 4794TIP3    H235874   2.125   3.628  14.872  0.9056 -0.8433  0.1212
 4795TIP3   OH235875   2.694   4.985   6.092 -0.1987  0.1780  0.5144
 4795TIP3    H135876   2.773   4.941   6.123 -0.2386  0.1696  0.6059
 4795TIP3    H235877   2.687   5.064   6.146  0.2743  0.6780 -0.1455
 4796TIP3   OH235878   4.119   3.137  13.658 -0.0294 -0.4054  0.3635
 4796TIP3    H135879   4.047   3.196  13.683 -1.3249 -1.7416 -0.0932
 4796TIP3    H235880   4.198   3.187  13.678 -1.0713  1.1708  0.7599
 4797TIP3   OH235881   0.130   4.860   0.990  0.5395  0.1192  0.0373
 4797TIP3    H135882   0.046   4.866   0.945  0.3001  1.2019  0.5948
 4797TIP3    H235883   0.147   4.766   0.996 -1.2934 -0.1866  1.1313
 4798TIP3   OH235884   3.407   0.144   3.682 -0.0262  0.1732 -0.0914
 4798TIP3    H135885   3.499   0.144   3.654  0.5662  0.0422  1.7345
 4798TIP3    H235886   3.409   0.178   3.771 -2.0557  2.4794 -0.8177
 4799TIP3   OH235887   4.711   5.293   1.301 -0.3098 -0.3213 -0.5661
 4799TIP3    H135888   4.803   5.318   1.306 -0.5159  0.6069 -1.0684
 4799TIP3    H235889   4.704   5.214   1.354  0.3914  0.7245  1.1709
 4800TIP3   OH235890   6.694   3.902  14.386  0.0459  0.0467  0.2717
 4800TIP3    H135891   6.715   3.815  14.421  1.9259 -0.0796 -0.9931
 4800TIP3    H235892   6.735   3.963  14.447 -3.9851  0.3565  3.0183
 4801TIP3   OH235893   5.281   5.484   0.242  0.0170  0.3247 -0.2214
 4801TIP3    H135894   5.212   5.533   0.286 -0.1805 -1.0254  1.0211
 4801TIP3    H235895   5.306   5.540   0.168 -1.3785  1.4919  0.1472
 4802TIP3   OH235896   3.229   5.624  13.689  0.4346 -0.1115  0.3902
 4802TIP3    H135897   3.249   5.627  13.782  0.4303 -0.5146  0.4057
 4802TIP3    H235898   3.144   5.581  13.684  0.4417 -0.1041  0.1981
 4803TIP3   OH235899   5.134   2.158  13.862 -0.4107 -0.5336  0.4635
 4803TIP3    H135900   5.065   2.174  13.925  0.0026 -0.2116  0.8407
 4803TIP3    H235901   5.163   2.246  13.835 -0.7046 -0.6608 -0.3156
 4804TIP3   OH235902   5.574   4.923  14.365  0.0728  0.1245 -0.7392
 4804TIP3    H135903   5.597   4.895  14.453  0.6944 -0.8578 -1.2069
 4804TIP3    H235904   5.564   5.018  14.372 -1.1921 -0.0820  0.6721
 4805TIP3   OH235905   5.199   0.491  12.930  0.2789 -0.4220  0.5852
 4805TIP3    H135906   5.159   0.458  13.011 -0.1189 -0.5980  0.3207
 4805TIP3    H235907   5.162   0.436  12.861  1.1701 -0.7597  0.3543
 4806TIP3   OH235908   1.885   5.410  12.224 -0.0289 -0.2051  0.1000
 4806TIP3    H135909   1.882   5.501  12.198 -0.2250 -0.7683 -2.0118
 4806TIP3    H235910   1.978   5.392  12.237 -0.0996  0.6974  2.2799
 4807TIP3   OH235911   0.457   1.195  16.943 -0.0048  0.2088  0.0229
 4807TIP3    H135912   0.435   1.287  16.956  0.2008  0.3256 -0.4308
 4807TIP3    H235913   0.444   1.180  16.849 -1.1670 -0.5367  0.2952
 4808TIP3   OH235914   5.554   2.237  11.480  0.3126 -0.2927  0.6478
 4808TIP3    H135915   5.535   2.194  11.563  0.9803  0.0626  0.9957
 4808TIP3    H235916   5.509   2.183  11.415  0.0390 -0.7551  1.2005
 4809TIP3   OH235917   4.126   5.702  13.760 -0.0154 -0.3967 -0.6549
 4809TIP3    H135918   4.037   5.701  13.723 -0.4686 -1.4325  0.3754
 4809TIP3    H235919   4.117   5.657  13.844  1.4879 -0.4721 -0.5075
 4810TIP3   OH235920   0.579   1.514   2.405  0.4289 -0.5351 -0.0974
 4810TIP3    H135921   0.551   1.582   2.466  1.1918 -0.7117  0.4675
 4810TIP3    H235922   0.635   1.559   2.342  1.9954 -0.8340  1.0302
 4811TIP3   OH235923   3.025   1.978  14.571 -0.2301  0.0054  0.1294
 4811TIP3    H135924   2.933   1.973  14.542 -0.3023 -0.0356  0.3655
 4811TIP3    H235925   3.059   2.056  14.526 -0.2022 -0.3318 -0.4453
 4812TIP3   OH235926   6.567   2.497  14.263 -0.5119  0.2336 -0.3553
 4812TIP3    H135927   6.497   2.437  14.236 -0.5643  0.8127 -1.5527
 4812TIP3    H235928   6.551   2.577  14.214  1.1570  0.2795 -0.8920
 4813TIP3   OH235929   2.218   0.940  12.866  0.4648 -0.2081 -0.0698
 4813TIP3    H135930   2.254   0.968  12.781  1.3747 -0.8067  0.0957
 4813TIP3    H235931   2.218   0.844  12.861 -2.5663 -0.2804 -0.6255
 4814TIP3   OH235932   0.191   5.249  10.903 -0.2838  0.2695 -0.2500
 4814TIP3    H135933   0.266   5.252  10.963 -0.0477  0.1081 -0.5366
 4814TIP3    H235934   0.230   5.252  10.816 -0.6695  1.5478 -0.3951
 4815TIP3   OH235935   0.866   0.054  14.833 -0.5020 -0.5683  0.2393
 4815TIP3    H135936   0.842  -0.011  14.899  2.5531 -2.2160 -0.0798
 4815TIP3    H235937   0.945   0.096  14.869 -1.1077  1.3897 -0.6077
 4816TIP3   OH235938   5.685   0.756  12.508 -0.2414 -0.4359 -0.2161
 4816TIP3    H135939   5.597   0.742  12.473 -0.4061 -3.3702  1.0491
 4816TIP3    H235940   5.687   0.849  12.529 -2.6417 -0.0466 -1.2838
 4817TIP3   OH235941   6.388   1.180   0.698  0.1750 -0.3091 -0.0919
 4817TIP3    H135942   6.351   1.238   0.632 -1.3534 -0.0069  0.9529
 4817TIP3    H235943   6.462   1.137   0.655  0.6976  1.6087 -1.2273
 4818TIP3   OH235944   4.469   6.535  11.170  0.1148 -0.8263 -0.1332
 4818TIP3    H135945   4.382   6.555  11.205  1.4496 -0.7298  3.5007
 4818TIP3    H235946   4.499   6.617  11.131  0.3533  0.6696  2.8966
 4819TIP3   OH235947   2.617   5.694  12.884  0.4477 -0.2074  0.3295
 4819TIP3    H135948   2.575   5.779  12.873  1.4536  0.6613  2.5075
 4819TIP3    H235949   2.637   5.665  12.795 -0.4373  1.5654 -0.4947
 4820TIP3   OH235950   5.642   2.742  15.470  0.1774 -0.5514  0.1064
 4820TIP3    H135951   5.678   2.744  15.559 -0.2598 -0.0926  0.2765
 4820TIP3    H235952   5.719   2.748  15.413  0.4042  0.0461  0.4624
 4821TIP3   OH235953   2.032   6.819  10.724  0.1020  0.1655  0.3889
 4821TIP3    H135954   2.115   6.783  10.757  0.8469  0.2245 -1.2934
 4821TIP3    H235955   1.977   6.742  10.709  0.3803  0.0017  0.1863
 4822TIP3   OH235956   6.473   4.973   2.956 -0.0960  0.3879 -0.1439
 4822TIP3    H135957   6.473   4.946   2.864  0.5636  2.5909 -0.8549
 4822TIP3    H235958   6.412   5.047   2.959  0.2128  0.6095  1.1121
 4823TIP3   OH235959   6.474   3.190   1.791  0.4609  0.2166 -0.4268
 4823TIP3    H135960   6.438   3.102   1.801  1.9422 -0.2053  1.6288
 4823TIP3    H235961   6.543   3.181   1.726  0.8728 -0.2477  0.0648
 4824TIP3   OH235962   0.194   3.489  15.705 -0.2674 -0.0523  0.4090
 4824TIP3    H135963   0.256   3.417  15.718  0.0966  0.1555 -0.1347
 4824TIP3    H235964   0.168   3.514  15.794  1.5330  0.8067  0.7433
 4825TIP3   OH235965   4.159   2.674   3.096  0.1977 -0.3044  0.7745
 4825TIP3    H135966   4.095   2.746   3.096 -1.0436 -1.3397  2.1700
 4825TIP3    H235967   4.236   2.711   3.140  0.5623  0.9184 -0.7988
 4826TIP3   OH235968   0.334   2.428   1.973  0.1499  0.3383  0.3134
 4826TIP3    H135969   0.313   2.485   1.899 -3.7846 -0.3116  0.7083
 4826TIP3    H235970   0.298   2.474   2.049 -0.7177 -1.4045  1.0109
 4827TIP3   OH235971   4.153   4.770  13.608  0.5929 -0.0731  0.7046
 4827TIP3    H135972   4.193   4.711  13.544  0.3455  0.4895  0.0101
 4827TIP3    H235973   4.166   4.727  13.692  1.7515 -0.3833  0.3879
 4828TIP3   OH235974   4.468   4.773   1.975 -0.1876  0.0370 -0.3484
 4828TIP3    H135975   4.483   4.750   1.883 -2.5669 -1.1501 -0.5341
 4828TIP3    H235976   4.501   4.698   2.024  0.2022  0.2431 -0.2915
 4829TIP3   OH235977   0.192   4.138  13.412 -0.0968 -0.1145 -0.1617
 4829TIP3    H135978   0.241   4.170  13.336 -2.3960 -0.9609 -2.1289
 4829TIP3    H235979   0.222   4.048  13.423 -0.9838 -0.5612 -1.2242
 4830TIP3   OH235980   6.608   4.152   1.422 -0.1151  0.6074 -0.5682
 4830TIP3    H135981   6.598   4.123   1.513  1.8550 -1.6748 -0.9549
 4830TIP3    H235982   6.642   4.241   1.428 -1.9317  1.2670  0.8374
 4831TIP3   OH235983   4.851   3.916   5.590  0.2716 -0.1497  0.5704
 4831TIP3    H135984   4.766   3.961   5.583  0.1873  0.0241  2.2791
 4831TIP3    H235985   4.915   3.982   5.560 -0.0702  0.2166  0.6349
 4832TIP3   OH235986   2.267   4.545  16.571  0.6594 -0.2097 -0.1223
 4832TIP3    H135987   2.357   4.573  16.557  1.1405 -0.8865  1.3903
 4832TIP3    H235988   2.275   4.463  16.620 -0.7632 -1.0641 -1.2493
 4833TIP3   OH235989   0.401   4.748  11.826  0.1382 -0.2406 -0.0980
 4833TIP3    H135990   0.369   4.837  11.845 -1.0376 -0.1712 -2.1216
 4833TIP3    H235991   0.491   4.761  11.796  0.2198  0.1682  0.3003
 4834TIP3   OH235992   1.220   0.375   0.281  0.0855  0.1093 -0.1331
 4834TIP3    H135993   1.196   0.326   0.202 -1.0871  0.5866 -0.0982
 4834TIP3    H235994   1.222   0.309   0.350  0.7474 -0.2489 -0.4822
 4835TIP3   OH235995   3.158   4.051  14.074  0.1333 -0.0984 -0.4169
 4835TIP3    H135996   3.092   4.023  14.010 -1.0510  0.9407  0.3122
 4835TIP3    H235997   3.235   4.072  14.021  0.2305 -2.2154 -1.2072
 4836TIP3   OH235998   5.696   4.944   0.075 -0.4557  0.0446 -0.4471
 4836TIP3    H135999   5.613   4.914   0.113  1.0193 -1.5670  1.7792
 4836TIP3    H236000   5.711   5.029   0.116 -0.6021 -0.0701 -0.1456
 4837TIP3   OH236001   2.282   0.387  13.449  0.4125  0.1739 -0.4601
 4837TIP3    H136002   2.351   0.377  13.383 -0.3010  0.8584 -1.3327
 4837TIP3    H236003   2.203   0.407  13.399 -0.0817  1.0699  0.6189
 4838TIP3   OH236004   2.033   0.830   2.566 -0.0876  0.7176  0.0535
 4838TIP3    H136005   2.091   0.859   2.495 -1.3596  1.7631 -0.5887
 4838TIP3    H236006   2.078   0.754   2.603  1.2766  0.9748 -0.9723
 4839TIP3   OH236007   2.947   6.465  11.096  0.2801 -0.1440 -0.0113
 4839TIP3    H136008   2.968   6.546  11.049  0.2915 -0.8073 -1.1782
 4839TIP3    H236009   2.889   6.417  11.038  1.7468 -1.8182 -0.2001
 4840TIP3   OH236010   1.223   4.455  11.925  0.0965 -0.4781  0.0040
 4840TIP3    H136011   1.201   4.411  12.008  0.1090 -0.4700  0.0119
 4840TIP3    H236012   1.272   4.533  11.952 -0.1686 -0.3112  0.0031
 4841TIP3   OH236013   6.321   3.196  13.418  0.8384 -0.3949 -0.1339
 4841TIP3    H136014   6.266   3.271  13.438  2.3216  0.5253  0.6977
 4841TIP3    H236015   6.360   3.217  13.333 -0.0926 -1.0732 -0.7522
 4842TIP3   OH236016   3.081   0.853   0.966  0.1521  0.1186  0.3472
 4842TIP3    H136017   3.102   0.782   0.905 -0.1393  0.7080 -0.4626
 4842TIP3    H236018   3.165   0.878   1.004  0.5480  0.6378 -0.8283
 4843TIP3   OH236019   2.636   5.384  12.943  0.8386  0.0608 -0.4013
 4843TIP3    H136020   2.731   5.398  12.933  0.5367  2.8157 -0.0789
 4843TIP3    H236021   2.598   5.470  12.929 -1.4077 -0.3574  2.3772
 4844TIP3   OH236022   6.035   0.602  15.548 -0.1677  0.3627 -0.2884
 4844TIP3    H136023   5.988   0.617  15.630  0.3191  2.4466 -0.3237
 4844TIP3    H236024   6.010   0.676  15.493  3.0217  1.5354 -0.3607
 4845TIP3   OH236025   6.537   0.048   0.548 -0.0487  0.0816  0.2896
 4845TIP3    H136026   6.613   0.106   0.548 -0.6749  0.9363 -0.0746
 4845TIP3    H236027   6.463   0.106   0.527 -1.3030 -0.0740  3.6644
 4846TIP3   OH236028   0.021   4.429   4.732  0.0330 -0.1144 -0.1697
 4846TIP3    H136029   0.096   4.484   4.713 -0.6362  1.0059  0.3011
 4846TIP3    H236030  -0.049   4.464   4.676 -1.1348  1.3133  2.0343
 4847TIP3   OH236031   6.813   6.848  17.091 -0.1363 -0.0299  0.1836
 4847TIP3    H136032   6.775   6.767  17.056  1.4609 -0.8963  0.3457
 4847TIP3    H236033   6.874   6.877  17.023  1.3551 -0.5239  1.2541
 4848TIP3   OH236034   2.700   6.621   1.910 -0.5034 -0.2445 -0.4015
 4848TIP3    H136035   2.661   6.621   1.823 -0.0866  1.4294 -0.6129
 4848TIP3    H236036   2.738   6.533   1.919 -1.0815 -0.6456 -1.6477
 4849TIP3   OH236037   1.156   3.977   4.602  0.5775  0.2719 -0.0650
 4849TIP3    H136038   1.213   4.009   4.532  0.6515 -2.3213 -1.2800
 4849TIP3    H236039   1.214   3.959   4.675  0.4680  3.2660  0.9112
 4850TIP3   OH236040   0.529   6.665  16.511  0.4133 -0.4453 -0.6264
 4850TIP3    H136041   0.436   6.661  16.535  0.9589  0.3387  1.9969
 4850TIP3    H236042   0.575   6.665  16.595  2.6628  1.6939 -1.7265
 4851TIP3   OH236043   5.265   4.239   4.701  0.4425  0.0236 -0.3024
 4851TIP3    H136044   5.343   4.247   4.645  1.0169  0.4470  0.5318
 4851TIP3    H236045   5.298   4.257   4.789 -0.9120  1.9977 -0.1343
 4852TIP3   OH236046   6.160   2.132  14.273  0.3281 -0.9504 -0.6001
 4852TIP3    H136047   6.078   2.157  14.316  0.9614 -0.8717  0.6136
 4852TIP3    H236048   6.132   2.087  14.193 -0.8972 -0.9273 -0.2123
 4853TIP3   OH236049   5.513   6.541  12.410  0.5594 -0.2096  0.2756
 4853TIP3    H136050   5.508   6.446  12.406  1.9072 -0.2686 -0.8560
 4853TIP3    H236051   5.579   6.565  12.345 -1.0128  1.6324 -0.7811
 4854TIP3   OH236052   6.134   6.733  11.361  0.0287  0.1704  0.1062
 4854TIP3    H136053   6.062   6.670  11.364 -0.1225  0.3576  0.4607
 4854TIP3    H236054   6.212   6.680  11.345 -0.4526  0.1605 -2.8048
 4855TIP3   OH236055   5.301   3.879  11.281 -0.1060 -0.1670 -0.7587
 4855TIP3    H136056   5.392   3.890  11.308 -0.2662 -0.4900 -0.0790
 4855TIP3    H236057   5.249   3.900  11.359 -0.6116 -0.1049 -1.1049
 4856TIP3   OH236058   2.805   4.647   5.942 -0.1382  0.1290  0.2951
 4856TIP3    H136059   2.857   4.724   5.966  0.4201 -0.7390  2.0173
 4856TIP3    H236060   2.761   4.621   6.023 -2.3357  0.0806 -0.8232
 4857TIP3   OH236061   4.670   0.968  11.938 -0.0371  0.2913 -0.6886
 4857TIP3    H136062   4.630   0.978  12.024  0.2384 -0.0487 -0.5152
 4857TIP3    H236063   4.596   0.961  11.877 -0.2439 -0.2621 -0.3797
 4858TIP3   OH236064   3.609   2.895  14.847 -0.2218  0.1273  0.8009
 4858TIP3    H136065   3.587   2.892  14.754  1.2796 -0.2711  0.4244
 4858TIP3    H236066   3.538   2.847  14.890 -0.5212 -0.3847 -0.2337
 4859TIP3   OH236067   6.464   3.766   3.658 -0.5772  0.5073  0.0383
 4859TIP3    H136068   6.433   3.824   3.728  0.6830 -1.0987  2.0189
 4859TIP3    H236069   6.414   3.686   3.669 -0.3133  0.1942 -0.8936
 4860TIP3   OH236070   0.891   2.813   1.103 -0.4431  0.2967 -0.3242
 4860TIP3    H136071   0.830   2.819   1.030 -0.7688 -0.5137 -0.1264
 4860TIP3    H236072   0.836   2.789   1.178  0.0314  0.1533 -0.0197
 4861TIP3   OH236073   1.308   5.917  12.835  0.0747 -0.3131 -0.3476
 4861TIP3    H136074   1.213   5.921  12.842  0.1625  0.6388  0.4759
 4861TIP3    H236075   1.330   5.984  12.771  0.2306 -0.2187 -0.1949
 4862TIP3   OH236076   5.435   6.075   6.308 -0.0677 -0.3710  0.1886
 4862TIP3    H136077   5.431   6.126   6.227 -0.5861 -1.7033 -0.6580
 4862TIP3    H236078   5.503   6.118   6.360 -0.2662  0.9714 -0.6255
 4863TIP3   OH236079   6.499   0.454   0.063  0.4015  0.7342  0.1915
 4863TIP3    H136080   6.542   0.393   0.004  0.9184  1.3634 -0.0989
 4863TIP3    H236081   6.419   0.481   0.017 -0.1693 -0.2023  0.6015
 4864TIP3   OH236082   6.791   3.914   0.710  0.2716  0.8036 -0.1676
 4864TIP3    H136083   6.852   3.843   0.730  0.1753  0.1097 -2.0967
 4864TIP3    H236084   6.841   3.975   0.656 -1.2069 -0.9579 -3.8539
 4865TIP3   OH236085   1.621   3.164   0.663  0.0621 -0.4706  0.3553
 4865TIP3    H136086   1.589   3.150   0.752 -0.1719 -0.0760  0.3349
 4865TIP3    H236087   1.638   3.258   0.657  1.7133 -0.7208  0.5237
 4866TIP3   OH236088   0.233   1.634  15.140  0.3649  0.4322  0.5047
 4866TIP3    H136089   0.308   1.630  15.081  0.3848 -0.3081  0.5620
 4866TIP3    H236090   0.254   1.571  15.210  0.7566  1.9497  1.8135
 4867TIP3   OH236091   2.358   0.937   4.561  0.5500 -0.6170 -0.4343
 4867TIP3    H136092   2.271   0.908   4.587 -0.3688  0.2128 -2.3838
 4867TIP3    H236093   2.418   0.878   4.606 -1.0149 -1.3958  0.7117
 4868TIP3   OH236094   3.750   5.907  15.075  0.0533 -0.0320 -0.4299
 4868TIP3    H136095   3.657   5.903  15.054 -0.3940 -0.4338  1.3664
 4868TIP3    H236096   3.791   5.845  15.015 -0.8588  0.0135 -1.1216
 4869TIP3   OH236097   0.114   5.747   3.701  0.2003 -0.0831  0.1873
 4869TIP3    H136098   0.045   5.732   3.635  0.1587  2.3388 -0.4200
 4869TIP3    H236099   0.191   5.704   3.664 -0.5237 -1.2891  0.0073
 4870TIP3   OH236100   5.439   0.127   1.929  0.9776  0.2037 -0.0722
 4870TIP3    H136101   5.514   0.074   1.901 -0.1830 -2.5352  1.5615
 4870TIP3    H236102   5.364   0.066   1.925 -1.1547  2.6900 -1.2680
 4871TIP3   OH236103   0.186   4.957  16.315  0.0420 -0.1014  0.5486
 4871TIP3    H136104   0.237   5.001  16.246  2.6930  0.4296  2.6884
 4871TIP3    H236105   0.183   4.865  16.287  1.5833 -0.0109 -0.0331
 4872TIP3   OH236106   1.536   6.714  14.104 -0.5251  0.5986  0.2574
 4872TIP3    H136107   1.548   6.808  14.090 -0.3078  0.5007 -0.2105
 4872TIP3    H236108   1.625   6.678  14.105 -0.6506  0.2306 -0.7534
 4873TIP3   OH236109   1.037   0.296  11.947  0.3253 -0.5785 -0.1184
 4873TIP3    H136110   1.067   0.286  11.857 -2.3830  1.0017 -1.3164
 4873TIP3    H236111   0.943   0.315  11.940 -0.2267 -1.4018  3.1112
 4874TIP3   OH236112   2.540   1.410  14.282  0.0773 -1.0303 -0.7024
 4874TIP3    H136113   2.521   1.504  14.286 -0.7371 -1.2202  0.4256
 4874TIP3    H236114   2.492   1.379  14.206 -1.1614 -0.8381 -0.0240
 4875TIP3   OH236115   1.376   1.381  11.609 -0.0711 -0.1169 -0.3688
 4875TIP3    H136116   1.298   1.365  11.555 -0.5866  0.3852  0.2191
 4875TIP3    H236117   1.433   1.434  11.553 -1.9920  3.2592  0.6622
 4876TIP3   OH236118   0.724   5.346  16.895 -0.3940  0.1792  1.1270
 4876TIP3    H136119   0.720   5.441  16.886 -0.4253  0.1343  0.6747
 4876TIP3    H236120   0.817   5.327  16.909 -0.0241  0.0746 -1.1173
 4877TIP3   OH236121   3.487   2.492  15.413  0.2761  0.0097  0.4688
 4877TIP3    H136122   3.494   2.471  15.506  1.1559  0.5993  0.5499
 4877TIP3    H236123   3.505   2.409  15.369  1.4225  0.0567  0.8112
 4878TIP3   OH236124   4.580   4.097   5.788 -0.2731  0.0280  0.1626
 4878TIP3    H136125   4.587   4.032   5.858 -1.6019  1.1873  1.4416
 4878TIP3    H236126   4.583   4.182   5.834  0.6643  0.8742 -1.3786
 4879TIP3   OH236127   0.078   1.642  15.381  0.3230  0.0499 -0.6807
 4879TIP3    H136128   0.059   1.551  15.401  2.6036 -0.3595 -0.0479
 4879TIP3    H236129   0.129   1.638  15.299  1.2553  0.6278 -0.1511
 4880TIP3   OH236130   5.163   3.113   5.644  0.6776  0.1437  0.0129
 4880TIP3    H136131   5.223   3.166   5.592 -0.6504  2.6226  0.8864
 4880TIP3    H236132   5.212   3.093   5.724 -0.0912  3.8027  1.6095
 4881TIP3   OH236133   3.347   2.408   3.584 -0.0259  0.1525 -0.1243
 4881TIP3    H136134   3.268   2.355   3.577 -0.6195  0.9728  0.2277
 4881TIP3    H236135   3.335   2.457   3.665  0.8393  0.2993 -0.0776
 4882TIP3   OH236136   2.193   4.569   4.297 -0.5492  0.1455 -0.0911
 4882TIP3    H136137   2.236   4.527   4.371  0.3971  1.1321 -0.0551
 4882TIP3    H236138   2.115   4.516   4.281  0.2863 -1.2698  0.3183
 4883TIP3   OH236139   5.507   5.290  13.865 -0.0437 -0.2384  0.2130
 4883TIP3    H136140   5.472   5.364  13.916 -2.2225 -1.1994  0.2292
 4883TIP3    H236141   5.474   5.304  13.777 -0.9959 -1.4672  0.3467
 4884TIP3   OH236142   0.401   6.515  14.606  0.5079 -0.4439 -0.0411
 4884TIP3    H136143   0.377   6.442  14.663  0.3572  0.4167  1.0313
 4884TIP3    H236144   0.490   6.539  14.632  0.8410 -0.6998 -0.8942
 4885TIP3   OH236145   6.798   0.949   0.049 -0.1808  0.0899  0.3585
 4885TIP3    H136146   6.766   0.870   0.005  1.7197 -0.7562  0.4186
 4885TIP3    H236147   6.797   1.016  -0.018 -1.9956  0.0979  0.3502
 4886TIP3   OH236148   5.358   2.118  11.351  0.5329  0.3290  0.0474
 4886TIP3    H136149   5.339   2.059  11.277  0.4992  0.6411 -0.1954
 4886TIP3    H236150   5.311   2.079  11.425  0.6742 -0.0588 -0.0642
 4887TIP3   OH236151   6.010   5.582   3.991 -0.4036 -0.4842  0.6790
 4887TIP3    H136152   6.086   5.627   4.028 -1.0347 -1.1899  2.9756
 4887TIP3    H236153   5.971   5.647   3.932  1.1524  0.3753  0.5188
 4888TIP3   OH236154   3.788   1.660   5.231 -0.2084 -0.3928 -0.0413
 4888TIP3    H136155   3.836   1.742   5.221  0.8013 -1.2118 -3.1529
 4888TIP3    H236156   3.697   1.683   5.211  0.2627 -0.1736 -2.1366
 4889TIP3   OH236157   4.695   1.071   3.472 -0.0767 -0.3402 -0.0840
 4889TIP3    H136158   4.781   1.073   3.514 -0.4397  0.3836  0.6428
 4889TIP3    H236159   4.641   1.019   3.532 -0.3252 -0.2169 -0.2016
 4890TIP3   OH236160   3.477   5.061  16.287  0.2490 -0.0894  0.4674
 4890TIP3    H136161   3.485   5.079  16.194  0.8027 -1.0523  0.3195
 4890TIP3    H236162   3.403   5.001  16.295 -0.6875  1.0534  0.8161
 4891TIP3   OH236163   1.522   0.045   4.325  0.3012  0.0896  0.2256
 4891TIP3    H136164   1.438   0.086   4.346  0.7752  0.9360  0.5118
 4891TIP3    H236165   1.546   0.080   4.239 -0.7638 -1.9912 -1.0095
 4892TIP3   OH236166   2.968   0.416  14.203 -0.4770  0.5312 -0.0512
 4892TIP3    H136167   2.981   0.501  14.161 -0.8421  0.5430 -0.1411
 4892TIP3    H236168   3.025   0.419  14.281  0.5135  0.3478 -0.7507
 4893TIP3   OH236169   0.415   0.266  14.727 -0.6853  0.1692  0.7034
 4893TIP3    H136170   0.432   0.172  14.723 -1.1273  0.0489  1.4379
 4893TIP3    H236171   0.339   0.279  14.671 -1.5606 -0.1628  1.7713
 4894TIP3   OH236172   3.801   6.271   2.764 -0.1534  0.4219 -0.6869
 4894TIP3    H136173   3.786   6.235   2.676 -2.1054 -0.2074 -0.1438
 4894TIP3    H236174   3.774   6.363   2.757 -0.8809  0.2230 -0.6304
 4895TIP3   OH236175   6.462   0.210  15.410  0.5765  0.1200  0.2297
 4895TIP3    H136176   6.525   0.212  15.338 -0.2313  1.6584 -0.4794
 4895TIP3    H236177   6.450   0.302  15.434 -0.2614 -0.2648  1.3748
 4896TIP3   OH236178   5.886   6.564   5.266  0.3619  0.6616  0.2019
 4896TIP3    H136179   5.920   6.600   5.184 -1.0084 -1.6336 -1.5042
 4896TIP3    H236180   5.906   6.470   5.261 -2.7371 -0.1330  0.8401
 4897TIP3   OH236181   3.232   5.703   0.848 -0.7284 -0.1022 -0.1425
 4897TIP3    H136182   3.326   5.686   0.854 -0.8629 -1.4080 -1.3760
 4897TIP3    H236183   3.226   5.797   0.832  0.3425  0.0516  0.2807
 4898TIP3   OH236184   4.503   4.847  12.676  0.0772 -0.7840  0.5786
 4898TIP3    H136185   4.408   4.845  12.682  0.0030 -0.2392 -0.2199
 4898TIP3    H236186   4.523   4.799  12.596  0.5809 -2.2111  1.5324
 4899TIP3   OH236187   0.315   4.625   2.522  0.6833  0.3729  0.2950
 4899TIP3    H136188   0.371   4.684   2.572  1.2370 -1.4772  2.0193
 4899TIP3    H236189   0.357   4.619   2.436  2.1617  0.4056  0.9754
 4900TIP3   OH236190   2.292   6.046   1.154  0.6631 -0.2376  0.1716
 4900TIP3    H136191   2.208   6.078   1.122  0.8285 -0.1480 -0.1710
 4900TIP3    H236192   2.269   5.990   1.228  0.2440 -0.8722 -0.4308
 4901TIP3   OH236193   0.001   2.262   5.170 -0.3283  0.4101  0.6797
 4901TIP3    H136194  -0.044   2.239   5.251  0.6481  0.9174  1.3872
 4901TIP3    H236195   0.020   2.356   5.179  2.0128 -0.0252  1.0138
 4902TIP3   OH236196   1.971   2.168   1.406 -0.2452  0.2896  0.1154
 4902TIP3    H136197   2.019   2.180   1.325 -1.2000  0.1577 -0.4889
 4902TIP3    H236198   1.905   2.101   1.386 -0.7555  0.5420  0.8740
 4903TIP3   OH236199   4.239   3.035   2.052  0.3334  0.4500 -0.2155
 4903TIP3    H136200   4.251   3.066   2.142  0.3201 -3.5535  1.3785
 4903TIP3    H236201   4.149   3.060   2.030  0.7839  2.6861  0.2875
 4904TIP3   OH236202   5.665   3.779  16.547  0.0346  0.2431  0.2390
 4904TIP3    H136203   5.620   3.820  16.474 -1.0692 -1.0867  0.1100
 4904TIP3    H236204   5.608   3.795  16.622 -0.1310 -0.5264  0.2909
 4905TIP3   OH236205   0.254   4.292  15.343  0.0532 -0.5126 -0.6416
 4905TIP3    H136206   0.318   4.241  15.393 -0.5259 -2.2682 -1.5989
 4905TIP3    H236207   0.220   4.356  15.405  0.4628 -1.6245  0.7655
 4906TIP3   OH236208   6.813   2.513   2.233 -0.0606 -0.4758  0.6367
 4906TIP3    H136209   6.764   2.507   2.315 -0.1190 -0.1757  0.6257
 4906TIP3    H236210   6.828   2.422   2.207 -0.4081 -0.5687  0.7601
 4907TIP3   OH236211   0.058   1.923   1.847  0.1765 -0.6351 -0.3582
 4907TIP3    H136212   0.094   1.920   1.936 -1.5685  1.2990  0.4804
 4907TIP3    H236213   0.067   2.014   1.820 -0.5370 -0.9219 -1.6603
 4908TIP3   OH236214   0.289   4.637  13.094  0.2473  0.1982 -0.1155
 4908TIP3    H136215   0.208   4.689  13.098  0.6520  0.8337 -0.0232
 4908TIP3    H236216   0.338   4.663  13.172 -0.2083 -1.4758  0.7742
 4909TIP3   OH236217   5.121   0.988   2.437 -0.0558  0.0956  0.3610
 4909TIP3    H136218   5.191   0.973   2.374 -2.1528 -2.7408 -1.5441
 4909TIP3    H236219   5.107   0.903   2.479 -1.9945  0.6912  1.0376
 4910TIP3   OH236220   0.172   5.379  11.920 -0.4389  0.8068  0.3658
 4910TIP3    H136221   0.100   5.410  11.865 -1.8649  1.0541  2.2422
 4910TIP3    H236222   0.136   5.303  11.965  1.2324 -0.3715 -0.2214
 4911TIP3   OH236223   5.129   3.367  13.773 -0.1454 -0.1714 -0.3120
 4911TIP3    H136224   5.074   3.326  13.840 -0.6916 -0.5423 -0.9696
 4911TIP3    H236225   5.124   3.306  13.699 -0.8915  1.0232 -1.2804
 4912TIP3   OH236226   2.845   5.289  15.713 -0.2910  0.4238  0.0742
 4912TIP3    H136227   2.810   5.200  15.711 -2.2749  1.1484 -0.7324
 4912TIP3    H236228   2.898   5.293  15.792 -0.4543 -1.3676  0.3095
 4913TIP3   OH236229   0.997   4.302   2.317 -0.0375 -0.6573 -0.1108
 4913TIP3    H136230   0.947   4.380   2.342 -1.6586 -1.5698 -0.4316
 4913TIP3    H236231   0.937   4.250   2.264  0.4135 -2.9324  1.4563
 4914TIP3   OH236232   4.308   5.289  12.493  0.5619 -0.3927 -0.3898
 4914TIP3    H136233   4.224   5.320  12.526  0.6581 -0.2617 -0.2701
 4914TIP3    H236234   4.285   5.212  12.440  0.6106 -2.1135  1.9457
 4915TIP3   OH236235   0.670   6.309  14.837  0.2995 -0.5358  0.5615
 4915TIP3    H136236   0.738   6.361  14.793  1.2424 -0.3872  2.1257
 4915TIP3    H236237   0.715   6.230  14.867 -0.8333 -1.6803 -0.6325
 4916TIP3   OH236238   3.570   5.671   6.458 -0.1833 -0.0372  0.0617
 4916TIP3    H136239   3.588   5.613   6.532  1.8173  0.0998 -0.2506
 4916TIP3    H236240   3.569   5.613   6.381 -1.2120 -0.0406  0.0684
 4917TIP3   OH236241   2.148   2.845  16.986 -0.2561  0.2694 -0.2766
 4917TIP3    H136242   2.180   2.849  16.896  0.3379  0.1095 -0.0752
 4917TIP3    H236243   2.077   2.909  16.990 -0.3231  0.2323 -0.8719
 4918TIP3   OH236244   0.744   3.084  13.895  0.7574 -0.0746  0.6111
 4918TIP3    H136245   0.650   3.100  13.899  0.6904 -0.4157  0.4203
 4918TIP3    H236246   0.763   3.072  13.802  1.2416  1.4312  0.4820
 4919TIP3   OH236247   3.569   3.626   0.425 -0.0849  0.1980 -0.6856
 4919TIP3    H136248   3.656   3.635   0.385 -0.0707 -1.1315 -1.0060
 4919TIP3    H236249   3.538   3.541   0.395 -1.3211  0.4648 -0.2100
 4920TIP3   OH236250   4.982   6.053  11.800  0.3999  0.3698 -0.6787
 4920TIP3    H136251   4.977   6.019  11.889 -0.0135  1.5323 -0.2344
 4920TIP3    H236252   4.896   6.033  11.762 -0.2490  1.8398 -0.0497
 4921TIP3   OH236253   5.005   6.566  10.331  0.6438  0.4017 -0.4909
 4921TIP3    H136254   5.013   6.622  10.408 -0.9481 -0.8930  0.7201
 4921TIP3    H236255   5.019   6.624  10.256 -0.1314  2.2240  0.7108
 4922TIP3   OH236256   4.018   2.790  12.718 -0.4162 -0.1897  0.4388
 4922TIP3    H136257   4.088   2.776  12.782  1.3243 -0.9947 -1.5265
 4922TIP3    H236258   4.051   2.751  12.637 -3.5268 -1.4256 -0.3943
 4923TIP3   OH236259   1.953   1.752   0.577  0.3816  0.0373 -0.0983
 4923TIP3    H136260   1.902   1.801   0.513 -2.1944 -2.5431 -0.2348
 4923TIP3    H236261   1.919   1.780   0.662 -2.0988 -2.2365 -0.2018
 4924TIP3   OH236262   6.338   4.268  17.017 -0.1558  0.1000  0.1348
 4924TIP3    H136263   6.250   4.306  17.017 -0.6248 -0.9648  0.0521
 4924TIP3    H236264   6.395   4.341  17.042 -0.8512  1.2588 -1.4600
 4925TIP3   OH236265   1.403   4.672   4.032 -0.1904  0.3707  0.1560
 4925TIP3    H136266   1.468   4.697   4.097  0.1950 -0.7142  0.2042
 4925TIP3    H236267   1.387   4.752   3.981  0.9366  0.7214  0.3397
 4926TIP3   OH236268   5.494   4.889   2.941 -0.3795 -0.2731  0.9189
 4926TIP3    H136269   5.521   4.933   3.022  0.2499  0.2612  0.4298
 4926TIP3    H236270   5.560   4.821   2.928  1.2296  1.4723 -0.6424
 4927TIP3   OH236271   0.591   4.846   0.130  0.1566  0.2636  0.4052
 4927TIP3    H136272   0.661   4.795   0.088 -0.1319  0.8367 -0.8027
 4927TIP3    H236273   0.518   4.843   0.068  0.6070  3.3210 -0.4270
 4928TIP3   OH236274   3.970   3.537  15.927  0.6893  0.0850  0.9602
 4928TIP3    H136275   3.940   3.552  16.017 -0.7159  0.1070  0.5207
 4928TIP3    H236276   3.969   3.442  15.916 -1.7173  0.1174  0.2121
 4929TIP3   OH236277   6.544   0.597  12.262  0.4317 -0.2577 -0.8694
 4929TIP3    H136278   6.584   0.550  12.335 -0.4907  2.2447  1.3809
 4929TIP3    H236279   6.562   0.689  12.279 -2.1955  0.6255 -2.2862
 4930TIP3   OH236280   5.009   0.450   5.292 -0.1378  0.0765  0.2003
 4930TIP3    H136281   4.999   0.541   5.322 -1.5544 -0.3774  1.2344
 4930TIP3    H236282   4.996   0.455   5.197 -3.5975  0.6171  0.5460
 4931TIP3   OH236283   0.297   2.800  12.777 -0.3068  0.3072  0.4820
 4931TIP3    H136284   0.336   2.855  12.846  2.2917 -0.7921  0.0220
 4931TIP3    H236285   0.341   2.715  12.787 -0.3141 -0.0706 -2.1370
 4932TIP3   OH236286   6.225   5.850   5.066 -0.5225  0.0324  0.6291
 4932TIP3    H136287   6.252   5.941   5.055 -1.3790  0.4872  1.9828
 4932TIP3    H236288   6.264   5.823   5.150 -1.0820 -0.5265  0.7207
 4933TIP3   OH236289   2.392   0.557   1.331 -0.0708 -0.0172 -0.5146
 4933TIP3    H136290   2.395   0.621   1.402  1.9256 -0.2719 -0.3124
 4933TIP3    H236291   2.305   0.519   1.337 -0.0182  0.0592  1.7343
 4934TIP3   OH236292   2.510   1.295   1.241 -0.0880 -0.0623  0.5736
 4934TIP3    H136293   2.434   1.243   1.216 -0.9620  0.2967  2.3805
 4934TIP3    H236294   2.481   1.386   1.232  0.5809  0.1082 -0.0120
 4935TIP3   OH236295   4.404   5.108   3.033 -0.0401 -0.5419 -0.1267
 4935TIP3    H136296   4.362   5.117   2.948 -1.4329 -1.3212  0.4471
 4935TIP3    H236297   4.495   5.086   3.013 -0.0469  0.4615 -1.3985
 4936TIP3   OH236298   4.882   2.578  16.671  0.1323 -0.1366 -0.7967
 4936TIP3    H136299   4.968   2.537  16.673  0.3097  0.1482 -1.8158
 4936TIP3    H236300   4.821   2.507  16.689  0.5497 -0.4461 -0.5794
 4937TIP3   OH236301   1.144   4.292   3.399  0.0205  0.5804 -0.3944
 4937TIP3    H136302   1.061   4.284   3.353  0.0212 -0.7732 -0.2064
 4937TIP3    H236303   1.163   4.203   3.431  0.5749  1.2357  1.2446
 4938TIP3   OH236304   3.435   5.287  10.476 -0.0960 -0.2378 -0.2231
 4938TIP3    H136305   3.353   5.302  10.429 -0.3391  0.3927  0.3836
 4938TIP3    H236306   3.467   5.375  10.497 -0.6489 -0.4768  1.8752
 4939TIP3   OH236307   2.279   0.944   3.878 -0.3791  0.2103  0.2287
 4939TIP3    H136308   2.351   0.979   3.825 -0.5571 -0.2734 -0.3430
 4939TIP3    H236309   2.296   0.850   3.881 -1.7125 -0.1219 -1.0714
 4940TIP3   OH236310   4.011   2.448   5.714  0.0575  0.0730  0.5938
 4940TIP3    H136311   4.038   2.357   5.703 -1.5329 -0.2775 -0.9503
 4940TIP3    H236312   3.976   2.452   5.803 -0.6587 -1.0732  0.3871
 4941TIP3   OH236313   6.099   5.851  12.246  0.3308  0.4763  0.3957
 4941TIP3    H136314   6.175   5.896  12.209  0.0554  0.3238 -0.3871
 4941TIP3    H236315   6.063   5.913  12.309  0.1649  1.2213 -0.4002
 4942TIP3   OH236316   3.259   4.766  12.306  0.0189  0.1731  0.1038
 4942TIP3    H136317   3.322   4.781  12.236 -0.3811  0.9660 -0.0964
 4942TIP3    H236318   3.174   4.778  12.265 -0.2166  0.8669  0.7637
 4943TIP3   OH236319   5.001   1.027   0.546 -0.7029  0.0649  0.5245
 4943TIP3    H136320   5.011   1.120   0.527 -0.1623 -0.2277 -0.7547
 4943TIP3    H236321   4.915   1.004   0.510 -0.7640  0.0320  0.6911
 4944TIP3   OH236322   1.124   1.575  14.215  0.4782  0.1315  0.2511
 4944TIP3    H136323   1.162   1.491  14.238  2.3826  0.8545 -0.0608
 4944TIP3    H236324   1.135   1.581  14.120  0.7991  0.9207  0.3326
 4945TIP3   OH236325   2.115   6.359  16.230 -0.5169 -0.2486 -0.1403
 4945TIP3    H136326   2.069   6.420  16.172 -0.9022 -0.5539 -0.1558
 4945TIP3    H236327   2.186   6.412  16.268  1.1378 -0.5873 -2.5462
 4946TIP3   OH236328   0.944   4.669  16.815 -0.2968 -0.2747 -0.0933
 4946TIP3    H136329   0.944   4.590  16.760  1.6783 -0.1889 -0.3180
 4946TIP3    H236330   0.935   4.741  16.753 -1.3039 -0.2892  0.0304
 4947TIP3   OH236331   3.813   2.385   0.912 -1.0258 -0.3507  0.5080
 4947TIP3    H136332   3.877   2.456   0.902 -2.0404  0.4256 -0.7656
 4947TIP3    H236333   3.728   2.428   0.907 -1.6881 -1.7341 -1.3101
 4948TIP3   OH236334   5.204   2.101  14.563 -0.0933 -0.1597  0.1420
 4948TIP3    H136335   5.117   2.076  14.595 -0.2317  1.6941  1.4085
 4948TIP3    H236336   5.186   2.159  14.489  0.0532  0.0309  0.2546
 4949TIP3   OH236337   2.818   0.928   0.858  0.3333  0.5462 -0.1205
 4949TIP3    H136338   2.825   0.956   0.766  0.0567  0.7794 -0.0708
 4949TIP3    H236339   2.909   0.931   0.890  0.5431 -0.3484 -0.6184
 4950TIP3   OH236340   4.610   2.269  15.892  0.4817 -0.2161  0.4578
 4950TIP3    H136341   4.604   2.347  15.837  1.0661 -0.1075  0.5420
 4950TIP3    H236342   4.704   2.253  15.902  0.4162 -2.0725 -1.1665
 4951TIP3   OH236343   5.105   5.139   6.291  0.2894  0.1808 -0.5882
 4951TIP3    H136344   5.033   5.173   6.345  0.3921 -0.7177  0.1291
 4951TIP3    H236345   5.130   5.214   6.236 -0.0925  1.0012  0.3182
 4952TIP3   OH236346   2.850   0.819   3.110 -0.3929  0.1847 -0.2263
 4952TIP3    H136347   2.760   0.787   3.122 -0.1756 -0.9206 -1.2934
 4952TIP3    H236348   2.856   0.837   3.016  0.3077  0.8833 -0.0499
 4953TIP3   OH236349   5.438   3.926  16.454  0.1497 -0.5468  0.0510
 4953TIP3    H136350   5.358   3.962  16.415 -0.1122 -0.9718  0.1920
 4953TIP3    H236351   5.507   3.947  16.391  0.5939  2.8865  1.4371
 4954TIP3   OH236352   2.919   4.943   0.257 -0.1978 -0.6262 -0.4995
 4954TIP3    H136353   2.895   4.938   0.164 -1.4659 -3.2727 -0.1078
 4954TIP3    H236354   2.859   4.883   0.301 -0.5852  1.5975  2.3082
 4955TIP3   OH236355   3.554   5.039  16.765  0.4740  0.0159 -0.5158
 4955TIP3    H136356   3.631   4.990  16.795  0.3073  0.1897  0.2254
 4955TIP3    H236357   3.587   5.096  16.696  0.6897 -1.0730 -1.3396
 4956TIP3   OH236358   4.270   1.241   1.376  0.1411  0.9923 -0.0985
 4956TIP3    H136359   4.274   1.183   1.299 -1.3322  1.7437 -0.7846
 4956TIP3    H236360   4.277   1.181   1.451 -0.7555 -0.0348 -0.7971
 4957TIP3   OH236361   0.547   6.212   1.951 -0.2567 -0.5267 -0.6888
 4957TIP3    H136362   0.517   6.301   1.933 -0.9221 -1.0362 -2.2337
 4957TIP3    H236363   0.547   6.169   1.866 -0.6067 -2.2014  0.1273
 4958TIP3   OH236364   2.162   6.826   4.612  1.0640 -0.0994 -0.4069
 4958TIP3    H136365   2.190   6.769   4.683  0.8147 -2.0233 -1.7872
 4958TIP3    H236366   2.239   6.835   4.556  0.0868 -2.4034 -2.2721
 4959TIP3   OH236367   1.613   4.882  12.563 -0.1033  0.0438  0.1132
 4959TIP3    H136368   1.630   4.975  12.551  2.5839 -0.3753 -0.1319
 4959TIP3    H236369   1.647   4.841  12.483 -0.6277 -1.1839  0.4946
 4960TIP3   OH236370   4.330   0.794   1.682 -0.2249 -0.2338 -0.1807
 4960TIP3    H136371   4.373   0.728   1.737  0.0791  0.2988  0.2307
 4960TIP3    H236372   4.292   0.744   1.610 -0.8587 -0.9721  0.6504
 4961TIP3   OH236373   0.667   2.811  15.476 -0.0335 -0.6683 -0.3354
 4961TIP3    H136374   0.707   2.724  15.489 -0.0600 -1.0028 -2.1270
 4961TIP3    H236375   0.602   2.796  15.408 -0.4072  0.6694 -0.2832
 4962TIP3   OH236376   5.288   0.615  14.633  0.1263 -0.3880  0.7644
 4962TIP3    H136377   5.287   0.689  14.572  1.8504 -1.5172 -0.7238
 4962TIP3    H236378   5.240   0.546  14.587  0.6685 -0.9694  1.0653
 4963TIP3   OH236379   0.461   6.620  11.959 -0.2937 -0.1217  0.1352
 4963TIP3    H136380   0.398   6.612  11.887 -0.5245  1.7353  0.0773
 4963TIP3    H236381   0.425   6.565  12.028 -0.3040 -1.5867 -0.9693
 4964TIP3   OH236382   4.432   0.515  15.850  0.7228  0.4916 -0.1919
 4964TIP3    H136383   4.347   0.550  15.824 -0.1361  0.6826  2.5000
 4964TIP3    H236384   4.480   0.591  15.884  1.7284  0.2747 -1.0881
 4965TIP3   OH236385   1.778   4.080   4.725  0.2084  0.2312  0.1570
 4965TIP3    H136386   1.799   3.987   4.717 -1.4068 -0.3800  2.0423
 4965TIP3    H236387   1.694   4.090   4.680  1.3496  1.3120 -1.9173
 4966TIP3   OH236388   4.759   5.041   4.780 -0.0400 -0.4696 -0.2010
 4966TIP3    H136389   4.812   4.962   4.789 -0.2466 -0.4575  1.4489
 4966TIP3    H236390   4.671   5.014   4.809 -0.7091 -0.2209 -1.8922
 4967TIP3   OH236391   0.275   0.663   0.690  0.2289  0.1749  0.5596
 4967TIP3    H136392   0.240   0.726   0.627 -1.1124 -0.4919  0.5889
 4967TIP3    H236393   0.238   0.690   0.774  0.8910  0.2532  0.8249
 4968TIP3   OH236394   3.800   4.238  11.173 -0.3144 -0.0884 -0.1117
 4968TIP3    H136395   3.869   4.195  11.122  0.0207 -0.4209  0.6056
 4968TIP3    H236396   3.762   4.301  11.113 -0.3254 -0.8814 -0.9667
 4969TIP3   OH236397   4.397   6.815  12.413 -0.0622 -0.4209 -0.4685
 4969TIP3    H136398   4.382   6.789  12.322 -3.9523  0.7124 -0.3487
 4969TIP3    H236399   4.370   6.738  12.464 -2.6178  0.4806 -0.3061
 4970TIP3   OH236400   0.617   4.317   5.490  0.1377  0.0077 -0.4049
 4970TIP3    H136401   0.548   4.256   5.463 -0.8718  1.1915 -0.6655
 4970TIP3    H236402   0.594   4.399   5.445  2.4274  0.1324 -1.4997
 4971TIP3   OH236403   2.853   4.451  14.233  0.5459  0.2441  0.0902
 4971TIP3    H136404   2.864   4.538  14.195  1.6229  0.3421  0.6000
 4971TIP3    H236405   2.916   4.396  14.186  1.6181  0.2806  1.4127
 4972TIP3   OH236406   2.255   5.066   0.398  0.1144 -0.0027  0.7677
 4972TIP3    H136407   2.214   5.146   0.365  0.2797 -0.7609 -1.4027
 4972TIP3    H236408   2.333   5.054   0.343 -0.0891 -1.8245  0.8111
 4973TIP3   OH236409   3.199   2.567  13.797 -0.6074 -0.0755  0.5935
 4973TIP3    H136410   3.106   2.548  13.809 -0.6080 -0.5494 -0.1584
 4973TIP3    H236411   3.201   2.641  13.735 -0.4425 -1.4058 -1.0558
 4974TIP3   OH236412   5.016   4.640   3.276  0.3064  0.0038 -0.0585
 4974TIP3    H136413   5.029   4.734   3.260  0.5770  0.4325  2.2822
 4974TIP3    H236414   5.019   4.600   3.189  1.5513  1.9864 -0.9967
 4975TIP3   OH236415   4.011   4.874   6.667  0.4800 -0.1200 -0.1494
 4975TIP3    H136416   3.990   4.951   6.720 -0.1066 -0.4645  0.1302
 4975TIP3    H236417   4.049   4.909   6.586 -0.0967  0.4697 -0.1653
 4976TIP3   OH236418   5.900   1.281   3.056 -0.0142 -0.5247  0.8551
 4976TIP3    H136419   5.909   1.210   2.992 -0.5004  0.3570 -0.2278
 4976TIP3    H236420   5.913   1.361   3.005 -1.1039  0.2366  1.7208
 4977TIP3   OH236421   2.663   5.905   5.249  0.5140  0.3907 -0.2974
 4977TIP3    H136422   2.726   5.840   5.217 -0.5792 -0.4309 -0.8522
 4977TIP3    H236423   2.692   5.988   5.211 -0.1070 -0.3720 -2.5923
 4978TIP3   OH236424   4.711   3.266  11.845 -0.2302 -0.1701  0.1225
 4978TIP3    H136425   4.804   3.253  11.868 -0.3237 -0.8891  0.1064
 4978TIP3    H236426   4.677   3.322  11.915  0.7205  1.9372 -0.9832
 4979TIP3   OH236427   5.886   5.881   3.058 -0.0815  0.2901 -0.1595
 4979TIP3    H136428   5.876   5.861   3.151 -1.7792 -1.1908 -0.6004
 4979TIP3    H236429   5.841   5.965   3.047  0.2674  0.5537  0.3853
 4980TIP3   OH236430   6.694   4.963   4.936 -0.1996 -0.2182 -0.2847
 4980TIP3    H136431   6.612   4.914   4.933  0.0069 -0.5769  0.0057
 4980TIP3    H236432   6.677   5.040   4.881  0.5729 -2.2379 -3.6573
 4981TIP3   OH236433   1.962   5.677  12.230  0.1924 -0.2671  0.0515
 4981TIP3    H136434   2.013   5.700  12.152 -1.2314  1.0327 -0.5365
 4981TIP3    H236435   1.889   5.738  12.230  0.2851 -0.0594  2.5666
 4982TIP3   OH236436   4.636   3.060  11.454  0.3602 -0.5969 -0.3032
 4982TIP3    H136437   4.609   3.041  11.364  0.3051 -1.2573 -0.1492
 4982TIP3    H236438   4.726   3.028  11.459  0.4620 -0.2986 -0.2051
 4983TIP3   OH236439   2.681   0.104   2.288  0.2391  0.2116  0.8225
 4983TIP3    H136440   2.623   0.180   2.296 -0.1210  0.0026  0.2068
 4983TIP3    H236441   2.678   0.063   2.374 -2.2789 -1.0662  0.2248
 4984TIP3   OH236442   0.900   1.117   5.187  0.1730 -0.5126  0.0805
 4984TIP3    H136443   0.917   1.170   5.265 -1.4516 -1.4257  1.1162
 4984TIP3    H236444   0.985   1.112   5.142  1.0800  0.2989  1.6117
 4985TIP3   OH236445   6.020   3.636   0.669 -0.2506 -0.6030  0.6399
 4985TIP3    H136446   6.037   3.730   0.677  0.1268 -0.3016 -2.4006
 4985TIP3    H236447   6.105   3.595   0.684  0.4541 -0.1054 -1.6759
 4986TIP3   OH236448   5.102   0.709   1.282  0.1500  0.1204 -0.8906
 4986TIP3    H136449   5.112   0.619   1.315 -0.7026  0.0488 -0.8164
 4986TIP3    H236450   5.192   0.742   1.276  0.4115 -0.3854  0.0611
 4987TIP3   OH236451   3.805   2.814  16.652 -0.0242 -0.2327  0.6722
 4987TIP3    H136452   3.746   2.884  16.622  0.3077 -0.2307  0.0336
 4987TIP3    H236453   3.851   2.853  16.727 -0.8108 -0.2247  1.1661
 4988TIP3   OH236454   6.078   0.668  13.073  0.0187  0.2874  0.3912
 4988TIP3    H136455   6.001   0.611  13.063 -1.3729  2.3101 -1.6846
 4988TIP3    H236456   6.132   0.649  12.996  0.1423  0.8960  0.3247
 4989TIP3   OH236457   0.110   0.521  12.645 -0.4320 -0.1749  0.0380
 4989TIP3    H136458   0.147   0.603  12.612 -0.9416 -0.3213 -0.9160
 4989TIP3    H236459   0.063   0.547  12.724  0.9494  0.1532  0.7947
 4990TIP3   OH236460   3.859   6.019  13.774 -0.0518 -0.1606 -0.2912
 4990TIP3    H136461   3.821   6.007  13.861  1.6581 -1.2021  0.3517
 4990TIP3    H236462   3.839   5.938  13.727  1.5892 -0.8459  0.1576
 4991TIP3   OH236463   4.464   2.434   6.218  1.1985  0.1697 -0.3711
 4991TIP3    H136464   4.410   2.472   6.287  1.0845 -0.1341 -0.2909
 4991TIP3    H236465   4.549   2.420   6.259  0.5713 -1.9654  0.3739
 4992TIP3   OH236466   1.609   4.000  14.295 -0.3811 -0.3354 -0.1737
 4992TIP3    H136467   1.587   4.089  14.323 -1.3768 -0.3373 -0.9239
 4992TIP3    H236468   1.698   3.986  14.329 -0.0665  1.0754 -0.3611
 4993TIP3   OH236469   0.342   4.802  10.563  0.4267  0.8151  0.0938
 4993TIP3    H136470   0.250   4.802  10.536 -0.0002 -0.2387  1.4419
 4993TIP3    H236471   0.341   4.773  10.654  2.1226  0.5259  0.0625
 4994TIP3   OH236472   6.160   6.596   3.991 -0.7550  0.3612 -0.3758
 4994TIP3    H136473   6.138   6.510   4.026  0.0562 -0.3374 -1.4721
 4994TIP3    H236474   6.102   6.608   3.916 -0.1490  0.2687 -0.8763
 4995TIP3   OH236475   1.690   6.193   0.428 -0.3638  0.3468 -0.1684
 4995TIP3    H136476   1.741   6.169   0.350 -0.2076  0.2609 -0.0410
 4995TIP3    H236477   1.599   6.189   0.400 -0.3496 -0.5544 -0.1082
 4996TIP3   OH236478   5.447   0.567   0.027 -0.1651  0.3825 -0.7494
 4996TIP3    H136479   5.507   0.641   0.031  1.1078 -0.6504  0.5585
 4996TIP3    H236480   5.360   0.606   0.017  0.3715  2.0995  0.6963
 4997TIP3   OH236481   0.913   2.326  10.601  0.3345 -0.5673  0.0691
 4997TIP3    H136482   0.859   2.389  10.553  2.3466  1.3449  0.1538
 4997TIP3    H236483   0.978   2.296  10.537  1.7139  0.3707  0.9680
 4998TIP3   OH236484   4.624   5.761   0.830  0.4133 -0.1833  0.3039
 4998TIP3    H136485   4.600   5.825   0.764  0.3994  0.2009  0.6726
 4998TIP3    H236486   4.719   5.751   0.820  0.9421  2.0570  2.0777
 4999TIP3   OH236487   3.700   2.154  14.367 -0.2446  0.0172 -0.2500
 4999TIP3    H136488   3.657   2.231  14.404  1.6937  0.7680  0.6153
 4999TIP3    H236489   3.736   2.185  14.284 -0.9900 -0.4916 -0.7763
 5000TIP3   OH236490   6.715   4.765   0.056  0.1750  0.2321  0.2899
 5000TIP3    H136491   6.747   4.721   0.135  0.0327 -0.5758 -0.0932
 5000TIP3    H236492   6.769   4.843   0.048  0.1314  0.3666  1.2365
 5001TIP3   OH236493   5.114   0.649  11.525  0.1593  0.2180 -0.6297
 5001TIP3    H136494   5.042   0.685  11.577  1.0445  2.1540 -0.6501
 5001TIP3    H236495   5.100   0.554  11.527 -0.3675  0.2580  2.3756
 5002TIP3   OH236496   4.688   0.214  11.750 -0.4552  0.0791 -0.1111
 5002TIP3    H136497   4.610   0.170  11.716  0.4718 -1.2530 -0.5961
 5002TIP3    H236498   4.739   0.237  11.672 -0.1159  0.4656  0.2205
 5003TIP3   OH236499   5.349   3.743   5.280 -0.4138 -0.4910 -0.2762
 5003TIP3    H136500   5.357   3.826   5.233 -0.3429 -0.6487 -0.5424
 5003TIP3    H236501   5.278   3.758   5.342  0.9612  0.4551  1.1407
 5004TIP3   OH236502   4.074   4.935   3.031 -0.3134 -0.6095 -0.2241
 5004TIP3    H136503   4.095   5.013   2.981 -1.1454  1.6182  2.6399
 5004TIP3    H236504   4.103   4.862   2.976  1.0421  1.6954 -2.7697
 5005TIP3   OH236505   0.096   3.985  12.942 -0.3339  0.2005 -0.0028
 5005TIP3    H136506   0.096   3.898  12.982 -1.2019  0.6060  0.9136
 5005TIP3    H236507   0.043   3.975  12.862  0.5853 -0.3841 -0.5522
 5006TIP3   OH236508   5.980   5.735  11.103  0.5113 -0.1063 -0.0371
 5006TIP3    H136509   5.907   5.692  11.149  0.0508  1.3909  0.7049
 5006TIP3    H236510   6.048   5.743  11.170  0.4123  0.7157 -0.0245
 5007TIP3   OH236511   3.717   1.644  11.589 -0.1946 -0.0800  0.7171
 5007TIP3    H136512   3.784   1.624  11.654 -0.4390 -3.1052  0.1708
 5007TIP3    H236513   3.634   1.622  11.633 -0.7368  1.7638  0.7097
 5008TIP3   OH236514   3.984   6.316   0.438 -0.5882  0.1524 -0.0693
 5008TIP3    H136515   4.055   6.252   0.428  0.2789  1.3115 -2.0447
 5008TIP3    H236516   3.988   6.342   0.529 -0.7467 -2.2884  0.7210
 5009TIP3   OH236517   1.105   0.775  13.765  0.0010  0.2312 -0.1109
 5009TIP3    H136518   1.080   0.812  13.681 -0.8376 -2.0402 -0.9321
 5009TIP3    H236519   1.197   0.748  13.754 -0.1813 -0.2899 -0.4162
 5010TIP3   OH236520   4.840   0.447  12.213 -0.0288  0.9084  0.1452
 5010TIP3    H136521   4.766   0.473  12.159 -1.5053 -0.8214  1.2386
 5010TIP3    H236522   4.882   0.376  12.164 -0.4442  0.3789  0.5530
 5011TIP3   OH236523   4.460   2.805  14.750  0.0388 -0.1968  0.1801
 5011TIP3    H136524   4.521   2.827  14.821  1.1523  0.8018 -1.0215
 5011TIP3    H236525   4.467   2.710  14.742  0.8531 -0.1883  0.5989
 5012TIP3   OH236526   2.319   4.008   5.061  0.1875 -0.0406  0.3249
 5012TIP3    H136527   2.356   4.022   5.149  0.0012  0.8935  0.2693
 5012TIP3    H236528   2.237   3.961   5.076  0.2995 -0.1431  0.6253
 5013TIP3   OH236529   2.943   4.798  11.323 -0.0441  0.5709 -0.2270
 5013TIP3    H136530   3.032   4.787  11.358  0.2890  0.7079 -1.0061
 5013TIP3    H236531   2.951   4.774  11.231 -1.2020 -1.1062  0.0681
 5014TIP3   OH236532   4.357   4.556   1.407 -0.2005  0.2336 -0.1931
 5014TIP3    H136533   4.425   4.495   1.381 -0.1898 -0.1842  0.7720
 5014TIP3    H236534   4.400   4.642   1.405  0.4616 -0.0580  0.7026
 5015TIP3   OH236535   0.029   2.470  16.277 -0.2649 -0.3696 -0.0124
 5015TIP3    H136536   0.009   2.379  16.256 -0.1824 -0.2939 -0.4345
 5015TIP3    H236537  -0.049   2.503  16.322 -0.2893 -0.6511  0.1518
 5016TIP3   OH236538   3.305   3.189   3.391  0.0487  0.0299  0.2991
 5016TIP3    H136539   3.266   3.153   3.470  0.7083  1.3462  1.2538
 5016TIP3    H236540   3.231   3.226   3.342 -0.0191  2.4358  2.0534
 5017TIP3   OH236541   3.479   2.719   3.206  0.1413  0.2860  0.3272
 5017TIP3    H136542   3.422   2.780   3.254 -2.3074 -0.4218 -1.4397
 5017TIP3    H236543   3.468   2.636   3.252  2.8067  0.8661  2.2173
 5018TIP3   OH236544   2.843   6.012   3.555 -0.5312  0.3313 -0.1635
 5018TIP3    H136545   2.786   6.034   3.628 -0.7196 -0.3474 -0.1034
 5018TIP3    H236546   2.931   6.011   3.593 -0.6199  0.0694  0.0348
 5019TIP3   OH236547   3.397   0.200  16.624 -0.6865  0.0043 -0.4840
 5019TIP3    H136548   3.486   0.209  16.590 -0.9086 -1.4036 -1.5160
 5019TIP3    H236549   3.404   0.132  16.691 -0.8187  0.6175  0.1694
 5020TIP3   OH236550   3.509   1.739   5.221 -0.4694 -0.1237  0.1105
 5020TIP3    H136551   3.529   1.786   5.140 -1.3737 -1.5905 -1.0203
 5020TIP3    H236552   3.461   1.802   5.275  2.4837  1.7922  0.7525
 5021TIP3   OH236553   0.486   5.095  10.821 -0.6123  0.3843  0.3909
 5021TIP3    H136554   0.507   5.041  10.745  0.6807  0.4478  0.6672
 5021TIP3    H236555   0.426   5.161  10.789 -2.1119 -1.0986 -0.0005
 5022TIP3   OH236556   3.032   5.079   4.349 -0.3140 -0.2977  0.2695
 5022TIP3    H136557   2.962   5.068   4.414  0.3305  0.0537  1.0460
 5022TIP3    H236558   2.986   5.099   4.267 -1.1044  0.9591  0.9754
 5023TIP3   OH236559   2.346   3.963   2.116 -0.0200  0.1339  0.7009
 5023TIP3    H136560   2.398   4.030   2.070  0.0783  0.1238  0.7963
 5023TIP3    H236561   2.408   3.893   2.135 -0.4595 -0.6903 -0.7830
 5024TIP3   OH236562   3.871   1.512   3.671  0.0758 -0.1780 -0.4993
 5024TIP3    H136563   3.855   1.514   3.765 -2.1967  1.2732 -0.8375
 5024TIP3    H236564   3.885   1.604   3.647  0.9351 -0.5547 -1.5500
 5025TIP3   OH236565   4.975   1.432   2.976 -0.6577  0.1367  0.3126
 5025TIP3    H136566   4.996   1.375   3.049 -1.7143 -0.0453  0.4876
 5025TIP3    H236567   4.888   1.466   2.996 -0.8977  0.1998 -0.7898
 5026TIP3   OH236568   3.937   0.836  13.958 -0.1333  0.0614 -0.5516
 5026TIP3    H136569   3.845   0.818  13.977 -0.4159 -2.1661 -3.2682
 5026TIP3    H236570   3.986   0.767  14.004  0.2220  1.1512  0.7650
 5027TIP3   OH236571   5.134   4.675   0.747  0.4690 -0.1702 -0.6665
 5027TIP3    H136572   5.046   4.711   0.756  0.5193 -0.0196 -0.7690
 5027TIP3    H236573   5.161   4.698   0.658  1.5060  1.7984  0.0931
 5028TIP3   OH236574   1.538   4.282  15.539  0.1878  1.0208 -0.0855
 5028TIP3    H136575   1.483   4.257  15.613  1.3296 -0.3566  0.3468
 5028TIP3    H236576   1.501   4.364  15.508  0.4094  2.3348  2.8134
 5029TIP3   OH236577   4.338   1.001  13.902 -0.2670 -0.4083  0.2781
 5029TIP3    H136578   4.356   1.095  13.900 -2.1183 -0.0338 -1.3114
 5029TIP3    H236579   4.400   0.964  13.840 -0.0436 -0.1323  0.3333
 5030TIP3   OH236580   5.983   6.271  12.628 -0.4286 -0.3774 -0.0912
 5030TIP3    H136581   6.061   6.235  12.670 -0.3627  1.5609  1.5821
 5030TIP3    H236582   6.015   6.348  12.581 -1.3841  0.8303  1.1681
 5031TIP3   OH236583   1.953   0.957  12.234 -0.6686 -0.5227  0.0195
 5031TIP3    H136584   1.977   1.032  12.180  1.3127 -1.5077 -0.5455
 5031TIP3    H236585   1.901   0.901  12.176  0.0197 -0.7711 -0.3747
 5032TIP3   OH236586   5.066   0.883   4.849 -0.1521  0.9511  0.2030
 5032TIP3    H136587   5.148   0.930   4.863 -0.5024  1.4966  0.4525
 5032TIP3    H236588   5.039   0.857   4.936  0.6429 -0.7753 -0.0310
 5033TIP3   OH236589   5.195   6.599   3.824  0.2002 -0.5567  0.4878
 5033TIP3    H136590   5.115   6.609   3.772  1.4031  1.4016 -1.1674
 5033TIP3    H236591   5.174   6.641   3.907 -0.8064 -0.9805  0.4691
 5034TIP3   OH236592   0.804   2.046  12.140 -0.0829 -0.1387 -0.0597
 5034TIP3    H136593   0.716   2.071  12.114 -0.3242  0.3606  1.1619
 5034TIP3    H236594   0.791   1.983  12.211  0.5411  0.4764  0.6130
 5035TIP3   OH236595   4.754   5.690   0.083  0.2647  0.2157 -0.2093
 5035TIP3    H136596   4.787   5.609   0.044  4.1762  1.4137  0.1153
 5035TIP3    H236597   4.793   5.692   0.171 -0.1847  2.1251 -0.0012
 5036TIP3   OH236598   5.775   0.769   5.170 -0.3609  0.1736 -0.5239
 5036TIP3    H136599   5.850   0.710   5.163 -0.5895 -0.1695 -0.1025
 5036TIP3    H236600   5.711   0.735   5.107  0.3053  1.1989 -1.8170
 5037TIP3   OH236601   0.167   4.535   0.895 -0.1857 -0.3312 -0.2707
 5037TIP3    H136602   0.232   4.591   0.852 -1.1903  0.0288 -1.3809
 5037TIP3    H236603   0.135   4.478   0.826 -0.8119 -0.7249  0.3375
 5038TIP3   OH236604   4.825   4.335  11.271  1.1939 -0.6164 -0.3856
 5038TIP3    H136605   4.818   4.396  11.198 -1.8668 -1.0238 -0.5948
 5038TIP3    H236606   4.829   4.248  11.230  1.8797 -0.7406 -0.0688
 5039TIP3   OH236607   4.582   0.582  17.024  0.2559  0.7885 -0.2227
 5039TIP3    H136608   4.546   0.636  16.954 -0.2371  0.7450 -0.0082
 5039TIP3    H236609   4.505   0.554  17.074  0.2990 -1.4601 -1.2725
 5040TIP3   OH236610   5.763   2.458  15.196 -0.0163 -0.4973  0.1425
 5040TIP3    H136611   5.740   2.420  15.111 -1.6118  0.3504  0.1677
 5040TIP3    H236612   5.857   2.439  15.206 -0.0490 -1.5582 -1.2994
 5041TIP3   OH236613   4.307   1.413  11.096 -0.3067 -0.2290  0.1857
 5041TIP3    H136614   4.297   1.500  11.134 -0.3173 -0.0603 -0.1974
 5041TIP3    H236615   4.381   1.421  11.036 -0.9607 -0.1972 -0.6383
 5042TIP3   OH236616   3.155   4.463  15.676 -0.4812  0.2848 -0.1466
 5042TIP3    H136617   3.090   4.443  15.608 -1.7851  1.9834  0.5126
 5042TIP3    H236618   3.164   4.382  15.725 -1.1428 -0.3549 -1.0506
 5043TIP3   OH236619   4.465   3.162   1.929  0.4016  0.2729  0.4448
 5043TIP3    H136620   4.475   3.213   2.009 -3.3339  1.9127  0.0631
 5043TIP3    H236621   4.388   3.108   1.945  0.3146 -0.2858 -1.6140
 5044TIP3   OH236622   5.145   5.875  16.012 -0.2907  1.1712 -0.2086
 5044TIP3    H136623   5.173   5.966  16.005  0.5920  0.9493  0.3103
 5044TIP3    H236624   5.094   5.871  16.093  2.3053  0.5890  1.5073
 5045TIP3   OH236625   5.055   5.311  10.570  0.0501  0.1124  0.1636
 5045TIP3    H136626   4.972   5.356  10.553  0.0943  0.0141 -0.3267
 5045TIP3    H236627   5.095   5.302  10.484  0.0779 -0.8067  0.2670
 5046TIP3   OH236628   0.518   0.427   2.642 -0.1839  0.0882  0.5004
 5046TIP3    H136629   0.440   0.400   2.691  0.2840 -0.5367  0.9190
 5046TIP3    H236630   0.547   0.507   2.685 -1.0152  0.7389 -0.1249
 5047TIP3   OH236631   0.090   1.425   3.861 -0.5124  0.4713  0.2895
 5047TIP3    H136632   0.096   1.336   3.894  0.8786  0.1257 -0.8075
 5047TIP3    H236633   0.108   1.480   3.938 -1.0306 -0.1868  0.8934
 5048TIP3   OH236634   3.504   6.214  16.268  0.5311 -0.1979 -0.2753
 5048TIP3    H136635   3.483   6.250  16.182 -0.6675  0.2104  0.1682
 5048TIP3    H236636   3.452   6.134  16.275 -0.1322  0.2770  0.4316
 5049TIP3   OH236637   6.264   6.135  13.924 -0.1177 -0.4963 -0.2652
 5049TIP3    H136638   6.319   6.062  13.952 -1.1503 -0.4367  2.1913
 5049TIP3    H236639   6.174   6.104  13.935 -0.6133  0.1921 -1.9899
 5050TIP3   OH236640   1.879   5.558   4.450 -0.5681  0.2606 -0.5025
 5050TIP3    H136641   1.842   5.503   4.382  0.4663  1.1793 -1.8545
 5050TIP3    H236642   1.955   5.509   4.482 -2.5292 -1.4185  1.9633
 5051TIP3   OH236643   0.555   1.106   6.053  0.1776 -0.4358 -0.8606
 5051TIP3    H136644   0.578   1.129   6.143 -0.2786 -3.6163  0.1717
 5051TIP3    H236645   0.494   1.176   6.026 -2.4547 -1.1176  2.5846
 5052TIP3   OH236646   6.392   5.148   5.478  0.0430  0.7382 -0.0315
 5052TIP3    H136647   6.465   5.086   5.478  1.7494  2.6166 -0.1607
 5052TIP3    H236648   6.414   5.210   5.408 -2.5029  0.5230 -1.1298
 5053TIP3   OH236649   3.679   4.675   3.635 -0.1952 -0.7540  0.0153
 5053TIP3    H136650   3.672   4.745   3.571  1.7522  0.2146  0.8005
 5053TIP3    H236651   3.741   4.613   3.597 -1.7622 -2.0300 -0.5940
 5054TIP3   OH236652   4.448   3.943   3.150  0.2973 -0.4532 -0.2287
 5054TIP3    H136653   4.406   3.990   3.222  2.5557  0.0536  0.8295
 5054TIP3    H236654   4.495   3.871   3.191 -0.0115 -1.3933 -1.4417
 5055TIP3   OH236655   6.345   0.396   5.422 -0.5092  0.0359  0.5949
 5055TIP3    H136656   6.314   0.358   5.340 -1.3303 -1.4077  1.5176
 5055TIP3    H236657   6.353   0.321   5.481  1.4294  0.8404  1.4436
 5056TIP3   OH236658   2.408   5.760  13.642 -0.0404  0.2156  0.4191
 5056TIP3    H136659   2.348   5.835  13.638  1.2442  1.2614  0.1766
 5056TIP3    H236660   2.465   5.771  13.566  1.0664 -0.2390  1.1615
 5057TIP3   OH236661   3.966   5.671  14.108 -0.3601  0.1418  0.6031
 5057TIP3    H136662   3.937   5.643  14.195 -1.5313  0.0250  0.1890
 5057TIP3    H236663   4.024   5.601  14.078 -0.4742 -0.1368  1.0185
 5058TIP3   OH236664   1.601   1.444   1.673  0.1784  0.2620  0.3995
 5058TIP3    H136665   1.601   1.417   1.765 -0.2264 -0.5202  0.1738
 5058TIP3    H236666   1.603   1.362   1.624 -0.1435  0.6668 -0.2939
 5059TIP3   OH236667   2.298   2.460   5.713 -0.4716 -0.7261 -0.5194
 5059TIP3    H136668   2.382   2.492   5.679  0.0344 -1.3026  0.1625
 5059TIP3    H236669   2.264   2.534   5.763 -0.3049 -0.5374 -0.6779
 5060TIP3   OH236670   3.413   1.772  13.303 -0.3733  0.1212  0.2733
 5060TIP3    H136671   3.477   1.835  13.269 -1.4266  0.4781 -1.1444
 5060TIP3    H236672   3.414   1.786  13.397  1.8076 -0.0711  0.3344
 5061TIP3   OH236673   2.290   6.011   2.203 -0.0357  0.6807  0.3728
 5061TIP3    H136674   2.321   6.036   2.290  2.2541  0.1157 -0.2336
 5061TIP3    H236675   2.282   5.916   2.207  1.1315  0.5402 -0.3351
 5062TIP3   OH236676   1.833   4.795  14.028 -0.0483  1.0850 -0.0820
 5062TIP3    H136677   1.828   4.701  14.013  0.5465  0.7802  1.4904
 5062TIP3    H236678   1.897   4.827  13.965  0.8179  0.2012  0.3390
 5063TIP3   OH236679   4.307   5.093  15.619 -0.2062 -0.0805  0.1554
 5063TIP3    H136680   4.378   5.031  15.603 -0.8406 -0.9431  0.5954
 5063TIP3    H236681   4.289   5.132  15.533 -0.8223 -1.6449 -0.4653
 5064TIP3   OH236682   2.877   5.038  13.324 -0.1030  0.5483  0.3696
 5064TIP3    H136683   2.796   5.048  13.274 -0.3346 -2.3048  0.0087
 5064TIP3    H236684   2.918   4.960  13.287  1.3819  0.2546  2.4588
 5065TIP3   OH236685   3.183   5.541  11.705 -0.1318  0.3944  0.3027
 5065TIP3    H136686   3.167   5.598  11.631 -0.2308  0.8487  0.6724
 5065TIP3    H236687   3.117   5.472  11.697 -1.6468  1.6816  1.2358
 5066TIP3   OH236688   5.034   0.431  10.634 -0.2176 -0.2302  0.2334
 5066TIP3    H136689   5.107   0.409  10.692  0.8208 -1.9866 -1.6161
 5066TIP3    H236690   5.033   0.526  10.632  0.8242 -0.1436  1.7411
 5067TIP3   OH236691   6.068   0.152  14.086  0.4084 -0.1167 -0.3518
 5067TIP3    H136692   6.031   0.151  14.174  1.3053 -0.2205  0.0307
 5067TIP3    H236693   6.006   0.205  14.035 -0.8013 -1.1429  0.0161
 5068TIP3   OH236694   1.629   1.768  15.447 -0.6675  0.0831  0.1897
 5068TIP3    H136695   1.538   1.790  15.427 -0.2053  1.4112 -0.5505
 5068TIP3    H236696   1.640   1.793  15.539 -0.5856  1.5826 -0.2032
 5069TIP3   OH236697   0.071   5.209  16.426  0.3048  0.0129  0.1011
 5069TIP3    H136698   0.135   5.215  16.497  2.4341  2.8391 -1.8502
 5069TIP3    H236699   0.119   5.170  16.353  0.4755  3.3966 -1.8324
 5070TIP3   OH236700   1.757   0.897  13.050  0.1013 -0.2226 -0.1125
 5070TIP3    H136701   1.743   0.990  13.066 -0.8365 -0.3144 -0.3514
 5070TIP3    H236702   1.777   0.892  12.956 -0.1115 -0.2864 -0.1551
 5071TIP3   OH236703   6.123   1.191  14.120  0.1048 -0.1380  0.0390
 5071TIP3    H136704   6.217   1.174  14.118  0.3501  1.1245 -0.4173
 5071TIP3    H236705   6.100   1.191  14.213  1.0389  1.8010  0.3206
 5072TIP3   OH236706   5.184   1.470   1.699  0.1363 -0.1284  0.1577
 5072TIP3    H136707   5.257   1.529   1.720 -0.6731  0.5372  1.2488
 5072TIP3    H236708   5.196   1.395   1.758  0.4827 -0.4933 -0.3686
 5073TIP3   OH236709   0.254   0.594  14.834 -0.0141  0.0259 -0.0527
 5073TIP3    H136710   0.212   0.606  14.919  0.5601 -0.6249  0.3294
 5073TIP3    H236711   0.232   0.673  14.785  1.0708  1.2361  1.3082
 5074TIP3   OH236712   4.904   1.881  11.147 -0.5846 -0.1150 -0.0322
 5074TIP3    H136713   4.848   1.958  11.155  0.1407  0.5112 -0.8010
 5074TIP3    H236714   4.885   1.846  11.060 -1.0461 -0.9391  0.3792
 5075TIP3   OH236715   1.454   3.486  12.240  0.4323  0.0718  0.0912
 5075TIP3    H136716   1.530   3.545  12.241  0.9396 -0.5260  2.3184
 5075TIP3    H236717   1.379   3.544  12.248  0.6848  0.6138 -1.2489
 5076TIP3   OH236718   1.769   4.299   2.976 -0.0179  0.0820  0.6270
 5076TIP3    H136719   1.683   4.256   2.973 -0.7421  1.4588  0.5872
 5076TIP3    H236720   1.788   4.322   2.886  0.4066 -0.2439  0.6338
 5077TIP3   OH236721   5.003   4.362   4.416 -0.0936 -0.2697 -0.3507
 5077TIP3    H136722   5.094   4.390   4.423  0.7451 -2.0973 -2.5220
 5077TIP3    H236723   4.974   4.395   4.331 -0.9677 -0.9135 -0.3232
 5078TIP3   OH236724   4.309   3.642   3.819  0.8615  0.1820  0.0610
 5078TIP3    H136725   4.241   3.699   3.784  1.0967  0.7182  0.4606
 5078TIP3    H236726   4.310   3.660   3.913 -0.3199 -1.8304  0.5244
 5079TIP3   OH236727   5.132   3.053  11.655 -0.0678  0.0997 -0.5617
 5079TIP3    H136728   5.171   2.983  11.602  1.5505  1.5213 -1.3606
 5079TIP3    H236729   5.203   3.082  11.713 -0.1189  2.1877 -1.4367
 5080TIP3   OH236730   4.663   6.389  14.079  0.1244 -0.6183  0.1324
 5080TIP3    H136731   4.745   6.342  14.096  0.2995  0.0087  1.0978
 5080TIP3    H236732   4.683   6.480  14.103 -0.9230 -0.5014  0.5867
 5081TIP3   OH236733   0.591   2.200   1.283  0.1947 -0.0265  0.3287
 5081TIP3    H136734   0.550   2.241   1.360 -0.6757 -2.1620  1.0805
 5081TIP3    H236735   0.653   2.137   1.320  1.2173  0.2898 -0.7800
 5082TIP3   OH236736   0.844   5.249   4.705  0.4111  0.5225  0.1540
 5082TIP3    H136737   0.763   5.198   4.715  0.3136  0.7633  0.6454
 5082TIP3    H236738   0.906   5.188   4.666 -0.4966  0.8196 -1.8594
 5083TIP3   OH236739   0.196   1.028   3.771 -0.1031  0.1157  0.0239
 5083TIP3    H136740   0.149   1.065   3.697  0.4344  0.2089 -0.2766
 5083TIP3    H236741   0.243   0.953   3.735  0.5634  0.4581  0.1519
 5084TIP3   OH236742   5.083   3.193   3.292 -0.1633 -0.4803  0.3975
 5084TIP3    H136743   5.149   3.180   3.224 -0.0962 -2.2602  0.7451
 5084TIP3    H236744   5.114   3.269   3.341  0.3167  0.2180 -0.9224
 5085TIP3   OH236745   6.169   6.128  15.633 -0.0453 -0.0218 -0.2468
 5085TIP3    H136746   6.223   6.050  15.617  0.5223 -0.3744  2.7882
 5085TIP3    H236747   6.232   6.200  15.641 -0.2405  0.0758  0.5039
 5086TIP3   OH236748   5.946   2.748   1.935  0.8478 -0.1016 -0.2541
 5086TIP3    H136749   5.889   2.683   1.895  1.5902 -1.3059  0.5407
 5086TIP3    H236750   6.030   2.738   1.889  1.9811 -2.1151  1.9824
 5087TIP3   OH236751   1.470   2.956   3.500  0.0194 -0.3899  0.1041
 5087TIP3    H136752   1.504   3.030   3.551  0.8758 -0.7609  0.0855
 5087TIP3    H236753   1.391   2.990   3.457  0.7888  0.7202 -0.4592
 5088TIP3   OH236754   0.666   2.108  15.774 -0.2003 -0.1447  0.5442
 5088TIP3    H136755   0.570   2.106  15.769 -0.1308 -0.4352 -1.5900
 5088TIP3    H236756   0.685   2.193  15.815 -1.3629  1.1778 -1.4698
 5089TIP3   OH236757   4.869   6.646  15.315  0.4322  0.0662  0.1382
 5089TIP3    H136758   4.788   6.684  15.350 -0.1532 -0.1078 -0.9762
 5089TIP3    H236759   4.912   6.719  15.271  0.9285  0.1720  0.7783
 5090TIP3   OH236760   1.955   5.050  15.495  0.5014  0.1833  0.2820
 5090TIP3    H136761   2.043   5.085  15.487  0.7788 -0.5705 -0.0571
 5090TIP3    H236762   1.967   4.959  15.525 -0.2089  0.4405  1.4363
 5091TIP3   OH236763   6.438   5.497  14.696 -0.1977  0.3710 -0.1179
 5091TIP3    H136764   6.363   5.477  14.641 -0.4808  1.3374 -0.1131
 5091TIP3    H236765   6.404   5.560  14.760  0.4348  0.2442  0.3473
 5092TIP3   OH236766   6.617   3.806   4.908  0.0058 -0.0335  0.1490
 5092TIP3    H136767   6.545   3.746   4.926 -1.2790  1.5747  0.6577
 5092TIP3    H236768   6.675   3.757   4.850 -1.7026 -1.2535 -0.6364
 5093TIP3   OH236769   0.425   5.975   5.343  0.0566  0.1184  0.4471
 5093TIP3    H136770   0.389   5.890   5.368  0.3018  0.4661  2.0751
 5093TIP3    H236771   0.351   6.035   5.350  0.4633  0.4831  1.8680
 5094TIP3   OH236772   3.733   0.288   1.243 -0.2118  0.0033 -1.0180
 5094TIP3    H136773   3.729   0.269   1.150  1.1493  0.6040 -1.2218
 5094TIP3    H236774   3.811   0.342   1.254 -1.2047  1.2669  0.2481
 5095TIP3   OH236775   6.079   0.917   5.149 -0.5282  0.0122  0.0355
 5095TIP3    H136776   6.153   0.935   5.091 -1.0070 -0.3969 -0.7340
 5095TIP3    H236777   6.036   1.002   5.160  0.1474  0.2809  0.6232
 5096TIP3   OH236778   2.009   4.372   5.708 -0.9190  0.0966  0.0555
 5096TIP3    H136779   2.029   4.455   5.751  0.3000 -0.7770  1.2519
 5096TIP3    H236780   2.087   4.319   5.721 -2.0372 -1.5902  0.1714
 5097TIP3   OH236781   2.682   2.986  15.328  0.2202  0.6564  0.5439
 5097TIP3    H136782   2.588   2.970  15.334  0.1682  0.4530 -0.5679
 5097TIP3    H236783   2.722   2.924  15.389 -0.3561  0.5679  0.8264
 5098TIP3   OH236784   1.590   4.487   5.313 -0.1306 -0.1138 -0.3378
 5098TIP3    H136785   1.610   4.420   5.248 -1.8829  0.5668 -1.6523
 5098TIP3    H236786   1.496   4.478   5.328 -0.6979  2.8348 -1.5241
 5099TIP3   OH236787   1.285   4.555   1.076 -0.0765  0.4962 -0.4415
 5099TIP3    H136788   1.239   4.484   1.119  0.1354  0.0704 -0.9047
 5099TIP3    H236789   1.293   4.623   1.143  1.2191 -0.5699  0.5206
 5100TIP3   OH236790   3.450   6.830  16.853  0.4956  0.2745 -0.3857
 5100TIP3    H136791   3.545   6.824  16.866  0.2301 -1.6155  1.1442
 5100TIP3    H236792   3.432   6.773  16.779  0.6742  1.7930 -1.6462
 5101TIP3   OH236793   4.383   6.515   6.288  0.4699  0.4221  0.1865
 5101TIP3    H136794   4.443   6.492   6.216  0.1459  1.6667 -0.5125
 5101TIP3    H236795   4.428   6.587   6.334 -0.0176  0.6605  0.2933
 5102TIP3   OH236796   1.458   5.226  13.796  0.0050  0.6101  0.4142
 5102TIP3    H136797   1.489   5.164  13.862 -2.1449 -0.7583  0.2451
 5102TIP3    H236798   1.391   5.277  13.842 -1.4634 -0.3103 -0.6335
 5103TIP3   OH236799   2.375   6.477  12.048  0.6401 -0.1351 -0.7397
 5103TIP3    H136800   2.369   6.565  12.087 -0.8227  1.1952 -3.6066
 5103TIP3    H236801   2.455   6.479  11.996  0.9134 -0.7346 -0.3501
 5104TIP3   OH236802   0.988   1.583   6.030  0.1907  0.7006  0.6156
 5104TIP3    H136803   0.945   1.665   6.055  0.6957  1.3335 -0.4987
 5104TIP3    H236804   0.971   1.574   5.937 -0.4053 -0.8308  0.8341
 5105TIP3   OH236805   6.079   4.386   2.597 -0.4491  0.0910  0.6745
 5105TIP3    H136806   6.073   4.470   2.643  0.8763 -0.2583  1.5736
 5105TIP3    H236807   6.017   4.329   2.644 -1.3001  0.5329  0.1060
 5106TIP3   OH236808   2.754   4.464   3.926  0.2636  0.0042  0.5439
 5106TIP3    H136809   2.772   4.472   4.020  2.1266  1.9048  0.1070
 5106TIP3    H236810   2.788   4.545   3.889 -0.7897 -0.5493 -1.7390
 5107TIP3   OH236811   1.066   5.967  15.995  0.3617  0.2931  0.2419
 5107TIP3    H136812   1.000   5.900  16.012  1.1563  0.0086  2.6598
 5107TIP3    H236813   1.149   5.920  15.997  1.1311  1.4343  4.0041
 5108TIP3   OH236814   2.070   0.460  13.277 -0.0922 -0.2267 -0.0785
 5108TIP3    H136815   2.040   0.548  13.301  0.2876 -0.0611 -0.1858
 5108TIP3    H236816   1.996   0.421  13.231 -0.7135 -0.4359  1.0808
 5109TIP3   OH236817   6.419   5.040  14.307  0.2619  0.4670 -0.1247
 5109TIP3    H136818   6.481   4.975  14.340  0.1023 -0.4746 -1.6170
 5109TIP3    H236819   6.457   5.071  14.225 -2.0723 -1.5637 -2.1220
 5110TIP3   OH236820   0.099   1.534  16.286  0.0777  0.2604  0.0941
 5110TIP3    H136821   0.073   1.565  16.373 -3.3705  0.9931 -1.0576
 5110TIP3    H236822   0.121   1.614  16.237  2.7209 -0.1954  0.3733
 5111TIP3   OH236823   2.021   2.853   5.438  0.0149  0.8209 -0.3539
 5111TIP3    H136824   1.982   2.818   5.518  0.0920  1.9702  0.2091
 5111TIP3    H236825   2.103   2.804   5.428 -0.4727 -0.0167 -0.2815
 5112TIP3   OH236826   3.553   0.368  16.016 -0.5252  0.2079  0.2805
 5112TIP3    H136827   3.491   0.300  16.044 -2.9792  1.4502 -1.6877
 5112TIP3    H236828   3.511   0.450  16.042 -1.4396  1.2595 -3.8839
 5113TIP3   OH236829   3.819   5.155  13.782 -0.1788  0.2636 -0.0404
 5113TIP3    H136830   3.818   5.206  13.701  0.1605  2.1015  1.0589
 5113TIP3    H236831   3.730   5.162  13.816  0.3408  1.7715  1.0720
 5114TIP3   OH236832   3.281   3.999   2.449 -0.0302  0.2300 -0.0184
 5114TIP3    H136833   3.348   4.051   2.405  0.3665  1.6168  2.0616
 5114TIP3    H236834   3.328   3.955   2.520 -0.7159 -1.6111 -0.6570
 5115TIP3   OH236835   1.203   2.214   2.951  0.1337  0.2262 -0.2496
 5115TIP3    H136836   1.191   2.248   3.040  0.8199  0.0493 -0.0842
 5115TIP3    H236837   1.130   2.154   2.939  0.0602  0.2156  0.2129
 5116TIP3   OH236838   2.833   5.667   5.362 -0.0445 -0.0724  0.0527
 5116TIP3    H136839   2.884   5.586   5.353 -0.4709 -0.2149 -1.2825
 5116TIP3    H236840   2.747   5.639   5.393  0.0525 -0.0350  0.3637
 5117TIP3   OH236841   2.153   1.383   2.987 -0.3092 -0.2643  0.1627
 5117TIP3    H136842   2.138   1.385   3.082  0.2016 -0.5218  0.2526
 5117TIP3    H236843   2.125   1.469   2.957 -2.8969 -0.9983  0.1637
 5118TIP3   OH236844   2.589   0.476  16.784  0.6768 -0.2377 -0.1750
 5118TIP3    H136845   2.580   0.450  16.692  1.1921 -0.0466 -0.2772
 5118TIP3    H236846   2.666   0.429  16.815 -0.6703 -1.9909  0.7590
 5119TIP3   OH236847   2.282   3.089  15.843  0.0390  0.7141  0.3933
 5119TIP3    H136848   2.221   3.033  15.891 -0.0908  0.7665  0.2892
 5119TIP3    H236849   2.227   3.137  15.781  0.3939 -0.5905 -1.0040
 5120TIP3   OH236850   1.024   1.051   4.550  0.1877  0.5259  0.3202
 5120TIP3    H136851   0.961   1.096   4.494  1.2534  0.1863 -1.2185
 5120TIP3    H236852   1.005   0.958   4.539 -0.3131  0.4772  1.4353
 5121TIP3   OH236853   5.907   6.453   2.640 -0.5794  0.2224 -0.4000
 5121TIP3    H136854   5.867   6.421   2.721  0.5419 -2.0178 -0.6525
 5121TIP3    H236855   6.001   6.449   2.655 -0.3341 -0.5786 -1.8988
 5122TIP3   OH236856   2.439   1.162   5.412  0.2707 -0.4068  0.3027
 5122TIP3    H136857   2.519   1.146   5.462  0.3531 -2.8864 -0.5207
 5122TIP3    H236858   2.384   1.085   5.428 -1.7807  0.9924  0.4351
 5123TIP3   OH236859   1.115   4.841  13.006  0.0418  0.4354 -0.1861
 5123TIP3    H136860   1.131   4.845  13.100  1.8673 -1.2433 -0.3698
 5123TIP3    H236861   1.164   4.915  12.970  0.2900  0.3955  0.0688
 5124TIP3   OH236862   5.339   4.869   5.389  0.4551  0.3792  0.9270
 5124TIP3    H136863   5.358   4.865   5.482  1.2031  0.1152  0.7690
 5124TIP3    H236864   5.423   4.852   5.346 -0.0135 -0.2266  0.2084
 5125TIP3   OH236865   3.260   2.416   2.471  0.5035 -0.0318 -0.0080
 5125TIP3    H136866   3.237   2.426   2.563  0.3307 -1.0037  0.0670
 5125TIP3    H236867   3.349   2.452   2.464 -0.6100  3.0032 -0.1311
 5126TIP3   OH236868   6.364   0.560  16.299  0.1838  0.3646  0.2339
 5126TIP3    H136869   6.356   0.596  16.211 -2.0255  1.8143  0.9649
 5126TIP3    H236870   6.274   0.543  16.327  0.8211  0.0565  2.2634
 5127TIP3   OH236871   1.795   3.309   3.542  1.3745 -0.3137  0.0805
 5127TIP3    H136872   1.777   3.243   3.475  1.4051 -0.9168  0.6537
 5127TIP3    H236873   1.850   3.373   3.499  0.4861 -0.1119 -0.7932
 5128TIP3   OH236874   5.570   2.572   3.631  0.3944  0.0381  0.3010
 5128TIP3    H136875   5.535   2.490   3.666 -0.1364 -0.2477 -0.8258
 5128TIP3    H236876   5.653   2.547   3.591  0.1763  0.0092 -0.1474
 5129TIP3   OH236877   0.812   6.514  14.166 -0.3757  0.0707  0.2922
 5129TIP3    H136878   0.890   6.568  14.182  0.1480 -0.8638  1.0403
 5129TIP3    H236879   0.798   6.520  14.072 -0.3348  1.5010  0.3559
 5130TIP3   OH236880   2.130   5.106   5.324 -0.0131 -0.4022  0.2967
 5130TIP3    H136881   2.178   5.024   5.335  0.5517 -0.2043 -0.5966
 5130TIP3    H236882   2.138   5.126   5.231  1.7789  1.8263  0.8503
 5131TIP3   OH236883   1.528   5.190   4.098  0.0163  0.2095 -0.0678
 5131TIP3    H136884   1.529   5.274   4.051 -1.4983 -0.1929 -0.8839
 5131TIP3    H236885   1.613   5.150   4.077  0.3697  1.1161 -0.4442
 5132TIP3   OH236886   3.718   3.060   1.456 -0.1374  0.6230 -0.0143
 5132TIP3    H136887   3.665   2.981   1.467  0.3480  0.4474  1.2106
 5132TIP3    H236888   3.778   3.038   1.384 -1.5220  0.7475 -1.2618
 5133TIP3   OH236889   5.743   0.168  16.297 -0.1038 -0.5757 -0.5688
 5133TIP3    H136890   5.678   0.146  16.230 -0.6067 -2.1512  0.3737
 5133TIP3    H236891   5.799   0.090  16.300  0.9494  0.1769 -0.3376
 5134TIP3   OH236892   5.114   1.836   4.460  0.7467  0.8610 -0.7800
 5134TIP3    H136893   5.111   1.740   4.460 -0.6973  0.8712  0.2848
 5134TIP3    H236894   5.031   1.863   4.500  0.8118  2.5848 -1.7040
 5135TIP3   OH236895   2.269   3.804  14.528 -0.5851  0.1294 -0.2117
 5135TIP3    H136896   2.273   3.883  14.582 -1.7523  0.0410  0.0424
 5135TIP3    H236897   2.252   3.836  14.440 -0.1105  0.2065 -0.2749
 5136TIP3   OH236898   4.106   6.581  15.660 -0.4754  0.0193  0.5626
 5136TIP3    H136899   4.081   6.629  15.738  2.6087  0.1852  1.5838
 5136TIP3    H236900   4.110   6.489  15.688 -0.4452 -0.0619  0.3026
 5137TIP3   OH236901   4.338   0.925   2.248 -0.1428  0.1405 -0.0027
 5137TIP3    H136902   4.281   0.874   2.305  0.0089  0.6498  0.6173
 5137TIP3    H236903   4.402   0.862   2.216 -1.8485 -0.7637 -1.8568
 5138TIP3   OH236904   2.918   1.752   5.102  0.6249 -0.3583  0.8493
 5138TIP3    H136905   2.954   1.675   5.146  0.4227 -0.9301  0.0471
 5138TIP3    H236906   2.902   1.815   5.172  4.3019  0.4267  1.1471
 5139TIP3   OH236907   5.061   1.847  13.612  0.1713  0.5699 -0.6023
 5139TIP3    H136908   4.981   1.900  13.613  0.0847  0.4435 -0.7185
 5139TIP3    H236909   5.043   1.778  13.547 -0.7691 -1.2226  1.4075
 5140TIP3   OH236910   2.730   4.848   0.948  0.2600  0.3176 -0.0393
 5140TIP3    H136911   2.716   4.779   0.884  0.0445 -0.0073  0.3469
 5140TIP3    H236912   2.752   4.926   0.897 -1.3060  0.4240 -0.6013
 5141TIP3   OH236913   0.419   6.459   5.279 -0.6471 -0.3996 -0.4760
 5141TIP3    H136914   0.401   6.550   5.302 -1.2734 -0.8346  0.8192
 5141TIP3    H236915   0.358   6.408   5.333  0.8187 -1.6624  0.0454
 5142TIP3   OH236916   6.768   2.123  16.606 -0.5249  0.1945  0.2087
 5142TIP3    H136917   6.841   2.128  16.668  0.4713 -0.4223 -0.8635
 5142TIP3    H236918   6.734   2.034  16.616 -0.4947  0.1624  0.0387
 5143TIP3   OH236919   4.320   1.176  15.061  0.2363  0.2577 -0.0630
 5143TIP3    H136920   4.331   1.082  15.076  1.4060  0.1993 -1.1258
 5143TIP3    H236921   4.262   1.181  14.985 -2.3018  0.4855  1.7724
 5144TIP3   OH236922   5.779   5.559  11.175 -0.1712  0.2100 -0.3056
 5144TIP3    H136923   5.787   5.498  11.248  1.1519 -0.3545 -0.8835
 5144TIP3    H236924   5.689   5.551  11.146 -0.3486 -0.5446  0.4259
 5145TIP3   OH236925   4.697   6.368  11.784 -0.1089 -0.4995  0.4025
 5145TIP3    H136926   4.785   6.362  11.747  0.0396  3.0725 -0.1665
 5145TIP3    H236927   4.653   6.288  11.756  2.8409 -2.2461  0.4637
 5146TIP3   OH236928   6.376   2.612   3.069 -0.1292  0.2189  0.1579
 5146TIP3    H136929   6.322   2.621   2.990  1.9753 -1.4231 -1.6014
 5146TIP3    H236930   6.334   2.542   3.119 -2.1636  2.0760  1.2034
 5147TIP3   OH236931   4.227   3.245   4.780 -0.5252  0.3312  0.3697
 5147TIP3    H136932   4.181   3.266   4.861  0.0005 -0.4967  0.9009
 5147TIP3    H236933   4.316   3.226   4.808 -0.0053  1.3214 -0.5739
 5148TIP3   OH236934   2.178   3.976   4.281  0.2517  0.2109  0.0423
 5148TIP3    H136935   2.171   3.901   4.341 -1.0640 -0.6749 -1.1399
 5148TIP3    H236936   2.244   4.032   4.320  2.1452 -2.1131  0.4255
 5149TIP3   OH236937   2.030   0.180   4.707  0.1656  0.4213 -0.3178
 5149TIP3    H136938   1.943   0.156   4.674  0.4857  0.8949 -1.5720
 5149TIP3    H236939   2.086   0.107   4.681  0.4983  0.9779 -1.2081
 5150TIP3   OH236940   5.884   0.139  16.669 -0.1582 -0.5975  0.1888
 5150TIP3    H136941   5.857   0.047  16.669 -0.7454 -0.4674 -1.7753
 5150TIP3    H236942   5.824   0.181  16.731  1.5090 -1.8208  2.8523
 5151TIP3   OH236943   5.879   5.366   2.980  0.5406 -0.5665 -0.3685
 5151TIP3    H136944   5.900   5.372   3.073  1.1240 -1.1829 -0.4537
 5151TIP3    H236945   5.867   5.457   2.953 -0.6728 -0.4357  0.5263
 5152TIP3   OH236946   3.755   5.626   5.079  0.3973  0.0944  0.2655
 5152TIP3    H136947   3.764   5.719   5.096 -0.1793  0.2363 -0.1676
 5152TIP3    H236948   3.792   5.614   4.991  0.7296 -0.1282  0.4378
 5153TIP3   OH236949   6.486   6.117  11.538 -0.1196 -0.1854 -0.1661
 5153TIP3    H136950   6.442   6.101  11.622  1.4717  0.3855  0.8147
 5153TIP3    H236951   6.415   6.136  11.477 -1.2818  0.0197  1.2025
 5154TIP3   OH236952   3.193   6.709   2.402 -0.3262 -0.2207 -0.1908
 5154TIP3    H136953   3.151   6.692   2.317 -0.4060 -2.6188  0.2507
 5154TIP3    H236954   3.276   6.752   2.379 -0.6134 -0.2824 -1.4364
 5155TIP3   OH236955   4.498   0.657  12.529 -0.2863  0.4195  0.0024
 5155TIP3    H136956   4.458   0.669  12.443 -0.1693  2.5846  0.1803
 5155TIP3    H236957   4.591   0.642  12.511 -0.4454 -0.2327 -0.2793
 5156TIP3   OH236958   5.002   5.511   4.578  0.3729 -0.2128 -0.0839
 5156TIP3    H136959   5.066   5.472   4.638  1.2047  0.4193 -0.5345
 5156TIP3    H236960   4.917   5.486   4.614  0.8003  1.1768  2.1015
 5157TIP3   OH236961   0.102   1.367  11.627 -0.2596 -0.4101  0.5899
 5157TIP3    H136962   0.164   1.398  11.561 -1.0589  0.5465  0.2727
 5157TIP3    H236963   0.016   1.377  11.587 -0.6872 -0.8330  1.3774
 5158TIP3   OH236964   5.398   6.793   6.083 -0.2531  0.3589 -0.1760
 5158TIP3    H136965   5.425   6.701   6.086 -0.8133  0.1652 -0.7448
 5158TIP3    H236966   5.302   6.790   6.091 -0.2438  0.9182  0.2046
 5159TIP3   OH236967   0.840   4.686   5.142 -0.0981 -0.2907 -0.0978
 5159TIP3    H136968   0.915   4.742   5.121 -0.3322 -0.2248 -0.7726
 5159TIP3    H236969   0.775   4.746   5.178  0.0842 -0.3129  0.2742
 5160TIP3   OH236970   2.631   2.356   5.232  0.1652 -0.3422 -0.0805
 5160TIP3    H136971   2.679   2.385   5.155  0.7278 -0.7724  0.0982
 5160TIP3    H236972   2.627   2.434   5.288  0.5086 -0.2566 -0.1716
 5161TIP3   OH236973   6.329   6.809  13.159  0.1233 -0.3452  0.2122
 5161TIP3    H136974   6.286   6.725  13.173  2.0454 -1.4834 -0.4300
 5161TIP3    H236975   6.347   6.842  13.247 -2.6248  0.5375  0.5348
 5162TIP3   OH236976   4.837   4.801   4.472 -0.0010 -0.2866  0.1361
 5162TIP3    H136977   4.838   4.896   4.466 -0.5788 -0.2994 -0.2092
 5162TIP3    H236978   4.846   4.783   4.566 -1.5187  0.1610  0.3988
 5163TIP3   OH236979   5.932   1.477   1.347 -0.1760  0.6559 -0.0588
 5163TIP3    H136980   5.994   1.433   1.405  1.4204  1.7596 -0.8344
 5163TIP3    H236981   5.867   1.515   1.406  0.1067 -0.1738  0.8223
 5164TIP3   OH236982   2.157   4.288   1.199  0.0870  0.0684 -0.4974
 5164TIP3    H136983   2.091   4.229   1.235 -0.1857  1.2403  1.0531
 5164TIP3    H236984   2.107   4.354   1.151  0.1236  0.7212  0.3308
 5165TIP3   OH236985   0.302   3.062   4.731  0.3862  0.2027 -0.6908
 5165TIP3    H136986   0.397   3.070   4.735  0.4365 -0.1890 -1.0743
 5165TIP3    H236987   0.273   3.082   4.820  0.6164  3.0300 -1.1623
 5166TIP3   OH236988   2.843   6.167   1.241  0.2631 -0.1651  0.2614
 5166TIP3    H136989   2.817   6.207   1.159  0.4511 -0.5481  0.0141
 5166TIP3    H236990   2.901   6.095   1.216 -1.4174 -1.7080  0.5629
 5167TIP3   OH236991   6.088   2.076   5.578 -0.1116  0.4010 -0.4444
 5167TIP3    H136992   6.082   2.137   5.651  2.4705  0.8397 -0.4723
 5167TIP3    H236993   6.015   2.016   5.590 -0.5852  1.3044  1.6763
 5168TIP3   OH236994   6.409   1.206   4.772 -0.4781 -0.1757 -0.0605
 5168TIP3    H136995   6.442   1.126   4.812 -0.4022 -0.4120 -0.6037
 5168TIP3    H236996   6.408   1.269   4.844  2.3157  0.2110 -0.2777
 5169TIP3   OH236997   2.959   3.224  12.456 -0.7494  0.2134 -0.0435
 5169TIP3    H136998   2.905   3.300  12.436 -1.5278 -0.1900  0.4616
 5169TIP3    H236999   2.996   3.198  12.372 -0.4407  1.1700 -0.2120
 5170TIP3   OH237000   5.537   2.738   3.114  0.3955  0.4461  0.2886
 5170TIP3    H137001   5.597   2.683   3.164 -0.2012 -0.7607 -0.2747
 5170TIP3    H237002   5.544   2.706   3.024 -1.0236  0.3066  0.1953
 5171TIP3   OH237003   3.101   2.027   0.260  0.0090 -0.1993  0.4166
 5171TIP3    H137004   3.102   2.122   0.271 -1.3300  0.1882 -2.1043
 5171TIP3    H237005   3.039   2.012   0.189 -0.2865 -3.0347  1.1818
 5172TIP3   OH237006   0.760   3.043   3.214  0.3660  0.7203  0.0062
 5172TIP3    H137007   0.837   2.991   3.192 -1.2212 -1.2580 -1.3049
 5172TIP3    H237008   0.727   3.074   3.130 -1.7552 -0.8348  0.1647
 5173TIP3   OH237009   4.092   6.046  11.627 -0.0730  0.2858  0.1441
 5173TIP3    H137010   4.135   6.129  11.646  0.4118  0.7429 -2.4614
 5173TIP3    H237011   4.000   6.059  11.652  0.1366  1.3701  0.3802
 5174TIP3   OH237012   6.040   6.680   5.089 -0.1527  0.2730  0.1557
 5174TIP3    H137013   5.992   6.697   5.008 -0.1023 -1.2695 -0.2267
 5174TIP3    H237014   6.108   6.748   5.091 -1.0196  1.1859 -0.3646
 5175TIP3   OH237015   0.189   1.148   2.761 -0.0518  0.6442  0.3447
 5175TIP3    H137016   0.216   1.100   2.839 -1.3178  0.6898  0.8309
 5175TIP3    H237017   0.136   1.220   2.794  0.8485  1.7021 -0.4611
 5176TIP3   OH237018   3.357   5.850   1.426 -0.0282 -0.0625  0.4138
 5176TIP3    H137019   3.335   5.791   1.498 -0.2877  0.6821  0.9670
 5176TIP3    H237020   3.449   5.832   1.408  0.4640  0.7168  1.9191
 5177TIP3   OH237021   2.463   4.409  16.139  0.4897 -0.0740  0.0731
 5177TIP3    H137022   2.412   4.399  16.059 -1.1712  3.6409  0.5001
 5177TIP3    H237023   2.419   4.351  16.202 -1.4378  0.7806 -0.3976
 5178TIP3   OH237024   1.284   0.147   0.422  0.0665  0.7805  0.0096
 5178TIP3    H137025   1.354   0.109   0.476  0.1985  1.2288  0.1594
 5178TIP3    H237026   1.223   0.075   0.409  1.7177 -0.3506 -2.1608
 5179TIP3   OH237027   2.935   5.404   6.769  0.1895  0.3531  0.5108
 5179TIP3    H137028   3.011   5.364   6.727 -1.1650 -0.2394 -1.5536
 5179TIP3    H237029   2.928   5.491   6.728 -0.6137  0.1343  0.1538
 5180TIP3   OH237030   4.701   1.136   5.478 -0.2234 -0.1610  0.1094
 5180TIP3    H137031   4.677   1.045   5.493 -0.8369 -0.3013 -1.5142
 5180TIP3    H237032   4.617   1.180   5.461  0.0415  0.7613  1.1022
 5181TIP3   OH237033   5.446   0.492   3.161 -0.0975 -0.1973  0.3800
 5181TIP3    H137034   5.528   0.529   3.129 -0.6768  0.3579 -0.5115
 5181TIP3    H237035   5.407   0.452   3.084 -0.1090 -1.5249  1.0529
 5182TIP3   OH237036   0.798   3.331  13.668 -0.2050 -0.2734 -0.7991
 5182TIP3    H137037   0.802   3.239  13.642  1.4963 -0.4134 -0.1790
 5182TIP3    H237038   0.875   3.371  13.628  0.1279  0.4426  0.5051
 5183TIP3   OH237039   2.397   6.170  11.439  0.5949 -0.0850  0.5759
 5183TIP3    H137040   2.356   6.179  11.354  1.0466 -1.5060  0.1839
 5183TIP3    H237041   2.491   6.177  11.422  0.7065 -0.7077  0.9011
 5184TIP3   OH237042   0.665   1.762  13.073  0.0245  0.3615 -0.0190
 5184TIP3    H137043   0.715   1.796  12.999  0.4606 -2.1827 -1.0179
 5184TIP3    H237044   0.726   1.763  13.147  0.9379 -0.7801 -0.7217
 5185TIP3   OH237045   2.544   2.708  16.178  0.0835  0.4189 -0.1942
 5185TIP3    H137046   2.581   2.792  16.204 -1.4101  0.9184  0.4283
 5185TIP3    H237047   2.574   2.647  16.245 -1.3683  1.1179  1.1630
 5186TIP3   OH237048   4.285   0.986   2.657 -0.2189 -0.0956 -0.0182
 5186TIP3    H137049   4.299   1.073   2.695  1.8153 -0.4420  0.1401
 5186TIP3    H237050   4.218   1.000   2.590  0.6733  1.7791 -0.6032
 5187TIP3   OH237051   6.748   0.836   3.855 -0.0102  0.0653 -0.2097
 5187TIP3    H137052   6.813   0.766   3.853 -0.7812 -0.6718 -1.8067
 5187TIP3    H237053   6.665   0.792   3.838 -0.5541  1.3192 -0.9554
 5188TIP3   OH237054   5.676   5.918   2.657 -0.0357  0.5073  0.1302
 5188TIP3    H137055   5.665   5.916   2.562 -0.2661 -0.2061  0.1645
 5188TIP3    H237056   5.770   5.912   2.670 -0.1261 -2.8419 -0.0234
 5189TIP3   OH237057   3.282   3.200   5.394  0.0228  0.4451 -0.1967
 5189TIP3    H137058   3.194   3.166   5.408 -0.0025 -0.1077 -1.5337
 5189TIP3    H237059   3.339   3.123   5.398  0.5441  0.8686  1.2309
 5190TIP3   OH237060   0.141   0.033  16.028  0.3754  0.6999 -0.2016
 5190TIP3    H137061   0.070   0.095  16.016 -1.0518 -1.1116 -1.8084
 5190TIP3    H237062   0.129   0.000  16.117 -1.5427 -0.3081 -0.7512
 5191TIP3   OH237063   3.653   3.077   5.169  0.3200 -0.0830  0.1401
 5191TIP3    H137064   3.619   3.018   5.236  2.1446 -1.1856  0.1807
 5191TIP3    H237065   3.704   3.020   5.111 -2.9739  0.3885 -3.5972
 5192TIP3   OH237066   4.452   6.105  16.317  0.2977  0.5877 -0.3070
 5192TIP3    H137067   4.461   6.058  16.234 -1.0682 -1.4072  0.5859
 5192TIP3    H237068   4.495   6.189  16.302 -0.4284  0.5401 -3.2223
 5193TIP3   OH237069   6.550   6.301   5.809 -0.3808 -0.3676 -0.1182
 5193TIP3    H137070   6.485   6.233   5.790  0.5570 -1.5506  0.7254
 5193TIP3    H237071   6.623   6.253   5.848  2.8362  0.1453 -4.6655
 5194TIP3   OH237072   1.904   3.433  14.351  0.3682 -0.0834 -0.0391
 5194TIP3    H137073   1.942   3.453  14.265  2.3954 -1.5177  0.4638
 5194TIP3    H237074   1.979   3.414  14.407 -0.9940 -0.8824  1.6081
 5195TIP3   OH237075   3.951   4.243  14.214 -0.0807  0.1756  0.2630
 5195TIP3    H137076   3.944   4.268  14.306  0.5712 -0.0208  0.3762
 5195TIP3    H237077   4.040   4.269  14.189  0.2777 -1.1273  0.1096
 5196TIP3   OH237078   5.303   6.494   2.213  0.2076 -0.0686 -0.0789
 5196TIP3    H137079   5.379   6.512   2.157  0.8929 -0.2470  0.7788
 5196TIP3    H237080   5.264   6.580   2.229 -0.3334 -0.0714 -1.2813
 5197TIP3   OH237081   1.514   2.246  12.523 -0.0557  0.0337 -0.1501
 5197TIP3    H137082   1.522   2.341  12.528  1.0389 -0.0114 -0.5925
 5197TIP3    H237083   1.427   2.230  12.487 -0.6843  0.8305  1.0036
 5198TIP3   OH237084   3.980   4.593   0.791  0.2086  0.5463 -0.2866
 5198TIP3    H137085   3.971   4.500   0.811  0.7097  0.6742  0.6007
 5198TIP3    H237086   3.972   4.598   0.695  1.7738 -0.6155 -0.5202
 5199TIP3   OH237087   4.067   3.642   5.085  0.5190  0.3115 -0.0124
 5199TIP3    H137088   4.098   3.732   5.091 -0.1753  0.6028 -0.6477
 5199TIP3    H237089   3.981   3.644   5.127 -0.7478  0.5870 -2.4523
 5200TIP3   OH237090   4.258   0.860  10.928  0.0345 -0.2936  0.1112
 5200TIP3    H137091   4.288   0.774  10.898  3.2310  1.1798 -1.3547
 5200TIP3    H237092   4.191   0.886  10.864  0.3732 -0.9117 -0.5070
 5201TIP3   OH237093   0.957   3.770  13.555  0.0596 -0.3472 -0.2402
 5201TIP3    H137094   0.906   3.700  13.596 -1.5816  0.2125 -1.2479
 5201TIP3    H237095   1.006   3.809  13.627  1.4756 -2.8481  0.2969
 5202TIP3   OH237096   4.412   2.801  12.382 -0.6454  0.0878 -0.7539
 5202TIP3    H137097   4.405   2.895  12.396  0.1964  0.2561 -1.3530
 5202TIP3    H237098   4.425   2.792  12.288 -1.0928 -0.6564 -0.7523
 5203TIP3   OH237099   4.601   3.811  12.473  0.0545  0.0159  0.7977
 5203TIP3    H137100   4.524   3.842  12.426  0.1253 -1.1585 -0.1397
 5203TIP3    H237101   4.604   3.865  12.552 -1.1851  0.7101  0.3989
 5204TIP3   OH237102   2.205   0.270   2.363 -0.0115 -0.2800 -0.8465
 5204TIP3    H137103   2.148   0.288   2.438 -1.1096  0.0257 -1.7396
 5204TIP3    H237104   2.276   0.217   2.400  0.9585  2.0757  0.9985
 5205TIP3   OH237105   5.894   2.013  10.950  0.0615  0.0879 -0.8960
 5205TIP3    H137106   5.815   2.039  10.903  2.2907  1.8587 -4.0271
 5205TIP3    H237107   5.943   1.960  10.888  1.3095 -1.2203  1.0644
 5206TIP3   OH237108   5.491   2.901  14.546 -0.6773 -0.5746 -0.1034
 5206TIP3    H137109   5.559   2.899  14.478 -2.2181  0.6218 -1.7608
 5206TIP3    H237110   5.508   2.823  14.599  4.1115  1.3393  1.7938
 5207TIP3   OH237111   1.074   2.484  14.870 -0.0309  0.3564 -0.0784
 5207TIP3    H137112   0.979   2.499  14.869 -0.0554  0.4525  1.4737
 5207TIP3    H237113   1.112   2.571  14.858 -0.1725  0.7139  1.7581
 5208TIP3   OH237114   5.990   0.414  15.349  0.1656  1.0796 -0.1255
 5208TIP3    H137115   6.019   0.474  15.418  1.0526 -0.7707  1.1705
 5208TIP3    H237116   5.896   0.428  15.343  0.0677  1.3009  1.4676
 5209TIP3   OH237117   0.153   0.552   3.166  0.4238 -0.3288 -0.0588
 5209TIP3    H137118   0.094   0.585   3.233  0.8355 -0.0260  0.1588
 5209TIP3    H237119   0.114   0.579   3.083 -0.3323 -1.1093  0.0350
 5210TIP3   OH237120   1.927   0.499   1.934 -0.6781  0.2703 -0.4739
 5210TIP3    H137121   1.969   0.419   1.903 -2.0804 -0.2265 -1.1862
 5210TIP3    H237122   1.991   0.568   1.918  0.4707 -0.6737 -0.0394
 5211TIP3   OH237123   2.415   0.672  12.649 -0.0478 -0.2278  0.6618
 5211TIP3    H137124   2.488   0.662  12.710  0.9100 -0.9909 -0.5617
 5211TIP3    H237125   2.453   0.656  12.563 -1.1884  1.6112 -0.2477
 5212TIP3   OH237126   4.107   4.250   0.335 -0.2750  0.6507 -0.3475
 5212TIP3    H137127   4.189   4.289   0.307 -0.5121  1.4242  0.0110
 5212TIP3    H237128   4.100   4.169   0.284  1.1930  0.0454  0.3451
 5213TIP3   OH237129   4.527   1.205   1.253  0.1234  0.1187 -0.1979
 5213TIP3    H137130   4.438   1.171   1.250  0.9786 -2.2786 -0.4561
 5213TIP3    H237131   4.579   1.136   1.294  1.6653  2.0360  1.3034
 5214TIP3   OH237132   3.859   4.731  10.415 -0.0206  0.1489  0.1124
 5214TIP3    H137133   3.803   4.720  10.338  0.6595 -2.7998 -0.0935
 5214TIP3    H237134   3.906   4.812  10.399 -1.8735  1.0263 -1.2410
 5215TIP3   OH237135   5.465   0.794   0.365 -0.2382 -0.3962  0.3377
 5215TIP3    H137136   5.373   0.783   0.389 -0.1831 -0.1887  0.6393
 5215TIP3    H237137   5.481   0.723   0.302 -1.4129  1.3107 -2.0484
 5216TIP3   OH237138   5.300   0.208   3.433 -0.5372  0.2237 -0.3107
 5216TIP3    H137139   5.349   0.269   3.488  3.2557 -2.3084 -0.4802
 5216TIP3    H237140   5.362   0.183   3.365 -2.6931 -2.0214 -1.6009
 5217TIP3   OH237141   6.151   6.606   4.382 -0.5138 -0.3209 -0.1861
 5217TIP3    H137142   6.183   6.623   4.471  0.6524 -1.3537 -0.3753
 5217TIP3    H237143   6.113   6.518   4.386  1.1312 -1.1245 -1.0656
 5218TIP3   OH237144   5.852   3.594  13.415 -0.2115  0.0701  0.0544
 5218TIP3    H137145   5.932   3.635  13.448 -0.8008  0.4982  1.0128
 5218TIP3    H237146   5.795   3.668  13.392 -0.5945 -0.2238  0.0503
 5219TIP3   OH237147   2.652   6.424  14.590 -0.7113 -0.5962  0.1169
 5219TIP3    H137148   2.612   6.338  14.605 -1.4461 -0.2413  0.2702
 5219TIP3    H237149   2.657   6.463  14.677 -2.0406  0.2109 -0.1324
 5220TIP3   OH237150   3.815   3.217  10.936  0.4555  0.2380 -0.4027
 5220TIP3    H137151   3.905   3.249  10.942  0.9276 -1.1141  0.0272
 5220TIP3    H237152   3.811   3.145  10.998 -0.2860 -1.1642 -1.9919
 5221TIP3   OH237153   0.731   4.195  16.180  0.4087  0.5128 -0.0289
 5221TIP3    H137154   0.771   4.112  16.156  0.0593  0.0690  0.8797
 5221TIP3    H237155   0.674   4.174  16.254 -0.1914  1.4398 -0.2032
 5222TIP3   OH237156   3.551   5.275  16.111  0.1524  0.4931  0.3207
 5222TIP3    H137157   3.476   5.334  16.119 -0.9872 -0.6540 -1.3960
 5222TIP3    H237158   3.616   5.326  16.063 -1.0748  0.2128 -1.7571
 5223TIP3   OH237159   5.355   2.330   1.629 -0.7199  0.1727  0.5039
 5223TIP3    H137160   5.363   2.302   1.721  0.2245  1.2493  0.7725
 5223TIP3    H237161   5.277   2.284   1.597 -1.2551  0.0117  1.9347
 5224TIP3   OH237162   1.605   4.898   3.268  0.6961  0.2052 -0.3042
 5224TIP3    H137163   1.646   4.832   3.324 -0.5844  0.7345  1.3416
 5224TIP3    H237164   1.512   4.892   3.288  0.6457  3.6512  1.3220
 5225TIP3   OH237165   5.365   3.542   5.723 -0.6894  1.2943 -0.1983
 5225TIP3    H137166   5.279   3.516   5.692 -0.6973  2.3044 -1.0881
 5225TIP3    H237167   5.357   3.636   5.742  0.2398  1.4379 -0.4526
 5226TIP3   OH237168   6.046   0.549  11.773  0.1917 -1.1365  0.3260
 5226TIP3    H137169   6.090   0.472  11.810  0.0278 -0.8002  1.2279
 5226TIP3    H237170   5.953   0.535  11.792 -0.1699 -1.8913 -1.6543
 5227TIP3   OH237171   2.721   4.006  14.329  0.1861 -0.0840 -0.3971
 5227TIP3    H137172   2.711   4.100  14.313 -0.9539 -0.2551 -0.8143
 5227TIP3    H237173   2.666   3.989  14.405  2.2215 -0.0366  1.1529
 5228TIP3   OH237174   3.615   5.859  11.773 -0.1103  0.5140 -0.3662
 5228TIP3    H137175   3.546   5.796  11.791 -1.3234  1.9120  0.0491
 5228TIP3    H237176   3.682   5.841  11.839 -2.1013  2.0253  2.2406
 5229TIP3   OH237177   0.669   6.765  14.170 -0.8342 -0.5844  0.1834
 5229TIP3    H137178   0.763   6.748  14.174 -0.4082  1.6071  0.4824
 5229TIP3    H237179   0.636   6.733  14.254 -0.1740 -0.4396  0.5086
 5230TIP3   OH237180   3.249   0.842   1.962  0.3857 -0.2416 -0.7164
 5230TIP3    H137181   3.284   0.852   2.050  0.8199  0.3250 -0.9466
 5230TIP3    H237182   3.313   0.886   1.906  0.6598 -1.4872 -1.4269
 5231TIP3   OH237183   1.815   1.118  16.945  0.5752 -0.3210 -0.0935
 5231TIP3    H137184   1.812   1.033  16.987 -1.6547  0.3573  1.3102
 5231TIP3    H237185   1.902   1.152  16.965  0.3914 -0.9756  2.1484
 5232TIP3   OH237186   0.400   1.864  14.611 -0.2027 -0.7891  0.2317
 5232TIP3    H137187   0.463   1.851  14.540 -0.2878 -0.3885  0.0812
 5232TIP3    H237188   0.350   1.941  14.585 -1.5653 -1.7870 -0.2356
 5233TIP3   OH237189   2.714   0.907  14.770 -0.8156 -0.0995 -0.1928
 5233TIP3    H137190   2.655   0.834  14.755 -3.0163  1.2069  1.3618
 5233TIP3    H237191   2.730   0.906  14.865  0.3445  0.5321 -0.3631
 5234TIP3   OH237192   2.828   2.718  16.039 -0.6854  0.1606  0.2758
 5234TIP3    H137193   2.772   2.788  16.073 -1.4140 -0.4650  0.3766
 5234TIP3    H237194   2.768   2.657  15.997  0.1793  1.0029 -2.3727
 5235TIP3   OH237195   4.726   1.641   2.709  0.6612 -0.7607 -0.7463
 5235TIP3    H137196   4.785   1.566   2.720  0.1551 -1.0796 -0.2109
 5235TIP3    H237197   4.700   1.665   2.797  0.0036 -0.6036 -0.9789
 5236TIP3   OH237198   2.413   2.094   4.388 -0.0865  0.2599 -0.1286
 5236TIP3    H137199   2.484   2.032   4.402 -0.1010 -0.3801 -2.4165
 5236TIP3    H237200   2.424   2.123   4.297 -3.0665 -0.3423 -0.8131
 5237TIP3   OH237201   6.343   6.269  11.821  0.1371  0.3181  0.0083
 5237TIP3    H137202   6.433   6.245  11.844 -0.1634 -1.8179 -0.7792
 5237TIP3    H237203   6.353   6.344  11.762  1.5851 -0.9970 -1.5584
 5238TIP3   OH237204   5.278   3.450  11.590 -0.1644 -0.5329  0.5026
 5238TIP3    H137205   5.338   3.484  11.524  0.5283  0.8121  1.7582
 5238TIP3    H237206   5.322   3.371  11.623 -1.0505 -1.8581 -1.3679
 5239TIP3   OH237207   6.253   0.821  14.158 -1.0654  0.4903  0.7119
 5239TIP3    H137208   6.262   0.793  14.249 -1.0025  0.2705  0.6387
 5239TIP3    H237209   6.231   0.741  14.110 -3.3745  0.9621  0.8625
 5240TIP3   OH237210   3.819   5.290   0.518  0.0093 -0.4264  0.0278
 5240TIP3    H137211   3.856   5.306   0.605 -0.8417  0.2437  0.2791
 5240TIP3    H237212   3.847   5.201   0.496 -0.2436 -0.8227  1.2225
 5241TIP3   OH237213   3.719   5.791   5.717  0.1998 -0.1042 -0.7681
 5241TIP3    H137214   3.663   5.777   5.641  1.4741 -1.7956 -1.4568
 5241TIP3    H237215   3.797   5.833   5.682  1.5717 -2.4863 -0.7948
 5242TIP3   OH237216   2.250   2.199   1.523 -0.3321 -0.1426  0.9043
 5242TIP3    H137217   2.188   2.268   1.545  0.5213  0.1022  2.8033
 5242TIP3    H237218   2.277   2.163   1.608  2.4884  0.1271  0.2306
 5243TIP3   OH237219   0.919   6.333  11.527  0.2284 -0.2718  0.0423
 5243TIP3    H137220   0.865   6.367  11.456 -1.7667 -0.3216  1.4452
 5243TIP3    H237221   0.966   6.259  11.488 -0.8087 -0.3033 -1.2290
 5244TIP3   OH237222   2.122   4.084   5.378  0.0458 -0.6883  0.5599
 5244TIP3    H137223   2.128   4.168   5.424 -1.6721 -0.0210 -0.3539
 5244TIP3    H237224   2.058   4.033   5.428 -2.4892  0.3543 -1.3804
 5245TIP3   OH237225   1.155   4.729   5.424 -0.5667 -0.2728  0.0452
 5245TIP3    H137226   1.219   4.777   5.477 -0.5358 -0.3019  0.0336
 5245TIP3    H237227   1.107   4.798   5.378 -0.5904 -0.2480  0.1070
 5246TIP3   OH237228   5.179   6.680   0.205 -0.8316 -0.1271 -0.2567
 5246TIP3    H137229   5.184   6.695   0.111  0.0964  0.8191 -0.0688
 5246TIP3    H237230   5.096   6.720   0.231  0.0774  1.8925 -0.2950
 5247TIP3   OH237231   0.238   4.259  14.721  0.1005  0.0870  0.0532
 5247TIP3    H137232   0.255   4.322  14.651  1.7645  0.7045  0.9594
 5247TIP3    H237233   0.147   4.276  14.747  0.5707  2.3150  0.4542
 5248TIP3   OH237234   6.238   2.472  14.369 -0.1722 -0.4920 -0.2644
 5248TIP3    H137235   6.278   2.508  14.290 -1.0190 -0.8704 -0.8724
 5248TIP3    H237236   6.148   2.452  14.344 -0.9441  0.8393  1.2102
 5249TIP3   OH237237   3.498   2.452   4.244 -0.2809 -0.2611  0.2946
 5249TIP3    H137238   3.408   2.432   4.217 -0.1678 -1.7183  0.8867
 5249TIP3    H237239   3.538   2.493   4.166 -2.1367  2.8718  0.8252
 5250TIP3   OH237240   2.874   4.186  15.744 -0.3152 -0.0789 -0.3605
 5250TIP3    H137241   2.844   4.269  15.707  0.1278  1.2030  1.9603
 5250TIP3    H237242   2.815   4.121  15.706 -0.3468  1.1650 -2.6512
 5251TIP3   OH237243   6.468   6.264  13.401 -0.2574  0.4208 -0.3617
 5251TIP3    H137244   6.526   6.214  13.344  0.1674 -1.3392  1.4638
 5251TIP3    H237245   6.385   6.266  13.355  0.0650 -0.9636 -1.0702
 5252TIP3   OH237246   5.684   1.163  15.675  0.1345  0.6905 -0.2723
 5252TIP3    H137247   5.601   1.198  15.707 -0.5400 -0.4443 -0.7339
 5252TIP3    H237248   5.747   1.185  15.744 -0.5556  1.4850  0.1232
 5253TIP3   OH237249   6.553   5.238  16.156  0.4412  0.4160 -0.2617
 5253TIP3    H137250   6.625   5.202  16.208 -0.3678 -0.0334  0.5706
 5253TIP3    H237251   6.527   5.166  16.099 -0.6171 -0.0749  0.8077
 5254TIP3   OH237252   3.184   0.224   5.630 -0.3594 -0.7994 -0.1901
 5254TIP3    H137253   3.204   0.196   5.720 -1.5997 -1.6090 -0.1510
 5254TIP3    H237254   3.111   0.169   5.603 -1.8201  1.2720 -0.7250
 5255TIP3   OH237255   0.782   2.503  11.974  0.4094 -0.2756  0.3351
 5255TIP3    H137256   0.699   2.543  11.948  0.6883 -0.5031 -0.9565
 5255TIP3    H237257   0.839   2.577  11.992 -0.5576 -0.0754  3.0644
 5256TIP3   OH237258   0.849   2.628  15.021 -0.2887 -0.0074  0.5884
 5256TIP3    H137259   0.805   2.617  15.105  1.0924 -0.4550  1.2836
 5256TIP3    H237260   0.784   2.672  14.966 -2.0101 -1.6611  1.1735
 5257TIP3   OH237261   2.482   4.978   1.371 -0.5219 -0.7941  1.0206
 5257TIP3    H137262   2.566   4.942   1.343 -0.5007  0.5740 -0.7885
 5257TIP3    H237263   2.504   5.059   1.416 -0.8788  0.0276 -0.2328
 5258TIP3   OH237264   2.033   0.478   0.566 -0.3792 -0.1672  0.1719
 5258TIP3    H137265   2.105   0.535   0.591  0.5339 -2.1102  2.3216
 5258TIP3    H237266   1.961   0.502   0.624 -0.1264 -0.8437  0.7911
 5259TIP3   OH237267   3.386   4.209  13.361 -0.0819  0.0853 -0.5715
 5259TIP3    H137268   3.329   4.205  13.438 -0.5919 -0.9707 -0.9834
 5259TIP3    H237269   3.474   4.198  13.395 -0.2420  0.3184 -0.0730
 5260TIP3   OH237270   5.240   5.393  13.232  0.0512 -0.0936  0.1779
 5260TIP3    H137271   5.258   5.423  13.143  1.5610  0.1402  0.5472
 5260TIP3    H237272   5.144   5.386  13.235 -0.1055  0.9636 -1.1128
 5261TIP3   OH237273   0.661   6.364   4.292  0.0506 -0.1059  0.6251
 5261TIP3    H137274   0.639   6.283   4.339  0.1991 -0.5693 -0.0754
 5261TIP3    H237275   0.672   6.336   4.201 -1.3572  0.9585  0.0868
 5262TIP3   OH237276   2.557   3.131  11.581  0.1650  0.4147  0.0211
 5262TIP3    H137277   2.587   3.066  11.646 -1.5526 -0.8585 -0.3962
 5262TIP3    H237278   2.483   3.174  11.623  0.5153  1.2538 -0.2056
 5263TIP3   OH237279   5.733   5.685   5.521  0.3262  0.6870  0.1221
 5263TIP3    H137280   5.733   5.781   5.523  1.4673  0.7985 -2.2377
 5263TIP3    H237281   5.826   5.661   5.519  0.0760 -0.5407  1.4955
 5264TIP3   OH237282   5.615   0.641   4.984 -0.2079 -0.4755  0.0755
 5264TIP3    H137283   5.598   0.548   4.999  1.1233 -0.2500  4.0476
 5264TIP3    H237284   5.528   0.680   4.976 -0.8748 -1.7720  0.5941
 5265TIP3   OH237285   3.923   2.082  12.587  0.7817  0.2533 -0.0641
 5265TIP3    H137286   3.874   2.000  12.583  1.0256  0.0173  1.3611
 5265TIP3    H237287   4.003   2.065  12.537 -0.1743  0.3904 -1.7201
 5266TIP3   OH237288   5.908   0.862  15.696  0.4388  0.1885 -0.3216
 5266TIP3    H137289   5.927   0.880  15.604 -1.3795  1.7634 -0.4546
 5266TIP3    H237290   5.813   0.868  15.702  0.6169  2.9758  2.1520
 5267TIP3   OH237291   2.090   3.783  16.908  0.2502  0.4551  0.5075
 5267TIP3    H137292   2.045   3.778  16.823  0.7596  1.2945  0.1758
 5267TIP3    H237293   2.024   3.819  16.967 -0.1455 -0.2472  0.5054
 5268TIP3   OH237294   1.262   0.739  12.360 -0.7739 -0.5190 -0.0519
 5268TIP3    H137295   1.167   0.728  12.348 -0.8731 -1.0296  1.0950
 5268TIP3    H237296   1.291   0.656  12.396 -0.1813  0.2438  1.2758
 5269TIP3   OH237297   3.059   2.031  15.436  0.1340 -0.3278  0.1343
 5269TIP3    H137298   3.145   2.059  15.404  0.1908 -0.9401 -0.2701
 5269TIP3    H237299   2.997   2.079  15.381  0.1903  0.6756  0.9067
 5270TIP3   OH237300   4.393   2.787   3.175  0.1009 -0.3115 -0.6091
 5270TIP3    H137301   4.396   2.855   3.242  0.6362 -2.1816  1.3887
 5270TIP3    H237302   4.482   2.784   3.139  0.8023 -1.5370  1.0783
 5271TIP3   OH237303   2.143   4.000  11.995 -0.0538  0.2603 -0.1853
 5271TIP3    H137304   2.198   4.024  11.920 -0.5406 -0.4783 -0.8091
 5271TIP3    H237305   2.087   3.929  11.961  0.4675 -0.8507  1.1899
 5272TIP3   OH237306   2.997   2.840   4.950 -0.2121  0.0682  0.0831
 5272TIP3    H137307   2.979   2.854   4.857  1.1795 -1.8949 -0.5385
 5272TIP3    H237308   3.041   2.920   4.978 -1.7133  1.1894 -0.5931
 5273TIP3   OH237309   1.433   5.867  15.375  0.0315  0.3159  0.5098
 5273TIP3    H137310   1.412   5.781  15.410  0.6835  0.7626  2.1050
 5273TIP3    H237311   1.397   5.929  15.439  1.4009  1.1665  0.5004
 5274TIP3   OH237312   1.970   6.387  14.659  0.3944 -0.1236 -0.2746
 5274TIP3    H137313   1.965   6.355  14.750  0.6069 -0.6306 -0.4370
 5274TIP3    H237314   1.884   6.425  14.642 -0.0146 -0.9929 -0.2128
 5275TIP3   OH237315   3.661   6.445  13.331  0.3559  0.7709  0.2871
 5275TIP3    H137316   3.746   6.402  13.329 -0.5123 -1.1365 -2.6287
 5275TIP3    H237317   3.677   6.533  13.297  1.5530  1.4976  2.5816
 5276TIP3   OH237318   0.279   2.808   6.248  0.8167  0.3099  0.5477
 5276TIP3    H137319   0.365   2.846   6.228  1.4591 -0.4355  1.7912
 5276TIP3    H237320   0.298   2.719   6.277 -0.4405 -0.0607  0.2812
 5277TIP3   OH237321   4.508   3.098  15.911  0.3303 -0.5854 -0.3067
 5277TIP3    H137322   4.510   3.029  15.978  0.7181 -1.3530 -1.1010
 5277TIP3    H237323   4.584   3.153  15.932 -0.6134  0.2847  1.0128
 5278TIP3   OH237324   0.877   6.490   4.990 -0.2412  0.0235 -0.3948
 5278TIP3    H137325   0.874   6.584   5.006 -0.3801  0.3375 -2.0839
 5278TIP3    H237326   0.813   6.453   5.051 -0.2942  1.0327  0.1787
 5279TIP3   OH237327   0.517   5.367   0.807  0.4411 -0.3193 -0.4759
 5279TIP3    H137328   0.576   5.438   0.779 -0.3422 -0.1256 -1.7072
 5279TIP3    H237329   0.442   5.412   0.844 -0.6399 -0.4083 -2.4184
 5280TIP3   OH237330   4.025   6.063  15.357 -0.2065 -0.0545 -0.2914
 5280TIP3    H137331   4.103   6.054  15.302 -0.2121  0.9121 -0.4627
 5280TIP3    H237332   4.049   6.128  15.423 -0.4080 -0.7552  0.4874
 5281TIP3   OH237333   1.337   6.227   6.374  0.2948 -0.2593  0.5529
 5281TIP3    H137334   1.269   6.197   6.435  0.1692 -0.6138  0.2489
 5281TIP3    H237335   1.383   6.296   6.420 -0.6687  0.4046  0.5335
 5282TIP3   OH237336   1.625   0.618  11.901 -0.3048  0.6320  0.2693
 5282TIP3    H137337   1.663   0.696  11.859 -0.3455 -0.0987 -1.1925
 5282TIP3    H237338   1.544   0.602  11.853  1.2364 -2.1295 -1.6976
 5283TIP3   OH237339   0.466   1.863  11.196  0.0761 -0.5413  0.2424
 5283TIP3    H137340   0.439   1.806  11.125  1.3039 -0.1031 -0.6115
 5283TIP3    H237341   0.542   1.818  11.235 -0.7128 -0.8919  1.4465
 5284TIP3   OH237342   3.282   3.394   4.264 -0.0283 -0.1870 -0.6394
 5284TIP3    H137343   3.357   3.404   4.323 -0.4295  0.7056 -0.2588
 5284TIP3    H237344   3.273   3.300   4.253  0.7315 -0.3308 -0.1499
 5285TIP3   OH237345   2.660   5.640  13.147 -0.6594 -0.4866 -0.1756
 5285TIP3    H137346   2.730   5.575  13.157  0.3698  0.5415 -0.5303
 5285TIP3    H237347   2.654   5.654  13.053 -1.0060 -0.1996 -0.1116
 5286TIP3   OH237348   3.961   6.854   3.035  0.6023  0.6606 -0.6531
 5286TIP3    H137349   3.947   6.934   3.085 -0.4046 -0.9041  1.7472
 5286TIP3    H237350   3.888   6.797   3.060  2.5102 -1.8431 -0.4532
 5287TIP3   OH237351   3.488   0.516   2.431 -0.5519 -0.0486  0.0107
 5287TIP3    H137352   3.561   0.454   2.439 -0.2565  0.4081  1.0266
 5287TIP3    H237353   3.474   0.525   2.337  1.4655  0.7325 -0.2525
 5288TIP3   OH237354   3.376   5.412   0.062  0.1321 -0.1421  0.0435
 5288TIP3    H137355   3.366   5.495   0.017  1.0367 -0.7960 -1.4135
 5288TIP3    H237356   3.462   5.380   0.036 -0.9200 -2.4049 -0.9233
 5289TIP3   OH237357   4.503   5.801   2.033 -0.4192  0.6910 -0.0831
 5289TIP3    H137358   4.496   5.893   2.058  1.3493  1.2299 -1.3895
 5289TIP3    H237359   4.549   5.802   1.949  0.5758 -1.4435  0.3715
 5290TIP3   OH237360   5.560   6.252  15.511 -0.7956  0.6283 -0.1610
 5290TIP3    H137361   5.573   6.179  15.451  0.4113  1.0051 -0.3811
 5290TIP3    H237362   5.465   6.253  15.527 -0.8025 -1.0824  0.0127
 5291TIP3   OH237363   6.772   1.656   3.823 -0.4406 -0.3688  0.0942
 5291TIP3    H137364   6.776   1.577   3.876 -0.7362 -1.1510 -1.0019
 5291TIP3    H237365   6.734   1.722   3.880 -0.8356 -1.2058  0.8154
 5292TIP3   OH237366   4.607   4.635   4.197 -0.3445 -0.4435 -0.1816
 5292TIP3    H137367   4.698   4.622   4.223 -0.1116  0.7053 -0.3726
 5292TIP3    H237368   4.563   4.662   4.278 -0.1726  0.5365 -0.4007
 5293TIP3   OH237369   3.771   3.531   0.963 -0.2792 -0.4675 -0.6240
 5293TIP3    H137370   3.722   3.605   1.000  0.8709 -0.4669  1.0125
 5293TIP3    H237371   3.765   3.463   1.031  0.8595 -0.9288 -0.9701
 5294TIP3   OH237372   6.491   5.873  15.069 -0.3486  0.0932 -0.0406
 5294TIP3    H137373   6.517   5.798  15.016  0.1797 -1.8907  2.7798
 5294TIP3    H237374   6.431   5.836  15.134  0.1587  2.0576  1.6323
 5295TIP3   OH237375   0.640   1.506   2.680  0.0025 -0.1064 -0.2541
 5295TIP3    H137376   0.591   1.531   2.759  1.6258 -0.2615  0.8561
 5295TIP3    H237377   0.698   1.580   2.664 -0.2016 -0.1503 -1.2187
 5296TIP3   OH237378   5.677   0.992  16.985  0.3756  0.1573 -0.1747
 5296TIP3    H137379   5.766   1.026  16.975 -0.1025  1.3104 -0.7797
 5296TIP3    H237380   5.622   1.056  16.939 -0.5978 -1.4168 -1.2850
 5297TIP3   OH237381   6.303   2.316  10.103 -0.1404  0.6511 -0.4346
 5297TIP3    H137382   6.377   2.260  10.130 -0.8419 -0.3053 -0.4350
 5297TIP3    H237383   6.227   2.278  10.148 -0.4699  2.2857  0.4456
 5298TIP3   OH237384   5.492   6.562   2.037 -0.4380  0.3375 -0.2266
 5298TIP3    H137385   5.465   6.515   1.958 -1.8229  0.2414  0.2837
 5298TIP3    H237386   5.587   6.546   2.043 -0.9574 -3.4632  0.5660
 5299TIP3   OH237387   6.303   3.672   4.946  0.3186 -0.2410  0.4841
 5299TIP3    H137388   6.334   3.623   5.022  1.3493 -0.3862 -0.0203
 5299TIP3    H237389   6.310   3.764   4.972 -0.7899 -0.3193  1.1125
 5300TIP3   OH237390   5.395   2.781   1.161 -0.0801 -0.1036 -0.1910
 5300TIP3    H137391   5.307   2.807   1.188 -0.1593  0.2021 -0.7439
 5300TIP3    H237392   5.451   2.809   1.233 -0.3608  0.1996 -0.0894
 5301TIP3   OH237393   1.869   6.590  11.815  0.0994  0.4926  0.0521
 5301TIP3    H137394   1.920   6.534  11.757 -0.3190  0.9849 -0.7998
 5301TIP3    H237395   1.931   6.617  11.883  1.3366  2.0363 -1.5983
 5302TIP3   OH237396   0.007   4.327  16.343  0.4405  0.7984  0.6741
 5302TIP3    H137397   0.099   4.348  16.363  0.7284  1.0122 -0.7926
 5302TIP3    H237398   0.001   4.334  16.248 -0.9875  0.2893  0.7093
 5303TIP3   OH237399   5.164   6.553   4.341  0.0299  0.2462  0.2066
 5303TIP3    H137400   5.135   6.628   4.392  1.3873  1.0445 -0.1401
 5303TIP3    H237401   5.098   6.486   4.358 -0.6473  1.1549  1.3654
 5304TIP3   OH237402   0.706   3.836  10.931 -0.3807  0.5530  0.0975
 5304TIP3    H137403   0.743   3.754  10.898 -0.0534  0.9170 -0.4608
 5304TIP3    H237404   0.782   3.895  10.939 -0.5991  0.7748  0.5810
 5305TIP3   OH237405   2.274   3.910  14.016 -0.8812  0.3233  0.5283
 5305TIP3    H137406   2.212   3.950  13.955  0.1756 -0.2931 -1.0177
 5305TIP3    H237407   2.283   3.820  13.986  1.3905  0.6098  0.1058
 5306TIP3   OH237408   1.555   1.560   5.001  0.1982 -0.6405 -0.0025
 5306TIP3    H137409   1.602   1.643   4.992 -0.2903 -0.4308 -0.8178
 5306TIP3    H237410   1.482   1.580   5.059 -1.8404  0.4320 -2.7042
 5307TIP3   OH237411   3.800   5.653   3.534  0.0244  0.3017 -0.6664
 5307TIP3    H137412   3.791   5.708   3.456  0.2373  1.2189 -0.0647
 5307TIP3    H237413   3.875   5.690   3.581 -0.3394  0.0117  0.1686
 5308TIP3   OH237414   2.013   0.895   5.697  0.2330  0.2379 -0.1074
 5308TIP3    H137415   2.109   0.887   5.705  0.1438  0.1967  1.0977
 5308TIP3    H237416   1.991   0.842   5.620  1.2456  0.7858 -0.8060
 5309TIP3   OH237417   5.038   2.874  15.710 -0.5207  0.2020  0.2718
 5309TIP3    H137418   5.094   2.845  15.638 -1.1559  0.8522 -0.5098
 5309TIP3    H237419   5.067   2.822  15.785 -0.5489 -1.2767 -0.6871
 5310TIP3   OH237420   3.599   0.189  16.299 -0.2472  0.4513  0.3987
 5310TIP3    H137421   3.544   0.261  16.328  1.1078  1.6806  0.0346
 5310TIP3    H237422   3.611   0.204  16.205  0.7021  0.2080  0.4713
 5311TIP3   OH237423   6.695   2.668   0.614 -0.3305  0.4496  0.0280
 5311TIP3    H137424   6.787   2.656   0.589 -0.1026  1.2461  0.4496
 5311TIP3    H237425   6.662   2.733   0.552 -1.3940 -1.7514 -1.8702
 5312TIP3   OH237426   0.876   3.534  13.225 -0.2511 -0.0292 -0.0105
 5312TIP3    H137427   0.936   3.547  13.298 -2.0603 -0.7949  1.6980
 5312TIP3    H237428   0.897   3.447  13.192 -0.8682 -0.5866  1.0368
 5313TIP3   OH237429   5.422   5.779   4.199 -0.2981 -0.0832 -0.3106
 5313TIP3    H137430   5.503   5.794   4.151 -0.4756 -0.0928 -0.6161
 5313TIP3    H237431   5.397   5.865   4.233 -0.4234  0.0114 -0.6391
 5314TIP3   OH237432   1.527   0.611  11.461 -0.4940 -0.2064 -0.5503
 5314TIP3    H137433   1.608   0.659  11.440 -0.6431  0.0837 -0.4698
 5314TIP3    H237434   1.520   0.546  11.391 -1.4792  1.3572 -1.9892
 5315TIP3   OH237435   1.822   2.197  12.053 -0.1757  0.6929 -0.4415
 5315TIP3    H137436   1.746   2.143  12.031 -0.1549 -0.4156  1.8683
 5315TIP3    H237437   1.785   2.277  12.088 -0.2709  0.5502 -0.2138
 5316TIP3   OH237438   5.598   0.324  15.853  0.2555  0.1159  0.4488
 5316TIP3    H137439   5.544   0.403  15.844 -0.2114 -0.2372  0.1195
 5316TIP3    H237440   5.598   0.285  15.766  1.1555  0.1784  0.4143
 5317TIP3   OH237441   4.420   3.913  12.300 -0.5217  0.0634 -0.1192
 5317TIP3    H137442   4.433   3.933  12.207  0.0490  1.1802  0.1828
 5317TIP3    H237443   4.360   3.981  12.331  0.6468  0.7521  0.7035
 5318TIP3   OH237444   4.054   3.779  16.669  0.4078 -0.1276  0.4846
 5318TIP3    H137445   4.147   3.756  16.673 -0.1888 -3.0447  0.0077
 5318TIP3    H237446   4.047   3.842  16.598  2.0848  0.7397  1.0378
 5319TIP3   OH237447   1.999   4.494  12.925  0.6155 -0.1403  0.0739
 5319TIP3    H137448   1.982   4.404  12.953 -0.0261  0.2764  1.0692
 5319TIP3    H237449   2.056   4.530  12.993 -0.5131  0.7160  0.6101
 5320TIP3   OH237450   0.289   3.811  15.182  0.2696 -0.1153 -0.8431
 5320TIP3    H137451   0.384   3.803  15.179  0.4750  0.9153  1.0692
 5320TIP3    H237452   0.260   3.733  15.228  0.2503 -0.1197 -0.8628
 5321TIP3   OH237453   2.444   6.182  15.895 -0.2813 -0.0421  0.3324
 5321TIP3    H137454   2.450   6.087  15.894  1.6978  0.0547  0.1488
 5321TIP3    H237455   2.408   6.205  15.809  1.1839 -0.5607 -0.4621
 5322TIP3   OH237456   5.949   6.027   2.640  0.2180 -0.6879 -0.6533
 5322TIP3    H137457   5.984   5.972   2.570  3.9844 -0.5390  0.8568
 5322TIP3    H237458   5.986   5.990   2.720 -1.4174  0.9574  0.9552
 5323TIP3   OH237459   2.286   4.056   0.216  0.0796 -0.3176 -0.6123
 5323TIP3    H137460   2.209   4.001   0.231 -0.2260 -0.1850 -1.6535
 5323TIP3    H237461   2.349   4.027   0.283 -1.3480  0.5423  1.1934
 5324TIP3   OH237462   2.580   1.587   1.767 -0.2096  0.5140 -0.3004
 5324TIP3    H137463   2.521   1.632   1.707 -0.7890  0.3411  0.1387
 5324TIP3    H237464   2.545   1.498   1.773 -0.0010  0.4563  0.0958
 5325TIP3   OH237465   0.182   2.830  16.821 -0.0184 -0.1607  0.0233
 5325TIP3    H137466   0.217   2.741  16.818  0.4634  0.0551 -1.5045
 5325TIP3    H237467   0.097   2.821  16.865  1.3813 -0.8633  2.8155
 5326TIP3   OH237468   3.290   3.459  13.347  0.6976 -0.4467 -0.2977
 5326TIP3    H137469   3.384   3.474  13.353  0.8239 -1.1490 -0.3459
 5326TIP3    H237470   3.283   3.368  13.316  0.0046 -0.8076  0.8466
 5327TIP3   OH237471   1.394   0.391   3.351 -0.8752  0.5414 -0.3483
 5327TIP3    H137472   1.324   0.332   3.325  1.2794 -1.3123 -2.3378
 5327TIP3    H237473   1.367   0.477   3.317 -3.9798  0.8891  2.4769
 5328TIP3   OH237474   6.082   6.699  15.415  0.3282 -0.7223 -0.1776
 5328TIP3    H137475   6.053   6.716  15.505  0.7420 -1.2563  0.0669
 5328TIP3    H237476   6.161   6.751  15.404 -0.0093 -0.2524 -0.4141
 5329TIP3   OH237477   6.578   1.661  10.832  0.2862 -0.3089  0.4384
 5329TIP3    H137478   6.529   1.706  10.764  3.6834  0.8795 -1.4527
 5329TIP3    H237479   6.582   1.723  10.905 -0.0427  0.0388  0.1626
 5330TIP3   OH237480   0.830   3.466   3.025  0.1018 -0.0903 -0.5478
 5330TIP3    H137481   0.907   3.409   3.028 -0.7864 -1.4461 -1.9738
 5330TIP3    H237482   0.771   3.429   3.092 -0.0626 -0.2248 -0.7657
 5331TIP3   OH237483   5.213   0.328  11.183 -0.1715  0.7025  0.1490
 5331TIP3    H137484   5.278   0.307  11.250 -0.4600 -1.3422 -0.1451
 5331TIP3    H237485   5.166   0.245  11.168  0.9905  0.5514 -3.7433
 5332TIP3   OH237486   0.278   5.960   1.628 -0.1738  0.7456 -0.2015
 5332TIP3    H137487   0.192   5.995   1.603  0.2141  1.9637  0.1318
 5332TIP3    H237488   0.275   5.869   1.598 -1.7824  0.5994  0.2924
 5333TIP3   OH237489   4.211   1.610  15.088 -0.1365 -0.1598 -0.0678
 5333TIP3    H137490   4.282   1.610  15.024 -0.0742  0.5201 -0.0036
 5333TIP3    H237491   4.172   1.523  15.080 -1.0380  0.3671 -2.0444
 5334TIP3   OH237492   2.368   0.576   1.944  0.1638  0.4170 -0.1976
 5334TIP3    H137493   2.444   0.524   1.972  0.2389  0.5459 -0.1606
 5334TIP3    H237494   2.318   0.517   1.889 -0.7409 -0.3206  1.3406
 5335TIP3   OH237495   1.436   0.823   0.841 -0.0208 -0.3091 -0.0254
 5335TIP3    H137496   1.354   0.872   0.840  1.7392  2.9252 -0.0979
 5335TIP3    H237497   1.443   0.789   0.930 -0.7003  0.7132  0.4348
 5336TIP3   OH237498   3.043   4.035   2.827 -0.2866  0.1591  0.2753
 5336TIP3    H137499   3.015   3.952   2.787 -2.6052  0.2446  1.5689
 5336TIP3    H237500   3.070   4.089   2.752  0.8208 -1.5452 -0.6394
 5337TIP3   OH237501   2.116   2.228   3.540 -0.4193  0.0932  0.0485
 5337TIP3    H137502   2.025   2.258   3.538 -0.8299 -1.1115 -1.7716
 5337TIP3    H237503   2.142   2.237   3.632 -1.2766  3.5203  0.0864
 5338TIP3   OH237504   3.185   3.568   5.288  0.5004  0.0215 -0.4915
 5338TIP3    H137505   3.128   3.628   5.241  0.8205 -0.5266 -1.6045
 5338TIP3    H237506   3.271   3.611   5.286  0.2205  0.7051  0.9243
 5339TIP3   OH237507   5.026   4.480  12.711 -0.1258  0.0900 -0.1677
 5339TIP3    H137508   5.003   4.545  12.644 -0.9655  0.3480  0.3448
 5339TIP3    H237509   5.088   4.526  12.768  1.9535 -0.6924 -1.7053
 5340TIP3   OH237510   4.309   5.218  16.820  0.0657  0.0408 -0.2917
 5340TIP3    H137511   4.349   5.260  16.896  0.2457 -1.1486  0.2866
 5340TIP3    H237512   4.376   5.227  16.751  0.5666 -0.2880  0.1453
 5341TIP3   OH237513   5.507   3.912   0.344  0.3511  0.4326  0.3291
 5341TIP3    H137514   5.413   3.895   0.344  0.2930  0.7320 -0.1298
 5341TIP3    H237515   5.525   3.956   0.427  0.5059 -1.8319  1.5767
 5342TIP3   OH237516   3.688   1.477  10.868 -0.1169  0.6808  0.1192
 5342TIP3    H137517   3.672   1.570  10.881 -0.3293  0.5240  1.1185
 5342TIP3    H237518   3.689   1.441  10.957  0.2356 -0.2231 -0.2392
 5343TIP3   OH237519   4.483   5.270   1.124 -0.1231  0.0807  0.3475
 5343TIP3    H137520   4.533   5.200   1.081 -0.8385 -0.3873  0.2512
 5343TIP3    H237521   4.545   5.311   1.183  0.4201 -0.3796  0.1047
 5344TIP3   OH237522   4.910   1.386   5.207 -0.8365 -0.7598  0.6287
 5344TIP3    H137523   4.871   1.341   5.282 -1.9707 -1.3636 -0.2916
 5344TIP3    H237524   4.888   1.478   5.221 -0.1333 -0.7152  1.5574
 5345TIP3   OH237525   1.838   3.661  15.054  0.8478 -0.3236 -0.1884
 5345TIP3    H137526   1.915   3.638  15.003  0.3138 -1.0535 -0.6968
 5345TIP3    H237527   1.766   3.613  15.012  0.2671 -0.3566  0.7893
 5346TIP3   OH237528   5.168   2.684   5.627 -0.1056  0.2957 -0.4727
 5346TIP3    H137529   5.076   2.661   5.612 -0.6968  0.6276  2.1443
 5346TIP3    H237530   5.164   2.754   5.692  2.0159  0.4436 -0.4549
 5347TIP3   OH237531   1.409   1.500  15.246 -0.1134 -0.1395 -0.4074
 5347TIP3    H137532   1.466   1.519  15.320 -0.7656  1.6299 -0.3049
 5347TIP3    H237533   1.335   1.453  15.284  1.3461 -2.7666 -0.5956
 5348TIP3   OH237534   5.318   3.647   0.697 -0.0378 -0.3837  0.1010
 5348TIP3    H137535   5.342   3.558   0.725  2.0388  0.1426  0.1849
 5348TIP3    H237536   5.385   3.703   0.737 -1.8853  1.3720  0.9053
 5349TIP3   OH237537   0.707   3.375   2.520  0.2326  0.0295 -0.2127
 5349TIP3    H137538   0.727   3.430   2.595  0.0429 -0.4128  0.1643
 5349TIP3    H237539   0.752   3.292   2.538 -1.4541 -0.8038  0.4010
 5350TIP3   OH237540   1.713   6.835  11.946 -0.1147 -0.3548 -0.3226
 5350TIP3    H137541   1.628   6.794  11.961 -0.0029 -0.1702  0.9160
 5350TIP3    H237542   1.695   6.908  11.886 -0.5177 -1.3905 -1.5223
 5351TIP3   OH237543   6.686   4.508  11.145  0.3927 -0.4770 -0.3515
 5351TIP3    H137544   6.693   4.419  11.179 -0.4615 -1.1419 -1.8320
 5351TIP3    H237545   6.620   4.502  11.076 -2.4259  1.9968  1.8298
 5352TIP3   OH237546   1.118   6.392  11.087 -0.3248 -0.1647 -0.2049
 5352TIP3    H137547   1.181   6.336  11.132  1.3846 -0.4116 -2.7127
 5352TIP3    H237548   1.033   6.355  11.110  0.0577  1.3814  4.9449
 5353TIP3   OH237549   2.078   3.766   2.891 -0.0122 -0.7922  0.2485
 5353TIP3    H137550   2.112   3.696   2.948  0.2218  1.0215  2.4745
 5353TIP3    H237551   2.095   3.847   2.939 -0.4985  0.8264 -2.1246
 5354TIP3   OH237552   1.948   2.175  14.829  0.4428 -0.0561  0.1130
 5354TIP3    H137553   1.995   2.166  14.746  1.0179 -0.6387  0.4931
 5354TIP3    H237554   2.015   2.202  14.891  0.5088 -1.8424  0.8779
 5355TIP3   OH237555   1.679   3.427  15.490 -0.2894 -0.2681  0.3529
 5355TIP3    H137556   1.607   3.363  15.489 -0.6998  0.1299 -1.7212
 5355TIP3    H237557   1.663   3.480  15.412  1.9641  0.2013  0.1691
 5356TIP3   OH237558   1.455   5.472  15.160 -0.0503  0.0052  0.0289
 5356TIP3    H137559   1.464   5.380  15.185  1.2510 -0.0297 -0.4796
 5356TIP3    H237560   1.371   5.476  15.115 -0.8781 -0.5921  1.4704
 5357TIP3   OH237561   5.540   0.893  14.007 -0.1302 -0.0239  0.2391
 5357TIP3    H137562   5.445   0.881  14.014 -0.3482  0.7002 -1.1316
 5357TIP3    H237563   5.560   0.964  14.069 -0.6688  0.6132 -0.3079
 5358TIP3   OH237564   5.838   5.497   1.335  0.2026 -0.4639  0.3723
 5358TIP3    H137565   5.797   5.561   1.276  0.4127  0.4194  1.1622
 5358TIP3    H237566   5.803   5.517   1.421  1.0018 -0.7920  0.7876
 5359TIP3   OH237567   1.105   5.997   4.934  0.8955  0.3873  0.2758
 5359TIP3    H137568   1.042   5.965   4.999 -1.5834  0.2604 -2.0222
 5359TIP3    H237569   1.174   5.931   4.934 -0.0614 -0.6651  1.3728
 5360TIP3   OH237570   3.174   3.827   5.593  0.0058  0.2177 -0.2028
 5360TIP3    H137571   3.116   3.885   5.642 -0.2715 -0.1648 -0.0761
 5360TIP3    H237572   3.126   3.744   5.587  0.6579 -0.2010  0.1689
 5361TIP3   OH237573   4.894   1.167  14.937 -0.2189 -0.4135 -0.2537
 5361TIP3    H137574   4.959   1.215  14.886  1.8613 -0.2362  2.3430
 5361TIP3    H237575   4.897   1.208  15.024 -2.4324 -1.6835  0.4949
 5362TIP3   OH237576   1.509   1.348  12.855  0.1396 -0.3108  0.0482
 5362TIP3    H137577   1.423   1.347  12.898  0.6836  0.1179  1.1728
 5362TIP3    H237578   1.494   1.304  12.771 -1.3994  0.6349 -0.2066
 5363TIP3   OH237579   0.649   2.035   4.341 -0.2958 -0.2186  0.5513
 5363TIP3    H137580   0.731   2.003   4.304 -1.2391 -1.0556 -0.9134
 5363TIP3    H237581   0.669   2.123   4.373  0.9500 -0.0797 -0.5432
 5364TIP3   OH237582   3.756   0.573   2.148  0.3431  0.1133 -0.2727
 5364TIP3    H137583   3.764   0.482   2.119 -0.4055  0.1376 -0.5710
 5364TIP3    H237584   3.834   0.588   2.202  0.7099 -0.5554 -0.6117
 5365TIP3   OH237585   0.173   3.475  13.711 -0.0399 -0.6576  0.1757
 5365TIP3    H137586   0.077   3.476  13.711 -0.0474 -0.8927  1.3061
 5365TIP3    H237587   0.196   3.517  13.628 -1.1110  0.3582  0.3542
 5366TIP3   OH237588   1.052   5.601   3.409  0.0342 -0.1025  0.0904
 5366TIP3    H137589   0.996   5.643   3.343 -0.5582 -0.8025  0.1384
 5366TIP3    H237590   1.091   5.674   3.457 -0.4878  0.3995 -0.2326
 5367TIP3   OH237591   6.379   5.646  10.641  0.1029 -0.1103  0.0020
 5367TIP3    H137592   6.452   5.626  10.700 -1.5826  1.3934  2.8246
 5367TIP3    H237593   6.341   5.561  10.620  1.7796 -0.8116 -0.3906
 5368TIP3   OH237594   5.771   0.690  13.288  0.2228 -0.5540  0.2745
 5368TIP3    H137595   5.826   0.710  13.212  0.3967 -0.0900  0.5150
 5368TIP3    H237596   5.682   0.693  13.255  0.2318  0.7572  0.3147
 5369TIP3   OH237597   0.312   1.890  16.645  0.6060 -0.0809  0.0289
 5369TIP3    H137598   0.321   1.972  16.595  3.1078 -1.0663 -1.2841
 5369TIP3    H237599   0.370   1.900  16.720  0.6148 -0.5132  0.0820
 5370TIP3   OH237600   4.840   1.791  14.459  0.5363 -0.1475  0.0881
 5370TIP3    H137601   4.771   1.735  14.495  0.2332  0.1395 -0.0408
 5370TIP3    H237602   4.893   1.731  14.405  2.7904 -1.2612  3.2681
 5371TIP3   OH237603   3.872   3.044  11.922 -0.5037  0.4023  0.1859
 5371TIP3    H137604   3.934   2.975  11.898 -1.4258 -0.4451  0.2191
 5371TIP3    H237605   3.836   3.017  12.006 -2.8713 -0.4869 -1.0338
 5372TIP3   OH237606   5.105   3.995  15.363 -0.1346  0.1186 -0.3202
 5372TIP3    H137607   5.126   4.036  15.279  1.7736  1.4158  0.7030
 5372TIP3    H237608   5.190   3.967  15.398 -1.0916 -2.1682  0.3462
 5373TIP3   OH237609   6.365   4.304   5.135  0.8195  0.5006  0.4102
 5373TIP3    H137610   6.305   4.284   5.206  0.2393 -1.7672 -0.6416
 5373TIP3    H237611   6.360   4.399   5.126 -1.1334  0.5701  1.6185
 5374TIP3   OH237612   2.173   1.500   3.649 -0.0275  0.1193 -0.9709
 5374TIP3    H137613   2.225   1.552   3.711 -0.3373 -0.5876 -0.0980
 5374TIP3    H237614   2.237   1.443   3.606 -0.2383 -2.3447  1.6769
 5375TIP3   OH237615   4.902   3.689   2.605 -0.0698 -0.1388  0.0720
 5375TIP3    H137616   4.856   3.605   2.607  0.6229 -0.5205  0.5009
 5375TIP3    H237617   4.994   3.666   2.617  0.1872  0.6455 -0.3264
 5376TIP3   OH237618   3.572   6.460   3.082 -0.3015  0.6964 -0.1439
 5376TIP3    H137619   3.510   6.396   3.048  0.9426 -0.1610 -0.8565
 5376TIP3    H237620   3.639   6.408   3.125  0.5598  1.5368 -0.4365
 5377TIP3   OH237621   5.811   2.605  11.144 -0.3475  0.1124 -0.1134
 5377TIP3    H137622   5.764   2.660  11.207 -1.1653 -1.2791  0.5335
 5377TIP3    H237623   5.899   2.598  11.180 -0.2718  0.8779 -0.1335
 5378TIP3   OH237624   6.546   0.384   0.975  0.2051  0.3574  0.2827
 5378TIP3    H137625   6.584   0.343   1.053  3.1392  0.5976 -0.8749
 5378TIP3    H237626   6.612   0.370   0.907 -3.0779 -1.6120 -2.7922
 5379TIP3   OH237627   4.312   1.663  15.341  0.2693 -0.6803 -0.6064
 5379TIP3    H137628   4.277   1.649  15.253 -0.0065  1.4018 -0.8841
 5379TIP3    H237629   4.388   1.719  15.328 -0.5508  0.7891  0.5229
 5380TIP3   OH237630   0.570   4.887  14.902  0.1441  0.3142  0.0318
 5380TIP3    H137631   0.580   4.792  14.910  1.3492  0.3636 -0.6678
 5380TIP3    H237632   0.476   4.901  14.897 -0.0189 -0.9210 -0.7349
 5381TIP3   OH237633   4.919   3.637  14.513 -0.1932 -0.0598 -0.5495
 5381TIP3    H137634   4.925   3.550  14.475  0.9975 -0.3774  0.3249
 5381TIP3    H237635   4.826   3.657  14.513 -1.0449 -3.0214  2.9309
 5382TIP3   OH237636   4.190   6.298  16.974 -0.0239 -0.2744  0.3460
 5382TIP3    H137637   4.274   6.342  16.964 -0.8859  1.2514 -0.5305
 5382TIP3    H237638   4.178   6.251  16.892 -1.0080  1.3562 -0.5028
 5383TIP3   OH237639   6.800   2.216   0.380 -0.4127  0.3137 -0.0459
 5383TIP3    H137640   6.772   2.254   0.464 -1.6644 -2.0333  0.6836
 5383TIP3    H237641   6.724   2.225   0.323 -0.1362  0.4077 -0.4052
 5384TIP3   OH237642   4.108   4.575  15.972 -0.0484 -0.3206 -0.8149
 5384TIP3    H137643   4.198   4.607  15.966 -0.6252  1.8036  0.8144
 5384TIP3    H237644   4.115   4.495  16.025  0.7047  1.0403  1.2822
 5385TIP3   OH237645   4.862   6.599   1.317 -0.6183 -0.2738 -0.1288
 5385TIP3    H137646   4.912   6.672   1.352  2.9661 -0.7823 -3.4627
 5385TIP3    H237647   4.908   6.575   1.236 -4.0340 -3.5618 -1.4110
 5386TIP3   OH237648   5.756   4.495   5.487 -0.4206 -0.1732  0.1580
 5386TIP3    H137649   5.670   4.537   5.491 -1.7887 -2.8071 -0.0120
 5386TIP3    H237650   5.753   4.428   5.555  1.6546 -0.1277  0.3581
 5387TIP3   OH237651   2.718   1.166  15.923  0.6659  0.4274 -0.3588
 5387TIP3    H137652   2.644   1.112  15.952  0.1312  2.1109  1.5987
 5387TIP3    H237653   2.791   1.139  15.979  0.9107  0.4352 -0.6705
 5388TIP3   OH237654   3.733   6.531  11.484  0.2236  0.2683 -0.4562
 5388TIP3    H137655   3.641   6.558  11.483  0.2224  0.2489 -0.7951
 5388TIP3    H237656   3.755   6.528  11.577 -0.3527 -0.5501 -0.3416
 5389TIP3   OH237657   5.887   5.437   3.318 -0.3571  0.3942 -0.3073
 5389TIP3    H137658   5.920   5.347   3.311 -2.0303 -0.2959  0.2447
 5389TIP3    H237659   5.927   5.471   3.398  1.7517  0.8296 -1.4763
 5390TIP3   OH237660   4.463   0.159  13.184 -0.1074  0.4392 -0.0835
 5390TIP3    H137661   4.487   0.192  13.097 -0.1530  1.2335  0.2026
 5390TIP3    H237662   4.501   0.222  13.245  0.2463 -0.3138  0.4970
 5391TIP3   OH237663   1.014   4.468  13.495 -0.4301  0.6693 -0.1812
 5391TIP3    H137664   1.053   4.542  13.448 -0.9253  0.1080 -1.5419
 5391TIP3    H237665   0.920   4.481  13.485 -0.5284  0.2282  0.1672
 5392TIP3   OH237666   6.066   2.750  14.654 -0.1325 -0.0190 -0.0777
 5392TIP3    H137667   6.115   2.824  14.690 -0.1960 -0.4357  0.8995
 5392TIP3    H237668   5.996   2.735  14.718  1.5837 -2.7748  1.2985
 5393TIP3   OH237669   0.349   6.555   5.559  0.0927 -0.1148  0.5849
 5393TIP3    H137670   0.265   6.559   5.606 -0.7841  0.3768 -0.9526
 5393TIP3    H237671   0.333   6.603   5.477  1.8465 -0.1266  0.1987
 5394TIP3   OH237672   2.249   2.453   3.211 -0.2865  0.0132 -0.2225
 5394TIP3    H137673   2.281   2.372   3.171 -0.8941 -0.8763  1.0176
 5394TIP3    H237674   2.247   2.516   3.139  1.3115 -0.7307 -0.9789
 5395TIP3   OH237675   2.676   6.395   3.216  0.6296 -0.1868  0.6090
 5395TIP3    H137676   2.717   6.373   3.300  0.0668 -0.5884  0.7850
 5395TIP3    H237677   2.741   6.369   3.150  1.5368  1.1440  0.9377
 5396TIP3   OH237678   6.396   0.591  11.439  0.4257 -0.6919  0.3280
 5396TIP3    H137679   6.436   0.674  11.465  1.8946 -1.3275  0.2219
 5396TIP3    H237680   6.424   0.579  11.348  1.1264 -1.7924  0.6659
 5397TIP3   OH237681   5.441   2.037  12.078  0.5699  0.9753  0.2039
 5397TIP3    H137682   5.475   2.061  12.164 -0.4899 -0.3043  1.0188
 5397TIP3    H237683   5.355   2.079  12.073  0.9678  1.7353 -0.6020
 5398TIP3   OH237684   3.522   0.173   2.419  0.0618  0.1974  0.4432
 5398TIP3    H137685   3.463   0.157   2.346 -1.5394  0.6742  1.5635
 5398TIP3    H237686   3.562   0.088   2.437 -1.0959 -0.3904  0.3152
 5399TIP3   OH237687   1.937   2.110   1.689  0.3016  0.4603 -0.1579
 5399TIP3    H137688   1.997   2.081   1.621  1.8218  1.5741  0.6389
 5399TIP3    H237689   1.952   2.205   1.695  0.2064  0.3984  1.6956
 5400TIP3   OH237690   5.795   1.823  12.735  0.6709  0.0053 -0.0388
 5400TIP3    H137691   5.756   1.908  12.757  0.4666 -0.1364  0.1590
 5400TIP3    H237692   5.805   1.825  12.640  1.7730  0.7134  0.0829
 5401TIP3   OH237693   5.325   3.978   4.391 -0.3769  0.5725  0.0392
 5401TIP3    H137694   5.329   4.052   4.330  0.1382  2.0367  1.7821
 5401TIP3    H237695   5.379   4.005   4.465 -1.5890 -0.8264  1.4921
 5402TIP3   OH237696   3.617   2.921  12.190 -0.0351 -0.0455 -0.0370
 5402TIP3    H137697   3.653   3.009  12.175 -0.3229  0.1529  0.4157
 5402TIP3    H237698   3.525   2.930  12.165 -0.3518  0.0968  1.1175
 5403TIP3   OH237699   1.366   1.085   5.615 -0.5757  0.2920  0.1560
 5403TIP3    H137700   1.430   1.070   5.685 -2.0841  0.0410  1.5489
 5403TIP3    H237701   1.287   1.042   5.646 -0.8478 -1.3283 -2.5167
 5404TIP3   OH237702   5.528   4.229   2.754  0.1253 -0.2065  0.0000
 5404TIP3    H137703   5.442   4.201   2.785  0.0652 -0.9620 -0.8163
 5404TIP3    H237704   5.559   4.157   2.700  0.0153  1.2270 -2.0978
 5405TIP3   OH237705   1.245   4.265  11.487  0.5487  0.2823 -0.6215
 5405TIP3    H137706   1.187   4.323  11.537  2.5435  1.1170  0.8549
 5405TIP3    H237707   1.281   4.206  11.553  0.3951 -1.0832 -1.7294
 5406TIP3   OH237708   6.761   3.249  10.919 -0.2288 -0.0528 -0.3427
 5406TIP3    H137709   6.761   3.271  11.012 -0.2287  0.4682 -0.4666
 5406TIP3    H237710   6.828   3.305  10.881 -0.2139 -0.2797 -0.6585
 5407TIP3   OH237711   6.106   0.357  15.851  0.5910  0.3936  0.0970
 5407TIP3    H137712   6.027   0.331  15.803  0.8404 -0.4381  0.1245
 5407TIP3    H237713   6.158   0.277  15.857  1.5637  0.9969 -0.1487
 5408TIP3   OH237714   3.408   4.685   6.152  0.3618 -0.4650  0.1351
 5408TIP3    H137715   3.463   4.761   6.135 -1.1947  0.7195  0.1358
 5408TIP3    H237716   3.338   4.718   6.209  0.0329 -2.0704  0.7270
 5409TIP3   OH237717   2.767   2.798  12.478  0.6012 -0.2373  0.1562
 5409TIP3    H137718   2.722   2.766  12.557 -2.0978  3.1016  0.1749
 5409TIP3    H237719   2.744   2.891  12.473  2.3439  0.1687 -3.4998
 5410TIP3   OH237720   6.250   0.293   3.685  0.2089 -0.4344  0.4477
 5410TIP3    H137721   6.269   0.312   3.777  0.7109 -0.7294  0.4112
 5410TIP3    H237722   6.336   0.276   3.646 -0.1516 -2.7745  0.4927
 5411TIP3   OH237723   6.242   6.253   1.781  0.0837 -0.5557 -0.1316
 5411TIP3    H137724   6.261   6.295   1.864  2.3499 -0.2720 -0.7009
 5411TIP3    H237725   6.177   6.186   1.801 -0.0088  0.0447  1.6924
 5412TIP3   OH237726   5.135   3.638  11.364 -0.1851  0.0030 -0.5541
 5412TIP3    H137727   5.190   3.669  11.291  1.0213  0.2611  0.4321
 5412TIP3    H237728   5.126   3.715  11.420  0.1443 -0.5887  0.3152
 5413TIP3   OH237729   4.990   3.517   3.337  0.6377  0.6395 -0.3219
 5413TIP3    H137730   5.026   3.450   3.395  0.9763  1.7110  0.7396
 5413TIP3    H237731   5.020   3.600   3.374  1.6555  1.3526 -2.5406
 5414TIP3   OH237732   3.095   4.392   0.670  0.4622 -0.1408 -0.2019
 5414TIP3    H137733   3.021   4.377   0.729 -0.3132 -1.2222 -1.3922
 5414TIP3    H237734   3.172   4.370   0.721 -0.2926 -2.9542 -0.1471
 5415TIP3   OH237735   6.832   0.807  15.535 -0.2291 -0.2206 -0.2099
 5415TIP3    H137736   6.814   0.755  15.614 -0.4446  0.4655  0.1949
 5415TIP3    H237737   6.835   0.742  15.465  2.1831 -1.1783  0.6524
 5416TIP3   OH237738   4.096   4.226   1.181  0.2313 -0.4996  0.1200
 5416TIP3    H137739   4.073   4.315   1.152 -1.8232 -0.6303  1.1639
 5416TIP3    H237740   4.185   4.235   1.215  0.9258  0.6509 -1.8061
 5417TIP3   OH237741   5.819   0.429  16.036  0.9032 -0.0384 -0.1524
 5417TIP3    H137742   5.844   0.432  16.128  0.4257 -0.3724 -0.0063
 5417TIP3    H237743   5.724   0.416  16.037  1.3062 -4.7279 -0.5977
 5418TIP3   OH237744   4.738   0.069  11.247  0.0273  0.0453  0.1899
 5418TIP3    H137745   4.734   0.037  11.157  0.0044  0.1287  0.1616
 5418TIP3    H237746   4.760   0.162  11.239 -1.6865  0.4917  0.1902
 5419TIP3   OH237747   2.604   0.371  12.583  0.0839 -0.0993 -0.1840
 5419TIP3    H137748   2.641   0.324  12.658 -1.4682 -1.2121 -0.0745
 5419TIP3    H237749   2.511   0.348  12.583 -0.1553  0.6884 -1.8591
 5420TIP3   OH237750   6.703   2.174   1.629 -0.8777  0.1248 -0.2291
 5420TIP3    H137751   6.775   2.156   1.569 -1.3404 -1.7316 -0.2884
 5420TIP3    H237752   6.741   2.232   1.695  0.3807  0.0459 -0.8498
 5421TIP3   OH237753   0.828   1.819  13.444  0.3645  0.5198 -0.3499
 5421TIP3    H137754   0.837   1.883  13.373 -1.0130  0.5841 -0.5000
 5421TIP3    H237755   0.735   1.820  13.465  0.5497 -0.4298  0.6073
 5422TIP3   OH237756   1.680   1.242   3.533  0.1855  0.8543 -0.1448
 5422TIP3    H137757   1.612   1.283   3.586 -1.1067 -1.0012 -0.2801
 5422TIP3    H237758   1.756   1.300   3.542 -0.9348  2.1817  1.2332
 5423TIP3   OH237759   0.166   2.704   2.697  0.6117 -0.0422 -0.0209
 5423TIP3    H137760   0.114   2.723   2.775 -1.3313 -0.9521 -1.0437
 5423TIP3    H237761   0.249   2.750   2.712  0.3786 -0.3535  2.6496
 5424TIP3   OH237762   5.325   5.828  15.753  0.0128 -0.2815  0.0816
 5424TIP3    H137763   5.327   5.877  15.671  2.2871 -0.3866  0.0056
 5424TIP3    H237764   5.284   5.887  15.816  2.3056  1.6345 -0.0974
 5425TIP3   OH237765   0.649   4.693   2.089  0.5334 -0.4396  0.5278
 5425TIP3    H137766   0.664   4.599   2.077 -0.4891 -0.4224 -1.0306
 5425TIP3    H237767   0.677   4.733   2.007  0.3442  0.5539  0.9321
 5426TIP3   OH237768   0.260   0.944  16.809  0.0962  0.6109 -0.2118
 5426TIP3    H137769   0.204   1.017  16.835  2.5880  1.7879  2.4700
 5426TIP3    H237770   0.238   0.874  16.871  2.1565  1.4603  1.6132
 5427TIP3   OH237771   0.316   5.217   4.062 -0.4843  0.1448 -0.6920
 5427TIP3    H137772   0.357   5.135   4.035 -0.0443 -0.6306  2.0680
 5427TIP3    H237773   0.222   5.202   4.049 -0.6131 -1.6677  1.6854
 5428TIP3   OH237774   5.099   2.797  13.519  0.1182  0.4413  0.2650
 5428TIP3    H137775   5.085   2.709  13.485  0.4385  0.3498  0.3674
 5428TIP3    H237776   5.104   2.786  13.614 -1.7227  0.8207  0.4448
 5429TIP3   OH237777   6.314   4.534   4.592 -0.0693 -0.2186  0.6691
 5429TIP3    H137778   6.361   4.465   4.545 -0.3820 -1.2160  1.7769
 5429TIP3    H237779   6.221   4.517   4.573 -0.1309  0.1594  0.6159
 5430TIP3   OH237780   3.271   2.740  16.032  0.1989 -0.4060  0.4977
 5430TIP3    H137781   3.202   2.696  15.982 -0.2354  0.8016 -0.0153
 5430TIP3    H237782   3.224   2.802  16.088  0.8931  1.3969 -0.8234
 5431TIP3   OH237783   3.130   0.956  15.652 -0.3586 -0.7912 -0.0775
 5431TIP3    H137784   3.197   1.025  15.661 -1.3590  0.5672 -2.1029
 5431TIP3    H237785   3.145   0.921  15.564 -1.9821 -0.7811 -0.3786
 5432TIP3   OH237786   5.909   2.856   0.850  0.0810  0.0290 -0.0738
 5432TIP3    H137787   5.950   2.898   0.925 -0.0950  1.0103 -0.5112
 5432TIP3    H237788   5.824   2.825   0.883  1.8735 -3.9147  1.4185
 5433TIP3   OH237789   6.539   5.151  13.649 -0.8185 -0.1039 -0.0033
 5433TIP3    H137790   6.471   5.086  13.662 -2.1700  1.0109 -1.1102
 5433TIP3    H237791   6.601   5.136  13.721 -3.6117  0.5858  2.7907
 5434TIP3   OH237792   5.441   3.218  12.970  0.2930  0.0221 -0.7841
 5434TIP3    H137793   5.376   3.275  13.011  0.5204 -0.0908 -0.2721
 5434TIP3    H237794   5.414   3.129  12.992  0.2817 -0.0519 -1.0825
 5435TIP3   OH237795   1.260   1.776  13.143 -0.1591 -0.0009  0.0906
 5435TIP3    H137796   1.234   1.703  13.199 -0.9470 -1.3070 -1.8603
 5435TIP3    H237797   1.355   1.767  13.134 -0.3112 -1.0988 -0.5283
 5436TIP3   OH237798   3.468   1.695   5.731 -0.2949  0.2327  0.0748
 5436TIP3    H137799   3.413   1.765   5.765  0.3181  1.4510 -1.3175
 5436TIP3    H237800   3.557   1.727   5.742  0.0785 -0.9087  0.5845
 5437TIP3   OH237801   0.157   3.252   0.366  0.0972 -0.3123  0.2940
 5437TIP3    H137802   0.153   3.195   0.289 -1.3292  0.0386  0.0800
 5437TIP3    H237803   0.251   3.258   0.386  0.4257 -1.1538 -0.8484
 5438TIP3   OH237804   4.579   1.510   1.342 -0.1039 -0.5423 -0.2578
 5438TIP3    H137805   4.582   1.447   1.269  0.7378 -0.1977 -0.5290
 5438TIP3    H237806   4.528   1.583   1.307 -0.0600 -0.5573 -0.3558
 5439TIP3   OH237807   4.082   4.361  15.683  0.2762  0.4490 -0.3228
 5439TIP3    H137808   4.018   4.304  15.726  0.5713  0.3738  0.0247
 5439TIP3    H237809   4.167   4.327  15.711  0.4968 -0.0013 -1.4930
 5440TIP3   OH237810   1.445   2.395   2.913 -0.4698  0.1547  0.1337
 5440TIP3    H137811   1.532   2.359   2.931 -0.3082  0.0828 -0.7508
 5440TIP3    H237812   1.385   2.337   2.960 -0.1151 -0.4695 -0.1751
 5441TIP3   OH237813   2.275   6.426  14.308 -0.0928 -0.0257 -0.0510
 5441TIP3    H137814   2.282   6.342  14.352 -0.3611  0.3730  0.7708
 5441TIP3    H237815   2.292   6.406  14.215  0.0644 -0.9377  0.1636
 5442TIP3   OH237816   4.974   0.764   3.450  0.0785  0.2190  0.3335
 5442TIP3    H137817   5.024   0.807   3.519  1.0813 -2.1040  1.1875
 5442TIP3    H237818   5.006   0.803   3.369  3.6854 -1.3823  0.8157
 5443TIP3   OH237819   5.414   2.014   0.578 -0.0762 -0.2832 -0.0339
 5443TIP3    H137820   5.352   2.082   0.550  0.7447  0.1321 -0.9141
 5443TIP3    H237821   5.500   2.051   0.558  0.7230  0.5030  3.9580
 5444TIP3   OH237822   0.005   1.432   1.106 -0.4066 -0.0685  0.6263
 5444TIP3    H137823   0.020   1.476   1.189  0.5456 -0.8202  0.8734
 5444TIP3    H237824  -0.035   1.348   1.130 -0.5055 -0.1170  0.2956
 5445TIP3   OH237825   1.866   3.056   5.063 -0.1733  0.3814  0.3060
 5445TIP3    H137826   1.784   3.028   5.103  1.0800 -4.4137  0.1028
 5445TIP3    H237827   1.928   2.987   5.085  3.3498  2.7584 -1.2631
 5446TIP3   OH237828   3.066   0.847  16.658  0.4858 -0.2141 -0.1057
 5446TIP3    H137829   3.052   0.880  16.746 -0.5249 -0.1284 -0.2896
 5446TIP3    H237830   3.105   0.760  16.671  0.6992 -0.0458  0.4094
 5447TIP3   OH237831   3.561   1.344  15.202  0.1167  0.0014  0.2345
 5447TIP3    H137832   3.640   1.398  15.196  0.0939  0.2111  1.4746
 5447TIP3    H237833   3.563   1.289  15.124 -0.2437  2.2804 -1.4661
 5448TIP3   OH237834   1.814   2.149   3.289  0.7598  0.0992 -0.2397
 5448TIP3    H137835   1.746   2.186   3.346  0.4909 -0.0184 -0.4845
 5448TIP3    H237836   1.766   2.096   3.226  1.1141 -0.3031 -0.1703
 5449TIP3   OH237837   0.604   0.647  16.408 -0.0191 -0.6736 -0.6462
 5449TIP3    H137838   0.618   0.556  16.434  1.1733 -0.2378  0.3048
 5449TIP3    H237839   0.682   0.670  16.357 -0.5314 -0.3133 -1.2856
 5450TIP3   OH237840   0.624   2.063  16.341 -0.2723 -0.2065  0.0733
 5450TIP3    H137841   0.664   2.142  16.305 -2.2020 -0.2171 -2.3485
 5450TIP3    H237842   0.656   1.992  16.284 -2.0750 -0.4771 -0.6732
 5451TIP3   OH237843   1.568   3.482   4.978  0.1795  0.1520 -0.4374
 5451TIP3    H137844   1.653   3.519   5.001  0.3161  0.1070 -0.8489
 5451TIP3    H237845   1.582   3.387   4.977 -0.7186 -0.1136  2.8096
 5452TIP3   OH237846   0.885   4.925   0.106 -0.2430  0.0644  0.0997
 5452TIP3    H137847   0.956   4.887   0.056 -0.5088 -0.5968  0.2160
 5452TIP3    H237848   0.834   4.850   0.137 -0.7276  0.5074  0.4002
 5453TIP3   OH237849   6.115   3.544   0.151 -0.1823  0.4505  0.2567
 5453TIP3    H137850   6.041   3.487   0.130 -0.7213  1.5709 -1.0129
 5453TIP3    H237851   6.172   3.489   0.205 -0.3844 -1.4905 -1.3793
 5454TIP3   OH237852   4.229   6.483  11.366  0.4502  0.4156 -0.2698
 5454TIP3    H137853   4.235   6.423  11.441 -0.0526  0.9825  0.2280
 5454TIP3    H237854   4.161   6.445  11.310  0.5654  0.1941 -0.2633
 5455TIP3   OH237855   3.378   5.029   2.344 -0.1070 -0.6255  0.0996
 5455TIP3    H137856   3.378   4.977   2.264 -0.3848 -2.1001  1.0264
 5455TIP3    H237857   3.371   5.120   2.314  0.1508 -1.1316 -1.5446
 5456TIP3   OH237858   4.500   6.062  12.332  0.4298  0.0394 -0.3407
 5456TIP3    H137859   4.549   5.987  12.366 -0.0860 -0.2843 -0.3059
 5456TIP3    H237860   4.565   6.112  12.282  1.1572  0.4187  0.9425
 5457TIP3   OH237861   0.684   3.414  12.561  0.1481  0.3436 -0.4330
 5457TIP3    H137862   0.669   3.357  12.637  2.0259  0.1744 -0.1330
 5457TIP3    H237863   0.657   3.500  12.591 -1.9788 -0.2046 -0.6233
 5458TIP3   OH237864   1.661   0.522  15.591  0.2423  0.2359 -0.1716
 5458TIP3    H137865   1.578   0.483  15.620  0.5655  0.0993  0.5994
 5458TIP3    H237866   1.654   0.614  15.617  0.3204  0.2300 -0.1305
 5459TIP3   OH237867   4.908   6.395   5.175  0.0616  0.3780 -0.2418
 5459TIP3    H137868   4.894   6.485   5.147  0.2194  0.6572  0.5533
 5459TIP3    H237869   4.915   6.345   5.093  0.5555  1.1726 -0.7002
 5460TIP3   OH237870   2.944   1.553  13.155 -0.3677  0.5956  0.0355
 5460TIP3    H137871   2.898   1.621  13.106  0.1347  1.0271  0.1484
 5460TIP3    H237872   3.015   1.599  13.199  0.3875 -0.1072 -0.4070
 5461TIP3   OH237873   3.930   2.478  12.229  0.5976 -0.0758 -0.5847
 5461TIP3    H137874   3.963   2.498  12.141  1.1309  0.3571 -0.2877
 5461TIP3    H237875   3.964   2.391  12.248  0.4883 -0.1675 -0.7987
 5462TIP3   OH237876   1.032   2.370   4.867  0.5901  0.3129 -0.4742
 5462TIP3    H137877   1.062   2.297   4.813 -1.6010 -0.1433 -1.1623
 5462TIP3    H237878   1.026   2.444   4.807  1.4518  0.7257 -0.0745
 5463TIP3   OH237879   5.102   2.581   3.683  0.1366  0.4864 -0.1527
 5463TIP3    H137880   5.123   2.649   3.747  1.3379 -1.7936  2.0486
 5463TIP3    H237881   5.007   2.570   3.691  0.4151 -0.7445  2.4234
 5464TIP3   OH237882   0.433   4.129  12.298 -0.3706 -0.1103  0.2978
 5464TIP3    H137883   0.448   4.079  12.378 -2.2912  0.2021  0.9241
 5464TIP3    H237884   0.504   4.193  12.295  0.2124 -0.6881  1.2934
 5465TIP3   OH237885   6.405   4.735   2.165  0.1000  0.3055 -0.4075
 5465TIP3    H137886   6.488   4.720   2.120  0.3149  0.4488 -0.0575
 5465TIP3    H237887   6.425   4.799   2.233  0.4989 -2.2022  2.0094
 5466TIP3   OH237888   4.411   4.741  11.159  0.2307  0.0219 -0.7662
 5466TIP3    H137889   4.396   4.750  11.065  0.0477 -1.9661 -0.9608
 5466TIP3    H237890   4.327   4.710  11.194 -0.1989  2.1790  0.3462
 5467TIP3   OH237891   6.465   3.595  16.905 -0.1496  0.1072 -0.8333
 5467TIP3    H137892   6.438   3.667  16.963  1.2809  0.3853 -0.4655
 5467TIP3    H237893   6.495   3.526  16.965  2.6906  0.9311 -1.1655
 5468TIP3   OH237894   0.596   3.875  17.046  0.2767  0.3644 -0.3769
 5468TIP3    H137895   0.636   3.906  17.128  0.8813 -1.3608  0.0238
 5468TIP3    H237896   0.654   3.907  16.977 -0.5621  2.3555 -0.2238
 5469TIP3   OH237897   1.428   0.954  14.634  0.1212  0.6138  0.2473
 5469TIP3    H137898   1.397   0.877  14.586 -1.5556  0.8547  0.8856
 5469TIP3    H237899   1.396   1.028  14.582  0.2077  0.8703  0.5604
 5470TIP3   OH237900   5.742   2.332   5.749 -0.0682  0.4578  0.0311
 5470TIP3    H137901   5.743   2.279   5.670  0.5938  2.1921 -1.1765
 5470TIP3    H237902   5.663   2.303   5.796  0.6648 -2.1020 -0.1431
 5471TIP3   OH237903   0.565   1.850  15.030  0.1181  0.0593  0.1569
 5471TIP3    H137904   0.660   1.842  15.041  0.0424 -0.7319  0.2924
 5471TIP3    H237905   0.530   1.767  15.062 -0.5327 -0.1590 -1.0510
 5472TIP3   OH237906   4.476   0.695   4.388  0.5721 -0.2049  0.3668
 5472TIP3    H137907   4.431   0.779   4.401  0.0635  0.2374 -3.2236
 5472TIP3    H237908   4.409   0.637   4.352  1.1584 -1.9134  1.8919
 5473TIP3   OH237909   0.345   5.361  16.352  0.1656  0.4719  0.3254
 5473TIP3    H137910   0.368   5.319  16.269 -3.0783 -0.3281 -0.2818
 5473TIP3    H237911   0.416   5.336  16.411  0.5589 -2.3382 -1.1519
 5474TIP3   OH237912   1.902   6.533   6.341 -0.1080  0.5285  0.1746
 5474TIP3    H137913   1.867   6.500   6.424  2.2088 -0.5626  0.7797
 5474TIP3    H237914   1.852   6.487   6.274  0.4172 -1.3034  0.9958
 5475TIP3   OH237915   3.117   0.666   3.152  0.7868  0.0658 -0.2773
 5475TIP3    H137916   3.031   0.709   3.150  0.7988  0.0940 -2.0860
 5475TIP3    H237917   3.154   0.690   3.236 -0.2770  1.4702 -0.1738
 5476TIP3   OH237918   6.624   6.720  11.779  0.1193  0.2679 -0.1196
 5476TIP3    H137919   6.683   6.667  11.726  1.3088  0.7805  0.6518
 5476TIP3    H237920   6.640   6.692  11.869 -1.5516 -0.2774  0.0294
 5477TIP3   OH237921   4.409   1.314  13.265  0.1514 -0.8009  0.7425
 5477TIP3    H137922   4.446   1.228  13.244  1.0179 -0.4372  0.7228
 5477TIP3    H237923   4.345   1.297  13.335 -0.4601 -1.5943  0.0074
 5478TIP3   OH237924   3.171   3.743   3.416  1.2225 -0.1447  0.6736
 5478TIP3    H137925   3.124   3.815   3.458  2.1630  0.3451  0.9062
 5478TIP3    H237926   3.245   3.785   3.372  1.3285 -0.8800  0.1428
 5479TIP3   OH237927   6.822   2.768   3.074  0.0563 -0.2948 -0.5232
 5479TIP3    H137928   6.745   2.750   3.020 -0.1952 -0.2323 -0.1928
 5479TIP3    H237929   6.813   2.708   3.148 -0.4984  0.7761  0.3071
 5480TIP3   OH237930   3.016   1.316   3.899  0.3256  0.0347 -0.5555
 5480TIP3    H137931   3.079   1.299   3.828  1.6579  1.1174  0.3016
 5480TIP3    H237932   3.046   1.261   3.971  2.1666  2.6119  0.8356
 5481TIP3   OH237933   1.377   3.652  13.803  0.3862  0.1125 -0.5360
 5481TIP3    H137934   1.291   3.647  13.846 -0.5085 -1.8678 -2.3554
 5481TIP3    H237935   1.356   3.668  13.711  1.7284 -2.9729 -1.4954
 5482TIP3   OH237936   5.227   5.809   5.953  0.7017  0.0288  0.1125
 5482TIP3    H137937   5.185   5.734   5.996  1.3110 -0.9285 -0.9134
 5482TIP3    H237938   5.302   5.771   5.907  2.8170  1.6874  1.9825
 5483TIP3   OH237939   4.302   2.485   2.696 -0.1033 -0.1612  0.8012
 5483TIP3    H137940   4.298   2.575   2.730 -1.1013 -0.6293  1.9855
 5483TIP3    H237941   4.382   2.449   2.734  1.0885  0.6347 -0.8238
 5484TIP3   OH237942   0.983   5.245  15.159  0.3711  0.3027  0.0763
 5484TIP3    H137943   1.067   5.202  15.175  0.7832  0.2090 -2.0253
 5484TIP3    H237944   0.963   5.290  15.241  3.1106  1.3392  0.2766
 5485TIP3   OH237945   4.153   6.772  11.838 -0.4460  0.7991 -0.4079
 5485TIP3    H137946   4.202   6.811  11.765  0.9442  0.5771  0.3589
 5485TIP3    H237947   4.182   6.821  11.915 -0.0095 -0.5605  0.3281
 5486TIP3   OH237948   5.320   2.969  12.018  0.2811 -0.0139 -0.2017
 5486TIP3    H137949   5.344   3.036  11.954  0.3602  1.0758  0.9318
 5486TIP3    H237950   5.329   3.012  12.103 -2.0444 -0.7161  0.4688
 5487TIP3   OH237951   5.257   3.153   3.096 -0.4176 -0.3396  0.3311
 5487TIP3    H137952   5.242   3.123   3.007 -1.1183 -1.7253  0.8722
 5487TIP3    H237953   5.283   3.074   3.144 -0.8728  0.2007  1.5147
 5488TIP3   OH237954   5.467   0.132  12.354  0.0697 -0.0971 -0.1052
 5488TIP3    H137955   5.546   0.079  12.357 -1.1020 -1.8770  0.5471
 5488TIP3    H237956   5.397   0.074  12.385 -1.5682  1.2886 -1.0206
 5489TIP3   OH237957   6.031   2.694  15.466 -0.2757  0.1413 -0.8441
 5489TIP3    H137958   5.951   2.692  15.413  0.3592  1.0249 -1.8760
 5489TIP3    H237959   6.102   2.699  15.402  0.6158 -0.5332  0.0589
 5490TIP3   OH237960   0.854   5.815  10.865 -0.5300  0.2477 -0.2567
 5490TIP3    H137961   0.785   5.862  10.818 -0.8115  0.3711  0.2752
 5490TIP3    H237962   0.930   5.872  10.860 -0.9436  0.9012  0.6216
 5491TIP3   OH237963   1.479   5.675   1.859  0.0061 -0.1614 -0.2266
 5491TIP3    H137964   1.422   5.606   1.824 -0.3376 -1.8842  3.2945
 5491TIP3    H237965   1.566   5.635   1.861 -0.0477 -0.2538  1.0997
 5492TIP3   OH237966   5.645   2.404  13.611  0.4057  0.3902 -0.1139
 5492TIP3    H137967   5.590   2.481  13.621  1.5471  1.3694 -0.9371
 5492TIP3    H237968   5.665   2.401  13.517  0.1861 -1.0590 -0.1381
 5493TIP3   OH237969   3.500   1.547  15.797  0.2889 -0.2282  0.0336
 5493TIP3    H137970   3.546   1.608  15.739  0.4051  1.6442  1.9877
 5493TIP3    H237971   3.549   1.465  15.789  0.6440  0.1417 -2.0183
 5494TIP3   OH237972   5.397   6.461   2.535 -0.0954 -0.3557  0.6187
 5494TIP3    H137973   5.426   6.385   2.486 -0.8100 -0.1322 -0.1770
 5494TIP3    H237974   5.428   6.446   2.625  2.2271 -0.2318 -0.0932
 5495TIP3   OH237975   6.239   3.992   5.611 -0.0646  0.7643 -0.1656
 5495TIP3    H137976   6.295   3.998   5.688 -0.9700 -1.9770  0.8221
 5495TIP3    H237977   6.289   3.938   5.549  1.2702  4.0560 -2.2488
 5496TIP3   OH237978   1.859   3.339  13.551 -0.0210 -0.6860  0.4483
 5496TIP3    H137979   1.855   3.274  13.621 -1.7155 -0.4909  0.5640
 5496TIP3    H237980   1.802   3.305  13.482  1.6132 -0.8739 -0.8798
 5497TIP3   OH237981   2.064   0.378  12.187 -0.3578  0.0019 -0.3417
 5497TIP3    H137982   1.997   0.313  12.166  0.5555 -0.7101 -1.1617
 5497TIP3    H237983   2.056   0.445  12.119  1.8056 -1.6972 -2.4379
 5498TIP3   OH237984   2.411   6.422  16.470 -0.1140 -0.0829 -0.7910
 5498TIP3    H137985   2.379   6.510  16.490  1.4468  0.0258  1.6212
 5498TIP3    H237986   2.406   6.375  16.553  0.8781 -1.6742 -1.5868
 5499TIP3   OH237987   5.331   1.003  12.922 -0.6263 -0.5559 -0.1401
 5499TIP3    H137988   5.385   1.046  12.988 -0.7833 -0.3819 -0.1208
 5499TIP3    H237989   5.311   1.073  12.859 -0.4974 -0.7147 -0.3575
 5500TIP3   OH237990   3.776   2.871   0.116  0.1268 -0.4121 -0.2405
 5500TIP3    H137991   3.747   2.826   0.036 -0.2765 -1.6439  0.5698
 5500TIP3    H237992   3.849   2.817   0.148  0.3192  0.1040  0.1943
 5501TIP3   OH237993   4.685   5.433   5.627  0.2851 -0.3758 -0.7473
 5501TIP3    H137994   4.687   5.493   5.552  1.4204  0.5131 -0.0262
 5501TIP3    H237995   4.767   5.383   5.620  1.2048  0.8381  0.7726
 5502TIP3   OH237996   2.085   6.726   1.328 -0.3547  0.3293  0.3593
 5502TIP3    H137997   2.177   6.744   1.308 -0.6314  1.2419 -0.1430
 5502TIP3    H237998   2.036   6.781   1.267 -1.2667 -1.5986 -0.7620
 5503TIP3   OH237999   5.451   2.907  15.149  0.4949 -0.5098 -0.0521
 5503TIP3    H138000   5.450   2.968  15.224  2.2774 -1.7854  1.0907
 5503TIP3    H238001   5.488   2.959  15.077  1.5123 -0.0660  0.7581
 5504TIP3   OH238002   5.447   0.895  11.083  0.3705 -0.0597 -0.0723
 5504TIP3    H138003   5.352   0.884  11.083  0.3061  0.3723 -0.8775
 5504TIP3    H238004   5.473   0.887  11.174 -0.6338  1.3738  0.3684
 5505TIP3   OH238005   3.690   0.584   1.624  0.8161 -0.0432 -0.5508
 5505TIP3    H138006   3.771   0.534   1.628  0.4460 -0.6003  0.7361
 5505TIP3    H238007   3.703   0.656   1.685  0.4946  0.1025 -0.6511
 5506TIP3   OH238008   1.684   3.672   5.633 -0.0317 -0.5628 -0.0570
 5506TIP3    H138009   1.707   3.593   5.585  1.0710 -0.4128  0.1973
 5506TIP3    H238010   1.591   3.663   5.651  0.1127 -1.8846  0.1217
 5507TIP3   OH238011   6.333   6.504  14.871  0.2433  0.3667  0.2642
 5507TIP3    H138012   6.241   6.529  14.883  0.3482  1.0397 -0.2443
 5507TIP3    H238013   6.381   6.583  14.896  0.6269  0.4192 -0.6137
 5508TIP3   OH238014   6.195   2.802   5.570  0.2755 -0.5112  0.5146
 5508TIP3    H138015   6.139   2.860   5.518 -1.6124 -1.5491  1.2820
 5508TIP3    H238016   6.159   2.806   5.658 -0.5115 -3.3994  0.4489
 5509TIP3   OH238017   6.524   6.040   2.410 -0.0307  0.2102  0.2307
 5509TIP3    H138018   6.550   5.990   2.333  0.1746  1.6712 -0.6893
 5509TIP3    H238019   6.592   6.107   2.419 -1.1944  1.4063  0.3598
 5510TIP3   OH238020   2.430   2.804  15.936 -0.4694  0.0629  0.1745
 5510TIP3    H138021   2.459   2.743  16.004 -2.2122 -0.9612  0.0712
 5510TIP3    H238022   2.432   2.890  15.978  0.7457 -0.2241  0.7461
 5511TIP3   OH238023   6.546   6.278  13.651 -0.3366 -0.0896 -0.2276
 5511TIP3    H138024   6.499   6.279  13.567 -1.6176  0.4214  0.4814
 5511TIP3    H238025   6.588   6.192  13.654 -0.9487 -0.4275 -1.0288
 5512TIP3   OH238026   2.182   1.847  12.381  1.3079  0.4508 -0.1799
 5512TIP3    H138027   2.137   1.915  12.330 -0.4439 -0.5841 -0.0932
 5512TIP3    H238028   2.115   1.812  12.439  2.2442 -1.1577 -0.0074
 5513TIP3   OH238029   6.560   4.137  13.923 -0.4269 -0.0159 -0.3633
 5513TIP3    H138030   6.626   4.072  13.899 -1.7270 -0.7302 -2.1932
 5513TIP3    H238031   6.477   4.088  13.926 -0.9217  0.7856  2.1836
 5514TIP3   OH238032   4.329   6.128  16.580  0.0896  0.0253  0.6972
 5514TIP3    H138033   4.363   6.124  16.490  0.6163 -0.1701  0.9030
 5514TIP3    H238034   4.406   6.116  16.635 -0.1058  0.9369  1.1885
 5515TIP3   OH238035   5.497   5.973   1.218  0.4698 -0.5521 -0.0865
 5515TIP3    H138036   5.432   5.913   1.254  0.4730 -0.0341  0.8167
 5515TIP3    H238037   5.462   5.996   1.132 -1.4430  0.9903  0.9941
 5516TIP3   OH238038   5.129   6.378   0.327 -0.6807 -0.3757 -0.2425
 5516TIP3    H138039   5.095   6.451   0.276  0.8651  0.7662  0.2942
 5516TIP3    H238040   5.206   6.349   0.278 -1.1394 -1.5128 -0.3239
 5517TIP3   OH238041   4.710   4.804   1.007  0.7704  0.5896 -0.3020
 5517TIP3    H138042   4.639   4.741   1.001  1.4012 -0.0528 -1.5006
 5517TIP3    H238043   4.757   4.780   1.087  0.1892  0.4209 -0.0095
 5518TIP3   OH238044   4.126   5.396   0.024  0.1660 -0.5475  0.0240
 5518TIP3    H138045   4.134   5.466  -0.041  1.7479  0.2058  0.9598
 5518TIP3    H238046   4.070   5.331  -0.017 -1.1194  1.1223 -1.0041
 5519TIP3   OH238047   3.328   6.757  10.967  0.0193 -0.2110  0.2742
 5519TIP3    H138048   3.405   6.773  11.022  0.2543 -0.3894  0.0011
 5519TIP3    H238049   3.352   6.681  10.913  0.2667  0.6781 -0.9294
 5520TIP3   OH238050   4.149   2.147   2.677 -0.0420  0.1643  0.1516
 5520TIP3    H138051   4.225   2.183   2.631  0.5485 -0.9172  0.2570
 5520TIP3    H238052   4.170   2.156   2.770  1.1995 -2.5771  0.2111
 5521TIP3   OH238053   1.379   2.640   2.588  0.2649  0.0233  0.5659
 5521TIP3    H138054   1.457   2.621   2.640 -0.3504  0.1813  1.5771
 5521TIP3    H238055   1.395   2.726   2.550  0.9633 -0.3433  0.0107
 5522TIP3   OH238056   0.488   0.927  16.192  0.0985 -0.4875 -0.8297
 5522TIP3    H138057   0.494   0.926  16.288 -1.5509 -0.2641 -0.6968
 5522TIP3    H238058   0.550   0.994  16.164  1.1623 -1.0856  0.0222
 5523TIP3   OH238059   2.981   3.882  12.131  0.0020 -1.0027 -0.2038
 5523TIP3    H138060   3.055   3.940  12.113 -0.5231 -0.5433 -0.9535
 5523TIP3    H238061   2.919   3.899  12.060 -0.8856 -1.2838  0.4812
 5524TIP3   OH238062   2.030   0.532   5.489  0.0807 -0.7162 -0.2465
 5524TIP3    H138063   2.101   0.576   5.443  0.2143 -1.0198 -0.3398
 5524TIP3    H238064   1.977   0.493   5.419 -0.2424 -0.3902 -0.1815
 5525TIP3   OH238065   6.387   1.186  11.587 -0.1439 -0.1486 -0.2527
 5525TIP3    H138066   6.421   1.138  11.662 -1.4704  0.4480  0.7686
 5525TIP3    H238067   6.295   1.162  11.582 -0.2984  0.5598 -1.0919
 5526TIP3   OH238068   3.917   0.244   4.804 -0.9170 -0.4384  0.0136
 5526TIP3    H138069   3.906   0.339   4.793  1.2925 -0.1265 -0.0387
 5526TIP3    H238070   3.882   0.206   4.724  2.7036  0.7913 -2.3951
 5527TIP3   OH238071   1.259   5.080   5.834  0.2903  0.0756  0.3392
 5527TIP3    H138072   1.247   5.026   5.912 -1.4050 -1.1694 -0.7093
 5527TIP3    H238073   1.170   5.098   5.804  0.9081  0.2352 -1.4866
 5528TIP3   OH238074   5.549   6.407  13.381 -0.2936 -0.4991 -0.2053
 5528TIP3    H138075   5.557   6.328  13.327  3.2198 -2.4214  2.6543
 5528TIP3    H238076   5.620   6.464  13.352 -0.4608 -0.0744  0.2006
 5529TIP3   OH238077   0.349   0.460   3.782  0.3143 -0.0176 -0.2795
 5529TIP3    H138078   0.377   0.538   3.733 -0.4494  0.2996 -0.2227
 5529TIP3    H238079   0.337   0.490   3.871 -0.2063 -0.1437 -0.3027
 5530TIP3   OH238080   3.683   0.939   0.090 -0.1606  0.1291 -0.2497
 5530TIP3    H138081   3.693   1.003   0.020 -0.1520  0.0907 -0.2832
 5530TIP3    H238082   3.773   0.925   0.121 -0.0616 -0.5163 -0.8150
 5531TIP3   OH238083   1.762   0.787   2.746 -0.3651  0.3404 -0.3276
 5531TIP3    H138084   1.836   0.828   2.700  1.5825  3.0884  4.4426
 5531TIP3    H238085   1.701   0.859   2.761 -1.6438 -0.7831  0.0039
 5532TIP3   OH238086   0.729   6.794  14.453 -0.4773  0.0033  0.0563
 5532TIP3    H138087   0.648   6.841  14.435  0.1232  1.1601  0.2475
 5532TIP3    H238088   0.797   6.861  14.445  0.6270 -1.2306 -1.5839
 5533TIP3   OH238089   0.155   4.374   2.481  0.4260  0.4535  0.1968
 5533TIP3    H138090   0.234   4.426   2.498  0.4744  0.1995  0.7943
 5533TIP3    H238091   0.188   4.287   2.461  0.2704  0.0427  1.6267
 5534TIP3   OH238092   0.928   5.051  10.314  0.1178 -0.2240  0.1465
 5534TIP3    H138093   0.843   5.092  10.299  1.3039  2.2390 -0.2565
 5534TIP3    H238094   0.989   5.102  10.262  2.3136  0.0090  2.7217
 5535TIP3   OH238095   1.565   2.024  14.116  0.4175 -0.5080  0.3374
 5535TIP3    H138096   1.650   2.059  14.142  0.3096 -0.2363  0.3229
 5535TIP3    H238097   1.502   2.066  14.174  0.2884 -0.6815  0.3249
 5536TIP3   OH238098   3.101   0.849   3.906 -0.4354 -0.7343  0.3972
 5536TIP3    H138099   3.177   0.848   3.964  1.3338 -0.0340 -1.7774
 5536TIP3    H238100   3.105   0.766   3.859 -0.2987 -0.1904 -0.5791
 5537TIP3   OH238101   3.726   2.351   3.410  0.2033 -0.2604  0.5576
 5537TIP3    H138102   3.816   2.382   3.422 -0.2828  1.3074  0.4162
 5537TIP3    H238103   3.722   2.326   3.317  0.3169  0.2967  0.3981
 5538TIP3   OH238104   0.663   4.010  11.936 -0.0523  0.2227 -0.2917
 5538TIP3    H138105   0.663   4.104  11.954  0.3179  0.0929  0.4351
 5538TIP3    H238106   0.572   3.990  11.914 -0.0808  0.7971 -0.6979
 5539TIP3   OH238107   5.355   4.303  12.256 -0.0889  0.4472  0.2926
 5539TIP3    H138108   5.354   4.257  12.172  0.5836  1.8606 -0.5333
 5539TIP3    H238109   5.441   4.345  12.258 -0.7290  1.7827  0.9196
 5540TIP3   OH238110   4.762   4.888   3.275 -0.1084 -0.1019  0.0108
 5540TIP3    H138111   4.782   4.839   3.195  1.6228 -0.8345  0.8556
 5540TIP3    H238112   4.698   4.833   3.320  0.5227 -0.7602  0.1299
 5541TIP3   OH238113   5.417   2.764  11.780 -0.6237  0.6584 -0.6417
 5541TIP3    H138114   5.502   2.720  11.773 -1.4903 -1.0818 -0.5147
 5541TIP3    H238115   5.367   2.711  11.841 -1.3122  2.5213  0.5114
 5542TIP3   OH238116   4.305   1.782  13.004 -0.1063 -0.4231 -0.0712
 5542TIP3    H138117   4.215   1.778  13.036  0.4702  0.1966  1.7572
 5542TIP3    H238118   4.316   1.872  12.972  0.0495 -0.3111  0.2962
 5543TIP3   OH238119   2.267   5.607  13.368 -0.2885 -0.4284  0.0298
 5543TIP3    H138120   2.211   5.670  13.324  2.1679  1.9629  0.0909
 5543TIP3    H238121   2.266   5.633  13.460  3.4977  2.0883 -0.3960
 5544TIP3   OH238122   6.629   2.951   0.554 -0.1245  0.1057 -0.5484
 5544TIP3    H138123   6.581   2.927   0.634  2.3305 -0.7681  0.7865
 5544TIP3    H238124   6.717   2.972   0.585  1.2216 -1.2644 -3.1238
 5545TIP3   OH238125   2.378   5.424   0.005  0.3913 -0.3457  0.7581
 5545TIP3    H138126   2.367   5.485   0.077  0.9352 -0.2116  0.7268
 5545TIP3    H238127   2.468   5.436  -0.025 -0.4501  1.2437 -1.4485
 5546TIP3   OH238128   4.193   6.778   1.263  0.3414 -0.2960  0.1434
 5546TIP3    H138129   4.162   6.695   1.225  0.7821 -0.2677 -0.2814
 5546TIP3    H238130   4.121   6.805   1.320  0.5440 -1.4063  0.9630
 5547TIP3   OH238131   3.048   6.267   5.920  0.3977 -0.2078 -0.0184
 5547TIP3    H138132   2.967   6.239   5.963  0.4281 -0.3235 -0.0379
 5547TIP3    H238133   3.029   6.357   5.891  0.2662 -0.2439 -0.0477
 5548TIP3   OH238134   0.217   4.125   3.167 -0.2764  0.5855 -0.1588
 5548TIP3    H138135   0.278   4.198   3.160 -0.3491  0.5264 -1.8090
 5548TIP3    H238136   0.196   4.102   3.076 -0.8540 -0.9830  0.3338
 5549TIP3   OH238137   5.886   6.479  13.601 -0.0529 -0.2354  0.0979
 5549TIP3    H138138   5.965   6.426  13.585  1.2246  1.9224 -1.2185
 5549TIP3    H238139   5.913   6.568  13.581 -2.8464  0.6160 -0.2769
 5550TIP3   OH238140   3.495   5.391  15.091  0.2310  0.0064  0.5057
 5550TIP3    H138141   3.543   5.367  15.012  1.1307  0.0386  1.0314
 5550TIP3    H238142   3.408   5.353  15.079  1.2583 -2.6153  0.8142
 5551TIP3   OH238143   1.637   1.724  14.664 -0.2719  0.1667  0.3066
 5551TIP3    H138144   1.584   1.794  14.700  1.3864  1.8170 -0.2903
 5551TIP3    H238145   1.585   1.689  14.592 -0.9511  1.1142  0.3203
 5552TIP3   OH238146   0.227   4.724  10.232 -0.4335 -0.4305  0.3235
 5552TIP3    H138147   0.155   4.772  10.192 -0.5776  2.3096  3.3976
 5552TIP3    H238148   0.301   4.786  10.230  0.6811 -1.7081  0.6342
 5553TIP3   OH238149   2.713   4.129  13.833  0.1911 -0.0972 -0.2560
 5553TIP3    H138150   2.712   4.165  13.745  1.2574  0.3478 -0.0904
 5553TIP3    H238151   2.628   4.153  13.870 -0.1011  0.0539 -1.0200
 5554TIP3   OH238152   0.873   2.787   1.408 -0.0429  0.0655 -0.0933
 5554TIP3    H138153   0.848   2.841   1.483  0.6969 -0.4808  0.5499
 5554TIP3    H238154   0.940   2.727   1.441  1.4061  0.8008 -1.5301
 5555TIP3   OH238155   2.057   1.700   5.289 -0.0576 -0.8634 -0.2191
 5555TIP3    H138156   2.124   1.680   5.223 -1.0196 -1.5721 -1.0055
 5555TIP3    H238157   2.020   1.783   5.260  2.2399  0.9842  1.6896
 5556TIP3   OH238158   3.914   3.107  11.640 -0.9032 -0.3510  0.3269
 5556TIP3    H138159   3.895   3.072  11.727 -2.2396 -0.1581  0.1311
 5556TIP3    H238160   3.979   3.047  11.604  2.2964  1.4029  2.6886
 5557TIP3   OH238161   4.157   5.799   0.383 -0.1658  0.0451 -0.2837
 5557TIP3    H138162   4.132   5.710   0.358 -0.1345 -0.1235  0.2700
 5557TIP3    H238163   4.221   5.825   0.317 -0.4582 -0.1974 -0.6679
 5558TIP3   OH238164   1.250   3.004   4.665 -0.6416 -0.0437 -0.4665
 5558TIP3    H138165   1.313   3.074   4.685 -0.1094 -0.2826 -1.2286
 5558TIP3    H238166   1.251   2.948   4.742 -0.2080  0.1718 -0.3096
 5559TIP3   OH238167   0.883   0.610   1.435 -0.2556 -0.5885 -0.1393
 5559TIP3    H138168   0.958   0.628   1.377 -0.9056 -1.7280 -1.3674
 5559TIP3    H238169   0.921   0.611   1.523  1.5398 -2.6046 -0.8105
 5560TIP3   OH238170   4.128   3.866  11.680  0.4899  0.3521  0.3941
 5560TIP3    H138171   4.211   3.821  11.666  0.7273  0.9296 -0.1665
 5560TIP3    H238172   4.143   3.954  11.643 -0.8906 -0.0636 -1.2968
 5561TIP3   OH238173   1.052   0.959   4.002 -0.0042  0.5443 -0.0689
 5561TIP3    H138174   1.061   0.876   3.955  1.8623 -0.3117  1.6288
 5561TIP3    H238175   0.958   0.965   4.020 -0.2155 -1.1544 -0.3598
 5562TIP3   OH238176   4.714   1.789  13.242  0.1645  0.2163 -0.0506
 5562TIP3    H138177   4.646   1.753  13.185  0.6381 -0.3983 -0.2333
 5562TIP3    H238178   4.711   1.734  13.320  1.5033 -0.8218 -0.7026
 5563TIP3   OH238179   3.184   0.919  14.076 -0.0409  0.3524 -0.0006
 5563TIP3    H138180   3.125   0.964  14.015  0.2692  0.1390 -0.4643
 5563TIP3    H238181   3.197   0.832  14.038  0.5187  0.3741  0.1286
 5564TIP3   OH238182   4.762   0.646  15.789 -0.3265 -0.0599 -0.2049
 5564TIP3    H138183   4.714   0.679  15.713  0.2762 -2.5783 -1.8112
 5564TIP3    H238184   4.699   0.652  15.862 -1.3575  1.2344 -1.1645
 5565TIP3   OH238185   5.559   0.237  11.601 -0.0048 -0.4143 -0.1838
 5565TIP3    H138186   5.651   0.233  11.625 -0.4304  0.0604  1.7165
 5565TIP3    H238187   5.525   0.312  11.649 -0.6699  1.7289 -3.6202
 5566TIP3   OH238188   1.736   6.230   4.331 -0.0620  0.7245  0.1013
 5566TIP3    H138189   1.659   6.277   4.300 -1.0998 -0.3158  0.9968
 5566TIP3    H238190   1.744   6.256   4.423  1.2122  1.5047 -0.2049
 5567TIP3   OH238191   0.512   6.459   0.546  0.3723  0.2440 -0.7232
 5567TIP3    H138192   0.470   6.536   0.584 -0.3434  0.1339 -1.2660
 5567TIP3    H238193   0.444   6.419   0.491  0.1762 -1.7107  0.8451
 5568TIP3   OH238194   1.197   4.161  13.809  0.2808  0.0020  0.0381
 5568TIP3    H138195   1.241   4.146  13.725 -0.1502  1.3176 -0.4450
 5568TIP3    H238196   1.255   4.221  13.856 -0.2875  0.6195 -0.0286
 5569TIP3   OH238197   4.710   3.443   0.622  0.1577  0.5916 -0.4489
 5569TIP3    H138198   4.715   3.539   0.618  1.3526  0.5041 -1.4950
 5569TIP3    H238199   4.770   3.413   0.554  0.5011 -0.9134  0.4744
 5570TIP3   OH238200   5.652   3.773  15.402 -0.3299 -0.0650 -0.5182
 5570TIP3    H138201   5.568   3.817  15.387 -0.2299 -0.1535 -1.4204
 5570TIP3    H238202   5.638   3.684  15.371 -0.0303 -0.2004 -0.2662
 5571TIP3   OH238203   3.592   4.256  14.912  0.7652  0.6632 -0.3442
 5571TIP3    H138204   3.642   4.321  14.863 -0.6441  1.5384 -0.6907
 5571TIP3    H238205   3.536   4.214  14.846 -2.9262  3.4819  0.6318
 5572TIP3   OH238206   5.846   5.238   1.778 -0.7890 -0.3788 -0.2116
 5572TIP3    H138207   5.782   5.265   1.712 -1.7518 -1.5910  0.1896
 5572TIP3    H238208   5.862   5.146   1.759  0.9618 -0.0855 -0.3696
 5573TIP3   OH238209   4.531   0.755  12.802  0.2119  0.1967 -0.2315
 5573TIP3    H138210   4.623   0.770  12.778  0.1204 -0.5810 -1.1407
 5573TIP3    H238211   4.493   0.712  12.725 -0.1508 -2.3014  1.2287
 5574TIP3   OH238212   0.426   0.515  14.362  0.1246  0.2224 -0.1667
 5574TIP3    H138213   0.368   0.590  14.345  1.0451  0.8844 -0.5135
 5574TIP3    H238214   0.381   0.441  14.322 -2.0761  0.0248  2.3978
 5575TIP3   OH238215   6.683   0.197  12.265  0.2766  0.0291 -0.2376
 5575TIP3    H138216   6.691   0.292  12.258 -0.1793  0.0470 -0.5605
 5575TIP3    H238217   6.772   0.167  12.284  0.2851  0.5831  0.6620
 5576TIP3   OH238218   1.544   0.357  14.535  0.0748 -0.0688 -0.1737
 5576TIP3    H138219   1.623   0.401  14.505 -0.3062  1.1061  0.4517
 5576TIP3    H238220   1.485   0.429  14.560  0.0972 -0.8963  2.6077
 5577TIP3   OH238221   3.855   0.048   4.980 -0.2983 -0.0855 -0.1606
 5577TIP3    H138222   3.788   0.116   4.982  0.4131  0.6194  1.0712
 5577TIP3    H238223   3.924   0.084   4.925 -0.2664 -0.1505 -0.1639
 5578TIP3   OH238224   0.093   5.359  12.804 -0.3599  0.3418 -0.2191
 5578TIP3    H138225   0.151   5.398  12.870 -1.1010 -1.1451  1.4111
 5578TIP3    H238226   0.011   5.343  12.852 -0.6999 -1.4251 -1.3203
 5579TIP3   OH238227   1.820   5.197   5.813  0.8762 -0.1678  0.2333
 5579TIP3    H138228   1.906   5.218   5.778  1.2475 -2.1072 -0.1463
 5579TIP3    H238229   1.777   5.150   5.742 -0.7716  1.3092  0.1845
 5580TIP3   OH238230   2.473   5.166   0.573 -0.4656  0.2552 -0.1928
 5580TIP3    H138231   2.468   5.138   0.482  0.7926  1.1560 -0.5742
 5580TIP3    H238232   2.445   5.258   0.571 -0.2275  0.3406  0.2958
 5581TIP3   OH238233   3.593   4.325  12.443  0.2644  0.1813 -0.7544
 5581TIP3    H138234   3.565   4.300  12.355 -0.4011 -2.6439  0.1550
 5581TIP3    H238235   3.512   4.342  12.490  0.6120  1.5445 -0.5841
 5582TIP3   OH238236   2.319   4.046  12.714 -0.0791 -0.2361 -0.2411
 5582TIP3    H138237   2.341   4.049  12.807  0.1780 -0.9118 -0.2694
 5582TIP3    H238238   2.403   4.044  12.669 -0.1651  2.0484 -0.6059
 5583TIP3   OH238239   1.428   2.252  12.792  0.2186 -0.1461  0.2301
 5583TIP3    H138240   1.478   2.255  12.711 -2.2156  0.0104 -1.3531
 5583TIP3    H238241   1.412   2.159  12.808 -2.5392 -0.1270 -1.7029
 5584TIP3   OH238242   0.209   0.292   5.890  0.1099  0.0077 -0.4074
 5584TIP3    H138243   0.287   0.282   5.837  0.5194 -0.3325  0.2398
 5584TIP3    H238244   0.230   0.362   5.952 -0.4684  0.6044 -0.8744
 5585TIP3   OH238245   5.914   4.302  10.117 -0.2151  0.4388 -0.4994
 5585TIP3    H138246   5.972   4.378  10.111 -0.4341  0.8144  1.4565
 5585TIP3    H238247   5.917   4.262  10.030  2.0059  1.1463 -0.7972
 5586TIP3   OH238248   2.187   5.411   1.682  0.2707  0.1760  0.0405
 5586TIP3    H138249   2.221   5.385   1.596 -2.4614 -2.7191 -0.3494
 5586TIP3    H238250   2.192   5.332   1.735 -1.1813  0.9646  1.4396
 5587TIP3   OH238251   4.745   2.065   1.506  0.0778 -0.0289  0.4291
 5587TIP3    H138252   4.831   2.086   1.470 -0.3929 -0.0892 -0.7624
 5587TIP3    H238253   4.732   1.973   1.485 -1.0507  0.4383 -1.0564
 5588TIP3   OH238254   0.022   2.888   4.949  0.6122 -0.2207  0.5472
 5588TIP3    H138255  -0.012   2.958   4.893 -0.6175 -1.1070  0.1334
 5588TIP3    H238256  -0.048   2.872   5.011  1.3005 -0.4008  1.2891
 5589TIP3   OH238257   5.999   2.945   3.679 -1.0846 -0.0310  0.3608
 5589TIP3    H138258   6.019   2.904   3.763  2.4072  0.0417 -0.2821
 5589TIP3    H238259   6.068   3.009   3.666 -2.1759  0.7783 -2.0642
 5590TIP3   OH238260   4.483   1.663  14.982  1.1077  0.4243 -0.2772
 5590TIP3    H138261   4.459   1.680  14.891  0.3412  0.3519 -0.0971
 5590TIP3    H238262   4.555   1.599  14.977  0.3143 -0.4472 -0.8053
 5591TIP3   OH238263   4.528   2.132  11.170 -0.0263  0.4372 -0.3903
 5591TIP3    H138264   4.508   2.098  11.083  0.9670  0.2182 -0.5359
 5591TIP3    H238265   4.612   2.178  11.160 -0.3086  1.1295  0.2669
 5592TIP3   OH238266   4.597   0.788  14.048  0.3462 -0.3014 -0.0946
 5592TIP3    H138267   4.681   0.745  14.066  1.2612  1.5689  0.3434
 5592TIP3    H238268   4.599   0.805  13.953  0.5297 -0.1470 -0.0643
 5593TIP3   OH238269   3.907   0.435   1.664  0.4740  0.7082  0.2935
 5593TIP3    H138270   3.992   0.406   1.696  2.4669  2.1671 -3.1740
 5593TIP3    H238271   3.880   0.367   1.603 -1.6169 -0.3755  2.2636
 5594TIP3   OH238272   5.990   2.279  15.473  0.2060 -0.2824  0.4358
 5594TIP3    H138273   6.058   2.231  15.520 -0.0883 -0.8406  0.3004
 5594TIP3    H238274   5.932   2.311  15.542  1.2482  1.2550  0.6583
 5595TIP3   OH238275   6.604   5.164   4.753  0.0169 -0.0126  0.5957
 5595TIP3    H138276   6.572   5.093   4.697  0.3722 -0.3034  0.7536
 5595TIP3    H238277   6.553   5.240   4.726  0.6088  0.0022 -0.5573
 5596TIP3   OH238278   0.570   3.923   2.140  0.2217  0.3980 -0.1234
 5596TIP3    H138279   0.602   3.904   2.228 -0.0092  1.6478  0.2606
 5596TIP3    H238280   0.546   3.838   2.103 -0.4827 -0.0571  1.3337
 5597TIP3   OH238281   6.110   2.589  14.131 -0.1858 -0.1767  1.0569
 5597TIP3    H138282   6.057   2.559  14.058 -0.9433  1.1226  1.0494
 5597TIP3    H238283   6.117   2.684  14.119  0.1729 -0.0218  2.3329
 5598TIP3   OH238284   6.656   2.430  12.482 -0.6639  0.6681 -0.1679
 5598TIP3    H138285   6.673   2.520  12.510  0.2004  0.3154  0.4658
 5598TIP3    H238286   6.611   2.390  12.556  0.1565  0.1987  0.0829
 5599TIP3   OH238287   3.909   2.655   3.305 -0.1737  0.1008  0.3100
 5599TIP3    H138288   3.903   2.678   3.212  1.3521 -0.4778  0.0412
 5599TIP3    H238289   3.989   2.698   3.336  0.3473 -1.2104  0.8734
 5600TIP3   OH238290   5.496   6.266   1.856  0.2144  0.0476  0.1976
 5600TIP3    H138291   5.553   6.331   1.815  0.3211  0.6178  1.1940
 5600TIP3    H238292   5.416   6.268   1.804 -0.0377  1.4821  0.5804
 5601TIP3   OH238293   0.005   5.857   6.274  0.1471  0.1429 -0.0915
 5601TIP3    H138294  -0.082   5.895   6.260  0.3335  0.2079 -1.1676
 5601TIP3    H238295  -0.010   5.762   6.269  0.3850  0.1630 -2.1371
 5602TIP3   OH238296   6.111   6.721   0.978 -0.2698 -0.7471  0.6325
 5602TIP3    H138297   6.111   6.716   1.074  0.2482 -0.0105  0.6853
 5602TIP3    H238298   6.124   6.631   0.949 -0.9538 -1.0538  1.2443
 5603TIP3   OH238299   3.925   0.285   3.782  0.5288 -0.1461 -0.5476
 5603TIP3    H138300   3.929   0.320   3.871  1.6924  0.8582 -0.9637
 5603TIP3    H238301   3.990   0.214   3.782 -0.7612 -1.3858 -0.1262
 5604TIP3   OH238302   5.733   3.108   0.458 -0.6867 -0.2254  0.3579
 5604TIP3    H138303   5.681   3.028   0.470 -1.4812  0.2141 -0.0863
 5604TIP3    H238304   5.772   3.098   0.371 -1.9224  0.4906 -0.2983
 5605TIP3   OH238305   6.779   3.670  12.670 -0.1418 -0.1582  0.2843
 5605TIP3    H138306   6.791   3.629  12.756 -2.5620 -0.3030  0.6400
 5605TIP3    H238307   6.771   3.763  12.688 -2.0144 -0.3175  0.4359
 5606TIP3   OH238308   5.560   0.605  14.626  0.3995  0.6606 -0.2380
 5606TIP3    H138309   5.465   0.610  14.618  0.3954 -0.7463 -1.6051
 5606TIP3    H238310   5.593   0.671  14.565  0.2664 -1.2375 -2.4922
 5607TIP3   OH238311   0.341   3.593  16.415  0.0485  1.0916 -0.4198
 5607TIP3    H138312   0.274   3.603  16.483  0.3438  0.1400  0.0268
 5607TIP3    H238313   0.418   3.560  16.461 -0.1510 -0.8769 -1.3919
 5608TIP3   OH238314   1.216   5.678   6.000 -0.2153 -0.0816  0.7901
 5608TIP3    H138315   1.241   5.588   6.022 -0.2111 -0.0210  1.0475
 5608TIP3    H238316   1.213   5.723   6.085  0.2175  0.2709  0.6251
 5609TIP3   OH238317   2.384   5.961  11.621 -0.6620 -0.1261 -0.3280
 5609TIP3    H138318   2.413   6.031  11.562 -0.5786  0.3942  0.3182
 5609TIP3    H238319   2.324   5.908  11.568 -2.9034  1.9796 -0.1038
 5610TIP3   OH238320   4.265   4.463   4.729 -0.3115  0.4457 -0.3479
 5610TIP3    H138321   4.260   4.439   4.821 -0.6857  0.2913 -0.4070
 5610TIP3    H238322   4.182   4.507   4.711 -1.1501 -1.3600 -1.1211
 5611TIP3   OH238323   4.221   4.900   3.320  0.4788  0.3497  0.1211
 5611TIP3    H138324   4.293   4.955   3.350  2.5175 -1.9386 -0.2672
 5611TIP3    H238325   4.211   4.921   3.227  1.1172  0.2150  0.0187
 5612TIP3   OH238326   3.185   6.333  15.814 -0.0707 -0.0849  0.3532
 5612TIP3    H138327   3.206   6.336  15.721  2.7238 -0.1299  0.9058
 5612TIP3    H238328   3.151   6.420  15.834 -0.0437  0.1406 -0.5661
 5613TIP3   OH238329   6.687   2.765   2.148  0.5997  0.3164  0.0812
 5613TIP3    H138330   6.772   2.800   2.122  1.0324 -0.1763  0.7909
 5613TIP3    H238331   6.708   2.695   2.209 -0.3921  2.5566  3.2106
 5614TIP3   OH238332   4.519   3.983  16.676  0.2454 -0.2632 -0.2262
 5614TIP3    H138333   4.565   3.979  16.592  0.6561 -0.7822  0.0152
 5614TIP3    H238334   4.523   3.893  16.710  1.8035  0.3086  1.2540
 5615TIP3   OH238335   5.479   0.293   4.226  0.3411 -0.2359 -0.0271
 5615TIP3    H138336   5.567   0.256   4.222  0.5894  0.4023 -2.8267
 5615TIP3    H238337   5.425   0.230   4.178 -0.4011  0.2065  0.2042
 5616TIP3   OH238338   0.314   3.607  11.904  0.1902 -0.2358  0.5782
 5616TIP3    H138339   0.267   3.679  11.864  1.4314  0.3880  0.1958
 5616TIP3    H238340   0.397   3.602  11.855  1.5734  0.2558  2.7160
 5617TIP3   OH238341   4.243   0.185  14.866 -0.7053  0.8281  0.3034
 5617TIP3    H138342   4.259   0.279  14.854 -2.3279  1.0735 -0.1478
 5617TIP3    H238343   4.190   0.160  14.790  0.1125 -0.5852  0.1554
 5618TIP3   OH238344   0.276   1.028  14.359 -0.1454  0.1014  0.4203
 5618TIP3    H138345   0.185   1.003  14.379 -0.3496 -0.0135 -0.5632
 5618TIP3    H238346   0.328   0.953  14.387 -0.2315  0.5784  1.9223
 5619TIP3   OH238347   1.501   5.926  11.851 -0.1495 -0.0607 -0.2697
 5619TIP3    H138348   1.558   5.959  11.781  0.2151  0.9238  0.4590
 5619TIP3    H238349   1.449   6.002  11.877 -0.0709 -0.3265  0.7194
 5620TIP3   OH238350   1.913   3.226   3.764 -0.4978  0.3619  0.3262
 5620TIP3    H138351   1.873   3.246   3.679  0.5143 -0.8596 -0.4708
 5620TIP3    H238352   2.004   3.253   3.754  0.5862 -3.0454 -0.3198
 5621TIP3   OH238353   4.137   4.733  15.206 -0.5308 -0.1656 -0.3567
 5621TIP3    H138354   4.066   4.706  15.265  0.5515 -2.0037  0.2025
 5621TIP3    H238355   4.146   4.827  15.221 -0.6623 -0.4771  2.0446
 5622TIP3   OH238356   0.307   5.130  16.119 -0.4112 -0.0402 -0.2331
 5622TIP3    H138357   0.264   5.153  16.037 -0.0783  3.4441  0.4124
 5622TIP3    H238358   0.399   5.120  16.097 -0.5277 -0.5952 -0.4880
 5623TIP3   OH238359   0.582   2.249  12.384 -0.6408 -0.0338  0.1029
 5623TIP3    H138360   0.517   2.320  12.387 -1.0193 -0.4000  0.9754
 5623TIP3    H238361   0.578   2.209  12.471  1.1490  0.2770  0.3646
 5624TIP3   OH238362   4.614   4.713  11.808 -0.4857 -0.3174  0.3826
 5624TIP3    H138363   4.612   4.704  11.712 -0.6602  0.1905  0.3370
 5624TIP3    H238364   4.687   4.657  11.835 -0.5044 -0.5553 -0.0358
 5625TIP3   OH238365   0.660   0.956  14.492  0.1142 -0.4457  0.5668
 5625TIP3    H138366   0.656   0.915  14.578  0.6029 -1.8353 -0.0414
 5625TIP3    H238367   0.660   0.883  14.430 -0.0597  0.5112 -0.6176
 5626TIP3   OH238368   1.957   3.185   4.823 -0.0217  0.0885 -0.2359
 5626TIP3    H138369   1.921   3.126   4.889 -0.9612  0.2633 -0.5721
 5626TIP3    H238370   1.982   3.264   4.872 -1.5801  0.5869 -0.1946
 5627TIP3   OH238371   6.856   6.561   3.325  0.1057  0.5942 -0.5305
 5627TIP3    H138372   6.927   6.615   3.358 -0.3583  0.3935  0.8571
 5627TIP3    H238373   6.786   6.571   3.389 -0.6430 -0.2359 -1.1878
 5628TIP3   OH238374   0.974   5.186  12.807 -0.0603  0.0433 -0.2860
 5628TIP3    H138375   1.063   5.153  12.820 -0.6642 -1.5294  0.1310
 5628TIP3    H238376   0.926   5.158  12.885 -1.3235 -0.6609 -1.2600
 5629TIP3   OH238377   1.753   6.442   4.056  0.4037 -0.2752 -0.0875
 5629TIP3    H138378   1.698   6.476   3.985 -1.6244 -0.1082  1.4813
 5629TIP3    H238379   1.773   6.352   4.029  0.1679 -0.0386 -1.1156
 5630TIP3   OH238380   4.917   6.353  11.629 -0.2916  0.0398 -0.6011
 5630TIP3    H138381   4.992   6.303  11.660  0.6534  1.3287 -0.7023
 5630TIP3    H238382   4.877   6.298  11.561 -1.9306 -2.4826  2.1444
 5631TIP3   OH238383   4.788   0.993  15.549 -0.3254 -0.8941  0.3223
 5631TIP3    H138384   4.868   0.961  15.508 -0.2563  0.7684 -0.9695
 5631TIP3    H238385   4.757   1.062  15.490 -2.2621 -0.9245  1.2201
 5632TIP3   OH238386   0.332   5.256   1.632  0.5693  0.1666 -0.3143
 5632TIP3    H138387   0.371   5.255   1.545 -0.6706  0.2271 -0.8841
 5632TIP3    H238388   0.242   5.285   1.619  0.4812  0.6119  1.0442
 5633TIP3   OH238389   3.187   1.936   5.428 -0.5395  0.3744  0.6346
 5633TIP3    H138390   3.271   1.970   5.397 -1.1106  0.7415 -0.5534
 5633TIP3    H238391   3.187   1.954   5.522  0.6361  0.5227  0.6105
 5634TIP3   OH238392   2.278   6.694   2.249  0.2156  0.2111  0.4506
 5634TIP3    H138393   2.213   6.633   2.213  0.4742  0.2727 -0.1218
 5634TIP3    H238394   2.352   6.639   2.274 -0.0367  0.1437  1.0869
 5635TIP3   OH238395   5.018   1.203  17.076 -0.1574  0.6610  0.1832
 5635TIP3    H138396   5.014   1.177  16.984  2.8254  1.6256 -0.3213
 5635TIP3    H238397   4.940   1.163  17.115  0.5492 -3.3221 -1.8728
 5636TIP3   OH238398   1.062   3.313   3.078 -0.0066  0.2409  0.5024
 5636TIP3    H138399   1.120   3.240   3.053 -0.6347  0.0861 -0.5972
 5636TIP3    H238400   1.020   3.284   3.159  1.9604  0.6595  1.7305
 5637TIP3   OH238401   4.107   5.251   0.622 -0.5838 -0.0889  0.1765
 5637TIP3    H138402   4.100   5.194   0.546  1.2661  1.6462 -1.3975
 5637TIP3    H238403   4.130   5.193   0.694  0.8160 -1.4072 -1.2755
 5638TIP3   OH238404   4.310   4.647  13.394  0.0520  0.0528 -0.2813
 5638TIP3    H138405   4.377   4.608  13.338 -2.5055  0.4259 -4.0069
 5638TIP3    H238406   4.228   4.607  13.364 -1.8035  2.3220  1.3894
 5639TIP3   OH238407   3.024   4.740  12.165  0.0791  0.2956 -0.0036
 5639TIP3    H138408   2.992   4.826  12.138 -1.6256  0.0400  1.0749
 5639TIP3    H238409   2.947   4.683  12.163  0.7229 -0.6837  1.3776
 5640TIP3   OH238410   5.339   6.029   0.516  0.1023 -0.4314 -0.0456
 5640TIP3    H138411   5.419   6.082   0.513 -0.3019  0.1666 -2.6723
 5640TIP3    H238412   5.283   6.073   0.580  0.2332  1.6630 -1.3103
 5641TIP3   OH238413   1.638   3.646  16.640  0.4492 -0.1061 -0.2643
 5641TIP3    H138414   1.594   3.644  16.555 -1.8775  2.5944  0.7212
 5641TIP3    H238415   1.617   3.562  16.680  0.6725 -0.9828 -1.8895
 5642TIP3   OH238416   6.705   2.261  13.068 -0.0255  0.1431 -0.0464
 5642TIP3    H138417   6.653   2.206  13.126  1.8021 -3.3513 -1.4185
 5642TIP3    H238418   6.678   2.236  12.980  3.5612 -1.7249 -0.8206
 5643TIP3   OH238419   1.000   1.648  12.163  0.0246  0.1936  0.2096
 5643TIP3    H138420   0.918   1.638  12.116 -0.1704 -0.0835  0.5993
 5643TIP3    H238421   0.974   1.673  12.252  0.3607  0.1379  0.3266
 5644TIP3   OH238422   2.077   5.092   2.512 -0.1045  0.4538 -0.1878
 5644TIP3    H138423   2.090   5.044   2.430 -0.5430  0.0146 -0.0112
 5644TIP3    H238424   2.131   5.170   2.503  0.7420 -0.1432 -0.4245
 5645TIP3   OH238425   5.847   4.010   1.918 -0.2542 -0.0314  0.1918
 5645TIP3    H138426   5.888   4.016   2.004 -0.7104  0.3552  0.3898
 5645TIP3    H238427   5.756   4.038   1.933 -0.3508 -0.0128 -0.4028
 5646TIP3   OH238428   1.552   6.556   1.967  0.3233 -0.0880  0.1171
 5646TIP3    H138429   1.481   6.586   2.023  0.8570  0.3632  0.5637
 5646TIP3    H238430   1.550   6.615   1.891  0.0127 -0.2921 -0.0374
 5647TIP3   OH238431   2.809   3.192  15.467  0.2769  0.3271 -0.3442
 5647TIP3    H138432   2.783   3.113  15.420  0.3256  0.8265 -1.2339
 5647TIP3    H238433   2.760   3.262  15.425 -0.5598  0.6626  1.0978
 5648TIP3   OH238434   5.045   3.438   1.674 -0.5624  0.4121  0.1449
 5648TIP3    H138435   4.965   3.414   1.722 -1.2823 -1.6495 -1.8927
 5648TIP3    H238436   5.113   3.439   1.741 -1.7444 -0.9342  1.4639
 5649TIP3   OH238437   2.836   3.073  12.953  0.0640  0.1148  0.7730
 5649TIP3    H138438   2.894   3.091  12.879 -1.1095 -1.5115 -0.6443
 5649TIP3    H238439   2.794   3.157  12.971  0.7849  0.6711 -0.0356
 5650TIP3   OH238440   0.296   4.164  13.013 -0.1176 -0.0702 -0.6061
 5650TIP3    H138441   0.261   4.239  12.966 -1.7087 -0.2232  0.2612
 5650TIP3    H238442   0.236   4.092  12.992  1.5394 -1.2092 -1.6528
 5651TIP3   OH238443   2.324   6.123   5.241  0.5706  0.4872  0.3081
 5651TIP3    H138444   2.276   6.045   5.270 -3.2997  2.6267  0.4028
 5651TIP3    H238445   2.363   6.098   5.157  1.4128 -2.1204  1.3823
 5652TIP3   OH238446   6.023   0.369  14.536  0.5992  0.0962 -0.6354
 5652TIP3    H138447   6.008   0.282  14.572  1.2640  1.2473  2.7285
 5652TIP3    H238448   5.940   0.415  14.550 -0.1102 -0.1421 -3.3266
 5653TIP3   OH238449   6.694   1.768  16.160  0.1375 -0.0333 -0.3630
 5653TIP3    H138450   6.627   1.836  16.167 -0.8771 -0.7931 -2.0914
 5653TIP3    H238451   6.649   1.687  16.187  1.0658 -0.1933  0.7749
 5654TIP3   OH238452   6.084   0.062  14.791 -0.5109 -0.8603  0.0264
 5654TIP3    H138453   6.027  -0.009  14.819 -2.3259  0.6392  0.3390
 5654TIP3    H238454   6.035   0.142  14.810  0.2758  0.4366 -2.7653
 5655TIP3   OH238455   3.184   3.785  12.550  0.5157  0.0984  0.3637
 5655TIP3    H138456   3.271   3.815  12.521 -0.0656  1.0871 -0.4325
 5655TIP3    H238457   3.148   3.740  12.474  0.2094 -0.0427  0.5903
 5656TIP3   OH238458   6.578   1.318  14.381  0.1867 -0.1237  0.4489
 5656TIP3    H138459   6.645   1.384  14.365 -0.7800  0.5579 -1.0343
 5656TIP3    H238460   6.497   1.357  14.346 -0.5780 -1.7603  0.2762
 5657TIP3   OH238461   1.628   3.164  13.719 -0.0885  0.1972 -0.0405
 5657TIP3    H138462   1.705   3.107  13.727 -0.1448 -0.1751 -1.7652
 5657TIP3    H238463   1.615   3.199  13.807  1.9620  0.1358  0.3404
 5658TIP3   OH238464   1.042   1.476  16.973  0.2358 -0.3517 -0.2482
 5658TIP3    H138465   0.959   1.468  16.925 -0.0907 -0.1596  0.2812
 5658TIP3    H238466   1.017   1.511  17.058  0.9348  0.3621 -0.3278
 5659TIP3   OH238467   2.648   3.297  12.231 -0.0255  0.3406 -0.0989
 5659TIP3    H138468   2.614   3.313  12.142 -1.5690  1.0763  0.5788
 5659TIP3    H238469   2.578   3.327  12.288  1.3523  0.8073  1.3983
 5660TIP3   OH238470   2.553   6.787   5.148 -0.4086 -0.0663  0.4065
 5660TIP3    H138471   2.560   6.807   5.241  1.2118 -0.9958  0.5158
 5660TIP3    H238472   2.594   6.701   5.138 -0.0756  0.2398 -1.2429
 5661TIP3   OH238473   4.012   1.025  14.638 -0.2516  0.6044 -0.1276
 5661TIP3    H138474   3.927   1.067  14.649  0.2035  1.4392  0.3420
 5661TIP3    H238475   4.015   1.001  14.546 -1.6796 -0.9975  0.1832
 5662TIP3   OH238476   3.901   5.000   0.878  0.4048  1.2500 -0.2429
 5662TIP3    H138477   3.963   4.937   0.843 -2.7441 -1.2622 -1.8093
 5662TIP3    H238478   3.889   4.974   0.969 -2.2074 -1.8781 -1.3065
 5663TIP3   OH238479   0.569   4.403  14.747 -0.3394 -0.4731 -0.0537
 5663TIP3    H138480   0.551   4.481  14.800  2.0746 -0.7384  1.2796
 5663TIP3    H238481   0.534   4.330  14.798 -0.1237 -0.5113  0.0400
 5664TIP3   OH238482   5.998   6.769  12.437  0.1032 -0.1909 -0.1030
 5664TIP3    H138483   6.032   6.856  12.459 -3.2704  1.3806 -0.4568
 5664TIP3    H238484   6.044   6.745  12.356  0.8553  1.4235 -0.2030
 5665TIP3   OH238485   5.359   2.659  14.965  0.3758 -0.5317  0.0489
 5665TIP3    H138486   5.362   2.716  15.041  0.1958 -0.7808  0.2450
 5665TIP3    H238487   5.377   2.571  15.000 -0.8237 -0.8208 -0.0178
 5666TIP3   OH238488   5.093   4.060  14.220  0.2761 -0.6624 -0.4319
 5666TIP3    H138489   5.171   4.053  14.165  0.7803 -1.2004  0.3254
 5666TIP3    H238490   5.126   4.054  14.309 -0.4924  0.5495 -0.0429
 5667TIP3   OH238491   6.509   1.430  11.521 -0.0253 -0.8917  0.3228
 5667TIP3    H138492   6.472   1.342  11.529  0.2381 -0.8580  2.5000
 5667TIP3    H238493   6.433   1.488  11.517 -0.1925 -1.1369 -0.1287
 5668TIP3   OH238494   4.934   3.038  15.009 -0.2961 -0.5790  0.0073
 5668TIP3    H138495   4.992   3.100  14.965  1.0876 -1.1582  0.9527
 5668TIP3    H238496   4.852   3.042  14.959 -0.2092  1.8751 -0.0511
 5669TIP3   OH238497   1.361   1.552  15.719  0.1617  0.1742  0.3246
 5669TIP3    H138498   1.389   1.552  15.811  2.1103 -2.5974 -0.1637
 5669TIP3    H238499   1.442   1.559  15.669 -0.4531 -2.3110 -1.1482
 5670TIP3   OH238500   0.920   2.927   5.591 -0.5304  0.4365  0.0048
 5670TIP3    H138501   0.868   3.002   5.562  0.0969  0.8002 -0.2040
 5670TIP3    H238502   0.952   2.953   5.678 -1.4321 -0.1591  0.5293
 5671TIP3   OH238503   1.722   5.762   1.653 -0.4182 -0.4112 -0.3956
 5671TIP3    H138504   1.773   5.750   1.573  0.4068  0.8903 -0.0963
 5671TIP3    H238505   1.768   5.711   1.720  0.7087  0.9709 -0.0637
 5672TIP3   OH238506   2.421   1.330  14.663 -0.0799 -0.3517  0.2707
 5672TIP3    H138507   2.338   1.367  14.633  0.1920  0.0405 -0.0182
 5672TIP3    H238508   2.404   1.303  14.754 -0.9366 -1.6389 -0.2432
 5673TIP3   OH238509   6.581   1.622  14.675  0.4715  0.0362 -0.0919
 5673TIP3    H138510   6.629   1.540  14.689  0.6423 -0.0526 -1.1198
 5673TIP3    H238511   6.497   1.608  14.720  0.8050 -0.3895  0.4185
 5674TIP3   OH238512   1.478   2.641   1.000  0.3243 -0.2774  0.2584
 5674TIP3    H138513   1.390   2.610   0.978  0.4970  0.3141 -1.3827
 5674TIP3    H238514   1.483   2.634   1.095 -1.9668  0.9404  0.5180
 5675TIP3   OH238515   1.728   4.255  13.914  0.2948  0.1686  0.0910
 5675TIP3    H138516   1.701   4.164  13.924 -1.6543  0.5411 -1.1710
 5675TIP3    H238517   1.775   4.257  13.831 -2.7815  0.8132 -1.8171
 5676TIP3   OH238518   4.881   4.074  12.449  0.6482 -0.1272 -0.7057
 5676TIP3    H138519   4.954   4.121  12.408  0.9158  0.6672  0.6123
 5676TIP3    H238520   4.874   4.113  12.536 -2.2633  0.8539 -1.2642
 5677TIP3   OH238521   2.137   6.620   6.187  0.4412 -0.2390 -0.0626
 5677TIP3    H138522   2.056   6.632   6.237 -0.9980  2.2342 -2.6933
 5677TIP3    H238523   2.174   6.708   6.179  3.3210 -1.2592  0.7634
 5678TIP3   OH238524   5.228   2.402   0.873 -0.3338  0.2680  0.2782
 5678TIP3    H138525   5.299   2.426   0.933  1.5372 -1.7827 -0.9568
 5678TIP3    H238526   5.205   2.484   0.829  0.4738  1.1877  1.4960
 5679TIP3   OH238527   4.611   5.547  15.429  0.4960  0.8962  0.0732
 5679TIP3    H138528   4.626   5.503  15.513  0.4721  2.5965  1.0313
 5679TIP3    H238529   4.687   5.604  15.418 -0.2540  1.8604 -0.2601
 5680TIP3   OH238530   3.049   2.386  16.640 -0.2386 -0.2626  0.4571
 5680TIP3    H138531   3.128   2.437  16.658 -0.2171  0.0258 -0.4189
 5680TIP3    H238532   3.004   2.434  16.570 -0.0888 -1.5664 -0.5634
 5681TIP3   OH238533   1.451   2.689   3.646 -0.5063  0.1199 -0.4857
 5681TIP3    H138534   1.363   2.662   3.672 -0.6250  0.9247 -0.0200
 5681TIP3    H238535   1.438   2.766   3.591 -0.0761  0.5118 -0.0490
 5682TIP3   OH238536   3.574   6.587   4.911 -0.0738  0.0760 -0.2779
 5682TIP3    H138537   3.567   6.502   4.868 -1.6236  0.2325 -0.4089
 5682TIP3    H238538   3.667   6.608   4.908  0.1714 -1.0271 -1.3943
 5683TIP3   OH238539   4.295   4.745  11.536 -0.3296 -0.2547 -0.2742
 5683TIP3    H138540   4.230   4.749  11.606  0.1624 -0.3430  0.1937
 5683TIP3    H238541   4.372   4.789  11.572 -0.3010  0.3074 -1.0158
 5684TIP3   OH238542   4.974   3.478  16.464 -0.4948 -0.4483 -0.2222
 5684TIP3    H138543   5.008   3.567  16.460 -1.1172 -0.1885  0.1199
 5684TIP3    H238544   5.018   3.439  16.540 -0.4465 -0.3365 -0.1930
 5685TIP3   OH238545   5.058   1.089  14.426 -0.5912  0.2401  0.0563
 5685TIP3    H138546   5.036   0.997  14.418  1.2806 -0.1858 -0.7907
 5685TIP3    H238547   4.998   1.134  14.366  0.7158 -0.8584 -2.2331
 5686TIP3   OH238548   3.509   0.513  15.615  0.3978  0.9185 -0.2669
 5686TIP3    H138549   3.509   0.570  15.538  0.3253 -1.1820 -1.9288
 5686TIP3    H238550   3.599   0.517  15.647  0.6804  1.0964 -1.0459
 5687TIP3   OH238551   1.025   2.085  11.767  0.2422 -0.3611  0.0507
 5687TIP3    H138552   1.119   2.068  11.778  0.2598  0.2698  1.0702
 5687TIP3    H238553   0.982   2.011  11.810  0.2875 -0.3089  0.1890
 5688TIP3   OH238554   1.553   1.692  13.471  0.6763  0.6415  0.0807
 5688TIP3    H138555   1.511   1.648  13.397  1.3568  1.7592 -0.9951
 5688TIP3    H238556   1.634   1.642  13.486  0.0208 -0.2331  0.7858
 5689TIP3   OH238557   0.256   5.921  10.407  0.1461  0.0753 -0.2589
 5689TIP3    H138558   0.317   5.881  10.345 -1.4976 -0.4786 -1.5957
 5689TIP3    H238559   0.219   5.847  10.454  0.8610  0.4503  0.9210
 5690TIP3   OH238560   6.374   4.662  14.341  0.3784 -0.1960  0.0860
 5690TIP3    H138561   6.327   4.741  14.312 -1.5549 -1.0909  0.5923
 5690TIP3    H238562   6.343   4.648  14.430  0.7391 -1.4841  0.0278
 5691TIP3   OH238563   4.450   3.745  14.684 -0.3184  0.2145  0.3681
 5691TIP3    H138564   4.412   3.823  14.724  0.2113  0.2601  0.8079
 5691TIP3    H238565   4.390   3.722  14.613 -0.5812  0.9067  0.3564
 5692TIP3   OH238566   4.270   6.164   0.989  0.2609  0.1451 -0.2822
 5692TIP3    H138567   4.245   6.170   0.897  1.3559 -0.4154 -0.6280
 5692TIP3    H238568   4.230   6.241   1.029 -0.9398 -0.0465 -1.0418
 5693TIP3   OH238569   1.030   0.478   3.016  0.2038 -0.2444 -0.7281
 5693TIP3    H138570   1.011   0.482   3.109 -1.1131  1.3060 -1.0112
 5693TIP3    H238571   1.093   0.549   3.002  1.2770 -1.1913 -0.8687
 5694TIP3   OH238572   6.005   2.613  13.041  0.7831  0.1001 -0.0095
 5694TIP3    H138573   5.916   2.607  13.006  0.2647  2.6290  0.6974
 5694TIP3    H238574   5.995   2.604  13.135  1.1889  0.8577  0.1174
 5695TIP3   OH238575   0.701   6.461  16.403 -0.0773  0.8264  0.2099
 5695TIP3    H138576   0.708   6.487  16.311  1.3105  2.1413  0.6426
 5695TIP3    H238577   0.609   6.474  16.425 -0.7243 -0.7444 -1.2995
 5696TIP3   OH238578   3.931   5.660  16.093  0.0789 -0.1253 -0.2810
 5696TIP3    H138579   3.979   5.630  16.170  0.5302 -0.0017 -0.5076
 5696TIP3    H238580   3.870   5.726  16.127 -0.8236 -1.1861  0.1924
 5697TIP3   OH238581   1.652   2.873  14.180  0.0856  0.0940  0.0706
 5697TIP3    H138582   1.652   2.879  14.084 -1.1714  0.7316  0.0978
 5697TIP3    H238583   1.580   2.813  14.200  1.1279 -1.0304  0.5885
 5698TIP3   OH238584   2.061   0.410   4.215 -0.4777 -0.3622  0.5539
 5698TIP3    H138585   2.135   0.470   4.227 -1.2710  0.6763  0.3683
 5698TIP3    H238586   2.038   0.382   4.304 -0.5596  0.1622  0.6967
 5699TIP3   OH238587   6.054   3.480   0.940 -0.0013 -0.3781  0.1248
 5699TIP3    H138588   6.021   3.517   0.858 -0.0606 -0.3232  0.1729
 5699TIP3    H238589   5.980   3.433   0.978  0.3156 -1.2699 -0.3503
 5700TIP3   OH238590   2.368   0.313  16.400 -0.5489  1.0288  0.6732
 5700TIP3    H138591   2.355   0.227  16.440  0.7579  0.7069  0.4656
 5700TIP3    H238592   2.280   0.350  16.391 -1.4692 -1.3650 -1.6417
 5701TIP3   OH238593   3.251   5.252   5.115 -0.3426 -0.4395 -0.5679
 5701TIP3    H138594   3.308   5.288   5.046 -0.4226 -1.1442 -1.0142
 5701TIP3    H238595   3.171   5.226   5.069 -0.6704 -0.2801 -0.0898
 5702TIP3   OH238596   5.156   2.695   1.022  0.5092  0.0016 -0.2358
 5702TIP3    H138597   5.150   2.646   1.103  1.0369 -1.3890 -1.0056
 5702TIP3    H238598   5.109   2.641   0.957 -0.3781  1.3356 -0.7586
 5703TIP3   OH238599   5.834   5.121  13.329 -0.1059 -0.7651  0.8806
 5703TIP3    H138600   5.783   5.136  13.408  0.1299 -0.6059  1.0047
 5703TIP3    H238601   5.778   5.065  13.275 -0.0761 -1.2830  1.3660
 5704TIP3   OH238602   6.831   3.989   4.105 -0.0389 -0.8885 -0.2536
 5704TIP3    H138603   6.860   4.014   4.193 -1.2413 -1.6925  0.4130
 5704TIP3    H238604   6.909   3.996   4.051  0.6419  0.0071  0.7955
 5705TIP3   OH238605   2.905   4.320   4.173  0.4758 -0.0343  0.2175
 5705TIP3    H138606   2.881   4.235   4.210 -0.8779  0.1622 -0.1489
 5705TIP3    H238607   2.930   4.301   4.082  0.8068 -0.1160  0.3236
 5706TIP3   OH238608   1.434   6.615  15.242 -0.1225  0.0783  0.1304
 5706TIP3    H138609   1.360   6.663  15.279 -0.4795  0.1814 -0.7070
 5706TIP3    H238610   1.475   6.677  15.181  0.7184  0.0575  0.6526
 5707TIP3   OH238611   4.941   2.795  11.616 -0.5182  0.2311 -0.7911
 5707TIP3    H138612   5.037   2.793  11.611 -0.5060 -0.6150 -0.4258
 5707TIP3    H238613   4.923   2.838  11.700 -0.4784  0.8466 -1.0882
 5708TIP3   OH238614   2.156   0.758  12.069  0.0144  0.1042 -0.4182
 5708TIP3    H138615   2.126   0.744  11.979  3.7461  0.5417 -1.9120
 5708TIP3    H238616   2.118   0.843  12.094 -2.6698 -0.9019 -0.6979
 5709TIP3   OH238617   1.689   1.624  16.537 -0.0429  0.6051 -0.0782
 5709TIP3    H138618   1.706   1.574  16.457 -0.3515  1.7045 -0.8590
 5709TIP3    H238619   1.625   1.571  16.585 -0.3221  0.2262 -0.8562
 5710TIP3   OH238620   5.875   5.814  13.443  0.3075  0.0414 -0.4553
 5710TIP3    H138621   5.855   5.814  13.537 -0.7548 -0.4045 -0.6707
 5710TIP3    H238622   5.896   5.905  13.424 -1.0421  0.4542 -0.0906
 5711TIP3   OH238623   1.638   0.280   5.271  0.1090 -0.2970  0.1336
 5711TIP3    H138624   1.601   0.367   5.283  1.6081  0.4230 -0.1930
 5711TIP3    H238625   1.679   0.284   5.184  2.2068 -0.5163  1.0335
 5712TIP3   OH238626   5.702   2.658   3.371 -0.2901 -0.0181 -0.1907
 5712TIP3    H138627   5.610   2.685   3.375 -0.2836 -0.1345  1.8191
 5712TIP3    H238628   5.751   2.738   3.391 -0.0386 -0.3338  0.4829
 5713TIP3   OH238629   2.112   4.182   3.379  0.1784 -0.2433  0.7187
 5713TIP3    H138630   2.064   4.210   3.301  1.4824  1.0029  0.3034
 5713TIP3    H238631   2.158   4.103   3.351  2.5814  1.4916 -0.6760
 5714TIP3   OH238632   4.610   6.250   0.696 -0.0992  0.7594  0.5898
 5714TIP3    H138633   4.687   6.291   0.657  0.0432 -0.2945 -0.2856
 5714TIP3    H238634   4.607   6.284   0.785  1.1982  1.0438  0.5420
 5715TIP3   OH238635   2.135   1.598  13.607 -1.1399 -0.1481  0.0979
 5715TIP3    H138636   2.127   1.507  13.577  2.0945 -1.0549  1.6207
 5715TIP3    H238637   2.203   1.636  13.552 -1.8828  1.1704  0.0293
 5716TIP3   OH238638   0.641   4.775  11.225  0.2104 -0.1317 -0.0472
 5716TIP3    H138639   0.578   4.801  11.157  1.5432  0.8249 -0.9732
 5716TIP3    H238640   0.589   4.722  11.286 -1.5184  0.7122 -0.6922
 5717TIP3   OH238641   5.291   5.712  16.580  0.1244 -0.6742  0.4799
 5717TIP3    H138642   5.229   5.640  16.592 -1.1473  0.4157  0.6254
 5717TIP3    H238643   5.250   5.769  16.516  0.2845  0.8039  1.6348
 5718TIP3   OH238644   5.698   0.735  12.933  0.1738  0.2671  0.5527
 5718TIP3    H138645   5.644   0.755  12.856 -0.8960 -1.7509  0.7295
 5718TIP3    H238646   5.786   0.764  12.908 -0.6115  1.9414 -0.4469
 5719TIP3   OH238647   0.879   4.911   0.957  0.2000 -0.2317  0.3857
 5719TIP3    H138648   0.856   4.967   1.031  0.7823 -1.3229  1.4167
 5719TIP3    H238649   0.954   4.954   0.917  1.9947 -1.2898  2.4364
 5720TIP3   OH238650   3.222   0.335  15.792  0.4437 -0.3080 -0.4171
 5720TIP3    H138651   3.245   0.427  15.778  2.5613 -1.0423 -2.2314
 5720TIP3    H238652   3.276   0.308  15.866 -1.1718  0.1773  1.0184
 5721TIP3   OH238653   4.228   0.951   5.348  0.3473  0.4114 -0.2958
 5721TIP3    H138654   4.255   1.030   5.301  1.7154  0.0940 -0.0858
 5721TIP3    H238655   4.257   0.879   5.293  2.0472  0.0322  1.0193
 5722TIP3   OH238656   2.467   5.511   2.891 -0.0830  0.1929 -0.3621
 5722TIP3    H138657   2.382   5.518   2.934  0.5252  0.0831  0.9249
 5722TIP3    H238658   2.506   5.598   2.902  1.1309 -0.5516  1.6723
 5723TIP3   OH238659   1.914   4.697  15.041  0.1453  0.0514  0.2366
 5723TIP3    H138660   1.910   4.792  15.036  0.6268  0.0344 -3.1241
 5723TIP3    H238661   2.008   4.677  15.038  0.0120 -0.4910 -1.8291
 5724TIP3   OH238662   4.845   2.278  12.798 -0.1867  0.1175 -0.2014
 5724TIP3    H138663   4.895   2.338  12.742 -1.1730 -1.0458 -2.4755
 5724TIP3    H238664   4.874   2.191  12.772  0.6213 -0.4772  2.4784
 5725TIP3   OH238665   1.786   4.141   0.405  0.7072 -0.4557  0.3519
 5725TIP3    H138666   1.748   4.229   0.405 -0.1885 -0.8320 -0.2592
 5725TIP3    H238667   1.877   4.154   0.378  1.6074  0.6783  3.4746
 5726TIP3   OH238668   4.249   0.345  13.926 -0.3360 -0.8834 -0.1792
 5726TIP3    H138669   4.303   0.266  13.925 -0.5370 -1.0161 -0.5843
 5726TIP3    H238670   4.244   0.369  14.019 -2.3492 -2.7443  0.2813
 5727TIP3   OH238671   2.770   1.314   4.655  0.0581  0.6661 -0.2672
 5727TIP3    H138672   2.725   1.377   4.599  0.4607  0.5565 -0.7194
 5727TIP3    H238673   2.862   1.319   4.628  0.1669  0.2324  0.0192
 5728TIP3   OH238674   2.621   5.757  15.634 -0.3487 -0.2985  0.1176
 5728TIP3    H138675   2.675   5.814  15.579  0.4590 -0.8669  0.3107
 5728TIP3    H238676   2.678   5.683  15.656 -1.6477 -1.6410 -0.8551
 5729TIP3   OH238677   5.657   5.566  15.142 -0.4916  0.0314  0.5441
 5729TIP3    H138678   5.659   5.598  15.232  3.3118  0.8329  0.3531
 5729TIP3    H238679   5.629   5.642  15.091  0.9074  0.7543  0.7934
 5730TIP3   OH238680   4.658   6.175   0.302  0.6322 -0.5644  0.2781
 5730TIP3    H138681   4.577   6.220   0.279  0.1974 -0.7960  1.3418
 5730TIP3    H238682   4.688   6.138   0.219  1.5043  2.4045 -0.8616
 5731TIP3   OH238683   6.494   3.733   0.740 -0.0173 -0.0449  0.0955
 5731TIP3    H138684   6.466   3.767   0.655 -0.8227  0.0232  0.3857
 5731TIP3    H238685   6.590   3.740   0.738  0.3394 -3.3315 -2.2397
 5732TIP3   OH238686   3.377   1.851   1.871 -0.4117 -0.0230  0.0113
 5732TIP3    H138687   3.380   1.756   1.859  0.9265 -0.0761  0.5840
 5732TIP3    H238688   3.345   1.863   1.960  0.6004 -0.0009  0.3908
 5733TIP3   OH238689   3.318   1.035   3.182  0.3287 -0.6721  0.0492
 5733TIP3    H138690   3.234   1.045   3.138  1.1430  1.1786 -1.1693
 5733TIP3    H238691   3.331   1.117   3.229  2.0387 -0.4043 -0.8474
 5734TIP3   OH238692   1.511   2.752   3.326 -0.1183  0.5259 -0.2027
 5734TIP3    H138693   1.424   2.729   3.292 -0.0923 -2.7238  1.5398
 5734TIP3    H238694   1.495   2.828   3.382 -1.6591  0.5776 -0.6518
 5735TIP3   OH238695   6.335   5.619   4.612 -0.1482  0.2896  0.2987
 5735TIP3    H138696   6.295   5.619   4.699 -0.9806 -0.2936 -0.0682
 5735TIP3    H238697   6.281   5.680   4.561 -1.4411 -1.4547 -0.5546
 5736TIP3   OH238698   1.181   4.289  14.257 -0.3078 -0.5681 -0.3219
 5736TIP3    H138699   1.234   4.216  14.287  0.5297  0.9809  2.2282
 5736TIP3    H238700   1.245   4.354  14.227 -1.0493 -0.9719 -3.0386
 5737TIP3   OH238701   2.738   6.386  11.677 -0.2143  0.6803  0.1168
 5737TIP3    H138702   2.703   6.310  11.724  0.4991  0.2157 -0.0982
 5737TIP3    H238703   2.728   6.364  11.585 -1.1765  1.3952  0.0286
 5738TIP3   OH238704   2.525   0.819   5.695 -0.6529  0.1320  0.5041
 5738TIP3    H138705   2.583   0.877   5.743  0.7022 -0.5409 -0.2550
 5738TIP3    H238706   2.578   0.786   5.623 -1.6726 -1.3055  0.3612
 5739TIP3   OH238707   2.046   6.202  13.551  0.1850 -0.5831  0.1594
 5739TIP3    H138708   1.962   6.161  13.571  0.7745 -1.4651  0.9058
 5739TIP3    H238709   2.024   6.294  13.537 -0.7314 -0.5149  1.7278
 5740TIP3   OH238710   2.748   5.426   2.432 -0.1393  0.5006 -0.3315
 5740TIP3    H138711   2.702   5.477   2.499 -0.3028 -0.3163  0.1977
 5740TIP3    H238712   2.760   5.486   2.359 -2.1766  0.6979 -0.5512
 5741TIP3   OH238713   6.194   2.134   4.622  0.0306 -0.2017  0.0664
 5741TIP3    H138714   6.211   2.228   4.614  1.1600 -0.4538 -0.8270
 5741TIP3    H238715   6.100   2.128   4.641 -0.5845  1.0281 -2.1790
 5742TIP3   OH238716   4.783   0.406   2.218 -0.6180 -0.0792 -0.0845
 5742TIP3    H138717   4.688   0.407   2.203 -0.8465  2.3345  1.0353
 5742TIP3    H238718   4.821   0.444   2.139 -0.8786  1.7092  0.5991
 5743TIP3   OH238719   0.262   4.304   4.467 -0.2322  0.9960  0.2430
 5743TIP3    H138720   0.270   4.339   4.556 -0.4368  1.7143 -0.0130
 5743TIP3    H238721   0.348   4.267   4.448  0.5964  3.0347 -0.1615
 5744TIP3   OH238722   0.103   1.377  15.536 -0.0832 -0.7063 -0.2409
 5744TIP3    H138723   0.066   1.365  15.624  0.6605  0.3789  0.2326
 5744TIP3    H238724   0.043   1.329  15.479 -2.0559  0.6776  0.5506
 5745TIP3   OH238725   4.850   6.112   3.484  0.1397 -0.2031 -0.1169
 5745TIP3    H138726   4.914   6.057   3.439  0.5147  0.0857  0.0551
 5745TIP3    H238727   4.838   6.071   3.570  1.9121  1.0414  0.7846
 5746TIP3   OH238728   0.934   6.575  12.254  0.0086 -0.3267 -0.1076
 5746TIP3    H138729   0.848   6.564  12.211 -2.5470 -0.3325  4.3937
 5746TIP3    H238730   0.949   6.670  12.252 -0.9011 -0.1563  0.2997
 5747TIP3   OH238731   0.104   1.219  11.315  0.3566 -0.4255  0.1402
 5747TIP3    H138732   0.021   1.259  11.341  0.8842 -0.5074  2.1605
 5747TIP3    H238733   0.098   1.129  11.347  1.1608 -0.4786  0.1633
 5748TIP3   OH238734   3.261   4.336   4.581  0.9807  0.0562 -0.1258
 5748TIP3    H138735   3.182   4.286   4.556  0.4736  0.4667  0.6218
 5748TIP3    H238736   3.300   4.361   4.497  0.1584  0.0848 -0.5181
 5749TIP3   OH238737   2.613   0.447   1.952 -0.1811 -0.1108 -0.3499
 5749TIP3    H138738   2.670   0.455   1.875 -0.5693 -1.3122 -0.7942
 5749TIP3    H238739   2.616   0.354   1.975 -3.3994 -0.6637 -1.5633
 5750TIP3   OH238740   4.490   2.652  13.264  0.0062  0.2411 -0.2085
 5750TIP3    H138741   4.517   2.720  13.202  1.7194 -0.4222 -0.2589
 5750TIP3    H238742   4.500   2.570  13.216  0.3021 -0.2012  0.5811
 5751TIP3   OH238743   3.852   3.800   0.759  0.0327  0.0955  0.0395
 5751TIP3    H138744   3.866   3.795   0.854  0.6461  0.3540 -0.0285
 5751TIP3    H238745   3.780   3.740   0.742  0.7700 -0.9479  0.4992
 5752TIP3   OH238746   4.389   3.054  11.242  0.2700  0.0344 -0.3379
 5752TIP3    H138747   4.379   3.136  11.291  0.0552 -0.3962  0.3467
 5752TIP3    H238748   4.366   3.077  11.152 -1.1661  0.4121  0.1069
 5753TIP3   OH238749   3.715   5.908  12.122  0.0896  0.0318  0.7111
 5753TIP3    H138750   3.657   5.838  12.091 -0.2514 -0.1707  1.7515
 5753TIP3    H238751   3.803   5.876  12.105 -0.0696 -0.5754  0.9916
 5754TIP3   OH238752   3.438   1.521   5.526 -0.1048  0.2599 -0.1833
 5754TIP3    H138753   3.462   1.558   5.441 -0.3423 -0.5394 -0.6054
 5754TIP3    H238754   3.467   1.586   5.590  0.9499  0.4292 -0.8209
 5755TIP3   OH238755   1.883   2.104  11.432  0.7195  0.0529  0.1693
 5755TIP3    H138756   1.838   2.143  11.507  0.2513 -0.3197  0.0926
 5755TIP3    H238757   1.903   2.015  11.460  1.4633  0.2329  0.2172
 5756TIP3   OH238758   5.627   5.045   5.355  0.4215  0.4445 -0.5394
 5756TIP3    H138759   5.705   5.070   5.404  0.1131  0.0844  0.1507
 5756TIP3    H238760   5.576   5.126   5.348  1.3635  0.9540 -1.9956
 5757TIP3   OH238761   2.128   0.183   1.216 -0.0281 -0.3424  0.2706
 5757TIP3    H138762   2.085   0.108   1.175 -0.7672 -0.4776  1.2347
 5757TIP3    H238763   2.215   0.186   1.177  0.4244 -2.3713  0.9771
 5758TIP3   OH238764   0.460   2.904   3.937 -0.4579 -0.4027 -0.0296
 5758TIP3    H138765   0.524   2.943   3.878  1.4396 -3.7185 -0.3972
 5758TIP3    H238766   0.498   2.916   4.024  0.1147 -1.3578 -0.1405
 5759TIP3   OH238767   3.433   0.766  14.136  0.5349 -0.2556  0.6119
 5759TIP3    H138768   3.371   0.693  14.129  1.1084 -0.7543  0.6098
 5759TIP3    H238769   3.429   0.792  14.228  1.3882 -1.2532  0.9427
 5760TIP3   OH238770   0.389   6.153  10.872  0.0965  0.3473  0.0354
 5760TIP3    H138771   0.448   6.220  10.907  1.8712 -0.4048 -1.2912
 5760TIP3    H238772   0.309   6.200  10.850  1.1424  1.9919 -0.4905
 5761TIP3   OH238773   5.371   5.766   5.690 -0.2523  0.1697  0.7340
 5761TIP3    H138774   5.421   5.724   5.760  0.1301 -0.8243 -0.1057
 5761TIP3    H238775   5.339   5.694   5.637 -2.3670  0.7808  1.0594
 5762TIP3   OH238776   2.860   5.564   5.777  0.3676 -0.5624 -0.2008
 5762TIP3    H138777   2.823   5.652   5.771  1.5640 -0.0253  0.0793
 5762TIP3    H238778   2.803   5.511   5.721 -0.9015  0.1937  0.3461
 5763TIP3   OH238779   2.986   3.664  11.905  0.8808 -0.0481  0.1583
 5763TIP3    H138780   3.036   3.658  11.987  0.9250 -0.4088  0.1042
 5763TIP3    H238781   3.051   3.661  11.836  0.6894 -2.4937  0.0103
 5764TIP3   OH238782   6.406   2.050   4.494  0.1440 -0.9495  0.0947
 5764TIP3    H138783   6.381   1.982   4.432  0.8781 -2.8659  1.7866
 5764TIP3    H238784   6.326   2.071   4.542 -0.3227  0.2128 -1.1321
 5765TIP3   OH238785   6.045   3.264  13.914  0.2923 -0.1789  0.4076
 5765TIP3    H138786   6.036   3.180  13.960  2.5032 -0.9098 -0.3523
 5765TIP3    H238787   6.081   3.324  13.979 -0.5876 -0.0014  0.7468
 5766TIP3   OH238788   3.554   3.906   3.683 -0.0331  0.5309 -1.3193
 5766TIP3    H138789   3.480   3.847   3.698 -1.0634  1.8284 -1.1633
 5766TIP3    H238790   3.516   3.986   3.648  1.2752  1.3072 -1.0658
 5767TIP3   OH238791   5.095   0.382  13.138 -0.1045  0.4138  0.0720
 5767TIP3    H138792   5.020   0.334  13.173 -0.6336  0.7665 -0.5700
 5767TIP3    H238793   5.170   0.344  13.184 -0.7270  0.5026  1.1985
 5768TIP3   OH238794   1.715   6.595   3.475 -0.0448 -0.0538 -0.1260
 5768TIP3    H138795   1.673   6.628   3.395  2.5455  1.1071 -1.1041
 5768TIP3    H238796   1.795   6.553   3.445  0.8925  0.2279  1.8295
 5769TIP3   OH238797   2.921   6.246  15.831 -0.2711 -0.4720  1.1676
 5769TIP3    H138798   2.908   6.159  15.794 -0.1641 -1.1547  2.6364
 5769TIP3    H238799   3.007   6.273  15.799 -1.4993  0.3979 -1.6661
 5770TIP3   OH238800   1.876   4.417   5.302 -0.0778 -0.0603  0.2031
 5770TIP3    H138801   1.801   4.363   5.275 -1.1486  0.1243  2.5831
 5770TIP3    H238802   1.864   4.499   5.254 -0.6767 -0.4926 -0.4093
 5771TIP3   OH238803   0.426   1.212   1.211 -0.1383  0.1705 -0.4392
 5771TIP3    H138804   0.369   1.253   1.145 -0.8335 -0.7995 -0.4489
 5771TIP3    H238805   0.419   1.270   1.287 -1.4256 -0.1111 -0.3145
 5772TIP3   OH238806   2.017   2.451  12.499 -0.0057 -0.2601  0.5167
 5772TIP3    H138807   2.071   2.395  12.444  0.2551  0.4366  0.0610
 5772TIP3    H238808   1.927   2.435  12.469 -0.0147 -1.0504  0.9472
 5773TIP3   OH238809   3.091   0.292   0.943  0.1297  0.0352 -0.5101
 5773TIP3    H138810   3.056   0.207   0.914  0.7580 -0.3051 -0.2804
 5773TIP3    H238811   3.031   0.319   1.013  0.3414 -0.5665 -0.0919
 5774TIP3   OH238812   5.408   4.638   4.212  0.1388  0.5788  0.1900
 5774TIP3    H138813   5.487   4.630   4.265  0.0366  0.1017  0.2785
 5774TIP3    H238814   5.342   4.675   4.272 -0.1654 -0.5895  0.6029
 5775TIP3   OH238815   0.135   5.194  15.868 -0.2873 -0.2414 -0.6449
 5775TIP3    H138816   0.086   5.172  15.788 -0.5391  0.7727 -0.7872
 5775TIP3    H238817   0.070   5.235  15.925  0.0143 -0.4696 -0.1333
 5776TIP3   OH238818   3.344   5.780   2.726 -0.2058 -0.2021 -0.4410
 5776TIP3    H138819   3.436   5.794   2.700 -0.1707 -0.0924 -0.2564
 5776TIP3    H238820   3.319   5.699   2.681  0.7634 -1.6535  1.5102
 5777TIP3   OH238821   6.340   5.918  15.591  0.8069 -0.5277 -0.2510
 5777TIP3    H138822   6.338   5.847  15.655 -0.8190 -1.4194 -1.2060
 5777TIP3    H238823   6.410   5.894  15.530  0.0790 -1.4983 -0.7297
 5778TIP3   OH238824   6.579   5.788  11.840 -0.1537  0.0628 -0.2247
 5778TIP3    H138825   6.486   5.766  11.837 -0.0175 -0.8295  1.3234
 5778TIP3    H238826   6.609   5.755  11.925  1.3506  1.2435 -0.2543
 5779TIP3   OH238827   0.826   6.397   3.047 -0.1695  0.0031  0.0302
 5779TIP3    H138828   0.829   6.368   2.955  1.4511 -1.5259  0.4981
 5779TIP3    H238829   0.846   6.490   3.043  1.8834 -0.4114 -1.0846
 5780TIP3   OH238830   4.367   6.527  12.424  0.0847 -0.0662  0.2864
 5780TIP3    H138831   4.300   6.477  12.470  0.0479 -0.1762  0.1138
 5780TIP3    H238832   4.440   6.465  12.414 -0.5807 -0.6237 -1.4123
 5781TIP3   OH238833   5.903   6.075   2.179  0.4820 -0.0233  0.1036
 5781TIP3    H138834   5.937   5.986   2.176  0.9360  0.1219  0.5698
 5781TIP3    H238835   5.979   6.128   2.206 -0.2418  0.2373  1.7749
 5782TIP3   OH238836   5.014   2.051  16.359  1.0712 -0.2336 -0.0158
 5782TIP3    H138837   5.035   2.127  16.413  0.2375  0.2023 -0.2962
 5782TIP3    H238838   5.007   2.087  16.270 -1.2914 -0.2540  0.1130
 5783TIP3   OH238839   1.059   5.359   1.474  0.0657 -0.6301  0.5138
 5783TIP3    H138840   1.132   5.399   1.427 -0.4987 -1.0168 -0.7320
 5783TIP3    H238841   1.047   5.414   1.551  1.1847 -0.1342  0.3500
 5784TIP3   OH238842   1.407   3.843   4.124 -0.1863 -0.3134  0.7367
 5784TIP3    H138843   1.496   3.831   4.089  0.3438  2.9606  0.6453
 5784TIP3    H238844   1.350   3.808   4.056  0.9823 -0.8392 -0.0114
 5785TIP3   OH238845   0.673   2.442   0.211 -0.3317 -0.0401 -0.1742
 5785TIP3    H138846   0.616   2.396   0.149 -1.0161 -0.6393  0.8813
 5785TIP3    H238847   0.656   2.400   0.295  1.0803  0.3126  0.3152
 5786TIP3   OH238848   2.920   2.022   0.020  0.0692  0.7654  0.5068
 5786TIP3    H138849   2.842   2.017  -0.035  0.1242 -1.8791  0.5791
 5786TIP3    H238850   2.992   2.034  -0.043 -0.1709  1.1335  0.2933
 5787TIP3   OH238851   4.647   1.982  16.070  0.5084 -0.1592 -0.1960
 5787TIP3    H138852   4.714   2.045  16.094  0.3625 -0.6571  1.6843
 5787TIP3    H238853   4.656   1.972  15.976  2.1874  0.7676 -0.1706
 5788TIP3   OH238854   5.775   2.256  16.447  0.7427  0.2209  0.1884
 5788TIP3    H138855   5.705   2.300  16.497  0.5164  0.2615 -0.1603
 5788TIP3    H238856   5.735   2.175  16.416  0.8962  0.1772  0.1042
 5789TIP3   OH238857   2.456   0.165   6.152 -0.9188 -0.3543  0.2554
 5789TIP3    H138858   2.519   0.182   6.082 -0.2754  0.5637  1.0283
 5789TIP3    H238859   2.441   0.250   6.192  0.0487 -1.1110  2.3334
 5790TIP3   OH238860   6.792   2.787  11.484  0.9418  0.0258 -0.9009
 5790TIP3    H138861   6.857   2.808  11.417 -0.1020  0.5980 -1.7528
 5790TIP3    H238862   6.809   2.850  11.554  2.1453 -0.6856 -0.5198
 5791TIP3   OH238863   1.703   5.434   2.684 -0.1743 -0.5092  0.1303
 5791TIP3    H138864   1.662   5.422   2.769  0.3612  0.4869  0.5339
 5791TIP3    H238865   1.743   5.520   2.687  0.1593 -0.5972 -1.0075
 5792TIP3   OH238866   3.473   0.616   2.157 -0.1178 -0.2278  0.1818
 5792TIP3    H138867   3.560   0.643   2.188 -0.1676  1.6939 -1.1424
 5792TIP3    H238868   3.486   0.601   2.063 -1.0736 -0.5925  0.1002
 5793TIP3   OH238869   2.936   2.027   5.745 -0.0713  0.3757 -0.3311
 5793TIP3    H138870   3.011   1.972   5.723 -0.4484 -0.2686 -0.0335
 5793TIP3    H238871   2.923   2.016   5.839  0.8319  2.2366  0.0691
 5794TIP3   OH238872   4.789   0.373  16.514 -0.2653  0.3269 -0.1005
 5794TIP3    H138873   4.864   0.353  16.458 -0.6952  1.5244 -1.1547
 5794TIP3    H238874   4.717   0.389  16.453 -1.4090 -0.7980  0.8893
 5795TIP3   OH238875   2.335   6.681  16.541 -0.2547 -0.6125 -0.9260
 5795TIP3    H138876   2.293   6.764  16.516 -0.1974 -0.5132 -0.6876
 5795TIP3    H238877   2.294   6.657  16.624  1.6505  0.5722  0.4315
 5796TIP3   OH238878   1.162   0.897   2.769  0.3734 -0.2929  0.1697
 5796TIP3    H138879   1.225   0.825   2.760  2.1846  1.1278  0.6759
 5796TIP3    H238880   1.208   0.973   2.732 -1.4204  0.6354 -0.2539
 5797TIP3   OH238881   4.612   2.564   0.764 -0.4607 -0.0549  0.0970
 5797TIP3    H138882   4.687   2.526   0.809 -0.3416  1.2114  1.0197
 5797TIP3    H238883   4.646   2.644   0.724 -1.3484  0.6294  0.6807
 5798TIP3   OH238884   1.801   0.260  15.797 -0.1016  0.9438  0.4837
 5798TIP3    H138885   1.708   0.241  15.782  0.2308  0.3351 -1.0224
 5798TIP3    H238886   1.810   0.353  15.776 -0.1646  0.7226 -0.5997
 5799TIP3   OH238887   1.823   1.831  11.534 -0.2232  0.0106 -0.0172
 5799TIP3    H138888   1.759   1.846  11.465 -0.9534 -2.4319  0.0134
 5799TIP3    H238889   1.772   1.795  11.606  0.9501 -0.3351  0.6688
 5800TIP3   OH238890   2.882   4.412   3.685  0.6801  0.0984  0.1344
 5800TIP3    H138891   2.818   4.430   3.754  0.0626 -1.6915  0.0787
 5800TIP3    H238892   2.870   4.483   3.622 -2.5282 -1.0018 -0.7227
 5801TIP3   OH238893   3.982   3.153   4.825 -0.0952 -0.0311  0.1179
 5801TIP3    H138894   3.922   3.166   4.751  0.1641  0.8283  0.0451
 5801TIP3    H238895   4.069   3.171   4.788  0.4943 -3.2239 -0.3017
 5802TIP3   OH238896   5.868   6.741  12.982 -0.2930 -0.5904  0.2201
 5802TIP3    H138897   5.782   6.753  12.943 -0.8333 -0.0689  1.5144
 5802TIP3    H238898   5.875   6.810  13.048  0.8662 -0.9870  0.5485
 5803TIP3   OH238899   6.171   0.842   3.766  0.0965 -0.3096 -0.0323
 5803TIP3    H138900   6.140   0.754   3.789  1.9440 -0.9426  0.2156
 5803TIP3    H238901   6.133   0.899   3.833 -0.8457 -0.9556  0.0103
 5804TIP3   OH238902   6.396   3.074  12.758 -0.1285  0.4704  0.2525
 5804TIP3    H138903   6.427   3.130  12.687  0.4863  0.4127  0.4700
 5804TIP3    H238904   6.326   3.124  12.800  0.5216  1.1576  0.5515
 5805TIP3   OH238905   6.103   4.532   3.078  0.1634  0.7198  0.5109
 5805TIP3    H138906   6.174   4.509   3.138  1.0558 -1.0477 -1.1258
 5805TIP3    H238907   6.024   4.525   3.131  0.9525 -0.4201  1.5967
 5806TIP3   OH238908   4.993   2.399  11.631 -0.4341 -0.4811  0.7224
 5806TIP3    H138909   4.908   2.405  11.586  0.7166 -1.2517 -1.7224
 5806TIP3    H238910   4.971   2.404  11.724 -3.1490 -0.6420  0.1764
 5807TIP3   OH238911   0.604   2.119  11.884  0.0726 -0.4124  0.2358
 5807TIP3    H138912   0.572   2.168  11.960  1.7914  0.3777  0.5163
 5807TIP3    H238913   0.526   2.082  11.843 -1.0640  0.7627  1.2810
 5808TIP3   OH238914   6.557   6.511  15.369 -0.1917 -0.4786 -0.1789
 5808TIP3    H138915   6.555   6.547  15.281 -0.8702 -1.5876 -0.6373
 5808TIP3    H238916   6.514   6.577  15.423 -0.9922 -0.3765 -0.9176
 5809TIP3   OH238917   6.692   5.647  12.444 -0.3730  0.1864 -0.1928
 5809TIP3    H138918   6.615   5.644  12.500 -0.4641 -0.4715 -0.3449
 5809TIP3    H238919   6.685   5.570  12.389  0.6989 -0.2017  0.1864
 5810TIP3   OH238920   4.683   5.964  15.905  0.0819  0.2446 -0.6366
 5810TIP3    H138921   4.607   5.985  15.850 -0.2123  2.3132  0.4487
 5810TIP3    H238922   4.757   5.962  15.844 -0.4733  0.8457 -1.3525
 5811TIP3   OH238923   6.263   2.585  10.172 -0.1292  0.1129 -0.2310
 5811TIP3    H138924   6.237   2.495  10.152 -0.3718  0.3387 -0.9798
 5811TIP3    H238925   6.358   2.586  10.163 -0.2153  0.1620 -1.2444
 5812TIP3   OH238926   1.622   6.105  13.956 -0.2285 -0.3147 -0.0402
 5812TIP3    H138927   1.571   6.024  13.949 -0.2383 -0.3723  0.6390
 5812TIP3    H238928   1.581   6.153  14.029  0.5120 -0.2371  0.3345
 5813TIP3   OH238929   4.246   5.976   0.691  0.2707  0.2338  0.0957
 5813TIP3    H138930   4.198   6.057   0.709 -2.5998 -1.0878 -1.0295
 5813TIP3    H238931   4.190   5.907   0.726  1.4485 -1.4335 -1.1631
 5814TIP3   OH238932   1.213   1.424   5.960  0.1466  0.5761  1.0560
 5814TIP3    H138933   1.136   1.431   5.903  0.4867  4.0127  0.8369
 5814TIP3    H238934   1.183   1.455   6.045  0.6539 -0.7591  1.7558
 5815TIP3   OH238935   0.436   3.499  10.251 -0.5802  0.3371  0.5090
 5815TIP3    H138936   0.398   3.431  10.306 -1.7173 -0.1384 -0.8091
 5815TIP3    H238937   0.365   3.525  10.192 -0.1255  2.5302  0.8309
 5816TIP3   OH238938   4.599   1.021   5.186  0.0542  0.1565  0.0254
 5816TIP3    H138939   4.671   0.973   5.228 -0.6525 -0.5476  0.4704
 5816TIP3    H238940   4.622   1.024   5.094 -0.6053 -2.4615 -0.3030
 5817TIP3   OH238941   0.372   0.079   3.027  0.2693  0.0198  0.3390
 5817TIP3    H138942   0.336   0.158   3.069  0.6283  0.7666 -0.7196
 5817TIP3    H238943   0.313   0.009   3.054 -0.0709  0.6408  1.2866
 5818TIP3   OH238944   0.316   2.867   1.708 -0.0527 -0.0608  0.5294
 5818TIP3    H138945   0.307   2.962   1.701 -0.7784  0.0580  2.4626
 5818TIP3    H238946   0.311   2.850   1.802  0.5194 -1.9835  0.2438
 5819TIP3   OH238947   5.138   1.203  12.264  0.5559 -0.6993  0.3127
 5819TIP3    H138948   5.050   1.195  12.228  0.4260 -0.7493  0.6440
 5819TIP3    H238949   5.173   1.282  12.223  0.4268 -0.7865  0.0353
 5820TIP3   OH238950   0.476   4.052  10.112 -0.2409  0.2788  0.5164
 5820TIP3    H138951   0.391   4.075  10.150 -0.1269 -0.7993  1.4790
 5820TIP3    H238952   0.527   4.132  10.117  0.0734  0.0112  3.5282
 5821TIP3   OH238953   3.033   0.402   2.612 -0.2957 -0.0419  0.1522
 5821TIP3    H138954   2.940   0.380   2.615 -0.6041  1.1823  0.2373
 5821TIP3    H238955   3.070   0.341   2.548 -0.9944 -1.0549  0.6819
 5822TIP3   OH238956   5.466   5.401  16.575 -0.4923 -0.4392  0.2019
 5822TIP3    H138957   5.401   5.434  16.512 -0.3842 -0.3149  0.1547
 5822TIP3    H238958   5.432   5.316  16.603 -1.2858  0.1300  1.0608
 5823TIP3   OH238959   2.169   1.142   3.663  0.1255 -0.1921  0.0381
 5823TIP3    H138960   2.175   1.108   3.573  0.7494 -1.5780  0.5672
 5823TIP3    H238961   2.182   1.065   3.718 -1.5122  0.4091  1.3421
 5824TIP3   OH238962   2.462   6.504   4.235  0.3925  0.1194  0.4572
 5824TIP3    H138963   2.400   6.548   4.293 -0.2804  1.5661 -1.2633
 5824TIP3    H238964   2.548   6.530   4.268  0.0105  1.9129  0.1384
 5825TIP3   OH238965   5.146   3.144  13.612 -0.2767  0.5084  0.2120
 5825TIP3    H138966   5.201   3.101  13.678 -2.6111  0.6678  2.3973
 5825TIP3    H238967   5.190   3.124  13.529 -0.6359 -5.5024  0.9873
 5826TIP3   OH238968   1.989   5.404  11.303  0.1143 -0.2655  0.1145
 5826TIP3    H138969   2.084   5.410  11.313  0.1986 -1.7522  0.4692
 5826TIP3    H238970   1.976   5.340  11.232 -0.6064 -1.2943  1.1248
 5827TIP3   OH238971   0.035   1.893   2.852  0.6611  0.2382  0.1221
 5827TIP3    H138972   0.107   1.890   2.789 -0.1812 -0.1678 -0.8435
 5827TIP3    H238973   0.042   1.811   2.901 -1.3049 -1.6769 -2.4886
 5828TIP3   OH238974   3.804   0.551  15.677  0.0481 -0.4628 -0.2941
 5828TIP3    H138975   3.822   0.603  15.599 -0.9148  1.4142  0.6618
 5828TIP3    H238976   3.833   0.607  15.750  1.9230 -2.5839  0.7099
 5829TIP3   OH238977   0.280   0.939   0.190  0.1237  0.1894 -0.6079
 5829TIP3    H138978   0.198   0.953   0.238  0.6378  1.4331 -0.0517
 5829TIP3    H238979   0.275   1.001   0.116  0.0292 -0.6119 -1.2877
 5830TIP3   OH238980   3.856   6.387  14.355 -0.3788 -0.5046  1.1315
 5830TIP3    H138981   3.772   6.384  14.400 -0.3587 -1.8771  1.1424
 5830TIP3    H238982   3.914   6.333  14.409  0.2516 -0.3355  0.6363
 5831TIP3   OH238983   4.570   2.122  14.405 -0.3961 -0.8964 -0.6005
 5831TIP3    H138984   4.505   2.059  14.435 -0.7965 -0.2874 -0.1886
 5831TIP3    H238985   4.638   2.068  14.365 -0.8272 -1.5793 -0.4271
 5832TIP3   OH238986   0.477   1.553   0.912 -0.5174  0.2134 -0.0427
 5832TIP3    H138987   0.444   1.464   0.923 -1.5909  0.8024  1.9928
 5832TIP3    H238988   0.566   1.542   0.878 -0.4399 -1.6619  0.6572
 5833TIP3   OH238989   6.598   3.539  16.238  0.5083  0.2849  0.5785
 5833TIP3    H138990   6.668   3.474  16.235 -0.9670 -1.4708  1.7179
 5833TIP3    H238991   6.571   3.549  16.147  1.0014 -0.4514  0.3413
 5834TIP3   OH238992   4.758   3.494   2.720  0.4564 -0.0037  1.0260
 5834TIP3    H138993   4.699   3.539   2.780 -2.4939 -0.0165 -1.6291
 5834TIP3    H238994   4.726   3.404   2.715 -0.9039  0.5069 -2.1097
 5835TIP3   OH238995   3.920   3.502  14.673 -0.0905 -0.2448 -0.2562
 5835TIP3    H138996   3.947   3.575  14.618 -1.3274  0.6379  0.2617
 5835TIP3    H238997   3.949   3.525  14.761 -0.7174 -0.2400 -0.0459
 5836TIP3   OH238998   1.413   6.280  14.696  0.4827  0.0727  0.3710
 5836TIP3    H138999   1.375   6.194  14.715  1.0903 -0.3745 -0.3816
 5836TIP3    H239000   1.490   6.285  14.753  0.0715  0.4093  0.9066
 5837TIP3   OH239001   2.862   1.869  15.574 -0.9174  1.0560  0.2547
 5837TIP3    H139002   2.836   1.902  15.660  0.9565 -0.4346  1.4698
 5837TIP3    H239003   2.918   1.938  15.538  0.9036  0.4031  1.6763
 5838TIP3   OH239004   6.121   2.198  12.143 -0.5761  0.5574 -0.4188
 5838TIP3    H139005   6.187   2.153  12.196 -0.5255  3.4864  2.3192
 5838TIP3    H239006   6.041   2.192  12.195 -1.1281  1.5843 -1.1159
 5839TIP3   OH239007   6.784   3.453   1.097 -0.3337 -0.0738  0.2818
 5839TIP3    H139008   6.835   3.393   1.043 -0.5840 -0.6117  0.6392
 5839TIP3    H239009   6.694   3.442   1.067 -0.1282  1.8922 -1.3303
 5840TIP3   OH239010   4.922   6.024  14.699  0.1432  0.7551 -0.5275
 5840TIP3    H139011   4.885   5.995  14.782 -0.5049 -1.7693 -1.5833
 5840TIP3    H239012   4.848   6.058  14.649  0.2248  0.7207 -0.6737
 5841TIP3   OH239013   0.389   6.589   3.448  0.2428  0.0684 -0.0920
 5841TIP3    H139014   0.429   6.502   3.441  0.5386  0.2996 -1.6891
 5841TIP3    H239015   0.308   6.574   3.496  0.4251 -1.0498 -0.1049
 5842TIP3   OH239016   2.902   1.072   6.191 -0.1422  0.5895 -0.3840
 5842TIP3    H139017   2.892   1.117   6.107 -0.1160 -0.9136 -1.2282
 5842TIP3    H239018   2.972   1.009   6.176 -0.9590 -0.5376  0.3710
 5843TIP3   OH239019   1.541   5.496  12.880 -0.2569  0.2815 -0.0325
 5843TIP3    H139020   1.539   5.587  12.851  0.5040  0.6751  1.0576
 5843TIP3    H239021   1.632   5.482  12.907 -0.6774 -0.3569  1.1351
 5844TIP3   OH239022   5.479   3.403   2.639  0.6811  0.0589 -0.4166
 5844TIP3    H139023   5.521   3.432   2.720  1.4982 -0.9001 -0.4870
 5844TIP3    H239024   5.551   3.391   2.578  0.1230  0.1712 -1.1049
 5845TIP3   OH239025   2.658   5.245  12.431 -0.5743  0.3795  0.7606
 5845TIP3    H139026   2.720   5.280  12.495 -1.4737  2.2649  0.6536
 5845TIP3    H239027   2.685   5.154  12.420  0.9984  0.6257  2.1185
 5846TIP3   OH239028   1.132   1.866  12.038  0.4708 -0.0465 -0.5693
 5846TIP3    H139029   1.112   1.795  12.099  2.6796  1.1144  1.7263
 5846TIP3    H239030   1.067   1.857  11.968 -2.3072 -1.4589  1.9510
 5847TIP3   OH239031   4.001   5.730   1.823  0.0035  0.5212  0.7609
 5847TIP3    H139032   3.990   5.751   1.730 -0.7034 -0.7118  0.5406
 5847TIP3    H239033   4.096   5.721   1.834  0.0715  0.2373  0.0375
 5848TIP3   OH239034   2.818   4.359   4.534 -1.0480  0.4464  0.1730
 5848TIP3    H139035   2.753   4.374   4.602 -3.5288 -0.5298 -1.8502
 5848TIP3    H239036   2.865   4.281   4.563  0.4471  2.0232  2.4097
 5849TIP3   OH239037   1.210   1.878   6.281  0.3136  0.3873  0.7480
 5849TIP3    H139038   1.305   1.864   6.281  0.1952 -0.4493  0.7098
 5849TIP3    H239039   1.192   1.917   6.366  0.7746  1.1991  0.4911
 5850TIP3   OH239040   2.260   0.674  12.885  0.0099  0.2114  0.3892
 5850TIP3    H139041   2.282   0.594  12.933  1.0750 -0.4552 -1.1406
 5850TIP3    H239042   2.309   0.668  12.803 -0.4833  2.0827 -0.1023
 5851TIP3   OH239043   1.153   6.419  13.247  0.1263  0.0534 -0.2116
 5851TIP3    H139044   1.193   6.442  13.331  1.4463 -1.0757 -0.4981
 5851TIP3    H239045   1.095   6.346  13.267  2.7120 -2.2908 -0.6646
 5852TIP3   OH239046   0.446   5.752   2.887  0.0061 -0.2003 -0.6065
 5852TIP3    H139047   0.423   5.665   2.918 -0.4150 -0.1049 -0.6359
 5852TIP3    H239048   0.363   5.800   2.888  0.4181  0.5285  0.4607
 5853TIP3   OH239049   5.727   3.666   4.545  0.0280  0.8491 -0.3961
 5853TIP3    H139050   5.648   3.621   4.515 -0.9820  0.7228  2.2198
 5853TIP3    H239051   5.715   3.757   4.518 -0.4096  0.6010 -1.0659
 5854TIP3   OH239052   5.451   0.452   4.488 -0.8559 -0.0842 -0.3214
 5854TIP3    H139053   5.496   0.370   4.465 -1.1111 -0.8862  1.8452
 5854TIP3    H239054   5.376   0.455   4.429 -0.0622 -0.6401 -1.4136
 5855TIP3   OH239055   4.297   5.255   6.005 -0.5835  0.9785 -0.6263
 5855TIP3    H139056   4.292   5.334   6.059  0.0332  1.1849 -0.8665
 5855TIP3    H239057   4.386   5.222   6.018 -1.2858 -0.5462  0.6793
 5856TIP3   OH239058   0.226   0.481   1.880  0.5670  0.0099 -0.0888
 5856TIP3    H139059   0.285   0.471   1.955 -1.4845  0.6281  1.7105
 5856TIP3    H239060   0.190   0.393   1.867  1.4930 -0.2621 -0.8683
 5857TIP3   OH239061   3.209   2.462  16.385  0.7742  0.1338 -0.2946
 5857TIP3    H139062   3.137   2.454  16.323  2.4576 -0.5828 -2.2800
 5857TIP3    H239063   3.228   2.372  16.412  0.6790  0.3548  0.5494
 5858TIP3   OH239064   1.556   1.102  11.462 -0.3395  0.2358  0.8853
 5858TIP3    H139065   1.481   1.111  11.403 -1.6401 -0.1895  2.3985
 5858TIP3    H239066   1.623   1.058  11.410 -0.8571  1.3200 -0.7331
 5859TIP3   OH239067   2.355   3.863  12.156  0.6621  0.3182  0.3385
 5859TIP3    H139068   2.443   3.893  12.135  0.2178 -0.4202 -3.1797
 5859TIP3    H239069   2.318   3.836  12.072 -2.6862 -0.0878  1.7859
 5860TIP3   OH239070   6.373   6.530  16.164 -0.3677  0.4056  0.0852
 5860TIP3    H139071   6.391   6.438  16.145 -0.6215  0.3184  0.2595
 5860TIP3    H239072   6.330   6.529  16.250  1.3868  0.8445  1.0048
 5861TIP3   OH239073   4.423   1.905  14.493  0.0940 -0.2286  0.6409
 5861TIP3    H139074   4.333   1.918  14.465 -0.9887  1.5508  4.2100
 5861TIP3    H239075   4.430   1.811  14.511 -0.8056 -0.4859 -0.2807
 5862TIP3   OH239076   2.161   6.672  12.460 -0.4925  0.4577 -0.3711
 5862TIP3    H139077   2.187   6.717  12.541 -0.0336 -1.6394  0.7132
 5862TIP3    H239078   2.228   6.604  12.448 -1.6530 -0.5412 -1.4286
 5863TIP3   OH239079   5.812   0.883   0.855  0.4679 -0.6741  0.1344
 5863TIP3    H139080   5.847   0.938   0.925 -1.5590  1.3305 -0.3059
 5863TIP3    H239081   5.861   0.908   0.777  1.5115 -1.6279  0.4596
 5864TIP3   OH239082   1.583   0.444   0.910  0.1585  0.3150  0.1297
 5864TIP3    H139083   1.646   0.502   0.953  1.6697 -2.5646  2.0999
 5864TIP3    H239084   1.636   0.387   0.855 -1.2461  0.4390 -1.4305
 5865TIP3   OH239085   4.810   0.363   5.456 -0.2621 -0.0484 -0.0172
 5865TIP3    H139086   4.761   0.331   5.380  0.3358  1.6410 -1.1697
 5865TIP3    H239087   4.893   0.393   5.420  0.3794  0.0205  1.4537
 5866TIP3   OH239088   4.118   4.567  11.690  0.5475  0.3184 -0.1075
 5866TIP3    H139089   4.178   4.530  11.626 -0.3523 -1.3634 -0.0436
 5866TIP3    H239090   4.034   4.572  11.643  0.1184  0.0475  0.6177
 5867TIP3   OH239091   2.536   4.935   3.093 -0.0090 -0.5456  0.1461
 5867TIP3    H139092   2.442   4.939   3.110 -0.2995 -1.4723 -1.1393
 5867TIP3    H239093   2.571   5.013   3.136 -1.2075 -0.7325  1.5329
 5868TIP3   OH239094   2.394   2.164   3.905 -0.4581  0.1123  0.1580
 5868TIP3    H139095   2.363   2.090   3.958  0.0626 -0.4658 -0.3266
 5868TIP3    H239096   2.485   2.176   3.932 -0.5783  0.6654  0.3237
 5869TIP3   OH239097   3.570   0.656  14.961  0.1332  0.5251  0.1229
 5869TIP3    H139098   3.530   0.597  14.896 -1.1678  2.5571 -1.0297
 5869TIP3    H239099   3.662   0.630  14.963 -0.6057 -2.4383  0.7448
 5870TIP3   OH239100   2.286   5.124  12.683 -0.2854  0.0206  0.2612
 5870TIP3    H139101   2.230   5.097  12.610  0.6239  0.7299 -0.7331
 5870TIP3    H239102   2.271   5.218  12.692 -0.4020 -0.0641  1.0095
 5871TIP3   OH239103   5.346   2.980  13.074  0.1887  0.1590  0.0646
 5871TIP3    H139104   5.395   2.902  13.099 -1.9317 -0.9309  1.1100
 5871TIP3    H239105   5.254   2.954  13.080 -0.5782  2.1381 -1.6120
 5872TIP3   OH239106   3.929   4.221  16.060 -0.3446  0.4205 -0.2832
 5872TIP3    H139107   3.934   4.202  15.966 -1.8075  0.2303 -0.3438
 5872TIP3    H239108   3.845   4.184  16.087  0.9777 -1.4327  1.5679
 5873TIP3   OH239109   6.758   1.162  15.505 -0.4904 -0.1745  0.2723
 5873TIP3    H139110   6.841   1.116  15.499  0.3491  1.4614 -1.4300
 5873TIP3    H239111   6.709   1.133  15.428 -1.9962 -1.8608  1.7332
 5874TIP3   OH239112   5.381   3.670   0.137  0.4874  0.0867  0.0750
 5874TIP3    H139113   5.417   3.583   0.120 -0.1356 -0.5263  1.6724
 5874TIP3    H239114   5.427   3.699   0.216 -0.3331  0.5873  0.3774
 5875TIP3   OH239115   4.219   4.919   2.063  0.0880 -0.5806 -0.5206
 5875TIP3    H139116   4.200   4.874   2.146  0.8473  0.1382  0.0565
 5875TIP3    H239117   4.260   4.851   2.009 -1.3885 -1.3489 -0.7248
 5876TIP3   OH239118   4.076   3.448  12.946 -0.5019 -0.5222 -0.1722
 5876TIP3    H139119   4.097   3.476  13.035  0.1220 -0.1499 -0.4301
 5876TIP3    H239120   4.125   3.508  12.890 -0.2737 -1.2330 -0.7521
 5877TIP3   OH239121   3.144   0.472   3.785 -0.0244 -0.2953 -0.1433
 5877TIP3    H139122   3.071   0.530   3.764 -1.8922 -1.0124  3.4473
 5877TIP3    H239123   3.108   0.384   3.773  0.5259 -0.6642  0.7778
 5878TIP3   OH239124   5.122   6.776   4.503  0.1293  0.0361  0.2949
 5878TIP3    H139125   5.031   6.762   4.532  0.1538 -0.8402 -0.0188
 5878TIP3    H239126   5.175   6.751   4.578  0.0916  3.6417  1.6871
 5879TIP3   OH239127   4.067   2.704   2.792  0.3179 -0.3486 -0.0048
 5879TIP3    H139128   4.011   2.745   2.858 -0.2132 -0.4881 -0.3596
 5879TIP3    H239129   4.130   2.772   2.767  0.5812 -0.3269  0.7084
 5880TIP3   OH239130   0.449   6.437  16.135 -0.3786 -0.0922  0.3526
 5880TIP3    H139131   0.375   6.493  16.158 -0.7525  0.3369 -1.6986
 5880TIP3    H239132   0.441   6.425  16.041  1.9182 -0.3883  0.1449
 5881TIP3   OH239133   3.790   4.499   5.734  0.8336  0.2063  0.3378
 5881TIP3    H139134   3.846   4.573   5.712 -0.1885  1.1415  0.7674
 5881TIP3    H239135   3.799   4.488   5.828 -0.9423  1.4681  0.7046
 5882TIP3   OH239136   6.623   5.678  13.640  0.3477 -0.0921 -0.1896
 5882TIP3    H139137   6.568   5.604  13.664 -0.4166  0.9096  1.3015
 5882TIP3    H239138   6.671   5.648  13.563 -0.4424 -1.8756 -0.0390
 5883TIP3   OH239139   3.174   3.662  14.577 -0.1076  0.1871 -0.3374
 5883TIP3    H139140   3.258   3.707  14.573 -1.0519  2.0515  0.0965
 5883TIP3    H239141   3.139   3.681  14.663 -0.7124 -1.1320 -0.2548
 5884TIP3   OH239142   4.789   0.645   4.642  0.0465 -0.1862 -0.2222
 5884TIP3    H139143   4.750   0.625   4.557 -0.8606 -0.0817  0.1576
 5884TIP3    H239144   4.827   0.732   4.632  0.1614 -0.2787 -0.5921
 5885TIP3   OH239145   4.801   2.882  12.907 -0.0766  0.1085 -0.0393
 5885TIP3    H139146   4.792   2.797  12.949  1.1245 -0.1140 -0.1884
 5885TIP3    H239147   4.750   2.942  12.961 -0.4692 -0.5999  0.3849
 5886TIP3   OH239148   0.403   4.176   3.870  0.8255 -0.4418 -0.1810
 5886TIP3    H139149   0.409   4.268   3.845 -2.2934 -0.2019 -0.5189
 5886TIP3    H239150   0.364   4.177   3.958  2.1738 -1.4514  0.4662
 5887TIP3   OH239151   5.446   6.290  13.067  0.1440 -0.2899  0.8222
 5887TIP3    H139152   5.393   6.215  13.093 -1.3346  0.1744 -0.6929
 5887TIP3    H239153   5.461   6.278  12.973  0.0087  1.2218  0.5842
 5888TIP3   OH239154   5.091   6.479  16.084  0.0280  0.6897 -0.0731
 5888TIP3    H139155   5.057   6.563  16.115  0.3817  0.3611  1.2261
 5888TIP3    H239156   5.070   6.479  15.990 -1.4699  1.4975  0.2281
 5889TIP3   OH239157   3.887   1.627  15.417  0.2725 -0.5059 -0.2540
 5889TIP3    H139158   3.964   1.680  15.399 -0.8516  0.8866 -1.1411
 5889TIP3    H239159   3.882   1.624  15.513  0.0945  1.4531 -0.1616
 5890TIP3   OH239160   2.690   6.137   1.910  0.0785  0.4455  0.6731
 5890TIP3    H139161   2.594   6.132   1.911  0.0924  0.0448 -0.0049
 5890TIP3    H239162   2.719   6.057   1.954  0.1240 -0.4320 -0.8965
 5891TIP3   OH239163   2.628   6.028  13.845 -0.2636 -0.3024 -0.0535
 5891TIP3    H139164   2.641   5.938  13.815 -0.6399  0.1481 -1.6619
 5891TIP3    H239165   2.592   6.074  13.769 -0.7544  1.0480  0.9511
 5892TIP3   OH239166   1.364   6.565  16.881 -0.3056 -0.1098  0.2406
 5892TIP3    H139167   1.381   6.609  16.965 -1.6236 -2.2310  1.7439
 5892TIP3    H239168   1.269   6.551  16.880 -0.9387  3.1242 -3.4571
 5893TIP3   OH239169   1.887   6.192   4.098 -0.4675  0.2157  0.2300
 5893TIP3    H139170   1.961   6.140   4.129 -0.8224 -0.3921  0.0642
 5893TIP3    H239171   1.832   6.203   4.176 -0.1086  0.8430  0.4024
 5894TIP3   OH239172   2.654   1.775  16.930  0.2951 -0.0325 -0.1382
 5894TIP3    H139173   2.707   1.848  16.899  0.7619  0.3660  1.5180
 5894TIP3    H239174   2.621   1.733  16.850  4.0664 -1.0744 -1.3650
 5895TIP3   OH239175   3.027   3.972   3.506  0.1891 -0.4819  0.4565
 5895TIP3    H139176   2.944   3.952   3.548 -0.0832 -0.6353 -0.1446
 5895TIP3    H239177   3.055   4.055   3.546  1.1524 -1.8062  2.7005
 5896TIP3   OH239178   5.187   1.269   1.858  0.7405 -0.1093  0.1431
 5896TIP3    H139179   5.093   1.271   1.840  0.5641  0.0505  1.0230
 5896TIP3    H239180   5.210   1.176   1.848  0.9433  0.1240 -2.1328
 5897TIP3   OH239181   3.555   4.958  11.305  0.5576 -0.1550  0.3808
 5897TIP3    H139182   3.595   4.995  11.226  0.5129  1.8973  1.2626
 5897TIP3    H239183   3.466   4.936  11.278  1.0896 -1.2267 -0.6006
 5898TIP3   OH239184   2.427   3.722   0.693  0.6330 -0.1023  0.1242
 5898TIP3    H139185   2.458   3.812   0.707  2.1983 -0.7027  0.7130
 5898TIP3    H239186   2.469   3.695   0.612  2.0560 -1.0703  1.1426
 5899TIP3   OH239187   5.620   3.326  11.748  0.2193  0.1243  0.3161
 5899TIP3    H139188   5.668   3.405  11.775  0.0951 -0.1095  1.2600
 5899TIP3    H239189   5.683   3.276  11.696  0.4248  0.6560  0.0459
 5900TIP3   OH239190   2.410   3.669  13.368 -0.4285  0.1732 -0.0122
 5900TIP3    H139191   2.442   3.656  13.279 -1.2484 -0.2151 -0.2612
 5900TIP3    H239192   2.455   3.748  13.399  0.9493 -0.4893 -0.2463
 5901TIP3   OH239193   4.670   5.403  14.778 -0.1596 -0.8512 -0.1600
 5901TIP3    H139194   4.591   5.458  14.775  1.4382  1.6005 -0.6635
 5901TIP3    H239195   4.649   5.335  14.841 -2.7805 -0.4890 -0.5152
 5902TIP3   OH239196   5.622   5.518  12.209  0.6659  0.7333 -0.6631
 5902TIP3    H139197   5.629   5.532  12.303 -1.2048 -1.2442 -0.1406
 5902TIP3    H239198   5.712   5.510  12.179  1.2748 -0.0124  1.2135
 5903TIP3   OH239199   2.671   6.704   6.244  0.4353  0.1688 -0.4769
 5903TIP3    H139200   2.614   6.772   6.279 -0.4034 -0.9639  0.4514
 5903TIP3    H239201   2.737   6.691   6.312  0.2375 -0.3314 -0.3692
 5904TIP3   OH239202   1.003   0.856  12.577  0.1769 -0.0966 -0.0841
 5904TIP3    H139203   0.981   0.773  12.535  1.0266  0.0746 -0.8880
 5904TIP3    H239204   1.025   0.914  12.505  1.1920  0.3521  0.5664
 5905TIP3   OH239205   4.531   4.522   2.032 -0.9348  0.1824 -1.1895
 5905TIP3    H139206   4.606   4.498   1.977 -0.0788  1.1640 -0.4704
 5905TIP3    H239207   4.496   4.438   2.061  0.5853 -0.2898 -0.6118
 5906TIP3   OH239208   3.999   6.699  15.884 -0.0014  0.8492 -0.1855
 5906TIP3    H139209   3.921   6.664  15.927 -1.3833  0.5851 -2.6628
 5906TIP3    H239210   3.995   6.793  15.899 -0.9109  0.8581 -0.4013
 5907TIP3   OH239211   0.989   0.669  12.346  1.1910  0.4282  0.0199
 5907TIP3    H139212   0.958   0.684  12.257  1.7483  0.9758 -0.0908
 5907TIP3    H239213   0.980   0.575  12.359  0.4145  0.4444 -0.3442
 5908TIP3   OH239214   2.882   5.229   3.313 -0.2380  0.2333  0.1280
 5908TIP3    H139215   2.957   5.261   3.263 -0.0644 -0.1460  0.1404
 5908TIP3    H239216   2.850   5.306   3.360 -1.6796  1.0721 -2.1090
 5909TIP3   OH239217   2.731   2.397  11.454 -0.2587 -0.8733  0.4951
 5909TIP3    H139218   2.784   2.321  11.478  0.6368 -0.4669 -0.1035
 5909TIP3    H239219   2.764   2.422  11.367 -3.4089 -2.3457 -1.2588
 5910TIP3   OH239220   0.656   1.165  11.622 -0.5783 -0.6580 -0.0154
 5910TIP3    H139221   0.693   1.079  11.602  0.2961 -0.4688  0.7505
 5910TIP3    H239222   0.570   1.146  11.659 -0.6169 -1.1737 -0.3599
 5911TIP3   OH239223   5.926   1.234   3.831 -0.5648  0.5472  0.6229
 5911TIP3    H139224   5.988   1.277   3.772 -0.1687  1.8555  1.9436
 5911TIP3    H239225   5.847   1.288   3.827 -1.0946 -0.2387  0.1357
 5912TIP3   OH239226   2.900   6.048  13.688 -0.5425  0.2341  0.1049
 5912TIP3    H139227   2.810   6.066  13.716 -0.5840 -1.3841  1.1619
 5912TIP3    H239228   2.894   5.964  13.643  0.2628  0.7006 -0.8914
 5913TIP3   OH239229   5.927   0.757  14.676  0.6392 -0.5080 -0.1071
 5913TIP3    H139230   5.875   0.678  14.692 -1.3100  0.7895  0.4304
 5913TIP3    H239231   5.936   0.762  14.581  1.1415 -1.5657 -0.1279
 5914TIP3   OH239232   4.393   4.320  11.964 -0.1243  0.1778  0.7360
 5914TIP3    H139233   4.488   4.315  11.963 -0.0966 -0.0465 -1.5916
 5914TIP3    H239234   4.364   4.244  11.913 -1.5178  0.6386  0.7747
 5915TIP3   OH239235   6.113   5.831   3.690 -0.0717  0.0669  0.0719
 5915TIP3    H139236   6.082   5.914   3.726  0.6746  0.5826 -0.4400
 5915TIP3    H239237   6.034   5.778   3.680 -0.3055 -0.2717  2.8243
 5916TIP3   OH239238   5.740   3.749   2.723 -0.4686  0.2008  0.0054
 5916TIP3    H139239   5.720   3.718   2.811 -1.3935  0.2775 -0.1754
 5916TIP3    H239240   5.815   3.695   2.696  0.8209  1.2113  1.3954
 5917TIP3   OH239241   2.745   5.284  15.243 -0.3748 -0.4354  0.4158
 5917TIP3    H139242   2.826   5.318  15.282 -0.5949  0.1022  0.4107
 5917TIP3    H239243   2.747   5.190  15.262  1.8257 -1.0876 -2.3339
 5918TIP3   OH239244   2.334   3.253  11.096  0.2066  0.9429 -0.4947
 5918TIP3    H139245   2.375   3.248  11.182  2.1014 -1.1372 -1.4103
 5918TIP3    H239246   2.306   3.163  11.078 -1.6534  1.6538 -1.3888
 5919TIP3   OH239247   5.980   4.211  14.797 -0.5203  0.2679 -0.0626
 5919TIP3    H139248   5.946   4.190  14.710  0.8019 -0.3077 -0.4724
 5919TIP3    H239249   5.963   4.132  14.849 -0.6016  0.3100 -0.0256
 5920TIP3   OH239250   1.369   3.171   1.576  0.0459  0.2509 -0.7339
 5920TIP3    H139251   1.459   3.206   1.581 -0.0052  0.3591 -0.5703
 5920TIP3    H239252   1.322   3.215   1.647  0.2671 -1.0183  0.2361
 5921TIP3   OH239253   0.656   1.229   2.326 -0.0199  0.0225  0.6660
 5921TIP3    H139254   0.679   1.275   2.245 -2.7052  0.1608 -0.0863
 5921TIP3    H239255   0.672   1.137   2.307 -0.0836  0.1104  0.1846
 5922TIP3   OH239256   6.612   4.021  10.462  0.2502 -0.3246  0.3785
 5922TIP3    H139257   6.645   3.938  10.428  1.6654  0.2701  0.2605
 5922TIP3    H239258   6.520   4.023  10.433 -0.4816 -2.7877  2.1721
 5923TIP3   OH239259   2.363   1.290  11.956 -0.2383 -0.1046  0.1166
 5923TIP3    H139260   2.408   1.349  11.895 -0.0237 -1.2537 -0.8848
 5923TIP3    H239261   2.273   1.322  11.959 -0.2735 -0.0770 -0.8948
 5924TIP3   OH239262   5.092   3.832   4.480  0.0988 -0.0732  1.0083
 5924TIP3    H139263   5.177   3.859   4.444  0.8704 -1.6782  1.5085
 5924TIP3    H239264   5.060   3.766   4.418  0.7327 -1.7655  2.4184
 5925TIP3   OH239265   4.492   2.303  13.551 -0.1184  0.4510  0.0374
 5925TIP3    H139266   4.428   2.328  13.484 -0.9373 -2.1622 -0.2742
 5925TIP3    H239267   4.556   2.249  13.504  0.4007  0.2297  0.9771
 5926TIP3   OH239268   6.608   1.526   1.326 -0.1043 -0.1365  0.3029
 5926TIP3    H139269   6.655   1.574   1.257 -1.0394  1.1238  0.5004
 5926TIP3    H239270   6.671   1.462   1.358  1.2339  1.0065  0.0632
 5927TIP3   OH239271   4.540   0.726   2.162  0.2940 -0.7798  0.2745
 5927TIP3    H139272   4.628   0.750   2.134  0.2783  1.2027  1.7614
 5927TIP3    H239273   4.543   0.728   2.257 -1.4226 -0.3244  0.3528
 5928TIP3   OH239274   5.843   1.720   6.611  0.0158  0.1037 -0.1834
 5928TIP3    H139275   5.868   1.806   6.644 -0.5400  0.6905 -1.2373
 5928TIP3    H239276   5.838   1.731   6.516 -2.3176 -0.4539 -0.1984
 5929TIP3   OH239277   3.066   5.997   4.782  0.5834 -0.4557  0.7592
 5929TIP3    H139278   3.123   5.964   4.713  2.3194  1.3018  1.2467
 5929TIP3    H239279   2.988   6.029   4.736  1.0877 -0.5796 -0.2038
 5930TIP3   OH239280   6.226   0.527  15.181  0.5258  0.6600 -0.0558
 5930TIP3    H139281   6.143   0.525  15.132  2.0184 -0.3902 -2.8175
 5930TIP3    H239282   6.207   0.482  15.263 -1.2500 -1.3375 -1.4444
 5931TIP3   OH239283   1.449   0.833   5.387  0.3856 -0.3578 -0.2549
 5931TIP3    H139284   1.362   0.809   5.356  1.3732 -1.7407 -2.0887
 5931TIP3    H239285   1.432   0.887   5.465 -2.1130  0.1999 -1.0886
 5932TIP3   OH239286   1.124   5.369   2.389  0.0630  0.7259  0.1344
 5932TIP3    H139287   1.098   5.457   2.419 -1.0699  0.4547  0.0013
 5932TIP3    H239288   1.199   5.346   2.444  0.7727  2.0201 -0.2473
 5933TIP3   OH239289   5.012   2.067   1.440  0.1948  0.1016  0.6327
 5933TIP3    H139290   5.001   1.979   1.405 -1.2337 -0.1404  1.6171
 5933TIP3    H239291   5.035   2.120   1.364 -2.0275 -0.5620 -0.5914
 5934TIP3   OH239292   2.889   0.605   3.391  0.3550  0.2676  0.3537
 5934TIP3    H139293   2.815   0.594   3.332  2.8120  2.5380 -3.5081
 5934TIP3    H239294   2.949   0.534   3.368  2.1266  2.2061 -1.4154
 5935TIP3   OH239295   1.950   6.506   3.349 -0.0853  0.0114 -1.0815
 5935TIP3    H139296   1.969   6.460   3.268  0.7219  1.0903 -1.5288
 5935TIP3    H239297   1.972   6.597   3.331 -0.6068  0.3990  0.1173
 5936TIP3   OH239298   6.631   3.582   2.370 -0.1818  0.0720 -0.2431
 5936TIP3    H139299   6.654   3.667   2.334  0.3106 -0.7916 -2.1018
 5936TIP3    H239300   6.584   3.538   2.299  0.4864 -1.5810  0.2986
 5937TIP3   OH239301   0.389   4.284  11.157 -0.5361 -0.2105 -0.3018
 5937TIP3    H139302   0.475   4.305  11.194 -0.5135 -0.9920  0.0968
 5937TIP3    H239303   0.354   4.217  11.215 -1.8373  0.7849  0.1171
 5938TIP3   OH239304   0.011   1.471   2.310 -0.1282  0.0437 -0.1414
 5938TIP3    H139305   0.049   1.460   2.223  0.4866  0.1434  0.1078
 5938TIP3    H239306  -0.057   1.538   2.299  1.6714  1.9881 -0.0672
 5939TIP3   OH239307   2.852   4.691   3.770  0.0055 -0.5367 -0.0587
 5939TIP3    H139308   2.901   4.704   3.688 -0.1112  2.3183  0.2205
 5939TIP3    H239309   2.918   4.696   3.839 -0.2812  0.3375  0.1641
 5940TIP3   OH239310   3.880   4.652  11.228  0.3870 -0.0829  0.5668
 5940TIP3    H139311   3.898   4.746  11.215  3.6890 -0.6495  0.0354
 5940TIP3    H239312   3.794   4.650  11.271 -2.2365  2.9086 -3.7270
 5941TIP3   OH239313   0.667   0.397  16.374  0.3358  0.4058  0.1196
 5941TIP3    H139314   0.615   0.356  16.305 -1.8145  2.3571  0.4739
 5941TIP3    H239315   0.751   0.351  16.371 -0.5085 -1.1596 -2.1875
 5942TIP3   OH239316   5.884   1.295   1.169  0.4824 -0.1093  0.0371
 5942TIP3    H139317   5.882   1.360   1.239  0.7980 -2.5574  2.5181
 5942TIP3    H239318   5.960   1.318   1.117  0.0805  1.9661  0.2707
 5943TIP3   OH239319   0.241   4.965  15.421 -0.0122 -0.4637 -0.5148
 5943TIP3    H139320   0.241   4.948  15.327  1.3299  2.4544 -1.1612
 5943TIP3    H239321   0.322   5.012  15.437  0.0624 -1.3521  2.2658
 5944TIP3   OH239322   3.623   5.121   5.548 -0.2595 -0.1626 -0.4540
 5944TIP3    H139323   3.692   5.187   5.554 -0.1748  0.0567 -2.8501
 5944TIP3    H239324   3.551   5.157   5.601  0.3770  1.0466 -0.3804
 5945TIP3   OH239325   1.557   4.442   0.752 -0.2036 -0.1546  0.1151
 5945TIP3    H139326   1.638   4.444   0.700 -0.6713  1.7761 -0.6202
 5945TIP3    H239327   1.501   4.379   0.706  0.2310 -0.1496 -0.4374
 5946TIP3   OH239328   0.236   3.385  16.920 -0.0385  0.0328  0.1379
 5946TIP3    H139329   0.218   3.318  16.854 -1.0312  1.2275 -0.8471
 5946TIP3    H239330   0.280   3.338  16.991 -1.8569 -1.9006  0.0488
 5947TIP3   OH239331   3.861   3.885   4.113  0.1575  0.2781  0.1564
 5947TIP3    H139332   3.872   3.867   4.020  2.7181  0.6566  0.3255
 5947TIP3    H239333   3.783   3.835   4.137  1.3348 -2.6291 -1.4993
 5948TIP3   OH239334   4.318   2.125  16.314  0.4724 -0.3991 -0.1885
 5948TIP3    H139335   4.369   2.146  16.236  0.1814  3.4706  0.4448
 5948TIP3    H239336   4.379   2.138  16.387  0.3547 -2.5730  0.3745
 5949TIP3   OH239337   2.961   4.646  15.046  0.4964 -0.1552  0.2279
 5949TIP3    H139338   2.938   4.631  15.138  2.1449 -0.1677  0.6651
 5949TIP3    H239339   2.990   4.560  15.015  0.2577 -0.0779 -0.2147
 5950TIP3   OH239340   5.416   3.363   4.742 -0.5467 -0.2896 -0.2055
 5950TIP3    H139341   5.433   3.430   4.808  1.1357 -1.5460  0.7049
 5950TIP3    H239342   5.436   3.406   4.658  1.0288  0.1982  0.3984
 5951TIP3   OH239343   0.087   0.131  12.076  0.1256  0.3960  0.6422
 5951TIP3    H139344   0.100   0.037  12.069  0.6244  0.5820 -2.1966
 5951TIP3    H239345   0.091   0.150  12.170  0.6760 -2.2884  1.2223
 5952TIP3   OH239346   2.131   1.082  14.031 -0.2513 -0.1601  0.0394
 5952TIP3    H139347   2.203   1.079  14.094 -0.4612  0.8324  0.3512
 5952TIP3    H239348   2.147   1.009  13.971  1.3694  0.4204 -0.2690
 5953TIP3   OH239349   4.103   4.698  14.565 -0.0514  0.0014 -0.3767
 5953TIP3    H139350   4.173   4.697  14.500 -2.1839 -1.6490 -2.8828
 5953TIP3    H239351   4.087   4.790  14.582  3.0600  0.4443  0.8399
 5954TIP3   OH239352   4.914   6.286  15.872  0.2036 -0.3022  0.2921
 5954TIP3    H139353   4.840   6.275  15.813  0.1157  0.7617  0.1869
 5954TIP3    H239354   4.950   6.373  15.850  1.5413 -0.8367  0.2567
 5955TIP3   OH239355   1.767   5.085   4.876 -0.2009  0.0696  0.0100
 5955TIP3    H139356   1.795   5.043   4.958 -0.4393 -0.8306 -0.3516
 5955TIP3    H239357   1.833   5.152   4.859  0.6350 -0.6822  0.2196
 5956TIP3   OH239358   6.203   5.613  10.256  0.4126 -0.0837  0.1734
 5956TIP3    H139359   6.275   5.550  10.246 -0.6909 -1.3708  0.0037
 5956TIP3    H239360   6.246   5.698  10.259  2.0357 -0.8752  1.0924
 5957TIP3   OH239361   4.180   5.194  12.005  1.1545  0.4816 -0.1266
 5957TIP3    H139362   4.186   5.186  12.100 -1.6633  0.1040  0.0844
 5957TIP3    H239363   4.174   5.104  11.973 -0.7958  0.6674 -0.3705
 5958TIP3   OH239364   4.190   4.146  16.109 -0.5500  0.5590 -0.0000
 5958TIP3    H139365   4.221   4.233  16.134 -1.9702  0.9507  0.4861
 5958TIP3    H239366   4.095   4.150  16.119 -0.6042 -1.2651  0.7104
 5959TIP3   OH239367   1.742   6.179  13.597 -0.2677 -0.2261  0.1431
 5959TIP3    H139368   1.646   6.170  13.597 -0.2340 -0.6173 -0.6595
 5959TIP3    H239369   1.759   6.246  13.664 -1.1722  0.5373 -0.3587
 5960TIP3   OH239370   1.947   3.069  13.092 -0.0096 -0.4260 -0.0246
 5960TIP3    H139371   2.000   3.054  13.170 -0.5695  0.6706  0.5832
 5960TIP3    H239372   1.974   3.000  13.031  1.6616 -0.2777  0.4993
 5961TIP3   OH239373   5.592   3.735  11.919 -0.2204 -0.3999 -0.1141
 5961TIP3    H139374   5.634   3.684  11.988  2.2674 -0.4584 -1.5364
 5961TIP3    H239375   5.582   3.673  11.847  0.7488  0.5263 -1.0780
 5962TIP3   OH239376   1.500   6.839   5.014 -0.2373  0.3044 -0.1533
 5962TIP3    H139377   1.521   6.789   4.935  1.2476  0.6686 -0.0178
 5962TIP3    H239378   1.464   6.921   4.982  0.2304  0.3937 -0.4584
 5963TIP3   OH239379   2.718   0.628  15.790  0.1062 -0.0109  0.4169
 5963TIP3    H139380   2.811   0.640  15.769  0.1841  1.3678  1.3689
 5963TIP3    H239381   2.675   0.628  15.705  0.7423  1.9866  0.0296
 5964TIP3   OH239382   0.975   1.867   5.820  0.1068 -0.2363  0.4500
 5964TIP3    H139383   1.024   1.874   5.902 -0.8659 -0.6908  1.0933
 5964TIP3    H239384   0.943   1.777   5.820  0.1760 -0.2666 -0.4869
 5965TIP3   OH239385   2.142   6.052   1.466 -1.0176 -0.6562 -0.5936
 5965TIP3    H139386   2.068   6.112   1.457 -1.4059 -1.1530 -0.7563
 5965TIP3    H239387   2.107   5.979   1.518 -0.4996 -0.6559 -0.2381
 5966TIP3   OH239388   2.425   3.066  12.573 -0.2453 -0.1776  0.2262
 5966TIP3    H139389   2.518   3.045  12.577 -0.0972  0.5277  0.8635
 5966TIP3    H239390   2.403   3.092  12.663 -0.6293  1.3316 -0.2680
 5967TIP3   OH239391   0.725   2.203  13.844  0.2641 -0.5117  0.0002
 5967TIP3    H139392   0.640   2.226  13.883  0.6738  0.0900  0.5610
 5967TIP3    H239393   0.711   2.118  13.804 -0.5341 -0.5418  0.3298
 5968TIP3   OH239394   1.117   6.745   4.058  0.5081  0.6772 -0.2948
 5968TIP3    H139395   1.054   6.674   4.045  0.1791  1.0451 -0.7267
 5968TIP3    H239396   1.199   6.700   4.077  0.6453  0.1326 -2.0067
 5969TIP3   OH239397   1.061   1.385  15.175 -0.2088  0.0874 -0.0535
 5969TIP3    H139398   1.122   1.389  15.102  0.6329  1.8247  0.6902
 5969TIP3    H239399   1.065   1.471  15.216 -1.2201 -0.5755  1.5992
 5970TIP3   OH239400   2.647   0.150   1.718  0.0049  0.3652  0.1886
 5970TIP3    H139401   2.584   0.083   1.744 -0.6422  0.7207 -0.4342
 5970TIP3    H239402   2.600   0.206   1.656  0.5378  1.3883  0.6741
 5971TIP3   OH239403   5.736   3.924  14.277  0.5829  0.2176 -0.6073
 5971TIP3    H139404   5.683   3.999  14.304 -0.2641 -0.5331 -0.1051
 5971TIP3    H239405   5.684   3.881  14.209 -0.5310 -1.7041  1.3106
 5972TIP3   OH239406   1.150   6.134  12.013  0.1888  0.0040 -0.0794
 5972TIP3    H139407   1.176   6.147  12.104 -2.8638 -0.3027  0.9370
 5972TIP3    H239408   1.199   6.200  11.964  2.1662 -0.0543  1.6948
 5973TIP3   OH239409   4.969   5.389  11.182 -0.5337  0.6542 -0.5025
 5973TIP3    H139410   4.974   5.396  11.087  3.4792  0.9100 -0.4201
 5973TIP3    H239411   4.985   5.478  11.214 -2.4116  0.6908  0.4925
 5974TIP3   OH239412   3.261   5.832   4.645 -0.4924  0.1515  0.2572
 5974TIP3    H139413   3.267   5.897   4.575 -1.4545 -0.0241 -0.0014
 5974TIP3    H239414   3.294   5.752   4.606  1.4944  0.6409  0.8291
 5975TIP3   OH239415   5.220   0.519   4.812 -0.4401  0.0557  0.6755
 5975TIP3    H139416   5.177   0.498   4.729 -1.3212 -0.2768  1.2068
 5975TIP3    H239417   5.292   0.455   4.818  0.7107  1.1386 -0.6096
 5976TIP3   OH239418   5.173   6.541   1.566 -0.8084  0.5330 -0.4657
 5976TIP3    H139419   5.252   6.554   1.618 -1.0587 -2.3739  0.8428
 5976TIP3    H239420   5.198   6.567   1.477  1.3652  0.4558  0.0734
 5977TIP3   OH239421   3.042   5.201   0.371 -0.9497 -0.2489 -0.3382
 5977TIP3    H139422   3.044   5.285   0.325  0.1871 -0.8752 -1.5042
 5977TIP3    H239423   3.000   5.140   0.310  0.8834 -1.1719 -0.7523
 5978TIP3   OH239424   3.041   1.745   1.869 -0.0520  0.5895 -0.2536
 5978TIP3    H139425   2.961   1.788   1.899  0.4536  1.1852  0.3006
 5978TIP3    H239426   3.110   1.783   1.925  0.8750  1.4605 -1.9092
 5979TIP3   OH239427   5.287   5.155  14.735  0.3079 -0.5371  0.0217
 5979TIP3    H139428   5.262   5.208  14.811  0.9278 -0.6069  0.2832
 5979TIP3    H239429   5.214   5.164  14.674 -0.4747 -0.9518  0.8721
 5980TIP3   OH239430   3.850   5.232  12.960  0.4345 -0.0683 -0.1836
 5980TIP3    H139431   3.840   5.265  12.871 -2.2034  0.6574  0.2806
 5980TIP3    H239432   3.804   5.148  12.960  1.2203 -0.5025  0.2671
 5981TIP3   OH239433   2.438   1.441  16.572 -0.4410 -0.5330 -0.2629
 5981TIP3    H139434   2.513   1.381  16.577 -0.0347  0.0564  1.9392
 5981TIP3    H239435   2.395   1.420  16.489  1.6849 -1.4486 -1.1906
 5982TIP3   OH239436   1.496   5.136  12.206  0.1747 -0.1575 -0.6281
 5982TIP3    H139437   1.543   5.086  12.139  0.8111  0.7054 -0.8367
 5982TIP3    H239438   1.430   5.075  12.239  0.6576 -0.9988 -1.1754
 5983TIP3   OH239439   3.292   3.132  12.991  0.0320  0.1252 -0.0158
 5983TIP3    H139440   3.240   3.212  12.995 -0.9004 -0.3581 -1.7768
 5983TIP3    H239441   3.230   3.062  13.010  0.6309 -0.2784  0.5247
 5984TIP3   OH239442   5.078   6.014   6.073  0.0545 -0.2810 -0.2107
 5984TIP3    H139443   5.130   5.965   6.009 -1.0797 -0.4718 -1.0063
 5984TIP3    H239444   4.988   5.989   6.055 -0.4837  1.4513 -0.0647
 5985TIP3   OH239445   2.218   5.073   4.426 -0.1396 -0.0404 -0.0355
 5985TIP3    H139446   2.311   5.065   4.402 -0.4617  0.7198 -1.6567
 5985TIP3    H239447   2.178   4.992   4.395 -0.0171 -0.4131  0.7545
 5986TIP3   OH239448   3.352   5.866   6.626  0.2343  0.2429  0.3342
 5986TIP3    H139449   3.365   5.824   6.541  2.3121  2.7131 -0.7067
 5986TIP3    H239450   3.281   5.929   6.611  1.9264  2.1120 -0.2574
 5987TIP3   OH239451   6.788   0.707   1.522 -0.0927  0.0291 -0.2561
 5987TIP3    H139452   6.802   0.652   1.600  1.4704 -0.0299 -0.5500
 5987TIP3    H239453   6.833   0.789   1.542 -3.0293  1.6051  0.4929
 5988TIP3   OH239454   4.645   6.588   2.567  0.0745 -0.7510  0.0049
 5988TIP3    H139455   4.688   6.581   2.652 -1.8326  0.8303  1.1818
 5988TIP3    H239456   4.577   6.654   2.579  0.3226  0.2226 -3.0338
 5989TIP3   OH239457   4.127   6.731   2.405 -0.4244 -0.5664  0.0173
 5989TIP3    H139458   4.119   6.642   2.441 -0.7079 -1.1933 -1.5343
 5989TIP3    H239459   4.037   6.755   2.380 -0.1037 -0.5460 -1.1650
 5990TIP3   OH239460   0.159   1.362   0.631  0.4210 -0.0778  0.1308
 5990TIP3    H139461   0.199   1.429   0.574  0.2446 -0.5257 -0.5329
 5990TIP3    H239462   0.109   1.412   0.695  0.8158  0.4490  0.0368
 5991TIP3   OH239463   3.640   5.050  11.057 -0.1699  0.2128  0.2745
 5991TIP3    H139464   3.548   5.078  11.054 -0.7616 -1.4686  1.0881
 5991TIP3    H239465   3.677   5.079  10.974 -0.8831  2.6407  0.7318
 5992TIP3   OH239466   1.072   2.767  15.120  0.3420  0.1902  0.0632
 5992TIP3    H139467   1.027   2.695  15.076  1.7985 -1.1185  0.6099
 5992TIP3    H239468   1.107   2.727  15.200  1.9931  1.2781 -0.0828
 5993TIP3   OH239469   6.753   2.685   5.403 -0.1533 -0.8350 -0.3195
 5993TIP3    H139470   6.800   2.749   5.457 -0.0060 -1.6339  0.5193
 5993TIP3    H239471   6.720   2.621   5.466 -4.2527  0.7639 -0.5138
 5994TIP3   OH239472   2.067   3.645  12.482 -0.5919  0.1633 -0.4251
 5994TIP3    H139473   2.143   3.674  12.431 -0.8460  1.4927 -0.0818
 5994TIP3    H239474   2.059   3.552  12.461  0.4381  0.2546 -1.3509
 5995TIP3   OH239475   2.793   2.301   3.766  0.1040  0.2716  0.6254
 5995TIP3    H139476   2.791   2.396   3.774  1.5327  0.5831 -1.7995
 5995TIP3    H239477   2.863   2.273   3.825  1.5453  1.0746 -0.6156
 5996TIP3   OH239478   4.712   5.671  13.787  0.1059 -0.0297 -0.1085
 5996TIP3    H139479   4.803   5.697  13.782  0.4446 -0.6528  1.8790
 5996TIP3    H239480   4.680   5.675  13.697  1.5169  2.1222 -0.5690
 5997TIP3   OH239481   6.006   1.411   5.621 -0.6152  0.6258  0.1910
 5997TIP3    H139482   5.917   1.418   5.587 -1.1591 -0.8968  1.1753
 5997TIP3    H239483   6.026   1.318   5.616  0.1423  0.6612  1.8192
 5998TIP3   OH239484   1.765   1.893   1.599 -0.1550  0.3743 -0.2153
 5998TIP3    H139485   1.843   1.847   1.568  0.8955  0.2840  2.3137
 5998TIP3    H239486   1.797   1.980   1.623 -1.2310  0.9681 -0.8643
 5999TIP3   OH239487   1.367   3.050   0.472 -0.5075 -0.3002  0.7580
 5999TIP3    H139488   1.273   3.062   0.456 -0.3639  0.1388  0.1932
 5999TIP3    H239489   1.389   3.119   0.534 -0.2815  0.5281 -0.2114
 6000TIP3   OH239490   1.901   4.076   3.564 -0.0863  0.2948  0.2152
 6000TIP3    H139491   1.880   4.082   3.471 -0.6187  1.6029  0.3987
 6000TIP3    H239492   1.857   3.997   3.594  0.0378 -0.1045 -0.6232
 6001TIP3   OH239493   3.262   5.484  15.322  0.1017  0.7622  0.4911
 6001TIP3    H139494   3.304   5.434  15.392 -2.6954 -0.3855  1.4935
 6001TIP3    H239495   3.242   5.568  15.362  2.0151  1.6182 -0.2344
 6002TIP3   OH239496   4.204   4.309  14.130  0.2779  0.2288  0.6764
 6002TIP3    H139497   4.238   4.390  14.167  0.6461  0.2730  0.2538
 6002TIP3    H239498   4.281   4.256  14.113  0.2651  0.7482 -1.2678
 6003TIP3   OH239499   5.872   3.645   5.578 -0.5314  0.4313  0.4237
 6003TIP3    H139500   5.796   3.642   5.636 -0.4632 -0.3481  0.4786
 6003TIP3    H239501   5.842   3.607   5.496 -0.9982  2.7160 -0.5286
 6004TIP3   OH239502   1.409   6.638  16.394  0.0420 -0.2083  0.0281
 6004TIP3    H139503   1.391   6.574  16.464 -1.7210  0.3912  0.1801
 6004TIP3    H239504   1.413   6.586  16.314 -0.0495 -0.6565  0.3114
 6005TIP3   OH239505   1.478   5.723   0.051  0.5129  0.1790  0.0116
 6005TIP3    H139506   1.464   5.810   0.012 -0.1691  0.7013  1.3432
 6005TIP3    H239507   1.484   5.664  -0.024  0.0467  1.2465 -0.9031
 6006TIP3   OH239508   1.237   2.711   0.437 -0.4554 -0.2669 -0.1309
 6006TIP3    H139509   1.280   2.779   0.384  0.1327  0.0161  0.6950
 6006TIP3    H239510   1.161   2.755   0.475 -2.3350 -1.0888 -2.6050
 6007TIP3   OH239511   1.974   1.596   2.945 -0.7169 -0.1814 -0.1249
 6007TIP3    H139512   1.994   1.683   2.979  1.8510 -0.6500 -0.2518
 6007TIP3    H239513   1.916   1.612   2.870  0.1851  1.4634 -0.5098
 6008TIP3   OH239514   4.258   6.084  13.562  0.3682  0.2694  0.0217
 6008TIP3    H139515   4.256   6.099  13.468  1.1553  1.3714  0.1568
 6008TIP3    H239516   4.335   6.028  13.575 -0.6041 -1.1395 -0.1280
 6009TIP3   OH239517   5.908   5.215  13.807 -0.0191 -0.0489 -0.1015
 6009TIP3    H139518   5.909   5.290  13.867  1.3883 -0.2556  0.1756
 6009TIP3    H239519   5.859   5.148  13.854  0.0130  0.1958  0.2918
 6010TIP3   OH239520   6.613   1.487  14.017 -0.3118  0.6332 -0.2916
 6010TIP3    H139521   6.564   1.549  13.963  0.8877 -0.5286 -2.9193
 6010TIP3    H239522   6.704   1.516  14.009  0.0556 -0.4417 -0.0827
 6011TIP3   OH239523   6.683   6.579  15.725 -0.6362 -0.3713 -0.1894
 6011TIP3    H139524   6.669   6.563  15.818  0.1202  0.1108  0.0162
 6011TIP3    H239525   6.698   6.492  15.687 -0.0775 -0.4912  0.2967
 6012TIP3   OH239526   6.013   3.457  12.080  0.1965  0.3634 -0.0716
 6012TIP3    H139527   6.018   3.392  12.150  0.3525 -0.0519 -0.4593
 6012TIP3    H239528   6.045   3.411  12.003 -2.1369  0.0521 -0.9487
 6013TIP3   OH239529   0.086   1.596   4.094  0.2027  0.0614  0.2339
 6013TIP3    H139530   0.174   1.618   4.122  0.4082 -0.2858 -0.1175
 6013TIP3    H239531   0.044   1.557   4.171  1.1041 -1.8687 -0.1976
 6014TIP3   OH239532   2.810   5.861   1.713  0.0480 -0.1942  0.1996
 6014TIP3    H139533   2.740   5.876   1.649  0.3524  0.1069 -0.0640
 6014TIP3    H239534   2.841   5.772   1.693  1.1024  0.4208 -1.0173
 6015TIP3   OH239535   4.267   0.558  13.136  0.4598 -0.2631  0.0585
 6015TIP3    H139536   4.183   0.601  13.154  1.4654  1.6324  0.4641
 6015TIP3    H239537   4.274   0.490  13.204 -0.1729  0.4037  0.8087
 6016TIP3   OH239538   1.587   5.373  10.353 -0.0318 -0.4865 -0.1650
 6016TIP3    H139539   1.536   5.427  10.413 -0.2292 -1.4301  0.5456
 6016TIP3    H239540   1.552   5.394  10.266 -1.1420 -0.5689  0.2411
 6017TIP3   OH239541   0.813   6.584   3.864  0.2212 -0.3379 -0.3446
 6017TIP3    H139542   0.769   6.546   3.788  0.6461 -1.1372 -0.2047
 6017TIP3    H239543   0.821   6.510   3.926 -0.6383  0.4158  0.7206
 6018TIP3   OH239544   1.522   1.773  13.094 -0.2448 -0.2545  0.6386
 6018TIP3    H139545   1.585   1.792  13.164  1.2327  1.6646 -1.0681
 6018TIP3    H239546   1.573   1.725  13.028 -0.6100  1.0081 -0.6170
 6019TIP3   OH239547   1.688   4.213   1.159  0.2182  0.8547 -0.0842
 6019TIP3    H139548   1.646   4.217   1.245 -1.2712  1.8064 -0.7997
 6019TIP3    H239549   1.633   4.269   1.103 -1.4264 -2.8861 -2.7067
 6020TIP3   OH239550   6.754   3.867   1.334 -0.0816  0.1535  0.0237
 6020TIP3    H139551   6.789   3.956   1.338 -0.3166  0.2104  1.1194
 6020TIP3    H239552   6.711   3.855   1.419  1.9252 -1.8079  0.8489
 6021TIP3   OH239553   1.876   3.353  12.582 -0.0875 -0.1972 -0.1994
 6021TIP3    H139554   1.804   3.290  12.581 -0.8777  0.6452  1.0727
 6021TIP3    H239555   1.860   3.409  12.507  0.5631 -1.4052 -1.2827
 6022TIP3   OH239556   1.176   1.755  16.425  0.4761 -0.1648  0.6262
 6022TIP3    H139557   1.224   1.798  16.354 -1.2819  0.8427 -0.0290
 6022TIP3    H239558   1.155   1.668  16.390 -0.3031  0.2937 -0.0806
 6023TIP3   OH239559   1.573   0.900   5.623  0.0713  0.4077  0.1689
 6023TIP3    H139560   1.608   0.815   5.594 -0.7174  0.4460 -0.9780
 6023TIP3    H239561   1.581   0.898   5.718 -1.5511 -1.7057  0.3395
 6024TIP3   OH239562   5.358   1.167   0.413  0.3757 -0.2794  0.0412
 6024TIP3    H139563   5.436   1.183   0.360 -0.0754  1.4788 -0.1281
 6024TIP3    H239564   5.288   1.214   0.368 -0.8797 -2.0294  0.0482
 6025TIP3   OH239565   5.280   6.557  10.116  0.4816  0.2042  0.1579
 6025TIP3    H139566   5.302   6.595  10.201  2.6629  0.1281 -0.3159
 6025TIP3    H239567   5.356   6.505  10.092 -0.4105 -0.4314 -1.4962
 6026TIP3   OH239568   3.525   5.058  13.670  0.0120  0.3122 -0.0586
 6026TIP3    H139569   3.578   5.116  13.724 -0.0285 -0.6476  1.0630
 6026TIP3    H239570   3.505   4.984  13.727  0.5605 -1.1065 -1.6145
 6027TIP3   OH239571   6.818   2.853   3.446  0.4076 -0.1024  0.3731
 6027TIP3    H139572   6.757   2.926   3.434 -1.5987 -1.6830  0.2920
 6027TIP3    H239573   6.878   2.883   3.515 -0.6554  1.4340  0.6916
 6028TIP3   OH239574   2.672   0.935  15.724 -0.0284 -0.3244  0.1405
 6028TIP3    H139575   2.706   1.020  15.751 -0.5832  0.1734 -0.6928
 6028TIP3    H239576   2.745   0.875  15.736 -0.1255 -0.0757  2.3719
 6029TIP3   OH239577   5.383   0.549  13.439 -0.2208 -0.2515  0.2343
 6029TIP3    H139578   5.448   0.486  13.407 -1.0731 -0.7891 -0.4837
 6029TIP3    H239579   5.383   0.619  13.374  0.7113  0.5153  1.0229
 6030TIP3   OH239580   0.248   1.327  16.157 -0.1298  0.7660  0.5468
 6030TIP3    H139581   0.214   1.409  16.193 -0.8181  0.3159  0.9526
 6030TIP3    H239582   0.302   1.291  16.228  2.1819  1.9959 -0.4618
 6031TIP3   OH239583   2.541   3.326   1.116 -0.4377 -0.0481  0.5071
 6031TIP3    H139584   2.625   3.306   1.073 -0.4746 -0.6168  0.6988
 6031TIP3    H239585   2.489   3.369   1.048 -0.6200 -1.2481 -0.1294
 6032TIP3   OH239586   4.458   0.966  15.350 -0.1372 -0.0694  0.5232
 6032TIP3    H139587   4.394   1.030  15.379 -0.2575 -0.8994  2.2589
 6032TIP3    H239588   4.543   1.005  15.370 -0.0624  0.8601 -1.4061
 6033TIP3   OH239589   1.467   0.433  16.944  0.1765 -0.2413 -0.0663
 6033TIP3    H139590   1.454   0.483  17.024  0.7296 -0.9927  0.5074
 6033TIP3    H239591   1.553   0.391  16.955  0.2660 -0.3524 -1.0504
 6034TIP3   OH239592   6.320   1.022   3.983 -0.2150  0.3311  0.1996
 6034TIP3    H139593   6.337   1.082   4.055 -0.3703 -0.2923  0.7665
 6034TIP3    H239594   6.225   1.020   3.975 -0.2984 -0.9253  1.1473
 6035TIP3   OH239595   3.555   1.590   4.834 -0.4789 -0.3649 -0.2985
 6035TIP3    H139596   3.557   1.534   4.757 -1.1175  0.0971 -0.6599
 6035TIP3    H239597   3.502   1.541   4.898 -0.1985 -0.6132 -0.2520
 6036TIP3   OH239598   6.724   3.611   0.541 -0.6941  0.1889 -0.5894
 6036TIP3    H139599   6.690   3.539   0.487  1.8064 -0.2928 -1.6338
 6036TIP3    H239600   6.748   3.569   0.624 -0.4610  0.0725 -0.7154
 6037TIP3   OH239601   1.969   4.352  15.916  1.0413 -0.1037 -0.1121
 6037TIP3    H139602   1.997   4.264  15.893 -1.4118 -0.2945 -3.1182
 6037TIP3    H239603   1.884   4.340  15.959  1.1452  0.7563  0.3541
 6038TIP3   OH239604   0.146   0.610  16.803 -0.1862  0.2830  0.4982
 6038TIP3    H139605   0.222   0.649  16.760  0.0798  0.9681  1.5639
 6038TIP3    H239606   0.071   0.650  16.757  0.0914  1.2388  0.8480
 6039TIP3   OH239607   2.041   4.777   3.997  0.3517  0.4658  0.4982
 6039TIP3    H139608   1.973   4.719   4.031 -0.0587  0.0356 -1.0163
 6039TIP3    H239609   2.008   4.808   3.913  0.9865  2.1706  0.8358
 6040TIP3   OH239610   0.333   5.589   0.780  0.6697  0.3362 -0.7559
 6040TIP3    H139611   0.368   5.612   0.694  0.1706 -0.1103 -1.0816
 6040TIP3    H239612   0.385   5.641   0.842  0.6506  1.0942 -1.3622
 6041TIP3   OH239613   4.008   1.551  10.776  0.4608  0.0635 -0.9746
 6041TIP3    H139614   4.034   1.486  10.842 -0.4503 -1.5808 -2.1518
 6041TIP3    H239615   4.002   1.501  10.695 -0.6081  1.5685 -1.8709
 6042TIP3   OH239616   2.724   0.019   3.558 -0.9817  0.0276 -0.5934
 6042TIP3    H139617   2.727   0.115   3.563 -0.7388  0.0515 -1.1281
 6042TIP3    H239618   2.769  -0.010   3.637 -2.2636  0.3390  0.2749
 6043TIP3   OH239619   2.674   4.325  13.585  0.1317  0.2547  0.4381
 6043TIP3    H139620   2.689   4.277  13.503  2.3341  0.5290  0.6067
 6043TIP3    H239621   2.754   4.377  13.596 -0.3352  0.5947  2.5205
 6044TIP3   OH239622   5.581   6.338  12.185 -0.2950 -0.4808  0.8385
 6044TIP3    H139623   5.595   6.301  12.272 -0.2879 -1.9224  0.2647
 6044TIP3    H239624   5.625   6.277  12.125 -1.6583 -0.4222 -0.2930
 6045TIP3   OH239625   5.311   0.134   5.802 -0.0868  0.3645 -0.9924
 6045TIP3    H139626   5.402   0.140   5.774  0.7164 -2.9051  0.4639
 6045TIP3    H239627   5.302   0.203   5.868  2.4335 -1.2419  1.2360
 6046TIP3   OH239628   5.347   6.209  11.213  1.5261 -0.5402  0.1401
 6046TIP3    H139629   5.295   6.241  11.139  1.8897  0.2808  0.2355
 6046TIP3    H239630   5.326   6.268  11.285 -0.1444 -2.3228  1.2389
 6047TIP3   OH239631   0.281   5.732   5.218  0.1304 -0.0204  0.2667
 6047TIP3    H139632   0.245   5.701   5.134 -0.3753  0.7554  0.1864
 6047TIP3    H239633   0.354   5.673   5.236  0.1045 -0.3368 -0.6132
 6048TIP3   OH239634   5.135   1.812   1.150 -0.4358  0.0002  0.1585
 6048TIP3    H139635   5.166   1.724   1.128  0.6914  0.0935  1.2624
 6048TIP3    H239636   5.083   1.799   1.230 -0.3291  0.3275  0.2802
 6049TIP3   OH239637   3.880   6.580   1.212 -0.0134 -0.2199  0.2853
 6049TIP3    H139638   3.955   6.535   1.174 -0.4228 -0.5072 -0.1823
 6049TIP3    H239639   3.859   6.651   1.151  0.6569  0.6650  1.0379
 6050TIP3   OH239640   6.655   5.661  16.044 -0.1659  0.0783 -0.3813
 6050TIP3    H139641   6.709   5.738  16.063  1.4913 -1.3105  0.9233
 6050TIP3    H239642   6.652   5.613  16.127 -1.3567 -1.1598 -1.0945
 6051TIP3   OH239643   4.561   3.397  15.289  0.1829  0.0662 -0.1849
 6051TIP3    H139644   4.515   3.459  15.232 -0.7872 -0.8776 -0.4505
 6051TIP3    H239645   4.568   3.442  15.373  0.4904  0.9715 -0.6818
 6052TIP3   OH239646   5.677   4.451   1.674  0.2208 -0.4217  0.2562
 6052TIP3    H139647   5.605   4.411   1.722 -0.8065  1.6408  0.5300
 6052TIP3    H239648   5.640   4.472   1.588  0.1751  1.4733  0.7033
 6053TIP3   OH239649   3.034   5.696  15.651  0.3806  0.3556 -0.3649
 6053TIP3    H139650   3.101   5.712  15.584  0.1802 -1.2533 -0.9904
 6053TIP3    H239651   3.083   5.695  15.733  0.9481  0.3816 -0.6910
 6054TIP3   OH239652   1.661   2.968   4.418 -0.2784  0.8239  0.1857
 6054TIP3    H139653   1.634   3.059   4.434  0.1649  0.4775  3.4418
 6054TIP3    H239654   1.734   2.954   4.478  0.2036 -1.4695 -0.8547
 6055TIP3   OH239655   3.997   2.400   3.425  0.0205 -0.8858  0.5511
 6055TIP3    H139656   4.032   2.328   3.477 -0.3216 -1.8755 -0.5311
 6055TIP3    H239657   4.032   2.479   3.465 -0.1036 -1.6106  2.1647
 6056TIP3   OH239658   1.052   4.713   3.235 -0.1431  0.0649 -0.5494
 6056TIP3    H139659   1.091   4.732   3.149 -1.0231  0.1175 -0.9496
 6056TIP3    H239660   1.123   4.675   3.286  1.2004  2.6828 -0.3198
 6057TIP3   OH239661   3.635   4.884  13.493  0.2742 -0.0886  0.1453
 6057TIP3    H139662   3.589   4.923  13.568 -1.0098 -0.9174 -0.1732
 6057TIP3    H239663   3.571   4.888  13.421  1.0594 -0.3911 -0.5916
 6058TIP3   OH239664   0.347   5.932   3.933  0.1297  0.3287  0.0511
 6058TIP3    H139665   0.353   5.838   3.914 -0.7835  0.6509 -2.1253
 6058TIP3    H239666   0.321   5.972   3.850 -2.0291  2.2228  1.5149
 6059TIP3   OH239667   2.727   5.582   0.114  0.0967 -0.2471  0.2050
 6059TIP3    H139668   2.656   5.622   0.064 -1.8539 -0.4582  2.6073
 6059TIP3    H239669   2.798   5.647   0.111 -0.8594  0.7938 -0.7388
 6060TIP3   OH239670   2.750   0.656   0.300  0.1905 -0.4291 -0.4465
 6060TIP3    H139671   2.741   0.694   0.213 -1.1089 -0.8331 -0.5122
 6060TIP3    H239672   2.662   0.660   0.338  0.6511 -0.6134  0.7039
 6061TIP3   OH239673   5.079   6.077   0.341  0.1318 -0.4092  0.2063
 6061TIP3    H139674   5.094   6.168   0.368 -1.3336  0.6646 -2.2162
 6061TIP3    H239675   5.146   6.061   0.275 -0.5157 -0.5559 -0.4227
 6062TIP3   OH239676   4.039   5.660  12.797  0.2526 -0.2965 -0.2901
 6062TIP3    H139677   4.076   5.580  12.760 -1.5642 -1.3585  0.0684
 6062TIP3    H239678   4.097   5.730  12.766  0.9325 -1.5530 -1.9977
 6063TIP3   OH239679   1.865   5.745   0.624  0.3265  0.0231 -0.1994
 6063TIP3    H139680   1.887   5.836   0.603 -2.4915  0.4966 -1.6390
 6063TIP3    H239681   1.819   5.713   0.547 -2.0810 -1.3469  1.6653
 6064TIP3   OH239682   1.558   6.198   3.099  0.0403 -0.2471  0.0839
 6064TIP3    H139683   1.570   6.217   3.006 -0.4456 -0.2038  0.0293
 6064TIP3    H239684   1.646   6.176   3.131  0.0818 -1.0766 -0.5681
 6065TIP3   OH239685   5.538   6.823  11.041 -0.3062  0.2207  0.0910
 6065TIP3    H139686   5.577   6.761  11.102 -0.2608 -0.0117 -0.1666
 6065TIP3    H239687   5.477   6.875  11.094  1.5654  1.7473  0.8437
 6066TIP3   OH239688   3.377   5.502  10.714 -0.4919  0.3322 -0.6181
 6066TIP3    H139689   3.332   5.525  10.795  1.8604  2.5179  0.1960
 6066TIP3    H239690   3.337   5.557  10.647 -1.4880 -0.4682 -0.7151
 6067TIP3   OH239691   5.079   3.046   0.681 -0.2269 -0.3348  0.0938
 6067TIP3    H139692   5.062   2.993   0.759 -0.2141 -1.6003 -0.7274
 6067TIP3    H239693   5.094   3.134   0.714 -0.7953 -0.7304  1.4703
 6068TIP3   OH239694   0.340   3.372   1.651  0.0795  0.1535 -0.1381
 6068TIP3    H139695   0.361   3.426   1.728  0.2403 -0.8067  0.5111
 6068TIP3    H239696   0.415   3.385   1.592 -0.3792  1.4605 -0.4673
 6069TIP3   OH239697   0.683   0.882  12.532  0.3585 -0.3720 -0.0908
 6069TIP3    H139698   0.711   0.871  12.441 -1.7737 -1.1534 -0.7080
 6069TIP3    H239699   0.626   0.960  12.530  0.9137  0.0726  0.7485
 6070TIP3   OH239700   2.638   1.065   1.270  0.0536  0.2996 -0.2118
 6070TIP3    H139701   2.583   1.116   1.328  0.6796 -0.8178  1.4223
 6070TIP3    H239702   2.677   1.129   1.211 -0.1919  1.5253  0.9308
 6071TIP3   OH239703   6.418   0.769   4.012  0.3773 -0.1173  0.0768
 6071TIP3    H139704   6.376   0.853   4.030 -2.4520 -1.5268  0.6761
 6071TIP3    H239705   6.411   0.758   3.918  2.0066  0.8766 -0.1879
 6072TIP3   OH239706   6.166   2.552   0.668 -0.2256 -0.1075  0.0433
 6072TIP3    H139707   6.155   2.483   0.733  0.3215 -0.7783 -0.5506
 6072TIP3    H239708   6.260   2.553   0.650 -0.1171  1.3045  0.5696
 6073TIP3   OH239709   1.553   1.370   4.610  0.0279  0.0126 -0.3005
 6073TIP3    H139710   1.554   1.303   4.679  1.5101 -0.2616 -0.5554
 6073TIP3    H239711   1.532   1.322   4.530  0.5511 -0.0620 -0.3959
 6074TIP3   OH239712   1.762   0.706   0.443  0.0155  0.7694 -0.4957
 6074TIP3    H139713   1.761   0.685   0.537  0.8984  0.6189 -0.5067
 6074TIP3    H239714   1.708   0.638   0.403 -0.5643  0.9777 -0.0689
 6075TIP3   OH239715   1.164   3.430  11.791 -1.0855 -0.7092  0.3394
 6075TIP3    H139716   1.122   3.504  11.747 -0.8211 -0.2531  0.8380
 6075TIP3    H239717   1.140   3.440  11.883 -1.0081 -1.2230  0.4193
 6076TIP3   OH239718   1.705   0.347  12.015  0.1209 -0.3374  0.4163
 6076TIP3    H139719   1.668   0.416  12.070 -0.6749 -0.2731 -0.1722
 6076TIP3    H239720   1.660   0.357  11.931  0.8281 -0.8513 -0.0334
 6077TIP3   OH239721   5.404   2.629  13.819 -0.6274  0.1378 -0.1835
 6077TIP3    H139722   5.449   2.621  13.735 -1.7694 -0.1246 -0.7917
 6077TIP3    H239723   5.456   2.692  13.868 -0.6128  1.2353 -1.5571
 6078TIP3   OH239724   2.937   4.486   1.893  0.9149  0.3959 -0.0816
 6078TIP3    H139725   3.031   4.473   1.878  0.9163  1.7625 -1.4671
 6078TIP3    H239726   2.896   4.457   1.812  0.4647  2.9647 -0.8693
 6079TIP3   OH239727   6.188   0.721  14.770 -0.1962 -0.4333  0.2224
 6079TIP3    H139728   6.103   0.759  14.748 -1.1721 -1.9089  1.2590
 6079TIP3    H239729   6.247   0.796  14.774 -1.5354  0.6848 -0.0484
 6080TIP3   OH239730   3.626   0.173   0.728  0.2408  0.4813 -0.3542
 6080TIP3    H139731   3.593   0.259   0.753 -1.4332 -0.2776  0.2028
 6080TIP3    H239732   3.576   0.151   0.649  1.8738  0.7098 -1.4900
 6081TIP3   OH239733   6.642   6.793   4.713 -0.9930 -0.6185 -0.3516
 6081TIP3    H139734   6.614   6.799   4.622 -1.5601  0.9283 -0.1037
 6081TIP3    H239735   6.733   6.822   4.712 -1.4501  0.9050 -0.2421
 6082TIP3   OH239736   1.600   6.024  14.680  0.2573 -0.5993 -0.1870
 6082TIP3    H139737   1.632   6.111  14.659 -2.1228  0.3931  0.0042
 6082TIP3    H239738   1.532   6.039  14.746 -1.4380 -2.3989 -1.4205
 6083TIP3   OH239739   4.724   6.037  15.010  0.2691  0.1904  0.1320
 6083TIP3    H139740   4.773   6.070  15.085  1.1974  2.3615 -1.3269
 6083TIP3    H239741   4.769   5.956  14.985  0.3457 -0.2044  1.4917
 6084TIP3   OH239742   4.534   3.146  17.025 -0.0839  0.6619  0.4785
 6084TIP3    H139743   4.455   3.199  17.012 -1.2394 -1.0425  0.1961
 6084TIP3    H239744   4.577   3.145  16.940 -0.0098  1.2169  0.5102
 6085TIP3   OH239745   1.830   4.399   1.368  0.5545  0.0301  0.6252
 6085TIP3    H139746   1.859   4.419   1.279  0.6164 -1.5025  0.2628
 6085TIP3    H239747   1.740   4.432   1.373  0.6603  0.4011  0.1086
 6086TIP3   OH239748   3.284   3.534   1.145  0.1387  0.3302  0.3350
 6086TIP3    H139749   3.260   3.469   1.211 -0.1079 -0.9115 -0.9363
 6086TIP3    H239750   3.372   3.509   1.117  0.6204  1.3962  0.8170
 6087TIP3   OH239751   0.273   2.586  11.394 -0.4128  0.8750  0.6728
 6087TIP3    H139752   0.350   2.642  11.388  0.4103  0.1409  3.1538
 6087TIP3    H239753   0.225   2.619  11.470 -2.7238  1.4329 -0.9107
 6088TIP3   OH239754   5.540   1.100  10.708  0.5414 -0.1168 -0.2100
 6088TIP3    H139755   5.576   1.076  10.623 -1.4016 -1.4300 -0.7287
 6088TIP3    H239756   5.483   1.175  10.690  0.7407  0.1027  0.0695
 6089TIP3   OH239757   5.635   1.664   4.584  0.2096 -0.1407  0.5641
 6089TIP3    H139758   5.596   1.577   4.590 -0.1438 -0.1249 -0.9415
 6089TIP3    H239759   5.625   1.688   4.491 -0.1582  1.7081  1.0444
 6090TIP3   OH239760   5.542   4.584  12.992 -0.0239 -0.3413  0.1889
 6090TIP3    H139761   5.635   4.599  12.975 -0.1072 -0.5785 -0.5337
 6090TIP3    H239762   5.538   4.498  13.034  0.0693 -0.4129  0.0515
 6091TIP3   OH239763   1.100   2.328   4.311  0.1285  0.4937  0.1218
 6091TIP3    H139764   1.012   2.364   4.301  1.0608  2.8159 -0.5425
 6091TIP3    H239765   1.087   2.236   4.335 -2.4460  0.1621 -2.1171
 6092TIP3   OH239766   5.181   6.188   1.475  0.5076 -0.7993 -0.1057
 6092TIP3    H139767   5.158   6.095   1.477  1.2504 -1.0567 -1.6138
 6092TIP3    H239768   5.104   6.230   1.437  0.8406 -1.0709 -1.1229
 6093TIP3   OH239769   6.657   4.541  12.109  0.3644 -0.2453  0.6784
 6093TIP3    H139770   6.579   4.504  12.151 -0.6054  1.1301  0.1578
 6093TIP3    H239771   6.717   4.558  12.182 -0.2626 -0.3083  1.2244
 6094TIP3   OH239772   5.716   3.648  14.432 -0.1242  0.1650  0.2336
 6094TIP3    H139773   5.796   3.676  14.388 -0.5739  0.3212 -0.5039
 6094TIP3    H239774   5.671   3.593  14.367 -0.3950 -0.3009  0.8056
 6095TIP3   OH239775   2.554   0.325  14.341 -0.2045 -0.0218 -0.1974
 6095TIP3    H139776   2.629   0.278  14.377  1.1739  1.3235 -1.1946
 6095TIP3    H239777   2.486   0.258  14.330  0.1033 -0.9130  2.5935
 6096TIP3   OH239778   6.800   6.666   4.957 -0.5647 -0.2428 -0.0691
 6096TIP3    H139779   6.888   6.701   4.947 -0.6632 -0.0782 -0.3782
 6096TIP3    H239780   6.805   6.579   4.917 -0.5540 -0.2178 -0.1220
 6097TIP3   OH239781   4.601   3.638   4.926  0.7284 -0.4768  0.6578
 6097TIP3    H139782   4.579   3.575   4.995 -1.9399  0.3455  0.6872
 6097TIP3    H239783   4.579   3.593   4.845  0.1955 -0.1332  0.6014
 6098TIP3   OH239784   5.964   2.113  16.630 -0.0762 -0.0852  0.3078
 6098TIP3    H139785   5.964   2.175  16.557 -2.7355  1.1903  1.2552
 6098TIP3    H239786   5.900   2.046  16.605 -0.4033 -0.0818  1.1033
 6099TIP3   OH239787   3.026   2.420  15.320  0.1472 -0.4430 -0.3278
 6099TIP3    H139788   3.072   2.373  15.250 -0.6013  0.9778 -1.8310
 6099TIP3    H239789   3.069   2.390  15.400  3.0596  0.0412 -1.5699
 6100TIP3   OH239790   6.607   6.130   1.918  0.5099 -0.3355 -0.4853
 6100TIP3    H139791   6.681   6.189   1.934  0.9472 -1.4075  1.8619
 6100TIP3    H239792   6.549   6.144   1.993 -1.6225  0.3142 -2.1608
 6101TIP3   OH239793   1.861   1.397  16.735  0.3248 -0.1364 -0.5314
 6101TIP3    H139794   1.879   1.303  16.726 -0.3008 -0.3505  0.3254
 6101TIP3    H239795   1.767   1.402  16.749  0.3191  0.6462 -0.7983
 6102TIP3   OH239796   3.209   2.695  14.307  0.2862 -0.5190  0.0699
 6102TIP3    H139797   3.257   2.717  14.228  1.7409  0.2582  1.1171
 6102TIP3    H239798   3.184   2.603  14.296  0.5479 -0.4418 -1.2252
 6103TIP3   OH239799   4.767   1.745  16.301 -0.1133  0.2584  1.2902
 6103TIP3    H139800   4.717   1.667  16.276  0.3609 -0.3642  2.2380
 6103TIP3    H239801   4.845   1.742  16.246 -0.5128  0.5807  0.6782
 6104TIP3   OH239802   1.461   6.012  17.093  0.2016 -0.2120  0.1601
 6104TIP3    H139803   1.383   6.050  17.135 -1.2912  0.0913 -2.6082
 6104TIP3    H239804   1.505   6.086  17.053  0.0745 -0.7730 -1.0492
 6105TIP3   OH239805   2.129   4.376  17.066  0.1876 -0.1519  0.0925
 6105TIP3    H139806   2.219   4.344  17.075  0.1787 -0.2089 -0.0298
 6105TIP3    H239807   2.075   4.297  17.071  0.0953 -0.0492  0.9320
 6106TIP3   OH239808   5.511   3.119  11.266 -0.0971  0.3247  0.4087
 6106TIP3    H139809   5.555   3.199  11.297 -0.5620  0.3968  0.8995
 6106TIP3    H239810   5.426   3.150  11.236 -1.1954 -0.2852  2.7395
 6107TIP3   OH239811   2.246   4.463  14.489 -0.2052 -0.2887  0.0322
 6107TIP3    H139812   2.164   4.419  14.468  0.0195 -1.2816  1.1409
 6107TIP3    H239813   2.219   4.545  14.530 -0.6373 -0.3144 -0.1955
 6108TIP3   OH239814   4.182   5.708   0.670  0.5134  0.1328  0.2594
 6108TIP3    H139815   4.200   5.749   0.585  2.0272 -0.9489  0.0319
 6108TIP3    H239816   4.247   5.745   0.729  0.0440  0.1998  0.7440
 6109TIP3   OH239817   1.983   2.808  12.986  0.3074 -0.0418  0.2277
 6109TIP3    H139818   1.940   2.723  12.972 -0.5446  0.2340  1.0555
 6109TIP3    H239819   2.056   2.808  12.925 -0.2967 -0.9455 -0.5284
 6110TIP3   OH239820   0.314   4.489   4.673 -0.3483 -0.6277  0.3373
 6110TIP3    H139821   0.276   4.573   4.650  0.2324 -0.7233 -1.0574
 6110TIP3    H239822   0.408   4.499   4.657 -0.0681 -1.0991  1.5565
 6111TIP3   OH239823   6.243   2.479   3.719 -0.0086  0.2358  0.1987
 6111TIP3    H139824   6.198   2.396   3.713  1.1690 -0.4392  0.3575
 6111TIP3    H239825   6.180   2.539   3.760 -0.7923 -0.6186  0.2565
 6112TIP3   OH239826   2.527   4.806   6.208 -0.0637 -0.4451  0.1887
 6112TIP3    H139827   2.591   4.873   6.186 -1.2248  1.1388  1.4700
 6112TIP3    H239828   2.564   4.761   6.284  1.0426 -1.7975 -1.0884
 6113TIP3   OH239829   6.036   3.348   3.658 -0.3512 -0.1416  0.0411
 6113TIP3    H139830   6.023   3.351   3.753  0.3542  0.1347  0.1345
 6113TIP3    H239831   5.957   3.304   3.625 -0.4987 -0.4527  0.7728
 6114TIP3   OH239832   2.558   4.135  10.968 -0.5103 -0.0413  0.2083
 6114TIP3    H139833   2.525   4.181  10.891  1.2396 -0.5432 -0.9079
 6114TIP3    H239834   2.645   4.174  10.983 -0.4357 -0.6076  1.3660
 6115TIP3   OH239835   6.808   0.390  14.128  0.8088 -0.2177  0.1995
 6115TIP3    H139836   6.841   0.476  14.106 -0.1915  0.5885  1.6579
 6115TIP3    H239837   6.824   0.381  14.222  1.1240 -1.7351  0.0280
 6116TIP3   OH239838   1.400   2.522   4.123 -0.5075 -0.6161 -0.5433
 6116TIP3    H139839   1.464   2.524   4.194  0.0847  2.3763 -1.0179
 6116TIP3    H239840   1.441   2.573   4.053 -1.9169 -1.7851 -2.3151
 6117TIP3   OH239841   2.315   2.401   3.491 -0.2230 -0.4006 -0.0516
 6117TIP3    H139842   2.255   2.328   3.504  0.4491 -1.2239 -1.3585
 6117TIP3    H239843   2.297   2.432   3.403 -0.2886  0.8247  0.3795
 6118TIP3   OH239844   5.540   0.127   2.986 -0.2679 -0.9157 -0.2146
 6118TIP3    H139845   5.514   0.139   2.895  0.1244  1.6431 -0.0630
 6118TIP3    H239846   5.476   0.064   3.021 -1.0491 -1.1559 -1.9734
 6119TIP3   OH239847   5.108   4.116   2.753  0.0322  1.2982 -0.1274
 6119TIP3    H139848   5.056   4.086   2.828  0.2461  4.1097  1.2550
 6119TIP3    H239849   5.198   4.112   2.784  0.1391  2.2906 -0.3036
 6120TIP3   OH239850   6.058   2.200   2.447 -0.2237  0.1393 -0.4569
 6120TIP3    H139851   6.122   2.262   2.483 -1.4969  1.3340 -0.1538
 6120TIP3    H239852   5.989   2.256   2.410 -1.1651 -1.1029 -0.6339
 6121TIP3   OH239853   6.045   6.338   4.341  0.1151  0.2638  0.0220
 6121TIP3    H139854   6.023   6.281   4.268 -0.7853  0.5561  0.0569
 6121TIP3    H239855   6.113   6.291   4.389  0.4156 -0.1184 -0.7644
 6122TIP3   OH239856   0.412   5.261   1.903 -0.0612 -0.0002 -0.0756
 6122TIP3    H139857   0.410   5.255   1.807 -0.4702 -0.0419 -0.0651
 6122TIP3    H239858   0.384   5.351   1.921  0.1951  0.0664  0.0011
 6123TIP3   OH239859   4.926   1.590   0.872 -0.1837 -0.7074  0.3405
 6123TIP3    H139860   4.886   1.552   0.794 -1.6154 -0.1878  0.7854
 6123TIP3    H239861   4.857   1.588   0.938  1.2983 -2.1399  1.9645
 6124TIP3   OH239862   4.067   4.112   5.472 -0.3319  1.0717 -0.3724
 6124TIP3    H139863   4.090   4.118   5.565  1.6421 -0.5782 -0.6515
 6124TIP3    H239864   3.973   4.099   5.470 -0.1559 -1.0542  1.5900
 6125TIP3   OH239865   1.278   0.275   2.276 -0.1214  0.6020 -0.1115
 6125TIP3    H139866   1.358   0.320   2.248 -0.0971  1.1407  0.7989
 6125TIP3    H239867   1.207   0.326   2.237 -0.0329 -0.2142 -1.4140
 6126TIP3   OH239868   3.559   0.750   4.102  0.6230 -0.2480 -0.2699
 6126TIP3    H139869   3.651   0.769   4.117  0.5168  0.5846 -0.5644
 6126TIP3    H239870   3.547   0.765   4.008 -0.0418  0.7716 -0.0446
 6127TIP3   OH239871   5.704   5.821   4.100 -0.4988  0.2168 -0.4033
 6127TIP3    H139872   5.723   5.734   4.135 -0.4795  1.2477  2.3761
 6127TIP3    H239873   5.774   5.838   4.037 -0.3819 -1.6585 -0.8216
 6128TIP3   OH239874   3.724   6.714   3.022 -0.2633 -0.4127  0.1031
 6128TIP3    H139875   3.660   6.784   3.034 -0.1446 -0.4102  0.7514
 6128TIP3    H239876   3.692   6.642   3.077  1.3348  0.2895  2.0769
 6129TIP3   OH239877   0.398   5.202  14.835  0.0602 -0.2290  0.0868
 6129TIP3    H139878   0.341   5.153  14.776  2.4294 -1.4262 -1.3964
 6129TIP3    H239879   0.483   5.204  14.789  1.3879  0.8882  2.4194
 6130TIP3   OH239880   4.543   0.413   1.504 -0.2918 -0.2648 -0.2696
 6130TIP3    H139881   4.558   0.469   1.580  0.7158 -1.4815  0.4640
 6130TIP3    H239882   4.627   0.413   1.458 -0.2220 -1.2764 -0.1637
 6131TIP3   OH239883   2.768   1.620   3.012 -0.7834 -0.2592 -0.0268
 6131TIP3    H139884   2.840   1.584   3.064 -1.4924 -1.7516 -0.0513
 6131TIP3    H239885   2.803   1.624   2.923 -0.6491 -0.7714  0.0001
 6132TIP3   OH239886   4.255   2.348  16.758 -0.4558 -0.2421 -0.3023
 6132TIP3    H139887   4.301   2.415  16.708 -0.3254 -0.0104  0.1267
 6132TIP3    H239888   4.167   2.346  16.719 -0.5710  0.4259 -0.0838
 6133TIP3   OH239889   6.000   2.662  10.326 -0.3312 -0.4739 -0.0871
 6133TIP3    H139890   6.084   2.642  10.284 -0.9476 -0.6318 -1.3056
 6133TIP3    H239891   6.005   2.755  10.346 -0.6535  0.0373 -2.1323
 6134TIP3   OH239892   1.689   3.892  15.119 -0.1385  0.2680  0.2088
 6134TIP3    H139893   1.765   3.934  15.160 -0.2586 -1.5705  2.5511
 6134TIP3    H239894   1.724   3.810  15.083 -0.5384  0.6908 -1.2162
 6135TIP3   OH239895   4.242   2.016  15.530 -0.2389  0.5728  0.1499
 6135TIP3    H139896   4.324   2.010  15.481 -0.5239 -2.1418 -0.1416
 6135TIP3    H239897   4.269   2.012  15.622  0.0730  2.5288  0.1997
 6136TIP3   OH239898   6.560   6.797  15.250  0.0501 -0.5802 -0.3578
 6136TIP3    H139899   6.652   6.820  15.244 -0.7086  2.7082 -1.3226
 6136TIP3    H239900   6.536   6.818  15.340 -0.2406  0.9955 -0.7667
 6137TIP3   OH239901   1.424   5.807   2.482 -0.0997  0.0250 -0.6669
 6137TIP3    H139902   1.461   5.895   2.488 -0.2989  0.1028 -0.5482
 6137TIP3    H239903   1.348   5.818   2.424  0.5291 -0.2878 -1.5587
 6138TIP3   OH239904   1.572   0.733   2.495 -0.0763  0.0263  0.2042
 6138TIP3    H139905   1.585   0.684   2.576  0.9575  2.1844  1.4407
 6138TIP3    H239906   1.654   0.722   2.447  0.0480  0.2700  0.3543
 6139TIP3   OH239907   2.584   1.720   5.257 -0.0277  0.0924  0.1085
 6139TIP3    H139908   2.597   1.644   5.201 -0.1932  0.0889  0.0738
 6139TIP3    H239909   2.557   1.790   5.198  0.0953  0.1695  0.1438
 6140TIP3   OH239910   0.431   3.970  12.847 -0.3232 -0.5460 -0.5553
 6140TIP3    H139911   0.388   3.900  12.897 -0.7704 -0.5526 -0.9398
 6140TIP3    H239912   0.410   4.050  12.895  1.5526 -0.8253  0.8063
 6141TIP3   OH239913   0.468   4.601  15.245  0.3178 -0.2528 -0.0618
 6141TIP3    H139914   0.456   4.569  15.334  1.1934  0.0304  0.1690
 6141TIP3    H239915   0.408   4.675  15.237  0.8193  0.2348  0.5723
 6142TIP3   OH239916   5.156   5.037   5.509 -0.4714 -0.3292  0.1782
 6142TIP3    H139917   5.191   4.957   5.471 -1.6230 -0.1895 -1.2562
 6142TIP3    H239918   5.162   5.023   5.604 -0.8923 -2.2118 -0.0410
 6143TIP3   OH239919   5.593   3.377   2.272  0.5144 -0.3684  0.3533
 6143TIP3    H139920   5.598   3.336   2.186  0.0780 -0.5003  0.3868
 6143TIP3    H239921   5.650   3.324   2.327  0.6533 -0.3931  0.1859
 6144TIP3   OH239922   2.931   3.385  12.076 -0.2303 -0.3431  0.0505
 6144TIP3    H139923   2.870   3.456  12.056 -0.3339 -0.0799  1.2289
 6144TIP3    H239924   2.882   3.305  12.057 -1.3124 -0.1625  1.8415
 6145TIP3   OH239925   5.298   5.781  11.783 -0.1690 -0.0391  0.5119
 6145TIP3    H139926   5.336   5.717  11.843 -2.1056 -2.3525 -0.6100
 6145TIP3    H239927   5.351   5.775  11.704 -0.1094  0.0435  0.5453
 6146TIP3   OH239928   6.438   6.232   4.160 -0.6054  0.4243 -0.2177
 6146TIP3    H139929   6.525   6.205   4.132 -0.7555  0.4424 -0.7037
 6146TIP3    H239930   6.436   6.326   4.147 -0.8674  0.3556 -0.6710
 6147TIP3   OH239931   1.744   6.150   0.957 -0.4493 -0.7978 -0.0458
 6147TIP3    H139932   1.677   6.128   0.893 -0.7548 -1.3601  0.4535
 6147TIP3    H239933   1.727   6.242   0.979 -0.2125 -0.5376 -0.9071
 6148TIP3   OH239934   5.800   2.324   4.582 -0.0992  0.1510 -0.2972
 6148TIP3    H139935   5.704   2.330   4.588 -0.2008 -1.9038  1.1334
 6148TIP3    H239936   5.825   2.264   4.653  1.9730 -1.5954 -2.3305
 6149TIP3   OH239937   4.100   3.518   0.658 -0.3771  0.0735  0.4039
 6149TIP3    H139938   4.006   3.531   0.647 -0.2550  0.5222 -0.1579
 6149TIP3    H239939   4.108   3.426   0.681 -0.9626  0.0502  0.5439
 6150TIP3   OH239940   6.336   5.646   5.317  0.4542  0.0928  0.2135
 6150TIP3    H139941   6.281   5.671   5.391  0.6312 -1.5159  0.9102
 6150TIP3    H239942   6.354   5.553   5.330  1.1493 -0.0323 -1.4281
 6151TIP3   OH239943   3.627   2.795   1.532 -0.0104 -0.6134  0.0495
 6151TIP3    H139944   3.538   2.798   1.566 -0.1928 -1.8753 -0.2603
 6151TIP3    H239945   3.658   2.707   1.554  0.8054 -0.5281 -0.7058
 6152TIP3   OH239946   5.787   0.586  12.268 -0.4603 -0.2973  0.1255
 6152TIP3    H139947   5.780   0.657  12.331 -0.7591 -0.7650  0.6314
 6152TIP3    H239948   5.704   0.588  12.220  0.4625  1.1948 -1.5073
 6153TIP3   OH239949   2.946   0.850   4.365 -0.3487  0.0599 -0.3530
 6153TIP3    H139950   2.970   0.770   4.320 -0.6144  0.9872 -2.2395
 6153TIP3    H239951   3.029   0.885   4.398 -0.2929 -1.2050  0.9316
 6154TIP3   OH239952   4.083   2.944   1.001 -0.6269  0.0996  0.2445
 6154TIP3    H139953   4.163   2.927   0.952 -0.8875 -0.0368 -0.1370
 6154TIP3    H239954   4.055   2.858   1.033  0.3537  0.3631  1.9262
 6155TIP3   OH239955   6.529   3.189  12.473 -0.1943  0.6664 -0.7165
 6155TIP3    H139956   6.620   3.216  12.464 -0.0358  0.8890  1.0753
 6155TIP3    H239957   6.495   3.186  12.384  0.8913  2.9239 -1.2864
 6156TIP3   OH239958   5.735   1.203   1.846  0.0380 -0.3009 -0.3021
 6156TIP3    H139959   5.810   1.241   1.801  0.0822 -0.7561 -0.6269
 6156TIP3    H239960   5.711   1.127   1.792  1.0445 -1.7680  1.2253
 6157TIP3   OH239961   3.555   0.213  11.010  0.8039 -0.2163 -0.3791
 6157TIP3    H139962   3.483   0.231  10.950 -0.8538 -0.0967  1.5431
 6157TIP3    H239963   3.554   0.286  11.072  2.3533 -0.4120 -0.0808
 6158TIP3   OH239964   5.662   6.350   0.953 -0.3120  1.0934 -0.0878
 6158TIP3    H139965   5.724   6.378   0.886  1.1899  0.1009  0.8442
 6158TIP3    H239966   5.715   6.308   1.020 -1.8992  1.0060  1.1908
 6159TIP3   OH239967   1.516   3.005   1.370  0.2482  0.1731 -0.7134
 6159TIP3    H139968   1.503   3.059   1.292 -1.1126 -1.0117 -1.3440
 6159TIP3    H239969   1.541   3.067   1.438 -0.1876  1.4490 -1.6840
 6160TIP3   OH239970   2.133   0.754   1.669  0.4558  0.0938  0.8243
 6160TIP3    H139971   2.205   0.781   1.725 -0.4928  0.9960  1.6607
 6160TIP3    H239972   2.054   0.773   1.720 -0.4801  1.5026 -1.0125
 6161TIP3   OH239973   4.071   6.263   4.545  0.0063  0.2987  0.4150
 6161TIP3    H139974   4.063   6.168   4.537  1.2174  0.1413  0.9510
 6161TIP3    H239975   4.055   6.296   4.457  0.3512 -0.4603  0.0592
 6162TIP3   OH239976   4.038   1.402  13.323 -0.0986  0.6630  0.5564
 6162TIP3    H139977   4.008   1.474  13.378 -0.7977  1.5213 -0.8844
 6162TIP3    H239978   4.091   1.445  13.255 -0.1216 -0.2413 -0.0435
 6163TIP3   OH239979   0.894   3.986  16.102  0.2693 -0.0694  0.6964
 6163TIP3    H139980   0.829   3.917  16.091  0.6345 -0.4156  0.6778
 6163TIP3    H239981   0.924   3.976  16.193 -0.8379  1.0981  1.2121
 6164TIP3   OH239982   0.715   6.692  17.008  0.4576 -0.3800 -0.2270
 6164TIP3    H139983   0.802   6.732  17.006 -0.9320  3.0088 -2.3279
 6164TIP3    H239984   0.663   6.751  17.063 -0.9379 -1.3529 -0.4459
 6165TIP3   OH239985   6.456   4.431  11.815  0.4505  0.3954 -0.0797
 6165TIP3    H139986   6.534   4.486  11.809 -0.2554  1.2594 -1.9122
 6165TIP3    H239987   6.481   4.350  11.771  1.4249 -0.8068  2.4499
 6166TIP3   OH239988   4.118   5.528  15.306 -0.0089 -0.1843 -0.2688
 6166TIP3    H139989   4.101   5.617  15.273 -0.8485  0.0086  0.6285
 6166TIP3    H239990   4.186   5.540  15.372  0.7823 -0.3976 -1.0295
 6167TIP3   OH239991   3.223   5.298  13.377  0.5302 -0.4351 -0.0563
 6167TIP3    H139992   3.251   5.345  13.299 -1.2683  0.2019 -0.3659
 6167TIP3    H239993   3.277   5.336  13.448  0.9368  0.2248 -0.7024
 6168TIP3   OH239994   3.022   0.725  16.331 -0.0141 -0.4926  0.0043
 6168TIP3    H139995   3.009   0.715  16.237  0.7402  0.3304 -0.1955
 6168TIP3    H239996   2.973   0.653  16.370  0.2067 -1.2212 -1.0501
 6169TIP3   OH239997   6.016   2.754   4.808  0.4711  0.7846 -0.3469
 6169TIP3    H139998   6.085   2.699   4.846 -0.1783 -1.4162 -2.1647
 6169TIP3    H239999   6.063   2.815   4.750  0.9420 -0.9678 -1.8878
 6170TIP3   OH240000   0.934   3.312   1.362 -0.2158 -0.0998 -0.2488
 6170TIP3    H140001   0.913   3.231   1.316 -0.5724 -0.6491  0.8268
 6170TIP3    H240002   0.894   3.382   1.310 -0.6922 -0.7099 -0.7065
 6171TIP3   OH240003   3.635   6.018  15.526  0.2895  0.8532 -0.2160
 6171TIP3    H140004   3.693   5.988  15.456  0.7840 -0.1476  0.5979
 6171TIP3    H240005   3.604   5.938  15.567  0.4766  1.4287  1.0911
 6172TIP3   OH240006   0.181   0.419   0.784 -0.1037 -0.5589  0.1927
 6172TIP3    H140007   0.188   0.437   0.878 -2.4673  0.7604  0.1839
 6172TIP3    H240008   0.207   0.501   0.742  0.1987 -0.8983 -0.2984
 6173TIP3   OH240009   3.983   4.552  14.776  0.3132  0.4082  0.3009
 6173TIP3    H140010   4.008   4.463  14.752 -0.4969  0.4220 -0.7007
 6173TIP3    H240011   4.029   4.608  14.713  0.9600  0.7297  1.0356
 6174TIP3   OH240012   4.834   2.855  15.892 -0.3557 -0.4718 -0.3264
 6174TIP3    H140013   4.759   2.801  15.868  0.1970 -1.2540 -0.3117
 6174TIP3    H240014   4.863   2.894  15.809  0.1730 -1.4064 -0.6001
 6175TIP3   OH240015   1.956   0.530   3.800 -0.0776  0.6104  0.0485
 6175TIP3    H140016   1.919   0.561   3.882 -0.4535 -0.7892  0.4252
 6175TIP3    H240017   1.907   0.451   3.779  3.2154 -1.9419  1.0765
 6176TIP3   OH240018   6.766   5.742   1.955 -0.0100 -0.1948 -0.1811
 6176TIP3    H140019   6.733   5.662   1.914 -2.9334  0.2711  1.0045
 6176TIP3    H240020   6.790   5.716   2.044 -0.1337  0.0790 -0.0645
 6177TIP3   OH240021   5.076   6.028  15.105  0.6309  0.0998 -0.5866
 6177TIP3    H140022   5.116   6.114  15.094 -0.4880  1.0959  2.1506
 6177TIP3    H240023   5.001   6.044  15.162  0.8437 -2.8237  0.6744
 6178TIP3   OH240024   5.304   0.622   5.129 -0.1392  0.3141 -0.1475
 6178TIP3    H140025   5.275   0.623   5.038  2.3014  1.2308 -0.9799
 6178TIP3    H240026   5.363   0.547   5.134  2.2724  2.0864 -0.2671
 6179TIP3   OH240027   0.019   3.062   1.391  0.2463 -0.0075  0.7972
 6179TIP3    H140028   0.053   2.973   1.397 -0.3350 -0.1976  1.3577
 6179TIP3    H240029   0.065   3.110   1.460 -1.4064 -0.5400  2.3425
 6180TIP3   OH240030   2.078   1.144   3.958  0.0236 -0.4772  0.4244
 6180TIP3    H140031   2.099   1.052   3.977 -0.5156 -1.1045 -1.7543
 6180TIP3    H240032   2.081   1.150   3.863 -1.0100  1.5289  0.4698
 6181TIP3   OH240033   6.012   2.262   5.798  0.4914  0.3082  0.4218
 6181TIP3    H140034   5.921   2.281   5.775  0.5325 -0.2359 -0.1740
 6181TIP3    H240035   6.023   2.304   5.884 -0.5499 -0.2958  0.8689
 6182TIP3   OH240036   4.921   4.470  10.908  0.0115  0.4065  0.2261
 6182TIP3    H140037   4.853   4.537  10.907 -0.9238 -0.4874 -2.1225
 6182TIP3    H240038   4.877   4.391  10.939 -0.1587 -0.2467 -1.5734
 6183TIP3   OH240039   0.160   1.195  15.206 -0.1520 -0.1354 -0.3539
 6183TIP3    H140040   0.183   1.286  15.223 -1.0027  0.1433 -0.6328
 6183TIP3    H240041   0.153   1.155  15.293 -2.0511  0.6595 -0.1065
 6184TIP3   OH240042   3.598   0.161  14.394  0.1527 -0.4532  0.4560
 6184TIP3    H140043   3.670   0.165  14.331  0.0226 -2.6592  0.0876
 6184TIP3    H240044   3.632   0.107  14.466 -1.0234 -1.3363  0.3771
 6185TIP3   OH240045   4.523   1.600  13.792 -0.7032 -0.1417  0.1592
 6185TIP3    H140046   4.454   1.620  13.729 -1.2290  0.6330  0.9617
 6185TIP3    H240047   4.551   1.511  13.769 -1.9240 -0.4508 -0.2278
 6186TIP3   OH240048   4.330   5.289   3.257  0.0661  0.2499  0.1689
 6186TIP3    H140049   4.243   5.314   3.225  0.1004  0.3385  0.1448
 6186TIP3    H240050   4.366   5.234   3.187  0.1625  0.4866  0.0293
 6187TIP3   OH240051   2.288   0.911   5.682  0.2687 -0.5333 -0.2356
 6187TIP3    H140052   2.305   1.002   5.706 -2.5830  0.1513 -0.4079
 6187TIP3    H240053   2.374   0.873   5.666  1.6598  1.6456  1.5371
 6188TIP3   OH240054   0.400   2.890  15.670  0.1307  0.4088 -0.0635
 6188TIP3    H140055   0.424   2.959  15.731  0.1193  0.0639  0.3387
 6188TIP3    H240056   0.420   2.809  15.717 -0.7503  0.1304 -0.1451
 6189TIP3   OH240057   1.220   3.787   1.949 -0.1314 -0.0217  0.3561
 6189TIP3    H140058   1.290   3.834   1.994 -0.6384 -0.8184  2.0800
 6189TIP3    H240059   1.246   3.695   1.953 -1.1877 -0.3203  0.9308
 6190TIP3   OH240060   1.276   3.282   5.024 -0.0288 -0.6528  0.2669
 6190TIP3    H140061   1.283   3.366   5.070  0.3556  1.1456 -2.8413
 6190TIP3    H240062   1.185   3.257   5.035 -0.6347  1.1527 -0.2518
 6191TIP3   OH240063   4.440   1.295   6.142 -0.1777 -0.2990 -0.3915
 6191TIP3    H140064   4.435   1.206   6.107  0.6801 -0.2042 -0.7706
 6191TIP3    H240065   4.522   1.296   6.192 -0.5724  0.0547  0.2654
 6192TIP3   OH240066   2.703   2.122   5.390  0.4204 -0.2533  1.0417
 6192TIP3    H140067   2.655   2.166   5.320  1.0359 -0.0571  0.7360
 6192TIP3    H240068   2.653   2.140   5.469  0.0839  0.0858  0.7523
 6193TIP3   OH240069   6.727   3.215   0.373 -0.2614 -0.6160 -0.0029
 6193TIP3    H140070   6.816   3.250   0.375  0.0778 -1.4645  0.2118
 6193TIP3    H240071   6.683   3.256   0.447 -0.1925  0.1598 -0.3806
 6194TIP3   OH240072   6.833   2.470  16.626 -0.4311 -0.2383 -0.0443
 6194TIP3    H140073   6.741   2.453  16.648 -0.5377  1.2766  0.8125
 6194TIP3    H240074   6.831   2.552  16.577  0.6977  1.7938  2.9830
 6195TIP3   OH240075   3.718   4.073  12.332  0.8642 -0.4453 -0.2682
 6195TIP3    H140076   3.714   4.086  12.427 -0.4528  1.3886 -0.5174
 6195TIP3    H240077   3.746   4.158  12.297 -0.5876 -0.4810 -1.6333
 6196TIP3   OH240078   4.680   6.504  13.109  0.4622  0.4461 -0.6002
 6196TIP3    H140079   4.638   6.433  13.157 -0.0377  0.2747 -1.2732
 6196TIP3    H240080   4.654   6.584  13.156  0.6835  0.2182 -0.0901
 6197TIP3   OH240081   0.742   0.953   2.652 -0.1184 -0.9795 -0.4968
 6197TIP3    H140082   0.764   1.044   2.638  0.9994 -1.2464 -0.5596
 6197TIP3    H240083   0.665   0.938   2.597 -0.0868 -0.1777 -0.7719
 6198TIP3   OH240084   0.238   3.306   0.963 -0.5417 -0.1586 -0.0895
 6198TIP3    H140085   0.181   3.280   0.890 -0.3052  0.5214 -0.5273
 6198TIP3    H240086   0.285   3.226   0.987 -2.0224 -0.8545  0.6065
 6199TIP3   OH240087   6.116   4.384  15.504  0.2092  0.3540 -0.4388
 6199TIP3    H140088   6.119   4.299  15.547  0.4061  0.8713  0.6136
 6199TIP3    H240089   6.118   4.364  15.410  1.2836 -0.7576 -0.2021
 6200TIP3   OH240090   1.368   0.256   5.336 -0.3093 -0.1096 -0.0150
 6200TIP3    H140091   1.390   0.323   5.401 -1.2134 -0.6218  0.8405
 6200TIP3    H240092   1.436   0.265   5.270  0.2439  0.8908  0.6482
 6201TIP3   OH240093   1.686   2.429   5.573  0.3839  0.4702 -0.4611
 6201TIP3    H140094   1.780   2.410   5.569  0.0024 -1.7516 -0.2326
 6201TIP3    H240095   1.644   2.347   5.549 -1.5388  0.5618  2.1272
 6202TIP3   OH240096   1.426   4.067  11.639 -0.4018 -0.6701 -0.2900
 6202TIP3    H140097   1.333   4.059  11.660 -0.9848  0.3324 -2.2049
 6202TIP3    H240098   1.452   3.980  11.610 -0.6836 -0.9916  0.3860
 6203TIP3   OH240099   3.879   4.546   3.471  0.3502 -0.2569 -0.3511
 6203TIP3    H140100   3.935   4.477   3.508 -0.0476 -0.4872 -0.1675
 6203TIP3    H240101   3.940   4.609   3.433  0.7429 -0.3485  0.1222
 6204TIP3   OH240102   5.393   1.724  12.919  0.0345 -0.5207 -0.4544
 6204TIP3    H140103   5.415   1.815  12.896  0.6163 -0.7326 -0.7681
 6204TIP3    H240104   5.376   1.682  12.835  0.2948 -0.8285 -0.3550
 6205TIP3   OH240105   2.513   1.183  15.173 -0.5009 -0.0145  0.1865
 6205TIP3    H140106   2.609   1.188  15.179 -0.4229  1.8402 -1.6014
 6205TIP3    H240107   2.482   1.237  15.245 -0.2157 -0.2622  0.5026
 6206TIP3   OH240108   2.183   2.998   2.894  0.2110 -0.2583  0.2689
 6206TIP3    H140109   2.131   2.966   2.968  0.0709  1.7386  1.1172
 6206TIP3    H240110   2.235   3.069   2.931  2.2164 -0.9868 -0.9784
 6207TIP3   OH240111   6.852   0.727   6.468 -0.3123 -0.9031 -0.4840
 6207TIP3    H140112   6.847   0.773   6.384  3.2695  2.3859  0.8104
 6207TIP3    H240113   6.832   0.794   6.534 -2.5814 -3.2569  1.4650
 6208TIP3   OH240114   4.309   0.004  13.005 -0.1120 -0.3988  0.2455
 6208TIP3    H140115   4.284  -0.072  13.058  2.0512 -0.9109  0.6241
 6208TIP3    H240116   4.326   0.073  13.070 -2.6842  0.7056 -0.1179
 6209TIP3   OH240117   3.803   0.788   3.980 -0.0090  0.3568  0.0137
 6209TIP3    H140118   3.766   0.875   3.991 -2.1528 -0.5637  0.7908
 6209TIP3    H240119   3.874   0.783   4.044 -0.4095  1.2540  0.5344
 6210TIP3   OH240120   6.159   4.197  12.650  0.2769 -0.3670 -0.6326
 6210TIP3    H140121   6.143   4.284  12.686  2.3300  0.5849 -1.8228
 6210TIP3    H240122   6.137   4.205  12.557 -1.0310 -1.6070 -0.4621
 6211TIP3   OH240123   6.063   4.028  14.006 -0.1483  0.1597  0.1749
 6211TIP3    H140124   6.147   3.993  13.976  0.3080  0.6744  0.8157
 6211TIP3    H240125   6.049   3.987  14.091 -0.5431  0.0851  0.0739
 6212TIP3   OH240126   6.710   5.440  16.763  0.3200  0.1650  0.2129
 6212TIP3    H140127   6.787   5.390  16.789  1.5578  2.8043  2.0440
 6212TIP3    H240128   6.714   5.520  16.815 -2.2978  1.5776 -1.5041
 6213TIP3   OH240129   0.182   3.550   4.992  0.4569 -0.0480  0.0865
 6213TIP3    H140130   0.261   3.602   4.976  0.0367 -0.0334 -2.4506
 6213TIP3    H240131   0.212   3.460   4.993  0.6398  0.0128  0.0405
 6214TIP3   OH240132   2.692   6.185   0.760 -0.0062  0.2489 -0.4366
 6214TIP3    H140133   2.696   6.232   0.844 -2.8908 -1.1263  0.6155
 6214TIP3    H240134   2.664   6.097   0.784  0.8044 -0.7066 -2.7544
 6215TIP3   OH240135   3.270   4.045  10.385  0.0176 -0.1804 -0.1718
 6215TIP3    H140136   3.266   3.972  10.446 -0.3665  0.9820  1.2511
 6215TIP3    H240137   3.318   4.011  10.309 -1.4220 -2.3190 -0.1880
 6216TIP3   OH240138   3.551   6.583   1.113 -0.1600  0.2291  0.6120
 6216TIP3    H140139   3.610   6.573   1.188 -1.1731 -2.3389  1.1740
 6216TIP3    H240140   3.603   6.553   1.038 -0.6936 -2.2823  1.1415
 6217TIP3   OH240141   5.492   1.943   2.171 -0.6164  0.2978  0.2383
 6217TIP3    H140142   5.468   2.035   2.161  0.4103  0.3500 -2.3908
 6217TIP3    H240143   5.585   1.945   2.194  0.5242 -0.0089 -3.7095
 6218TIP3   OH240144   0.035   1.079   6.217  0.0851  0.1052 -0.4091
 6218TIP3    H140145  -0.008   0.997   6.242  0.6041  0.0144  0.2344
 6218TIP3    H240146   0.084   1.058   6.137  0.5461 -0.3362 -0.0219
 6219TIP3   OH240147   5.893   6.227   5.681 -0.8928  0.3595 -0.3345
 6219TIP3    H140148   5.912   6.179   5.762 -2.1943 -0.9850 -0.7805
 6219TIP3    H240149   5.850   6.307   5.711  0.5549  0.9167  0.3776
 6220TIP3   OH240150   4.520   3.288  11.062  0.0310 -0.6926 -0.2815
 6220TIP3    H140151   4.453   3.223  11.043 -1.2617  0.4942  0.0034
 6220TIP3    H240152   4.485   3.370  11.025 -0.0548  0.5501  2.3224
 6221TIP3   OH240153   5.748   5.912   3.520 -0.2563 -0.1706  0.1290
 6221TIP3    H140154   5.790   5.954   3.595  0.9774 -1.1464  0.0143
 6221TIP3    H240155   5.704   5.835   3.556 -3.2180  1.4949  0.4776
 6222TIP3   OH240156   2.505   1.598   6.397 -0.0326  0.2873 -0.5795
 6222TIP3    H140157   2.471   1.594   6.307 -1.4945  0.1651 -0.0625
 6222TIP3    H240158   2.482   1.513   6.435  2.1257 -0.3477 -0.5740
 6223TIP3   OH240159   2.884   0.078  12.466  0.1805  0.3828  0.3061
 6223TIP3    H140160   2.869   0.030  12.547  1.5735 -2.4514 -0.9843
 6223TIP3    H240161   2.979   0.077  12.455  0.2835  3.3699  0.0771
 6224TIP3   OH240162   3.127   2.389   3.272  0.5327  0.2372 -0.9256
 6224TIP3    H140163   3.035   2.409   3.258  0.3062 -0.8467 -1.0750
 6224TIP3    H240164   3.127   2.303   3.315  1.4580  0.4062 -0.5608
 6225TIP3   OH240165   3.399   4.591   4.860 -0.1127 -0.0071 -0.6252
 6225TIP3    H140166   3.465   4.553   4.802 -0.4911 -0.0474 -1.0391
 6225TIP3    H240167   3.320   4.594   4.807 -0.1478  1.1595 -0.5268
 6226TIP3   OH240168   1.238   0.710  11.809 -0.0446  0.4127 -0.0739
 6226TIP3    H140169   1.314   0.662  11.776 -0.5119 -1.5937  1.5460
 6226TIP3    H240170   1.268   0.751  11.890 -0.4562  0.3499  0.1142
 6227TIP3   OH240171   4.735   0.994   6.475 -0.2309 -0.5793  0.4768
 6227TIP3    H140172   4.671   1.059   6.505  0.3191  0.4526 -0.5139
 6227TIP3    H240173   4.763   1.025   6.389 -0.6298 -2.6329 -0.4681
 6228TIP3   OH240174   5.184   4.535  14.855 -0.2476  0.2993  0.1247
 6228TIP3    H140175   5.152   4.543  14.765  0.1515 -2.3490 -0.3359
 6228TIP3    H240176   5.249   4.604  14.864  1.5640 -0.9096 -2.5120
 6229TIP3   OH240177   4.585   6.462  15.495  0.5946  0.2701 -0.3019
 6229TIP3    H140178   4.608   6.552  15.470 -1.9726  1.2425  0.5007
 6229TIP3    H240179   4.529   6.473  15.572 -1.3981 -1.8963 -1.3559
 6230TIP3   OH240180   3.117   4.228   0.469 -0.1192 -0.0323 -0.5707
 6230TIP3    H140181   3.116   4.279   0.551 -0.3964  0.2543 -0.7505
 6230TIP3    H240182   3.208   4.201   0.460  0.5750  2.3348 -1.6124
 6231TIP3   OH240183   0.309   5.375  11.682  0.2182  0.1782 -0.5924
 6231TIP3    H140184   0.226   5.358  11.639 -0.5477  1.5287  0.2656
 6231TIP3    H240185   0.309   5.319  11.760 -0.5144  1.1459  0.1221
 6232TIP3   OH240186   5.343   0.144   4.638 -0.0676  0.4070 -0.3717
 6232TIP3    H140187   5.295   0.153   4.556 -1.1373  1.6022  0.3388
 6232TIP3    H240188   5.306   0.065   4.679  0.8875 -0.5382 -1.2653
 6233TIP3   OH240189   1.696   2.210  12.911 -0.1877  0.4960  0.2066
 6233TIP3    H140190   1.610   2.200  12.870 -0.4356  0.1925  0.8047
 6233TIP3    H240191   1.725   2.120  12.929 -0.8017  0.6710  2.2009
 6234TIP3   OH240192   0.947   1.695  12.461 -0.1839 -0.2676  0.0921
 6234TIP3    H140193   0.890   1.636  12.510  0.7684 -2.0206 -0.8260
 6234TIP3    H240194   1.013   1.723  12.524 -1.5648  1.1942  0.9659
 6235TIP3   OH240195   1.091   6.334   1.738  0.3796  0.3850  0.4091
 6235TIP3    H140196   1.160   6.328   1.803 -1.5504  2.2244  2.8461
 6235TIP3    H240197   1.034   6.259   1.755  1.0496 -0.4067 -0.7305
 6236TIP3   OH240198   2.260   6.331   4.198 -0.4244 -0.1489  0.9076
 6236TIP3    H140199   2.352   6.350   4.215 -0.1896 -1.5114  1.2655
 6236TIP3    H240200   2.225   6.413   4.163  1.4441 -0.2493 -1.4649
 6237TIP3   OH240201   5.645   6.623   5.354 -0.1466  0.1595 -0.1021
 6237TIP3    H140202   5.672   6.675   5.429  0.5897 -1.6975  1.0055
 6237TIP3    H240203   5.725   6.581   5.323 -0.6666 -0.1802 -1.0566
 6238TIP3   OH240204   5.365   0.746   3.653  0.0558  0.6569  0.0996
 6238TIP3    H140205   5.427   0.819   3.652 -0.1040  0.8053  0.9410
 6238TIP3    H240206   5.363   0.717   3.744 -0.5371  0.1548 -0.0667
 6239TIP3   OH240207   6.142   6.085   1.229  0.1177  0.1321 -0.0475
 6239TIP3    H140208   6.180   6.078   1.317  2.8123 -1.6643 -1.2381
 6239TIP3    H240209   6.143   5.996   1.195  1.0150  1.0411 -2.6297
 6240TIP3   OH240210   3.876   0.630  12.028  0.5433  0.0531 -0.4904
 6240TIP3    H140211   3.904   0.683  12.103 -1.2579  0.2116  0.1140
 6240TIP3    H240212   3.863   0.693  11.957  0.7808  0.0889 -0.5052
 6241TIP3   OH240213   0.912   2.488  14.130  0.1977  0.3307 -0.4474
 6241TIP3    H140214   0.939   2.512  14.218 -0.9910 -1.1454  0.3648
 6241TIP3    H240215   0.817   2.495  14.131 -0.0298 -1.9715 -0.8546
 6242TIP3   OH240216   1.671   0.643   5.532 -0.5110 -0.0489  0.0156
 6242TIP3    H140217   1.725   0.655   5.454  1.2782  0.4331  1.2539
 6242TIP3    H240218   1.728   0.597   5.594 -2.1849 -1.2221  0.7409
 6243TIP3   OH240219   4.514   1.906   3.556 -0.6085  0.4172 -0.0228
 6243TIP3    H140220   4.511   1.886   3.650 -2.4789 -1.3910 -0.3949
 6243TIP3    H240221   4.538   1.824   3.515 -2.1211  0.5496 -1.2592
 6244TIP3   OH240222   0.561   3.204   3.334 -0.1058 -0.0780 -0.9561
 6244TIP3    H140223   0.621   3.178   3.264 -0.2896  0.3175 -1.2707
 6244TIP3    H240224   0.490   3.140   3.330  1.0946 -1.5987  0.5454
 6245TIP3   OH240225   0.443   6.812   1.920  0.4217  0.5992  0.0602
 6245TIP3    H140226   0.361   6.856   1.944  0.0501 -1.4879  3.1620
 6245TIP3    H240227   0.508   6.882   1.916 -0.7679  1.8528  1.4800
 6246TIP3   OH240228   5.836   6.790  15.620 -0.4836  0.0277 -0.3429
 6246TIP3    H140229   5.836   6.706  15.574  0.7789  0.2357 -0.7619
 6246TIP3    H240230   5.921   6.792  15.664 -0.8607  0.7172  0.3610
 6247TIP3   OH240231   6.071   2.891   3.148  0.4862 -0.5658 -0.3708
 6247TIP3    H140232   6.097   2.908   3.057 -0.0213  2.1073 -0.0946
 6247TIP3    H240233   6.137   2.937   3.200 -0.7325  0.1933  0.5284
 6248TIP3   OH240234   0.419   1.442  13.734 -0.4933  0.1869  0.1822
 6248TIP3    H140235   0.415   1.532  13.767  1.6616  0.2378  0.4462
 6248TIP3    H240236   0.406   1.451  13.639  1.1351  1.0051 -0.0087
 6249TIP3   OH240237   5.389   4.744   2.407 -0.2951 -0.0754 -0.6927
 6249TIP3    H140238   5.305   4.778   2.375 -0.7237  0.3217  0.7735
 6249TIP3    H240239   5.366   4.679   2.473  0.5591 -1.5972 -1.8170
 6250TIP3   OH240240   0.479   3.508  14.938 -0.0965 -0.0197  0.0335
 6250TIP3    H140241   0.496   3.546  15.024  0.0910  0.1113 -0.0594
 6250TIP3    H240242   0.560   3.524  14.889  0.0866 -0.7799  0.0734
 6251TIP3   OH240243   1.065   5.838   5.378 -0.5276 -0.0828 -0.0571
 6251TIP3    H140244   1.071   5.932   5.361  1.5611  0.3200  2.3242
 6251TIP3    H240245   1.135   5.799   5.327  0.3133  0.0465  0.9586
 6252TIP3   OH240246   2.513   5.783   2.877 -0.2165  0.1212 -0.1694
 6252TIP3    H140247   2.508   5.810   2.785  1.0343  0.4405 -0.1579
 6252TIP3    H240248   2.503   5.864   2.926 -1.2065 -0.0898  0.0066
 6253TIP3   OH240249   4.843   2.269   4.375  0.3227 -0.0308  0.3183
 6253TIP3    H140250   4.764   2.262   4.323 -0.0316 -0.6391  0.9178
 6253TIP3    H240251   4.911   2.294   4.312  0.0717 -1.5382 -0.5979
 6254TIP3   OH240252   6.833   2.179   2.612 -0.0098 -0.3228  0.4625
 6254TIP3    H140253   6.770   2.113   2.583 -1.5499  1.7066 -1.1473
 6254TIP3    H240254   6.783   2.235   2.672  0.6488  0.5506  0.2149
 6255TIP3   OH240255   2.263   1.708   1.788  0.3129  0.0871 -0.0350
 6255TIP3    H140256   2.310   1.728   1.707  1.4164 -0.4189  0.4595
 6255TIP3    H240257   2.284   1.617   1.806  0.2388  0.2546  0.9384
 6256TIP3   OH240258   2.036   1.950  13.172  0.4640  0.2261 -0.0068
 6256TIP3    H140259   1.974   1.894  13.219  0.8871  0.7131  1.1954
 6256TIP3    H240260   2.070   2.008  13.240  0.6545  1.3771 -1.0533
 6257TIP3   OH240261   4.092   2.646   1.571  0.0904  0.4426  0.1942
 6257TIP3    H140262   4.129   2.706   1.506  2.2080 -0.8936  0.0884
 6257TIP3    H240263   4.139   2.563   1.558 -0.7675 -0.4345  2.1830
 6258TIP3   OH240264   5.895   4.183   3.599  0.2137 -0.0096 -0.0650
 6258TIP3    H140265   5.824   4.237   3.563  0.8031 -0.1385 -1.4997
 6258TIP3    H240266   5.968   4.195   3.538  1.3334 -0.1336  1.2089
 6259TIP3   OH240267   0.131   2.183  12.035 -0.5431  0.8042  0.2690
 6259TIP3    H140268   0.198   2.119  12.011 -1.8036 -0.5611  0.2805
 6259TIP3    H240269   0.075   2.190  11.958 -1.4011  0.5849  0.8536
 6260TIP3   OH240270   3.425   5.288  16.875  0.1273  0.6249  0.5994
 6260TIP3    H140271   3.425   5.200  16.912  0.4383  1.7240  3.4649
 6260TIP3    H240272   3.514   5.320  16.889 -0.1924  1.6742  0.3623
 6261TIP3   OH240273   0.481   2.459  10.386  0.0522 -0.1489 -0.0214
 6261TIP3    H140274   0.451   2.402  10.315  0.3587 -1.4551  0.8744
 6261TIP3    H240275   0.573   2.475  10.367 -0.3845  1.3365 -1.0930
 6262TIP3   OH240276   1.255   4.351  13.334 -0.2556 -0.1694  0.2097
 6262TIP3    H140277   1.181   4.366  13.392 -0.1720  0.4563  0.1628
 6262TIP3    H240278   1.216   4.340  13.247 -0.2789  0.5664  0.1165
 6263TIP3   OH240279   5.861   6.233   2.446  0.2204  0.3909 -0.0836
 6263TIP3    H140280   5.891   6.169   2.511 -0.0418 -0.1030 -0.4360
 6263TIP3    H240281   5.828   6.307   2.497 -0.3860 -0.1738  0.3641
 6264TIP3   OH240282   1.776   6.660  16.407 -0.6247  0.3602 -0.5069
 6264TIP3    H140283   1.768   6.576  16.361 -0.0969  0.5239 -0.9080
 6264TIP3    H240284   1.859   6.696  16.376 -0.4609  0.6630  0.2718
 6265TIP3   OH240285   4.384   3.592   2.626  0.1242  0.0547  0.2332
 6265TIP3    H140286   4.426   3.602   2.711  0.1868 -0.8940  0.3262
 6265TIP3    H240287   4.405   3.503   2.599 -0.6531  0.0369 -0.3648
 6266TIP3   OH240288   6.279   5.760  11.781 -0.1126 -0.4453 -0.1298
 6266TIP3    H140289   6.264   5.834  11.722  2.7761  0.8454  0.5737
 6266TIP3    H240290   6.192   5.734  11.811 -1.2360  3.2136  0.1904
 6267TIP3   OH240291   2.340   4.999   6.122  0.1266 -0.3585  0.0739
 6267TIP3    H140292   2.250   4.975   6.146 -0.2817  0.7996 -0.2303
 6267TIP3    H240293   2.391   4.919   6.137 -0.5253 -0.3793  2.4579
 6268TIP3   OH240294   6.476   2.574  11.472 -0.3689 -0.6185  0.2666
 6268TIP3    H140295   6.436   2.506  11.419  1.0358 -0.3685 -1.2018
 6268TIP3    H240296   6.419   2.650  11.461 -1.0938 -1.0923  0.6556
 6269TIP3   OH240297   1.272   4.191  15.993  0.4709 -0.3119  0.5642
 6269TIP3    H140298   1.313   4.162  16.074  0.6567  1.9579  1.3603
 6269TIP3    H240299   1.199   4.246  16.021  0.6696  0.6888 -0.7771
 6270TIP3   OH240300   3.260   1.215  15.344 -0.0423  0.6060  0.3030
 6270TIP3    H140301   3.306   1.259  15.273 -1.0501 -0.9473 -1.3670
 6270TIP3    H240302   3.323   1.149  15.376 -0.5865 -0.6948 -1.1743
 6271TIP3   OH240303   4.274   3.461   1.599 -0.2473 -0.2739 -0.4997
 6271TIP3    H140304   4.287   3.376   1.642 -1.2373 -1.7559 -2.8932
 6271TIP3    H240305   4.269   3.440   1.505 -2.8674  2.0820 -1.0399
 6272TIP3   OH240306   5.735   1.998   1.588 -0.5858  0.4793 -0.5082
 6272TIP3    H140307   5.745   2.093   1.592  0.2367  0.3984 -0.2898
 6272TIP3    H240308   5.656   1.984   1.536 -1.4220  1.2970  0.4934
 6273TIP3   OH240309   2.277   2.771   3.237 -0.2850 -0.0892 -0.3030
 6273TIP3    H140310   2.255   2.681   3.262 -1.3360 -0.4704 -2.3363
 6273TIP3    H240311   2.241   2.780   3.149  1.2300  1.8158 -0.7865
 6274TIP3   OH240312   5.568   2.369  12.058  0.4658 -0.3405 -0.1370
 6274TIP3    H140313   5.527   2.330  12.135 -1.4943 -1.3123 -1.5895
 6274TIP3    H240314   5.659   2.385  12.085 -0.4177  0.4309  2.6952
 6275TIP3   OH240315   4.670   4.305   3.945  0.0502  0.1145 -0.3187
 6275TIP3    H140316   4.700   4.247   3.875 -1.2032 -1.5768  0.4615
 6275TIP3    H240317   4.648   4.246   4.017 -1.7108  1.5064  0.3771
 6276TIP3   OH240318   5.990   6.036  15.240 -0.2763 -0.2652  0.6767
 6276TIP3    H140319   5.962   6.073  15.324 -1.1756 -0.5818  0.5310
 6276TIP3    H240320   6.045   6.104  15.201 -0.0516 -0.0158  1.4083
 6277TIP3   OH240321   0.632   2.928  14.663 -0.1573  0.0561 -0.1014
 6277TIP3    H140322   0.612   3.012  14.703 -2.7374 -0.4530 -0.1919
 6277TIP3    H240323   0.583   2.927  14.582  1.3188 -0.8283 -1.0319
 6278TIP3   OH240324   4.158   0.800   2.918 -0.0610 -0.1151  0.1576
 6278TIP3    H140325   4.231   0.827   2.974 -0.0912 -1.2941  0.7951
 6278TIP3    H240326   4.114   0.881   2.895 -0.8245  0.3359  2.8859
 6279TIP3   OH240327   5.507   3.713  10.388 -0.1615 -0.0409  0.0966
 6279TIP3    H140328   5.561   3.641  10.355 -0.9735 -1.3283  1.5042
 6279TIP3    H240329   5.452   3.737  10.313  1.0915  0.1126 -0.8204
 6280TIP3   OH240330   2.219   1.294   1.096  0.2729  0.1812  0.3323
 6280TIP3    H140331   2.227   1.270   1.003 -0.5612  0.3400  0.2075
 6280TIP3    H240332   2.215   1.210   1.141 -0.2249  0.0867  0.1271
 6281TIP3   OH240333   2.469   4.274   5.710 -0.0375  0.4106  0.4187
 6281TIP3    H140334   2.409   4.207   5.678 -0.0078  0.1082  0.9818
 6281TIP3    H240335   2.412   4.344   5.742 -0.0610  1.0224 -0.9161
 6282TIP3   OH240336   4.960   5.769   1.305 -0.0133  0.5982 -0.1158
 6282TIP3    H140337   4.896   5.809   1.364 -0.1003  0.1956  0.0614
 6282TIP3    H240338   4.967   5.832   1.232 -0.4011  0.7768 -0.0039
 6283TIP3   OH240339   6.092   1.380   1.730  0.0206 -0.1828 -0.1539
 6283TIP3    H140340   6.065   1.341   1.813 -0.5066  3.7567  1.7444
 6283TIP3    H240341   6.173   1.427   1.751  1.6771 -1.6338 -2.7462
 6284TIP3   OH240342   1.831   1.032   5.343 -0.0752 -0.4919  0.2536
 6284TIP3    H140343   1.767   1.080   5.396 -0.3120 -1.3198  0.7319
 6284TIP3    H240344   1.907   1.091   5.340  0.1075 -0.5956  1.8971
 6285TIP3   OH240345   6.032   1.684   3.818 -0.5644 -0.0967  0.2731
 6285TIP3    H140346   5.964   1.695   3.884 -0.9479 -1.2471  0.0963
 6285TIP3    H240347   6.109   1.655   3.868 -0.2954  0.8370  0.4249
 6286TIP3   OH240348   2.419   0.352   1.646 -0.1532 -0.5715 -0.0443
 6286TIP3    H140349   2.473   0.366   1.567  1.3931  0.8766  1.1903
 6286TIP3    H240350   2.333   0.385   1.622  0.9090  2.1918 -0.4243
 6287TIP3   OH240351   4.491   3.699   0.090 -0.4865  0.1125  0.0747
 6287TIP3    H140352   4.509   3.789   0.066 -0.4834  0.5072  1.4943
 6287TIP3    H240353   4.543   3.647   0.028 -0.8917  1.0480 -1.0842
 6288TIP3   OH240354   0.467   2.285  10.843 -0.4653 -0.3084 -0.2656
 6288TIP3    H140355   0.418   2.337  10.907  0.2207 -0.1997  0.1878
 6288TIP3    H240356   0.438   2.318  10.758 -0.1490  0.7405  0.0085
 6289TIP3   OH240357   6.631   0.263  11.660  0.0350  0.9742 -0.2310
 6289TIP3    H140358   6.706   0.215  11.694 -0.0844  0.3556 -0.8225
 6289TIP3    H240359   6.604   0.320  11.732  0.2015  0.1855  0.4671
 6290TIP3   OH240360   0.629   3.466  14.490 -0.1218  0.0444 -0.2270
 6290TIP3    H140361   0.562   3.535  14.484  0.7104  1.1149  1.6686
 6290TIP3    H240362   0.582   3.391  14.526 -0.4243  0.6767  0.7591
 6291TIP3   OH240363   2.670   3.086   5.958 -0.0710  0.1491  0.4965
 6291TIP3    H140364   2.633   2.998   5.950  1.2497 -0.3341 -0.7323
 6291TIP3    H240365   2.751   3.073   6.008  0.0993  0.6842  0.3681
 6292TIP3   OH240366   3.273   0.822  12.182  0.3170  0.2334 -0.3464
 6292TIP3    H140367   3.254   0.914  12.202 -0.3568 -0.1988  1.0734
 6292TIP3    H240368   3.279   0.820  12.086 -1.0999  1.4948 -0.5018
 6293TIP3   OH240369   5.286   1.978   3.409  0.3609  0.3101  0.6887
 6293TIP3    H140370   5.321   2.067   3.412  1.1288  0.0113  0.8963
 6293TIP3    H240371   5.266   1.962   3.317  2.2740 -0.0613  0.3012
 6294TIP3   OH240372   4.349   0.567   0.088 -0.1991  0.1496  0.5598
 6294TIP3    H140373   4.316   0.584   0.176 -0.0874 -1.9139  1.0446
 6294TIP3    H240374   4.300   0.490   0.059  0.7379 -0.0217 -0.6470
 6295TIP3   OH240375   2.804   5.642   6.055  0.2062 -0.0199 -0.2669
 6295TIP3    H140376   2.784   5.652   6.148 -1.0449  1.5398 -0.6702
 6295TIP3    H240377   2.860   5.717   6.034  1.9741 -1.3085 -0.4289
 6296TIP3   OH240378   5.999   5.086  14.497 -0.3618  0.3101 -0.1413
 6296TIP3    H140379   5.982   5.062  14.406 -2.5851  0.6387  0.1142
 6296TIP3    H240380   6.012   5.181  14.495 -0.1629  0.2824 -0.1499
 6297TIP3   OH240381   0.950   0.637   3.249 -0.4207 -0.8417  0.1345
 6297TIP3    H140382   0.983   0.724   3.225 -1.0975 -0.6934 -0.2984
 6297TIP3    H240383   0.860   0.636   3.217 -0.4593 -1.6646  0.2420
 6298TIP3   OH240384   0.594   2.049   4.072 -0.1617  0.4440 -0.3223
 6298TIP3    H140385   0.575   2.139   4.102 -0.3532  0.8148 -1.5248
 6298TIP3    H240386   0.677   2.028   4.114 -0.2599  1.0654  0.2132
 6299TIP3   OH240387   3.967   3.659   3.702 -0.6019  0.1948 -0.5778
 6299TIP3    H140388   3.970   3.616   3.617 -0.0703 -1.0626  0.0533
 6299TIP3    H240389   4.053   3.699   3.712 -0.3725 -0.3486 -0.3047
 6300TIP3   OH240390   5.768   4.091  12.429 -0.7757  0.1686 -0.5909
 6300TIP3    H140391   5.731   4.051  12.350 -3.1522  1.6875 -0.3486
 6300TIP3    H240392   5.692   4.126  12.476  0.6939  0.3998  1.7728
 6301TIP3   OH240393   4.733   6.768  14.717 -0.2219 -0.0865 -0.2624
 6301TIP3    H140394   4.742   6.708  14.644  0.7858 -0.4318  0.1285
 6301TIP3    H240395   4.692   6.715  14.786  0.3997 -0.2580 -0.0156
 6302TIP3   OH240396   1.049   4.928  16.223 -0.4354 -0.0165  1.0816
 6302TIP3    H140397   0.975   4.872  16.200 -0.4015 -0.3288  1.7165
 6302TIP3    H240398   1.050   4.995  16.155 -0.9571 -0.3362  0.7522
 6303TIP3   OH240399   2.290   4.365   2.546  0.4334 -0.0392 -0.1750
 6303TIP3    H140400   2.298   4.459   2.564 -0.3287 -0.0521  0.2673
 6303TIP3    H240401   2.353   4.349   2.476  1.4580  0.5508  0.5986
 6304TIP3   OH240402   2.994   0.887   0.363  0.0844  0.2206  0.2783
 6304TIP3    H140403   2.906   0.904   0.395 -0.3724 -0.8457 -0.3396
 6304TIP3    H240404   3.037   0.841   0.436 -0.5542 -1.0912 -0.1317
 6305TIP3   OH240405   5.766   5.074   3.070 -0.3431  0.3702  0.3929
 6305TIP3    H140406   5.700   5.133   3.106  0.2062  0.5905  1.0793
 6305TIP3    H240407   5.768   5.094   2.977 -0.2807  1.3330  0.5874
 6306TIP3   OH240408   5.235   1.455  13.500  0.3983  0.3112  0.0671
 6306TIP3    H140409   5.206   1.382  13.556 -0.5303  0.8512  0.3071
 6306TIP3    H240410   5.169   1.523  13.514  0.4731  0.6719 -1.2511
 6307TIP3   OH240411   2.968   3.979  16.271  0.0090 -0.3420  0.1122
 6307TIP3    H140412   3.016   3.896  16.263 -0.1213 -0.2431 -2.4977
 6307TIP3    H240413   2.894   3.970  16.212  0.4134  1.8928 -0.8499
 6308TIP3   OH240414   4.391   4.676  14.709  0.8552 -0.8915 -0.0612
 6308TIP3    H140415   4.313   4.731  14.700  1.5943 -0.0262 -1.4762
 6308TIP3    H240416   4.407   4.674  14.804 -1.4981 -2.0159  0.3837
 6309TIP3   OH240417   5.874   3.696  15.053 -0.1878 -0.6375  0.2070
 6309TIP3    H140418   5.782   3.712  15.074  0.1244 -0.4588  1.5352
 6309TIP3    H240419   5.922   3.758  15.108  0.7466 -1.1242 -0.0405
 6310TIP3   OH240420   3.464   0.733  15.209 -0.3078 -0.1333 -0.1476
 6310TIP3    H140421   3.501   0.691  15.131 -0.1574 -1.0073  0.3865
 6310TIP3    H240422   3.499   0.822  15.207  0.6721 -0.5096 -0.4317
 6311TIP3   OH240423   6.286   2.492   2.270 -0.1124 -0.3476  0.0438
 6311TIP3    H140424   6.226   2.565   2.255  1.2117  1.2381  2.0071
 6311TIP3    H240425   6.351   2.499   2.199 -2.6380 -2.7758 -2.8183
 6312TIP3   OH240426   4.031   0.682   0.019  0.1408  0.3598  0.2767
 6312TIP3    H140427   3.963   0.648  -0.039 -0.2708  1.4788  0.0762
 6312TIP3    H240428   4.091   0.727  -0.040  0.9257 -0.3912  0.4846
 6313TIP3   OH240429   3.728   1.543  11.343  0.5495  0.6072  0.4179
 6313TIP3    H140430   3.770   1.612  11.291 -0.4963  1.0825  0.1707
 6313TIP3    H240431   3.723   1.580  11.431  1.3643  0.2247  0.6342
 6314TIP3   OH240432   0.720   1.312  16.692 -0.4208 -0.0704  0.1941
 6314TIP3    H140433   0.785   1.302  16.621  0.1496  0.7222  0.5876
 6314TIP3    H240434   0.636   1.299  16.649 -0.0694  0.1688 -0.5911
 6315TIP3   OH240435   1.448   2.536   0.194  0.2968  0.3804  0.0012
 6315TIP3    H140436   1.534   2.532   0.151  0.9900  0.7662  1.2782
 6315TIP3    H240437   1.459   2.485   0.274 -1.1966 -0.9911 -0.6147
 6316TIP3   OH240438   3.340   1.872   5.916 -0.2697  0.0675  0.2883
 6316TIP3    H140439   3.288   1.927   5.975  1.3087  2.1671 -0.1424
 6316TIP3    H240440   3.414   1.843   5.968 -1.0637 -1.7153  0.4951
 6317TIP3   OH240441   4.284   0.156   0.836 -0.1972  0.0040  0.0756
 6317TIP3    H140442   4.235   0.232   0.803  0.1872 -0.4171 -1.5635
 6317TIP3    H240443   4.257   0.148   0.927 -1.9615  0.7563 -0.3327
 6318TIP3   OH240444   5.088   1.091   5.161  0.5083  0.8025  0.1851
 6318TIP3    H140445   5.142   1.165   5.135  1.4648  0.3243  0.7607
 6318TIP3    H240446   5.148   1.017   5.164 -0.3378  0.0956  0.0709
 6319TIP3   OH240447   4.703   2.147  16.736  0.2914  0.3382  0.3943
 6319TIP3    H140448   4.763   2.079  16.703  1.1606  1.3430 -0.1489
 6319TIP3    H240449   4.684   2.201  16.659 -3.6319 -1.5193 -0.2105
 6320TIP3   OH240450   4.277   6.528   1.476 -0.1367  0.0493 -0.2355
 6320TIP3    H140451   4.350   6.551   1.419  0.2032 -0.4410 -0.0065
 6320TIP3    H240452   4.309   6.453   1.526 -0.7417 -0.0711 -0.0240
 6321TIP3   OH240453   4.589   0.195  13.710 -0.0126 -0.0973 -0.4772
 6321TIP3    H140454   4.643   0.123  13.677  0.3381 -0.0467 -0.0202
 6321TIP3    H240455   4.534   0.156  13.777  3.3214  0.8206  3.1121
 6322TIP3   OH240456   3.762   0.229   0.952 -0.0718 -0.6209  0.1501
 6322TIP3    H140457   3.741   0.187   0.868 -0.7691  0.8614 -0.4652
 6322TIP3    H240458   3.811   0.307   0.927 -1.2236  0.4170  1.0287
 6323TIP3   OH240459   4.127   6.153  10.597  0.2731 -0.4576 -0.7972
 6323TIP3    H140460   4.122   6.088  10.527  0.6070  0.3064 -1.5413
 6323TIP3    H240461   4.042   6.197  10.595  0.5892  0.1333 -1.2828
 6324TIP3   OH240462   2.700   1.929   2.484  0.4142  0.1705 -0.2396
 6324TIP3    H140463   2.731   1.851   2.530  0.0634  0.6663  0.8948
 6324TIP3    H240464   2.619   1.902   2.442 -0.4957  0.2629  1.3695
 6325TIP3   OH240465   6.832   2.346  14.018 -0.0198  0.2506  0.5704
 6325TIP3    H140466   6.833   2.353  14.113 -2.4989 -0.6336  0.7544
 6325TIP3    H240467   6.828   2.437  13.987 -1.1536  0.5266  1.4427
 6326TIP3   OH240468   6.062   4.799   3.813  0.8904 -0.0151 -0.2717
 6326TIP3    H140469   6.068   4.879   3.865 -0.3087  0.5581 -0.9741
 6326TIP3    H240470   5.969   4.790   3.793  1.1682 -0.8934 -1.2691
 6327TIP3   OH240471   5.335   4.980  16.085  0.4282 -0.2647  0.3819
 6327TIP3    H140472   5.415   4.931  16.066  0.7505  0.2951  0.2634
 6327TIP3    H240473   5.310   4.952  16.173  2.0771  1.2637  1.4105
 6328TIP3   OH240474   0.520   4.691   0.515  0.1335  0.4103  0.3158
 6328TIP3    H140475   0.606   4.732   0.511  1.0663 -1.3487  1.3419
 6328TIP3    H240476   0.466   4.743   0.455  2.4685  0.2295 -2.1492
 6329TIP3   OH240477   2.216   6.240   0.825  0.0009 -0.1717 -0.0026
 6329TIP3    H140478   2.124   6.254   0.850 -0.0614 -0.3958 -0.1054
 6329TIP3    H240479   2.232   6.147   0.843  0.4450  0.0426  0.7804
 6330TIP3   OH240480   0.707   0.026  13.476  0.2369 -0.3481 -0.2883
 6330TIP3    H140481   0.657   0.107  13.479 -0.9334 -1.0657  0.8005
 6330TIP3    H240482   0.786   0.044  13.529 -0.3880 -0.1403  0.5981
 6331TIP3   OH240483   4.722   3.658   1.327 -0.1301 -0.0212 -0.2632
 6331TIP3    H140484   4.689   3.568   1.336  0.7244 -0.4581 -1.2743
 6331TIP3    H240485   4.685   3.705   1.402 -0.4283 -1.2626  0.3954
 6332TIP3   OH240486   4.411   5.107   3.441 -0.3572  0.2252  0.4273
 6332TIP3    H140487   4.391   5.191   3.401 -2.3573 -1.1418 -1.6882
 6332TIP3    H240488   4.354   5.102   3.518 -0.6451  0.5624  0.2355
 6333TIP3   OH240489   5.527   3.365   1.937 -0.5664  0.1831  0.2070
 6333TIP3    H140490   5.588   3.424   1.982 -0.0365 -0.0769 -0.1532
 6333TIP3    H240491   5.532   3.283   1.986 -0.4332  0.0846  0.0320
 6334TIP3   OH240492   1.568   1.220   1.495 -0.0171 -0.3294 -0.8457
 6334TIP3    H140493   1.583   1.270   1.415 -1.1647 -1.1216 -1.5848
 6334TIP3    H240494   1.484   1.175   1.480 -0.1123 -0.7183  0.6839
 6335TIP3   OH240495   0.890   0.286   4.777  0.4664  0.2964  0.4983
 6335TIP3    H140496   0.912   0.193   4.774  0.7800  0.3193  1.5813
 6335TIP3    H240497   0.974   0.330   4.793  0.2825  0.7423  0.2541
 6336TIP3   OH240498   3.338   2.369  15.988 -0.0893  0.8890  0.4871
 6336TIP3    H140499   3.252   2.378  16.028  0.0812  1.5952  0.7130
 6336TIP3    H240500   3.350   2.275  15.977 -0.7374  0.7680  0.7888
 6337TIP3   OH240501   6.056   1.428  16.408 -0.4129  0.1032  0.4684
 6337TIP3    H140502   6.087   1.502  16.356  0.2356  0.4499  1.3144
 6337TIP3    H240503   5.961   1.432  16.403 -0.3951 -0.7307 -1.8541
 6338TIP3   OH240504   6.325   3.872   6.433  0.1693 -0.5505 -0.8240
 6338TIP3    H140505   6.363   3.850   6.348  1.7804  0.6896 -0.4664
 6338TIP3    H240506   6.385   3.936   6.470 -0.1245 -1.5895  1.5745
 6339TIP3   OH240507   2.413   2.853   3.723 -0.1957 -0.0987  0.3381
 6339TIP3    H140508   2.330   2.810   3.745  0.0103 -1.3565 -1.1669
 6339TIP3    H240509   2.478   2.783   3.726  0.3232  0.2760 -1.2631
 6340TIP3   OH240510   2.317   5.545   2.580  0.2394 -0.2817  0.2737
 6340TIP3    H140511   2.247   5.550   2.646 -0.7602 -0.2964 -0.7544
 6340TIP3    H240512   2.390   5.503   2.626  0.7730  2.6564  2.3591
 6341TIP3   OH240513   3.299   1.301   4.215 -0.7314 -0.1229 -0.0220
 6341TIP3    H140514   3.354   1.268   4.144 -0.6222 -0.6710  0.3149
 6341TIP3    H240515   3.259   1.380   4.179  0.9953  0.8308  0.0446
 6342TIP3   OH240516   6.442   5.054   1.347 -0.2094  0.2198 -0.2887
 6342TIP3    H140517   6.389   4.974   1.337 -0.6684  0.5851 -0.9003
 6342TIP3    H240518   6.532   5.022   1.350 -0.2212 -0.2255 -2.6547
 6343TIP3   OH240519   2.534   4.469   2.119  0.5358 -0.6254  0.1141
 6343TIP3    H140520   2.447   4.502   2.097 -0.3500 -2.8197  0.0039
 6343TIP3    H240521   2.594   4.535   2.085 -1.0386  0.1405 -1.3646
 6344TIP3   OH240522   5.113   5.489  13.502 -0.0881 -0.2102 -0.3784
 6344TIP3    H140523   5.199   5.476  13.462 -0.2770  2.5791 -1.9411
 6344TIP3    H240524   5.053   5.496  13.428 -1.5980 -1.2973  0.6651
 6345TIP3   OH240525   2.967   2.695  15.362 -0.4976 -0.6242 -0.0234
 6345TIP3    H140526   2.896   2.726  15.306 -0.8104 -1.3726 -0.0589
 6345TIP3    H240527   2.982   2.605  15.334  1.4839 -0.0393 -1.0074
 6346TIP3   OH240528   6.783   4.112  13.115  0.5501 -0.3179 -0.2800
 6346TIP3    H140529   6.860   4.081  13.068 -0.2922 -1.0303 -1.2670
 6346TIP3    H240530   6.779   4.206  13.096 -0.2090 -0.7166 -2.4016
 6347TIP3   OH240531   5.388   6.239   2.099 -0.0115 -0.3100 -0.1701
 6347TIP3    H140532   5.442   6.265   2.025 -1.3511 -1.9184 -1.8249
 6347TIP3    H240533   5.313   6.299   2.097 -0.9828 -1.5078 -1.3452
 6348TIP3   OH240534   3.859   5.075  15.108 -0.8097  0.1344  0.2060
 6348TIP3    H140535   3.953   5.087  15.120 -0.8810  2.0252 -0.6625
 6348TIP3    H240536   3.849   5.053  15.015 -1.2416  0.3490  0.1994
 6349TIP3   OH240537   4.926   1.304   5.538 -0.1409  0.0023  0.4318
 6349TIP3    H140538   4.858   1.244   5.508 -0.6699 -0.1593  1.9090
 6349TIP3    H240539   4.990   1.248   5.582  0.5008  0.2725 -0.1263
 6350TIP3   OH240540   4.960   6.309  11.143  0.2622 -0.3851 -0.4934
 6350TIP3    H140541   4.982   6.240  11.081 -3.0910 -2.0237 -0.0489
 6350TIP3    H240542   4.976   6.270  11.229  1.6105  0.6858 -0.2122
 6351TIP3   OH240543   3.527   5.033  10.416 -0.4701  0.4965  0.0772
 6351TIP3    H140544   3.596   5.062  10.357  1.0390 -0.2184  1.4078
 6351TIP3    H240545   3.489   5.114  10.450  0.3185  0.9194 -0.0280
 6352TIP3   OH240546   5.404   5.932   4.574 -0.6258  0.0360 -0.3213
 6352TIP3    H140547   5.455   6.012   4.581  0.8911 -0.9681  0.8987
 6352TIP3    H240548   5.469   5.862   4.579 -2.0017 -1.2927 -0.2648
 6353TIP3   OH240549   3.467   3.370  15.847 -0.0257  0.1587  0.2266
 6353TIP3    H140550   3.465   3.347  15.754  1.1309 -0.6964  0.3801
 6353TIP3    H240551   3.523   3.303  15.886 -0.1319  0.7727  1.4689
 6354TIP3   OH240552   1.801   0.153   2.051  0.2788  0.0463  0.6700
 6354TIP3    H140553   1.879   0.144   1.997 -0.6855 -0.4115 -0.7133
 6354TIP3    H240554   1.780   0.246   2.050 -0.4800 -0.1091 -0.9066
 6355TIP3   OH240555   5.745   6.232  13.934 -0.3345  0.0459  0.5519
 6355TIP3    H140556   5.706   6.194  13.855 -2.2740  1.7361  0.6346
 6355TIP3    H240557   5.828   6.269  13.904 -1.1919  0.9570 -0.7860
 6356TIP3   OH240558   0.000   2.893  12.290 -0.1028  0.2820 -0.3331
 6356TIP3    H140559   0.093   2.877  12.274  0.0667  0.9078  0.0007
 6356TIP3    H240560  -0.002   2.944  12.371 -0.8472 -1.2515  0.6383
 6357TIP3   OH240561   0.172   6.107  12.048 -0.4941  0.3215  0.3739
 6357TIP3    H140562   0.090   6.056  12.046  0.0145 -0.5418 -2.2477
 6357TIP3    H240563   0.228   6.058  12.108 -0.5525 -1.4050 -0.9080
 6358TIP3   OH240564   1.414   0.024   5.566  0.2022 -0.0485  0.1540
 6358TIP3    H140565   1.424   0.114   5.598 -0.5507 -0.1222  0.6154
 6358TIP3    H240566   1.421   0.032   5.471 -2.1305  0.8664 -0.0240
 6359TIP3   OH240567   2.169   1.962   1.393  0.5567  0.5813 -0.1408
 6359TIP3    H140568   2.154   2.044   1.440  2.9997  1.7100 -1.1487
 6359TIP3    H240569   2.262   1.965   1.369  0.1694 -1.3911 -2.2386
 6360TIP3   OH240570   5.844   0.225  11.619 -0.5505  0.2626  0.1789
 6360TIP3    H140571   5.859   0.162  11.690  1.0718  2.2128  1.7381
 6360TIP3    H240572   5.922   0.217  11.564  0.5527  1.9577  1.3621
 6361TIP3   OH240573   0.642   2.722  14.876  0.6535  0.1091 -0.1401
 6361TIP3    H140574   0.592   2.641  14.868  2.4178 -1.3011  1.9783
 6361TIP3    H240575   0.637   2.762  14.789 -1.4719 -1.5130 -0.8488
 6362TIP3   OH240576   6.140   6.275  11.149  0.1285  0.1785  0.2186
 6362TIP3    H140577   6.139   6.180  11.138  0.2925  0.0437  1.3049
 6362TIP3    H240578   6.168   6.309  11.064 -2.2380 -0.6048 -0.9663
 6363TIP3   OH240579   2.966   0.954   2.047 -0.0168  0.2640  0.1984
 6363TIP3    H140580   2.900   0.987   1.986 -0.4091  3.3222  2.0617
 6363TIP3    H240581   3.049   0.970   2.004 -0.3419  0.2942 -0.4274
 6364TIP3   OH240582   6.394   0.600   2.408  0.4515 -0.4127 -1.3902
 6364TIP3    H140583   6.413   0.547   2.485 -1.4104 -1.5454 -1.6479
 6364TIP3    H240584   6.421   0.688   2.433 -1.2586 -0.4762  1.0976
 6365TIP3   OH240585   6.676   2.602  16.401  0.1992 -0.0259 -0.6252
 6365TIP3    H140586   6.684   2.674  16.339 -1.9015  0.7905 -0.0391
 6365TIP3    H240587   6.582   2.585  16.406  0.0276  1.0536  3.4556
 6366TIP3   OH240588   2.333   0.154  14.330 -0.1063 -0.1220  0.1007
 6366TIP3    H140589   2.288   0.213  14.269 -1.1298  0.5410  1.4382
 6366TIP3    H240590   2.273   0.147  14.405  1.5772 -0.0109  1.5226
 6367TIP3   OH240591   5.870   3.957  10.247  0.4253 -0.5283 -0.2140
 6367TIP3    H140592   5.849   3.864  10.240  1.6908 -0.7366 -1.7197
 6367TIP3    H240593   5.963   3.960  10.268  0.3580  0.3981  0.0085
 6368TIP3   OH240594   3.647   3.629   4.554  0.0366  0.4143 -0.2754
 6368TIP3    H140595   3.626   3.669   4.639  1.0284  1.1174 -0.3485
 6368TIP3    H240596   3.677   3.702   4.500  0.4469 -0.2056 -0.8997
 6369TIP3   OH240597   3.221   4.751  15.603  0.4370  0.2289  0.6995
 6369TIP3    H140598   3.209   4.784  15.513  1.2203  1.6299  1.0800
 6369TIP3    H240599   3.210   4.657  15.595  2.0019  0.1235 -1.1753
 6370TIP3   OH240600   4.586   0.099  10.561  0.1568 -0.2487  0.2280
 6370TIP3    H140601   4.661   0.154  10.585 -0.5095  2.3404 -2.9202
 6370TIP3    H240602   4.518   0.161  10.536 -1.6693 -2.5374 -0.8954
 6371TIP3   OH240603   1.411   6.804   5.899 -0.5228 -0.7308  0.1665
 6371TIP3    H140604   1.357   6.742   5.849 -1.6142  0.8019 -0.6284
 6371TIP3    H240605   1.491   6.811   5.847 -0.6353 -1.0221 -0.0542
 6372TIP3   OH240606   2.301   5.569   1.345 -0.3523 -0.3376 -0.2588
 6372TIP3    H140607   2.321   5.490   1.395 -1.3518 -0.5411 -0.1487
 6372TIP3    H240608   2.265   5.536   1.262 -0.7997 -0.0095 -0.2011
 6373TIP3   OH240609   0.584   4.718  16.311  0.0311 -0.7301  0.0898
 6373TIP3    H140610   0.595   4.661  16.387  1.2679  3.1705  3.1906
 6373TIP3    H240611   0.671   4.724  16.272 -0.1623 -1.1152 -0.4220
 6374TIP3   OH240612   5.642   1.455   3.442 -0.3266 -0.2201  0.0226
 6374TIP3    H140613   5.654   1.481   3.534 -2.0550 -0.9997  0.5165
 6374TIP3    H240614   5.730   1.455   3.406  0.1188  3.4644  0.7038
 6375TIP3   OH240615   6.044   2.276  13.569 -0.6824  0.1133  0.3137
 6375TIP3    H140616   6.072   2.367  13.572 -0.2654  0.0918 -1.7124
 6375TIP3    H240617   6.001   2.266  13.484 -0.5264 -1.6313  0.3927
 6376TIP3   OH240618   0.862   5.404  12.680 -0.0446  0.3535  0.0957
 6376TIP3    H140619   0.909   5.411  12.596  0.5130  1.3978  0.4693
 6376TIP3    H240620   0.906   5.333  12.726  0.4082  0.5469 -0.0330
 6377TIP3   OH240621   6.207   2.839   4.482 -0.1332  0.5513  0.5772
 6377TIP3    H140622   6.224   2.747   4.461  0.1181  0.6827  0.1931
 6377TIP3    H240623   6.119   2.839   4.521 -0.5700  0.2755 -0.3705
 6378TIP3   OH240624   0.911   1.237  11.538  0.3068  0.2908 -0.2435
 6378TIP3    H140625   0.823   1.233  11.576  0.9490 -0.4764  1.2711
 6378TIP3    H240626   0.907   1.181  11.461 -0.1302 -1.0837  0.7379
 6379TIP3   OH240627   2.804   5.453  16.135  0.0726  0.0113 -0.0495
 6379TIP3    H140628   2.869   5.517  16.106  0.2481  0.0144  0.3406
 6379TIP3    H240629   2.762   5.495  16.210 -1.2081  0.5130 -1.0069
 6380TIP3   OH240630   0.175   0.876  14.817  0.2218  0.0236 -0.2675
 6380TIP3    H140631   0.085   0.905  14.803  0.6298  2.3800  1.4448
 6380TIP3    H240632   0.229   0.944  14.777  1.2475 -0.4243  0.3239
 6381TIP3   OH240633   4.708   5.918  15.473  0.3449 -0.4939 -0.1117
 6381TIP3    H140634   4.757   5.876  15.544 -0.6211 -0.7979  0.3928
 6381TIP3    H240635   4.744   5.879  15.393  0.5776 -1.0963  0.2749
 6382TIP3   OH240636   2.672   2.640  11.557 -0.3643 -0.3781 -0.4164
 6382TIP3    H140637   2.735   2.682  11.498 -0.9519  1.1083 -0.0387
 6382TIP3    H240638   2.685   2.547  11.543  0.3707 -0.0817 -1.9922
 6383TIP3   OH240639   6.078   3.487   6.432 -0.3713  0.1701  0.5740
 6383TIP3    H140640   6.166   3.475   6.398  0.3945 -0.5175  2.6428
 6383TIP3    H240641   6.074   3.579   6.457  0.6844 -0.2897  2.7003
 6384TIP3   OH240642   5.565   5.035   1.123 -0.3487 -0.0249  0.2211
 6384TIP3    H140643   5.652   4.997   1.135 -0.4803 -0.6137 -0.5985
 6384TIP3    H240644   5.569   5.120   1.167  1.3562  0.9628 -1.6471
 6385TIP3   OH240645   0.280   2.332   0.815 -0.0010  0.8037 -0.6420
 6385TIP3    H140646   0.206   2.387   0.839 -0.6176 -0.0362 -0.5962
 6385TIP3    H240647   0.253   2.287   0.736 -0.5838 -1.4400  0.7584
 6386TIP3   OH240648   0.354   1.742   0.746 -0.3758  0.3027 -0.0379
 6386TIP3    H140649   0.320   1.792   0.820 -1.1593 -0.3063  0.0269
 6386TIP3    H240650   0.420   1.685   0.783 -0.3459  0.4217  0.0914
 6387TIP3   OH240651   3.623   0.905  11.057 -0.5745 -0.0306 -0.0831
 6387TIP3    H140652   3.604   0.881  10.967 -0.6915  0.0629 -0.0833
 6387TIP3    H240653   3.719   0.907  11.061 -0.5703  0.2658 -0.2879
 6388TIP3   OH240654   0.870   3.953   1.612  0.7953 -0.4786 -0.0971
 6388TIP3    H140655   0.858   4.044   1.586  1.9237  0.1772  1.5254
 6388TIP3    H240656   0.946   3.955   1.671  1.6470 -2.6569 -1.0270
 6389TIP3   OH240657   3.467   2.406   6.024  0.0057  0.6719  0.0446
 6389TIP3    H140658   3.496   2.315   6.030  0.4801  0.9016  1.7472
 6389TIP3    H240659   3.547   2.456   6.013 -0.0826  0.9950  0.7839
 6390TIP3   OH240660   2.273   2.361  16.013  0.1735 -0.0023  0.5277
 6390TIP3    H140661   2.267   2.454  15.992  1.4180 -0.0721 -0.2463
 6390TIP3    H240662   2.183   2.329  16.007 -0.0851  0.8742 -0.5512
 6391TIP3   OH240663   1.987   6.537   5.341 -0.3241  0.7857 -0.4593
 6391TIP3    H140664   2.016   6.554   5.252 -0.4722  0.4741 -0.5700
 6391TIP3    H240665   1.905   6.587   5.350  0.1140  1.4788 -0.2227
 6392TIP3   OH240666   1.956   4.668  10.997 -0.2662 -0.5984  0.0120
 6392TIP3    H140667   1.940   4.748  10.946 -1.5010 -2.1102 -2.1516
 6392TIP3    H240668   2.043   4.640  10.971 -0.2317 -0.4887  0.0067
 6393TIP3   OH240669   1.802   4.514   0.622  0.6118 -0.2266 -0.6027
 6393TIP3    H140670   1.831   4.597   0.660  0.9778 -0.5571 -0.1634
 6393TIP3    H240671   1.854   4.447   0.666 -1.5785 -0.9499  1.0185
 6394TIP3   OH240672   3.836   0.995   4.195  0.0999 -0.8987 -0.0709
 6394TIP3    H140673   3.912   0.987   4.251 -0.9277  1.0898  1.7565
 6394TIP3    H240674   3.859   1.063   4.132 -0.3974  0.2418  0.9569
 6395TIP3   OH240675   3.859   2.677  15.811 -0.3129 -0.4946 -0.3425
 6395TIP3    H140676   3.915   2.704  15.884  1.9633 -0.3027 -2.0459
 6395TIP3    H240677   3.822   2.593  15.838  1.0900 -0.7994  0.7184
 6396TIP3   OH240678   3.223   2.464   4.256  0.0806  0.1798 -0.4188
 6396TIP3    H140679   3.134   2.484   4.284  0.2233  0.4230 -0.1354
 6396TIP3    H240680   3.216   2.376   4.218 -0.0138 -0.4413  0.9502
 6397TIP3   OH240681   1.059   0.255  14.951 -0.7624 -0.4839 -0.9661
 6397TIP3    H140682   1.048   0.234  15.044 -3.2570 -2.1848 -1.5700
 6397TIP3    H240683   1.037   0.348  14.944  2.1128  0.4366  0.4552
 6398TIP3   OH240684   4.197   2.555   0.141 -0.3862  0.8258 -0.3358
 6398TIP3    H140685   4.182   2.523   0.230 -0.7374 -0.8518 -0.9570
 6398TIP3    H240686   4.292   2.550   0.130 -0.4395 -0.3133 -0.4857
 6399TIP3   OH240687   1.794   2.750  12.550 -0.4542 -0.4131  0.0182
 6399TIP3    H140688   1.855   2.817  12.582  0.8122 -0.8476 -1.4013
 6399TIP3    H240689   1.848   2.691  12.498 -1.5354 -2.5762  1.1978
 6400TIP3   OH240690   4.087   4.161   1.894  0.0386  0.0183  0.1648
 6400TIP3    H140691   4.137   4.112   1.959  0.7745 -1.0940 -1.1718
 6400TIP3    H240692   4.151   4.221   1.855 -0.5489  1.1405  0.8807
 6401TIP3   OH240693   1.380   3.930  16.173 -0.0197 -0.0890 -0.1823
 6401TIP3    H140694   1.320   3.865  16.136 -0.7583 -0.0606  0.9046
 6401TIP3    H240695   1.375   3.916  16.268 -1.2036  2.3311  0.2119
 6402TIP3   OH240696   5.332   1.498  14.254 -0.3679  0.3822 -0.3249
 6402TIP3    H140697   5.313   1.425  14.313  1.9436 -0.0046  0.0359
 6402TIP3    H240698   5.375   1.563  14.310 -1.2877  1.5220 -0.8999
 6403TIP3   OH240699   4.666   2.081  14.013 -0.2011 -0.6051 -0.0696
 6403TIP3    H140700   4.694   2.061  14.103  0.0911 -0.5849 -0.1569
 6403TIP3    H240701   4.590   2.138  14.025 -1.2956 -2.0477  0.1864
 6404TIP3   OH240702   5.468   3.940   3.850 -0.1998 -0.6891 -0.2578
 6404TIP3    H140703   5.470   4.012   3.913 -1.2066 -1.4052  0.6531
 6404TIP3    H240704   5.501   3.977   3.769 -0.9833  0.8676  0.1029
 6405TIP3   OH240705   3.819   6.708   6.434 -0.1390  0.1713 -0.2416
 6405TIP3    H140706   3.808   6.634   6.493  0.5440 -0.5393 -0.9909
 6405TIP3    H240707   3.905   6.744   6.456 -0.6288  1.0059  0.3866
 6406TIP3   OH240708   2.726   5.152   6.661 -0.1158  0.4432  0.0267
 6406TIP3    H140709   2.739   5.226   6.601 -0.5173 -0.5196 -1.3013
 6406TIP3    H240710   2.667   5.185   6.728 -0.7686  1.1702 -0.8756
 6407TIP3   OH240711   6.789   2.940  10.618  0.4943 -0.0135 -0.2663
 6407TIP3    H140712   6.727   2.989  10.672 -1.3561 -1.1870 -1.2244
 6407TIP3    H240713   6.786   2.983  10.533  2.5284  1.1120  0.1571
 6408TIP3   OH240714   5.797   4.278  12.630 -0.7400 -0.0228 -0.6623
 6408TIP3    H140715   5.735   4.323  12.573 -2.6246 -1.3306  0.2452
 6408TIP3    H240716   5.812   4.193  12.588 -0.9672 -0.4088  0.0168
 6409TIP3   OH240717   5.293   2.922   3.248  0.3661  0.3899  0.0754
 6409TIP3    H140718   5.316   2.946   3.338  1.8136 -1.4660  0.2493
 6409TIP3    H240719   5.376   2.899   3.207 -0.5288 -1.2136 -0.9539
 6410TIP3   OH240720   2.158   5.002   2.769  0.1067  0.0365  0.6075
 6410TIP3    H140721   2.252   5.022   2.765  0.3718 -1.3276 -1.1595
 6410TIP3    H240722   2.127   5.014   2.679 -1.2495 -0.2477  1.0168
 6411TIP3   OH240723   1.360   3.514   5.163 -0.3140 -0.0123  0.5048
 6411TIP3    H140724   1.429   3.535   5.100 -0.0375 -3.2167 -0.4400
 6411TIP3    H240725   1.394   3.545   5.247  1.4976  0.0716 -0.2070
 6412TIP3   OH240726   2.832   3.183  10.945  0.1208 -0.0746  0.0904
 6412TIP3    H140727   2.927   3.171  10.945  0.1440  0.0580  0.9940
 6412TIP3    H240728   2.804   3.151  10.859  0.7950 -1.6613  0.4258
 6413TIP3   OH240729   2.855   2.564  14.908  0.1095 -0.0352 -0.2803
 6413TIP3    H140730   2.863   2.565  14.813  0.4237  0.8992 -0.2509
 6413TIP3    H240731   2.939   2.531  14.939 -0.4263 -1.5399 -0.3514
 6414TIP3   OH240732   6.413   2.810  13.711 -0.8605  0.6165  0.6779
 6414TIP3    H140733   6.435   2.895  13.673 -0.4735  0.1910 -0.0702
 6414TIP3    H240734   6.376   2.760  13.638 -1.6367  0.3421  1.2535
 6415TIP3   OH240735   2.328   4.315  12.421  0.6888  0.5203 -0.0487
 6415TIP3    H140736   2.238   4.334  12.447  0.1255  0.8093 -2.0742
 6415TIP3    H240737   2.327   4.222  12.399  0.8197  0.5854 -0.3285
 6416TIP3   OH240738   6.644   5.826   0.715  0.2858  0.2258  0.1414
 6416TIP3    H140739   6.569   5.848   0.660 -0.9302 -1.7667  0.8928
 6416TIP3    H240740   6.681   5.910   0.741 -0.1915  1.2423 -2.2141
 6417TIP3   OH240741   6.148   2.829  13.984 -0.4500 -0.1294  0.4147
 6417TIP3    H140742   6.232   2.869  13.960  0.5439 -1.6241  1.2550
 6417TIP3    H240743   6.097   2.831  13.903 -0.5341  2.8784  0.4188
 6418TIP3   OH240744   1.920   6.427   4.695  0.2221  0.2524 -0.5479
 6418TIP3    H140745   1.935   6.465   4.609  2.2904  0.9038  0.0189
 6418TIP3    H240746   1.830   6.395   4.693 -0.9172  3.1534 -1.8592
 6419TIP3   OH240747   3.850   3.739   1.999 -0.4741 -0.2368 -0.2705
 6419TIP3    H140748   3.854   3.750   1.904  0.5486 -2.4870 -0.5384
 6419TIP3    H240749   3.822   3.825   2.031  0.2872  0.9325 -2.4932
 6420TIP3   OH240750   1.048   3.548  13.422  0.2587 -0.3517  0.3222
 6420TIP3    H140751   1.072   3.506  13.504 -0.1928  0.6362  0.9728
 6420TIP3    H240752   0.980   3.610  13.445  0.2519  0.0763 -0.7760
 6421TIP3   OH240753   3.205   6.380  16.689 -0.2194  0.1155  0.0415
 6421TIP3    H140754   3.114   6.352  16.704  0.8046 -3.1462  1.1221
 6421TIP3    H240755   3.233   6.418  16.772  0.7615 -3.5475  1.5891
 6422TIP3   OH240756   4.050   4.005   2.251 -0.0281 -0.3379 -0.4794
 6422TIP3    H140757   4.086   3.951   2.321 -0.2826 -2.9927 -2.2589
 6422TIP3    H240758   4.127   4.040   2.205  0.1369  0.9422  0.7209
 6423TIP3   OH240759   2.970   1.629  16.436  0.1279  0.0048  0.3702
 6423TIP3    H140760   3.051   1.582  16.456  0.1337 -0.8772 -1.5125
 6423TIP3    H240761   2.971   1.640  16.341 -1.8030  0.2701  0.3394
 6424TIP3   OH240762   2.670   6.090  12.037 -0.6565 -0.0988  0.5367
 6424TIP3    H140763   2.693   6.122  12.124  1.7280 -0.2264  0.0182
 6424TIP3    H240764   2.689   5.996  12.041  0.3674  0.0620 -0.3885
 6425TIP3   OH240765   1.625   6.364   2.374  0.4149 -0.1957  0.0078
 6425TIP3    H140766   1.658   6.340   2.287 -1.2479 -0.4063 -0.6049
 6425TIP3    H240767   1.627   6.460   2.375 -0.4219 -0.1584 -0.6422
 6426TIP3   OH240768   5.227   1.440   2.050  0.0717  0.0441 -0.4160
 6426TIP3    H140769   5.229   1.380   1.975 -0.0829 -0.1902 -0.2326
 6426TIP3    H240770   5.319   1.447   2.076 -0.1581 -2.7680  1.6611
 6427TIP3   OH240771   0.232   0.874  12.872  0.2686  0.1265 -0.3024
 6427TIP3    H140772   0.149   0.831  12.850  0.5968 -1.0120  0.5421
 6427TIP3    H240773   0.206   0.957  12.912 -0.5864 -0.9287  1.4919
 6428TIP3   OH240774   3.018   2.288   4.875  0.0206 -0.2620 -0.4600
 6428TIP3    H140775   3.031   2.382   4.888  0.7539 -0.2352 -1.3230
 6428TIP3    H240776   2.938   2.268   4.925 -0.4559  0.9222 -0.7250
 6429TIP3   OH240777   3.467   5.470   2.073  0.4899 -0.7247  0.4795
 6429TIP3    H140778   3.398   5.405   2.087  1.7630 -2.0302  0.9926
 6429TIP3    H240779   3.528   5.428   2.012  0.9252  0.3328  0.1575
 6430TIP3   OH240780   2.984   3.171  11.463 -0.6385 -0.2049 -0.1140
 6430TIP3    H140781   2.963   3.087  11.423  1.1183 -1.0001  0.5073
 6430TIP3    H240782   2.960   3.236  11.397 -0.7190 -1.2745 -1.1798
 6431TIP3   OH240783   0.622   3.425  10.577  0.6725  0.0320 -0.3863
 6431TIP3    H140784   0.591   3.336  10.593 -1.3609  0.4754 -1.3876
 6431TIP3    H240785   0.717   3.421  10.588  0.7446 -2.4852 -1.3719
 6432TIP3   OH240786   2.592   1.996  16.161 -0.6386  0.2047  0.4718
 6432TIP3    H140787   2.601   2.064  16.094  0.7406  0.7428  1.1629
 6432TIP3    H240788   2.542   1.926  16.118 -1.6591  1.4279 -0.4089
 6433TIP3   OH240789   5.734   2.536   5.947  0.4087  0.5378  0.9338
 6433TIP3    H140790   5.739   2.475   5.874 -0.2357  2.4373 -0.8023
 6433TIP3    H240791   5.646   2.573   5.941 -0.4414 -0.7443  3.9999
 6434TIP3   OH240792   3.082   2.402  14.221  0.0686  0.4554 -0.6476
 6434TIP3    H140793   3.024   2.399  14.297  1.4991 -0.4727  0.4578
 6434TIP3    H240794   3.023   2.394  14.146 -1.3929  1.6328  0.3306
 6435TIP3   OH240795   5.232   1.440   5.720 -0.5607  0.3419 -0.3309
 6435TIP3    H140796   5.312   1.487   5.695 -0.7089  0.6788 -0.1784
 6435TIP3    H240797   5.207   1.479   5.804 -1.1982  0.6239 -0.6491
 6436TIP3   OH240798   5.186   5.248  15.995  0.1081 -0.3339 -0.6022
 6436TIP3    H140799   5.281   5.233  15.995 -0.0352 -1.2968 -0.8068
 6436TIP3    H240800   5.159   5.230  16.085  0.0145 -0.7561 -0.7150
 6437TIP3   OH240801   0.373   2.129  13.308 -0.0879 -0.1909 -0.0045
 6437TIP3    H140802   0.342   2.072  13.238 -2.3476 -0.1413  0.8590
 6437TIP3    H240803   0.351   2.083  13.389  1.6192  0.1668  0.7115
 6438TIP3   OH240804   0.959   0.723  12.902  0.5682  0.0723  0.2430
 6438TIP3    H140805   1.014   0.679  12.837  0.0254  0.2464 -0.3523
 6438TIP3    H240806   0.894   0.771  12.850  0.4660  0.6734  0.9055
 6439TIP3   OH240807   5.753   5.369   4.529  0.0093 -0.0754  0.2202
 6439TIP3    H140808   5.679   5.425   4.554 -1.7769 -2.3837  0.4878
 6439TIP3    H240809   5.747   5.361   4.434 -0.8430 -1.1728  0.3464
 6440TIP3   OH240810   3.456   6.313   1.430  0.3584 -0.2141 -0.8450
 6440TIP3    H140811   3.536   6.366   1.436  0.3713 -0.3473  0.7501
 6440TIP3    H240812   3.462   6.270   1.345  1.8034  0.0826 -0.9287
 6441TIP3   OH240813   3.705   6.200   2.499  0.1958 -0.2730 -0.4197
 6441TIP3    H140814   3.651   6.121   2.502  0.7494 -0.6611 -0.4796
 6441TIP3    H240815   3.645   6.268   2.468 -0.3074 -0.6507 -0.3001
 6442TIP3   OH240816   5.457   4.565   0.382  0.2167 -0.0828  0.3106
 6442TIP3    H140817   5.451   4.478   0.420 -0.8585  0.0467  0.4609
 6442TIP3    H240818   5.548   4.592   0.397  0.5772 -1.1898  0.2065
 6443TIP3   OH240819   1.795   3.337   1.881 -0.0391  0.5109  0.2687
 6443TIP3    H140820   1.843   3.263   1.845 -0.7615  0.1973 -0.0602
 6443TIP3    H240821   1.823   3.341   1.973 -1.1836 -1.1863  0.7409
 6444TIP3   OH240822   2.596   0.600  15.524 -0.2099  0.0670 -0.5794
 6444TIP3    H140823   2.564   0.676  15.475 -1.6433  0.0887  0.3348
 6444TIP3    H240824   2.529   0.533  15.512  1.4749 -1.4621 -2.1639
 6445TIP3   OH240825   2.047   0.750   6.263  0.0208  0.4406  0.4123
 6445TIP3    H140826   1.954   0.739   6.282 -0.2355 -0.5833 -1.1766
 6445TIP3    H240827   2.066   0.680   6.200  1.4022  1.7780 -0.7323
 6446TIP3   OH240828   0.888   1.488   0.559 -0.2396  0.0030 -0.1774
 6446TIP3    H140829   0.938   1.410   0.579 -0.1174 -0.0516 -0.6711
 6446TIP3    H240830   0.926   1.520   0.477  0.2260  1.0230  0.4278
 6447TIP3   OH240831   6.169   2.732  11.107 -0.1181  0.0117  0.0797
 6447TIP3    H140832   6.225   2.791  11.157 -0.0110 -0.3156  0.3464
 6447TIP3    H240833   6.113   2.691  11.173 -1.0634  0.7468 -0.2348
 6448TIP3   OH240834   4.091   0.415   2.035  0.4920  0.7355 -0.1202
 6448TIP3    H140835   4.089   0.341   2.095 -0.1184  2.2439  1.8354
 6448TIP3    H240836   4.175   0.458   2.052  0.2800  1.2225 -0.2844
 6449TIP3   OH240837   5.951   0.822  12.824 -0.2405 -0.5341 -0.1475
 6449TIP3    H140838   6.042   0.802  12.847  0.2994 -0.0302 -1.6960
 6449TIP3    H240839   5.952   0.915  12.800 -1.2748 -0.3962  0.2948
 6450TIP3   OH240840   3.160   3.551  11.431  0.0028 -0.0063  0.1446
 6450TIP3    H140841   3.153   3.598  11.348  0.6913  1.7154  1.0171
 6450TIP3    H240842   3.236   3.494  11.420  2.0480  2.4589  0.5636
 6451TIP3   OH240843   0.199   1.596  11.176  0.3190  0.5556  0.3533
 6451TIP3    H140844   0.217   1.648  11.254  0.7017 -0.8588  1.2402
 6451TIP3    H240845   0.105   1.580  11.179  0.3924  0.1867  0.7350
 6452TIP3   OH240846   0.007   1.673  13.583  0.1553  0.0556 -0.6749
 6452TIP3    H140847   0.022   1.624  13.502 -1.1644  0.0902 -0.9513
 6452TIP3    H240848  -0.044   1.613  13.638 -0.6463  0.7541 -0.6451
 6453TIP3   OH240849   5.617   0.128  14.171 -0.0012 -0.3171 -0.2539
 6453TIP3    H140850   5.607   0.214  14.212 -0.0172  0.3534 -1.6004
 6453TIP3    H240851   5.710   0.107  14.181  0.1245  0.1409 -0.4469
 6454TIP3   OH240852   6.360   5.754   1.894  0.1064  0.1130  0.0115
 6454TIP3    H140853   6.291   5.739   1.829  0.4533 -0.2192 -0.2858
 6454TIP3    H240854   6.398   5.838   1.869 -0.1848  0.2955  0.1736
 6455TIP3   OH240855   2.814   5.203  12.676  0.0393  0.1057  0.4423
 6455TIP3    H140856   2.899   5.247  12.675  0.2132 -0.1888 -1.5821
 6455TIP3    H240857   2.828   5.122  12.626 -1.6868  0.5985 -0.9295
 6456TIP3   OH240858   5.976   1.120   1.529 -0.1891 -0.0616  0.7820
 6456TIP3    H140859   5.974   1.076   1.614  1.0001 -0.8505  0.4218
 6456TIP3    H240860   5.893   1.169   1.525 -0.9173 -1.1723  1.7782
 6457TIP3   OH240861   3.768   1.601  16.243 -0.2090 -0.3707 -0.1818
 6457TIP3    H140862   3.852   1.624  16.203 -0.0203  0.6612  0.7757
 6457TIP3    H240863   3.711   1.583  16.168 -0.2675  2.9081 -1.0906
 6458TIP3   OH240864   1.810   3.740   2.777 -0.3017  0.8894  0.1943
 6458TIP3    H140865   1.781   3.654   2.806  1.2955  0.6303  1.1398
 6458TIP3    H240866   1.899   3.748   2.811 -0.0152  2.4665 -0.8199
 6459TIP3   OH240867   3.861   5.079  16.233 -0.6259 -0.4665  0.0342
 6459TIP3    H140868   3.806   5.084  16.311 -1.1096 -0.8630 -0.2727
 6459TIP3    H240869   3.938   5.132  16.253 -0.6497 -0.7379  0.8610
 6460TIP3   OH240870   4.122   6.426  11.739  0.1043  0.8137  0.2634
 6460TIP3    H140871   4.082   6.402  11.655  1.0522 -0.0379  0.0214
 6460TIP3    H240872   4.055   6.475  11.785 -0.9784 -0.0162 -0.3810
 6461TIP3   OH240873   5.959   4.903  14.047 -0.5998  0.2070 -0.0679
 6461TIP3    H140874   5.878   4.865  14.082 -0.1745 -0.2799  0.4192
 6461TIP3    H240875   5.972   4.858  13.964 -1.4934  1.1992 -0.7622
 6462TIP3   OH240876   3.689   2.354  12.881  0.2538 -0.1844  0.3459
 6462TIP3    H140877   3.695   2.415  12.955 -0.4994 -1.1993  1.2877
 6462TIP3    H240878   3.686   2.268  12.922  1.2121 -0.8610 -0.9541
 6463TIP3   OH240879   0.281   4.565  14.831 -0.0016 -0.2390  0.2201
 6463TIP3    H140880   0.277   4.523  14.745 -0.4674 -0.0576  0.1521
 6463TIP3    H240881   0.216   4.518  14.883  2.6424 -2.7572  1.5691
 6464TIP3   OH240882   5.442   1.894   1.898 -0.3210  0.0424 -0.3896
 6464TIP3    H140883   5.434   1.902   1.993 -1.3573 -0.7321 -0.3970
 6464TIP3    H240884   5.533   1.915   1.880  0.4904 -1.9635  1.0203
 6465TIP3   OH240885   6.505   1.272   3.521  0.4791  0.2932 -0.4289
 6465TIP3    H140886   6.475   1.223   3.445  2.4943 -0.7181 -0.6401
 6465TIP3    H240887   6.513   1.207   3.591 -2.1823  1.3375  1.0242
 6466TIP3   OH240888   1.975   5.618   5.163  0.2368  0.0037  0.3983
 6466TIP3    H140889   1.933   5.535   5.187 -2.7777  1.6135  1.1602
 6466TIP3    H240890   2.031   5.639   5.237  3.9263 -2.9060 -1.2346
 6467TIP3   OH240891   2.163   5.593   4.556 -0.4812 -0.0575 -0.0442
 6467TIP3    H140892   2.094   5.559   4.612 -0.2994  0.7079  0.6665
 6467TIP3    H240893   2.209   5.516   4.524 -1.8333 -0.5905 -0.7705
 6468TIP3   OH240894   5.141   1.606  12.468 -0.0442  0.2325  0.3059
 6468TIP3    H140895   5.099   1.615  12.382  1.2899  0.0213 -0.4001
 6468TIP3    H240896   5.092   1.666  12.524 -0.3057  1.1760 -0.8636
 6469TIP3   OH240897   6.211   0.339   2.367 -0.2813 -0.0533  0.0248
 6469TIP3    H140898   6.135   0.329   2.310 -1.1658  0.5849  1.0681
 6469TIP3    H240899   6.181   0.393   2.440  1.3758  0.8857  0.0775
 6470TIP3   OH240900   5.972   2.888  13.794 -0.2177 -0.1701  0.0288
 6470TIP3    H140901   5.879   2.871  13.810 -0.0321 -0.8586  0.4184
 6470TIP3    H240902   5.974   2.977  13.758 -1.2104 -0.8581 -1.8313
 6471TIP3   OH240903   5.400   4.559  17.050 -0.3779  0.8762 -0.2067
 6471TIP3    H140904   5.375   4.640  17.005 -2.1479  0.2146 -0.5107
 6471TIP3    H240905   5.323   4.537  17.103  0.9367  0.6035  1.6854
 6472TIP3   OH240906   5.908   1.651  11.443  0.2708  0.0296 -0.2773
 6472TIP3    H140907   5.896   1.572  11.390 -0.3789  1.1063 -1.8197
 6472TIP3    H240908   5.924   1.720  11.379 -0.4873  1.3871  0.9447
 6473TIP3   OH240909   2.943   2.313  13.473 -0.0595  0.0697 -0.5041
 6473TIP3    H140910   2.960   2.222  13.451 -0.0451  0.2348 -1.1953
 6473TIP3    H240911   3.025   2.345  13.510 -0.0226 -0.1549 -0.3941
 6474TIP3   OH240912   2.012   6.759  16.283 -0.1903  0.1066 -0.0283
 6474TIP3    H140913   2.089   6.705  16.299 -0.5223 -0.4310 -0.2021
 6474TIP3    H240914   1.989   6.741  16.192 -0.1474  0.7519 -0.1699
 6475TIP3   OH240915   0.901   0.217  11.488  0.0101  0.3844  0.1087
 6475TIP3    H140916   0.959   0.147  11.458  0.6029  0.9679 -0.1324
 6475TIP3    H240917   0.901   0.208  11.584 -2.3676 -1.8597  0.0228
 6476TIP3   OH240918   4.311   1.458  12.244 -0.1284  0.0775 -0.5810
 6476TIP3    H140919   4.309   1.478  12.338  0.5569  1.3375 -0.8196
 6476TIP3    H240920   4.404   1.465  12.220 -0.3706  0.3479 -1.4736
 6477TIP3   OH240921   2.836   5.500  16.707  0.0057  0.1968 -0.4154
 6477TIP3    H140922   2.850   5.422  16.760 -0.3596  0.7424  0.5044
 6477TIP3    H240923   2.845   5.573  16.768  2.0760  1.0008 -1.5732
 6478TIP3   OH240924   1.525   1.701   2.741  0.4110 -0.6088  0.1060
 6478TIP3    H140925   1.460   1.709   2.671 -0.5762 -1.8250  0.8416
 6478TIP3    H240926   1.557   1.611   2.734  0.6603 -0.5878  0.9099
 6479TIP3   OH240927   2.683   5.310  11.234 -0.0323 -0.2987  0.3999
 6479TIP3    H140928   2.772   5.332  11.260  0.0156 -0.5159  0.4225
 6479TIP3    H240929   2.634   5.308  11.316 -0.5035  1.7557  0.2267
 6480TIP3   OH240930   5.330   4.149   6.150 -0.7503 -0.0603  0.1506
 6480TIP3    H140931   5.273   4.073   6.163 -0.4073 -0.4695 -0.6991
 6480TIP3    H240932   5.353   4.146   6.058  1.0490 -0.1728  0.5704
 6481TIP3   OH240933   1.282   3.906   0.036 -0.3539  0.6609  0.1426
 6481TIP3    H140934   1.324   3.829  -0.003  3.3260  1.3699  2.2437
 6481TIP3    H240935   1.316   3.980  -0.014  0.7890  1.2341  1.6762
 6482TIP3   OH240936   4.905   6.252   4.084 -0.2877 -0.4372 -0.6571
 6482TIP3    H140937   4.839   6.259   4.154 -0.5573 -0.8488 -0.8698
 6482TIP3    H240938   4.866   6.298   4.010 -0.3090 -0.6247 -0.7625
 6483TIP3   OH240939   0.444   5.961   4.737 -0.1466  0.2359 -0.3004
 6483TIP3    H140940   0.364   5.990   4.781 -0.6475 -0.3499 -0.8115
 6483TIP3    H240941   0.456   5.871   4.766 -0.4465 -0.1365 -1.2910
 6484TIP3   OH240942   2.624   2.114  12.066  0.1216 -0.3031  0.8613
 6484TIP3    H140943   2.554   2.051  12.050 -0.5461  0.5630  0.3066
 6484TIP3    H240944   2.678   2.073  12.133 -0.8522 -1.0367  1.2184
 6485TIP3   OH240945   0.794   1.176   0.341 -0.6568 -0.0074 -0.2452
 6485TIP3    H140946   0.714   1.224   0.321 -0.0666  1.6723  1.1622
 6485TIP3    H240947   0.783   1.146   0.431 -1.0995 -2.8571 -1.1282
 6486TIP3   OH240948   1.897   3.265  15.454 -0.9401 -0.3570  0.1729
 6486TIP3    H140949   1.876   3.249  15.362 -2.1349  0.8630  0.2118
 6486TIP3    H240950   1.849   3.344  15.477  0.4701  0.1914  1.4640
 6487TIP3   OH240951   5.512   6.523   4.439 -0.0636 -0.3580  0.1201
 6487TIP3    H140952   5.580   6.548   4.502  0.5817  1.3507 -1.1876
 6487TIP3    H240953   5.434   6.508   4.493  0.1649  2.1404  1.3139
 6488TIP3   OH240954   0.504   1.832   4.614  0.3411 -0.4713  0.5189
 6488TIP3    H140955   0.496   1.813   4.520  0.6291 -1.0272  0.5982
 6488TIP3    H240956   0.474   1.752   4.657  1.8385 -0.8766  0.8677
 6489TIP3   OH240957   1.954   4.343  15.067 -0.3174  0.0245 -0.1376
 6489TIP3    H140958   2.016   4.295  15.121 -0.3230 -1.7113 -1.5658
 6489TIP3    H240959   1.906   4.398  15.128  0.4386 -1.0103  1.4518
 6490TIP3   OH240960   2.795   6.629  16.481 -0.0561  0.3273  0.0215
 6490TIP3    H140961   2.785   6.684  16.403  2.6724 -0.1572 -0.7646
 6490TIP3    H240962   2.746   6.549  16.460  2.4518 -0.7781 -2.3360
 6491TIP3   OH240963   2.696   5.926  12.569 -0.0417  0.1005  0.3436
 6491TIP3    H140964   2.758   5.865  12.529 -0.0104 -0.2669  0.9453
 6491TIP3    H240965   2.619   5.923  12.511 -0.3817 -1.1780  0.8248
 6492TIP3   OH240966   5.063   0.630   0.275 -0.5347  0.1558  0.4546
 6492TIP3    H140967   5.127   0.693   0.243 -2.8452  1.2867 -2.4145
 6492TIP3    H240968   5.031   0.668   0.357  0.1764  1.1879  0.2713
 6493TIP3   OH240969   5.231   5.586  11.449 -0.1580 -0.1264 -0.5470
 6493TIP3    H140970   5.154   5.642  11.457  0.5044  0.8123 -0.5083
 6493TIP3    H240971   5.303   5.647  11.433  0.9495 -0.7617  1.5834
 6494TIP3   OH240972   1.300   4.508   5.317  0.1436 -0.1327  0.4893
 6494TIP3    H140973   1.280   4.430   5.369 -0.0776 -0.5723 -0.2460
 6494TIP3    H240974   1.245   4.576   5.356 -1.8297 -1.0078 -0.6283
 6495TIP3   OH240975   3.869   4.583  12.069 -0.0718 -0.0278  0.3203
 6495TIP3    H140976   3.863   4.521  12.142  0.2449 -0.8304 -0.3278
 6495TIP3    H240977   3.813   4.546  12.001  0.5466  0.1044 -0.2718
 6496TIP3   OH240978   3.217   2.726   3.593 -0.2199  0.5343  0.7871
 6496TIP3    H140979   3.311   2.742   3.605  0.1009 -1.9282  2.2946
 6496TIP3    H240980   3.182   2.723   3.682 -1.8138  1.5881  0.2411
 6497TIP3   OH240981   0.364   0.314   6.190  0.2066  0.5897  0.5941
 6497TIP3    H140982   0.317   0.383   6.143  1.6183  1.8889  1.0051
 6497TIP3    H240983   0.356   0.339   6.283  1.2944  0.5943  0.6960
 6498TIP3   OH240984   2.392   1.429   2.425 -0.0496  0.3118 -0.2149
 6498TIP3    H140985   2.480   1.459   2.445  0.6374  1.2421 -3.9670
 6498TIP3    H240986   2.335   1.478   2.485  1.7579  1.8833  0.2941
 6499TIP3   OH240987   1.024   3.362   4.667 -0.3399  0.2333 -1.0680
 6499TIP3    H140988   1.093   3.355   4.601  1.1352  0.7837  0.3404
 6499TIP3    H240989   1.023   3.455   4.691  1.3061 -0.3799  1.8052
 6500TIP3   OH240990   3.388   0.545   0.962  0.2992 -0.2698  0.1671
 6500TIP3    H140991   3.356   0.510   1.045  3.0157 -0.4695  1.2106
 6500TIP3    H240992   3.453   0.482   0.932 -0.4368 -0.0804 -2.0320
 6501TIP3   OH240993   2.835   5.832  12.203 -0.4866  0.0246  0.1877
 6501TIP3    H140994   2.864   5.887  12.275 -2.9850  1.2593  0.3275
 6501TIP3    H240995   2.811   5.749  12.244 -3.2523  1.1812  1.1076
 6502TIP3   OH240996   1.202   6.540  12.216  0.0903 -0.0057  0.2502
 6502TIP3    H140997   1.110   6.536  12.241  0.1427 -0.8459  0.3251
 6502TIP3    H240998   1.202   6.583  12.130 -0.3748 -0.0829  0.2129
 6503TIP3   OH240999   3.277   0.765  16.257 -0.0740  0.3001 -0.1500
 6503TIP3    H141000   3.250   0.851  16.291 -0.1130  0.0730  0.4009
 6503TIP3    H241001   3.201   0.709  16.271  0.3375 -0.0998  0.5246
 6504TIP3   OH241002   1.359   6.223  11.234  0.0716 -0.2490  0.0639
 6504TIP3    H141003   1.441   6.263  11.205 -0.3203  1.3624  1.0299
 6504TIP3    H241004   1.370   6.212  11.329 -0.2481 -1.4877 -0.0283
 6505TIP3   OH241005   4.452   6.288   5.468 -0.1085 -0.0095 -0.1469
 6505TIP3    H141006   4.424   6.377   5.488 -1.8602 -0.0559 -2.0943
 6505TIP3    H241007   4.546   6.295   5.456 -0.0867  1.3890  0.5610
 6506TIP3   OH241008   5.164   0.011  12.361  0.0910 -0.2683  0.0975
 6506TIP3    H141009   5.124   0.011  12.448 -2.2765  0.1414 -0.9066
 6506TIP3    H241010   5.092   0.034  12.301  1.2111 -2.1102 -2.1480
 6507TIP3   OH241011   0.980   2.879   3.168 -0.3300  0.4659  0.0067
 6507TIP3    H141012   1.048   2.849   3.228  0.5096 -0.0795 -1.1860
 6507TIP3    H241013   0.995   2.829   3.087 -0.0352  2.7767 -1.4366
 6508TIP3   OH241014   3.845   6.512   4.380 -0.0686 -0.0135  0.6523
 6508TIP3    H141015   3.834   6.428   4.335  1.2858  0.4457 -0.6244
 6508TIP3    H241016   3.756   6.544   4.394 -0.6160 -1.6963  1.2743
 6509TIP3   OH241017   6.772   0.664  15.774  0.5084 -0.0771  0.0228
 6509TIP3    H141018   6.690   0.615  15.777  1.9249 -2.5242  1.0177
 6509TIP3    H241019   6.800   0.670  15.866  2.1060 -0.4957 -0.4128
 6510TIP3   OH241020   3.032   2.279  12.019  0.7688 -0.5853  0.1160
 6510TIP3    H141021   3.069   2.317  12.099  1.1012  1.1752 -0.8375
 6510TIP3    H241022   2.941   2.307  12.019  1.0740  0.4392 -0.7102
 6511TIP3   OH241023   1.516   1.533   3.436 -0.5344 -0.5019 -0.5170
 6511TIP3    H141024   1.520   1.495   3.524 -0.8360  0.7526  0.0521
 6511TIP3    H241025   1.601   1.574   3.424 -0.1288 -1.5154 -1.2205
 6512TIP3   OH241026   4.288   4.856   0.084 -0.3906  0.2112  0.3104
 6512TIP3    H141027   4.312   4.862   0.177 -1.3569 -1.1561  0.6841
 6512TIP3    H241028   4.213   4.915   0.075 -0.8541 -0.3226  0.6161
 6513TIP3   OH241029   2.737   0.256  11.228  0.2092  0.1889 -0.0790
 6513TIP3    H141030   2.742   0.228  11.136 -0.1459  1.8658 -0.6371
 6513TIP3    H241031   2.764   0.179  11.277  1.0139 -0.5591 -1.6112
 6514TIP3   OH241032   5.872   0.161  12.571  0.5793  0.8542 -0.0431
 6514TIP3    H141033   5.930   0.156  12.647 -2.5159  0.3935  2.5218
 6514TIP3    H241034   5.838   0.251  12.573 -1.8599  0.0087  1.1790
 6515TIP3   OH241035   4.934   5.864   4.689 -0.1746  0.2215 -0.2564
 6515TIP3    H141036   5.000   5.932   4.674  0.7538  0.0705  2.5384
 6515TIP3    H241037   4.974   5.784   4.658 -0.1906  0.5361 -1.1116
 6516TIP3   OH241038   0.411   2.456  12.384  0.6150  0.4837  0.8650
 6516TIP3    H141039   0.359   2.408  12.319 -1.2370  0.4032  2.3333
 6516TIP3    H241040   0.453   2.526  12.333 -0.1847 -0.0046 -0.5371
 6517TIP3   OH241041   2.502   5.769  12.368  0.4117  0.0965 -0.0647
 6517TIP3    H141042   2.465   5.816  12.293 -2.7666 -1.4520  0.3970
 6517TIP3    H241043   2.509   5.678  12.338 -0.0611 -0.3815  1.1961
 6518TIP3   OH241044   0.504   1.989   0.491 -0.4322 -0.1074  0.1564
 6518TIP3    H141045   0.425   1.948   0.527  0.2329 -2.8618 -1.2529
 6518TIP3    H241046   0.574   1.960   0.549 -0.3004  1.8079  1.0279
 6519TIP3   OH241047   0.751   4.428   6.001 -0.4883  0.1809  0.9372
 6519TIP3    H141048   0.724   4.503   6.055  0.2961  0.2424  1.2437
 6519TIP3    H241049   0.840   4.409   6.028  0.0379  0.3940 -0.5210
 6520TIP3   OH241050   4.621   1.042   2.511 -0.2150  0.4233  0.6062
 6520TIP3    H141051   4.569   1.066   2.435 -0.2172 -0.0570  0.4537
 6520TIP3    H241052   4.671   1.121   2.532  0.2643  0.3629 -0.2831
 6521TIP3   OH241053   0.966   3.440  14.197  0.3149  0.2050 -0.5380
 6521TIP3    H141054   0.943   3.404  14.112  1.2673 -1.0111 -0.3011
 6521TIP3    H241055   0.918   3.385  14.260  1.4407 -0.4014 -0.1919
 6522TIP3   OH241056   1.767   1.941   0.435 -0.2309 -0.5057  0.1603
 6522TIP3    H141057   1.773   2.020   0.381 -0.3102 -0.7163 -0.1614
 6522TIP3    H241058   1.742   1.872   0.373 -2.7379 -0.3147  0.8286
 6523TIP3   OH241059   1.634   0.565  16.652 -0.3244 -0.2877  0.0608
 6523TIP3    H141060   1.640   0.470  16.662  0.5963 -0.3399 -0.8723
 6523TIP3    H241061   1.725   0.594  16.643 -0.6735  0.5242 -0.9966
 6524TIP3   OH241062   2.893   0.017  16.643 -0.4717 -0.4157 -0.1896
 6524TIP3    H141063   2.802  -0.010  16.655 -0.3880 -0.8981 -0.5939
 6524TIP3    H241064   2.944  -0.048  16.692 -0.3742  0.2260  0.5754
 6525TIP3   OH241065   2.109   4.575   3.426 -0.5185 -0.5210 -0.4558
 6525TIP3    H141066   2.187   4.625   3.403 -0.7066 -0.5819 -1.2794
 6525TIP3    H241067   2.114   4.564   3.521  0.5596 -0.6785 -0.5157
 6526TIP3   OH241068   3.261   0.375   3.517  0.0851  0.3588 -0.0481
 6526TIP3    H141069   3.269   0.289   3.557 -0.8801 -0.6278 -1.8406
 6526TIP3    H241070   3.248   0.435   3.590 -0.7205 -1.2084  1.1423
 6527TIP3   OH241071   3.968   5.901  11.026 -0.2560 -0.3813 -0.5619
 6527TIP3    H141072   4.044   5.960  11.025 -1.3837  1.1824  0.7438
 6527TIP3    H241073   3.934   5.908  11.115 -2.1471 -0.7690 -1.2053
 6528TIP3   OH241074   1.188   1.805   1.203  1.2174 -0.1866 -0.2003
 6528TIP3    H141075   1.171   1.729   1.148  0.1032 -0.3576  0.3360
 6528TIP3    H241076   1.243   1.863   1.150  0.9608 -0.7696 -1.1149
 6529TIP3   OH241077   5.501   5.682   5.901 -0.3846  0.3673  0.0566
 6529TIP3    H141078   5.472   5.609   5.956  0.1884  1.9425  2.6727
 6529TIP3    H241079   5.597   5.681   5.909 -0.4054  1.8859  0.9052
 6530TIP3   OH241080   1.934   1.334   3.623  0.3852 -0.1069 -0.1586
 6530TIP3    H141081   1.979   1.418   3.618  1.8927 -0.8024  0.9541
 6530TIP3    H241082   2.003   1.271   3.643 -0.6596 -1.6781 -1.3014
 6531TIP3   OH241083   1.732   1.225   2.734  0.0526  0.4859 -0.2522
 6531TIP3    H141084   1.790   1.256   2.802  0.9196 -0.2965 -0.6130
 6531TIP3    H241085   1.764   1.266   2.654  1.8523 -1.9702 -0.9156
 6532TIP3   OH241086   5.590   3.451   3.668 -0.2459  0.6209  0.1180
 6532TIP3    H141087   5.566   3.530   3.620  2.8968  2.4393  1.2718
 6532TIP3    H241088   5.557   3.466   3.757 -0.6024  0.1186  0.0733
 6533TIP3   OH241089   4.027   6.181   2.902  0.3294  0.6360  0.2228
 6533TIP3    H141090   4.012   6.170   2.996 -2.6023 -1.8002 -0.3411
 6533TIP3    H241091   3.942   6.211   2.868  1.6022  2.4467 -1.5918
 6534TIP3   OH241092   4.338   0.286  12.733  0.0198 -0.4905 -0.5310
 6534TIP3    H141093   4.256   0.254  12.697  0.1344 -0.7197 -0.5932
 6534TIP3    H241094   4.316   0.368  12.777 -0.2698 -0.6419 -0.3991
 6535TIP3   OH241095   0.871   3.036   0.794  0.2321 -0.0543  0.0977
 6535TIP3    H141096   0.957   3.043   0.752 -0.2619  2.1189 -0.7014
 6535TIP3    H241097   0.867   3.111   0.853 -0.9207 -0.4013  0.4824
 6536TIP3   OH241098   6.049   5.593   0.952  0.5199  0.2463 -0.0156
 6536TIP3    H141099   6.011   5.636   1.028 -0.9171 -0.7740 -0.1167
 6536TIP3    H241100   6.117   5.536   0.988  1.5743  1.6014  0.2323
 6537TIP3   OH241101   4.852   4.337  14.997 -0.3157 -0.4472  0.6791
 6537TIP3    H141102   4.792   4.320  14.925  1.4379 -1.1655 -0.6857
 6537TIP3    H241103   4.842   4.261  15.055  0.2216 -1.2527 -0.2469
 6538TIP3   OH241104   4.984   2.300  16.659 -0.3361  0.0648  0.0746
 6538TIP3    H141105   4.982   2.205  16.659 -2.0776  0.0036 -2.1477
 6538TIP3    H241106   5.046   2.324  16.727  0.8132 -2.6682  0.0813
 6539TIP3   OH241107   0.622   3.113  16.122 -1.0695 -0.1429  0.1350
 6539TIP3    H141108   0.581   3.080  16.202  2.5572 -2.1024  1.4275
 6539TIP3    H241109   0.635   3.206  16.139 -1.7708 -0.2101  1.1263
 6540TIP3   OH241110   4.856   1.627   4.184 -0.1783  0.3778  0.6255
 6540TIP3    H141111   4.793   1.686   4.144 -1.3599  0.2949  2.2468
 6540TIP3    H241112   4.849   1.644   4.278  0.2355 -1.5398  1.0579
 6541TIP3   OH241113   1.858   5.374  10.429  0.2786 -0.2185 -0.3827
 6541TIP3    H141114   1.908   5.413  10.358  1.5221  1.3479  1.2541
 6541TIP3    H241115   1.767   5.380  10.401  0.3669  3.8599 -0.3401
 6542TIP3   OH241116   1.989   4.051  12.312  0.2764 -0.5519  0.6550
 6542TIP3    H141117   1.958   4.077  12.399  1.2802  1.7456  0.3873
 6542TIP3    H241118   1.909   4.043  12.260 -0.3305 -1.7996  1.7063
 6543TIP3   OH241119   3.972   1.215   3.090  0.7805  0.6012  0.1000
 6543TIP3    H141120   4.011   1.292   3.130 -0.4985  2.0981 -1.3800
 6543TIP3    H241121   3.891   1.247   3.050  0.6444 -1.3305 -1.3273
 6544TIP3   OH241122   5.405   4.094  16.684  0.4380 -0.0925  0.3219
 6544TIP3    H141123   5.424   4.025  16.621 -0.7705  0.2481 -0.4570
 6544TIP3    H241124   5.420   4.053  16.769  2.2640 -0.5091 -0.1626
 6545TIP3   OH241125   6.453   6.231  16.201  0.3242  0.0562 -0.0609
 6545TIP3    H141126   6.394   6.178  16.148 -0.7628 -0.1254  1.2990
 6545TIP3    H241127   6.533   6.238  16.148 -0.5052 -0.6086 -1.4485
 6546TIP3   OH241128   0.705   5.794  11.431  0.1960 -0.2932 -0.3748
 6546TIP3    H141129   0.733   5.826  11.345  0.9352  1.9898  0.6442
 6546TIP3    H241130   0.785   5.766  11.474 -0.0309 -0.4326 -0.0391
 6547TIP3   OH241131   4.105   4.550  12.338  0.2182  0.0840 -0.4057
 6547TIP3    H141132   4.011   4.537  12.323 -0.0017  1.3776 -0.2726
 6547TIP3    H241133   4.135   4.466  12.372 -1.3528  0.2814  1.7339
 6548TIP3   OH241134   5.882   2.327  16.890  0.3252 -0.0804  0.1432
 6548TIP3    H141135   5.888   2.257  16.825  0.4790  0.1993 -0.1434
 6548TIP3    H241136   5.929   2.400  16.851 -3.3692  1.6565 -1.5124
 6549TIP3   OH241137   0.041   6.222  12.322 -0.6493  0.5437  0.3544
 6549TIP3    H141138  -0.023   6.208  12.392 -0.4263  0.3029  0.5111
 6549TIP3    H241139   0.124   6.193  12.359 -0.5708  0.1822 -0.0932
 6550TIP3   OH241140   1.343   0.449   2.784  0.0592  0.4333 -0.5214
 6550TIP3    H141141   1.394   0.396   2.723 -1.1678 -1.1658 -0.2279
 6550TIP3    H241142   1.286   0.386   2.829  0.1656  1.6905  1.5184
 6551TIP3   OH241143   5.325   5.631   1.538  0.1443 -0.2440 -0.4783
 6551TIP3    H141144   5.330   5.727   1.544  0.4510 -0.3057  0.2832
 6551TIP3    H241145   5.407   5.600   1.577 -0.1334 -0.8314 -0.3592
 6552TIP3   OH241146   0.829   4.313   2.696 -0.3408  0.2910  0.3860
 6552TIP3    H141147   0.866   4.226   2.681 -0.1353  0.6131 -1.1742
 6552TIP3    H241148   0.870   4.368   2.630 -1.2202  1.3606  0.6954
 6553TIP3   OH241149   6.146   0.699   2.372 -0.1227  0.1445  0.0197
 6553TIP3    H141150   6.228   0.656   2.394  0.0566  0.0013 -0.8997
 6553TIP3    H241151   6.095   0.696   2.453  0.7063  0.0831  0.5480
 6554TIP3   OH241152   5.138   6.135   3.982  0.1708 -0.2791 -0.1078
 6554TIP3    H141153   5.063   6.166   4.032  0.2740 -0.7793  0.3774
 6554TIP3    H241154   5.187   6.214   3.960 -0.6883  0.0819 -0.7582
 6555TIP3   OH241155   2.075   5.402  16.141 -0.3752 -0.4803  0.1576
 6555TIP3    H141156   2.096   5.352  16.220  1.0111  1.3321  0.9950
 6555TIP3    H241157   2.141   5.470  16.137 -0.8187 -0.1048 -2.2410
 6556TIP3   OH241158   2.354   3.486   5.731  0.6698  0.8196 -0.1757
 6556TIP3    H141159   2.385   3.529   5.651  0.7988  2.0518  0.5169
 6556TIP3    H241160   2.338   3.396   5.704  1.9964  0.8730 -1.2704
 6557TIP3   OH241161   5.904   6.728   4.369 -0.1574  0.1824  0.3347
 6557TIP3    H141162   5.869   6.746   4.456  0.0883 -0.0967  0.4915
 6557TIP3    H241163   5.997   6.713   4.383 -0.0005  0.7362 -0.0569
 6558TIP3   OH241164   6.241   1.589  11.546 -0.2728  0.4579 -0.2766
 6558TIP3    H141165   6.250   1.672  11.500 -0.2140  0.0237 -1.0598
 6558TIP3    H241166   6.244   1.613  11.639 -2.0857  1.5511 -0.4535
 6559TIP3   OH241167   3.711   3.456  11.387 -0.4784 -0.1019 -0.2590
 6559TIP3    H141168   3.679   3.506  11.462  0.6574 -1.0726  0.9350
 6559TIP3    H241169   3.664   3.491  11.312 -1.5307  1.0222  0.8876
 6560TIP3   OH241170   5.170   2.506   2.284 -0.2952 -0.1218 -0.1154
 6560TIP3    H141171   5.146   2.433   2.226  0.2783  1.8953 -3.1157
 6560TIP3    H241172   5.135   2.584   2.241 -0.3345  1.5112  2.6423
 6561TIP3   OH241173   1.532   2.200   5.525 -0.1248 -0.1250  0.2706
 6561TIP3    H141174   1.595   2.128   5.514  0.1222  0.1746 -0.2937
 6561TIP3    H241175   1.497   2.215   5.437 -1.1711 -0.4429  0.6081
 6562TIP3   OH241176   0.646   5.541  16.210  0.0767 -0.1931  0.2375
 6562TIP3    H141177   0.720   5.596  16.185  1.4396 -1.9026  0.2983
 6562TIP3    H241178   0.684   5.476  16.270 -1.4222 -1.2406  0.1061
 6563TIP3   OH241179   6.374   0.099  10.708 -0.7153 -0.4184 -0.3833
 6563TIP3    H141180   6.318   0.134  10.639  1.2411  0.1652 -1.7521
 6563TIP3    H241181   6.395   0.010  10.678 -2.6918 -1.5665  1.2896
 6564TIP3   OH241182   2.698   5.034  15.854 -0.6691  0.1018  0.0147
 6564TIP3    H141183   2.678   5.054  15.763 -0.5947  1.6424  0.3081
 6564TIP3    H241184   2.620   5.059  15.903 -0.7302 -0.7567  0.3839
 6565TIP3   OH241185   6.330   4.201  14.758  0.0946  0.1266  0.3212
 6565TIP3    H141186   6.266   4.195  14.686  1.0950 -1.6996 -0.4915
 6565TIP3    H241187   6.315   4.122  14.810  0.6616  0.4760  1.0293
 6566TIP3   OH241188   4.840   1.937   6.346 -0.1108  0.1871  0.2040
 6566TIP3    H141189   4.846   1.843   6.327  2.9746 -0.1945  2.3074
 6566TIP3    H241190   4.902   1.978   6.286 -0.2875  0.6738  0.3462
 6567TIP3   OH241191   0.004   1.186   1.952 -0.7754 -0.3583  0.5695
 6567TIP3    H141192  -0.089   1.200   1.968 -0.4337  2.5392  0.5876
 6567TIP3    H241193   0.047   1.219   2.032  0.3313  0.2685 -0.2523
 6568TIP3   OH241194   0.419   2.857  16.071 -0.3003 -0.5889 -0.7266
 6568TIP3    H141195   0.426   2.882  16.163 -0.9895 -1.1976 -0.5022
 6568TIP3    H241196   0.371   2.775  16.072 -0.5376 -0.4700 -1.6528
 6569TIP3   OH241197   1.113   0.978   2.358  0.3420  0.0104 -0.6271
 6569TIP3    H141198   1.170   1.054   2.343  1.9089 -0.6841  1.3847
 6569TIP3    H241199   1.132   0.951   2.448 -1.5156 -1.6780 -0.6796
 6570TIP3   OH241200   4.535   2.866   1.181  0.1203  0.0443  0.3516
 6570TIP3    H141201   4.470   2.937   1.181  0.5793  0.5948  3.0143
 6570TIP3    H241202   4.488   2.791   1.145 -0.5814  1.4911 -1.9452
 6571TIP3   OH241203   5.539   0.677  16.815  0.2065 -0.4977  0.1002
 6571TIP3    H141204   5.502   0.763  16.796  0.3750 -0.2878  0.7031
 6571TIP3    H241205   5.631   0.694  16.832 -0.0255 -0.5920  1.5897
 6572TIP3   OH241206   4.072   1.839   1.903 -0.4616  0.5283 -0.2014
 6572TIP3    H141207   4.040   1.923   1.871 -1.0065 -0.1850 -1.5909
 6572TIP3    H241208   4.132   1.862   1.974 -0.6011  2.0777 -0.5543
 6573TIP3   OH241209   6.271   0.541  10.694 -0.4128  0.1345 -0.6696
 6573TIP3    H141210   6.337   0.611  10.694  0.5651 -0.7298  0.7045
 6573TIP3    H241211   6.208   0.567  10.626  0.7006  1.5872 -1.1979
 6574TIP3   OH241212   5.751   1.483  14.445  0.0704 -0.1308  0.4459
 6574TIP3    H141213   5.836   1.526  14.439  0.3894 -0.9500 -2.0185
 6574TIP3    H241214   5.765   1.410  14.505  1.8411 -1.6830 -1.6996
 6575TIP3   OH241215   3.629   1.087   3.245  0.2623  0.4541  0.2624
 6575TIP3    H141216   3.669   1.008   3.279  0.5444 -0.1577 -1.3999
 6575TIP3    H241217   3.617   1.070   3.151 -1.0133  1.8132  0.1318
 6576TIP3   OH241218   6.203   1.806   5.910 -0.6797 -0.6558 -0.1662
 6576TIP3    H141219   6.200   1.776   5.819 -0.3078 -0.5568 -0.2167
 6576TIP3    H241220   6.116   1.842   5.927 -0.8102 -0.8501 -0.4235
 6577TIP3   OH241221   5.664   5.460  16.302 -0.1767 -0.1535  0.3743
 6577TIP3    H141222   5.736   5.461  16.365 -0.3385 -1.4263  0.6039
 6577TIP3    H241223   5.672   5.375  16.258  0.9281  1.2924 -2.5121
 6578TIP3   OH241224   1.803   0.749   4.421  0.0078  0.0924 -0.3348
 6578TIP3    H141225   1.804   0.834   4.377  1.5940  0.1102 -0.3210
 6578TIP3    H241226   1.894   0.732   4.443 -0.0351 -2.2581 -1.6120
 6579TIP3   OH241227   2.596   0.086   6.388  0.7957 -0.2333  0.1023
 6579TIP3    H141228   2.511   0.094   6.432 -0.5021 -2.2152 -1.8469
 6579TIP3    H241229   2.593   0.150   6.318  0.9236 -0.3207  0.0163
 6580TIP3   OH241230   6.609   6.778  13.636 -0.3430  0.2218 -0.4461
 6580TIP3    H141231   6.514   6.769  13.638 -0.5048  1.4971 -1.2375
 6580TIP3    H241232   6.630   6.787  13.543  0.5979 -0.3558 -0.3049
 6581TIP3   OH241233   2.011   1.006  13.098 -1.2010  0.1405 -0.7099
 6581TIP3    H141234   1.969   1.030  13.180  1.2862  0.0380  0.7096
 6581TIP3    H241235   1.982   1.072  13.036  0.2869  3.0729  1.4207
 6582TIP3   OH241236   0.232   6.427  16.412  0.6980  0.3692  0.4179
 6582TIP3    H141237   0.246   6.468  16.326  1.6640 -0.1443  0.3138
 6582TIP3    H241238   0.219   6.334  16.391  0.0333  0.3788  0.7669
 6583TIP3   OH241239   0.636   1.620   3.522 -0.0088 -0.0639  0.2760
 6583TIP3    H141240   0.638   1.604   3.616 -1.3469  1.5142  0.6108
 6583TIP3    H241241   0.612   1.535   3.483 -1.1132 -0.3235  1.4833
 6584TIP3   OH241242   1.823   2.948   5.794 -0.0116  0.7173  0.0516
 6584TIP3    H141243   1.911   2.976   5.817 -0.1274  2.6877 -1.6207
 6584TIP3    H241244   1.793   2.898   5.870  3.2580 -1.9075 -0.1224
 6585TIP3   OH241245   3.563   4.871  13.876 -0.8971  0.5130 -0.2870
 6585TIP3    H141246   3.503   4.895  13.946 -1.4517  1.6581 -1.1076
 6585TIP3    H241247   3.644   4.847  13.921 -2.3071 -2.4660  0.9318
 6586TIP3   OH241248   5.068   3.048  14.706 -0.0673  0.2058 -0.1832
 6586TIP3    H141249   5.115   2.973  14.743 -0.6441 -0.3216 -0.4909
 6586TIP3    H241250   5.112   3.124  14.743 -0.7096 -0.2925  1.7081
 6587TIP3   OH241251   1.903   4.022  13.781  0.4335  0.7784 -0.2005
 6587TIP3    H141252   1.938   3.940  13.747 -1.1695 -0.1820  0.3297
 6587TIP3    H241253   1.980   4.077  13.795  1.5347 -0.5533 -0.7395
 6588TIP3   OH241254   3.615   2.881   2.712 -0.4162  0.2904  0.1230
 6588TIP3    H141255   3.596   2.837   2.629  0.3134 -0.6969  0.4637
 6588TIP3    H241256   3.552   2.953   2.716 -1.3506 -0.4687 -0.6425
 6589TIP3   OH241257   1.652   2.882  11.473  0.3998 -0.2019  0.3502
 6589TIP3    H141258   1.674   2.956  11.416  0.1535 -0.2288  0.2231
 6589TIP3    H241259   1.693   2.903  11.557 -0.3897  0.4843  0.5724
 6590TIP3   OH241260   3.251   6.003   3.358 -0.4194  0.0233  0.0401
 6590TIP3    H141261   3.163   6.022   3.325 -0.7108 -0.3869  0.5789
 6590TIP3    H241262   3.306   6.007   3.280 -0.7353  1.3416 -0.1478
 6591TIP3   OH241263   3.905   0.081  12.915 -0.3077 -0.1328 -0.3187
 6591TIP3    H141264   3.996   0.072  12.889 -0.2142  0.8466 -0.3328
 6591TIP3    H241265   3.895   0.172  12.941 -1.1114 -0.3910  0.3495
 6592TIP3   OH241266   6.487   1.141  11.287 -0.0597  0.1096  0.4718
 6592TIP3    H141267   6.443   1.221  11.259  0.4302  0.1347 -0.2391
 6592TIP3    H241268   6.456   1.127  11.377  0.3570  1.4489  0.8394
 6593TIP3   OH241269   5.538   0.164  16.109 -0.2237  0.4582  0.0634
 6593TIP3    H141270   5.559   0.201  16.022  0.0345  2.7906  1.0328
 6593TIP3    H241271   5.445   0.185  16.121  0.6103  3.8908  1.8944
 6594TIP3   OH241272   1.938   1.146  13.350 -0.2164  0.0678  0.2674
 6594TIP3    H141273   1.864   1.203  13.372  0.2329  0.6394  0.2907
 6594TIP3    H241274   1.914   1.061  13.388  0.8485  1.1684  3.7394
 6595TIP3   OH241275   1.016   4.654   3.996 -0.4546  0.3072  0.2769
 6595TIP3    H141276   1.059   4.630   3.914 -1.5245  0.1515 -0.2572
 6595TIP3    H241277   1.000   4.748   3.988  1.6791  0.8258  1.3979
 6596TIP3   OH241278   1.918   3.077   1.520  0.6162  0.1178  0.0812
 6596TIP3    H141279   1.866   3.078   1.439  0.1062  1.3379  0.4000
 6596TIP3    H241280   2.003   3.112   1.494  0.4383  0.5517  0.0693
 6597TIP3   OH241281   0.254   1.141   0.024 -0.0456 -0.0093 -0.6236
 6597TIP3    H141282   0.220   1.227   0.047 -1.1554 -0.5998  0.0367
 6597TIP3    H241283   0.297   1.154  -0.061 -0.7807  1.0478 -0.8532
 6598TIP3   OH241284   2.110   0.649   2.248  0.1397 -0.0142  0.6430
 6598TIP3    H141285   2.187   0.648   2.304 -0.2511  0.7372  1.2095
 6598TIP3    H241286   2.100   0.558   2.219  2.4131  0.2009 -1.0873
 6599TIP3   OH241287   2.572   4.121   0.255 -0.3463  0.0487  0.1382
 6599TIP3    H141288   2.530   4.097   0.337  1.0645 -0.3252  0.7741
 6599TIP3    H241289   2.562   4.217   0.250  0.6273  0.2277  1.3564
 6600TIP3   OH241290   0.789   5.650  15.267  0.3086  0.0695  0.2929
 6600TIP3    H141291   0.795   5.715  15.197  0.2603  0.5178  0.7016
 6600TIP3    H241292   0.713   5.596  15.243  1.0702 -0.6099 -0.6825
 6601TIP3   OH241293   6.184   1.853  13.540  0.4262  1.0038 -0.3361
 6601TIP3    H141294   6.165   1.929  13.484 -0.6836 -1.1741 -3.1857
 6601TIP3    H241295   6.098   1.823  13.570  0.7471  0.2649 -0.1225
 6602TIP3   OH241296   3.517   5.827   5.517  0.5655 -0.2704  0.6340
 6602TIP3    H141297   3.427   5.829   5.549 -0.4896  2.4472 -1.9938
 6602TIP3    H241298   3.516   5.762   5.447  0.3464  0.4254 -0.0242
 6603TIP3   OH241299   0.239   1.462   1.572 -0.1210  0.5095 -0.6528
 6603TIP3    H141300   0.210   1.397   1.635  0.8302 -0.1198 -0.8520
 6603TIP3    H241301   0.272   1.534   1.626  0.8292 -0.0871 -0.4151
 6604TIP3   OH241302   0.721   1.170   5.438  0.1108 -0.2699  0.1584
 6604TIP3    H141303   0.652   1.168   5.372  0.2846  0.7728 -0.0697
 6604TIP3    H241304   0.735   1.263   5.456  2.3497 -0.3557 -0.7802
 6605TIP3   OH241305   6.607   2.902  12.150  0.3800 -0.6105 -0.0471
 6605TIP3    H141306   6.686   2.896  12.203  1.3958 -0.9578 -1.5366
 6605TIP3    H241307   6.537   2.917  12.213  1.7868  1.0514  1.2182
 6606TIP3   OH241308   6.319   1.668   3.877 -0.0586 -0.2376 -0.1916
 6606TIP3    H141309   6.347   1.643   3.789  1.8713  0.3729  0.1943
 6606TIP3    H241310   6.322   1.586   3.927  0.0265 -0.3716 -0.4136
 6607TIP3   OH241311   1.373   2.914   2.508 -0.1008  0.4414 -0.5089
 6607TIP3    H141312   1.377   2.957   2.593  0.1023 -1.3906  0.4449
 6607TIP3    H241313   1.461   2.927   2.471  0.4358 -0.3864  0.4158
 6608TIP3   OH241314   6.342   5.968  11.117  0.0385 -0.5400  0.5125
 6608TIP3    H141315   6.355   5.917  11.038  0.7945 -0.6632  0.7119
 6608TIP3    H241316   6.408   6.038  11.113  0.7421 -1.1176  1.4906
 6609TIP3   OH241317   4.412   3.031   5.085 -0.4267 -0.5097  0.6082
 6609TIP3    H141318   4.371   2.945   5.092  1.8144 -1.8371 -1.0438
 6609TIP3    H241319   4.487   3.027   5.144  1.1814 -0.7462 -1.3276
 6610TIP3   OH241320   2.582   3.093   3.582 -0.2456  0.4731  0.1807
 6610TIP3    H141321   2.517   3.073   3.514 -2.0722  1.2134  1.6313
 6610TIP3    H241322   2.569   3.024   3.647  0.5957  0.5125  0.3901
 6611TIP3   OH241323   3.853   5.335  13.569 -0.2546 -0.0527  0.8908
 6611TIP3    H141324   3.837   5.319  13.476  0.9901 -0.5593  0.7513
 6611TIP3    H241325   3.918   5.405  13.571  0.0482 -0.3399  1.3744
 6612TIP3   OH241326   4.462   0.263   4.137  0.0657  0.3354  0.2961
 6612TIP3    H141327   4.439   0.170   4.141  1.5949 -0.0306  2.3609
 6612TIP3    H241328   4.390   0.308   4.181 -0.4330  0.1067 -0.2661
 6613TIP3   OH241329   4.603   1.217  15.623 -0.4908  0.1076  0.4863
 6613TIP3    H141330   4.617   1.123  15.633  0.9084 -0.1257 -2.5494
 6613TIP3    H241331   4.670   1.257  15.678  2.4564 -0.8669 -2.0637
 6614TIP3   OH241332   1.795   0.033   6.055 -0.2509 -0.2116  0.1442
 6614TIP3    H141333   1.797   0.023   6.150 -1.2476 -0.0106  0.1958
 6614TIP3    H241334   1.885   0.015   6.027  1.0007  3.2652  1.4621
 6615TIP3   OH241335   3.319   1.967   5.119 -0.9761  0.0630 -0.7083
 6615TIP3    H141336   3.240   2.007   5.081  1.1760  1.7533 -3.8466
 6615TIP3    H241337   3.360   2.039   5.168 -1.0454 -0.6205  0.3693
 6616TIP3   OH241338   1.290   2.055  11.805 -0.1937  0.2964  0.4807
 6616TIP3    H141339   1.337   2.010  11.874  0.4831  0.9842  0.4856
 6616TIP3    H241340   1.306   2.003  11.726  0.9359  0.7396  0.3989
 6617TIP3   OH241341   2.889   1.963   1.389 -0.4485  0.0892 -0.2230
 6617TIP3    H141342   2.950   2.011   1.333  1.2464 -2.1146 -0.3690
 6617TIP3    H241343   2.882   1.877   1.348 -0.2374 -1.1345  2.1729
 6618TIP3   OH241344   6.545   5.594   3.557  0.5806 -0.2511 -0.4910
 6618TIP3    H141345   6.548   5.523   3.493 -1.0582 -2.0717  1.3035
 6618TIP3    H241346   6.513   5.669   3.508 -1.0334 -1.6866 -1.7600
 6619TIP3   OH241347   0.923   4.668  12.419  0.5799  1.2050 -0.3629
 6619TIP3    H141348   0.851   4.715  12.461 -1.2100 -0.0556 -1.8912
 6619TIP3    H241349   0.885   4.629  12.341  2.9756  0.5958 -1.3324
 6620TIP3   OH241350   5.126   4.966  15.294  0.3000 -0.3326 -0.3532
 6620TIP3    H141351   5.062   4.901  15.322 -0.5197  0.4899 -0.2648
 6620TIP3    H241352   5.157   5.005  15.375  0.3716 -0.2266 -0.4316
 6621TIP3   OH241353   0.346   6.851   3.842  0.1683  0.0318  0.5727
 6621TIP3    H141354   0.307   6.934   3.814  1.3176  0.5123  0.3516
 6621TIP3    H241355   0.433   6.850   3.802  1.8198  0.6239  3.8345
 6622TIP3   OH241356   3.606   3.688   1.269  0.2233 -0.0819 -0.1548
 6622TIP3    H141357   3.515   3.706   1.245  0.1200 -1.2662 -0.7038
 6622TIP3    H241358   3.657   3.744   1.210 -0.1205 -0.4139 -0.7802
 6623TIP3   OH241359   3.794   4.114   5.469  0.9633 -0.3141 -0.2041
 6623TIP3    H141360   3.730   4.097   5.538  0.2980 -0.5898 -0.8917
 6623TIP3    H241361   3.758   4.188   5.420  0.9455 -0.7583 -0.8669
 6624TIP3   OH241362   3.420   1.870  14.514 -0.1161  0.4799 -0.0176
 6624TIP3    H141363   3.379   1.792  14.476 -1.1076  0.7302  0.5267
 6624TIP3    H241364   3.507   1.872  14.474 -0.3569 -0.4701 -0.6305
 6625TIP3   OH241365   1.996   1.511   0.393 -0.3884 -0.0714 -0.0037
 6625TIP3    H141366   1.977   1.563   0.471 -0.9404 -1.8631  1.1150
 6625TIP3    H241367   1.955   1.426   0.410  0.5914 -0.9391 -1.6875
 6626TIP3   OH241368   4.134   2.252   4.731  0.0078  0.2198 -0.3195
 6626TIP3    H141369   4.116   2.158   4.720 -1.5552  0.2842  1.2866
 6626TIP3    H241370   4.228   2.260   4.715  0.0594 -1.5070 -1.1284
 6627TIP3   OH241371   1.550   5.307   4.957  0.0268  0.0592 -0.5025
 6627TIP3    H141372   1.587   5.389   4.923  1.1100  0.0080  0.4776
 6627TIP3    H241373   1.615   5.241   4.932 -0.3935 -0.3551 -0.4950
 6628TIP3   OH241374   1.990   0.501  14.327 -0.4192 -0.4053 -0.0328
 6628TIP3    H141375   1.981   0.407  14.312  1.3906 -0.5021 -0.8931
 6628TIP3    H241376   2.079   0.511  14.361 -0.5723  1.0008  0.0223
 6629TIP3   OH241377   3.838   2.282   1.366 -0.1968  0.0205  0.2716
 6629TIP3    H141378   3.810   2.193   1.388  1.1519 -0.4650  0.1100
 6629TIP3    H241379   3.899   2.306   1.436  1.4415 -0.2094 -1.0016
 6630TIP3   OH241380   1.127   0.085  16.626 -0.1970 -0.5342 -0.5270
 6630TIP3    H141381   1.208   0.084  16.574 -0.3739  2.3031 -1.0031
 6630TIP3    H241382   1.065   0.134  16.573 -1.8743 -1.5465  0.4158
 6631TIP3   OH241383   6.349   2.355  12.941 -0.0079 -0.0678  0.4209
 6631TIP3    H141384   6.274   2.387  12.892 -0.8610 -3.4984 -0.8386
 6631TIP3    H241385   6.313   2.323  13.024  0.1271 -1.0299  0.1279
 6632TIP3   OH241386   0.250   6.822  12.445  0.0072 -0.3147  0.4795
 6632TIP3    H141387   0.230   6.729  12.431 -1.1612 -0.0015 -0.1269
 6632TIP3    H241388   0.342   6.824  12.469  0.4666 -1.5164 -1.0256
 6633TIP3   OH241389   5.368   6.531   0.705  0.0946 -0.7483  0.1146
 6633TIP3    H141390   5.411   6.464   0.652 -1.5976 -1.3778 -0.5272
 6633TIP3    H241391   5.440   6.577   0.748  1.3705 -2.0426 -0.5428
 6634TIP3   OH241392   6.826   4.237  11.362 -0.4032  0.3093  0.0363
 6634TIP3    H141393   6.889   4.269  11.297 -0.7564  1.1396  0.0929
 6634TIP3    H241394   6.815   4.144  11.341 -0.3602  0.5171 -0.9594
 6635TIP3   OH241395   3.316   0.029  16.401  0.6032 -0.4390  0.6295
 6635TIP3    H141396   3.366   0.096  16.447 -0.3952 -0.4766  1.8432
 6635TIP3    H241397   3.225   0.058  16.407  0.2214 -1.5622  0.6237
 6636TIP3   OH241398   0.228   3.087  14.877  0.7501  0.0991 -0.4034
 6636TIP3    H141399   0.273   3.163  14.841  0.8510  0.0996 -0.2781
 6636TIP3    H241400   0.141   3.120  14.901  0.1470 -0.2531 -2.0279
 6637TIP3   OH241401   4.944   0.821   1.749 -0.1795 -0.2349  0.2150
 6637TIP3    H141402   4.894   0.902   1.753  0.6149  0.2386  0.9544
 6637TIP3    H241403   4.990   0.825   1.665  0.0178  0.1826  0.3421
 6638TIP3   OH241404   5.859   0.509  13.061 -0.6879  0.1125 -0.2961
 6638TIP3    H141405   5.902   0.463  12.989 -0.7162 -1.7400  0.7985
 6638TIP3    H241406   5.790   0.561  13.019  0.0622  0.0445 -1.6923
 6639TIP3   OH241407   4.218   5.121  15.919  0.0172  0.0033 -0.3632
 6639TIP3    H141408   4.290   5.133  15.857 -1.7023  2.3381 -2.0700
 6639TIP3    H241409   4.144   5.095  15.865 -0.6206 -2.0213  1.3103
 6640TIP3   OH241410   3.752   4.366  11.931  0.5004 -0.3805  0.1775
 6640TIP3    H141411   3.716   4.326  12.010  0.1351  0.1813  0.3019
 6640TIP3    H241412   3.747   4.297  11.864  0.3114 -0.6848  0.5038
 6641TIP3   OH241413   2.714   5.175   2.375 -0.4582  0.1146 -0.8112
 6641TIP3    H141414   2.736   5.262   2.409  2.4454 -1.3062  1.3899
 6641TIP3    H241415   2.760   5.169   2.291 -0.0986  0.4458 -0.6375
 6642TIP3   OH241416   3.214   6.003  10.847 -0.4085 -0.2266 -0.4701
 6642TIP3    H141417   3.256   6.079  10.807  2.6396 -2.3382 -1.6073
 6642TIP3    H241418   3.200   6.029  10.938 -0.6571  2.1096 -1.1181
 6643TIP3   OH241419   6.609   0.075  14.208 -0.0627  0.5068  0.3104
 6643TIP3    H141420   6.692   0.118  14.186 -0.8826  0.8686 -2.3733
 6643TIP3    H241421   6.543   0.122  14.158 -1.3265 -2.3653 -0.9753
 6644TIP3   OH241422   1.115   3.292  12.068 -0.1211 -0.0261 -0.1424
 6644TIP3    H141423   1.159   3.299  12.153 -0.2788  0.7413 -0.1214
 6644TIP3    H241424   1.185   3.270  12.007 -0.0255 -0.7050  0.1972
 6645TIP3   OH241425   2.841   3.297  16.621  0.1006  0.6010  0.7681
 6645TIP3    H141426   2.920   3.244  16.627 -0.7784 -0.9640 -0.5575
 6645TIP3    H241427   2.873   3.386  16.605  1.5844  0.1304  0.9805
 6646TIP3   OH241428   3.418   1.072  12.403  0.4109  0.0760 -0.3179
 6646TIP3    H141429   3.424   1.095  12.496  0.4750  0.2810 -0.3733
 6646TIP3    H241430   3.333   1.108  12.375  0.8315  0.8776 -0.5827
 6647TIP3   OH241431   2.185   4.178   1.877  0.0134  0.4540 -0.8219
 6647TIP3    H141432   2.159   4.135   1.796  0.7109 -1.5120 -0.0483
 6647TIP3    H241433   2.280   4.171   1.880 -0.0195  0.2322  0.2982
 6648TIP3   OH241434   1.483   3.616   5.399  0.0529 -0.4508 -0.0901
 6648TIP3    H141435   1.568   3.659   5.384 -0.4536  0.2910 -0.9226
 6648TIP3    H241436   1.475   3.611   5.495  0.3520  0.8812  0.0200
 6649TIP3   OH241437   4.908   0.770   6.431  0.1431 -0.4707 -0.1280
 6649TIP3    H141438   4.838   0.739   6.488 -0.2613 -0.2551 -0.4966
 6649TIP3    H241439   4.900   0.866   6.433  0.7840 -0.4142  0.2652
 6650TIP3   OH241440   4.683   3.298   2.425  0.3142 -0.3590  0.2840
 6650TIP3    H141441   4.751   3.299   2.357  0.9885 -0.3525  0.9383
 6650TIP3    H241442   4.699   3.217   2.474 -1.5404 -1.5003 -0.8928
 6651TIP3   OH241443   6.106   1.982   1.002  0.3053  0.2191 -0.0738
 6651TIP3    H141444   6.013   1.997   1.017  0.5052  0.5801  0.9341
 6651TIP3    H241445   6.122   2.010   0.912 -0.4780  0.5318 -0.1149
 6652TIP3   OH241446   3.462   0.822   1.268 -0.6194  1.0563  0.3527
 6652TIP3    H141447   3.390   0.833   1.329  0.1767  0.2278  1.4923
 6652TIP3    H241448   3.539   0.854   1.316 -0.2364  2.0806 -0.8952
 6653TIP3   OH241449   5.358   2.126  16.240 -0.1373  0.0189 -0.6467
 6653TIP3    H141450   5.342   2.049  16.187  1.4703 -0.2863 -0.7406
 6653TIP3    H241451   5.334   2.200  16.183  0.7260 -0.3350 -1.5041
 6654TIP3   OH241452   2.091   5.762  14.079  0.5475 -0.0052 -0.0975
 6654TIP3    H141453   2.068   5.673  14.107 -1.0064  0.1234 -0.8835
 6654TIP3    H241454   2.055   5.770  13.991 -1.5977  2.2170  0.8715
 6655TIP3   OH241455   6.347   1.378  15.346 -0.1237 -0.2741 -0.6275
 6655TIP3    H141456   6.353   1.306  15.283 -0.8828  0.4430 -1.5540
 6655TIP3    H241457   6.277   1.352  15.406  0.2304 -0.7128 -0.3981
 6656TIP3   OH241458   6.171   1.135   0.863 -0.0770  0.0383 -0.3258
 6656TIP3    H141459   6.227   1.143   0.786  0.6217 -0.8704  0.0661
 6656TIP3    H241460   6.153   1.042   0.870 -0.5803  0.1783  0.2971
 6657TIP3   OH241461   5.883   0.940   6.287  0.6272  0.2800 -0.5374
 6657TIP3    H141462   5.871   0.845   6.286  0.9795  0.2196  0.1982
 6657TIP3    H241463   5.802   0.974   6.326  0.7206  0.2385 -0.3041
 6658TIP3   OH241464   4.048   5.020   3.560 -0.3887  0.2477 -0.2737
 6658TIP3    H141465   4.115   5.007   3.626 -2.8647 -1.1074  2.1791
 6658TIP3    H241466   4.084   4.980   3.481  2.3976  1.3115  0.3265
 6659TIP3   OH241467   5.859   2.104   5.229 -0.0718 -0.5433 -0.0966
 6659TIP3    H141468   5.937   2.064   5.191  0.9769  1.1297  0.1623
 6659TIP3    H241469   5.840   2.178   5.171 -1.2524 -0.7047  0.0564
 6660TIP3   OH241470   0.893   1.642  16.164  0.2781  0.3183 -0.2639
 6660TIP3    H141471   0.958   1.598  16.219  0.3061 -3.6198 -3.0626
 6660TIP3    H241472   0.942   1.668  16.086 -0.3936  2.9120  0.0868
 6661TIP3   OH241473   2.383   3.602   4.312 -0.1149 -0.1797 -0.7552
 6661TIP3    H141474   2.343   3.528   4.265 -1.9132  0.6501 -0.6066
 6661TIP3    H241475   2.339   3.679   4.276 -1.8336  0.4915  2.4269
 6662TIP3   OH241476   3.558   1.646   3.211  0.0325  0.0338 -0.3403
 6662TIP3    H141477   3.619   1.681   3.276  0.7063 -0.8399 -0.4875
 6662TIP3    H241478   3.526   1.564   3.249 -0.8154  0.3141 -0.4122
 6663TIP3   OH241479   5.550   2.582  11.447  0.0666 -0.1185  0.1040
 6663TIP3    H141480   5.464   2.568  11.484  0.5722 -0.5140  1.1624
 6663TIP3    H241481   5.611   2.563  11.518  1.0078  0.8881 -0.3902
 6664TIP3   OH241482   2.349   3.482  11.862 -0.3323 -0.4950 -0.2099
 6664TIP3    H141483   2.381   3.572  11.867 -0.5657 -0.3571 -1.0945
 6664TIP3    H241484   2.337   3.456  11.953  0.8339 -0.0259  0.1044
 6665TIP3   OH241485   1.108   5.031  11.388  0.1169 -0.1070  0.6980
 6665TIP3    H141486   1.183   5.082  11.418 -0.4917  1.1491  0.1659
 6665TIP3    H241487   1.034   5.092  11.394 -0.9313 -1.4061  1.4928
 6666TIP3   OH241488   5.605   3.324   5.740 -0.5738 -0.4518 -0.4277
 6666TIP3    H141489   5.611   3.417   5.760 -0.6144 -0.2461 -1.3275
 6666TIP3    H241490   5.586   3.320   5.646 -1.4027 -1.3517 -0.2468
 6667TIP3   OH241491   3.996   6.185  13.416  0.4655 -0.1690 -0.6253
 6667TIP3    H141492   4.033   6.100  13.392 -0.2412 -0.6431 -0.0692
 6667TIP3    H241493   4.002   6.188  13.511 -0.3957 -0.0138 -0.5691
 6668TIP3   OH241494   6.465   4.135   1.192 -0.5492  0.4729 -0.0786
 6668TIP3    H141495   6.435   4.226   1.203 -0.5928  0.5923 -1.0995
 6668TIP3    H241496   6.528   4.122   1.263 -1.4611  0.8952  0.8390
 6669TIP3   OH241497   0.051   2.735  10.739 -0.1259  0.2382  0.0935
 6669TIP3    H141498  -0.017   2.796  10.708 -0.9975 -0.1804  1.1165
 6669TIP3    H241499   0.003   2.669  10.789  1.2255  1.5132  3.3952
 6670TIP3   OH241500   1.390   6.206  11.882  0.1652 -0.4563  0.1462
 6670TIP3    H141501   1.464   6.216  11.822  0.5628 -1.9636  0.3607
 6670TIP3    H241502   1.403   6.275  11.947  0.2371  0.6039 -0.9382
 6671TIP3   OH241503   3.345   4.490   5.141  0.0463  0.0709  0.2822
 6671TIP3    H141504   3.366   4.509   5.050 -0.9894 -0.7399 -0.1431
 6671TIP3    H241505   3.344   4.394   5.146 -0.3427  0.1079  1.0370
 6672TIP3   OH241506   1.859   6.804   3.241 -0.2321  0.4848 -0.3794
 6672TIP3    H141507   1.882   6.845   3.324  0.8631  1.2283 -1.0312
 6672TIP3    H241508   1.769   6.773   3.254 -0.3038  1.1430  0.8634
 6673TIP3   OH241509   2.788   3.875  11.911  0.6564  0.2132 -0.3930
 6673TIP3    H141510   2.805   3.949  11.853  0.2490 -0.0465 -0.8654
 6673TIP3    H241511   2.852   3.809  11.885  1.3452  0.5750  0.3685
 6674TIP3   OH241512   1.128   2.142   1.478 -0.2034 -0.5760 -0.3061
 6674TIP3    H141513   1.206   2.090   1.457 -0.5663 -1.5876  0.7473
 6674TIP3    H241514   1.106   2.117   1.568 -0.7197  1.0122  0.0409
 6675TIP3   OH241515   6.393   3.802   5.806 -0.1229  0.0179  0.1671
 6675TIP3    H141516   6.410   3.890   5.772 -1.1499  0.5584  1.0036
 6675TIP3    H241517   6.479   3.769   5.831  0.1034  1.4773  1.4574
 6676TIP3   OH241518   1.301   0.054  16.429 -0.2947  0.6387  0.2936
 6676TIP3    H141519   1.305   0.074  16.335  2.0082  0.9588  0.4002
 6676TIP3    H241520   1.351  -0.027  16.438 -0.8310  0.4014  1.1935
 6677TIP3   OH241521   5.394   3.475   5.449 -0.5532  0.8970 -0.1204
 6677TIP3    H141522   5.380   3.474   5.544  0.1260 -0.0158 -0.0143
 6677TIP3    H241523   5.380   3.566   5.424  1.7808  1.7491  1.2766
 6678TIP3   OH241524   0.235   1.288  16.582  0.0827  0.1281  0.5333
 6678TIP3    H141525   0.145   1.269  16.556  0.3940  0.4669 -0.8813
 6678TIP3    H241526   0.239   1.383  16.590  0.5732  0.2068 -0.4995
 6679TIP3   OH241527   3.108   1.357   1.970 -0.0356 -0.2659  0.7485
 6679TIP3    H141528   3.093   1.322   1.882  1.2857  1.4351 -0.2030
 6679TIP3    H241529   3.037   1.419   1.983 -0.1404 -0.4013  0.8280
 6680TIP3   OH241530   2.592   1.672  11.906 -0.0234  0.2030  0.1891
 6680TIP3    H141531   2.678   1.712  11.893  0.8345 -1.9227 -1.2796
 6680TIP3    H241532   2.532   1.726  11.856  0.8907  0.3453 -0.7785
 6681TIP3   OH241533   0.804   6.590  16.126 -0.0584  0.5046  0.1473
 6681TIP3    H141534   0.808   6.581  16.031  0.0553  3.0283 -0.1448
 6681TIP3    H241535   0.878   6.538  16.157 -0.4237 -0.8185 -1.0689
 6682TIP3   OH241536   0.691   2.106  14.162 -0.7502  0.2513  0.0314
 6682TIP3    H141537   0.718   2.015  14.174  0.6441  0.5291 -0.8429
 6682TIP3    H241538   0.727   2.131  14.077 -2.8772  1.0008 -0.7160
 6683TIP3   OH241539   2.642   0.897   4.057  0.0907 -0.0182  0.2287
 6683TIP3    H141540   2.728   0.935   4.040  0.3386 -0.8637 -0.4836
 6683TIP3    H241541   2.580   0.967   4.036  0.6161  0.8618  1.5186
 6684TIP3   OH241542   0.262   0.958   0.974  0.7095 -0.0935 -0.4267
 6684TIP3    H141543   0.198   1.028   0.958 -0.2513 -0.1271  2.6389
 6684TIP3    H241544   0.211   0.877   0.968  1.1494 -0.3410 -0.9151
 6685TIP3   OH241545   1.646   5.919  12.615 -0.3819  0.2907 -0.4147
 6685TIP3    H141546   1.642   6.010  12.644 -1.3759  0.2343 -0.3629
 6685TIP3    H241547   1.576   5.910  12.550 -0.6227 -0.5630 -0.0543
 6686TIP3   OH241548   1.396   4.852  16.914  0.9577 -0.2420 -0.3512
 6686TIP3    H141549   1.473   4.806  16.950  1.6397  0.6772 -0.6127
 6686TIP3    H241550   1.347   4.879  16.992  0.4740 -1.5099 -0.1917
 6687TIP3   OH241551   2.941   1.448  14.894  0.1308 -0.2839  0.3468
 6687TIP3    H141552   2.874   1.459  14.962  0.7390 -1.1504  1.1022
 6687TIP3    H241553   2.935   1.528  14.842  0.0867  0.6964  1.8029
 6688TIP3   OH241554   2.993   2.195  15.950 -0.0026 -0.4231  0.5256
 6688TIP3    H141555   2.902   2.218  15.970 -0.6875 -1.1817 -1.4711
 6688TIP3    H241556   3.015   2.129  16.016 -0.3018  0.9060  2.0371
 6689TIP3   OH241557   0.721   4.528   4.945  0.2713 -0.4495  0.5077
 6689TIP3    H141558   0.776   4.564   4.876  1.0216 -1.0905  0.7612
 6689TIP3    H241559   0.750   4.572   5.025  1.8431 -2.2170  0.9815
 6690TIP3   OH241560   1.592   6.521  12.257  0.2475  0.1240 -0.5586
 6690TIP3    H141561   1.591   6.611  12.290  0.2293  0.0768 -0.4280
 6690TIP3    H241562   1.684   6.494  12.267  0.1755 -0.0019 -0.2370
 6691TIP3   OH241563   1.178   6.131   0.424 -0.9781  0.2987 -0.1002
 6691TIP3    H141564   1.225   6.162   0.346 -2.1058 -0.0863 -0.9590
 6691TIP3    H241565   1.241   6.141   0.495  0.4894 -0.3884 -1.2395
 6692TIP3   OH241566   2.107   0.604   1.014  0.7284  0.2502  0.5829
 6692TIP3    H141567   2.030   0.599   0.957  0.5390  1.8058  0.6507
 6692TIP3    H241568   2.098   0.530   1.073  0.3393 -0.7473 -0.6831
 6693TIP3   OH241569   5.618   2.272   1.577  0.1783  0.0386  0.6878
 6693TIP3    H141570   5.560   2.199   1.558 -0.2318  0.2284  1.1825
 6693TIP3    H241571   5.561   2.338   1.617  0.2840  1.1145 -0.8298
 6694TIP3   OH241572   2.221   5.239   3.773  0.3967 -0.5842  0.2407
 6694TIP3    H141573   2.291   5.194   3.819 -0.0637 -0.1236  1.4295
 6694TIP3    H241574   2.262   5.274   3.695  1.7921  0.7042  1.4953
 6695TIP3   OH241575   6.184   3.536   1.980 -0.2914 -0.6551  0.4006
 6695TIP3    H141576   6.265   3.498   1.946 -0.5453  0.2657 -1.3412
 6695TIP3    H241577   6.115   3.491   1.931 -0.7755 -0.6448  1.0755
 6696TIP3   OH241578   6.429   0.875  16.875 -0.2484 -0.7397 -0.3145
 6696TIP3    H141579   6.342   0.884  16.836 -0.3894 -0.9420 -0.0488
 6696TIP3    H241580   6.413   0.865  16.968  0.1158  0.3016 -0.1295
 6697TIP3   OH241581   5.197   6.403  12.781  0.2471  0.6993  0.4488
 6697TIP3    H141582   5.278   6.353  12.766 -0.2290 -0.2385  0.8979
 6697TIP3    H241583   5.146   6.391  12.701 -0.7783 -1.3688  1.3190
 6698TIP3   OH241584   5.196   4.077  16.367  0.0616  0.4648  0.6570
 6698TIP3    H141585   5.224   4.155  16.320  1.7190  0.6328  1.8326
 6698TIP3    H241586   5.138   4.031  16.306  0.4881  1.7010 -0.7312
 6699TIP3   OH241587   5.273   6.323  12.075  0.3003 -0.3589  0.5789
 6699TIP3    H141588   5.247   6.409  12.108 -0.0285 -0.3064  0.1873
 6699TIP3    H241589   5.367   6.318  12.093  0.1161 -0.3677  1.5906
 6700TIP3   OH241590   5.042   1.135  16.070  0.5258  0.1084 -0.2064
 6700TIP3    H141591   5.097   1.132  16.148  0.5640 -3.0424 -0.2414
 6700TIP3    H241592   4.962   1.180  16.099  1.3674  0.8644  1.0338
 6701TIP3   OH241593   3.227   1.385   1.355  0.3729  0.1805 -0.2594
 6701TIP3    H141594   3.131   1.395   1.354  0.3279  1.3114  2.8391
 6701TIP3    H241595   3.248   1.342   1.273 -2.9787 -1.6259 -0.3483
 6702TIP3   OH241596   1.083   3.032   2.001 -0.4145  0.0428  0.2360
 6702TIP3    H141597   0.990   3.027   1.981 -0.4185  1.8916 -0.3522
 6702TIP3    H241598   1.126   2.985   1.930 -0.8698 -0.5171  0.3242
 6703TIP3   OH241599   4.883   6.607  10.809 -0.4144  0.7103  0.1748
 6703TIP3    H141600   4.975   6.587  10.829 -1.1386 -3.1149  0.3864
 6703TIP3    H241601   4.888   6.656  10.727  1.8354 -1.2006 -0.9810
 6704TIP3   OH241602   1.913   0.285   6.159  0.0273 -0.0968 -0.0345
 6704TIP3    H141603   1.888   0.362   6.109  2.8319  1.0785  0.2088
 6704TIP3    H241604   2.001   0.304   6.191  0.5244 -3.0781  0.7146
 6705TIP3   OH241605   1.941   1.796  16.463 -0.0414  0.7100 -0.0969
 6705TIP3    H141606   1.952   1.861  16.532 -1.3095  1.7295 -0.8205
 6705TIP3    H241607   1.925   1.714  16.510  1.3091  0.9436  0.8225
 6706TIP3   OH241608   0.722   5.379   1.291  0.1191 -0.0454 -0.2263
 6706TIP3    H141609   0.806   5.376   1.244 -0.7640 -1.3971 -1.8137
 6706TIP3    H241610   0.657   5.395   1.223 -0.7604  4.3172  1.3244
 6707TIP3   OH241611   0.099   0.624   4.997 -0.4223  0.4239 -0.1340
 6707TIP3    H141612   0.047   0.568   4.940  1.4563 -1.2252 -0.3423
 6707TIP3    H241613   0.169   0.658   4.940 -0.2254  1.1458  0.5193
 6708TIP3   OH241614   6.615   1.755   3.020  0.3861 -0.2586 -0.2262
 6708TIP3    H141615   6.665   1.805   3.083  0.6669 -0.6288 -0.1511
 6708TIP3    H241616   6.613   1.666   3.056 -0.7034 -0.1546 -0.0034
 6709TIP3   OH241617   2.691   2.909  13.170 -0.0411  0.3231  0.3904
 6709TIP3    H141618   2.620   2.875  13.224 -0.0450 -0.3581 -0.0401
 6709TIP3    H241619   2.689   3.004  13.185 -1.3860  0.3783 -0.0381
 6710TIP3   OH241620   2.843   3.176   4.589  0.6253 -0.0748 -0.0146
 6710TIP3    H141621   2.898   3.249   4.560  1.1972 -0.2372  0.6325
 6710TIP3    H241622   2.777   3.217   4.645  1.4611 -0.1343  1.0481
 6711TIP3   OH241623   4.476   5.143   1.731 -0.4035 -0.2386 -0.0784
 6711TIP3    H141624   4.444   5.082   1.663 -1.9277  2.4409 -1.9605
 6711TIP3    H241625   4.499   5.086   1.804 -3.5216 -2.9881 -0.9563
 6712TIP3   OH241626   3.067   1.214  16.896  0.4734  0.0264  0.7395
 6712TIP3    H141627   3.090   1.256  16.814  1.1290 -0.0133  0.8977
 6712TIP3    H241628   3.149   1.211  16.945  0.2044 -0.4498  1.1698
 6713TIP3   OH241629   3.971   5.509   1.276 -0.0605  0.3389  0.2991
 6713TIP3    H141630   3.990   5.428   1.229 -0.0672  1.1541 -1.1670
 6713TIP3    H241631   4.057   5.551   1.286 -0.2194  0.8427 -0.3144
 6714TIP3   OH241632   0.150   1.842  12.820  0.0670  0.2503 -0.5932
 6714TIP3    H141633   0.119   1.752  12.807  0.4714  0.2663 -1.7698
 6714TIP3    H241634   0.070   1.893  12.836 -0.2660 -0.1510 -0.9590
 6715TIP3   OH241635   1.250   5.511   1.822 -0.3996 -0.3998 -0.0134
 6715TIP3    H141636   1.293   5.444   1.876  0.7091 -2.6558 -3.3140
 6715TIP3    H241637   1.157   5.496   1.834 -0.3480  1.0595  3.2327
 6716TIP3   OH241638   3.011   1.096  15.241  0.1203  0.3839 -0.3985
 6716TIP3    H141639   3.098   1.100  15.280  0.4894 -1.8427 -0.8325
 6716TIP3    H241640   3.027   1.074  15.149 -0.8683  1.3037 -0.8132
 6717TIP3   OH241641   2.772   2.326  12.675  0.4315 -0.4519 -0.1358
 6717TIP3    H141642   2.702   2.308  12.613  1.7748 -0.8377 -1.5956
 6717TIP3    H241643   2.801   2.240  12.704 -0.1211 -0.2785  1.0033
 6718TIP3   OH241644   5.677   3.266   4.078 -0.4173 -0.4803 -0.2106
 6718TIP3    H141645   5.668   3.186   4.026 -1.3786 -0.9840  0.7074
 6718TIP3    H241646   5.611   3.258   4.147  0.6384  0.3025  0.9375
 6719TIP3   OH241647   3.716   3.708  17.082 -0.2124  0.0024  0.6307
 6719TIP3    H141648   3.751   3.619  17.083 -1.8560 -0.6983  2.5194
 6719TIP3    H241649   3.622   3.697  17.094 -0.5382  1.9762  0.2145
 6720TIP3   OH241650   4.636   2.777  15.680 -0.5362 -0.0439  0.3429
 6720TIP3    H141651   4.673   2.840  15.618 -0.1685  0.0681  0.6784
 6720TIP3    H241652   4.548   2.811  15.699 -0.6916 -0.1318 -0.1874
 6721TIP3   OH241653   3.478   0.834   2.927 -1.0182  0.4913  0.3652
 6721TIP3    H141654   3.481   0.837   2.832 -0.0199  1.9633  0.3972
 6721TIP3    H241655   3.552   0.889   2.955 -0.0452 -1.5132  1.9915
 6722TIP3   OH241656   5.502   5.034  16.670  0.3036 -0.1748 -0.2767
 6722TIP3    H141657   5.513   5.085  16.750  1.6926 -0.8215 -0.0368
 6722TIP3    H241658   5.418   5.064  16.634 -0.3041  0.1901  1.3541
 6723TIP3   OH241659   3.687   3.880  13.365  0.1107 -0.4281  0.4826
 6723TIP3    H141660   3.642   3.828  13.430  2.5739 -0.0882  2.6343
 6723TIP3    H241661   3.708   3.818  13.295 -1.7131 -1.0281  0.4128
 6724TIP3   OH241662   6.617   1.364  16.352 -0.2755  0.4004  0.1548
 6724TIP3    H141663   6.572   1.294  16.400 -0.4994 -0.6657 -1.5113
 6724TIP3    H241664   6.563   1.442  16.367 -0.8171 -0.1032  0.8987
 6725TIP3   OH241665   6.015   5.347   0.644  0.1326  0.1986 -0.0948
 6725TIP3    H141666   6.069   5.337   0.566  0.8992  1.2700  0.2717
 6725TIP3    H241667   6.078   5.350   0.716 -0.5913 -1.2286  0.6254
 6726TIP3   OH241668   4.224   1.141  16.295 -0.4322  0.3803 -0.2439
 6726TIP3    H141669   4.172   1.122  16.373  0.5569  1.0935  0.6174
 6726TIP3    H241670   4.182   1.091  16.225 -1.0804 -0.6294  0.8327
 6727TIP3   OH241671   6.437   0.844   1.921  0.0090 -0.3985  0.0252
 6727TIP3    H141672   6.440   0.754   1.888  0.4138  0.0744 -1.2738
 6727TIP3    H241673   6.395   0.894   1.852 -0.9945  0.2975  1.0909
 6728TIP3   OH241674   4.041   5.957   4.588 -0.3933 -0.2052 -0.0667
 6728TIP3    H141675   4.070   5.866   4.584 -0.4090 -0.1769 -0.9113
 6728TIP3    H241676   4.011   5.969   4.679 -0.4561 -1.0545  0.0277
 6729TIP3   OH241677   2.270   3.949   3.319  0.1729 -0.1132  0.1249
 6729TIP3    H141678   2.257   3.936   3.413  2.0056  1.2606  0.6350
 6729TIP3    H241679   2.290   3.862   3.285 -2.7237 -1.0439  0.5215
 6730TIP3   OH241680   2.800   3.630  14.854 -0.1072 -0.2319 -0.2255
 6730TIP3    H141681   2.799   3.718  14.891  1.5721 -0.5662  0.7686
 6730TIP3    H241682   2.772   3.641  14.763 -0.1887  1.2755 -0.0446
 6731TIP3   OH241683   5.831   5.002   4.065  0.0312  1.1023 -0.0869
 6731TIP3    H141684   5.742   5.028   4.042 -0.4519 -0.1125  0.3422
 6731TIP3    H241685   5.831   4.999   4.161  0.2944  0.2916 -0.1091
 6732TIP3   OH241686   3.387   2.406   2.753 -0.2340 -0.3476  0.3892
 6732TIP3    H141687   3.327   2.419   2.827 -0.2550  0.8406  0.1820
 6732TIP3    H241688   3.445   2.482   2.756 -1.3309  0.6655 -1.8159
 6733TIP3   OH241689   0.001   4.640   3.417 -0.1933  0.3338  0.6600
 6733TIP3    H141690  -0.072   4.594   3.375  0.9281 -0.3243 -0.6587
 6733TIP3    H241691  -0.030   4.659   3.505 -1.5876 -0.8184  0.4605
 6734TIP3   OH241692   3.262   0.481  11.653 -0.4009  0.0791  0.1410
 6734TIP3    H141693   3.284   0.417  11.585 -1.0275  0.6084 -0.5756
 6734TIP3    H241694   3.306   0.448  11.732  0.5943 -0.3790 -0.5825
 6735TIP3   OH241695   3.190   1.189   4.848  0.1951  0.0416 -0.2129
 6735TIP3    H141696   3.128   1.196   4.920  1.2463  1.5630  0.5923
 6735TIP3    H241697   3.161   1.255   4.785 -0.4131 -0.9294 -0.9887
 6736TIP3   OH241698   2.925   1.928  11.402  0.3978 -0.1834 -0.2215
 6736TIP3    H141699   2.881   1.851  11.436 -0.3286  1.3267  2.5787
 6736TIP3    H241700   3.018   1.905  11.404  0.0771 -2.3552 -3.4317
 6737TIP3   OH241701   5.208   3.745   2.744 -0.5936 -0.1011 -0.1681
 6737TIP3    H141702   5.171   3.832   2.758 -0.1856  0.4914 -2.4209
 6737TIP3    H241703   5.160   3.688   2.804 -2.2151  1.3492 -0.0280
 6738TIP3   OH241704   1.373   1.217   5.063  0.1126 -0.4633  0.8712
 6738TIP3    H141705   1.380   1.312   5.054  0.6907 -0.6123 -0.3755
 6738TIP3    H241706   1.374   1.202   5.158  1.3812  0.6846  1.0698
 6739TIP3   OH241707   3.862   2.731  16.096  0.6549 -0.5651 -0.8161
 6739TIP3    H141708   3.915   2.789  16.150  2.5503 -1.7784 -1.3143
 6739TIP3    H241709   3.801   2.690  16.158 -0.9987  2.0833 -0.4879
 6740TIP3   OH241710   4.831   1.504  13.977 -0.4132  0.2892  0.2416
 6740TIP3    H141711   4.887   1.431  13.952 -0.0836  0.9600 -1.0867
 6740TIP3    H241712   4.743   1.467  13.981 -0.2933 -0.1234 -0.7156
 6741TIP3   OH241713   4.969   5.540   3.788 -0.1451  0.4546  0.1876
 6741TIP3    H141714   4.993   5.627   3.756 -0.1306  0.4353  0.1468
 6741TIP3    H241715   5.017   5.479   3.732 -0.4645  0.4112 -0.0368
 6742TIP3   OH241716   0.486   5.069  11.325 -0.2175 -0.0951 -0.0307
 6742TIP3    H141717   0.396   5.057  11.296 -0.3545 -0.2135  0.4327
 6742TIP3    H241718   0.535   5.087  11.245 -0.6568 -0.0060 -0.2816
 6743TIP3   OH241719   4.594   4.015   5.508 -0.3984 -0.0641  0.0927
 6743TIP3    H141720   4.527   4.001   5.575 -0.9171 -1.3091 -0.6410
 6743TIP3    H241721   4.602   4.110   5.500 -1.4429  0.0935  0.8143
 6744TIP3   OH241722   2.095   3.091   0.673  0.0685  0.3600 -0.0167
 6744TIP3    H141723   2.042   3.051   0.604 -0.4539  0.1294  0.5195
 6744TIP3    H241724   2.085   3.034   0.749  0.3230  0.8262  0.3752
 6745TIP3   OH241725   2.258   4.015  11.712  0.0164  0.0490 -0.1024
 6745TIP3    H141726   2.193   3.966  11.662 -0.0374 -1.0550  1.0091
 6745TIP3    H241727   2.320   4.047  11.646 -1.2944  0.6094 -1.1124
 6746TIP3   OH241728   5.174   0.035  15.345 -0.3260 -0.4413  0.5557
 6746TIP3    H141729   5.100   0.056  15.289  0.1609 -0.5369 -0.1340
 6746TIP3    H241730   5.223   0.117  15.352  1.2936 -1.1236 -1.7170
 6747TIP3   OH241731   2.799   1.888   1.956 -0.3218  0.2333  0.6181
 6747TIP3    H141732   2.791   1.907   1.862  1.5906 -1.7036 -0.0236
 6747TIP3    H241733   2.742   1.952   1.998  1.4477  3.5806 -1.6015
 6748TIP3   OH241734   2.489   3.491  11.403 -0.1362 -0.3465 -0.1071
 6748TIP3    H141735   2.582   3.482  11.384 -0.1183 -2.0842  0.6174
 6748TIP3    H241736   2.480   3.464  11.494 -1.5099 -1.6504 -0.5811
 6749TIP3   OH241737   4.338   5.884   1.285  0.6838 -0.3755  0.6069
 6749TIP3    H141738   4.377   5.907   1.201  1.2907 -0.8195  0.7603
 6749TIP3    H241739   4.278   5.957   1.304  0.2478 -0.4573 -0.3820
 6750TIP3   OH241740   3.564   6.298   5.179 -0.2597 -0.0287  0.3873
 6750TIP3    H141741   3.652   6.310   5.215 -0.5585  1.5377  0.6581
 6750TIP3    H241742   3.521   6.240   5.242 -0.0086  0.7228  1.2643
 6751TIP3   OH241743   3.807   3.792  11.382  0.0130 -0.3134  0.0799
 6751TIP3    H141744   3.854   3.773  11.300 -1.2336 -1.4601 -0.4018
 6751TIP3    H241745   3.718   3.812  11.354 -0.7418 -1.9107  1.2355
 6752TIP3   OH241746   5.739   6.336  15.711  0.4309  0.7073 -0.1112
 6752TIP3    H141747   5.677   6.278  15.666 -0.1281  0.8002  0.5284
 6752TIP3    H241748   5.687   6.380  15.777  0.9952  1.4728 -0.1682
 6753TIP3   OH241749   3.914   2.478  16.797  0.1555  0.1733 -0.0912
 6753TIP3    H141750   3.927   2.449  16.887  1.6966  1.8515  0.2922
 6753TIP3    H241751   3.981   2.544  16.783  1.0430 -1.1611 -3.0251
 6754TIP3   OH241752   1.891   0.669  16.691  0.1676 -0.0188 -0.0379
 6754TIP3    H141753   1.972   0.719  16.678 -0.7980  1.5930 -0.1111
 6754TIP3    H241754   1.910   0.611  16.765  1.7599 -0.5315 -0.8074
 6755TIP3   OH241755   5.473   2.049   1.486  0.3697 -0.8340  0.2304
 6755TIP3    H141756   5.448   1.967   1.528  2.1880 -0.7798  1.5756
 6755TIP3    H241757   5.420   2.053   1.406 -0.5379 -2.7705  0.6772
 6756TIP3   OH241758   3.359   2.948  11.111 -0.1718  0.4449  0.1021
 6756TIP3    H141759   3.286   2.921  11.055 -0.1266 -0.3816  0.4226
 6756TIP3    H241760   3.317   2.984  11.189 -0.2621 -1.0639  0.7750
 6757TIP3   OH241761   0.085   1.883  13.199  0.1587  0.0186 -0.2173
 6757TIP3    H141762   0.047   1.970  13.208 -0.3297 -0.1438 -0.6738
 6757TIP3    H241763   0.173   1.899  13.165  1.4694  0.5517  3.0152
 6758TIP3   OH241764   1.745   3.001   6.073  0.4634 -0.3721  0.5041
 6758TIP3    H141765   1.787   3.071   6.122 -0.3314  0.1327  0.4737
 6758TIP3    H241766   1.782   2.920   6.109  0.1879  0.0017  1.6479
 6759TIP3   OH241767   4.499   4.784   1.362  0.2136 -0.0125  0.3712
 6759TIP3    H141768   4.578   4.760   1.312 -1.7850 -1.6258 -2.3072
 6759TIP3    H241769   4.462   4.858   1.314  0.7738  1.7344  2.4844
 6760TIP3   OH241770   3.448   4.807   4.981  0.3718  0.0789 -0.3585
 6760TIP3    H141771   3.443   4.714   4.961  0.1711  0.0397 -0.1371
 6760TIP3    H241772   3.537   4.832   4.959 -0.1186  0.2733 -2.3005
 6761TIP3   OH241773   0.577   4.529  12.371  0.1233 -0.0297 -0.0969
 6761TIP3    H141774   0.521   4.598  12.335  0.5647  0.1173 -0.5112
 6761TIP3    H241775   0.547   4.518  12.461 -0.0766  0.5708 -0.0869
 6762TIP3   OH241776   4.300   3.985  14.701 -0.0630 -0.4330 -0.6251
 6762TIP3    H141777   4.382   4.016  14.662 -0.2726 -1.8087 -2.2535
 6762TIP3    H241778   4.290   4.039  14.780  3.3911 -1.4767  0.7239
 6763TIP3   OH241779   5.775   3.913   4.038  0.3041 -0.4674 -0.1644
 6763TIP3    H141780   5.717   3.846   4.003  0.7849 -0.2842 -1.3343
 6763TIP3    H241781   5.863   3.879   4.023  0.5720  0.6494 -1.2848
 6764TIP3   OH241782   0.680   2.236   0.400  0.1065 -0.2000  0.2255
 6764TIP3    H141783   0.728   2.278   0.471  0.4488  1.6125 -1.0247
 6764TIP3    H241784   0.678   2.143   0.425 -0.5776  0.4821  3.0133
 6765TIP3   OH241785   1.807   6.833   2.272  0.7404 -0.4513  0.0700
 6765TIP3    H141786   1.805   6.888   2.193  1.0153 -1.3692 -0.5963
 6765TIP3    H241787   1.900   6.825   2.293  0.6847 -0.4279  0.3263
 6766TIP3   OH241788   1.697   0.604  13.866  0.4555  0.3154 -0.1572
 6766TIP3    H141789   1.638   0.529  13.869  2.0497 -0.9913 -0.2784
 6766TIP3    H241790   1.755   0.592  13.941  0.5439  1.6140  0.0035
 6767TIP3   OH241791   5.121   3.751   1.046  0.1304 -0.2774  0.1370
 6767TIP3    H141792   5.109   3.729   0.954  0.8982 -1.5966  0.3145
 6767TIP3    H241793   5.060   3.693   1.093  3.1362 -3.3548  0.7078
 6768TIP3   OH241794   2.070   4.301   3.608 -0.5589 -0.0013  0.2621
 6768TIP3    H141795   1.995   4.246   3.630 -0.7393 -0.3538 -1.1366
 6768TIP3    H241796   2.108   4.259   3.530  0.1672  1.0321  0.0459
 6769TIP3   OH241797   2.776   0.655   5.646 -0.3107  0.1046  0.0783
 6769TIP3    H141798   2.831   0.599   5.700  0.7862 -0.5548 -1.6427
 6769TIP3    H241799   2.828   0.735   5.633  0.4216 -0.6205 -1.7632
 6770TIP3   OH241800   3.755   4.950  12.965 -0.7857  0.0732 -0.3636
 6770TIP3    H141801   3.796   4.901  13.036 -1.2052  1.8005  1.1297
 6770TIP3    H241802   3.707   4.884  12.915  1.2135 -1.5061 -0.3183
 6771TIP3   OH241803   5.228   0.913   0.416  0.1073  0.3617 -0.1743
 6771TIP3    H141804   5.278   0.995   0.412 -1.4358  1.2866 -1.5235
 6771TIP3    H241805   5.156   0.932   0.476  0.6768 -0.5825  0.8390
 6772TIP3   OH241806   6.258   0.667  12.100  0.3348  0.3703  0.7978
 6772TIP3    H141807   6.217   0.740  12.146 -1.6690 -0.8184  1.0208
 6772TIP3    H241808   6.251   0.594  12.161  0.6961 -0.4379 -0.1011
 6773TIP3   OH241809   6.361   1.324  11.151  0.3121  0.2045  0.0766
 6773TIP3    H141810   6.297   1.279  11.096 -0.2267  1.0567 -0.0122
 6773TIP3    H241811   6.338   1.417  11.143 -0.7683  0.2684  2.9583
 6774TIP3   OH241812   3.746   0.404   5.712 -0.3268  0.0794 -0.2228
 6774TIP3    H141813   3.653   0.407   5.693  0.0624 -2.5344 -3.6135
 6774TIP3    H241814   3.752   0.380   5.804 -3.0098 -0.0385 -0.0147
 6775TIP3   OH241815   2.668   2.203  16.388  0.0957 -0.1944 -0.2454
 6775TIP3    H141816   2.606   2.133  16.409  0.2271 -0.1679  0.2389
 6775TIP3    H241817   2.700   2.233  16.473  0.4496  0.0841 -0.4746
 6776TIP3   OH241818   3.609   6.458  15.008 -0.5710  0.2047  0.5079
 6776TIP3    H141819   3.559   6.445  14.928 -0.8683  2.3974  0.2836
 6776TIP3    H241820   3.578   6.541  15.043  1.5613  0.7038  1.3876
 6777TIP3   OH241821   3.591   4.636   2.247 -0.0367  0.0656 -0.2134
 6777TIP3    H141822   3.634   4.684   2.175 -1.4745 -0.6845 -1.6381
 6777TIP3    H241823   3.664   4.600   2.298  1.0390  0.7477 -1.1963
 6778TIP3   OH241824   5.633   4.591   4.393  0.2305  0.4941  0.1491
 6778TIP3    H141825   5.664   4.675   4.426 -2.6616  0.6592  2.9128
 6778TIP3    H241826   5.655   4.529   4.461  1.0432 -0.7830 -1.2196
 6779TIP3   OH241827   2.820   2.919   0.344 -0.0827 -0.0045  0.7014
 6779TIP3    H141828   2.914   2.917   0.363  0.1089  0.9821 -0.0250
 6779TIP3    H241829   2.787   2.993   0.395 -0.1940  0.5142 -0.0976
 6780TIP3   OH241830   2.214   1.749   0.665  0.2789 -0.4284  0.5820
 6780TIP3    H141831   2.127   1.736   0.628  0.5447 -0.8155  0.0854
 6780TIP3    H241832   2.274   1.739   0.591  0.6471  1.6740  0.5358
 6781TIP3   OH241833   0.653   1.339  10.836 -0.1122  0.3776  0.2459
 6781TIP3    H141834   0.626   1.248  10.853 -0.5912  0.4302 -0.2103
 6781TIP3    H241835   0.593   1.370  10.769  1.9393  0.0487 -1.8865
 6782TIP3   OH241836   2.313   4.146   4.448 -0.6538  0.2583  0.4376
 6782TIP3    H141837   2.357   4.228   4.472  1.1633 -0.7976  0.9039
 6782TIP3    H241838   2.270   4.117   4.529 -1.4513  0.8084  0.2263
 6783TIP3   OH241839   6.709   3.889  13.780 -0.3712 -0.3664 -0.5455
 6783TIP3    H141840   6.678   3.882  13.871 -0.4024 -2.5305 -0.6639
 6783TIP3    H241841   6.632   3.866  13.727 -0.0927 -0.0815 -1.0731
 6784TIP3   OH241842   3.692   0.365   6.389 -0.1560 -0.0450  0.3237
 6784TIP3    H141843   3.709   0.295   6.452  0.3989 -0.3851 -0.1911
 6784TIP3    H241844   3.660   0.319   6.311  0.1078  0.2792  0.0184
 6785TIP3   OH241845   1.826   5.015  13.543  0.0126  0.6422 -1.0414
 6785TIP3    H141846   1.787   5.030  13.457  1.1033 -0.5395 -1.7807
 6785TIP3    H241847   1.852   4.923  13.541 -1.2610  0.1755  1.1210
 6786TIP3   OH241848   6.149   3.009  13.529  0.2346 -0.0649 -0.3968
 6786TIP3    H141849   6.054   3.009  13.544  0.0242 -1.1835 -1.5297
 6786TIP3    H241850   6.169   3.098  13.500 -0.4096  0.2660  0.1500
 6787TIP3   OH241851   4.516   6.568  13.766  0.2636 -0.7407 -0.3111
 6787TIP3    H141852   4.520   6.524  13.681  0.9405  0.8224 -1.1324
 6787TIP3    H241853   4.557   6.653  13.750 -1.6526  0.5042  1.0066
 6788TIP3   OH241854   0.298   4.871  11.271  0.7075  0.0489 -0.4689
 6788TIP3    H141855   0.246   4.793  11.251 -0.2237  0.2856  0.8538
 6788TIP3    H241856   0.323   4.861  11.363 -0.6674  1.9560  0.1867
 6789TIP3   OH241857   1.194   2.175   6.059  0.1676  0.0865 -0.1458
 6789TIP3    H141858   1.206   2.262   6.022 -1.3251  2.0275  3.4485
 6789TIP3    H241859   1.282   2.144   6.079  0.6688  1.0245 -0.8304
 6790TIP3   OH241860   5.576   2.579  16.456 -0.0384 -0.0426 -0.1103
 6790TIP3    H141861   5.604   2.554  16.368  2.0643 -0.8156  0.7203
 6790TIP3    H241862   5.567   2.496  16.503  0.4089  0.4243  0.8323
 6791TIP3   OH241863   4.290   0.989  11.402  0.2836  0.0475 -0.5116
 6791TIP3    H141864   4.197   0.972  11.418 -0.2691  0.5114 -2.8672
 6791TIP3    H241865   4.326   1.007  11.489 -1.7845 -0.2693  0.4830
 6792TIP3   OH241866   6.114   5.413  12.130  0.0353 -0.3365  0.1058
 6792TIP3    H141867   6.122   5.318  12.120 -1.1244 -0.7726  2.6125
 6792TIP3    H241868   6.044   5.437  12.071  1.0877 -0.8168 -1.4005
 6793TIP3   OH241869   5.737   1.324   0.486  0.1699  0.0879  0.1950
 6793TIP3    H141870   5.753   1.237   0.449  0.2349  1.1244 -2.4831
 6793TIP3    H241871   5.798   1.331   0.559  0.4239 -1.9688  0.2306
 6794TIP3   OH241872   6.177   1.271   5.417 -0.4268 -0.1387  0.1917
 6794TIP3    H141873   6.169   1.176   5.407 -1.0023 -0.0598 -0.1234
 6794TIP3    H241874   6.193   1.303   5.328 -0.9185  0.1207  0.1918
 6795TIP3   OH241875   2.664   6.272  16.677 -0.2435 -0.4965 -0.3981
 6795TIP3    H141876   2.646   6.178  16.680 -0.2249 -0.4828  1.2281
 6795TIP3    H241877   2.595   6.311  16.731  0.8849  0.2189  0.5683
 6796TIP3   OH241878   0.480   6.794  12.161  0.1731  0.0031 -0.3793
 6796TIP3    H141879   0.387   6.794  12.186  0.7577  2.7167  2.3927
 6796TIP3    H241880   0.481   6.754  12.074 -3.3627 -1.5226  0.1072
 6797TIP3   OH241881   3.127   4.236   3.606  0.2679  0.0211 -0.3664
 6797TIP3    H141882   3.060   4.263   3.669 -0.7185 -2.3779 -0.2830
 6797TIP3    H241883   3.146   4.316   3.555  0.8489  1.9585  2.6427
 6798TIP3   OH241884   4.459   5.387  16.949  0.1809 -0.4066  0.4039
 6798TIP3    H141885   4.465   5.467  17.001 -0.5504  0.0858 -0.2434
 6798TIP3    H241886   4.549   5.353  16.946  0.7094  0.9631 -0.1960
 6799TIP3   OH241887   2.746   2.628   3.409 -0.3403 -0.5448 -0.2239
 6799TIP3    H141888   2.689   2.563   3.368 -0.3914  0.1817 -1.3605
 6799TIP3    H241889   2.826   2.579   3.430 -0.9091 -1.2855  0.2613
 6800TIP3   OH241890   2.529   0.108   3.863  0.1116  0.0770  0.1566
 6800TIP3    H141891   2.502   0.030   3.815  0.7502 -0.8250  1.2233
 6800TIP3    H241892   2.463   0.117   3.932  0.5086 -0.0137  0.5484
 6801TIP3   OH241893   6.608   4.152   6.049 -0.1780  0.2212  0.3625
 6801TIP3    H141894   6.598   4.189   6.136  1.6514  4.2843 -0.9248
 6801TIP3    H241895   6.622   4.227   5.992  1.9107 -2.3905 -2.9609
 6802TIP3   OH241896   3.638   0.625   5.051  0.0497 -0.2464 -0.3553
 6802TIP3    H141897   3.557   0.579   5.028 -2.0254  2.5543  0.8011
 6802TIP3    H241898   3.665   0.585   5.134  0.4789 -1.8388 -1.2092
 6803TIP3   OH241899   2.749   5.755   4.485 -0.1364  0.1190 -0.0276
 6803TIP3    H141900   2.748   5.840   4.441  2.0568 -0.9218 -2.2708
 6803TIP3    H241901   2.836   5.748   4.523 -0.4394 -0.9838  0.5101
 6804TIP3   OH241902   6.658   5.834   5.843  0.8297 -0.3868 -0.3168
 6804TIP3    H141903   6.696   5.912   5.804  1.2831 -0.1607  0.5460
 6804TIP3    H241904   6.730   5.797   5.895 -0.0270 -0.1349  1.0797
 6805TIP3   OH241905   3.293   4.096   5.908 -0.3169 -0.2189  0.6669
 6805TIP3    H141906   3.254   4.178   5.878  0.6623  0.2812  0.7079
 6805TIP3    H241907   3.387   4.114   5.910 -0.1984 -0.8748  2.0972
 6806TIP3   OH241908   5.342   1.998  15.132  0.5353  0.5241 -0.2498
 6806TIP3    H141909   5.288   2.041  15.066 -1.1414  3.3070  2.6435
 6806TIP3    H241910   5.409   2.063  15.153  1.2917 -0.4739  0.5124
 6807TIP3   OH241911   1.078   1.867   4.771 -0.2293  0.2824  0.4074
 6807TIP3    H141912   1.150   1.826   4.723 -0.8297  0.2540 -0.4958
 6807TIP3    H241913   1.103   1.859   4.863  0.7874  0.0300  0.1237
 6808TIP3   OH241914   2.435   2.843  16.949 -0.5417 -0.3303  0.0740
 6808TIP3    H141915   2.453   2.850  17.043 -2.9279  2.2542  0.5031
 6808TIP3    H241916   2.374   2.769  16.941  0.3234 -1.0882  0.4165
 6809TIP3   OH241917   4.373   5.208   3.853  0.1823  0.5023  0.3933
 6809TIP3    H141918   4.451   5.216   3.907 -0.9062 -3.3172  2.9208
 6809TIP3    H241919   4.299   5.218   3.914 -1.1914 -0.4704 -1.0127
 6810TIP3   OH241920   1.899   4.555   4.002  0.3905 -0.1056  0.2595
 6810TIP3    H141921   1.917   4.498   3.927 -0.4235 -1.1662  0.8410
 6810TIP3    H241922   1.821   4.517   4.042 -0.1870  1.4563  0.6599
 6811TIP3   OH241923   6.114   5.131  13.348 -0.3958 -0.0898 -0.1464
 6811TIP3    H141924   6.020   5.121  13.362 -0.2791  0.8547  1.5238
 6811TIP3    H241925   6.151   5.045  13.371 -0.7548 -0.1663  0.1445
 6812TIP3   OH241926   4.133   0.531  11.163  0.5960 -0.1043  0.0476
 6812TIP3    H141927   4.114   0.511  11.072 -0.2825  2.6191 -0.4576
 6812TIP3    H241928   4.212   0.585  11.160  0.2702  0.4387  0.8178
 6813TIP3   OH241929   5.296   5.851   5.299  0.1718 -0.2088  0.3881
 6813TIP3    H141930   5.388   5.831   5.286  0.3791  0.8738  0.0431
 6813TIP3    H241931   5.266   5.884   5.214 -0.3763  0.0220  0.6615
 6814TIP3   OH241932   6.012   4.485  13.755  0.4572 -0.3027  0.1302
 6814TIP3    H141933   6.099   4.464  13.720  0.4336  0.1224 -0.1911
 6814TIP3    H241934   6.014   4.453  13.845  1.3646  0.7774  0.5137
 6815TIP3   OH241935   3.181   0.507   5.590  0.2653 -0.1931  0.0764
 6815TIP3    H141936   3.095   0.525   5.628  0.2522  0.6312 -0.3254
 6815TIP3    H241937   3.196   0.414   5.607 -0.2404 -0.1017  1.0716
 6816TIP3   OH241938   6.209   1.954  16.743  0.1312 -0.9663  0.3250
 6816TIP3    H141939   6.118   1.982  16.729  0.1302 -0.9883  0.2884
 6816TIP3    H241940   6.231   1.904  16.665  0.6727  0.3213 -0.3774
 6817TIP3   OH241941   5.899   5.181   3.842 -0.7258 -0.2867 -0.1146
 6817TIP3    H141942   5.871   5.195   3.933 -0.3166  0.1145 -0.0514
 6817TIP3    H241943   5.983   5.137   3.849 -0.7420 -0.3492 -0.3054
 6818TIP3   OH241944   2.129   5.342  12.309 -0.5582  0.0821  0.9896
 6818TIP3    H141945   2.193   5.353  12.238 -0.4774 -0.4647  0.9727
 6818TIP3    H241946   2.106   5.249  12.306 -1.6721  0.3531  0.7237
 6819TIP3   OH241947   2.683   2.728  16.708  0.5261 -0.0921  0.3978
 6819TIP3    H141948   2.627   2.792  16.752  0.6612 -0.4415  1.0817
 6819TIP3    H241949   2.708   2.771  16.627 -1.7997 -0.4037 -0.5883
 6820TIP3   OH241950   6.364   1.631   5.312  0.2483 -0.4193 -0.5271
 6820TIP3    H141951   6.455   1.632   5.344 -0.3021  0.9878  1.1769
 6820TIP3    H241952   6.370   1.663   5.222  1.3463  0.9461 -0.0147
 6821TIP3   OH241953   3.342   3.275   1.733 -0.2704 -0.1540 -0.6809
 6821TIP3    H141954   3.366   3.343   1.670  1.5227 -0.9360 -0.9135
 6821TIP3    H241955   3.409   3.281   1.801 -0.6064 -1.1065 -0.2520
 6822TIP3   OH241956   1.189   2.324   3.196  0.5065  0.4854 -0.0747
 6822TIP3    H141957   1.271   2.301   3.240 -0.1868  0.8480  1.4667
 6822TIP3    H241958   1.121   2.300   3.258 -0.4905  1.5210 -0.7357
 6823TIP3   OH241959   3.583   0.119   0.203 -1.0754 -0.5743 -0.0426
 6823TIP3    H141960   3.601   0.209   0.176  1.2618 -0.8156  0.5078
 6823TIP3    H241961   3.572   0.125   0.298 -1.7511 -0.7712 -0.1050
 6824TIP3   OH241962   0.250   3.462   5.767 -0.5398 -0.2916  0.1798
 6824TIP3    H141963   0.218   3.474   5.677  1.1887 -0.2869 -0.4623
 6824TIP3    H241964   0.202   3.527   5.818  0.5979  1.8299 -1.2923
 6825TIP3   OH241965   2.944   3.635   0.913 -0.0437  0.7849  0.0111
 6825TIP3    H141966   2.984   3.588   0.839 -0.1487  1.3790 -0.4238
 6825TIP3    H241967   2.988   3.598   0.990 -1.3613 -1.3216 -0.1577
 6826TIP3   OH241968   5.170   2.073   4.979  0.3786  0.4960  0.6314
 6826TIP3    H141969   5.250   2.108   4.940 -0.6902  1.7866 -0.5096
 6826TIP3    H241970   5.102   2.137   4.957 -1.0794 -0.8066  1.1198
 6827TIP3   OH241971   1.066   1.654   6.361 -0.0343  0.8012  0.0942
 6827TIP3    H141972   1.116   1.732   6.337 -0.4378  0.9283 -0.3508
 6827TIP3    H241973   0.976   1.685   6.370 -0.2279  0.3606 -0.2462
 6828TIP3   OH241974   2.459   1.616   3.276 -0.3790  0.4909 -0.5996
 6828TIP3    H141975   2.422   1.636   3.362 -1.1814  0.1017 -0.8431
 6828TIP3    H241976   2.485   1.524   3.283 -0.9327  0.3002 -0.9261
 6829TIP3   OH241977   4.239   4.020  16.726  0.5724 -0.2603  0.0854
 6829TIP3    H141978   4.246   3.949  16.791  1.1864 -1.1615 -0.9254
 6829TIP3    H241979   4.309   4.002  16.664 -0.6600 -0.0386 -1.4225
 6830TIP3   OH241980   0.458   5.732  16.751  0.2096 -0.5844  0.1910
 6830TIP3    H141981   0.503   5.787  16.687 -0.9910  0.1816 -0.0302
 6830TIP3    H241982   0.388   5.690  16.702 -0.6982 -0.0243  0.9600
 6831TIP3   OH241983   5.509   4.670   1.199 -0.1724  0.1652 -0.0458
 6831TIP3    H141984   5.531   4.663   1.106  1.0363  2.2877  0.0163
 6831TIP3    H241985   5.585   4.634   1.244  0.2230  1.1386  0.1031
 6832TIP3   OH241986   2.865   0.173  11.936  0.3915  0.3027 -0.1197
 6832TIP3    H141987   2.850   0.250  11.991  1.2749  1.5570 -1.5794
 6832TIP3    H241988   2.831   0.197  11.850  1.6246 -0.5180 -0.8732
 6833TIP3   OH241989   1.938   3.359   2.140  0.2994 -0.2686 -0.5344
 6833TIP3    H141990   1.899   3.416   2.207 -0.6371 -2.0137  0.4699
 6833TIP3    H241991   1.941   3.273   2.180  0.2993 -1.2578 -2.5301
 6834TIP3   OH241992   4.735   1.349   0.426  0.0638  0.7590 -0.5294
 6834TIP3    H141993   4.808   1.308   0.380 -1.0148 -0.9491 -0.8177
 6834TIP3    H241994   4.741   1.316   0.516  0.4525  1.7416 -0.1840
 6835TIP3   OH241995   2.442   2.350   1.368 -0.4494  0.1788  0.3090
 6835TIP3    H141996   2.510   2.374   1.431 -0.3538 -1.6229  0.9498
 6835TIP3    H241997   2.398   2.274   1.408 -1.1511 -0.2827 -1.2693
 6836TIP3   OH241998   1.280   4.439  14.633 -0.4723  0.1742  0.0710
 6836TIP3    H141999   1.258   4.443  14.726 -1.6168 -1.0731 -0.1076
 6836TIP3    H242000   1.200   4.406  14.591  0.8177 -1.7778 -1.0156
 6837TIP3   OH242001   2.937   0.653   2.306  0.2068 -0.8061 -0.2573
 6837TIP3    H142002   2.914   0.672   2.215 -0.8479 -2.3009 -0.3508
 6837TIP3    H242003   3.031   0.668   2.312 -0.0695  1.4445 -1.0048
 6838TIP3   OH242004   1.081   0.981  11.636  0.2698 -0.0354  0.1009
 6838TIP3    H142005   1.113   0.983  11.546  2.6749  2.1553  0.8878
 6838TIP3    H242006   1.030   1.062  11.645 -2.3211 -1.5383  0.0467
 6839TIP3   OH242007   4.712   5.577  16.087 -0.1949 -0.3600 -0.1839
 6839TIP3    H142008   4.803   5.599  16.103 -0.3875 -0.8188  1.7880
 6839TIP3    H242009   4.701   5.587  15.992  2.1365 -1.2402 -0.6039
 6840TIP3   OH242010   6.235   0.038  12.327 -0.1808 -0.4392 -0.3024
 6840TIP3    H142011   6.283  -0.025  12.274 -0.0968  0.5860 -1.4977
 6840TIP3    H242012   6.299   0.106  12.348 -0.7620  0.2849 -0.8060
 6841TIP3   OH242013   5.026   2.880   3.230 -0.3129 -0.3202 -0.6552
 6841TIP3    H142014   5.008   2.921   3.145 -0.8624 -1.5972 -1.1821
 6841TIP3    H242015   5.121   2.886   3.239 -0.3467  0.7491 -0.8656
 6842TIP3   OH242016   3.221   3.025  16.820  0.7556 -0.4584 -0.1242
 6842TIP3    H142017   3.241   2.992  16.733  3.2264 -0.6775  0.4655
 6842TIP3    H242018   3.185   3.113  16.806 -0.7193 -1.2211 -1.4088
 6843TIP3   OH242019   6.737   2.754  11.951  0.2900 -0.2313  0.1371
 6843TIP3    H142020   6.693   2.821  12.004  0.2257  0.1852 -0.4355
 6843TIP3    H242021   6.765   2.688  12.015 -0.7844 -0.2957  0.5651
 6844TIP3   OH242022   5.263   5.611  14.161 -0.0556 -0.1108 -0.7800
 6844TIP3    H142023   5.251   5.598  14.255 -0.1059  2.8525 -0.2720
 6844TIP3    H242024   5.175   5.618  14.126 -0.1049  2.0113 -0.4058
 6845TIP3   OH242025   0.359   0.404  16.929  0.4305 -0.0956  0.0860
 6845TIP3    H142026   0.430   0.353  16.968 -0.5385 -0.4636  1.4556
 6845TIP3    H242027   0.400   0.488  16.907  0.9854  0.3242  2.3696
 6846TIP3   OH242028   6.742   3.792  15.217  0.1566 -0.0320  0.2236
 6846TIP3    H142029   6.718   3.885  15.210 -0.0040  0.1659  2.4927
 6846TIP3    H242030   6.669   3.753  15.265 -0.0817 -1.5031 -1.2590
 6847TIP3   OH242031   5.570   2.770   4.552 -0.6040  0.2462 -0.4243
 6847TIP3    H142032   5.545   2.858   4.524 -0.6006  0.1528 -0.7272
 6847TIP3    H242033   5.574   2.720   4.471  0.1416  0.1556 -0.3387
 6848TIP3   OH242034   6.128   1.044  15.724 -0.2691  0.0349 -0.3135
 6848TIP3    H142035   6.170   0.961  15.749  0.1165  0.6835  1.3066
 6848TIP3    H242036   6.036   1.021  15.711 -0.4110 -0.4563  1.3469
 6849TIP3   OH242037   1.557   2.472  13.771  0.3687 -0.1507 -0.7888
 6849TIP3    H142038   1.492   2.530  13.810  1.5975  0.0758  1.0294
 6849TIP3    H242039   1.518   2.385  13.775  0.5104 -0.1722  1.2218
 6850TIP3   OH242040   6.277   1.747   2.383 -0.4489  0.2989 -0.4158
 6850TIP3    H142041   6.341   1.801   2.429  0.4906  0.3102 -1.6852
 6850TIP3    H242042   6.298   1.658   2.409 -1.9189  0.4730  1.5816
 6851TIP3   OH242043   3.046   6.783   2.095  0.0231 -0.5121  0.5085
 6851TIP3    H142044   2.977   6.787   2.029  0.0124  0.1924  0.5541
 6851TIP3    H242045   3.120   6.742   2.049  0.5171  1.2927 -0.4357
 6852TIP3   OH242046   4.825   3.242  13.963  0.0888  0.4020 -0.1969
 6852TIP3    H142047   4.903   3.198  13.929  0.0227  0.1100  0.0212
 6852TIP3    H242048   4.779   3.174  14.013  0.7911  1.1234  1.4886
 6853TIP3   OH242049   4.311   3.163   0.843  0.3581 -0.3459 -0.3225
 6853TIP3    H142050   4.385   3.187   0.788  0.2217  0.1776 -0.2841
 6853TIP3    H242051   4.309   3.068   0.841 -0.5231 -0.3353 -2.3997
 6854TIP3   OH242052   0.037   1.632  15.784 -0.1750 -0.1440 -0.4995
 6854TIP3    H142053  -0.042   1.634  15.730  0.6789 -0.5057 -1.7837
 6854TIP3    H242054   0.047   1.540  15.808 -1.0995  0.1342  1.1701
 6855TIP3   OH242055   4.053   0.258  16.484 -0.2272 -0.0104  0.2933
 6855TIP3    H142056   4.082   0.176  16.525 -0.5098 -0.0705  0.3787
 6855TIP3    H242057   3.970   0.279  16.528 -1.1286 -0.6659 -1.0039
 6856TIP3   OH242058   4.693   2.506   5.828 -0.0990 -0.0813 -0.1550
 6856TIP3    H142059   4.623   2.570   5.816  1.1029  1.5374  1.0092
 6856TIP3    H242060   4.651   2.435   5.877 -0.9129  0.9282  0.6631
 6857TIP3   OH242061   5.068   2.150   4.708 -0.6439 -0.1268  0.4777
 6857TIP3    H142062   5.068   2.244   4.728 -0.2854  0.0712 -0.3916
 6857TIP3    H242063   5.159   2.124   4.719 -0.2455  0.1741 -1.5889
 6858TIP3   OH242064   2.770   0.720  13.789  0.5102 -0.2496 -0.2540
 6858TIP3    H142065   2.738   0.741  13.877 -0.0285 -0.6848 -0.3403
 6858TIP3    H242066   2.716   0.772  13.730  1.3578  0.6091 -0.3052
 6859TIP3   OH242067   1.229   2.833   4.878  0.6657 -0.0656  0.3194
 6859TIP3    H142068   1.184   2.778   4.942 -0.1792  1.4002  1.0430
 6859TIP3    H242069   1.313   2.855   4.918  1.0755 -0.9175 -0.0407
 6860TIP3   OH242070   1.297   1.111  13.788  0.0261  0.3871  0.3345
 6860TIP3    H142071   1.227   1.164  13.751 -0.3560  0.3981  1.0509
 6860TIP3    H242072   1.321   1.156  13.869  1.5279  0.9123 -0.3761
 6861TIP3   OH242073   4.269   4.767  14.334 -0.3190  0.0758 -0.0787
 6861TIP3    H142074   4.250   4.774  14.240  0.0551 -0.8239 -0.2319
 6861TIP3    H242075   4.358   4.801  14.343 -0.1105 -0.4343 -0.1596
 6862TIP3   OH242076   3.183   0.612   0.396  0.1684  0.0842  0.5233
 6862TIP3    H142077   3.099   0.575   0.368  0.3687 -0.4921  0.6910
 6862TIP3    H242078   3.229   0.631   0.314 -0.7939  1.9986  0.3639
 6863TIP3   OH242079   4.597   1.424  15.443 -0.8576 -0.0445  0.3662
 6863TIP3    H142080   4.640   1.364  15.505  1.4143  0.0352 -1.0207
 6863TIP3    H242081   4.648   1.505  15.449 -1.0617  0.2098 -1.0657
 6864TIP3   OH242082   5.564   3.501   3.033  0.1030 -0.0947 -0.0182
 6864TIP3    H142083   5.591   3.427   3.088 -0.7501  1.5729  2.8693
 6864TIP3    H242084   5.468   3.497   3.033  0.0578  0.7734 -0.1327
 6865TIP3   OH242085   5.549   6.432  13.815 -0.0491  0.2172  0.1760
 6865TIP3    H142086   5.618   6.379  13.774  0.2461  0.0722  0.8426
 6865TIP3    H242087   5.471   6.377  13.810 -0.6742  1.2047 -2.4829
 6866TIP3   OH242088   6.294   5.925  12.631  0.2349 -0.6396 -0.1488
 6866TIP3    H142089   6.297   5.973  12.549 -1.8626 -1.1315 -0.5627
 6866TIP3    H242090   6.267   5.836  12.606  0.5030 -1.0565  0.9804
 6867TIP3   OH242091   2.800   6.725   4.770 -0.1827  0.3401 -0.4759
 6867TIP3    H142092   2.779   6.761   4.856 -0.0579  0.3731 -0.4590
 6867TIP3    H242093   2.766   6.636   4.772  3.0179 -0.9998  0.9527
 6868TIP3   OH242094   3.783   1.459  15.064  0.0118  0.3138  0.3268
 6868TIP3    H142095   3.816   1.549  15.065  0.3457  0.2946 -2.3333
 6868TIP3    H242096   3.851   1.409  15.019 -1.0710 -0.8507 -0.0672
 6869TIP3   OH242097   2.523   2.179  14.420 -0.1171 -0.4975  0.2873
 6869TIP3    H142098   2.578   2.246  14.461 -0.7125  0.6517 -0.7222
 6869TIP3    H242099   2.443   2.179  14.471 -1.2856  1.6853 -1.3734
 6870TIP3   OH242100   0.390   5.833  12.489  0.2406 -0.1283  0.0966
 6870TIP3    H142101   0.437   5.775  12.549 -1.6601 -2.3868 -0.4388
 6870TIP3    H242102   0.389   5.786  12.406 -1.1305  0.7815 -0.4427
 6871TIP3   OH242103   3.390   0.226   4.551  0.1858 -0.3797 -0.7363
 6871TIP3    H142104   3.463   0.256   4.605  0.3401  0.7800 -1.5410
 6871TIP3    H242105   3.428   0.215   4.464  0.1093 -2.9118 -0.5057
 6872TIP3   OH242106   1.519   4.477  14.498 -0.5641 -0.1602 -0.3609
 6872TIP3    H142107   1.483   4.552  14.451  0.6578  0.5391 -0.2377
 6872TIP3    H242108   1.454   4.458  14.565  0.6674  3.2584  2.1153
 6873TIP3   OH242109   2.135   4.045   3.819  0.2212  0.1917 -0.1292
 6873TIP3    H142110   2.124   4.040   3.724 -0.2473 -1.3012 -0.0188
 6873TIP3    H242111   2.166   4.135   3.835 -0.0343  0.5760 -1.6461
 6874TIP3   OH242112   5.802   6.359  16.915  0.0836 -0.2621  0.3108
 6874TIP3    H142113   5.756   6.326  16.838  1.1806 -1.1575  0.0126
 6874TIP3    H242114   5.895   6.353  16.893  0.3905  0.9696  1.1083
 6875TIP3   OH242115   5.972   5.051   0.817 -0.1816 -0.0288  0.8092
 6875TIP3    H142116   6.053   5.037   0.768  0.1960 -2.1760  1.9037
 6875TIP3    H242117   5.907   4.999   0.772  0.0343 -1.5412  2.1242
 6876TIP3   OH242118   3.278   2.961  16.544 -0.0520 -0.0605 -0.6428
 6876TIP3    H142119   3.342   2.896  16.572 -0.7503 -0.3006  0.5064
 6876TIP3    H242120   3.222   2.915  16.482  0.6483  0.0431 -1.3658
 6877TIP3   OH242121   3.829   2.955  15.815  0.3694 -0.1795  0.1546
 6877TIP3    H142122   3.823   2.950  15.720  0.2681 -0.3259  0.1675
 6877TIP3    H242123   3.836   2.863  15.844  1.4022 -0.0895  0.2226
 6878TIP3   OH242124   4.892   4.487  12.995  1.0723  0.0786  0.5107
 6878TIP3    H142125   4.971   4.466  13.044  1.0778  0.4093  0.6483
 6878TIP3    H242126   4.923   4.514  12.909  0.9887 -1.8843 -0.1788
 6879TIP3   OH242127   5.177   0.577  13.902 -0.3957  0.1144  0.0986
 6879TIP3    H142128   5.240   0.549  13.836  0.1787  1.8124 -0.1108
 6879TIP3    H242129   5.230   0.593  13.981 -0.2237  3.0273 -0.4904
 6880TIP3   OH242130   1.627   4.591   6.497  0.2652 -0.1368 -0.5475
 6880TIP3    H142131   1.565   4.663   6.500  1.0702  0.6126 -1.3930
 6880TIP3    H242132   1.615   4.552   6.411  0.1113 -0.7860 -0.2443
 6881TIP3   OH242133   3.355   4.020  15.309  0.4828  0.1028  0.5985
 6881TIP3    H142134   3.364   4.096  15.368 -1.2215 -0.0433  1.1213
 6881TIP3    H242135   3.322   3.950  15.366  1.7292 -0.9700  0.0541
 6882TIP3   OH242136   2.114   3.392  13.449  0.2003  0.0352 -0.4623
 6882TIP3    H142137   2.021   3.404  13.467 -0.3047 -2.0490 -1.3712
 6882TIP3    H242138   2.143   3.328  13.514  1.3382  1.5133  0.5708
 6883TIP3   OH242139   4.183   1.459  15.488 -0.1178  0.5803 -0.2017
 6883TIP3    H142140   4.222   1.376  15.461 -1.6561 -0.2970  0.1436
 6883TIP3    H242141   4.250   1.524  15.471  0.9800 -0.6857 -0.8623
 6884TIP3   OH242142   3.371   6.208   5.442  0.3301 -0.2028 -0.0541
 6884TIP3    H142143   3.390   6.301   5.455  1.2924 -0.1521 -1.5167
 6884TIP3    H242144   3.450   6.163   5.471  0.0514 -0.5290  0.2040
 6885TIP3   OH242145   2.301   0.652   3.389 -0.0065  0.0806 -0.1090
 6885TIP3    H142146   2.261   0.602   3.461  1.4179 -0.7069  0.1802
 6885TIP3    H242147   2.294   0.594   3.313 -0.1905  0.3022 -0.2614
 6886TIP3   OH242148   5.557   1.672   6.563 -0.2162 -0.3052  0.0083
 6886TIP3    H142149   5.630   1.681   6.624  0.1613 -3.7004  0.2683
 6886TIP3    H242150   5.587   1.716   6.483  0.8050  1.0266  1.0866
 6887TIP3   OH242151   3.337   1.254   0.292  0.0339  0.1098  0.3758
 6887TIP3    H142152   3.246   1.224   0.295 -0.2071  0.6655 -0.7015
 6887TIP3    H242153   3.388   1.173   0.287 -0.4090 -0.2043  0.7781
 6888TIP3   OH242154   4.420   5.295  13.600 -0.2242  0.0948 -0.0076
 6888TIP3    H142155   4.450   5.294  13.509 -1.3294 -0.0045 -0.3911
 6888TIP3    H242156   4.371   5.213  13.610  0.8541 -0.4585  1.0338
 6889TIP3   OH242157   3.133   6.118  12.650  0.0101 -0.1746  0.1335
 6889TIP3    H142158   3.119   6.196  12.596 -0.1907 -0.1538  0.2155
 6889TIP3    H242159   3.223   6.126  12.680 -0.3670  0.6348  1.1062
 6890TIP3   OH242160   4.689   4.682  12.842  0.3358 -0.0061  0.3430
 6890TIP3    H142161   4.603   4.719  12.820 -0.7523 -2.5722 -0.1374
 6890TIP3    H242162   4.712   4.628  12.767  1.1778 -1.3121  1.4928
 6891TIP3   OH242163   2.351   0.287  12.481 -0.3090 -0.3531  0.0979
 6891TIP3    H142164   2.350   0.340  12.401  1.6905 -2.4434 -1.4503
 6891TIP3    H242165   2.259   0.269  12.499 -1.0409  3.0525  0.3855
 6892TIP3   OH242166   6.340   5.386  16.242  0.2094  0.0678  0.2150
 6892TIP3    H142167   6.407   5.327  16.206  0.0039  0.6121 -1.1244
 6892TIP3    H242168   6.260   5.333  16.243  0.4673 -0.3274  1.0486
 6893TIP3   OH242169   5.492   2.920   1.823  0.3164  0.2741 -0.0753
 6893TIP3    H142170   5.415   2.968   1.854 -0.2750  1.5428 -3.0858
 6893TIP3    H242171   5.498   2.844   1.880 -1.6821  1.4200  1.8207
 6894TIP3   OH242172   2.062   4.511  14.216 -0.8989  0.2207 -0.3403
 6894TIP3    H142173   2.067   4.472  14.129 -0.9861  2.8707 -1.6441
 6894TIP3    H242174   2.064   4.437  14.276  0.2375 -1.6660 -2.5398
 6895TIP3   OH242175   6.571   3.749  12.219 -0.3776  0.0422  0.2011
 6895TIP3    H142176   6.605   3.839  12.227 -0.8389  0.2173  0.2198
 6895TIP3    H242177   6.642   3.694  12.251  0.0553  0.3779 -0.1560
 6896TIP3   OH242178   2.386   2.434   2.090 -0.2112  0.7219  0.0686
 6896TIP3    H142179   2.475   2.443   2.123  0.1819 -1.7882 -0.1217
 6896TIP3    H242180   2.338   2.391   2.160 -0.3059 -1.2411 -1.1310
 6897TIP3   OH242181   1.393   1.900  12.010  0.2842 -0.1696 -0.2372
 6897TIP3    H142182   1.421   1.814  11.978  0.7494 -0.3005  0.5014
 6897TIP3    H242183   1.304   1.886  12.043  0.7844 -0.6461  0.9500
 6898TIP3   OH242184   3.454   2.837   5.694  0.5111 -0.2963 -0.0225
 6898TIP3    H142185   3.497   2.805   5.615 -0.3659  0.9985 -1.0554
 6898TIP3    H242186   3.520   2.825   5.763  2.4389  1.2736 -1.4623
 6899TIP3   OH242187   1.897   0.187  16.128  0.1444 -0.2146  0.1957
 6899TIP3    H142188   1.834   0.206  16.059 -1.8875 -3.3602  0.9553
 6899TIP3    H242189   1.866   0.235  16.204  0.3995  0.5606 -0.1857
 6900TIP3   OH242190   6.839   5.136  13.298 -0.1472  0.0642 -0.4082
 6900TIP3    H142191   6.876   5.112  13.383  0.9599 -1.5174 -1.2927
 6900TIP3    H242192   6.747   5.157  13.317 -0.7781 -3.1785  0.8126
 6901TIP3   OH242193   1.054   1.647   1.021 -0.0222  0.1808 -0.0364
 6901TIP3    H142194   0.982   1.676   1.077  0.8239  2.4397 -0.0172
 6901TIP3    H242195   1.011   1.611   0.943 -1.1676 -0.8150  1.0075
 6902TIP3   OH242196   4.041   5.889  14.228 -0.2062  0.1787  0.2636
 6902TIP3    H142197   4.067   5.956  14.165  1.3842 -0.3451  0.3063
 6902TIP3    H242198   4.017   5.814  14.174  0.7174 -0.1189  0.2457
 6903TIP3   OH242199   6.439   3.309   2.422  0.1326 -0.2151  0.1722
 6903TIP3    H142200   6.397   3.234   2.381  0.1892  0.4238 -1.1124
 6903TIP3    H242201   6.510   3.333   2.363  0.9576  0.0447  1.2320
 6904TIP3   OH242202   2.330   6.586  13.543 -0.4707 -0.2826  0.1401
 6904TIP3    H142203   2.262   6.651  13.523  0.5630  0.4691 -1.1350
 6904TIP3    H242204   2.320   6.520  13.475  1.5933  1.1051 -1.6567
 6905TIP3   OH242205   6.780   5.825  10.850 -0.3135  0.3052  0.4045
 6905TIP3    H142206   6.844   5.891  10.827 -1.2301  0.7933 -0.8613
 6905TIP3    H242207   6.831   5.747  10.869  0.6391  0.5293 -1.1122
 6906TIP3   OH242208   5.768   3.167   2.934  0.4104 -0.3777  0.4237
 6906TIP3    H142209   5.847   3.164   2.987  1.7638  0.0900 -1.4429
 6906TIP3    H242210   5.787   3.233   2.867 -1.1199 -1.0391 -0.7194
 6907TIP3   OH242211   2.761   0.612   0.938 -0.0186  0.3869 -0.3445
 6907TIP3    H142212   2.680   0.639   0.981 -0.4809 -0.6050 -0.5784
 6907TIP3    H242213   2.748   0.520   0.916  1.8265 -0.2964  1.1367
 6908TIP3   OH242214   4.955   1.600   1.850  0.0668  0.1569  0.0042
 6908TIP3    H142215   5.001   1.631   1.928 -0.1628  0.2782  0.0918
 6908TIP3    H242216   5.019   1.545   1.805  0.3848  0.5330 -0.0087
 6909TIP3   OH242217   4.833   6.047  13.824 -0.3303  0.1063  0.5535
 6909TIP3    H142218   4.820   5.976  13.887  1.9175 -3.3607 -2.4953
 6909TIP3    H242219   4.757   6.041  13.766  1.1773 -1.8605 -1.3445
 6910TIP3   OH242220   1.839   5.675  11.242  0.1462  0.2724 -0.2438
 6910TIP3    H142221   1.825   5.764  11.275  1.6400  0.6551 -0.5685
 6910TIP3    H242222   1.923   5.679  11.197 -0.4695 -0.9413 -1.6094
 6911TIP3   OH242223   4.035   4.820   6.303  0.6494  0.0369 -0.1526
 6911TIP3    H142224   3.980   4.753   6.344  0.0561  0.2628 -0.5626
 6911TIP3    H242225   4.043   4.792   6.212 -0.8178  1.2638 -0.6953
 6912TIP3   OH242226   3.337   1.827   3.244 -0.1422  0.2056  0.0045
 6912TIP3    H142227   3.374   1.739   3.238 -1.1092 -0.4202  2.1361
 6912TIP3    H242228   3.371   1.861   3.327 -2.4575  0.4693  0.9245
 6913TIP3   OH242229   3.831   0.863   2.375 -0.0114 -0.5604 -0.7420
 6913TIP3    H142230   3.898   0.795   2.380  0.2099 -0.3764 -1.1078
 6913TIP3    H242231   3.829   0.887   2.282 -0.5078 -0.4874 -0.7120
 6914TIP3   OH242232   0.321   0.107  13.024 -0.1309 -0.4029  0.5363
 6914TIP3    H142233   0.372   0.064  13.093 -0.3866 -1.0642  0.3151
 6914TIP3    H242234   0.338   0.200  13.038  0.3813 -0.5625  1.0571
 6915TIP3   OH242235   1.363   6.028  15.661 -0.6364  0.0122  0.5649
 6915TIP3    H142236   1.320   6.104  15.622 -0.0648 -0.0392 -0.1902
 6915TIP3    H242237   1.440   6.063  15.706  0.3564 -0.2149 -0.8652
 6916TIP3   OH242238   2.021   3.944  11.546  0.1486 -0.2133  0.4256
 6916TIP3    H142239   1.972   3.911  11.621  0.7483 -2.6232 -0.1597
 6916TIP3    H242240   2.033   3.868  11.489 -1.8747  1.8380 -3.0735
 6917TIP3   OH242241   4.668   5.814   2.340 -0.1712  0.1862 -0.6405
 6917TIP3    H142242   4.713   5.746   2.290 -1.7987 -0.7427 -0.9359
 6917TIP3    H242243   4.588   5.771   2.372 -0.9750  1.8069 -0.3773
 6918TIP3   OH242244   5.156   0.827   0.874 -0.0878 -0.1572  0.4717
 6918TIP3    H142245   5.167   0.735   0.853  1.9144  0.1967 -0.2913
 6918TIP3    H242246   5.235   0.869   0.840 -0.7815  1.7928  1.1047
 6919TIP3   OH242247   4.270   3.453   1.989 -0.1598  0.3759 -0.1556
 6919TIP3    H142248   4.333   3.403   2.040 -0.6269 -1.5225 -1.3553
 6919TIP3    H242249   4.211   3.388   1.952 -0.3312  1.7208 -2.4471
 6920TIP3   OH242250   6.635   3.963  12.532  0.3922  0.2326  0.0818
 6920TIP3    H142251   6.553   3.945  12.486  0.6242 -2.5688  0.5638
 6920TIP3    H242252   6.702   3.960  12.463  0.3375  0.0542  0.0355
 6921TIP3   OH242253   4.393   1.555  16.913  0.3873  0.1979  0.0740
 6921TIP3    H142254   4.463   1.616  16.889  0.7719 -0.8634 -1.7176
 6921TIP3    H242255   4.321   1.577  16.853 -0.4757  0.6268  1.2295
 6922TIP3   OH242256   0.403   4.441   1.517  0.2522 -0.3695  0.1436
 6922TIP3    H142257   0.375   4.531   1.533 -1.3489 -0.5041 -1.5462
 6922TIP3    H242258   0.398   4.398   1.602  0.6776  1.0156  0.9002
 6923TIP3   OH242259   2.724   0.184  15.951  0.1303  0.6747  0.0525
 6923TIP3    H142260   2.745   0.092  15.939  1.5551  1.1486 -1.3247
 6923TIP3    H242261   2.689   0.212  15.867  0.4272  1.5669  0.2183
 6924TIP3   OH242262   2.311   6.427   5.899  1.0012  0.0167  0.2046
 6924TIP3    H142263   2.264   6.402   5.979 -0.2218  1.8358  0.1236
 6924TIP3    H242264   2.331   6.519   5.911 -0.5515  0.7774 -2.1509
 6925TIP3   OH242265   1.929   1.895  13.964 -0.5331 -0.3935 -0.0721
 6925TIP3    H142266   1.989   1.907  13.891 -1.3882  0.6024 -0.6500
 6925TIP3    H242267   1.854   1.951  13.942 -1.6937 -1.6415  0.5859
 6926TIP3   OH242268   0.912   0.923  16.625  0.1203  0.5252  0.1968
 6926TIP3    H142269   0.845   0.959  16.683 -0.0484 -1.2036  1.1325
 6926TIP3    H242270   0.956   0.856  16.677  1.1844  0.1731 -1.0929
 6927TIP3   OH242271   4.123   3.128   0.175 -0.2778 -0.6270 -0.0372
 6927TIP3    H142272   4.114   3.222   0.187 -0.5868 -0.8881  2.0386
 6927TIP3    H242273   4.214   3.116   0.149  0.0450  0.1733  0.6863
 6928TIP3   OH242274   0.999   4.173  13.539  0.4124  0.2083  0.7745
 6928TIP3    H142275   0.986   4.265  13.515 -0.7078  0.0684  0.7915
 6928TIP3    H242276   0.911   4.138  13.550  0.5950 -1.8162 -2.6856
 6929TIP3   OH242277   6.196   4.631  15.289 -0.0763  0.4932 -0.5356
 6929TIP3    H142278   6.252   4.653  15.215 -0.1418 -0.5568 -0.9254
 6929TIP3    H242279   6.146   4.555  15.259  0.5218 -0.5084  0.8853
 6930TIP3   OH242280   2.973   0.720  14.710  0.4723 -0.1290  0.7406
 6930TIP3    H142281   2.893   0.702  14.759  1.3013  0.3476  2.3337
 6930TIP3    H242282   2.946   0.781  14.641 -0.5933 -0.2671  1.0251
 6931TIP3   OH242283   0.603   5.408  11.700  0.4036 -0.4683  0.3562
 6931TIP3    H142284   0.583   5.467  11.772  1.1630 -0.5027  0.6123
 6931TIP3    H242285   0.520   5.368  11.676 -1.1683  3.9016 -2.7499
 6932TIP3   OH242286   3.717   6.480   0.906  0.7209 -0.3691 -0.2707
 6932TIP3    H142287   3.725   6.387   0.924  0.2468 -0.8271 -2.1750
 6932TIP3    H242288   3.788   6.499   0.845 -0.0788  0.1470 -1.0771
 6933TIP3   OH242289   0.058   2.364   3.405  0.2558 -0.0529 -0.1197
 6933TIP3    H142290   0.079   2.333   3.493  1.1485  1.8244  0.3878
 6933TIP3    H242291  -0.007   2.433   3.419  0.1990  0.0687 -0.9604
 6934TIP3   OH242292   1.138   1.903   6.024  0.2394 -0.6969  0.2954
 6934TIP3    H142293   1.158   1.895   6.117  0.5881  0.2881  0.3222
 6934TIP3    H242294   1.134   1.998   6.008 -1.4387 -0.8361 -0.3616
 6935TIP3   OH242295   1.292   2.412  16.871  0.5570 -0.7850  0.3990
 6935TIP3    H142296   1.267   2.505  16.876  0.6741 -0.6743 -0.8004
 6935TIP3    H242297   1.387   2.413  16.871  0.6233 -0.7017 -1.8932
 6936TIP3   OH242298   2.031   2.131  14.494 -0.5012 -0.1907 -0.4141
 6936TIP3    H142299   2.029   2.054  14.436 -0.6825 -1.2544  0.9510
 6936TIP3    H242300   2.119   2.131  14.531 -0.2169  0.7871 -1.0544
 6937TIP3   OH242301   0.061   1.172   1.220  1.0227 -0.5929  0.4954
 6937TIP3    H142302   0.108   1.099   1.261  0.2967 -1.0192  0.5774
 6937TIP3    H242303   0.010   1.131   1.150  0.8723 -0.1153  0.3254
 6938TIP3   OH242304   1.683   2.553   2.449 -0.0179  0.7430  0.0470
 6938TIP3    H142305   1.688   2.457   2.450 -0.5503  0.7090 -0.0812
 6938TIP3    H242306   1.666   2.577   2.540  0.5586  0.7452  0.1567
 6939TIP3   OH242307   3.042   4.300   3.918 -0.3237  0.0649  0.3695
 6939TIP3    H142308   3.024   4.209   3.893 -1.9485  0.4028  0.1878
 6939TIP3    H242309   2.985   4.352   3.862  1.4881  1.3205 -0.4325
 6940TIP3   OH242310   6.624   0.061  14.980 -0.5931  0.4322  0.7328
 6940TIP3    H142311   6.605   0.067  15.074 -0.2074 -0.1957  0.8565
 6940TIP3    H242312   6.557   0.116  14.939 -1.5511 -0.2750  1.2859
 6941TIP3   OH242313   5.615   1.018  14.262 -0.3763  0.9140  0.2442
 6941TIP3    H142314   5.521   1.000  14.252 -0.0902  0.3574 -2.2602
 6941TIP3    H242315   5.621   1.114  14.266 -1.0983  0.9246  1.6174
 6942TIP3   OH242316   5.611   4.496  13.411 -0.2967 -0.3150 -0.2858
 6942TIP3    H142317   5.584   4.585  13.387 -1.6781  0.2626  2.8088
 6942TIP3    H242318   5.696   4.507  13.453 -0.2799 -0.5047 -0.2694
 6943TIP3   OH242319   2.170   5.415  15.352 -0.2034 -0.7607  0.9448
 6943TIP3    H142320   2.236   5.381  15.412  1.1426 -1.2646 -0.7504
 6943TIP3    H242321   2.219   5.468  15.290 -1.4748 -0.6331  0.0159
 6944TIP3   OH242322   0.618   2.129   5.550 -0.1702  0.3747  0.0272
 6944TIP3    H142323   0.553   2.131   5.621 -1.6717 -1.7331 -1.1867
 6944TIP3    H242324   0.566   2.126   5.470  1.4690  0.4220 -1.0884
 6945TIP3   OH242325   3.147   0.612  11.948  0.4248  0.2761  0.2550
 6945TIP3    H142326   3.101   0.647  12.024  2.1384 -0.5575  1.7590
 6945TIP3    H242327   3.082   0.558  11.903 -0.7897  1.2656  0.7670
 6946TIP3   OH242328   5.619   1.909   2.812  0.4170  0.3761 -0.2611
 6946TIP3    H142329   5.633   1.910   2.718  1.2471 -0.8319 -0.1763
 6946TIP3    H242330   5.597   1.999   2.834  0.2748  0.6839 -1.5964
 6947TIP3   OH242331   3.733   6.033   6.133 -0.1745 -0.0867 -0.0242
 6947TIP3    H142332   3.774   6.084   6.203 -1.8821  1.1313  0.1396
 6947TIP3    H242333   3.670   6.093   6.093  0.5501 -0.8289 -2.4582
 6948TIP3   OH242334   1.509   0.189  13.336 -0.0159 -0.8293 -0.0335
 6948TIP3    H142335   1.504   0.242  13.256 -1.4290 -0.3778  0.3156
 6948TIP3    H242336   1.569   0.237  13.393  0.7337 -0.9769 -0.6767
 6949TIP3   OH242337   0.828   3.348  17.007 -0.0448 -0.2235  0.3586
 6949TIP3    H142338   0.821   3.344  17.103 -1.5586  0.6565  0.3307
 6949TIP3    H242339   0.742   3.381  16.979  0.4593 -0.2413 -1.2866
 6950TIP3   OH242340   6.284   6.624  11.823 -0.2891 -0.6048  0.7753
 6950TIP3    H142341   6.285   6.707  11.871  0.3450 -0.5905  0.7460
 6950TIP3    H242342   6.229   6.641  11.747  0.3872 -0.0011  0.4134
 6951TIP3   OH242343   2.107   6.367  11.326 -0.1871 -0.2162 -0.8132
 6951TIP3    H142344   2.165   6.352  11.252  1.1570 -1.0944  0.3633
 6951TIP3    H242345   2.046   6.293  11.326  0.1488 -0.4910 -0.7362
 6952TIP3   OH242346   2.476   0.129   2.824 -0.4217  0.4366 -0.0766
 6952TIP3    H142347   2.490   0.200   2.761  2.0093 -1.1286 -1.4883
 6952TIP3    H242348   2.534   0.149   2.897  0.4566 -0.1845 -0.5899
 6953TIP3   OH242349   4.840   0.327   1.480  0.3619 -0.3572 -0.3226
 6953TIP3    H142350   4.859   0.254   1.539  2.5008  0.0859 -0.3614
 6953TIP3    H242351   4.903   0.395   1.506  1.4164 -0.1629 -3.0883
 6954TIP3   OH242352   1.413   3.645  13.118 -0.2201  0.1682  0.4350
 6954TIP3    H142353   1.463   3.726  13.104  0.1012 -0.2527 -1.1019
 6954TIP3    H242354   1.323   3.674  13.132 -0.4105  0.7820 -1.6730
 6955TIP3   OH242355   6.738   2.967   2.782 -0.3396  0.2154  0.1536
 6955TIP3    H142356   6.776   3.035   2.726 -0.3087  0.2018  0.1573
 6955TIP3    H242357   6.743   3.003   2.871 -0.4829  0.2788  0.1355
 6956TIP3   OH242358   3.297   5.276  12.189 -0.1567 -0.4700 -0.0635
 6956TIP3    H142359   3.324   5.277  12.280  1.2985 -1.7889 -0.4395
 6956TIP3    H242360   3.238   5.201  12.182 -2.5311  1.2525  0.3312
 6957TIP3   OH242361   1.218   2.669   0.833  0.0390  0.1051 -0.0890
 6957TIP3    H142362   1.129   2.675   0.868  0.1691 -0.1609  0.2904
 6957TIP3    H242363   1.223   2.582   0.794 -0.6855  1.0100 -2.4039
 6958TIP3   OH242364   5.220   3.002   0.443  0.0519  0.0584 -0.4793
 6958TIP3    H142365   5.161   3.006   0.518 -2.4807  1.8821 -2.4111
 6958TIP3    H242366   5.290   3.065   0.463 -0.1334 -0.0865  0.6605
 6959TIP3   OH242367   2.706   0.859   2.369 -0.0727  0.2121 -0.1043
 6959TIP3    H142368   2.769   0.900   2.428 -0.2504  2.4128 -1.3603
 6959TIP3    H242369   2.745   0.774   2.348  2.2365  1.2960 -0.4346
 6960TIP3   OH242370   2.028   5.645   5.453  0.5806  0.8810 -0.2527
 6960TIP3    H142371   1.950   5.630   5.507 -1.1906 -0.7312 -2.9952
 6960TIP3    H242372   2.008   5.724   5.403  0.9899  0.8446 -0.4780
 6961TIP3   OH242373   3.028   6.112  16.561  0.7515  0.1151  0.2830
 6961TIP3    H142374   3.035   6.172  16.487  0.1117 -0.8482 -0.5928
 6961TIP3    H242375   3.042   6.025  16.522 -2.7256 -0.7323  0.6556
 6962TIP3   OH242376   4.398   2.611  14.411  0.0126 -0.2545 -0.3413
 6962TIP3    H142377   4.460   2.667  14.458 -0.6953  0.5006 -0.2789
 6962TIP3    H242378   4.425   2.619  14.319  0.0553  0.0151 -0.3078
 6963TIP3   OH242379   1.655   1.235   0.061 -0.0498  0.0556  0.0293
 6963TIP3    H142380   1.703   1.210  -0.018 -0.9612  1.1096 -0.8897
 6963TIP3    H242381   1.681   1.170   0.126  0.2036 -1.2494 -1.3248
 6964TIP3   OH242382   1.129   2.098  12.229  0.1079 -0.4545  0.5147
 6964TIP3    H142383   1.199   2.128  12.171 -0.7732  0.0673 -0.2933
 6964TIP3    H242384   1.064   2.059  12.171  0.0525 -1.6036  1.3240
 6965TIP3   OH242385   0.413   0.489   0.235 -0.3923 -0.2404  0.0746
 6965TIP3    H142386   0.508   0.476   0.239 -0.3138  0.0972 -0.5734
 6965TIP3    H242387   0.386   0.491   0.327  0.3874  0.7752  0.3040
 6966TIP3   OH242388   4.064   1.094  13.603  0.3840 -0.1675  0.0940
 6966TIP3    H142389   4.105   1.023  13.652  0.9711  0.9860  1.3605
 6966TIP3    H242390   3.993   1.125  13.660  0.4934  0.6243 -0.1846
 6967TIP3   OH242391   1.098   3.905  13.744 -0.1380 -0.1486 -0.3039
 6967TIP3    H142392   1.189   3.911  13.714  0.1483 -0.6652  0.4488
 6967TIP3    H242393   1.071   3.996  13.755  0.1771  0.0185 -0.8339
 6968TIP3   OH242394   1.242   0.475  13.025 -0.1505  0.1592 -0.2025
 6968TIP3    H142395   1.239   0.384  12.994 -0.6899 -0.1123  0.6175
 6968TIP3    H242396   1.298   0.520  12.961  1.5931 -1.1226  0.3410
 6969TIP3   OH242397   4.949   5.076  13.142  0.2775  0.3207 -0.3484
 6969TIP3    H142398   4.896   5.011  13.095  0.3004  0.7359 -0.9619
 6969TIP3    H242399   5.020   5.097  13.081  0.6033  0.4881  0.0851
 6970TIP3   OH242400   5.875   2.310   1.480  0.6137  0.4401  0.4668
 6970TIP3    H142401   5.782   2.308   1.502  0.8226  0.5847  1.4320
 6970TIP3    H242402   5.906   2.394   1.515  1.4213 -0.2832  1.5500
 6971TIP3   OH242403   2.729   1.782   0.236  0.4152  0.6197 -0.9865
 6971TIP3    H142404   2.760   1.856   0.183 -0.9566  1.6040 -0.4620
 6971TIP3    H242405   2.641   1.808   0.265  0.3368 -0.7548  0.1115
 6972TIP3   OH242406   3.624   5.921   4.330  0.3132  0.5403 -0.7065
 6972TIP3    H142407   3.707   5.967   4.345  1.3051 -1.2596 -0.3565
 6972TIP3    H242408   3.557   5.984   4.355  1.5716  1.9606 -0.7400
 6973TIP3   OH242409   3.687   3.507  15.201  0.7937 -0.3098 -0.3232
 6973TIP3    H142410   3.733   3.543  15.276  0.6168 -0.4726 -0.1353
 6973TIP3    H242411   3.713   3.562  15.127 -1.7642  2.1076  0.4223
 6974TIP3   OH242412   5.061   3.431   1.379  0.1882  0.0448 -0.1468
 6974TIP3    H142413   5.003   3.362   1.348  0.4027  0.1733 -0.8445
 6974TIP3    H242414   5.045   3.435   1.474 -0.5135 -0.3109 -0.2441
 6975TIP3   OH242415   4.029   1.798   4.995 -0.0812  0.0145 -0.3559
 6975TIP3    H142416   4.041   1.791   5.089  1.4124  0.5730 -0.4782
 6975TIP3    H242417   3.997   1.712   4.969  3.5541 -1.7000  0.1491
 6976TIP3   OH242418   2.240   1.204  12.969 -0.3276 -0.5165  0.1936
 6976TIP3    H142419   2.215   1.126  12.920  0.8358 -0.9992  0.3483
 6976TIP3    H242420   2.169   1.217  13.032 -0.9461 -0.9438 -0.4116
 6977TIP3   OH242421   0.963   1.776   4.022  0.5736 -0.1330  0.1627
 6977TIP3    H142422   1.038   1.830   3.997  0.4015 -0.1993 -0.5278
 6977TIP3    H242423   0.987   1.688   3.992 -0.5724  0.1841 -1.8213
 6978TIP3   OH242424   5.716   2.325  14.941 -0.4196 -0.2864 -0.1867
 6978TIP3    H142425   5.706   2.242  14.988 -0.9879  0.9554  1.9931
 6978TIP3    H242426   5.811   2.334  14.930 -0.0389  0.3938  2.7865
 6979TIP3   OH242427   0.220   6.803  12.823 -0.5414 -0.3636 -0.3377
 6979TIP3    H142428   0.274   6.864  12.872 -1.6676  0.4304 -0.0373
 6979TIP3    H242429   0.169   6.757  12.889 -1.4080  0.0619 -0.6931
 6980TIP3   OH242430   2.969   1.622  14.250  0.5715  0.3122  0.6963
 6980TIP3    H142431   2.935   1.654  14.334 -2.3578  0.5554 -0.4783
 6980TIP3    H242432   2.932   1.534  14.241  1.2099  0.1139 -0.1685
 6981TIP3   OH242433   1.079   4.084   1.345  0.0644 -0.4540  0.0390
 6981TIP3    H142434   1.003   4.026   1.343 -0.0868 -0.3064  0.9303
 6981TIP3    H242435   1.102   4.090   1.438 -1.0448  2.3282  0.2407
 6982TIP3   OH242436   4.854   6.456   2.194  0.4142 -0.2459 -0.0006
 6982TIP3    H142437   4.839   6.516   2.267 -0.7864 -1.1594  0.5356
 6982TIP3    H242438   4.801   6.492   2.123 -0.3221 -0.6624  0.3270
 6983TIP3   OH242439   6.665   4.609   5.086  0.4140 -0.3981  0.6811
 6983TIP3    H142440   6.681   4.515   5.089 -1.3598 -0.7526  0.1912
 6983TIP3    H242441   6.627   4.624   4.999 -0.5273  0.5356  1.2278
 6984TIP3   OH242442   1.820   3.688  11.509 -1.2194  0.4446  0.2423
 6984TIP3    H142443   1.780   3.648  11.431 -0.1129  1.3410 -0.8345
 6984TIP3    H242444   1.823   3.618  11.573 -0.0206 -1.0483 -1.3287
 6985TIP3   OH242445   6.116   2.606   3.911  0.1214  0.5839  0.4094
 6985TIP3    H142446   6.182   2.675   3.920  1.0473 -0.2219 -0.0657
 6985TIP3    H242447   6.057   2.621   3.984 -0.2327  2.4378 -0.1909
 6986TIP3   OH242448   1.962   2.225   5.767  0.7360 -0.1862 -0.1974
 6986TIP3    H142449   2.003   2.148   5.727  0.8432 -0.7010  0.8547
 6986TIP3    H242450   1.973   2.211   5.862 -1.2227  0.0127  0.1014
 6987TIP3   OH242451   4.887   5.534  14.221  0.2682 -0.1001 -0.1008
 6987TIP3    H142452   4.807   5.497  14.257 -0.2326  0.5221 -0.5387
 6987TIP3    H242453   4.958   5.484  14.261 -0.2242  0.8366  2.1107
 6988TIP3   OH242454   1.245   0.567   0.064 -0.6061 -0.0731  0.6274
 6988TIP3    H142455   1.295   0.504   0.115 -1.7953 -1.1877  0.4594
 6988TIP3    H242456   1.242   0.645   0.120  1.9922  0.3521  0.2772
 6989TIP3   OH242457   5.258   0.920  16.481 -0.3759 -0.2754  0.6092
 6989TIP3    H142458   5.296   0.841  16.442 -0.9728  0.2610 -1.1314
 6989TIP3    H242459   5.333   0.967  16.518  0.1873 -0.9029  0.2874
 6990TIP3   OH242460   2.181   1.124   0.852 -0.1729 -0.5743  0.0605
 6990TIP3    H142461   2.121   1.067   0.901  0.7189 -0.8295  0.8982
 6990TIP3    H242462   2.265   1.078   0.856  0.3162  0.2865 -0.1749
 6991TIP3   OH242463   3.627   0.161  13.452  0.2026 -0.3708  0.3326
 6991TIP3    H142464   3.584   0.081  13.483  0.1312 -0.0646  1.0326
 6991TIP3    H242465   3.647   0.143  13.360 -2.4305 -0.1218 -0.3748
 6992TIP3   OH242466   2.360   1.564  16.962 -0.6912  0.0736  0.6268
 6992TIP3    H142467   2.335   1.623  16.891  0.4260  0.9473  0.9247
 6992TIP3    H242468   2.335   1.477  16.931 -0.9985  0.5371 -0.4742
 6993TIP3   OH242469   4.213   2.841  11.789 -0.4348  0.3034  0.2723
 6993TIP3    H142470   4.249   2.909  11.732 -2.9701  2.5575  1.1606
 6993TIP3    H242471   4.206   2.882  11.874 -1.6343 -1.2465  0.9768
 6994TIP3   OH242472   3.770   3.130   6.045 -0.4232  0.1251  0.3223
 6994TIP3    H142473   3.725   3.067   6.102 -1.9434  2.4899  1.9429
 6994TIP3    H242474   3.863   3.110   6.056 -0.7753 -0.7414  2.1688
 6995TIP3   OH242475   4.874   5.736  15.654  0.4401  0.1152 -0.2054
 6995TIP3    H142476   4.819   5.685  15.713 -0.3182  0.8296 -0.2826
 6995TIP3    H242477   4.914   5.671  15.597 -0.9803 -0.3749 -0.6910
 6996TIP3   OH242478   1.340   1.140   2.852 -0.5093 -0.1452 -0.0542
 6996TIP3    H142479   1.339   1.215   2.911 -0.1306 -0.4291  0.3207
 6996TIP3    H242480   1.326   1.177   2.765 -2.5792  0.1376  0.3530
 6997TIP3   OH242481   1.230   4.682   4.920 -0.1344  0.2136  0.1480
 6997TIP3    H142482   1.205   4.615   4.983  0.8575 -2.1004 -1.7625
 6997TIP3    H242483   1.283   4.636   4.855  1.2801  3.0361 -0.8867
 6998TIP3   OH242484   0.718   1.446  15.443  0.4705 -0.1991 -0.0581
 6998TIP3    H142485   0.665   1.396  15.381 -0.0381  0.7129 -0.3620
 6998TIP3    H242486   0.657   1.509  15.482  0.9134 -0.3689  0.9452
 6999TIP3   OH242487   4.369   6.120   2.428  0.5811 -0.6669 -0.2659
 6999TIP3    H142488   4.420   6.051   2.470  0.0569 -1.2319 -0.5346
 6999TIP3    H242489   4.302   6.073   2.378  0.3065  0.0348 -0.5720
 7000TIP3   OH242490   5.719   5.936  16.444 -0.0713 -0.1163 -0.1402
 7000TIP3    H142491   5.656   5.889  16.499  0.5058 -0.5725  0.1489
 7000TIP3    H242492   5.752   5.870  16.383 -1.6887  0.6936 -1.9683
 7001TIP3   OH242493   3.758   2.809  14.603 -0.1052  0.2951  0.5305
 7001TIP3    H142494   3.779   2.895  14.639 -1.3189  0.7640  0.1685
 7001TIP3    H242495   3.778   2.748  14.674  0.3460  0.9060  0.9436
 7002TIP3   OH242496   6.821   6.800  15.200 -0.1171 -0.0936  0.0735
 7002TIP3    H142497   6.829   6.836  15.111 -0.8870 -0.8238 -0.3072
 7002TIP3    H242498   6.825   6.706  15.188 -2.5581 -0.3124  0.5215
 7003TIP3   OH242499   4.530   4.040  11.359 -0.0133  0.2513 -0.6215
 7003TIP3    H142500   4.557   3.998  11.441 -1.2823 -0.0127 -0.3146
 7003TIP3    H242501   4.443   4.004  11.342  0.4013 -0.0083 -2.3108
 7004TIP3   OH242502   4.487   2.370   1.176 -0.0164 -0.2014  0.0052
 7004TIP3    H142503   4.512   2.428   1.248  0.8115 -0.4833 -0.0527
 7004TIP3    H242504   4.530   2.288   1.196 -2.5943 -1.4291  1.0537
 7005TIP3   OH242505   6.766   4.626  16.245 -0.2935  0.1832 -0.6791
 7005TIP3    H142506   6.685   4.627  16.295  0.4071  2.7105  0.5624
 7005TIP3    H242507   6.758   4.550  16.187 -1.1639 -3.0031  3.1770
 7006TIP3   OH242508   0.966   0.498  14.544  0.1055  0.1752 -0.5187
 7006TIP3    H142509   0.905   0.542  14.604  0.1787 -2.8699  2.0659
 7006TIP3    H242510   0.914   0.479  14.466 -1.5041 -0.0055  0.5517
 7007TIP3   OH242511   3.067   4.784  12.681  0.1186 -0.2577 -0.2044
 7007TIP3    H142512   3.149   4.819  12.717 -1.1511  2.9215 -0.0970
 7007TIP3    H242513   3.049   4.840  12.605 -1.1473 -1.9428 -1.2030
 7008TIP3   OH242514   3.576   1.829   4.960 -0.3098  0.2283 -0.5727
 7008TIP3    H142515   3.649   1.861   4.908  1.1819 -2.8303 -0.5873
 7008TIP3    H242516   3.535   1.762   4.906 -0.7479 -0.7402  0.9013
 7009TIP3   OH242517   5.915   5.246  13.077 -0.2853  0.6293 -0.3488
 7009TIP3    H142518   6.003   5.256  13.042 -0.3058 -0.0316 -0.5969
 7009TIP3    H242519   5.926   5.204  13.162 -0.4238 -0.6159 -0.9200
 7010TIP3   OH242520   4.895   5.257   1.029  0.0264 -0.3685  0.7039
 7010TIP3    H142521   4.976   5.207   1.038 -0.3200 -1.0182  0.2973
 7010TIP3    H242522   4.845   5.234   1.108 -0.8610 -2.0600 -0.2864
 7011TIP3   OH242523   1.971   5.659  10.302  0.1375 -0.3342 -0.3610
 7011TIP3    H142524   1.998   5.750  10.313  1.3309 -0.8340  1.3419
 7011TIP3    H242525   1.876   5.663  10.291 -0.0682  1.0128  1.4859
 7012TIP3   OH242526   5.023   4.965  15.718 -0.0038 -0.0599  0.0878
 7012TIP3    H142527   5.066   4.887  15.683  0.0378  0.0791 -0.1750
 7012TIP3    H242528   4.962   4.932  15.783  1.1781 -0.1947  1.1729
 7013TIP3   OH242529   2.941   1.148  15.674 -0.0116 -1.1272  0.2323
 7013TIP3    H142530   3.006   1.079  15.689 -0.5865 -1.3956  1.6705
 7013TIP3    H242531   2.926   1.186  15.761  0.4215  0.9645 -0.5478
 7014TIP3   OH242532   0.761   0.589   3.480 -0.0659 -0.0001  1.1743
 7014TIP3    H142533   0.791   0.559   3.395  1.0627 -0.1733  1.6196
 7014TIP3    H242534   0.683   0.641   3.461 -0.1535 -0.5019  0.0961
 7015TIP3   OH242535   5.914   0.948   5.985 -0.1459 -0.9193  0.2454
 7015TIP3    H142536   5.928   0.988   6.071 -0.1895  0.0274 -0.1636
 7015TIP3    H242537   5.953   0.861   5.991  1.3357 -0.2502  0.7193
 7016TIP3   OH242538   0.809   0.998   2.308 -0.0836 -0.2367  0.5879
 7016TIP3    H142539   0.885   0.949   2.278 -0.9417 -0.6198 -1.0844
 7016TIP3    H242540   0.846   1.071   2.358  1.4654  0.2751 -1.2000
 7017TIP3   OH242541   3.539   6.725  11.725  0.4994 -0.1442  0.0895
 7017TIP3    H142542   3.494   6.703  11.643  2.4250 -0.8646 -0.8212
 7017TIP3    H242543   3.581   6.643  11.752  0.1521  0.1626  1.6598
 7018TIP3   OH242544   4.829   5.558   2.304 -0.3132  0.1430  0.0661
 7018TIP3    H142545   4.882   5.633   2.332  2.6425 -1.5422 -0.5850
 7018TIP3    H242546   4.837   5.495   2.375 -1.6633 -0.1230  0.0177
 7019TIP3   OH242547   1.942   1.815  12.152 -1.1067 -0.0801 -0.1277
 7019TIP3    H142548   1.942   1.902  12.192  0.6890 -1.3227  2.9129
 7019TIP3    H242549   1.850   1.788  12.154 -1.2486  0.2724  2.6696
 7020TIP3   OH242550   1.706   5.442   1.450 -0.0419  0.0288  0.2351
 7020TIP3    H142551   1.759   5.417   1.526 -0.1867  2.0452  1.0624
 7020TIP3    H242552   1.620   5.404   1.468  0.8230 -2.6279 -0.7570
 7021TIP3   OH242553   5.757   3.973  11.019 -0.5730 -0.0440  1.0634
 7021TIP3    H142554   5.733   3.886  11.051 -1.2983  0.1990  1.1859
 7021TIP3    H242555   5.676   4.023  11.023 -0.9041 -0.1723 -1.7695
 7022TIP3   OH242556   6.252   3.048   0.813 -0.7276 -0.2428 -0.2705
 7022TIP3    H142557   6.244   2.990   0.737 -1.6085  0.8798 -1.0685
 7022TIP3    H242558   6.294   2.994   0.879 -1.8901 -1.9465 -0.8343
 7023TIP3   OH242559   3.691   1.276   0.156  0.7252  0.2928 -0.4559
 7023TIP3    H142560   3.623   1.279   0.088 -1.3783  0.5771  1.5084
 7023TIP3    H242561   3.642   1.259   0.237  3.0038  0.8078  1.1240
 7024TIP3   OH242562   4.001   3.765  15.223 -0.4194 -0.4136 -0.0533
 7024TIP3    H142563   3.947   3.731  15.295 -1.8568  0.2939 -0.7476
 7024TIP3    H242564   4.090   3.737  15.244 -0.8765 -0.6273  1.7521
 7025TIP3   OH242565   2.654   0.579   3.584 -0.4569 -0.0396 -0.3859
 7025TIP3    H142566   2.600   0.617   3.515  0.0557  1.9630  0.2319
 7025TIP3    H242567   2.730   0.543   3.538 -0.9762 -0.3829 -1.0010
 7026TIP3   OH242568   2.721   1.363  13.433 -0.1798  0.0615  0.4968
 7026TIP3    H142569   2.804   1.361  13.479  0.2040 -1.2006 -0.2121
 7026TIP3    H242570   2.678   1.443  13.465  2.8276  2.8765 -1.8533
 7027TIP3   OH242571   3.248   2.343  13.571 -0.9311 -0.3232  0.6744
 7027TIP3    H142572   3.309   2.329  13.499 -2.4239  0.7340 -0.8737
 7027TIP3    H242573   3.304   2.357  13.647  0.7169 -0.6893 -0.4178
 7028TIP3   OH242574   0.309   2.538   6.242  0.0247  0.3232  0.0382
 7028TIP3    H142575   0.340   2.455   6.207  0.1591 -0.1332  1.2063
 7028TIP3    H242576   0.214   2.529   6.246 -0.2435  1.2402 -2.3095
 7029TIP3   OH242577   4.811   1.735  16.903  0.1236  0.2346  0.0930
 7029TIP3    H142578   4.847   1.691  16.827  1.6752  1.5860 -0.0150
 7029TIP3    H242579   4.859   1.699  16.977  2.7514  2.8689 -0.1558
 7030TIP3   OH242580   2.246   2.989  11.081 -0.0123 -0.3911  0.7818
 7030TIP3    H142581   2.247   2.964  11.174  0.2568  2.0327  1.5036
 7030TIP3    H242582   2.328   2.955  11.046  0.9786  0.6099  2.0396
 7031TIP3   OH242583   5.624   0.733  15.988  0.4296  0.2889 -0.2399
 7031TIP3    H142584   5.706   0.741  16.037 -0.2097  1.1890  0.7396
 7031TIP3    H242585   5.571   0.807  16.019  0.0109  0.9371 -2.3589
 7032TIP3   OH242586   5.576   1.131   0.225 -0.1065 -0.1935 -0.1053
 7032TIP3    H142587   5.641   1.105   0.290 -0.7732 -0.3086  0.5240
 7032TIP3    H242588   5.541   1.049   0.191 -1.4930 -0.1643  1.1598
 7033TIP3   OH242589   2.973   2.628  14.657  0.4205  0.1081 -0.9663
 7033TIP3    H142590   3.045   2.688  14.637  0.6565  0.2233  0.1843
 7033TIP3    H242591   2.910   2.681  14.705  0.3334 -0.3941 -0.5158
 7034TIP3   OH242592   2.919   2.892   2.311  0.2136 -0.2337 -0.4388
 7034TIP3    H142593   2.944   2.979   2.342 -2.7993  0.2623  0.9777
 7034TIP3    H242594   2.871   2.908   2.229 -1.2862 -0.4006  0.3797
 7035TIP3   OH242595   6.525   0.680   1.625  1.1077 -0.4498 -0.5158
 7035TIP3    H142596   6.498   0.770   1.639  1.4555 -0.0110 -2.3853
 7035TIP3    H242597   6.615   0.686   1.593  1.1231 -1.4506 -0.7075
 7036TIP3   OH242598   3.842   6.528  14.889 -0.3497 -0.0418 -0.1269
 7036TIP3    H142599   3.820   6.584  14.815  1.0198  0.9542  0.1669
 7036TIP3    H242600   3.759   6.513  14.934 -1.0363  0.1537 -1.3065
 7037TIP3   OH242601   3.984   6.433  16.846  0.2879  0.1928 -0.0632
 7037TIP3    H142602   4.040   6.384  16.907  1.3979 -0.3816 -1.4837
 7037TIP3    H242603   3.991   6.524  16.875  1.0052 -0.0356  0.5050
 7038TIP3   OH242604   5.433   4.619   4.836  0.6883 -0.2803 -0.2746
 7038TIP3    H142605   5.467   4.530   4.845  0.3089 -0.2634  1.5804
 7038TIP3    H242606   5.394   4.639   4.921  0.9345  1.7359 -0.5934
 7039TIP3   OH242607   2.939   4.954  12.506  0.1503  0.0307 -0.1813
 7039TIP3    H142608   2.867   4.950  12.443 -1.3697  1.2463  1.4081
 7039TIP3    H242609   3.013   4.989  12.455 -1.3135  2.0094 -1.0768
 7040TIP3   OH242610   5.108   4.925   6.125 -0.3098  0.0631 -0.0724
 7040TIP3    H142611   5.017   4.896   6.129 -0.5166  0.7745  0.6877
 7040TIP3    H242612   5.118   4.984   6.200  0.7412  0.0999 -0.2198
 7041TIP3   OH242613   1.883   0.528  14.071  0.1852  0.1549  0.3276
 7041TIP3    H142614   1.915   0.545  14.160  0.2285 -2.4878  0.8975
 7041TIP3    H242615   1.955   0.555  14.014  0.2664  1.6338  1.0787
 7042TIP3   OH242616   4.957   4.593   1.464 -0.4480 -0.3136  0.0335
 7042TIP3    H142617   4.870   4.574   1.427 -1.8212  2.6648  1.3653
 7042TIP3    H242618   4.939   4.626   1.552  2.1860 -0.8010  0.8273
 7043TIP3   OH242619   1.709   4.572   5.788 -0.3858  0.0414 -0.3734
 7043TIP3    H142620   1.804   4.571   5.775 -0.4125  0.2116 -0.5994
 7043TIP3    H242621   1.696   4.534   5.874 -0.0354  1.0148  0.1238
 7044TIP3   OH242622   3.873   5.764  10.746 -0.4407  0.2199 -0.2306
 7044TIP3    H142623   3.922   5.845  10.734 -0.5022  0.1369 -1.0977
 7044TIP3    H242624   3.796   5.789  10.798  0.3007  0.4235  0.7946
 7045TIP3   OH242625   2.621   3.592  12.280  1.0321 -0.4042 -0.5883
 7045TIP3    H142626   2.548   3.531  12.272 -0.7847  1.4698  0.5756
 7045TIP3    H242627   2.664   3.589  12.195 -1.6012 -0.1914 -2.0578
 7046TIP3   OH242628   0.083   5.161   4.690 -0.5895 -0.7659 -0.3657
 7046TIP3    H142629  -0.010   5.176   4.707 -0.5327 -1.1339  0.2722
 7046TIP3    H242630   0.106   5.228   4.626 -0.5458  1.3314  1.7190
 7047TIP3   OH242631   6.565   0.440  14.294  0.0183 -0.3567 -0.7840
 7047TIP3    H142632   6.627   0.367  14.295 -0.4913 -0.8182 -1.3773
 7047TIP3    H242633   6.618   0.516  14.273  0.9228 -0.1509  1.9045
 7048TIP3   OH242634   5.286   0.600  10.446  0.0049 -0.3427 -0.2202
 7048TIP3    H142635   5.363   0.613  10.391 -1.5573 -1.8368 -2.9823
 7048TIP3    H242636   5.212   0.619  10.388 -1.7587  0.4421  2.1467
 7049TIP3   OH242637   5.801   1.435  12.134 -0.2735 -0.3829 -0.3835
 7049TIP3    H142638   5.754   1.466  12.056 -0.6218 -0.7738 -0.3347
 7049TIP3    H242639   5.753   1.475  12.207 -0.6791 -0.9738 -0.3235
 7050TIP3   OH242640   0.291   5.344   5.286 -0.2332  0.0992  0.3031
 7050TIP3    H142641   0.351   5.315   5.354  0.8442  1.2333 -0.1190
 7050TIP3    H242642   0.205   5.348   5.329 -0.2005 -2.2936  0.7161
 7051TIP3   OH242643   2.277   6.089   6.019  0.0048 -0.0274  0.5555
 7051TIP3    H142644   2.293   6.175   6.058 -1.8172  0.8121 -0.4307
 7051TIP3    H242645   2.232   6.040   6.089  1.3287 -0.3160  1.2277
 7052TIP3   OH242646   0.528   1.306  13.943 -0.2901 -0.3447  0.0069
 7052TIP3    H142647   0.511   1.362  13.867  0.9512  0.4286  0.2922
 7052TIP3    H242648   0.457   1.327  14.004 -0.7358 -0.2552 -0.5272
 7053TIP3   OH242649   3.612   3.018  14.445 -0.0923  0.1472  0.6340
 7053TIP3    H142650   3.558   3.063  14.379 -0.3688 -1.3566 -0.2309
 7053TIP3    H242651   3.549   2.987  14.510  0.2082  1.8489  1.7856
 7054TIP3   OH242652   1.595   6.552  14.871  0.7615 -0.4557  0.9162
 7054TIP3    H142653   1.610   6.614  14.942 -0.0367  1.9142 -0.8211
 7054TIP3    H242654   1.505   6.522  14.885  0.0695  1.1332  0.2088
 7055TIP3   OH242655   1.073   4.110  12.972 -0.3435 -0.4057 -0.0292
 7055TIP3    H142656   1.084   4.188  12.918  0.3350 -0.5966 -0.1754
 7055TIP3    H242657   1.161   4.074  12.980 -0.3458 -0.0976  1.6588
 7056TIP3   OH242658   2.697   0.717   0.613 -0.0434 -0.4037 -0.4759
 7056TIP3    H142659   2.735   0.762   0.537  1.0728  0.1937  0.4050
 7056TIP3    H242660   2.734   0.762   0.688 -2.2419 -0.0269  0.4634
 7057TIP3   OH242661   6.480   0.921  12.150  0.1977  0.2851 -0.4792
 7057TIP3    H142662   6.511   0.985  12.214 -1.0805  1.5595 -1.0854
 7057TIP3    H242663   6.401   0.960  12.113 -1.7756 -2.5284  0.4941
 7058TIP3   OH242664   3.748   0.656  13.163  0.9496  0.1839  0.4686
 7058TIP3    H142665   3.718   0.586  13.106  2.0331 -0.1048  0.2354
 7058TIP3    H242666   3.700   0.733  13.133  0.5413 -0.2388  0.0268
 7059TIP3   OH242667   6.747   4.781  11.145 -0.1691 -0.2529  0.0723
 7059TIP3    H142668   6.710   4.802  11.231 -1.2150  0.3336 -0.4980
 7059TIP3    H242669   6.712   4.694  11.125 -0.2105 -0.2403  0.0878
 7060TIP3   OH242670   6.675   4.186   0.452  0.7842  0.0316 -0.2599
 7060TIP3    H142671   6.630   4.188   0.368  1.8616 -0.0583 -0.8487
 7060TIP3    H242672   6.614   4.141   0.511 -0.3604  0.8952 -0.7444
 7061TIP3   OH242673   3.209   0.857   4.433  0.0586 -0.0197  0.7790
 7061TIP3    H142674   3.205   0.881   4.526 -1.0128  0.9587  0.4981
 7061TIP3    H242675   3.250   0.770   4.433  0.0786 -0.0410  2.1600
 7062TIP3   OH242676   5.335   2.817   4.281  0.1057  0.1185 -0.0260
 7062TIP3    H142677   5.292   2.860   4.355  2.4011  2.8783 -0.1309
 7062TIP3    H242678   5.265   2.768   4.238 -2.0695  1.3125  1.9043
 7063TIP3   OH242679   2.991   5.593  10.654  0.0590 -0.1221 -0.5623
 7063TIP3    H142680   2.899   5.582  10.629 -0.7455 -0.8922  2.3628
 7063TIP3    H242681   2.995   5.682  10.690 -0.0613 -0.7509  1.0888
 7064TIP3   OH242682   0.193   0.041   0.340  0.0348 -0.7794  0.0379
 7064TIP3    H142683   0.244   0.050   0.260 -0.5746  0.6386 -0.2312
 7064TIP3    H242684   0.233   0.103   0.401 -0.0472 -1.2093  0.5319
 7065TIP3   OH242685   3.752   3.182  14.958  0.2756  0.1666 -0.5091
 7065TIP3    H142686   3.754   3.107  15.018 -2.3456 -0.5663 -1.2066
 7065TIP3    H242687   3.715   3.147  14.877 -0.7820  2.1491 -0.9504
 7066TIP3   OH242688   4.868   1.220  13.511 -0.2809 -0.1136  0.7181
 7066TIP3    H142689   4.846   1.127  13.502 -0.7475  0.1243 -0.9935
 7066TIP3    H242690   4.813   1.264  13.446  1.4752  1.1204 -0.0046
 7067TIP3   OH242691   4.589   5.519   0.668  0.0253 -0.2881 -0.0019
 7067TIP3    H142692   4.523   5.549   0.605 -0.0271  1.3945  0.8041
 7067TIP3    H242693   4.620   5.599   0.710  2.3538 -1.0544 -0.1044
 7068TIP3   OH242694   4.295   1.640   4.807 -0.2497 -0.1654 -0.1402
 7068TIP3    H142695   4.339   1.624   4.723 -1.6168 -1.9862 -0.5757
 7068TIP3    H242696   4.229   1.571   4.812 -0.6547  0.3310  2.1353
 7069TIP3   OH242697   2.062   1.723   5.572  0.5075  0.0442  0.1558
 7069TIP3    H142698   2.030   1.689   5.488  1.6210  1.2844 -0.8001
 7069TIP3    H242699   2.084   1.644   5.622 -2.1308 -0.8112  0.1533
 7070TIP3   OH242700   6.445   3.516   4.462 -0.2843  0.0410 -0.2558
 7070TIP3    H142701   6.506   3.584   4.434  0.0662 -0.0249  0.3278
 7070TIP3    H242702   6.458   3.444   4.400  1.0091 -0.3953  0.4873
 7071TIP3   OH242703   4.393   6.788  15.290  0.3883  0.3868 -0.1867
 7071TIP3    H142704   4.298   6.777  15.299  0.2646 -1.0865 -2.5379
 7071TIP3    H242705   4.427   6.778  15.379 -1.6022  0.4982  0.6357
 7072TIP3   OH242706   0.329   4.318   0.165  0.2522  0.1763 -0.6725
 7072TIP3    H142707   0.327   4.375   0.242  0.8959  1.2785 -1.4418
 7072TIP3    H242708   0.394   4.358   0.107  2.0437 -2.2912 -0.5399
 7073TIP3   OH242709   3.327   6.500  11.947 -0.4249 -0.4709 -0.0593
 7073TIP3    H142710   3.307   6.588  11.977 -2.2299 -1.1591  0.9643
 7073TIP3    H242711   3.396   6.469  12.006 -0.1359  0.0674 -0.1115
 7074TIP3   OH242712   2.740   1.619   3.642  0.2758 -0.4183  0.1701
 7074TIP3    H142713   2.811   1.637   3.704 -0.2282  0.7550  0.4325
 7074TIP3    H242714   2.713   1.705   3.611 -0.5891 -0.8919 -0.4323
 7075TIP3   OH242715   1.730   4.429  14.167 -0.4961  0.3310  0.6115
 7075TIP3    H142716   1.680   4.509  14.151 -1.6830 -0.2680  1.1981
 7075TIP3    H242717   1.721   4.379  14.086  0.6337  0.9642  0.0697
 7076TIP3   OH242718   4.188   6.425   2.353  0.0601 -0.2188  0.2035
 7076TIP3    H142719   4.159   6.349   2.402  1.4641 -0.5951  0.4952
 7076TIP3    H242720   4.279   6.438   2.381 -0.0731  1.4022 -0.0365
 7077TIP3   OH242721   3.101   6.584   1.893  0.1897 -0.2388  0.1973
 7077TIP3    H142722   3.135   6.530   1.965  0.5248  0.8409  0.8615
 7077TIP3    H242723   3.049   6.523   1.841 -1.1464 -0.7887  2.0646
 7078TIP3   OH242724   1.445   5.715  10.910  0.0318  0.8043 -0.2906
 7078TIP3    H142725   1.373   5.772  10.880 -1.1002 -0.9401 -1.0398
 7078TIP3    H242726   1.498   5.702  10.831  0.2009  0.6927 -0.1562
 7079TIP3   OH242727   1.988   5.514  14.116 -0.0111 -0.1239 -0.1272
 7079TIP3    H142728   1.918   5.576  14.134 -0.2361 -0.3856 -0.0909
 7079TIP3    H242729   1.978   5.446  14.183  0.1248 -0.2881 -0.2727
 7080TIP3   OH242730   4.785   1.670  13.756  0.1416 -0.1868  0.1777
 7080TIP3    H142731   4.694   1.646  13.772 -0.4718 -0.0145 -2.5489
 7080TIP3    H242732   4.833   1.634  13.831 -2.0091 -1.1682  1.1740
 7081TIP3   OH242733   2.768   5.576   3.120 -0.3014 -0.2571  0.5556
 7081TIP3    H142734   2.861   5.587   3.144  0.0377 -0.8582 -0.4220
 7081TIP3    H242735   2.720   5.606   3.197  0.7287 -0.9253  1.5022
 7082TIP3   OH242736   6.008   5.746  14.197 -0.0026  0.6534  0.2698
 7082TIP3    H142737   5.973   5.758  14.285  0.7604  1.0236  0.5400
 7082TIP3    H242738   6.048   5.659  14.199 -0.5283  0.4034  0.0895
 7083TIP3   OH242739   3.829   5.791   3.110  0.1929 -0.1597 -0.2355
 7083TIP3    H142740   3.791   5.706   3.133 -0.3639  0.1340 -0.0326
 7083TIP3    H242741   3.782   5.816   3.030  1.7488 -0.9393 -1.4547
 7084TIP3   OH242742   0.453   6.042  14.052  0.0161  0.4199  0.2894
 7084TIP3    H142743   0.380   5.994  14.014  0.2210 -1.4552  2.1035
 7084TIP3    H242744   0.522   6.037  13.985 -1.0219  1.0521 -0.8816
 7085TIP3   OH242745   0.975   6.127  15.527 -0.4217  0.3266  0.5233
 7085TIP3    H142746   0.965   6.191  15.456  0.3288  0.4020  0.4772
 7085TIP3    H242747   0.978   6.042  15.483  1.7918  0.4660  0.2514
 7086TIP3   OH242748   4.236   0.492  12.872  0.5405 -0.2002  0.0302
 7086TIP3    H142749   4.169   0.553  12.842  0.3024 -0.8593 -0.8446
 7086TIP3    H242750   4.263   0.524  12.958  1.3020  1.8365 -0.9032
 7087TIP3   OH242751   6.855   3.708  11.876  0.5079  0.3435  0.1752
 7087TIP3    H142752   6.870   3.801  11.897  0.5603  0.4074 -0.1432
 7087TIP3    H242753   6.887   3.661  11.953 -0.3647  0.6322  0.7241
 7088TIP3   OH242754   6.009   3.885  14.267  0.4385 -0.6220  0.3629
 7088TIP3    H142755   5.915   3.885  14.288  0.1349 -0.9280 -0.9398
 7088TIP3    H242756   6.045   3.813  14.319 -0.3974 -1.7267 -0.5415
 7089TIP3   OH242757   4.600   3.934  13.816 -0.4002  0.6395  0.0423
 7089TIP3    H142758   4.593   4.022  13.779  0.5986  0.1909 -1.2922
 7089TIP3    H242759   4.511   3.900  13.815 -0.8512  1.7402  0.8935
 7090TIP3   OH242760   6.264   5.850  16.424  0.6619  0.7767  0.4833
 7090TIP3    H142761   6.357   5.842  16.402  1.0141  2.4886  1.1656
 7090TIP3    H242762   6.221   5.853  16.338  0.8642 -2.6249  0.1164
 7091TIP3   OH242763   4.901   2.330   5.719  0.2474  0.0472 -0.6983
 7091TIP3    H142764   4.885   2.319   5.625 -0.5239 -0.4336 -0.5221
 7091TIP3    H242765   4.824   2.378   5.751  0.3289 -0.1196 -0.2456
 7092TIP3   OH242766   4.522   0.110   5.147 -0.1227  0.1481  0.0503
 7092TIP3    H142767   4.575   0.127   5.069 -0.1573 -2.0159 -0.4963
 7092TIP3    H242768   4.526   0.192   5.196  3.4269  0.2496 -0.1284
 7093TIP3   OH242769   1.955   3.470  14.621 -0.5140  0.2759  0.3543
 7093TIP3    H142770   1.863   3.495  14.633 -0.6063 -0.2415  0.8082
 7093TIP3    H242771   1.958   3.378  14.649  0.1108  0.2453  0.1974
 7094TIP3   OH242772   3.886   6.148  11.129  0.9993  0.0900 -0.3306
 7094TIP3    H142773   3.836   6.219  11.170  0.3098 -0.2685 -0.5360
 7094TIP3    H242774   3.918   6.096  11.202  1.7554  0.7635 -0.1625
 7095TIP3   OH242775   3.898   2.881  12.149 -0.0040 -0.5260  0.4469
 7095TIP3    H142776   3.808   2.867  12.179 -0.0266  0.8888  1.1279
 7095TIP3    H242777   3.949   2.891  12.229  0.7339 -1.0966  0.0610
 7096TIP3   OH242778   4.625   0.473  11.213 -0.3398  0.4726 -0.2490
 7096TIP3    H142779   4.559   0.438  11.273 -1.3101  0.7538 -1.1132
 7096TIP3    H242780   4.596   0.444  11.127 -1.4374  3.6148 -1.0712
 7097TIP3   OH242781   1.616   6.365   1.051 -0.3936  0.0627  0.2408
 7097TIP3    H142782   1.550   6.413   1.001 -0.5141  0.8229  1.1143
 7097TIP3    H242783   1.567   6.297   1.096 -0.5291  0.3931  0.5955
 7098TIP3   OH242784   6.471   6.736  11.391 -0.0144  0.4146 -0.6623
 7098TIP3    H142785   6.476   6.802  11.322  0.0120  0.3350 -0.7367
 7098TIP3    H242786   6.537   6.671  11.366 -1.4281 -0.6796 -1.6792
 7099TIP3   OH242787   4.152   3.773  13.671 -0.1327 -0.0575  0.4930
 7099TIP3    H142788   4.147   3.868  13.685 -3.5331  0.2802 -1.7423
 7099TIP3    H242789   4.207   3.764  13.593  1.7980 -0.1552  1.8212
 7100TIP3   OH242790   2.111   3.078  12.772  0.0700  0.5177 -1.0880
 7100TIP3    H142791   2.204   3.071  12.793 -0.1265 -1.8096 -0.7253
 7100TIP3    H242792   2.078   3.145  12.831  0.8689 -1.1070  1.3561
 7101TIP3   OH242793   2.697   5.561  14.360 -0.2938  0.3949  0.5865
 7101TIP3    H142794   2.766   5.627  14.357 -0.8565  1.1533  2.5674
 7101TIP3    H242795   2.661   5.568  14.449 -2.2322 -0.6918 -0.0575
 7102TIP3   OH242796   6.600   1.906  11.597  0.2353  0.4044  0.1469
 7102TIP3    H142797   6.599   1.810  11.592 -0.2106  0.4377 -0.5602
 7102TIP3    H242798   6.573   1.926  11.686 -1.0370 -0.1075 -0.1114
 7103TIP3   OH242799   2.027   0.073  15.781 -0.0071  0.1955  0.0765
 7103TIP3    H142800   2.027   0.062  15.686  0.2561  1.4892 -0.0994
 7103TIP3    H242801   1.972   0.150  15.796  1.5771  1.2664  0.7590
 7104TIP3   OH242802   0.101   4.134  16.997 -0.3567  0.2930 -0.4075
 7104TIP3    H142803   0.084   4.217  17.040  2.8143  1.6122 -1.3895
 7104TIP3    H242804   0.157   4.086  17.059 -0.7242 -0.3849 -0.5830
 7105TIP3   OH242805   0.717   1.445  16.098 -0.5437 -0.1137 -0.0191
 7105TIP3    H142806   0.709   1.394  16.178 -2.0715 -0.2424 -0.2378
 7105TIP3    H242807   0.773   1.519  16.122  0.1842 -0.9017  0.7719
 7106TIP3   OH242808   3.626   6.488  14.527  0.2569 -0.3398 -0.5242
 7106TIP3    H142809   3.564   6.472  14.597  0.9925 -0.4124  0.1213
 7106TIP3    H242810   3.580   6.545  14.466 -0.5028 -0.5565 -0.1560
 7107TIP3   OH242811   4.144   2.587   3.586 -0.5865 -0.5750 -0.5067
 7107TIP3    H142812   4.223   2.597   3.533 -0.8480  0.4593 -0.7118
 7107TIP3    H242813   4.173   2.539   3.664  0.7719  1.7635  0.5328
 7108TIP3   OH242814   6.511   6.566   5.769  0.0055 -0.5660 -0.3588
 7108TIP3    H142815   6.514   6.470   5.772  2.3150 -0.5253 -0.2797
 7108TIP3    H242816   6.592   6.595   5.809 -0.7246  1.4653 -0.2107
 7109TIP3   OH242817   4.590   1.657   6.620  0.3976 -0.1933 -0.0899
 7109TIP3    H142818   4.559   1.601   6.549 -2.7352 -1.5767  2.1482
 7109TIP3    H242819   4.605   1.597   6.693  2.4667  1.3019  0.8183
 7110TIP3   OH242820   1.341   4.546   4.680 -0.3814  0.2237 -0.2689
 7110TIP3    H142821   1.396   4.582   4.610  0.5364  0.9856  0.8016
 7110TIP3    H242822   1.313   4.461   4.647  1.5814 -0.2622 -0.8224
 7111TIP3   OH242823   3.886   5.545  14.351 -0.0840 -0.6393 -0.2524
 7111TIP3    H142824   3.857   5.583  14.434  1.3317  3.6805 -1.4576
 7111TIP3    H242825   3.807   5.534  14.299 -0.5728  1.6756 -0.0904
 7112TIP3   OH242826   6.551   4.624   1.124 -0.1670  0.8768  0.3331
 7112TIP3    H142827   6.614   4.688   1.090  0.0384  0.7779  0.5313
 7112TIP3    H242828   6.570   4.618   1.217  2.2194 -2.1350 -0.2092
 7113TIP3   OH242829   0.321   4.651   5.323  0.3331 -0.3397  0.1924
 7113TIP3    H142830   0.266   4.648   5.245  0.4819  0.4169  0.0534
 7113TIP3    H242831   0.263   4.621   5.394  0.2102 -1.0681 -0.1986
 7114TIP3   OH242832   3.807   3.365   1.208  0.3427 -0.2352 -0.0295
 7114TIP3    H142833   3.850   3.295   1.159 -0.1745  0.8885 -2.1890
 7114TIP3    H242834   3.879   3.421   1.239  0.6749 -0.9974  0.6220
 7115TIP3   OH242835   2.902   4.760  11.658  0.0104 -0.1663  0.7163
 7115TIP3    H142836   2.912   4.732  11.567 -1.3574  0.6575  0.2950
 7115TIP3    H242837   2.942   4.689  11.709  1.1036 -0.4787 -0.5227
 7116TIP3   OH242838   0.663   6.696  15.433  0.4680 -0.8122  0.0080
 7116TIP3    H142839   0.714   6.759  15.484  1.5980 -2.3252  0.8291
 7116TIP3    H242840   0.573   6.730  15.436  0.7820 -0.0425  1.6970
 7117TIP3   OH242841   4.705   1.826  12.032  0.5152 -0.2425  0.0252
 7117TIP3    H142842   4.762   1.821  12.108  0.2811  0.0171  0.2202
 7117TIP3    H242843   4.762   1.807  11.958  0.4949 -1.7479  0.3627
 7118TIP3   OH242844   2.378   2.704  16.514 -0.4412 -0.7729  0.3178
 7118TIP3    H142845   2.426   2.781  16.482 -0.3072  0.7638  3.6734
 7118TIP3    H242846   2.398   2.635  16.451  2.2641  1.0459 -1.0409
 7119TIP3   OH242847   5.289   1.401  12.076 -0.2596 -0.3551 -0.3997
 7119TIP3    H142848   5.354   1.358  12.131 -0.4607 -0.7050 -0.4289
 7119TIP3    H242849   5.334   1.416  11.993  0.1666  0.5281 -0.0206
 7120TIP3   OH242850   6.152   3.617  16.983 -0.2303 -0.1586  0.1871
 7120TIP3    H142851   6.134   3.589  17.073 -1.7588 -3.2873 -0.9405
 7120TIP3    H242852   6.070   3.657  16.953 -0.1199 -0.2031 -0.1813
 7121TIP3   OH242853   3.484   4.764  12.136  0.4484 -0.0377 -0.0293
 7121TIP3    H142854   3.547   4.809  12.078  0.2503  1.6540  0.9912
 7121TIP3    H242855   3.486   4.816  12.217 -1.8208 -0.3094  0.2427
 7122TIP3   OH242856   0.884   6.025   3.610 -0.2829 -0.1450 -0.1487
 7122TIP3    H142857   0.886   6.023   3.515 -1.0009 -0.3006 -0.1668
 7122TIP3    H242858   0.949   5.960   3.637 -0.0364 -0.0570 -0.5249
 7123TIP3   OH242859   5.649   1.053   2.054  0.3691 -0.0368  0.1264
 7123TIP3    H142860   5.667   1.114   1.982 -2.3852  1.5266  0.6003
 7123TIP3    H242861   5.666   0.966   2.017  0.2989  0.7944 -2.0070
 7124TIP3   OH242862   0.726   4.297  12.851 -0.1360 -0.6075 -0.4618
 7124TIP3    H142863   0.714   4.361  12.922 -0.6567 -0.2866 -0.8286
 7124TIP3    H242864   0.663   4.324  12.784 -0.5272 -1.6409 -0.5326
 7125TIP3   OH242865   1.837   2.176  11.694  0.0258 -0.0057  0.7183
 7125TIP3    H142866   1.905   2.111  11.715 -1.4158 -1.9066 -0.1435
 7125TIP3    H242867   1.886   2.252  11.663  1.8014 -0.8074  1.3974
 7126TIP3   OH242868   2.775   0.485   1.729  0.1889 -0.0176 -0.6333
 7126TIP3    H142869   2.703   0.515   1.674  1.0190  0.6988 -1.3734
 7126TIP3    H242870   2.797   0.398   1.694  2.1950  1.3223 -3.0623
 7127TIP3   OH242871   3.635   0.695   5.631  0.0032 -0.2945 -0.9202
 7127TIP3    H142872   3.608   0.612   5.671 -0.7195 -0.2929 -1.3902
 7127TIP3    H242873   3.638   0.757   5.704 -0.7343 -0.4300 -0.7650
 7128TIP3   OH242874   1.693   4.388   0.413  0.1236 -0.6170  0.2595
 7128TIP3    H142875   1.605   4.423   0.427  0.3498  0.3720 -0.7398
 7128TIP3    H242876   1.749   4.441   0.470 -0.0318 -2.0155  1.8210
 7129TIP3   OH242877   0.930   3.202  15.903 -0.1982  0.0576  0.1839
 7129TIP3    H142878   0.875   3.138  15.857 -0.2626 -0.1010  0.4798
 7129TIP3    H242879   0.968   3.154  15.976  0.5869  0.0875 -0.1967
 7130TIP3   OH242880   6.840   3.983   4.445 -0.5573 -0.5419 -0.0273
 7130TIP3    H142881   6.908   3.970   4.511 -0.5472 -0.0575  0.0563
 7130TIP3    H242882   6.866   4.061   4.398 -1.1332 -0.2606  0.1092
 7131TIP3   OH242883   2.171   4.778  14.250 -0.4133  0.2437  0.1804
 7131TIP3    H142884   2.102   4.716  14.226 -0.2352  0.6525 -1.4546
 7131TIP3    H242885   2.202   4.814  14.167  0.7611  1.1667  0.9821
 7132TIP3   OH242886   5.696   1.384  10.486  0.7555  0.6694  0.0602
 7132TIP3    H142887   5.786   1.351  10.490  1.1179  1.3558 -1.5735
 7132TIP3    H242888   5.651   1.322  10.429  0.7723  1.5233 -0.9070
 7133TIP3   OH242889   4.460   4.025   3.919  0.4735 -0.2544  0.6371
 7133TIP3    H142890   4.374   4.036   3.959 -0.4723 -1.5730 -0.8923
 7133TIP3    H242891   4.467   4.097   3.856  0.9131  0.3945  1.4108
 7134TIP3   OH242892   0.344   0.362   2.843 -0.0015 -0.4347  0.0072
 7134TIP3    H142893   0.348   0.392   2.934  2.2136  3.2294 -1.1081
 7134TIP3    H242894   0.267   0.406   2.807  1.0771  0.9786 -0.6719
 7135TIP3   OH242895   1.161   2.651   1.443  0.4964  0.0298 -0.6821
 7135TIP3    H142896   1.236   2.711   1.449  1.1525 -0.8454  0.0968
 7135TIP3    H242897   1.130   2.661   1.354 -0.4582  2.7663 -0.1480
 7136TIP3   OH242898   6.306   1.796   1.087  0.0343  0.2052  0.6580
 7136TIP3    H142899   6.264   1.877   1.059 -2.0129 -0.7397  0.8397
 7136TIP3    H242900   6.234   1.740   1.115  1.5161 -1.1016  2.0883
 7137TIP3   OH242901   4.256   5.717  12.119  0.6735 -0.2418  0.0121
 7137TIP3    H142902   4.337   5.754  12.083  1.0829 -3.5138 -2.9342
 7137TIP3    H242903   4.283   5.674  12.199  2.3818 -2.6275 -1.6981
 7138TIP3   OH242904   5.409   0.726   4.855  0.9835 -0.8329  0.1810
 7138TIP3    H142905   5.378   0.813   4.833  1.1347 -0.7876  0.1488
 7138TIP3    H242906   5.340   0.667   4.825  0.6957 -0.6984  0.5704
 7139TIP3   OH242907   4.420   4.080   1.331 -0.1583  0.2442  0.4163
 7139TIP3    H142908   4.415   4.173   1.310  2.1229  0.0120 -1.6733
 7139TIP3    H242909   4.447   4.039   1.249  2.1255 -1.7915  2.0452
 7140TIP3   OH242910   4.389   6.340   0.506  0.0828 -0.3977 -0.2176
 7140TIP3    H142911   4.475   6.326   0.545  0.3258 -1.9135 -1.2210
 7140TIP3    H242912   4.356   6.252   0.487 -2.0304  0.0852  0.8194
 7141TIP3   OH242913   1.757   0.987   3.661 -0.0363  0.4797  0.2093
 7141TIP3    H142914   1.772   0.904   3.616  1.4585  0.6665  0.3258
 7141TIP3    H242915   1.758   1.053   3.591 -0.9948  0.4520  0.1462
 7142TIP3   OH242916   5.765   2.230  14.362 -0.4775  0.0266 -0.0139
 7142TIP3    H142917   5.713   2.285  14.420  0.1750  0.2401  0.3773
 7142TIP3    H242918   5.707   2.158  14.339 -0.8979  0.1836  0.5344
 7143TIP3   OH242919   3.375   5.526  14.244  0.0132 -0.0340 -0.1681
 7143TIP3    H142920   3.319   5.601  14.265 -0.2624 -0.0114 -0.9365
 7143TIP3    H242921   3.388   5.482  14.328  0.2402  0.9082  0.3074
 7144TIP3   OH242922   4.460   0.137  13.930 -0.2688  0.1136  0.3950
 7144TIP3    H142923   4.501   0.152  14.016 -0.1619  1.3624  0.1463
 7144TIP3    H242924   4.442   0.043  13.928 -2.1252  0.3383  2.6375
 7145TIP3   OH242925   1.231   0.035  12.529  0.4295  0.4325 -0.2154
 7145TIP3    H142926   1.312   0.052  12.576  0.2736  1.6528 -0.3620
 7145TIP3    H242927   1.213  -0.058  12.545  1.9514  0.0870 -0.3558
 7146TIP3   OH242928   4.772   3.537   3.884 -0.1858  0.1790  0.8121
 7146TIP3    H142929   4.692   3.581   3.914  0.6567  1.3834  1.3704
 7146TIP3    H242930   4.831   3.608   3.860  1.0271 -0.6576  1.2073
 7147TIP3   OH242931   5.819   4.211  14.553  0.0472  0.2398 -0.1944
 7147TIP3    H142932   5.787   4.210  14.463  0.9140 -2.0800 -0.5391
 7147TIP3    H242933   5.740   4.210  14.607 -0.4705  0.8983 -0.9142
 7148TIP3   OH242934   5.540   2.850  12.286 -0.3274  0.0011  0.6797
 7148TIP3    H142935   5.465   2.906  12.265  0.6227  1.1511  0.2531
 7148TIP3    H242936   5.603   2.909  12.328  1.8539 -0.0242 -2.2411
 7149TIP3   OH242937   5.629   5.531   3.275 -0.0914 -0.1628 -0.1928
 7149TIP3    H142938   5.689   5.459   3.291  0.8665  0.3633 -1.2680
 7149TIP3    H242939   5.663   5.603   3.328  1.9237  0.9755 -2.8215
 7150TIP3   OH242940   1.542   4.057  13.479 -0.5328  0.0070  0.0005
 7150TIP3    H142941   1.633   4.030  13.483 -0.8888 -1.1433  0.5322
 7150TIP3    H242942   1.546   4.153  13.478  0.6114  0.1927  3.8939
 7151TIP3   OH242943   3.573   4.091  16.529  0.1775  0.2391  0.1920
 7151TIP3    H142944   3.586   4.171  16.580  1.1523 -0.4763  1.1059
 7151TIP3    H242945   3.481   4.094  16.502 -0.6062  0.2867  2.6613
 7152TIP3   OH242946   2.820   1.224  11.050  0.4116  0.4973 -0.8969
 7152TIP3    H142947   2.726   1.222  11.034  0.3761  0.6654 -0.7142
 7152TIP3    H242948   2.829   1.211  11.145  0.6360 -0.9190 -1.0872
 7153TIP3   OH242949   5.232   2.258  11.638  0.0480  0.3067 -0.4492
 7153TIP3    H142950   5.160   2.321  11.644  0.3299  0.7565 -1.5238
 7153TIP3    H242951   5.280   2.268  11.719 -0.4762  0.7805 -0.1918
 7154TIP3   OH242952   0.106   5.827  16.860  0.0163  0.1096 -0.1767
 7154TIP3    H142953   0.174   5.880  16.819  3.2475 -2.8391  0.7871
 7154TIP3    H242954   0.130   5.737  16.838 -2.1337 -1.2342  2.3670
 7155TIP3   OH242955   0.682   5.275  12.265 -0.4656  0.0837 -0.3381
 7155TIP3    H142956   0.776   5.268  12.249 -0.2913  1.5916 -0.0547
 7155TIP3    H242957   0.674   5.282  12.360 -0.7710  1.1094 -0.4327
 7156TIP3   OH242958   1.454   2.811   5.332 -0.4180 -0.1346 -0.3388
 7156TIP3    H142959   1.374   2.845   5.373 -1.1712 -1.0826 -0.9783
 7156TIP3    H242960   1.475   2.732   5.383 -0.7977 -0.7660 -1.1331
 7157TIP3   OH242961   6.835   3.491  16.848  0.0776  0.1198 -0.2347
 7157TIP3    H142962   6.927   3.503  16.870 -0.0409  1.0811 -0.2220
 7157TIP3    H242963   6.791   3.480  16.933  0.0147  0.8986 -0.1666
 7158TIP3   OH242964   3.279   1.894   2.638  0.4752 -0.2742 -0.7526
 7158TIP3    H142965   3.195   1.858   2.666  0.2190  0.0239 -1.1248
 7158TIP3    H242966   3.283   1.979   2.680  1.5169 -1.0995  0.9092
 7159TIP3   OH242967   2.631   5.914  14.330  0.2476 -0.3986  0.5482
 7159TIP3    H142968   2.543   5.898  14.298 -0.4738  0.5087  1.9834
 7159TIP3    H242969   2.688   5.878  14.262 -1.1978 -0.1532 -0.8591
 7160TIP3   OH242970   2.733   0.906  15.064 -0.1261 -0.3184  0.5807
 7160TIP3    H142971   2.776   0.962  15.128  0.8897 -0.1895 -0.1983
 7160TIP3    H242972   2.765   0.818  15.083 -1.0728 -0.5380  1.2618
 7161TIP3   OH242973   2.967   5.324  11.651  0.6355  0.0097  0.7077
 7161TIP3    H142974   3.009   5.266  11.587 -0.2286 -0.9940  1.0180
 7161TIP3    H242975   2.882   5.283  11.668 -0.5009  1.9866  0.1016
 7162TIP3   OH242976   1.755   6.676   0.390  0.2803  0.0385 -0.0151
 7162TIP3    H142977   1.696   6.657   0.463  0.3073  0.3266  0.0814
 7162TIP3    H242978   1.804   6.594   0.377 -0.0380 -0.1555 -0.0053
 7163TIP3   OH242979   5.195   4.487   0.293 -0.1530  0.2886 -0.1626
 7163TIP3    H142980   5.273   4.540   0.308 -0.5946  0.8278  0.2980
 7163TIP3    H242981   5.128   4.527   0.349 -1.6604  1.9113 -2.9020
 7164TIP3   OH242982   5.665   0.638   0.911  0.6516  0.1305 -0.1694
 7164TIP3    H142983   5.716   0.715   0.886  1.7619 -1.1159 -1.9669
 7164TIP3    H242984   5.722   0.592   0.973  0.0291  0.6693  0.8292
 7165TIP3   OH242985   5.397   5.298  10.983 -0.2915  0.2463  0.1646
 7165TIP3    H142986   5.428   5.208  10.981 -0.8473  0.0566  0.0944
 7165TIP3    H242987   5.311   5.295  10.941 -0.0910  0.8902 -0.3081
 7166TIP3   OH242988   5.465   5.470   0.838 -0.0790 -0.1379  0.4513
 7166TIP3    H142989   5.543   5.431   0.877 -0.1266 -1.2461 -0.5169
 7166TIP3    H242990   5.497   5.514   0.759 -0.7340 -3.1509 -1.6703
 7167TIP3   OH242991   2.013   2.453   5.632 -0.7916 -0.0217 -0.3557
 7167TIP3    H142992   2.107   2.446   5.648 -0.8987  0.4671  0.5970
 7167TIP3    H242993   1.975   2.377   5.677 -0.7346 -1.1089 -2.0769
 7168TIP3   OH242994   2.271   1.847   2.538  0.5673 -0.5945 -0.5534
 7168TIP3    H142995   2.266   1.815   2.628 -0.5725  1.9842  0.3835
 7168TIP3    H242996   2.227   1.779   2.486  1.7083 -2.3828  0.6922
 7169TIP3   OH242997   4.648   3.927   3.724 -0.5803  0.2610 -0.9319
 7169TIP3    H142998   4.587   3.958   3.791 -0.5106 -1.4695 -0.0089
 7169TIP3    H242999   4.734   3.931   3.766 -0.4670 -0.3032 -1.1021
 7170TIP3   OH243000   5.135   4.009   0.264  0.6551  0.2136 -0.0336
 7170TIP3    H143001   5.169   4.027   0.176 -0.4353 -1.0369 -0.7471
 7170TIP3    H243002   5.183   3.932   0.293  1.3563  0.9112  0.6853
 7171TIP3   OH243003   0.041   3.086  14.581 -0.5561  0.7603  0.1799
 7171TIP3    H143004  -0.001   3.149  14.639 -2.4282  0.5361 -0.8380
 7171TIP3    H243005  -0.028   3.062  14.519  1.0724  0.2070 -1.4870
 7172TIP3   OH243006   2.410   6.636  14.507  0.0835  0.7960 -0.3505
 7172TIP3    H143007   2.420   6.559  14.563  1.9974  1.9326  1.0335
 7172TIP3    H243008   2.320   6.632  14.475 -0.1798 -1.4383  0.5072
 7173TIP3   OH243009   6.078   2.810   0.627  0.2453 -0.2317 -0.0204
 7173TIP3    H143010   6.122   2.725   0.631 -1.9111 -1.4876 -1.2687
 7173TIP3    H243011   6.027   2.814   0.707  0.7420  0.1418  0.2829
 7174TIP3   OH243012   1.482   3.685  16.427 -0.2990  0.2231  0.0430
 7174TIP3    H143013   1.449   3.645  16.346  1.2779  1.4378 -1.2852
 7174TIP3    H243014   1.427   3.763  16.438  0.2530  0.7057 -0.5556
 7175TIP3   OH243015   1.691   1.526  12.973  0.7998 -0.3084  0.2394
 7175TIP3    H143016   1.633   1.454  12.948  1.1643 -0.2752 -0.7533
 7175TIP3    H243017   1.713   1.509  13.065 -1.7636  0.3760  1.0516
 7176TIP3   OH243018   4.104   1.519  12.885  0.3926 -0.4012  0.7086
 7176TIP3    H143019   4.182   1.469  12.910  2.3097  1.6024 -0.7883
 7176TIP3    H243020   4.114   1.602  12.930  0.8306  1.0334 -1.8216
 7177TIP3   OH243021   2.842   5.048  11.448  0.3089  0.3237  0.4145
 7177TIP3    H143022   2.857   4.955  11.429  0.3652  0.2362  0.8784
 7177TIP3    H243023   2.929   5.082  11.469  0.6771  1.0156 -1.9925
 7178TIP3   OH243024   1.657   5.662  16.429 -0.4381 -0.0914 -0.2355
 7178TIP3    H143025   1.653   5.706  16.514  2.8259 -0.3922  0.1959
 7178TIP3    H243026   1.575   5.613  16.423 -1.6654  1.5756  1.7781
 7179TIP3   OH243027   1.458   5.224   2.766 -0.3452  0.5631  0.1432
 7179TIP3    H143028   1.495   5.144   2.804  2.2892  0.9018 -1.4318
 7179TIP3    H243029   1.501   5.295   2.814 -0.3978  0.9963 -0.4426
 7180TIP3   OH243030   2.636   6.733  16.673  0.3795 -0.3507 -0.0396
 7180TIP3    H143031   2.683   6.672  16.615  0.1359 -0.2160 -0.3853
 7180TIP3    H243032   2.662   6.706  16.761  1.8138  0.2932 -0.2327
 7181TIP3   OH243033   5.212   0.144  12.124 -0.1753  0.2310 -0.0914
 7181TIP3    H143034   5.220   0.067  12.180 -0.3525 -0.7346 -1.3299
 7181TIP3    H243035   5.282   0.134  12.059 -0.1297  1.1819 -0.2065
 7182TIP3   OH243036   0.444   1.953   1.547 -0.2128  0.1712 -0.1627
 7182TIP3    H143037   0.494   1.890   1.495 -0.6382  0.4977 -0.9774
 7182TIP3    H243038   0.356   1.916   1.550 -1.1626  1.9334 -2.8597
 7183TIP3   OH243039   5.047   4.114   5.568  0.0640  0.8037 -0.2726
 7183TIP3    H143040   5.124   4.171   5.572  0.5550  0.1029  0.6281
 7183TIP3    H243041   5.068   4.042   5.627 -0.6551 -0.1867 -1.1892
 7184TIP3   OH243042   0.642   6.188  12.629  0.5966  0.6602  0.0406
 7184TIP3    H143043   0.708   6.242  12.671  1.8051 -1.1508  0.6231
 7184TIP3    H243044   0.661   6.196  12.535  1.7588  0.0996  0.2001
 7185TIP3   OH243045   2.946   6.427   2.184 -0.0598 -0.0711  0.2308
 7185TIP3    H143046   2.939   6.349   2.239 -0.0624  0.3719  0.8735
 7185TIP3    H243047   2.912   6.400   2.099 -1.3849 -0.3877  0.8381
 7186TIP3   OH243048   4.184   5.722   3.541 -0.3331  0.0227  0.6608
 7186TIP3    H143049   4.158   5.752   3.454 -1.2346  1.0572  1.2653
 7186TIP3    H243050   4.220   5.634   3.526 -0.2071  0.2946 -0.7795
 7187TIP3   OH243051   5.556   0.785   1.457  0.0530 -0.5062  0.1881
 7187TIP3    H143052   5.623   0.842   1.417 -0.6017  0.1896  0.0629
 7187TIP3    H243053   5.605   0.731   1.519  0.6291  0.5596  0.6959
 7188TIP3   OH243054   1.943   1.910   4.056 -0.6854 -0.1352  0.1627
 7188TIP3    H143055   1.871   1.903   4.119 -2.5869 -1.5563 -2.0110
 7188TIP3    H243056   1.967   1.820   4.036  2.3784  0.2750  1.4014
 7189TIP3   OH243057   4.336   4.650   3.186  0.2612 -0.3306  0.0365
 7189TIP3    H143058   4.260   4.622   3.135  1.6205  0.3554 -2.4844
 7189TIP3    H243059   4.309   4.733   3.226 -0.9467 -1.0674  0.8128
 7190TIP3   OH243060   4.422   4.461   2.928  0.9874 -0.4455  0.7143
 7190TIP3    H143061   4.425   4.366   2.941  1.0694 -0.4776  0.4679
 7190TIP3    H243062   4.441   4.497   3.015  0.3744 -0.6497  0.9350
 7191TIP3   OH243063   4.483   6.740  14.005 -0.0300 -0.7586  0.1758
 7191TIP3    H143064   4.444   6.705  14.085 -1.8979 -1.6256 -1.0593
 7191TIP3    H243065   4.464   6.675  13.938  0.0669  0.6945 -1.3277
 7192TIP3   OH243066   6.148   4.114   3.065  0.0260  0.1333  0.2345
 7192TIP3    H143067   6.069   4.145   3.020  0.4617  1.2770  0.2229
 7192TIP3    H243068   6.218   4.170   3.031  0.3035  1.4378  2.7036
 7193TIP3   OH243069   0.017   0.530   2.156 -0.4672  0.6647  0.0781
 7193TIP3    H143070  -0.045   0.574   2.215 -0.7920 -0.5734  0.7021
 7193TIP3    H243071  -0.039   0.474   2.101  0.0859 -0.5338  0.7062
 7194TIP3   OH243072   3.050   6.678  14.055  0.4826  0.4063 -0.2399
 7194TIP3    H143073   3.050   6.713  13.966 -2.6559  2.6579  0.4887
 7194TIP3    H243074   2.966   6.634  14.063  1.7320 -1.9503  0.9427
 7195TIP3   OH243075   6.687   0.741  13.715  0.4785 -0.0806  0.2496
 7195TIP3    H143076   6.778   0.760  13.693  0.1149  1.4639 -0.0805
 7195TIP3    H243077   6.651   0.826  13.741 -1.8095  0.1873 -3.1730
 7196TIP3   OH243078   1.257   6.154  12.275 -0.1106 -0.3828  0.3722
 7196TIP3    H143079   1.263   6.245  12.305 -0.8278  0.8427 -2.8354
 7196TIP3    H243080   1.347   6.121  12.284 -0.1293  0.0216  3.0453
 7197TIP3   OH243081   1.080   1.817  14.866  0.6080  0.4326 -0.1724
 7197TIP3    H143082   1.118   1.787  14.948 -1.1637 -0.0566  0.5163
 7197TIP3    H243083   1.149   1.870  14.825  0.8723  2.3168  2.5096
 7198TIP3   OH243084   5.227   4.623  15.543 -0.1759 -0.7208 -0.9371
 7198TIP3    H143085   5.259   4.714  15.542 -1.8620 -0.0017  1.5005
 7198TIP3    H243086   5.298   4.573  15.583 -0.5223  0.1618  0.8554
 7199TIP3   OH243087   6.382   1.429   5.930  0.1622  0.4286 -0.0190
 7199TIP3    H143088   6.323   1.365   5.971  2.7778 -2.8234 -0.9019
 7199TIP3    H243089   6.343   1.444   5.843 -0.9083  0.7525  0.4914
 7200TIP3   OH243090   4.481   4.271  15.149 -0.2571  0.2461  0.0323
 7200TIP3    H143091   4.482   4.367  15.151  2.7582  0.3144  2.0920
 7200TIP3    H243092   4.396   4.247  15.186 -0.6531  2.1259  0.4510
 7201TIP3   OH243093   1.940   6.440  13.506 -0.5413  0.3320  0.0107
 7201TIP3    H143094   1.869   6.456  13.444  1.3767  1.7182 -1.9897
 7201TIP3    H243095   1.944   6.519  13.560  0.5448  1.0773 -1.0909
 7202TIP3   OH243096   4.538   4.704   5.856  0.3956  0.1164 -0.1557
 7202TIP3    H143097   4.520   4.644   5.928 -4.0944  2.2326  0.8647
 7202TIP3    H243098   4.602   4.766   5.891 -0.7286  0.3303  1.6577
 7203TIP3   OH243099   6.305   5.950   1.445  1.0152  0.4664 -0.4158
 7203TIP3    H143100   6.350   5.886   1.501  1.8215  1.4934  0.1558
 7203TIP3    H243101   6.234   5.983   1.499  0.2808 -0.3102 -0.8976
 7204TIP3   OH243102   6.625   1.646   5.376  0.6845  1.1278 -0.3685
 7204TIP3    H143103   6.623   1.703   5.452  1.5058  0.3359  0.2813
 7204TIP3    H243104   6.684   1.574   5.402 -0.7050 -0.2771 -0.9503
 7205TIP3   OH243105   2.457   5.746  11.821  0.1934  0.1039 -0.2671
 7205TIP3    H143106   2.466   5.808  11.749 -0.3788  1.3361  0.6862
 7205TIP3    H243107   2.363   5.728  11.825  0.4139 -1.3117 -0.9046
 7206TIP3   OH243108   0.620   2.964   2.008  0.1894  0.0295  0.5179
 7206TIP3    H143109   0.648   2.886   2.056 -1.4144  0.6505  2.6308
 7206TIP3    H243110   0.696   2.989   1.956  1.1697 -2.1828  0.7571
 7207TIP3   OH243111   4.962   5.001   0.205 -0.1071  0.3475 -0.0424
 7207TIP3    H143112   4.983   5.077   0.259 -0.3003  1.2372 -1.1964
 7207TIP3    H243113   4.881   4.967   0.243 -1.3332  2.1496 -0.9550
 7208TIP3   OH243114   2.858   1.556   2.778 -0.0734  0.2238  1.0188
 7208TIP3    H143115   2.870   1.568   2.683  0.4546  0.5600  1.1230
 7208TIP3    H243116   2.858   1.461   2.790 -0.5478  0.1694  0.6358
 7209TIP3   OH243117   3.603   4.559   4.104  0.4107  0.1229  0.5508
 7209TIP3    H143118   3.692   4.559   4.139  0.9395 -2.1990 -0.5716
 7209TIP3    H243119   3.563   4.638   4.141  3.0937  1.6098  0.5841
 7210TIP3   OH243120   0.565   1.336   0.249  0.3315  0.0527  0.4846
 7210TIP3    H143121   0.502   1.382   0.193 -1.2438 -2.6251 -0.1454
 7210TIP3    H243122   0.525   1.335   0.335  0.0894 -0.5449  0.3734
 7211TIP3   OH243123   3.027   2.687   1.998  0.4263  0.0642 -0.0219
 7211TIP3    H143124   2.963   2.754   2.022 -1.6790 -2.0942  0.9032
 7211TIP3    H243125   3.048   2.705   1.907  1.0333  2.7362  0.5654
 7212TIP3   OH243126   0.889   0.040  15.133 -0.0627  0.2103  0.6036
 7212TIP3    H143127   0.944   0.103  15.180 -2.1661  2.0361  0.8114
 7212TIP3    H243128   0.807   0.039  15.182  0.4302 -4.2330  1.7023
 7213TIP3   OH243129   0.260   5.459  14.244  0.6047 -0.7465 -1.2734
 7213TIP3    H143130   0.320   5.530  14.265  0.9976 -1.6370  0.8965
 7213TIP3    H243131   0.176   5.501  14.230  0.6154  0.1284  0.8991
 7214TIP3   OH243132   1.010   2.053  16.221 -0.2387  0.5061 -1.0484
 7214TIP3    H143133   1.090   2.073  16.171  1.8427  0.4833  1.9707
 7214TIP3    H243134   1.021   1.962  16.249 -0.7127  0.8497  0.3490
 7215TIP3   OH243135   3.903   0.639   5.859 -0.2341 -0.3156 -0.0669
 7215TIP3    H143136   3.860   0.624   5.943  0.5403 -1.3904  0.1668
 7215TIP3    H243137   3.865   0.573   5.801  0.9882 -1.2449  0.1302
 7216TIP3   OH243138   4.881   5.443   0.533  0.0388 -0.8036 -0.3423
 7216TIP3    H143139   4.975   5.461   0.544  0.1345 -0.6014 -1.3221
 7216TIP3    H243140   4.860   5.382   0.603  0.3673  0.8929  1.2932
 7217TIP3   OH243141   0.392   4.655   0.754  0.5242 -0.1755 -0.2358
 7217TIP3    H143142   0.439   4.673   0.672  1.3919 -0.6395  0.1467
 7217TIP3    H243143   0.442   4.702   0.821  0.2896 -0.4604  0.1442
 7218TIP3   OH243144   6.571   5.180  16.746 -0.3186  0.1837  0.0846
 7218TIP3    H143145   6.606   5.265  16.771  1.5266 -0.8658  1.2918
 7218TIP3    H243146   6.575   5.180  16.650 -1.0399  1.6940  0.0228
 7219TIP3   OH243147   2.323   5.981  13.355  0.3768 -0.4023  0.4630
 7219TIP3    H143148   2.304   5.972  13.448  0.0223 -0.5614  0.3742
 7219TIP3    H243149   2.253   6.037  13.321 -0.1406 -1.2658  0.0724
 7220TIP3   OH243150   5.505   5.429   2.771 -0.0145 -0.1991  0.2984
 7220TIP3    H143151   5.422   5.471   2.750 -1.3046 -2.5711  0.2389
 7220TIP3    H243152   5.544   5.484   2.838 -1.1203  1.5385 -0.4245
 7221TIP3   OH243153   5.336   5.834   3.504 -0.2117  0.6213 -0.3352
 7221TIP3    H143154   5.286   5.903   3.461 -2.2533 -1.7852 -2.1580
 7221TIP3    H243155   5.378   5.786   3.433  1.1674 -0.0273  0.8671
 7222TIP3   OH243156   6.207   2.063  12.980  0.4273  0.5336  0.1673
 7222TIP3    H143157   6.196   1.993  13.045  0.9521  0.7916  0.5352
 7222TIP3    H243158   6.145   2.040  12.910 -0.8705  0.7641  1.1892
 7223TIP3   OH243159   6.140   3.647  11.530 -0.8893  0.1750 -0.4826
 7223TIP3    H143160   6.160   3.572  11.586 -0.2691  0.0733 -0.8246
 7223TIP3    H243161   6.164   3.618  11.442 -0.3939  0.8537 -0.5846
 7224TIP3   OH243162   4.877   6.182  16.474 -0.4971  0.4071  0.1901
 7224TIP3    H143163   4.954   6.206  16.421  1.0244 -0.7414  1.7549
 7224TIP3    H243164   4.820   6.136  16.412 -1.1425  3.3532 -1.5974
 7225TIP3   OH243165   1.094   1.624  13.923  0.3200  0.4327  0.0348
 7225TIP3    H143166   1.019   1.634  13.865  0.6952 -1.2439 -0.7936
 7225TIP3    H243167   1.141   1.707  13.917 -0.8420  1.0842 -0.3049
 7226TIP3   OH243168   5.304   0.689  15.420  0.3377  0.2285  0.0430
 7226TIP3    H143169   5.350   0.605  15.420 -0.7542 -0.4119  1.0576
 7226TIP3    H243170   5.310   0.720  15.330  2.2828 -0.0590  0.0227
 7227TIP3   OH243171   2.252   2.830  16.713  0.0773 -0.3757  0.1844
 7227TIP3    H143172   2.274   2.782  16.634  2.3213  0.4376  0.2433
 7227TIP3    H243173   2.307   2.909  16.710 -1.7947  1.0624  1.2096
 7228TIP3   OH243174   6.126   4.088  15.748  0.7468  0.7576  0.0687
 7228TIP3    H143175   6.163   4.075  15.835  2.8474  1.1566 -0.7086
 7228TIP3    H243176   6.146   4.006  15.702  0.4693  0.8987 -0.3043
 7229TIP3   OH243177   6.133   6.470   0.800 -0.0671  0.0999 -0.7281
 7229TIP3    H143178   6.228   6.477   0.815  0.1989  0.6696 -2.4558
 7229TIP3    H243179   6.112   6.380   0.824  0.2944  0.7704  2.5867
 7230TIP3   OH243180   4.716   6.226  11.419 -0.0495 -0.4114 -0.2119
 7230TIP3    H143181   4.715   6.165  11.492 -1.1817  0.0955  0.2263
 7230TIP3    H243182   4.720   6.170  11.341  1.3561 -0.9445  0.2164
 7231TIP3   OH243183   0.199   5.481  14.902  0.5704 -0.2675 -0.2084
 7231TIP3    H143184   0.159   5.568  14.894  0.4987 -0.1271  1.3424
 7231TIP3    H243185   0.257   5.475  14.827  0.1878  0.9131 -0.6331
 7232TIP3   OH243186   2.153   6.464   0.645 -0.3090  0.2804 -0.2991
 7232TIP3    H143187   2.101   6.387   0.665  0.8059 -0.5712 -0.5789
 7232TIP3    H243188   2.236   6.450   0.691 -0.2286  1.5068 -0.0193
 7233TIP3   OH243189   0.597   2.095   2.430 -0.3846  0.3413  0.0812
 7233TIP3    H143190   0.674   2.041   2.447  0.3883  2.0599  2.5949
 7233TIP3    H243191   0.589   2.150   2.508 -1.4638  3.4692 -2.0807
 7234TIP3   OH243192   4.985   6.146  15.585  0.1339 -0.1072  0.0587
 7234TIP3    H143193   4.942   6.226  15.616 -0.8397 -0.1954 -1.0024
 7234TIP3    H243194   4.987   6.089  15.662  0.5029  0.7882  0.7337
 7235TIP3   OH243195   6.169   2.052   5.206 -0.0118 -0.1356 -0.0503
 7235TIP3    H143196   6.258   2.030   5.235 -1.0759 -1.2769  2.6087
 7235TIP3    H243197   6.123   1.968   5.205 -1.2683  0.5315 -0.7491
 7236TIP3   OH243198   5.896   5.495  15.988 -0.3305 -0.1841  1.2269
 7236TIP3    H143199   5.824   5.536  16.036 -1.1737 -0.9871  0.6804
 7236TIP3    H243200   5.964   5.562  15.985 -1.5100  1.0279  0.7236
 7237TIP3   OH243201   0.398   2.616  12.033 -0.3223  0.9286  0.4498
 7237TIP3    H143202   0.486   2.632  12.067  0.8396  1.1685 -2.3937
 7237TIP3    H243203   0.381   2.524  12.051  0.8585  0.6795  0.3645
 7238TIP3   OH243204   3.039   0.267   4.355  0.1757 -0.3574 -0.2957
 7238TIP3    H143205   2.975   0.225   4.297 -1.4118  0.0923  1.0601
 7238TIP3    H243206   3.096   0.196   4.384  1.0231 -0.6025 -2.3423
 7239TIP3   OH243207   6.795   1.079  14.280 -0.1935  0.1300  0.1525
 7239TIP3    H143208   6.851   1.065  14.356 -0.4245  0.3806  0.3671
 7239TIP3    H243209   6.707   1.057  14.310 -0.2923  0.2646 -0.0343
 7240TIP3   OH243210   4.337   0.213   3.616 -0.2064 -0.4429  0.4116
 7240TIP3    H143211   4.382   0.134   3.586  0.7265  1.2452 -3.0921
 7240TIP3    H243212   4.244   0.190   3.612  0.0667 -1.9458  1.5207
 7241TIP3   OH243213   1.215   3.041  13.157  0.9196  0.4384  0.5061
 7241TIP3    H143214   1.307   3.016  13.166  0.9209 -0.0717 -0.8186
 7241TIP3    H243215   1.200   3.049  13.063 -0.5111  0.0852  0.6752
 7242TIP3   OH243216   6.516   5.970  16.833 -0.0361 -0.3929 -0.0043
 7242TIP3    H143217   6.490   5.933  16.917 -1.7719  0.5895 -0.0644
 7242TIP3    H243218   6.472   6.055  16.829 -0.5087 -0.6900 -2.1803
 7243TIP3   OH243219   3.779   4.534   3.025  0.1984 -0.6921 -0.6075
 7243TIP3    H143220   3.702   4.524   3.082  0.7905 -1.2705  0.1072
 7243TIP3    H243221   3.812   4.446   3.013  0.4411 -0.5057 -1.3738
 7244TIP3   OH243222   1.868   3.170   6.254  0.1342 -0.4422 -0.0526
 7244TIP3    H143223   1.961   3.172   6.230  0.2248 -1.1339  0.2292
 7244TIP3    H243224   1.863   3.108   6.326 -0.5079 -0.1865  0.1283
 7245TIP3   OH243225   1.106   1.635  15.324  0.7793  0.6927 -0.3637
 7245TIP3    H143226   1.131   1.558  15.374  1.4922  1.7460  0.9583
 7245TIP3    H243227   1.030   1.670  15.370 -0.8315 -0.3072 -2.1211
 7246TIP3   OH243228   5.444   5.536   4.701  0.3477  0.2350  0.0146
 7246TIP3    H143229   5.399   5.452   4.701  1.0542 -0.1576 -0.4596
 7246TIP3    H243230   5.444   5.562   4.609  1.4957 -0.0033 -0.0647
 7247TIP3   OH243231   2.919   0.881   5.612  0.5214  0.3652 -0.3366
 7247TIP3    H143232   2.995   0.881   5.554 -1.7357  0.9213 -3.4789
 7247TIP3    H243233   2.876   0.965   5.598  0.4056  1.0608  3.1052
 7248TIP3   OH243234   6.535   0.011   1.151  0.1706 -0.7320  0.4121
 7248TIP3    H143235   6.586   0.091   1.164  0.4109 -0.8475  0.2046
 7248TIP3    H243236   6.502  -0.012   1.238 -3.1797  1.7080 -0.0371
 7249TIP3   OH243237   0.771   4.744  17.027 -0.0842  0.1619  0.9566
 7249TIP3    H143238   0.847   4.700  16.988  1.0706  2.1857  0.8355
 7249TIP3    H243239   0.701   4.730  16.963  0.8825  0.4909 -0.2153
 7250TIP3   OH243240   0.911   1.640  13.672 -0.1736 -0.2242  0.5549
 7250TIP3    H143241   0.877   1.696  13.603 -2.1352 -1.2944  0.5600
 7250TIP3    H243242   0.971   1.580  13.628 -1.8033 -1.2413 -0.4020
 7251TIP3   OH243243   6.515   4.698   3.179 -0.2673  0.4530  0.1303
 7251TIP3    H143244   6.494   4.717   3.087  1.6770  0.0785 -0.4335
 7251TIP3    H243245   6.584   4.760   3.202  0.9536 -1.0219  0.5697
 7252TIP3   OH243246   0.797   6.305   2.041  0.3561  0.2201  0.3659
 7252TIP3    H143247   0.867   6.251   2.078 -1.1368 -1.2967  1.1225
 7252TIP3    H243248   0.719   6.251   2.049 -0.1962 -0.3010 -4.9115
 7253TIP3   OH243249   5.593   3.273   5.474  0.4663  0.0767  0.1436
 7253TIP3    H143250   5.543   3.353   5.459  1.5255  0.3689 -2.5121
 7253TIP3    H243251   5.566   3.215   5.402  0.4366 -1.5963  1.4537
 7254TIP3   OH243252   3.056   1.716  12.501 -0.1710 -0.0757  0.1673
 7254TIP3    H143253   2.981   1.769  12.525 -1.6431 -2.4607  1.1525
 7254TIP3    H243254   3.054   1.711  12.406 -1.4436 -0.3236  0.1997
 7255TIP3   OH243255   5.773   6.837   5.527  0.0285 -0.0396  0.0771
 7255TIP3    H143256   5.856   6.881   5.547 -1.1608  1.8939  1.0970
 7255TIP3    H243257   5.732   6.826   5.613 -1.2240 -0.0075 -0.5101
 7256TIP3   OH243258   3.439   0.190   1.066 -0.1626 -0.5255 -0.6054
 7256TIP3    H143259   3.422   0.150   1.151 -3.1113 -0.4314 -1.0350
 7256TIP3    H243260   3.433   0.284   1.083  0.8257 -0.4477 -0.6536
 7257TIP3   OH243261   5.102   4.235   5.302  0.2978 -0.1075  0.1462
 7257TIP3    H143262   5.074   4.144   5.310  0.2805 -0.1328 -0.1814
 7257TIP3    H243263   5.154   4.252   5.381 -1.2082  0.1476  1.1193
 7258TIP3   OH243264   0.656   3.952  14.524 -0.3200 -0.8167  0.2134
 7258TIP3    H143265   0.723   4.002  14.570 -2.0317  2.1725 -0.2841
 7258TIP3    H243266   0.630   4.008  14.451 -0.4344 -3.7167 -2.1804
 7259TIP3   OH243267   2.120   0.246  14.812 -0.4663 -0.0123 -0.4867
 7259TIP3    H143268   2.201   0.297  14.805 -0.3157 -0.3153 -1.0734
 7259TIP3    H243269   2.129   0.198  14.894 -0.8332  1.2688  0.3244
 7260TIP3   OH243270   0.363   5.024  11.947 -0.1401 -0.3651  0.3678
 7260TIP3    H143271   0.339   4.967  12.020  2.3673 -1.7241  0.2476
 7260TIP3    H243272   0.431   5.081  11.982  0.5295 -0.4877 -0.6672
 7261TIP3   OH243273   4.214   6.855  14.053 -0.4625 -0.3880 -0.6102
 7261TIP3    H143274   4.160   6.923  14.093  0.8258  0.1156  0.3477
 7261TIP3    H243275   4.288   6.846  14.112 -0.4187 -2.3931 -0.9222
 7262TIP3   OH243276   2.791   1.053   4.415  0.3178  0.0958  0.3954
 7262TIP3    H143277   2.840   1.044   4.497  0.8297  0.6186  0.1577
 7262TIP3    H243278   2.837   0.997   4.353 -1.0408 -1.6099  0.8591
 7263TIP3   OH243279   0.378   6.312  14.394 -0.1241  0.9518 -0.2580
 7263TIP3    H143280   0.406   6.380  14.454 -2.3692  0.7870  1.0774
 7263TIP3    H243281   0.444   6.312  14.324  1.7050  2.1981  1.3938
 7264TIP3   OH243282   5.346   1.807   3.137 -0.5800 -0.1370 -0.0131
 7264TIP3    H143283   5.426   1.818   3.189 -0.2341 -0.5595 -0.4549
 7264TIP3    H243284   5.307   1.726   3.170  0.6576 -1.4913 -1.7186
 7265TIP3   OH243285   2.314   5.964   0.028 -0.1782  0.4218 -0.5816
 7265TIP3    H143286   2.284   6.053   0.011 -0.4808  0.3012 -0.6860
 7265TIP3    H243287   2.310   5.956   0.124  0.1933  0.6391 -0.5479
 7266TIP3   OH243288   1.408   4.712  11.612  0.0420  0.0973  0.8000
 7266TIP3    H143289   1.445   4.625  11.598 -1.4439 -0.4303  0.0160
 7266TIP3    H243290   1.463   4.770  11.558  0.9024 -0.3639  1.1618
 7267TIP3   OH243291   2.299   3.652   2.706  0.5562  0.4538  0.0190
 7267TIP3    H143292   2.233   3.694   2.761  0.9693 -0.5951  1.3551
 7267TIP3    H243293   2.302   3.706   2.627 -3.0299 -0.3564 -0.8396
 7268TIP3   OH243294   5.691   6.087   4.166  0.3376  0.2048  0.1238
 7268TIP3    H143295   5.671   5.994   4.149 -0.5841  0.7869 -2.4892
 7268TIP3    H243296   5.632   6.111   4.237  2.1389 -1.6865  2.4243
 7269TIP3   OH243297   2.735   1.250   2.660 -0.0180  0.2576 -0.4113
 7269TIP3    H143298   2.681   1.213   2.730  0.5814  0.5705  0.2291
 7269TIP3    H243299   2.824   1.222   2.681  0.1113 -0.0545 -1.3269
 7270TIP3   OH243300   3.132   3.013  15.147  0.1107  0.1634  0.4456
 7270TIP3    H143301   3.190   3.087  15.166  3.7957 -2.3921  0.2404
 7270TIP3    H243302   3.116   2.972  15.232  0.4632 -0.3482  0.2749
 7271TIP3   OH243303   4.611   0.592  13.422  0.2286  0.0263 -0.0031
 7271TIP3    H143304   4.600   0.609  13.516  1.5412 -2.1045  0.6132
 7271TIP3    H243305   4.706   0.595  13.408 -0.0203  1.9706 -1.6578
 7272TIP3   OH243306   1.508   2.700  13.391  0.3594 -0.4220 -0.1304
 7272TIP3    H143307   1.578   2.702  13.326 -0.9715 -0.0565 -1.6361
 7272TIP3    H243308   1.550   2.723  13.473  1.8681  0.5130 -1.1171
 7273TIP3   OH243309   3.944   0.867   4.800 -0.3119  0.1927  0.1923
 7273TIP3    H143310   3.883   0.900   4.865 -3.0522 -1.6935 -1.2467
 7273TIP3    H243311   4.009   0.817   4.851 -1.3733  0.1998  1.5970
 7274TIP3   OH243312   3.074   1.753   0.927 -0.7868 -0.3309  0.2864
 7274TIP3    H143313   3.115   1.794   0.851 -0.0277  0.0171  0.8672
 7274TIP3    H243314   3.131   1.679   0.948 -0.5918  0.0002  0.9448
 7275TIP3   OH243315   4.972   4.874  13.560  0.7394 -0.7486  0.3742
 7275TIP3    H143316   5.012   4.925  13.490  0.1379  1.1639  1.3456
 7275TIP3    H243317   5.016   4.789  13.557  3.7590  0.7213  0.4054
 7276TIP3   OH243318   3.914   3.281  16.222  0.5592 -0.5805 -0.1122
 7276TIP3    H143319   3.870   3.323  16.296  0.9770  0.3664 -0.3831
 7276TIP3    H243320   3.977   3.222  16.261  0.6466 -0.2228  0.2865
 7277TIP3   OH243321   1.591   5.892   1.081  0.0321  0.1698 -0.2626
 7277TIP3    H143322   1.593   5.872   0.987 -0.0945 -1.4972  0.0578
 7277TIP3    H243323   1.566   5.984   1.086 -1.3106 -0.0774 -1.8259
 7278TIP3   OH243324   1.708   4.529  15.275 -0.2262 -0.2621  0.0769
 7278TIP3    H143325   1.613   4.532  15.291 -0.5572 -0.2534 -1.7154
 7278TIP3    H243326   1.719   4.568  15.188  1.3729 -0.7988  0.0085
 7279TIP3   OH243327   0.110   0.211   4.755 -0.0536 -0.1750 -0.0856
 7279TIP3    H143328   0.197   0.171   4.756  0.2297  0.4356  0.3750
 7279TIP3    H243329   0.111   0.271   4.830 -0.4628  0.7132 -0.7795
 7280TIP3   OH243330   5.894   4.645   4.779 -0.3059  0.0355  0.4315
 7280TIP3    H143331   5.845   4.708   4.725  1.9236  1.1417 -0.4119
 7280TIP3    H243332   5.924   4.697   4.853 -1.0819 -0.8488  1.3992
 7281TIP3   OH243333   5.999   3.389   1.819 -0.1198  0.2506 -0.6151
 7281TIP3    H143334   5.952   3.397   1.736 -3.3072  1.4707  1.1345
 7281TIP3    H243335   5.937   3.345   1.877  1.3926  0.8361  1.5527
 7282TIP3   OH243336   0.992   6.289   1.254 -0.0781 -0.5411  0.4267
 7282TIP3    H143337   1.054   6.321   1.188  1.2129 -1.1483  1.2878
 7282TIP3    H243338   1.034   6.311   1.338 -1.6133  0.1181  1.0687
 7283TIP3   OH243339   5.576   1.796   1.364  0.0561  0.3907 -0.5004
 7283TIP3    H143340   5.583   1.781   1.270 -2.8201  1.0824 -0.9051
 7283TIP3    H243341   5.495   1.846   1.375  0.6134  0.8632  2.3077
 7284TIP3   OH243342   5.168   0.870  11.350  0.3178  0.0581 -0.4171
 7284TIP3    H143343   5.162   0.808  11.422  0.7129 -2.0012 -2.0511
 7284TIP3    H243344   5.252   0.915  11.363 -0.0594  0.4117  0.8887
 7285TIP3   OH243345   5.301   1.579   6.521 -0.4908  0.1383 -0.2700
 7285TIP3    H143346   5.384   1.620   6.548 -0.0815  0.2003 -1.5490
 7285TIP3    H243347   5.235   1.646   6.538  0.0168  0.9084 -1.2252
 7286TIP3   OH243348   1.684   0.261  15.341 -0.0834  0.4424 -0.6876
 7286TIP3    H143349   1.752   0.329  15.338  2.2075 -1.6812 -0.6480
 7286TIP3    H243350   1.712   0.197  15.275  0.2188 -2.4245  1.9614
 7287TIP3   OH243351   1.290   5.729  13.009  0.0485 -0.5459  0.0237
 7287TIP3    H143352   1.317   5.768  12.926  0.7302  0.3977  0.6714
 7287TIP3    H243353   1.371   5.694  13.047 -0.2718 -1.0540  0.2613
 7288TIP3   OH243354   5.120   5.810   4.397 -0.1537  0.2870 -0.2504
 7288TIP3    H143355   5.199   5.825   4.449  0.0501 -0.4948 -0.3194
 7288TIP3    H243356   5.073   5.894   4.400  0.6555  0.7507 -0.1816
 7289TIP3   OH243357   1.253   2.293  13.032 -0.2816  0.0310  0.3116
 7289TIP3    H143358   1.174   2.241  13.045 -0.7766  1.1739  2.2563
 7289TIP3    H243359   1.324   2.236  13.059 -0.6000 -0.3941  0.2525
 7290TIP3   OH243360   5.795   4.905   0.689 -0.2983  0.0048  0.7262
 7290TIP3    H143361   5.728   4.966   0.720  0.2749  0.4231  1.1608
 7290TIP3    H243362   5.768   4.820   0.723 -2.1089 -0.3676 -1.4096
 7291TIP3   OH243363   0.220   4.125  10.179  0.1260  0.1611 -0.0681
 7291TIP3    H143364   0.138   4.144  10.133 -0.3616  1.2034  1.1784
 7291TIP3    H243365   0.242   4.206  10.224  1.6271 -0.2420 -0.0123
 7292TIP3   OH243366   6.060   1.192   4.771 -0.7694 -0.2658 -0.2447
 7292TIP3    H143367   6.149   1.159   4.776  0.0472  1.8449 -0.1292
 7292TIP3    H243368   6.038   1.217   4.861 -0.3151  2.0374 -0.7276
 7293TIP3   OH243369   5.310   5.223   0.781 -0.4738 -0.2450  0.7148
 7293TIP3    H143370   5.345   5.309   0.800 -0.4753  0.2953 -1.4416
 7293TIP3    H243371   5.247   5.206   0.851 -1.3894  2.0573  0.5297
 7294TIP3   OH243372   2.590   1.321   3.193  0.4071 -0.3065  0.0147
 7294TIP3    H143373   2.642   1.278   3.125  1.4613  0.2879  0.4371
 7294TIP3    H243374   2.640   1.309   3.273  0.3555  1.0694  0.2675
 7295TIP3   OH243375   0.629   2.327   4.137 -0.2854 -0.4764 -0.0324
 7295TIP3    H143376   0.714   2.354   4.173 -0.3810 -1.2351  0.7985
 7295TIP3    H243377   0.570   2.399   4.161  0.2959  0.5605 -1.5154
 7296TIP3   OH243378   2.404   6.370   0.976  0.2533  0.4615 -0.1330
 7296TIP3    H143379   2.335   6.311   0.946 -0.3174  0.8365  0.4263
 7296TIP3    H243380   2.428   6.420   0.898  0.6225 -0.3817 -0.5720
 7297TIP3   OH243381   2.901   6.546  14.839  0.2410  0.7310 -0.2031
 7297TIP3    H143382   2.995   6.566  14.841  0.2561  0.6502 -0.1337
 7297TIP3    H243383   2.860   6.629  14.816  0.3210  0.7945 -0.1194
 7298TIP3   OH243384   1.880   4.634  15.855  0.7522  0.0031 -0.2492
 7298TIP3    H143385   1.913   4.560  15.906  0.9532 -0.9983 -1.7838
 7298TIP3    H243386   1.793   4.607  15.826  1.6160 -0.5598 -2.5422
 7299TIP3   OH243387   4.627   3.406  15.833  0.0780  0.7228 -0.3037
 7299TIP3    H143388   4.681   3.351  15.776  0.0996  0.0152  0.3932
 7299TIP3    H243389   4.644   3.374  15.921 -1.3058  0.6485 -0.0420
 7300TIP3   OH243390   0.837   4.012  13.977  0.3069 -0.4468 -0.7900
 7300TIP3    H143391   0.888   4.079  14.023 -2.2637 -0.2373  2.0467
 7300TIP3    H243392   0.788   4.060  13.910 -0.1111  0.2324 -0.0162
 7301TIP3   OH243393   0.762   4.939   2.200 -0.3250 -0.3469  0.5717
 7301TIP3    H143394   0.763   4.877   2.274 -0.2470 -0.8647  0.1398
 7301TIP3    H243395   0.772   4.884   2.123 -0.2607  0.2108  0.1802
 7302TIP3   OH243396   2.254   3.774   4.807  0.4394  0.0066  0.2028
 7302TIP3    H143397   2.267   3.718   4.731  0.0187 -0.9375  0.8119
 7302TIP3    H243398   2.160   3.776   4.821  0.3311  1.7745 -0.4501
 7303TIP3   OH243399   2.502   2.334  15.320  0.1223 -1.0405 -0.1910
 7303TIP3    H143400   2.542   2.309  15.237  0.3664 -1.3512  0.0191
 7303TIP3    H243401   2.547   2.415  15.344  2.7931 -2.8459  1.4971
 7304TIP3   OH243402   3.007   6.583  16.021  0.4518 -0.1298  0.0056
 7304TIP3    H143403   3.103   6.580  16.014  0.3961 -1.9122 -0.6907
 7304TIP3    H243404   2.989   6.661  16.072  2.2652  0.4457 -0.1513
 7305TIP3   OH243405   5.512   3.116  10.707  0.3661 -0.0796  0.1053
 7305TIP3    H143406   5.549   3.031  10.685  0.0835 -0.2886  0.4298
 7305TIP3    H243407   5.488   3.109  10.799  0.3061  0.3394  0.1253
 7306TIP3   OH243408   3.175   6.553  14.917 -0.0519  0.0843  0.8327
 7306TIP3    H143409   3.242   6.522  14.856  0.6864 -2.5421  2.8147
 7306TIP3    H243410   3.217   6.624  14.966  0.1724  0.5485 -0.0088
 7307TIP3   OH243411   2.927   5.716  14.365  0.9883 -1.1070  0.1495
 7307TIP3    H143412   3.018   5.692  14.346  1.9746  1.6854  0.7729
 7307TIP3    H243413   2.932   5.809  14.388 -1.8161 -1.2740  1.8450
 7308TIP3   OH243414   4.483   0.221  11.079 -0.1097  0.3711  0.3726
 7308TIP3    H143415   4.445   0.257  10.999 -0.6803 -1.5947 -0.3112
 7308TIP3    H243416   4.508   0.131  11.056  2.8419  0.7846  1.4714
 7309TIP3   OH243417   5.319   4.910   3.636  0.2973 -0.2630  1.1671
 7309TIP3    H143418   5.380   4.972   3.676  0.5584 -1.0921  2.0727
 7309TIP3    H243419   5.249   4.965   3.600  1.4151  0.6742  0.3725
 7310TIP3   OH243420   2.047   4.108   0.969  0.0360  0.0024  0.1270
 7310TIP3    H143421   1.952   4.103   0.955 -0.1142  0.4124  0.9145
 7310TIP3    H243422   2.058   4.177   1.035  0.8724 -0.1170  0.1239
 7311TIP3   OH243423   1.658   4.765   3.501 -0.1166  0.3725  0.2703
 7311TIP3    H143424   1.658   4.827   3.574  0.0209 -0.7080  1.2089
 7311TIP3    H243425   1.697   4.686   3.537 -0.4039 -0.3107 -0.8781
 7312TIP3   OH243426   3.153   3.683   2.313 -0.4660 -0.0519  0.0724
 7312TIP3    H143427   3.213   3.690   2.239 -0.5657  0.2199  0.0168
 7312TIP3    H243428   3.159   3.768   2.357 -1.3471  0.2264 -0.3391
 7313TIP3   OH243429   2.649   3.527  14.388  0.2571 -0.2734 -0.5189
 7313TIP3    H143430   2.735   3.565  14.403  0.6833 -0.9242 -1.2748
 7313TIP3    H243431   2.662   3.464  14.318 -0.7864 -0.5647 -0.4685
 7314TIP3   OH243432   0.641   0.902   5.602 -0.1929 -0.4319 -0.3096
 7314TIP3    H143433   0.673   0.916   5.691 -2.8226 -0.0665  0.6504
 7314TIP3    H243434   0.672   0.978   5.553 -1.6004  1.2027  1.1885
 7315TIP3   OH243435   5.305   2.402   5.724 -0.5945  0.0773 -0.0542
 7315TIP3    H143436   5.260   2.427   5.644  0.8397 -1.6918 -1.5184
 7315TIP3    H243437   5.345   2.483   5.756  1.1331  0.3894 -2.7208
 7316TIP3   OH243438   2.946   0.493   0.336  0.4352  0.2784 -0.5346
 7316TIP3    H143439   2.889   0.568   0.349  2.9091  1.9914  1.1507
 7316TIP3    H243440   2.953   0.453   0.423  2.2405  0.5015 -0.5434
 7317TIP3   OH243441   6.570   3.318   3.325  0.3002  0.2544 -0.0249
 7317TIP3    H143442   6.534   3.288   3.241 -0.5842  1.0368  0.0608
 7317TIP3    H243443   6.564   3.413   3.320  0.1317  0.3008  0.9902
 7318TIP3   OH243444   6.071   1.323  11.803  0.1409 -0.3174  0.4923
 7318TIP3    H143445   5.985   1.314  11.764 -1.1039  0.1587  2.9137
 7318TIP3    H243446   6.065   1.274  11.885  2.4338 -0.9077  0.3674
 7319TIP3   OH243447   5.467   5.697   1.905  0.0718  0.6007  0.0961
 7319TIP3    H143448   5.553   5.669   1.936 -0.7256 -0.0415  1.8574
 7319TIP3    H243449   5.476   5.792   1.893  1.1288  0.4822 -0.1257
 7320TIP3   OH243450   5.480   6.788  15.346 -0.5121 -0.1324 -0.2619
 7320TIP3    H143451   5.481   6.709  15.399  1.0888 -0.4963 -0.7713
 7320TIP3    H243452   5.522   6.854  15.401 -0.8436  0.0768 -0.2567
 7321TIP3   OH243453   1.808   1.895  13.565 -0.3683  0.2534 -0.4680
 7321TIP3    H143454   1.886   1.939  13.599  0.2110 -0.1626 -1.2362
 7321TIP3    H243455   1.763   1.962  13.514 -1.5339  1.0468  1.4942
 7322TIP3   OH243456   5.999   2.054  15.154 -0.2466 -0.0145  0.2282
 7322TIP3    H143457   5.914   2.068  15.112 -0.2609 -2.5185 -0.7403
 7322TIP3    H243458   6.062   2.070  15.084 -0.0663 -0.6637  0.2421
 7323TIP3   OH243459   5.051   6.378   4.720 -0.3504  0.2958  0.5266
 7323TIP3    H143460   5.022   6.327   4.795 -0.7333 -0.0188  0.1655
 7323TIP3    H243461   5.003   6.461   4.727 -3.0708 -1.0125 -1.2529
 7324TIP3   OH243462   6.541   5.091   4.124 -0.2202 -0.4856 -0.1264
 7324TIP3    H143463   6.462   5.085   4.069 -0.4834  0.9828  0.0523
 7324TIP3    H243464   6.520   5.159   4.188  0.3530 -1.6729  1.3656
 7325TIP3   OH243465   2.281   4.746   0.489 -0.0233  0.1673 -0.2097
 7325TIP3    H143466   2.324   4.827   0.462 -0.8872  0.5773 -0.3805
 7325TIP3    H243467   2.188   4.767   0.490 -0.6562 -1.7126 -3.6534
 7326TIP3   OH243468   4.187   2.309   5.976 -0.5352 -0.0523 -0.2480
 7326TIP3    H143469   4.152   2.359   6.049 -0.0167  0.1735 -0.1545
 7326TIP3    H243470   4.200   2.373   5.907  0.0029 -0.0796 -0.1728
 7327TIP3   OH243471   5.351   1.983  10.895 -0.4410  0.4695  0.1395
 7327TIP3    H143472   5.262   1.992  10.930 -0.7587  0.2825 -0.6116
 7327TIP3    H243473   5.339   1.961  10.803  0.3883  0.4607  0.0256
 7328TIP3   OH243474   6.588   1.137   1.559 -0.0763  0.0513  0.1770
 7328TIP3    H143475   6.678   1.111   1.579  0.1627 -0.0382 -0.9828
 7328TIP3    H243476   6.572   1.104   1.471 -1.5406 -0.6719  0.6822
 7329TIP3   OH243477   5.234   5.008   1.661  0.1584  0.0253 -0.0829
 7329TIP3    H143478   5.157   4.973   1.705  0.2661  0.7091  0.6756
 7329TIP3    H243479   5.209   5.097   1.635 -0.1965 -0.6156 -2.2015
 7330TIP3   OH243480   2.484   2.985   0.476  0.0893 -0.1571  0.3068
 7330TIP3    H143481   2.426   2.921   0.434 -0.7766 -0.4792  1.9204
 7330TIP3    H243482   2.536   3.021   0.404 -0.2568 -1.7903 -0.8146
 7331TIP3   OH243483   5.088   4.202   0.444  0.1908  0.5829 -0.0330
 7331TIP3    H143484   5.039   4.282   0.428  1.8956  1.3337 -1.8185
 7331TIP3    H243485   5.108   4.168   0.357  2.5902  0.1837  0.6143
 7332TIP3   OH243486   4.230   2.026  16.908  0.1776  0.4091  0.2213
 7332TIP3    H143487   4.230   2.081  16.985 -2.1987  0.4308  0.2699
 7332TIP3    H243488   4.262   1.941  16.939  0.0689  0.6588  1.0308
 7333TIP3   OH243489   6.202   5.638   4.900  0.0021 -0.1485  0.1313
 7333TIP3    H143490   6.230   5.560   4.948 -3.2997 -0.2294  2.1544
 7333TIP3    H243491   6.204   5.708   4.964  0.6078  0.9876 -1.0668
 7334TIP3   OH243492   4.617   0.748  15.605 -0.0444 -0.2104  0.5060
 7334TIP3    H143493   4.528   0.784  15.603 -0.1138 -0.3676 -1.4103
 7334TIP3    H243494   4.673   0.822  15.581 -0.0077 -0.8375 -1.5305
 7335TIP3   OH243495   5.782   4.088  13.988 -0.0246 -0.3245  0.4726
 7335TIP3    H143496   5.867   4.060  13.955 -1.1834 -1.1304 -2.1748
 7335TIP3    H243497   5.728   4.009  13.984 -1.6393  0.7821 -0.7954
 7336TIP3   OH243498   4.059   4.239   3.462 -0.2846 -0.2074 -0.4435
 7336TIP3    H143499   3.994   4.240   3.391 -1.1086  0.0323  0.3008
 7336TIP3    H243500   4.116   4.314   3.444 -1.9640  1.3600  0.4742
 7337TIP3   OH243501   6.655   2.616  11.724  0.5045 -0.0504 -0.2944
 7337TIP3    H143502   6.565   2.649  11.722  0.3381 -0.3584  1.2793
 7337TIP3    H243503   6.691   2.647  11.807  0.6572 -2.9209  0.8424
 7338TIP3   OH243504   0.407   2.780  12.507 -0.3419  0.6061  0.3688
 7338TIP3    H143505   0.495   2.750  12.528  0.5163  1.6289 -1.4865
 7338TIP3    H243506   0.380   2.830  12.584  1.9836  2.8503 -0.1084
 7339TIP3   OH243507   6.676   0.751  16.975 -0.5652  0.3970  0.5192
 7339TIP3    H143508   6.585   0.764  16.947 -0.6416 -0.5786  0.2923
 7339TIP3    H243509   6.700   0.666  16.940  1.2637  1.6753 -1.5488
 7340TIP3   OH243510   0.922   2.635   5.016  0.1935 -0.0291 -0.6231
 7340TIP3    H143511   0.995   2.690   5.047 -0.2168  0.0224  0.2752
 7340TIP3    H243512   0.961   2.549   5.002  1.1319  0.6959 -3.2056
 7341TIP3   OH243513   0.044   5.284  12.339 -0.8613  0.6495  1.1600
 7341TIP3    H143514   0.082   5.202  12.308 -0.6793  0.6523  1.3712
 7341TIP3    H243515   0.020   5.332  12.260 -1.6880  0.0612  1.0354
 7342TIP3   OH243516   5.005   6.738  16.125 -0.2372  0.4603  0.2336
 7342TIP3    H143517   5.063   6.805  16.161  1.4474 -0.5236 -0.5279
 7342TIP3    H243518   4.925   6.786  16.103  0.9503  2.2646 -0.4260
 7343TIP3   OH243519   6.210   1.190   4.360 -0.1770 -0.6579 -0.2374
 7343TIP3    H143520   6.195   1.103   4.326  0.9020 -1.0947  0.3489
 7343TIP3    H243521   6.123   1.223   4.383 -0.4954 -2.0184  0.5732
 7344TIP3   OH243522   0.220   6.667   4.945 -0.2956  0.7480 -0.6315
 7344TIP3    H143523   0.249   6.706   5.027  0.2455  3.5466 -2.0256
 7344TIP3    H243524   0.300   6.630   4.907  0.2876  2.8177 -1.5547
 7345TIP3   OH243525   6.359   5.364   2.547 -0.0249 -0.8528  0.2356
 7345TIP3    H143526   6.435   5.391   2.495 -0.2821 -0.0652  0.2523
 7345TIP3    H243527   6.335   5.279   2.512  0.1246 -0.5636 -0.5944
 7346TIP3   OH243528   2.764   1.586   0.421 -0.2616 -0.1611 -0.4316
 7346TIP3    H143529   2.718   1.628   0.494  2.2827 -0.0348  1.1920
 7346TIP3    H243530   2.765   1.652   0.352 -0.1410  0.8327  0.5016
 7347TIP3   OH243531   2.039   0.438   4.519  0.2219  0.0018  0.9114
 7347TIP3    H143532   1.961   0.396   4.483 -0.2952 -0.6337  2.6574
 7347TIP3    H243533   2.080   0.370   4.572  0.6678  1.0252  1.9111
 7348TIP3   OH243534   2.323   1.714   0.397 -0.0225 -0.3555 -1.4261
 7348TIP3    H143535   2.356   1.804   0.393  0.0045 -0.2870 -0.1232
 7348TIP3    H243536   2.312   1.688   0.306  0.6730  0.7130 -1.8279
 7349TIP3   OH243537   0.761   3.952   0.132 -0.2235  0.3456 -0.0878
 7349TIP3    H143538   0.739   3.959   0.225  0.4433  0.2547  0.0867
 7349TIP3    H243539   0.851   3.919   0.131 -0.3689 -0.0618 -0.7748
 7350TIP3   OH243540   4.517   2.806  16.339  0.1075 -0.4728 -0.3093
 7350TIP3    H143541   4.476   2.719  16.344 -1.0627  0.0842  0.3477
 7350TIP3    H243542   4.592   2.801  16.397 -0.8329 -0.6203  0.9504
 7351TIP3   OH243543   1.046   6.650   5.493 -0.3512 -0.0605 -0.3293
 7351TIP3    H143544   0.962   6.649   5.447 -1.7560 -0.2701  2.0420
 7351TIP3    H243545   1.052   6.738   5.531  0.0167 -0.3557  0.3180
 7352TIP3   OH243546   4.451   3.667   0.396  0.2736  0.1009 -0.2247
 7352TIP3    H143547   4.428   3.724   0.323 -0.3731 -1.6592 -1.4790
 7352TIP3    H243548   4.374   3.668   0.453 -0.2055 -0.3893 -0.8433
 7353TIP3   OH243549   0.738   0.305  14.935 -0.3897  0.3638  0.0956
 7353TIP3    H143550   0.801   0.237  14.959 -0.1501  0.0975 -1.2037
 7353TIP3    H243551   0.654   0.260  14.932 -0.1951  0.0371 -1.0117
 7354TIP3   OH243552   4.537   4.554  13.076 -0.1976 -0.3365 -0.1715
 7354TIP3    H143553   4.475   4.571  13.005 -0.2274 -2.9288 -0.8525
 7354TIP3    H243554   4.596   4.488  13.041  0.0380 -1.3901  2.0641
 7355TIP3   OH243555   3.449   1.032   6.433 -0.5309  0.0184  0.2586
 7355TIP3    H143556   3.467   1.126   6.430  0.6876 -0.1379  1.5723
 7355TIP3    H243557   3.360   1.024   6.400 -1.2340  1.8003  1.5514
 7356TIP3   OH243558   0.796   0.784  16.200  0.2082  0.2788 -0.3479
 7356TIP3    H143559   0.866   0.840  16.233  0.0446 -0.4006  1.2189
 7356TIP3    H243560   0.801   0.794  16.105  0.8396  2.1240 -0.1588
 7357TIP3   OH243561   3.776   0.375   0.440 -0.8571 -0.2757  0.0171
 7357TIP3    H143562   3.771   0.280   0.451  2.2197 -0.4123  0.9828
 7357TIP3    H243563   3.845   0.389   0.376 -1.5751  1.3484 -0.4637
 7358TIP3   OH243564   0.490   0.412   5.204  0.6076 -0.4796  0.3722
 7358TIP3    H143565   0.535   0.337   5.242 -0.0109 -0.3839  1.3026
 7358TIP3    H243566   0.495   0.480   5.272 -0.0243 -0.1227  0.0660
 7359TIP3   OH243567   4.075   0.331   2.759  0.3056 -0.1733 -0.3002
 7359TIP3    H143568   4.135   0.349   2.832  2.1527 -0.3724 -1.6993
 7359TIP3    H243569   4.119   0.262   2.709 -1.7449 -1.2713 -0.6834
 7360TIP3   OH243570   3.252   3.550  16.902  0.6012  0.3643 -0.2394
 7360TIP3    H143571   3.174   3.545  16.847 -0.5443 -1.4097  1.4078
 7360TIP3    H243572   3.239   3.629  16.955 -1.0380 -0.8277  1.2618
 7361TIP3   OH243573   4.239   2.829   4.876 -0.4264  0.2062 -0.3184
 7361TIP3    H143574   4.199   2.905   4.919 -0.3688 -0.6931  1.4145
 7361TIP3    H243575   4.181   2.756   4.899  0.4430 -0.5563 -0.5249
 7362TIP3   OH243576   5.728   6.472  14.314 -0.1190 -0.3360 -0.1193
 7362TIP3    H143577   5.642   6.509  14.336  0.3421 -0.1308  1.4144
 7362TIP3    H243578   5.778   6.547  14.281  0.2291  0.0646  1.2683
 7363TIP3   OH243579   5.947   6.484  13.026  0.1136  0.4042 -0.3861
 7363TIP3    H143580   5.919   6.567  12.988  0.4424  0.9169  0.4815
 7363TIP3    H243581   5.872   6.426  13.012  0.2614  0.5363 -1.9006
 7364TIP3   OH243582   0.514   5.760   4.367 -0.6640 -0.3145  0.0867
 7364TIP3    H143583   0.517   5.726   4.278  0.8370  0.1744 -0.0783
 7364TIP3    H243584   0.605   5.761   4.395 -1.0099  0.5591  1.2405
 7365TIP3   OH243585   6.591   0.665  16.439  0.5261  0.1163  0.3475
 7365TIP3    H143586   6.554   0.742  16.397 -2.2189 -0.0156  2.3016
 7365TIP3    H243587   6.539   0.592  16.406 -1.2858 -0.0648  3.2993
 7366TIP3   OH243588   5.571   3.890  11.343 -0.2477 -0.2005 -0.1682
 7366TIP3    H143589   5.639   3.840  11.297 -1.5964 -2.9559  0.5706
 7366TIP3    H243590   5.618   3.938  11.411  0.9680 -2.6553  0.8458
 7367TIP3   OH243591   6.231   5.109  17.051 -0.0246  0.0483 -0.1205
 7367TIP3    H143592   6.224   5.162  16.971  0.5576 -0.9371 -0.8495
 7367TIP3    H243593   6.198   5.166  17.120 -0.0834  1.1071 -0.9850
 7368TIP3   OH243594   5.162   2.296  16.425  0.0353  0.0585  0.0000
 7368TIP3    H143595   5.110   2.355  16.480 -0.4967 -0.2876 -0.1260
 7368TIP3    H243596   5.127   2.310  16.337 -1.0392 -1.4227  0.1504
 7369TIP3   OH243597   6.645   2.537   5.587 -0.1731 -0.1125 -0.4224
 7369TIP3    H143598   6.646   2.480   5.664 -3.0147  0.3561  0.0658
 7369TIP3    H243599   6.579   2.499   5.530 -1.2459  1.9533 -0.6365
 7370TIP3   OH243600   4.532   4.384   4.792 -0.9016  0.1342 -0.0451
 7370TIP3    H143601   4.448   4.423   4.770 -0.2064  0.9211 -1.4338
 7370TIP3    H243602   4.555   4.330   4.716  1.2882  2.4660 -1.2094
 7371TIP3   OH243603   3.389   4.552  17.018  0.5448  0.0430  0.5104
 7371TIP3    H143604   3.376   4.462  17.048  1.1230 -0.6489 -1.1861
 7371TIP3    H243605   3.349   4.606  17.086 -0.0672 -1.4980  1.4273
 7372TIP3   OH243606   3.012   0.463  11.742  0.4680 -0.2215 -0.6532
 7372TIP3    H143607   3.089   0.506  11.704  2.4321 -0.4675  2.6837
 7372TIP3    H243608   3.020   0.372  11.714 -0.1151  0.2316 -2.4266
 7373TIP3   OH243609   1.628   3.801   1.574 -0.0940  0.4804  0.3640
 7373TIP3    H143610   1.649   3.797   1.667 -0.8606  2.5902  0.6943
 7373TIP3    H243611   1.535   3.826   1.572 -0.0738  0.5222 -0.9777
 7374TIP3   OH243612   6.162   0.074   0.622 -0.0504  0.5064 -0.1468
 7374TIP3    H143613   6.151  -0.018   0.646 -0.4967  1.1299  2.2550
 7374TIP3    H243614   6.256   0.090   0.633  0.1023  0.2592 -0.9946
 7375TIP3   OH243615   5.336   4.430   1.177 -0.4029  0.2779 -0.7859
 7375TIP3    H143616   5.369   4.357   1.124  1.1505 -0.0221  0.5100
 7375TIP3    H243617   5.413   4.485   1.191 -0.2257 -0.6220  2.6980
 7376TIP3   OH243618   1.562   5.326  15.822 -0.1243  0.1295  0.6257
 7376TIP3    H143619   1.534   5.237  15.800  0.6337  0.0263 -0.0096
 7376TIP3    H243620   1.648   5.334  15.780 -0.6507  1.5281 -0.2306
 7377TIP3   OH243621   3.022   5.630  16.086  0.1681  0.0363 -0.1788
 7377TIP3    H143622   3.069   5.671  16.013  0.5038  1.7329  0.9364
 7377TIP3    H243623   3.089   5.614  16.152 -0.5430  1.0618  0.8272
 7378TIP3   OH243624   6.361   3.513   5.730 -0.5214 -0.0487 -0.0356
 7378TIP3    H143625   6.297   3.529   5.661 -0.1929 -0.2552 -0.3885
 7378TIP3    H243626   6.366   3.596   5.778 -0.7926  0.0739 -0.2156
 7379TIP3   OH243627   3.467   3.724  14.620  0.4982 -0.0815 -0.0719
 7379TIP3    H143628   3.508   3.744  14.704  0.8756  0.0775 -0.2963
 7379TIP3    H243629   3.536   3.682  14.568  1.0110  2.0090 -1.1899
 7380TIP3   OH243630   0.390   4.240  14.385  0.0455  0.1040 -0.3998
 7380TIP3    H143631   0.485   4.246  14.392 -0.0925  0.5537  1.8963
 7380TIP3    H243632   0.375   4.180  14.312  2.1251 -1.5694  0.4566
 7381TIP3   OH243633   5.195   1.323   0.273  0.1081 -0.3999 -0.1745
 7381TIP3    H143634   5.183   1.354   0.184 -0.6390 -0.9625 -0.2783
 7381TIP3    H243635   5.209   1.402   0.325  3.2411 -0.1771 -1.1474
 7382TIP3   OH243636   2.221   1.560  14.577  0.3160 -0.0956  0.6681
 7382TIP3    H143637   2.214   1.632  14.514  1.5134 -0.0114  0.6071
 7382TIP3    H243638   2.312   1.562  14.605  0.3851 -1.6596  0.5978
 7383TIP3   OH243639   2.911   4.730  11.055  0.0423 -0.2416  0.8457
 7383TIP3    H143640   2.986   4.782  11.025 -0.0115  0.4338  1.7955
 7383TIP3    H243641   2.837   4.762  11.003  0.6902 -2.1663 -1.3713
 7384TIP3   OH243642   4.151   0.981   5.030 -0.4972 -0.1156  0.4583
 7384TIP3    H143643   4.087   1.015   5.092 -0.6796 -0.8178  0.6706
 7384TIP3    H243644   4.211   0.928   5.084 -0.7103 -0.8027  0.0301
 7385TIP3   OH243645   0.456   1.927  10.633  0.4971  0.6254 -0.3742
 7385TIP3    H143646   0.441   1.834  10.647  0.1439  0.8480  0.8240
 7385TIP3    H243647   0.385   1.954  10.574  0.1214  0.3080 -0.0695
 7386TIP3   OH243648   3.086   2.867   2.921 -0.3595 -0.6184  0.0360
 7386TIP3    H143649   3.062   2.775   2.930 -1.6875 -0.2121  0.7912
 7386TIP3    H243650   3.003   2.913   2.913  0.3166  0.3291 -2.5821
 7387TIP3   OH243651   0.762   4.443   2.095 -0.5128  0.6326 -0.1632
 7387TIP3    H143652   0.732   4.363   2.137  1.0649  0.7903  1.3691
 7387TIP3    H243653   0.789   4.415   2.007 -2.6676  0.0680 -0.7096
 7388TIP3   OH243654   3.602   6.572   4.455  0.0636 -0.5363 -0.0209
 7388TIP3    H143655   3.526   6.607   4.407 -0.1629  0.6394  1.1221
 7388TIP3    H243656   3.564   6.513   4.520  0.3039 -1.4859 -0.7283
 7389TIP3   OH243657   1.377   3.419  15.106 -0.5852 -0.0203  0.0265
 7389TIP3    H143658   1.379   3.494  15.165  0.7110 -0.1988  0.2405
 7389TIP3    H243659   1.287   3.417  15.072 -0.8930  1.0518  0.7397
 7390TIP3   OH243660   6.076   6.180  13.223 -0.7197 -0.6306 -0.5469
 7390TIP3    H143661   6.147   6.133  13.268 -0.4763 -0.3081 -0.5878
 7390TIP3    H243662   6.075   6.142  13.135 -1.0954 -1.1554 -0.3227
 7391TIP3   OH243663   4.108   2.422   3.183 -0.0846 -0.3356 -0.2981
 7391TIP3    H143664   4.052   2.435   3.260  1.1588 -0.4137  0.6607
 7391TIP3    H243665   4.114   2.508   3.142  0.3549  0.0205  0.4948
 7392TIP3   OH243666   1.295   6.232   4.625  0.2028  0.0186  0.4616
 7392TIP3    H143667   1.200   6.227   4.615  0.1021  0.8651  0.8813
 7392TIP3    H243668   1.330   6.169   4.563 -0.7132 -2.1581  2.0418
 7393TIP3   OH243669   6.364   5.061   3.651  0.9410 -0.7932  0.0468
 7393TIP3    H143670   6.368   5.156   3.667 -0.4367 -0.5438 -0.9030
 7393TIP3    H243671   6.336   5.023   3.734 -2.1639  0.0558 -0.4778
 7394TIP3   OH243672   6.564   2.521  13.143  0.0037 -0.0556 -0.2685
 7394TIP3    H143673   6.602   2.548  13.227 -0.0146 -1.7058  0.3092
 7394TIP3    H243674   6.611   2.440  13.121 -1.2007 -0.5812 -0.9676
 7395TIP3   OH243675   6.449   5.101   5.817 -0.0060  0.0456  0.0954
 7395TIP3    H143676   6.475   5.028   5.873  0.5016  0.2811  0.1630
 7395TIP3    H243677   6.355   5.087   5.802  0.0895 -0.6260  0.1009
 7396TIP3   OH243678   4.727   5.478   0.911  1.1181 -0.2528  0.7359
 7396TIP3    H143679   4.766   5.398   0.943  0.6876 -0.7351  0.0926
 7396TIP3    H243680   4.704   5.459   0.820  1.5175  0.7772  0.3984
 7397TIP3   OH243681   2.223   0.775  16.002  0.4062 -0.0273  0.3368
 7397TIP3    H143682   2.162   0.713  16.042 -1.2824  0.4479 -1.3495
 7397TIP3    H243683   2.302   0.723  15.986 -0.9093 -1.7909 -0.9433
 7398TIP3   OH243684   2.482   1.096  11.268  0.3505 -0.0977 -0.4398
 7398TIP3    H143685   2.528   1.126  11.190 -0.3795  1.0813 -0.4349
 7398TIP3    H243686   2.481   1.001  11.261  3.0220 -0.2098 -0.3146
 7399TIP3   OH243687   2.749   5.577  11.420 -0.0432 -0.1153  0.0502
 7399TIP3    H143688   2.734   5.666  11.389  2.9525  0.8825  1.0564
 7399TIP3    H243689   2.682   5.562  11.486 -2.7164  0.0179 -2.4674
 7400TIP3   OH243690   1.057   3.715  14.278 -0.2446  0.0801 -0.6311
 7400TIP3    H143691   1.037   3.623  14.259 -0.8172  0.1853 -0.5324
 7400TIP3    H243692   0.972   3.759  14.277  0.0646  0.6797 -1.0498
 7401TIP3   OH243693   4.765   3.524  12.757  0.2060  0.2471  0.4318
 7401TIP3    H143694   4.676   3.491  12.752 -0.0722  1.1387 -1.6059
 7401TIP3    H243695   4.818   3.446  12.774 -0.9936 -0.1583  2.5975
 7402TIP3   OH243696   4.778   6.359   3.579  0.1887  0.3911 -0.2559
 7402TIP3    H143697   4.800   6.429   3.517 -1.4769  0.1241 -1.2273
 7402TIP3    H243698   4.817   6.280   3.541 -0.5179  0.2938 -0.8152
 7403TIP3   OH243699   5.196   0.793  11.038 -0.0377 -0.0006 -0.3481
 7403TIP3    H143700   5.122   0.850  11.058 -1.2076 -1.2066 -1.0848
 7403TIP3    H243701   5.158   0.706  11.032  1.6088 -0.7879  0.1666
 7404TIP3   OH243702   3.610   5.798   2.661 -0.4731 -0.1914 -0.5812
 7404TIP3    H143703   3.623   5.705   2.679 -0.5225 -0.1329 -0.2415
 7404TIP3    H243704   3.660   5.814   2.581 -1.3283 -0.7473 -1.2451
 7405TIP3   OH243705   1.216   1.064   0.100  0.6883 -0.3926 -0.1255
 7405TIP3    H143706   1.161   1.136   0.071  2.0290  0.6675 -0.1392
 7405TIP3    H243707   1.296   1.106   0.132  1.2960 -1.8438  0.3576
 7406TIP3   OH243708   5.765   2.374  15.632 -0.3599 -0.0474  0.0642
 7406TIP3    H143709   5.705   2.443  15.660  0.2445  0.2349  0.6836
 7406TIP3    H243710   5.788   2.328  15.712  0.5774  0.1129 -0.0997
 7407TIP3   OH243711   1.129   4.096  11.104  0.0784  0.4533  0.0669
 7407TIP3    H143712   1.156   4.174  11.055  0.8981  1.2869  1.7472
 7407TIP3    H243713   1.033   4.104  11.110  0.0782  0.9173 -0.4337
 7408TIP3   OH243714   6.497   1.637  15.972 -0.3502  0.1200 -0.2643
 7408TIP3    H143715   6.510   1.563  15.913  1.0206 -1.3102  1.7217
 7408TIP3    H243716   6.548   1.708  15.933  2.7674 -1.5514  0.4108
 7409TIP3   OH243717   5.122   4.211  12.590 -0.7219  0.0466 -0.1565
 7409TIP3    H143718   5.194   4.257  12.633 -0.1198 -1.9266  1.1286
 7409TIP3    H243719   5.064   4.185  12.662  0.3059 -3.3559 -0.3770
 7410TIP3   OH243720   4.325   3.743  16.640  0.0462 -0.2650 -0.7002
 7410TIP3    H143721   4.405   3.723  16.689 -0.7218 -1.1784  0.2186
 7410TIP3    H243722   4.339   3.701  16.555  0.4292 -0.6597 -0.4500
 7411TIP3   OH243723   2.610   0.626  12.853  0.2453 -0.8514 -0.0002
 7411TIP3    H143724   2.535   0.569  12.869  1.2534 -1.9652  0.9030
 7411TIP3    H243725   2.621   0.676  12.934  0.7451 -1.0239  0.0431
 7412TIP3   OH243726   4.402   3.021  10.671  0.0033 -0.5664  0.0221
 7412TIP3    H143727   4.440   3.038  10.585 -0.7342  0.6697 -0.0811
 7412TIP3    H243728   4.364   3.105  10.698 -1.1242 -1.3136  0.8676
 7413TIP3   OH243729   1.582   5.051  14.770  0.7331  0.0080  0.1042
 7413TIP3    H143730   1.596   5.104  14.691 -2.3608 -0.0427 -0.5804
 7413TIP3    H243731   1.603   5.110  14.842 -1.2603  1.8149 -0.6875
 7414TIP3   OH243732   6.847   0.515  11.822 -0.0018 -0.1172  0.2884
 7414TIP3    H143733   6.876   0.499  11.732 -0.1109 -2.0650  0.5474
 7414TIP3    H243734   6.751   0.505  11.818 -0.2476  1.9309  0.2510
 7415TIP3   OH243735   5.739   5.859  15.129 -0.5140  0.3507 -0.0042
 7415TIP3    H143736   5.650   5.888  15.150 -1.1922 -0.7523 -1.2151
 7415TIP3    H243737   5.785   5.861  15.213 -1.8296  0.4163  0.7397
 7416TIP3   OH243738   3.175   5.450   0.623  0.2751 -0.0719 -0.1712
 7416TIP3    H143739   3.254   5.442   0.677 -0.2616 -2.9886  0.3493
 7416TIP3    H243740   3.205   5.432   0.534  0.2885 -0.7055 -0.0416
 7417TIP3   OH243741   3.625   6.699  13.279 -0.2985 -0.2490 -0.0919
 7417TIP3    H143742   3.675   6.773  13.314  0.5009 -0.8648  0.0959
 7417TIP3    H243743   3.596   6.730  13.193 -0.1690  0.3658  0.0740
 7418TIP3   OH243744   4.558   4.027   5.211 -0.3878 -0.3617 -0.0277
 7418TIP3    H143745   4.493   4.029   5.282 -0.8214 -0.6366 -0.4066
 7418TIP3    H243746   4.553   4.114   5.172 -1.6841 -0.8422 -1.0492
 7419TIP3   OH243747   4.637   4.614   0.286 -0.3100  0.0888  1.1751
 7419TIP3    H143748   4.578   4.614   0.211  0.8309  1.0221  0.2418
 7419TIP3    H243749   4.633   4.524   0.319 -1.5582 -0.0955  0.6089
 7420TIP3   OH243750   0.056   4.554   2.327  0.2920 -0.1475 -0.2364
 7420TIP3    H143751   0.077   4.480   2.385 -0.5254 -1.1938 -1.2167
 7420TIP3    H243752   0.125   4.552   2.260  0.4148  0.1481 -0.1199
 7421TIP3   OH243753   6.138   2.926   2.885 -0.5844  0.4003  0.1995
 7421TIP3    H143754   6.085   2.944   2.807  0.7737 -1.9455 -1.4001
 7421TIP3    H243755   6.197   3.001   2.891 -1.3918  1.1152 -0.3811
 7422TIP3   OH243756   1.863   3.249   4.380 -0.1761 -0.1504  0.2474
 7422TIP3    H143757   1.841   3.157   4.368 -2.9317  0.4943 -0.2218
 7422TIP3    H243758   1.827   3.293   4.303  2.4733  1.1905 -0.3425
 7423TIP3   OH243759   1.217   6.823   5.072  0.5346 -0.2707  0.0667
 7423TIP3    H143760   1.267   6.904   5.062  0.0613 -0.1000 -1.1072
 7423TIP3    H243761   1.248   6.767   5.001 -1.8854  0.3811 -1.6348
 7424TIP3   OH243762   5.499   4.153  12.459  0.1456  0.0042 -0.4302
 7424TIP3    H143763   5.541   4.236  12.435  2.8984 -1.6084 -1.6878
 7424TIP3    H243764   5.461   4.121  12.377  0.0852 -0.4959 -0.2104
 7425TIP3   OH243765   5.020   5.223   5.039  0.1547  0.4801 -0.5416
 7425TIP3    H143766   5.057   5.189   5.120 -0.9345  1.0049  0.1971
 7425TIP3    H243767   5.041   5.316   5.040  1.1845  0.2745 -1.4677
 7426TIP3   OH243768   4.707   3.909  16.164  0.2407 -0.2508  0.4893
 7426TIP3    H143769   4.685   3.820  16.139  3.5874 -1.0373 -0.2199
 7426TIP3    H243770   4.669   3.964  16.096  0.2093 -1.3904 -0.4427
 7427TIP3   OH243771   4.196   0.586  12.588 -0.7912 -0.9827 -0.1315
 7427TIP3    H143772   4.251   0.593  12.666  1.7828  0.5701 -1.9200
 7427TIP3    H243773   4.258   0.569  12.517 -3.0529 -2.6476 -1.8484
 7428TIP3   OH243774   6.036   4.953   4.531  0.1813  0.2669 -0.2784
 7428TIP3    H143775   6.086   4.966   4.612  0.3177  1.6676 -0.5613
 7428TIP3    H243776   6.101   4.959   4.461  0.1595 -1.5431 -0.4851
 7429TIP3   OH243777   1.254   0.076  13.339  0.4778  0.4691 -0.3892
 7429TIP3    H143778   1.215   0.146  13.287  0.0214  0.0532 -0.6170
 7429TIP3    H243779   1.334   0.052  13.291  0.2775  0.3713 -0.6751
 7430TIP3   OH243780   3.463   0.831   5.171 -0.0826 -0.2794 -0.2791
 7430TIP3    H143781   3.382   0.825   5.119  0.0878 -1.2073 -0.4518
 7430TIP3    H243782   3.528   0.783   5.120  0.3632 -0.2765  0.2799
 7431TIP3   OH243783   1.225   0.494  12.099 -0.5517  0.1297 -0.1409
 7431TIP3    H143784   1.176   0.416  12.077 -0.8407 -0.3945  2.0698
 7431TIP3    H243785   1.238   0.540  12.016 -2.7776 -0.8553 -1.0953
 7432TIP3   OH243786   5.204   3.763  11.016  0.0400 -0.3384 -0.3654
 7432TIP3    H143787   5.183   3.830  11.080  0.2469 -1.2899  0.7233
 7432TIP3    H243788   5.189   3.805  10.931  3.0982  2.1294  0.1375
 7433TIP3   OH243789   4.826   0.659   0.099 -0.2597 -0.7095 -0.2319
 7433TIP3    H143790   4.788   0.578   0.065 -0.2791 -1.1053  0.6904
 7433TIP3    H243791   4.904   0.630   0.147 -0.8246 -0.3092  0.9658
 7434TIP3   OH243792   0.361   0.747   2.822 -0.6944 -0.1159 -0.2893
 7434TIP3    H143793   0.285   0.689   2.829 -0.5420 -0.3844 -0.8145
 7434TIP3    H243794   0.434   0.696   2.855 -0.8887  0.4672  1.1091
 7435TIP3   OH243795   2.378   2.069  10.550  0.0212  0.5615  0.0283
 7435TIP3    H143796   2.320   1.998  10.577 -1.3312  1.6943  0.1564
 7435TIP3    H243797   2.364   2.076  10.455  0.5703  0.3076 -0.0776
 7436TIP3   OH243798   4.885   3.956  12.081  0.1283 -0.2133 -0.0713
 7436TIP3    H143799   4.847   3.933  11.996 -0.3293 -1.7453  0.4988
 7436TIP3    H243800   4.822   4.015  12.121  0.8292  1.3365 -1.1789
 7437TIP3   OH243801   5.348   4.882  15.506 -0.3053 -0.2342  0.2249
 7437TIP3    H143802   5.397   4.868  15.425  0.4021 -2.3758  0.9507
 7437TIP3    H243803   5.386   4.963  15.542 -0.9130  0.9960 -1.7049
 7438TIP3   OH243804   6.195   1.588  15.192 -0.2690  0.3533  0.2946
 7438TIP3    H143805   6.210   1.544  15.276  1.6868  0.4421  0.0249
 7438TIP3    H243806   6.196   1.681  15.214 -1.0492  0.3554  0.3497
 7439TIP3   OH243807   3.242   3.871  11.819 -0.1622 -0.2219  0.5778
 7439TIP3    H143808   3.225   3.790  11.771 -0.2279  0.2669 -0.2454
 7439TIP3    H243809   3.310   3.848  11.882 -1.6201 -1.4343  1.7840
 7440TIP3   OH243810   6.023   1.979  16.135 -0.4581 -0.0964 -0.7095
 7440TIP3    H143811   6.012   1.998  16.228 -0.8927  0.9702 -0.9649
 7440TIP3    H243812   5.937   1.948  16.106 -1.0331  1.8551 -1.2492
 7441TIP3   OH243813   6.039   1.562  14.329  0.0664  1.1397 -0.3459
 7441TIP3    H143814   5.995   1.623  14.270 -2.3937  2.9993  3.0985
 7441TIP3    H243815   6.124   1.602  14.346  1.0045  0.3637 -2.7392
 7442TIP3   OH243816   5.303   1.515  15.403  0.0473  0.8136  0.6751
 7442TIP3    H143817   5.358   1.437  15.395 -3.3581 -1.6779 -1.2540
 7442TIP3    H243818   5.354   1.585  15.362  2.6110 -0.7040  1.0178
 7443TIP3   OH243819   3.268   5.992   6.313 -0.2254 -0.0796 -0.3161
 7443TIP3    H143820   3.297   6.082   6.329 -0.2485 -0.1360  0.0415
 7443TIP3    H243821   3.344   5.949   6.273 -0.0740 -0.0170 -0.0951
 7444TIP3   OH243822   0.553   3.200  13.120 -0.5872 -0.1508  0.1247
 7444TIP3    H143823   0.535   3.152  13.201  1.6976 -1.5426 -0.0984
 7444TIP3    H243824   0.557   3.292  13.147 -0.7753 -0.4894  1.4038
 7445TIP3   OH243825   0.240   4.244   5.616 -0.2608 -0.6081  0.5596
 7445TIP3    H143826   0.196   4.261   5.699  0.1094  0.8105  0.4921
 7445TIP3    H243827   0.170   4.239   5.551 -0.4075  1.3176  0.5015
 7446TIP3   OH243828   1.686   6.113   1.805  0.0528 -0.3190  0.1543
 7446TIP3    H143829   1.625   6.178   1.841  1.8197  0.0709  2.7333
 7446TIP3    H243830   1.667   6.033   1.855 -0.4137 -1.1153 -1.2485
 7447TIP3   OH243831   4.270   4.298   2.385  0.4845 -0.6575 -0.2608
 7447TIP3    H143832   4.278   4.279   2.478 -1.2540 -0.7344 -0.0914
 7447TIP3    H243833   4.323   4.376   2.372 -0.8392  0.5731  1.2449
 7448TIP3   OH243834   4.929   3.024  15.282  0.2973 -0.2585  0.3594
 7448TIP3    H143835   4.996   2.956  15.290 -0.9969 -1.6466 -0.1426
 7448TIP3    H243836   4.915   3.034  15.188 -0.1497  0.0750  0.4544
 7449TIP3   OH243837   3.474   3.994   4.958 -0.2611 -0.3190  0.1758
 7449TIP3    H143838   3.567   4.005   4.978  0.0766  0.9420 -1.8140
 7449TIP3    H243839   3.430   4.013   5.041  1.1062  2.7869  0.3517
 7450TIP3   OH243840   5.126   4.873  14.500 -0.2617 -0.4658 -0.1481
 7450TIP3    H143841   5.145   4.947  14.442  0.4297 -1.0730 -0.7110
 7450TIP3    H243842   5.199   4.813  14.487 -0.2348 -0.7349  1.1617
 7451TIP3   OH243843   6.343   2.523  11.013  0.1106 -0.0408  0.3280
 7451TIP3    H143844   6.257   2.566  11.006  1.0502  2.1009  1.0167
 7451TIP3    H243845   6.360   2.491  10.925 -1.3538 -0.4510  0.1554
 7452TIP3   OH243846   0.845   0.811  11.293  0.0522  0.0963 -0.1809
 7452TIP3    H143847   0.862   0.770  11.378  0.7789  0.7682  0.0111
 7452TIP3    H243848   0.800   0.744  11.243  0.2149 -0.5465  0.5105
 7453TIP3   OH243849   0.559   1.454   1.612 -0.7937  0.4935 -0.4203
 7453TIP3    H143850   0.639   1.496   1.643 -1.4417  1.2435  0.3111
 7453TIP3    H243851   0.489   1.510   1.646 -1.6252 -0.1415 -1.0532
 7454TIP3   OH243852   2.244   1.459   4.087  0.0090 -0.3288  0.4106
 7454TIP3    H143853   2.308   1.417   4.144  0.7020  1.2972  0.8987
 7454TIP3    H243854   2.174   1.395   4.078  0.5168 -1.1581  1.9938
 7455TIP3   OH243855   0.625   2.759   3.316 -0.3892 -0.2287  0.7036
 7455TIP3    H143856   0.665   2.839   3.281  0.0413 -0.9497 -0.5318
 7455TIP3    H243857   0.547   2.789   3.363  0.0537  0.9544  0.7163
 7456TIP3   OH243858   6.060   3.029  14.350 -0.1885  0.0271 -0.2450
 7456TIP3    H143859   5.993   3.004  14.413 -0.9184 -1.4721 -1.5464
 7456TIP3    H243860   6.110   3.098  14.394 -1.3973 -0.1381  1.4818
 7457TIP3   OH243861   6.411   3.461   4.751  0.1328 -0.4574  0.1861
 7457TIP3    H143862   6.411   3.483   4.657  3.0816  2.3774  0.6807
 7457TIP3    H243863   6.352   3.525   4.791  0.6781 -0.1383  0.4927
 7458TIP3   OH243864   3.214   1.423  14.180 -0.0639  0.2369 -0.3710
 7458TIP3    H143865   3.153   1.494  14.200  0.8607  0.8216  0.4739
 7458TIP3    H243866   3.170   1.371  14.114 -0.9929  1.2987 -0.6074
 7459TIP3   OH243867   4.008   6.695   2.009  0.5263  0.0639 -0.2954
 7459TIP3    H143868   4.009   6.736   2.095 -1.1454 -0.9919  0.2645
 7459TIP3    H243869   3.923   6.652   2.003 -0.2750  1.7614 -3.2841
 7460TIP3   OH243870   0.898   3.049   1.268 -0.2489 -0.0762  0.0575
 7460TIP3    H143871   0.857   3.030   1.183  0.0844  0.5719 -0.2582
 7460TIP3    H243872   0.915   2.963   1.306 -0.8780 -0.3693 -0.3004
 7461TIP3   OH243873   0.663   5.559   0.136  0.6227  0.3743  0.0075
 7461TIP3    H143874   0.568   5.547   0.142  0.3331  2.1493 -0.4623
 7461TIP3    H243875   0.674   5.628   0.071  2.1718  1.0823  0.9805
 7462TIP3   OH243876   5.782   2.774   2.178 -0.7578  0.2093  0.0746
 7462TIP3    H143877   5.819   2.782   2.090  0.4394  1.3491  0.6492
 7462TIP3    H243878   5.834   2.706   2.220 -0.5258  0.5162  0.2876
 7463TIP3   OH243879   4.634   5.749   4.279  0.4021 -0.3078 -0.2380
 7463TIP3    H143880   4.628   5.788   4.191  1.2456 -0.2922 -0.2996
 7463TIP3    H243881   4.723   5.769   4.307  0.5049 -1.2976  0.1650
 7464TIP3   OH243882   5.350   1.030  15.236 -0.4914 -0.3823 -0.0580
 7464TIP3    H143883   5.332   1.007  15.328  0.8524 -1.1555  0.0454
 7464TIP3    H243884   5.429   0.981  15.215  0.1997  1.1227 -1.1155
 7465TIP3   OH243885   3.508   5.249  14.765  0.2481 -0.4562  0.0186
 7465TIP3    H143886   3.514   5.192  14.841 -0.9153  0.4909  0.8654
 7465TIP3    H243887   3.423   5.228  14.726  0.3893 -0.2258 -0.4209
 7466TIP3   OH243888   5.692   6.542  15.233 -0.3387  0.2724  0.3334
 7466TIP3    H143889   5.617   6.572  15.183  0.0492  1.2974  0.3310
 7466TIP3    H243890   5.681   6.583  15.319  0.0034  0.1017  0.4621
 7467TIP3   OH243891   2.073   2.234   1.996  0.3976 -0.0673  0.0496
 7467TIP3    H143892   2.109   2.270   2.077 -1.9808 -2.4263  2.4032
 7467TIP3    H243893   1.992   2.283   1.982  1.1670  0.8523 -1.4494
 7468TIP3   OH243894   2.103   3.252  12.355  0.0639 -0.5170  0.3796
 7468TIP3    H143895   2.081   3.290  12.271  0.2865 -0.4054  0.3708
 7468TIP3    H243896   2.178   3.196  12.337 -0.4088 -1.1520  0.3470
 7469TIP3   OH243897   0.482   5.304   3.830 -0.2284  0.0807  0.0573
 7469TIP3    H143898   0.562   5.289   3.881 -0.2477 -1.4987 -0.3281
 7469TIP3    H243899   0.415   5.253   3.876 -0.2305 -1.4362 -1.5132
 7470TIP3   OH243900   6.047   1.493  13.386  0.0933 -0.8177  0.1534
 7470TIP3    H143901   6.056   1.400  13.408  0.8932 -1.0788 -1.1813
 7470TIP3    H243902   5.981   1.494  13.316 -0.8484 -0.2284  1.0244
 7471TIP3   OH243903   3.246   0.734   1.517  0.5030 -0.0008  0.4018
 7471TIP3    H143904   3.212   0.676   1.449 -1.0679 -1.1110  2.0591
 7471TIP3    H243905   3.187   0.809   1.516  1.6564  0.9448 -0.7316
 7472TIP3   OH243906   1.186   6.023   2.971 -0.3741 -0.3431  0.1027
 7472TIP3    H143907   1.099   6.020   3.010  0.1539  3.1981  1.9973
 7472TIP3    H243908   1.246   6.006   3.044  0.5359  0.0270 -0.5366
 7473TIP3   OH243909   4.148   0.680   1.097 -0.5710  0.9290 -0.0697
 7473TIP3    H143910   4.186   0.706   1.181 -0.3208  0.3648 -0.0035
 7473TIP3    H243911   4.091   0.606   1.119  0.0621  0.3061 -0.5066
 7474TIP3   OH243912   2.586   5.310   2.736  0.0814 -0.3506 -0.1327
 7474TIP3    H143913   2.599   5.248   2.807  0.9614  0.3658  0.3454
 7474TIP3    H243914   2.543   5.385   2.777 -3.3575 -1.5546 -1.1590
 7475TIP3   OH243915   2.542   4.022  12.575  0.3288 -0.0318  0.3144
 7475TIP3    H143916   2.549   3.960  12.502 -1.4209  1.0429 -0.8404
 7475TIP3    H243917   2.592   3.981  12.645 -0.4199 -2.5792 -0.5062
 7476TIP3   OH243918   3.774   0.246  16.952 -0.5914 -0.2614 -0.0691
 7476TIP3    H143919   3.730   0.184  17.010  1.5663 -1.5307  0.3366
 7476TIP3    H243920   3.860   0.207  16.936  1.1663  2.8921  0.7329
 7477TIP3   OH243921   3.914   6.604  14.613 -0.0456 -0.3632  0.1788
 7477TIP3    H143922   3.822   6.605  14.588 -0.1956 -0.0427  0.7300
 7477TIP3    H243923   3.956   6.550  14.546 -0.8725 -1.8105  0.7797
 7478TIP3   OH243924   2.061   5.186  11.702  0.4391 -0.1483 -0.0509
 7478TIP3    H143925   2.039   5.116  11.764 -0.1035  0.0414 -0.0216
 7478TIP3    H243926   1.990   5.249  11.712  0.8872  0.3735 -0.1284
 7479TIP3   OH243927   1.109   3.407   2.690 -0.0782  0.2765 -0.5975
 7479TIP3    H143928   1.131   3.375   2.777 -0.6568 -0.7098 -0.8048
 7479TIP3    H243929   1.016   3.431   2.695  0.0817  0.9742 -0.7341
 7480TIP3   OH243930   1.816   3.421   4.154 -0.7853  0.8166  0.0638
 7480TIP3    H143931   1.861   3.499   4.121 -1.2547  1.3120  0.5727
 7480TIP3    H243932   1.733   3.454   4.189 -0.9964  0.0873  0.2673
 7481TIP3   OH243933   4.696   3.645  16.088 -0.1336 -0.9119 -0.0160
 7481TIP3    H143934   4.759   3.642  16.016  0.1888 -2.6358  0.2872
 7481TIP3    H243935   4.737   3.594  16.158 -0.7425  0.1425  1.1475
 7482TIP3   OH243936   0.234   6.375  10.834  0.1714 -0.1300 -0.1302
 7482TIP3    H143937   0.312   6.431  10.831 -0.4000  0.6279 -1.4811
 7482TIP3    H243938   0.200   6.376  10.745 -0.6955 -1.4730  0.1593
 7483TIP3   OH243939   2.855   3.254  15.785 -0.5036  1.2149  0.1440
 7483TIP3    H143940   2.879   3.280  15.696 -0.2009  0.6639  0.0654
 7483TIP3    H243941   2.931   3.278  15.838 -0.7219  1.6310  0.2733
 7484TIP3   OH243942   3.378   6.781   4.804 -0.1053  0.4195 -0.0187
 7484TIP3    H143943   3.426   6.714   4.852  1.6695 -0.6274 -3.0019
 7484TIP3    H243944   3.425   6.863   4.822  0.7826 -0.0283 -0.2676
 7485TIP3   OH243945   3.835   4.963   0.332 -0.2279  0.4218 -0.0981
 7485TIP3    H143946   3.859   4.886   0.280 -0.1629  0.3075  0.0979
 7485TIP3    H243947   3.744   4.981   0.307 -0.4876 -0.1580  0.3741
 7486TIP3   OH243948   4.619   1.796   1.484  0.0462  0.1288 -0.2111
 7486TIP3    H143949   4.685   1.727   1.489  0.7396  0.8494  2.1803
 7486TIP3    H243950   4.574   1.792   1.568 -1.2570  1.3123 -0.8118
 7487TIP3   OH243951   1.926   2.418   3.287  0.0269 -0.1725 -0.3410
 7487TIP3    H143952   1.907   2.389   3.376  0.8223  1.5747  0.4462
 7487TIP3    H243953   2.018   2.395   3.274  1.2368  3.3362  0.9751
 7488TIP3   OH243954   1.962   2.515   2.139  0.1662 -0.0039 -0.3783
 7488TIP3    H143955   1.971   2.605   2.106 -0.0143  0.0208 -0.3605
 7488TIP3    H243956   1.903   2.473   2.076  1.5939 -0.6042 -1.3644
 7489TIP3   OH243957   5.288   4.753   1.884  0.3996 -0.0624  0.4381
 7489TIP3    H143958   5.224   4.710   1.827 -0.4004  1.8628 -0.2176
 7489TIP3    H243959   5.373   4.731   1.845  0.0852 -1.5791  0.5487
 7490TIP3   OH243960   2.606   5.192   0.808  0.2596  0.6186 -0.0362
 7490TIP3    H143961   2.560   5.137   0.871  1.0209  1.2098  1.0678
 7490TIP3    H243962   2.562   5.176   0.725  1.0128 -2.3507  0.0306
 7491TIP3   OH243963   5.111   4.178  12.331 -0.3186 -0.0497 -0.2264
 7491TIP3    H143964   5.130   4.140  12.417 -0.0394  0.7355  0.0598
 7491TIP3    H243965   5.183   4.238  12.314  1.2999 -2.3512 -2.3638
 7492TIP3   OH243966   5.858   0.461   5.224  0.1794  0.3870 -0.4109
 7492TIP3    H143967   5.863   0.377   5.269 -0.4138  0.5033 -0.1122
 7492TIP3    H243968   5.945   0.499   5.234  1.1800 -1.1590 -2.4851
 7493TIP3   OH243969   6.664   5.405   0.362 -0.0983 -0.3065  0.1185
 7493TIP3    H143970   6.632   5.485   0.404  0.7140  0.2303 -0.2604
 7493TIP3    H243971   6.730   5.436   0.300  0.4740 -1.3113  0.2224
 7494TIP3   OH243972   5.034   0.599  13.585 -0.3858  0.1203  0.5465
 7494TIP3    H143973   5.067   0.652  13.512  1.7221 -0.1715  1.2254
 7494TIP3    H243974   4.956   0.555  13.550  0.5027  0.0769 -1.4889
 7495TIP3   OH243975   5.545   2.671   2.834 -0.1109  0.2048  0.1482
 7495TIP3    H143976   5.592   2.604   2.784 -0.8767 -0.0636 -0.2341
 7495TIP3    H243977   5.455   2.666   2.802 -0.5582  0.2433  1.3345
 7496TIP3   OH243978   3.876   2.141   3.215 -0.3920  0.2618 -0.1367
 7496TIP3    H143979   3.835   2.214   3.170  0.8169  0.2300 -1.3527
 7496TIP3    H243980   3.969   2.164   3.219 -0.2418 -0.4460  0.9912
 7497TIP3   OH243981   5.336   4.964  11.894  0.4481  0.3520  0.0492
 7497TIP3    H143982   5.258   4.925  11.935 -0.0240  2.2172  1.0353
 7497TIP3    H243983   5.323   4.949  11.800 -1.7314  1.5692  0.0697
 7498TIP3   OH243984   4.208   1.461   6.070  0.2941  0.3440  0.1340
 7498TIP3    H143985   4.269   1.405   6.022  0.7335 -0.1376  1.2215
 7498TIP3    H243986   4.179   1.407   6.143 -0.1502  1.1490  0.5653
 7499TIP3   OH243987   1.944   1.005   4.333 -0.5544  0.6381 -0.4876
 7499TIP3    H143988   1.920   1.066   4.402 -0.8038  1.3849 -1.2136
 7499TIP3    H243989   2.039   1.011   4.328 -0.5677  0.9026 -0.4802
 7500TIP3   OH243990   0.879   0.707   1.065  0.3083 -0.0428  0.0487
 7500TIP3    H143991   0.931   0.695   1.145  0.0557  1.3521  0.4371
 7500TIP3    H243992   0.852   0.799   1.067 -0.8470 -0.3360 -0.9599
 7501TIP3   OH243993   6.496   6.489  12.009  0.3908  0.1997  0.4769
 7501TIP3    H143994   6.451   6.546  11.947 -0.4032 -0.3269  0.5521
 7501TIP3    H243995   6.588   6.515  12.003  0.3845 -0.0247 -1.1331
 7502TIP3   OH243996   3.798   4.150   3.966 -0.6439  0.4084  0.3845
 7502TIP3    H143997   3.870   4.180   3.911 -1.4863 -0.1740 -1.0932
 7502TIP3    H243998   3.802   4.054   3.960 -1.8566  0.3799 -0.1700
 7503TIP3   OH243999   6.783   3.644   2.053  0.2356  0.5633  0.6374
 7503TIP3    H144000   6.805   3.693   1.974 -2.1000 -1.5272 -1.5114
 7503TIP3    H244001   6.747   3.709   2.113 -0.3702  1.8925 -1.0865
 7504TIP3   OH244002   1.992   6.606   1.795  0.1958 -0.0545 -0.1700
 7504TIP3    H144003   1.936   6.561   1.858 -2.0186  3.3637  0.5192
 7504TIP3    H244004   1.936   6.624   1.721  1.1522  1.0688 -0.6530
 7505TIP3   OH244005   4.597   2.305  12.892 -0.2305 -0.0954  0.7162
 7505TIP3    H144006   4.688   2.286  12.869  0.5057  0.9869  2.4514
 7505TIP3    H244007   4.550   2.303  12.809  1.1217 -1.9103 -0.0801
 7506TIP3   OH244008   5.489   1.549   6.039  0.2806 -0.7391 -0.2757
 7506TIP3    H144009   5.491   1.613   5.967 -1.8206 -1.1794 -0.8013
 7506TIP3    H244010   5.571   1.563   6.085  0.6322  1.2154 -1.3500
 7507TIP3   OH244011   1.351   4.540  14.240  0.3008 -0.0959 -0.8403
 7507TIP3    H144012   1.338   4.634  14.253  0.3233  0.0490 -1.7880
 7507TIP3    H244013   1.416   4.535  14.169  0.6353 -0.8231 -0.4852
 7508TIP3   OH244014   5.384   6.519  15.831  0.0995  0.5662  0.1041
 7508TIP3    H144015   5.391   6.602  15.878 -1.8684  0.7096  0.2208
 7508TIP3    H244016   5.315   6.533  15.768 -0.4116 -1.0517  0.2604
 7509TIP3   OH244017   2.012   2.818  15.620  0.0669  0.5194 -0.4994
 7509TIP3    H144018   2.020   2.909  15.648 -0.3120  0.5829 -0.6018
 7509TIP3    H244019   2.095   2.778  15.646  0.6378  1.1325 -1.3288
 7510TIP3   OH244020   5.016   3.352   4.983  0.6577 -0.1122  0.5354
 7510TIP3    H144021   4.969   3.435   4.982  3.7652  1.8784  1.7623
 7510TIP3    H244022   5.001   3.314   4.897 -3.4041  0.0415  0.9842
 7511TIP3   OH244023   6.806   0.011  10.886  0.0901  0.4047 -0.3268
 7511TIP3    H144024   6.826  -0.022  10.798 -1.7168  0.0402 -0.6403
 7511TIP3    H244025   6.781   0.103  10.871  1.0807  0.7292 -0.0089
 7512TIP3   OH244026   4.244   4.100  16.394  0.4927  0.0353 -0.0318
 7512TIP3    H144027   4.246   4.135  16.305 -0.6795 -0.1884 -0.1613
 7512TIP3    H244028   4.335   4.076  16.413  1.0525  1.6481 -0.5281
 7513TIP3   OH244029   0.289   3.743   2.136  0.2975  0.5610 -0.1463
 7513TIP3    H144030   0.265   3.675   2.073  0.7770  1.8993 -1.8472
 7513TIP3    H244031   0.342   3.697   2.202 -2.3743 -1.4012  0.8019
 7514TIP3   OH244032   0.943   4.318  10.688  0.0166 -0.3278  0.4569
 7514TIP3    H144033   1.012   4.379  10.716 -0.5384  0.6392 -0.2409
 7514TIP3    H244034   0.990   4.252  10.637  0.2278  1.4615 -1.8215
 7515TIP3   OH244035   3.673   2.887  14.153 -0.3716 -0.2377 -0.0569
 7515TIP3    H144036   3.639   2.975  14.136 -0.7894 -0.4489 -0.3332
 7515TIP3    H244037   3.653   2.838  14.073 -3.5435 -1.6180  1.4466
 7516TIP3   OH244038   4.947   5.134   2.688 -0.0550 -0.1132 -0.0679
 7516TIP3    H144039   4.899   5.216   2.682 -0.7241 -0.4675  0.2586
 7516TIP3    H244040   4.918   5.083   2.612  0.6308  0.0815 -0.4726
 7517TIP3   OH244041   4.778   4.077   4.924 -0.3378 -0.4837 -0.1650
 7517TIP3    H144042   4.697   4.029   4.939 -0.0249 -0.7803  0.6251
 7517TIP3    H244043   4.814   4.039   4.843 -0.4099 -1.1601  0.1087
 7518TIP3   OH244044   0.197   4.989   1.806 -0.5854 -0.2971  0.5023
 7518TIP3    H144045   0.265   4.939   1.851 -0.3319 -0.5740 -0.1783
 7518TIP3    H244046   0.245   5.060   1.763 -0.9476  0.5910  1.5091
 7519TIP3   OH244047   0.982   6.819  13.215  0.2269  0.3892  0.4622
 7519TIP3    H144048   1.004   6.841  13.306  1.4251 -0.8543  0.5192
 7519TIP3    H244049   1.058   6.849  13.165  0.7072 -1.1154  0.2229
 7520TIP3   OH244050   0.614   5.447   4.294  0.1304  0.9275  0.2385
 7520TIP3    H144051   0.613   5.542   4.305 -0.0275  0.7162  2.4426
 7520TIP3    H244052   0.535   5.416   4.338  0.2967 -0.2430 -0.2406
 7521TIP3   OH244053   5.952   4.289  10.377  0.5048 -0.6675  0.5597
 7521TIP3    H144054   6.017   4.357  10.393  0.1103 -0.1734  0.0997
 7521TIP3    H244055   5.933   4.296  10.283 -1.8256  0.6834  1.0658
 7522TIP3   OH244056   6.479   2.040   0.628 -0.2172  0.0472 -0.4445
 7522TIP3    H144057   6.554   2.018   0.574  0.2295 -0.5188  0.3922
 7522TIP3    H244058   6.508   2.114   0.681 -0.0835 -0.4549  0.2007
 7523TIP3   OH244059   3.313   1.313  16.687  0.7707  0.0705 -0.0605
 7523TIP3    H144060   3.393   1.278  16.726  1.0478  0.6199 -0.1301
 7523TIP3    H244061   3.252   1.239  16.689  1.2862 -0.3647 -0.0434
 7524TIP3   OH244062   4.254   3.325   4.100 -0.1283 -0.4022 -0.3155
 7524TIP3    H144063   4.180   3.347   4.044 -0.5438 -1.7431 -0.3169
 7524TIP3    H244064   4.234   3.239   4.135  1.2727 -0.6472 -0.0379
 7525TIP3   OH244065   2.313   1.254   5.118 -0.0530 -0.0321 -0.2306
 7525TIP3    H144066   2.336   1.325   5.178 -2.8493  2.2395 -1.6157
 7525TIP3    H244067   2.275   1.187   5.175  0.0509  0.8047  0.8616
 7526TIP3   OH244068   1.393   4.899   3.910  0.6678 -0.5791 -0.4900
 7526TIP3    H144069   1.458   4.925   3.845 -1.2083 -0.5656 -2.4728
 7526TIP3    H244070   1.378   4.977   3.962  1.2296 -0.1909 -0.9004
 7527TIP3   OH244071   1.157   3.843   2.902 -0.0719 -0.5976  0.3729
 7527TIP3    H144072   1.240   3.808   2.867 -0.5987 -0.4020 -1.1579
 7527TIP3    H244073   1.118   3.769   2.948  0.2223 -1.1758 -0.2770
 7528TIP3   OH244074   3.437   1.125  13.091  0.1509 -0.2819 -0.3394
 7528TIP3    H144075   3.471   1.174  13.016  0.8853 -2.1016 -1.2597
 7528TIP3    H244076   3.393   1.050  13.053  0.9379 -1.5009  1.0617
 7529TIP3   OH244077   5.278   5.870  13.989  0.3008  0.0366 -0.0110
 7529TIP3    H144078   5.315   5.886  14.076  0.3267  0.4118 -0.0911
 7529TIP3    H244079   5.206   5.809  14.004 -0.5174  1.0959  0.4314
 7530TIP3   OH244080   3.562   6.646  12.324 -0.2508  0.2398 -0.0695
 7530TIP3    H144081   3.628   6.711  12.348 -0.5187  0.4097  0.2150
 7530TIP3    H244082   3.546   6.598  12.405  0.8828 -1.0390 -0.5633
 7531TIP3   OH244083   5.691   2.856  11.998 -0.3210 -0.0807 -0.1174
 7531TIP3    H144084   5.617   2.898  11.954 -2.3528 -3.3774 -0.2136
 7531TIP3    H244085   5.679   2.877  12.090 -0.6175  0.4561 -0.2746
 7532TIP3   OH244086   2.960   4.173   5.922  0.5254  0.1541 -0.3005
 7532TIP3    H144087   2.998   4.221   5.996 -0.7482  1.5266 -0.4985
 7532TIP3    H244088   2.876   4.216   5.906  1.0802  0.4074 -3.0424
 7533TIP3   OH244089   3.667   4.944  11.988 -0.0763 -0.1379  0.8462
 7533TIP3    H144090   3.742   4.908  12.037  1.0961  0.9194 -0.1025
 7533TIP3    H244091   3.682   4.915  11.898  0.0695  1.4054  0.3515
 7534TIP3   OH244092   4.064   0.200   0.359 -0.0529  0.3494  0.0856
 7534TIP3    H144093   4.119   0.232   0.430 -1.5850 -0.0989  1.5302
 7534TIP3    H244094   3.993   0.152   0.402 -0.9457 -0.0964 -1.7486
 7535TIP3   OH244095   2.728   5.496   3.914 -0.6204 -0.1150  0.1865
 7535TIP3    H144096   2.780   5.450   3.847  1.0412  0.1480  1.2484
 7535TIP3    H244097   2.641   5.457   3.907 -0.0963 -1.1413 -1.1173
 7536TIP3   OH244098   1.062   0.648   5.357  0.9530  1.2789  0.4626
 7536TIP3    H144099   0.978   0.680   5.325 -0.0909  0.9742  2.7293
 7536TIP3    H244100   1.089   0.583   5.292 -1.4858  0.0075  0.6179
 7537TIP3   OH244101   4.072   1.466   4.636  0.4111  0.6064  0.0111
 7537TIP3    H144102   4.040   1.537   4.581  0.1294  1.6005  1.3975
 7537TIP3    H244103   3.993   1.432   4.680  0.6817  0.1291  0.1383
 7538TIP3   OH244104   4.389   1.852   0.677  0.2522  0.4352  0.1928
 7538TIP3    H144105   4.453   1.783   0.690 -0.0165 -0.1764 -1.5528
 7538TIP3    H244106   4.391   1.871   0.583 -2.1253  0.3776  0.0658
 7539TIP3   OH244107   4.749   4.964   5.622 -0.3835 -0.4287 -0.0629
 7539TIP3    H144108   4.690   4.992   5.692 -0.6306  0.7282 -0.6970
 7539TIP3    H244109   4.795   4.888   5.657 -0.7809 -0.1023  1.2047
 7540TIP3   OH244110   2.903   3.713  15.381 -0.1593 -0.4387 -0.2189
 7540TIP3    H144111   2.985   3.669  15.402 -0.0887 -1.5899 -2.6101
 7540TIP3    H244112   2.900   3.714  15.286 -1.2922  2.7413 -0.2447
 7541TIP3   OH244113   4.506   4.394  14.115 -0.5650  0.3023  0.0810
 7541TIP3    H144114   4.597   4.367  14.130 -1.4647 -3.5401 -0.3468
 7541TIP3    H244115   4.477   4.427  14.200  0.1576 -2.3034  1.4590
 7542TIP3   OH244116   5.842   0.292   2.262 -0.0295  0.2780 -0.8674
 7542TIP3    H144117   5.848   0.331   2.175  0.3051  0.5740 -0.7128
 7542TIP3    H244118   5.848   0.197   2.246  1.2224  0.3796 -1.0649
 7543TIP3   OH244119   3.020   4.055   1.976 -0.7077 -0.1904 -0.7927
 7543TIP3    H144120   3.040   3.961   1.967  1.7032  0.0910  0.7059
 7543TIP3    H244121   3.100   4.099   1.948 -1.0160  1.3208  0.5847
 7544TIP3   OH244122   3.021   5.238   2.513  0.3279  0.1431 -0.4981
 7544TIP3    H144123   3.080   5.275   2.579 -1.3625 -0.8650  1.7124
 7544TIP3    H244124   2.938   5.227   2.559 -0.4424 -2.3640 -2.2705
 7545TIP3   OH244125   2.152   0.136  14.541 -0.2835 -0.3318 -0.3631
 7545TIP3    H144126   2.210   0.075  14.587 -1.6053 -2.0926 -0.9096
 7545TIP3    H244127   2.101   0.178  14.610  1.5260  1.1834  0.1151
 7546TIP3   OH244128   0.290   4.496   4.130  0.8672 -0.2819 -0.0290
 7546TIP3    H144129   0.376   4.467   4.161  0.7068  0.0965  0.7950
 7546TIP3    H244130   0.294   4.487   4.034  1.9980  0.2136 -0.0386
 7547TIP3   OH244131   4.689   3.556  17.050 -0.4745 -0.7740  0.0176
 7547TIP3    H144132   4.768   3.582  17.001 -1.6186  1.0401 -0.9946
 7547TIP3    H244133   4.632   3.516  16.984 -0.9825 -0.7181  0.4158
 7548TIP3   OH244134   5.865   4.492  16.946  0.3180  0.2720 -0.1529
 7548TIP3    H144135   5.798   4.481  17.013  0.3673  0.0364 -0.1402
 7548TIP3    H244136   5.838   4.570  16.897  0.9574  1.2200  0.9365
 7549TIP3   OH244137   5.907   6.764  15.945  0.4164 -0.3749 -0.0361
 7549TIP3    H144138   5.918   6.747  16.038  0.6527 -1.6458 -0.2763
 7549TIP3    H244139   5.887   6.858  15.939 -1.8032 -0.6838  1.4499
 7550TIP3   OH244140   5.039   0.959  16.346 -0.1458  0.1563 -0.7186
 7550TIP3    H144141   5.125   0.995  16.367 -1.4583  1.9860  1.9755
 7550TIP3    H244142   5.008   0.920  16.428 -2.5703  1.0566 -1.1228
 7551TIP3   OH244143   5.779   3.824   2.196  0.1735  0.0688 -0.8226
 7551TIP3    H144144   5.776   3.778   2.280 -0.5991  0.6844 -0.5070
 7551TIP3    H244145   5.847   3.778   2.147  1.2988  0.2665  0.4682
 7552TIP3   OH244146   6.705   2.090  11.382 -0.0989  0.4564 -0.0138
 7552TIP3    H144147   6.649   2.040  11.323  1.1575  1.0919 -1.8141
 7552TIP3    H244148   6.773   2.029  11.409  0.1218  0.5545 -0.3488
 7553TIP3   OH244149   5.041   1.797  11.421 -0.8196 -0.7862  0.0871
 7553TIP3    H144150   5.106   1.863  11.444 -0.9823 -0.3481 -0.6639
 7553TIP3    H244151   4.993   1.835  11.347 -0.7139 -1.8729 -0.5657
 7554TIP3   OH244152   6.832   1.613  12.814  0.8583  0.4582  0.1057
 7554TIP3    H144153   6.747   1.633  12.775 -0.9146 -1.2221  2.7493
 7554TIP3    H244154   6.818   1.622  12.909  3.4274 -0.5737  0.6710
 7555TIP3   OH244155   6.286   3.582  15.721  0.7348  0.4583 -0.0684
 7555TIP3    H144156   6.287   3.563  15.814  3.9478  0.8687  0.1020
 7555TIP3    H244157   6.233   3.512  15.682  2.0333 -1.6619  1.7615
 7556TIP3   OH244158   5.469   2.707  16.853  0.0397 -0.1276  0.1086
 7556TIP3    H144159   5.515   2.755  16.921 -1.2169  1.7157 -0.2540
 7556TIP3    H244160   5.537   2.683  16.790  1.0564 -0.9835  1.5004
 7557TIP3   OH244161   5.116   6.178  10.963 -0.3762  0.1998  0.0375
 7557TIP3    H144162   5.165   6.101  10.935 -0.5920  0.3871 -0.8677
 7557TIP3    H244163   5.178   6.250  10.952  0.7912 -0.1123  3.4452
 7558TIP3   OH244164   0.993   1.172   4.243 -0.0448  0.2138  1.1144
 7558TIP3    H144165   0.912   1.122   4.252 -0.7909  1.1587 -0.0447
 7558TIP3    H244166   0.965   1.263   4.248  1.0496  0.5450  1.3592
 7559TIP3   OH244167   6.821   4.760  13.396  0.7230 -0.7202  0.2257
 7559TIP3    H144168   6.842   4.830  13.457 -0.9022 -1.3390  1.5773
 7559TIP3    H244169   6.768   4.802  13.328  2.7612  0.0245 -0.9895
 7560TIP3   OH244170   2.096   5.981   4.165 -0.2480  0.3561  0.5483
 7560TIP3    H144171   2.169   6.023   4.121  0.2837 -0.7711  0.3124
 7560TIP3    H244172   2.137   5.929   4.234 -0.7486 -0.8107 -0.0020
 7561TIP3   OH244173   6.173   2.015   0.339 -0.1665 -0.6448 -0.6794
 7561TIP3    H144174   6.167   1.987   0.431 -0.2021  0.9723 -0.1535
 7561TIP3    H244175   6.082   2.031   0.314 -0.0268  0.7969 -0.3487
 7562TIP3   OH244176   4.094   1.348  11.289  0.0800 -0.0214  0.8678
 7562TIP3    H144177   4.121   1.396  11.368  3.5111 -2.0774  1.1574
 7562TIP3    H244178   4.167   1.361  11.228 -1.7239  0.0930 -1.3869
 7563TIP3   OH244179   2.478   1.295  11.476  0.2400  0.2641 -0.6351
 7563TIP3    H144180   2.493   1.226  11.411  0.2736 -0.0845 -0.2658
 7563TIP3    H244181   2.493   1.376  11.429 -0.4307  0.0453 -1.2534
 7564TIP3   OH244182   3.658   1.856  14.391 -0.1834 -0.0523  0.5666
 7564TIP3    H144183   3.637   1.839  14.299 -1.1773  2.5366  0.2181
 7564TIP3    H244184   3.701   1.941  14.391  1.1549 -0.6409  2.4053
 7565TIP3   OH244185   5.206   5.686   4.760  0.2525  0.2135  0.5770
 7565TIP3    H144186   5.297   5.678   4.732  0.4219 -1.1029  1.3723
 7565TIP3    H244187   5.194   5.779   4.779  1.4224  0.4106  0.4066
 7566TIP3   OH244188   4.706   3.370  11.574  0.0114 -0.0321 -0.2530
 7566TIP3    H144189   4.736   3.293  11.526  1.6637 -0.6180  1.6033
 7566TIP3    H244190   4.729   3.353  11.665 -0.7337  2.1283  0.4129
 7567TIP3   OH244191   4.557   4.833  14.282  0.9200 -0.5795 -0.2328
 7567TIP3    H144192   4.609   4.911  14.302 -0.2746  0.0791  0.4318
 7567TIP3    H244193   4.518   4.851  14.197 -1.0349  0.5357  0.8196
 7568TIP3   OH244194   5.622   5.577  12.486 -0.3332 -0.5293 -0.3155
 7568TIP3    H144195   5.635   5.548  12.576 -1.8915  0.0352  0.1309
 7568TIP3    H244196   5.606   5.672  12.494  3.1598  0.2884 -1.5725
 7569TIP3   OH244197   6.827   2.072   4.565  0.3180  0.1625  0.0595
 7569TIP3    H144198   6.757   2.034   4.512  0.4597 -0.5830  0.3958
 7569TIP3    H244199   6.786   2.146   4.611 -0.1219  0.0216 -0.1096
 7570TIP3   OH244200   3.130   5.626   4.069  0.3703  0.2415 -0.3614
 7570TIP3    H144201   3.101   5.632   3.979  0.3171 -1.2087 -0.4758
 7570TIP3    H244202   3.215   5.582   4.064 -0.7385 -2.1770  0.3950
 7571TIP3   OH244203   6.219   5.309   0.840  0.2536  0.1403 -0.1484
 7571TIP3    H144204   6.268   5.286   0.920 -0.1282  1.3874  0.4605
 7571TIP3    H244205   6.127   5.299   0.865  0.0640  2.1141  0.1204
 7572TIP3   OH244206   2.119   6.750   0.011  0.5521  0.1720 -0.7697
 7572TIP3    H144207   2.052   6.682   0.023  0.4958  0.1932 -0.9571
 7572TIP3    H244208   2.128   6.789   0.098 -1.8808  2.2121 -1.3215
 7573TIP3   OH244209   4.642   4.135  14.955  0.0461 -0.3254  0.0845
 7573TIP3    H144210   4.579   4.167  15.020 -0.6454  0.4520 -0.9529
 7573TIP3    H244211   4.699   4.076  15.005 -0.6595  0.0105  1.3308
 7574TIP3   OH244212   3.670   2.538   1.702  0.8044  0.3837 -0.6452
 7574TIP3    H144213   3.624   2.460   1.672 -1.0594  1.0545  0.3018
 7574TIP3    H244214   3.663   2.535   1.797  0.6238  1.7352 -0.5975
 7575TIP3   OH244215   3.152   5.877  16.821  0.5191  0.1648 -0.6876
 7575TIP3    H144216   3.180   5.915  16.738 -1.7644  0.1606 -1.5230
 7575TIP3    H244217   3.170   5.784  16.813  2.5887  0.4620 -0.1387
 7576TIP3   OH244218   4.387   5.708   2.262  0.0781  0.0678 -0.0541
 7576TIP3    H144219   4.310   5.655   2.243  0.6741 -0.9181  0.2025
 7576TIP3    H244220   4.415   5.742   2.177 -1.2478  1.3540 -0.0272
 7577TIP3   OH244221   3.873   5.256   4.775 -0.0434 -0.0999  0.0782
 7577TIP3    H144222   3.860   5.240   4.869  1.4622  0.6042  0.4395
 7577TIP3    H244223   3.945   5.319   4.771 -0.4802  0.3505 -1.5437
 7578TIP3   OH244224   3.585   2.565   3.993 -0.3450  0.0067 -0.3055
 7578TIP3    H144225   3.594   2.486   3.940  0.1314  0.2174 -0.5429
 7578TIP3    H244226   3.675   2.594   4.009 -0.5229  1.1378 -1.1786
 7579TIP3   OH244227   3.975   3.182   1.064  0.0346  0.0844 -0.2763
 7579TIP3    H144228   4.023   3.099   1.057 -0.0845 -0.0507  0.4437
 7579TIP3    H244229   3.924   3.186   0.983 -2.9480 -2.4908  1.2489
 7580TIP3   OH244230   6.006   4.524   5.610  0.2602 -0.0569  0.1839
 7580TIP3    H144231   5.987   4.616   5.631 -1.0151 -0.9864  3.8600
 7580TIP3    H244232   5.925   4.491   5.573  0.0258 -0.1771  0.7970
 7581TIP3   OH244233   0.137   3.550   3.943  0.3922 -0.0085 -0.1990
 7581TIP3    H144234   0.073   3.611   3.979  1.8474  1.7980 -0.5208
 7581TIP3    H244235   0.205   3.543   4.010  0.1267 -1.5431 -0.0481
 7582TIP3   OH244236   4.282   3.939  12.852  0.6075 -0.0066  0.3335
 7582TIP3    H144237   4.228   3.905  12.923 -2.1119  1.2348 -1.0013
 7582TIP3    H244238   4.349   3.992  12.896 -1.3088  1.1692  2.0366
 7583TIP3   OH244239   1.421   6.475  11.658  0.0430 -0.1656 -0.1740
 7583TIP3    H144240   1.440   6.403  11.598  0.3552 -1.2361  1.1321
 7583TIP3    H244241   1.500   6.482  11.712 -0.3664  0.4832  0.3632
 7584TIP3   OH244242   6.830   6.692   3.595  0.7429 -0.2421  0.6230
 7584TIP3    H144243   6.746   6.673   3.636  0.2233  0.5456 -0.0506
 7584TIP3    H244244   6.893   6.639   3.645 -0.2395 -1.4597  0.6432
 7585TIP3   OH244245   2.550   6.382   0.430  0.1625  0.1475  0.1175
 7585TIP3    H144246   2.644   6.383   0.450  0.4965  0.7545 -1.3197
 7585TIP3    H244247   2.515   6.312   0.484  1.1722  0.8362  1.7684
 7586TIP3   OH244248   5.788   5.871   0.741  0.6393 -0.1818  0.4602
 7586TIP3    H144249   5.813   5.903   0.655  2.3742  1.4914  1.5287
 7586TIP3    H244250   5.712   5.924   0.765 -0.5128 -1.3579 -0.3997
 7587TIP3   OH244251   4.182   5.688   2.504 -0.1105  0.0117 -0.3050
 7587TIP3    H144252   4.172   5.690   2.599 -0.7191 -0.2473 -0.3575
 7587TIP3    H244253   4.181   5.595   2.481 -1.6044  0.1051 -0.7146
 7588TIP3   OH244254   0.337   0.812  13.856  0.1310 -0.7477 -0.1963
 7588TIP3    H144255   0.315   0.879  13.921  0.3536 -0.8557 -0.0086
 7588TIP3    H244256   0.422   0.839  13.822 -0.6643  0.1698 -1.5773
 7589TIP3   OH244257   2.357   5.505  11.615 -0.0333  0.2407  0.6055
 7589TIP3    H144258   2.315   5.582  11.653 -1.5870 -1.2248  2.0439
 7589TIP3    H244259   2.287   5.461  11.566  0.6373 -0.5918  0.3601
 7590TIP3   OH244260   3.793   2.091  14.004 -0.8384 -0.0649  0.0247
 7590TIP3    H144261   3.794   2.160  13.938  0.2485 -1.1205 -1.1106
 7590TIP3    H244262   3.728   2.028  13.973 -0.8116 -0.2378  0.3172
 7591TIP3   OH244263   4.164   0.980  16.054  0.5272 -0.2059  0.4959
 7591TIP3    H144264   4.203   1.039  15.990 -0.7048 -0.1608 -0.2485
 7591TIP3    H244265   4.210   0.897  16.041  0.6084 -0.0711 -0.1345
 7592TIP3   OH244266   6.065   1.924  15.867  0.2358 -0.0799 -0.1279
 7592TIP3    H144267   6.054   1.947  15.959 -0.2070 -0.3297 -0.1155
 7592TIP3    H244268   6.159   1.908  15.857  0.3247  0.2079  0.2172
 7593TIP3   OH244269   6.777   1.837   2.519 -0.2934  0.7731  0.2566
 7593TIP3    H144270   6.727   1.915   2.544 -2.5091 -0.8578  1.3180
 7593TIP3    H244271   6.745   1.815   2.431  1.0911  1.6038 -0.4793
 7594TIP3   OH244272   3.941   5.928  11.332 -0.1699  0.3032 -0.1096
 7594TIP3    H144273   3.901   5.907  11.416  0.3401 -2.8241 -0.5241
 7594TIP3    H244274   4.032   5.898  11.341  0.2090  1.0075 -1.3794
 7595TIP3   OH244275   4.166   1.232   5.899  0.3318 -0.2679 -0.0552
 7595TIP3    H144276   4.072   1.217   5.915  0.0267  0.3274 -1.1880
 7595TIP3    H244277   4.183   1.188   5.815  0.9080  0.2145 -0.1945
 7596TIP3   OH244278   0.049   3.880  10.922 -0.5050 -0.1038 -0.2114
 7596TIP3    H144279   0.085   3.892  11.010 -0.6984 -1.8386  0.1418
 7596TIP3    H244280   0.016   3.967  10.898 -0.8790  0.3233  1.6259
 7597TIP3   OH244281   4.192   5.402   5.161  0.4815 -0.3350  0.3864
 7597TIP3    H144282   4.129   5.355   5.217 -0.5760 -1.2053 -1.4539
 7597TIP3    H244283   4.274   5.397   5.210 -0.8119  0.8284  2.8731
 7598TIP3   OH244284   3.678   0.880   4.940  0.5756  0.6736 -0.3799
 7598TIP3    H144285   3.699   0.788   4.959 -0.4719  0.6542  0.7748
 7598TIP3    H244286   3.617   0.875   4.866 -0.8317  0.3059  0.7628
 7599TIP3   OH244287   6.195   2.415   3.172  0.2840  0.1705 -0.5068
 7599TIP3    H144288   6.126   2.423   3.106  0.3415 -0.0302 -0.5950
 7599TIP3    H244289   6.242   2.334   3.147  0.0496 -0.1312  0.0230
 7600TIP3   OH244290   2.887   0.018   2.954  0.1251 -0.0628 -0.0335
 7600TIP3    H144291   2.940  -0.051   2.994  0.8869  1.1386  1.1025
 7600TIP3    H244292   2.904   0.010   2.860  0.3477 -1.2841  0.0971
 7601TIP3   OH244293   4.841   6.009   3.753  0.0327 -0.2063 -0.3114
 7601TIP3    H144294   4.768   6.054   3.797 -0.0655  0.1039 -0.7818
 7601TIP3    H244295   4.842   5.922   3.793 -1.4734 -0.6839 -1.2321
 7602TIP3   OH244296   2.606   4.138  17.018  0.6082 -0.3557  0.0446
 7602TIP3    H144297   2.627   4.075  16.949  1.9791  0.2978 -0.1844
 7602TIP3    H244298   2.681   4.135  17.077 -0.2947 -0.4955  1.2150
 7603TIP3   OH244299   4.380   2.147  12.095  0.1771 -0.3969  0.3541
 7603TIP3    H144300   4.289   2.172  12.110  0.4033 -0.4781  1.9684
 7603TIP3    H244301   4.387   2.059  12.131  0.9829 -0.2531  0.5699
 7604TIP3   OH244302   4.193   0.334   4.217  0.7044 -0.2465 -0.1128
 7604TIP3    H144303   4.168   0.298   4.302 -1.6223 -1.5679 -1.2290
 7604TIP3    H244304   4.166   0.267   4.154  1.6261  1.0157 -1.9461
 7605TIP3   OH244305   5.830   5.259  10.826 -0.2644 -0.2930 -0.7263
 7605TIP3    H144306   5.784   5.311  10.760 -4.2631  0.0082  1.9523
 7605TIP3    H244307   5.863   5.183  10.778 -2.6036  0.1017 -3.1960
 7606TIP3   OH244308   5.135   4.307  16.864 -0.4863  0.0409 -0.0839
 7606TIP3    H144309   5.062   4.368  16.877 -0.6015 -0.2783  0.8792
 7606TIP3    H244310   5.171   4.330  16.778 -3.1371 -1.2720 -1.7007
 7607TIP3   OH244311   0.542   5.901   3.372  0.4454 -0.3259 -0.6504
 7607TIP3    H144312   0.464   5.941   3.334  0.8941 -1.2306 -2.6281
 7607TIP3    H244313   0.585   5.972   3.419 -1.2553  0.3146  0.0336
 7608TIP3   OH244314   5.762   0.514   1.351 -0.3694  0.2018  0.3162
 7608TIP3    H144315   5.734   0.592   1.303 -1.8687 -0.1218  0.5900
 7608TIP3    H244316   5.847   0.537   1.388 -0.0017  1.0879 -1.0075
 7609TIP3   OH244317   0.482   5.244   4.476 -0.5835 -0.3103  0.4108
 7609TIP3    H144318   0.525   5.190   4.409 -0.8347  0.2476 -0.2141
 7609TIP3    H244319   0.539   5.236   4.552  1.2014  1.1459 -0.6754
 7610TIP3   OH244320   1.181   5.539   2.743 -0.2419  0.3282  0.1227
 7610TIP3    H144321   1.246   5.592   2.790  0.0295 -0.4489  0.6416
 7610TIP3    H244322   1.203   5.552   2.651  1.5354 -0.9766  0.3101
 7611TIP3   OH244323   1.696   2.121  13.468 -0.1321  0.1950 -0.0798
 7611TIP3    H144324   1.735   2.192  13.519  0.3927  0.7008 -1.1496
 7611TIP3    H244325   1.662   2.164  13.390 -0.4110 -0.6469 -0.4296
 7612TIP3   OH244326   0.783   6.351  15.119 -0.2208  0.1910  0.3853
 7612TIP3    H144327   0.710   6.410  15.107 -0.3121  0.1299  0.6180
 7612TIP3    H244328   0.850   6.382  15.059 -0.7825 -0.3336 -0.5243
 7613TIP3   OH244329   3.666   6.519   3.433  0.0174 -0.4717  0.0161
 7613TIP3    H144330   3.630   6.528   3.344  0.9696 -2.1948 -0.6034
 7613TIP3    H244331   3.694   6.607   3.457 -3.9682  0.9281  0.3189
 7614TIP3   OH244332   6.739   6.844  15.646 -1.1320  0.2075  0.2692
 7614TIP3    H144333   6.716   6.754  15.669 -0.2118 -0.2835 -0.6679
 7614TIP3    H244334   6.786   6.837  15.563 -1.1068  1.5659  0.1386
 7615TIP3   OH244335   6.100   1.734  12.965 -0.0318 -0.3191  0.0713
 7615TIP3    H144336   6.065   1.756  13.051  0.4702  0.6038  0.0505
 7615TIP3    H244337   6.050   1.657  12.938 -0.8061 -0.0883  0.7980
 7616TIP3   OH244338   4.693   4.541  15.191  0.4854 -0.0432 -0.1161
 7616TIP3    H144339   4.769   4.528  15.134  0.9780 -0.9419  0.7063
 7616TIP3    H244340   4.703   4.475  15.259 -0.8743  0.0370  0.1928
 7617TIP3   OH244341   0.659   3.598  16.245  0.7410 -0.1004  0.6708
 7617TIP3    H144342   0.631   3.610  16.336  0.0729  1.2096  0.3212
 7617TIP3    H244343   0.706   3.515  16.245  1.8871  0.4807  2.4789
 7618TIP3   OH244344   5.745   3.710  11.205  0.2218 -0.2911 -0.5312
 7618TIP3    H144345   5.772   3.627  11.244 -0.0040 -0.7463 -1.3191
 7618TIP3    H244346   5.652   3.700  11.187 -0.1301  0.6462  0.6039
 7619TIP3   OH244347   3.793   3.151   5.780  0.0770 -0.1949  0.4141
 7619TIP3    H144348   3.864   3.216   5.770  0.6652 -0.8160  0.5048
 7619TIP3    H244349   3.770   3.155   5.872 -0.2000  0.2001  0.3324
 7620TIP3   OH244350   6.018   5.175  15.030  0.4435  0.1131 -0.0289
 7620TIP3    H144351   6.088   5.199  14.969  1.3656 -1.9013  0.1773
 7620TIP3    H244352   5.976   5.259  15.051  1.1472  1.0755 -2.1192
 7621TIP3   OH244353   5.658   6.688  13.699 -0.3233  0.0528  0.1757
 7621TIP3    H144354   5.604   6.617  13.734  1.4293  0.7138  4.9507
 7621TIP3    H244355   5.747   6.654  13.701  0.2825  1.5641  0.1801
 7622TIP3   OH244356   0.293   5.581  16.529 -0.5340  0.3130  0.0100
 7622TIP3    H144357   0.362   5.626  16.480  0.3928 -0.9983  0.0540
 7622TIP3    H244358   0.281   5.498  16.483 -0.4699 -0.4369  1.2971
 7623TIP3   OH244359   3.570   0.282   6.081  0.2866  0.3324 -0.3106
 7623TIP3    H144360   3.543   0.191   6.091 -3.3901  1.4439  1.6516
 7623TIP3    H244361   3.557   0.301   5.989 -0.8263 -0.6539 -0.3812
 7624TIP3   OH244362   6.650   4.452  14.334  0.0436  0.0053  0.5886
 7624TIP3    H144363   6.638   4.365  14.297  0.0015  0.4459 -0.4707
 7624TIP3    H244364   6.616   4.511  14.267 -0.5674  0.8082  1.5751
 7625TIP3   OH244365   3.703   1.319   4.174 -0.6613  0.2831  0.3017
 7625TIP3    H144366   3.759   1.282   4.106  1.7109 -0.6768  2.6264
 7625TIP3    H244367   3.614   1.304   4.142  0.3045  0.3257 -2.7554
 7626TIP3   OH244368   1.341   0.314   1.258 -0.4716 -0.1310  0.1267
 7626TIP3    H144369   1.313   0.378   1.193 -2.4419 -0.5643  0.4863
 7626TIP3    H244370   1.361   0.235   1.206 -0.3733  0.0426 -0.1014
 7627TIP3   OH244371   2.342   4.382   3.594  0.3144  0.1387  0.3172
 7627TIP3    H144372   2.375   4.450   3.653  1.1503 -1.5590  1.9121
 7627TIP3    H244373   2.247   4.381   3.610  0.4570  0.0967  1.2219
 7628TIP3   OH244374   4.505   0.615  16.247  0.1924  0.1336 -0.2194
 7628TIP3    H144375   4.453   0.625  16.327 -1.5309 -0.3017 -1.2123
 7628TIP3    H244376   4.548   0.530  16.257  0.1468  0.1714  0.3329
 7629TIP3   OH244377   6.280   3.083  16.754  0.1199  0.3221 -0.4141
 7629TIP3    H144378   6.332   3.003  16.766 -1.0984 -0.6397 -1.3676
 7629TIP3    H244379   6.191   3.053  16.742 -1.0078  2.0121  2.5857
 7630TIP3   OH244380   6.701   4.077  15.161  0.6360 -1.4592 -0.5791
 7630TIP3    H144381   6.692   4.062  15.067  0.4746  1.6419 -1.1515
 7630TIP3    H244382   6.793   4.100  15.173  0.2525  0.0026 -0.3183
 7631TIP3   OH244383   4.002   0.921   1.156  0.0961 -0.1048 -0.0868
 7631TIP3    H144384   4.021   0.837   1.114 -0.6202 -1.1110  1.5238
 7631TIP3    H244385   3.922   0.952   1.112 -0.3921 -0.9188  0.2180
 7632TIP3   OH244386   2.372   3.243  10.640  0.1197 -0.3763 -0.0690
 7632TIP3    H144387   2.387   3.270  10.550  0.0382  0.2480  0.0981
 7632TIP3    H244388   2.347   3.324  10.686 -2.3233 -1.0879 -0.0178
 7633TIP3   OH244389   3.364   0.552   6.122 -0.3859 -0.1855  0.8719
 7633TIP3    H144390   3.360   0.647   6.139  1.1240 -0.0879  0.7595
 7633TIP3    H244391   3.323   0.542   6.036 -0.2756  0.4168  0.7415
 7634TIP3   OH244392   4.764   0.858  13.821  0.3884  0.2313 -0.2507
 7634TIP3    H144393   4.859   0.853  13.828  0.4203  0.9071 -0.0706
 7634TIP3    H244394   4.744   0.950  13.839 -0.4606 -0.2953  1.7743
 7635TIP3   OH244395   5.223   2.308   3.018 -0.0963 -0.1672  0.4605
 7635TIP3    H144396   5.296   2.365   3.041 -0.6886  1.1022 -0.6456
 7635TIP3    H244397   5.152   2.335   3.076 -0.3182  0.1050  0.0691
 7636TIP3   OH244398   1.240   0.686   3.021 -0.3720  0.3797 -0.2066
 7636TIP3    H144399   1.274   0.645   2.941  0.7128  1.3195 -0.2473
 7636TIP3    H244400   1.236   0.780   3.000  0.0924  0.6616  0.8920
 7637TIP3   OH244401   6.650   3.859   6.073  0.2607 -0.8270 -0.2234
 7637TIP3    H144402   6.587   3.867   6.144  1.5122 -0.2789  0.8767
 7637TIP3    H244403   6.608   3.900   5.997 -0.3716  0.2617  0.7023
 7638TIP3   OH244404   6.451   6.083  12.938  0.5465 -0.5665 -0.4748
 7638TIP3    H144405   6.514   6.065  12.868 -0.4165  0.5347 -1.6715
 7638TIP3    H244406   6.504   6.120  13.009  1.2803  0.4028 -1.4804
 7639TIP3   OH244407   0.235   3.571   6.165  0.2469 -0.3804 -0.9597
 7639TIP3    H144408   0.152   3.524   6.175  1.0040 -1.6470 -0.3810
 7639TIP3    H244409   0.296   3.505   6.131  1.9194 -0.5194  1.9306
 7640TIP3   OH244410   5.928   4.541  14.307 -0.0690 -0.4145  0.3525
 7640TIP3    H144411   6.019   4.511  14.307  0.0262 -0.1423  1.0488
 7640TIP3    H244412   5.891   4.505  14.227  1.1959  1.1068 -0.9940
 7641TIP3   OH244413   6.195   2.608  15.259  0.1110  0.8693 -0.1262
 7641TIP3    H144414   6.129   2.556  15.215  0.7525  1.9625 -2.5383
 7641TIP3    H244415   6.275   2.554  15.255 -0.0783  0.5018  0.7615
 7642TIP3   OH244416   4.623   5.399   3.981  0.5170 -0.5058 -0.3938
 7642TIP3    H144417   4.686   5.436   4.043 -1.7440 -0.0396  1.8325
 7642TIP3    H244418   4.590   5.321   4.026 -2.5070  0.8302 -0.0722
 7643TIP3   OH244419   0.343   4.468   4.932  0.2345 -0.2775 -0.3115
 7643TIP3    H144420   0.338   4.427   4.846  0.9521  1.0522 -1.0101
 7643TIP3    H244421   0.384   4.553   4.916  1.1129 -0.3260  1.4515
 7644TIP3   OH244422   3.787   4.270   2.928 -0.2265 -0.3139  0.8625
 7644TIP3    H144423   3.830   4.198   2.882 -0.8299 -0.9243  1.2492
 7644TIP3    H244424   3.714   4.230   2.975 -1.7539  0.8029 -0.4255
 7645TIP3   OH244425   5.473   3.696  11.107  0.2684  0.0740 -0.0825
 7645TIP3    H144426   5.438   3.613  11.074  1.6749 -1.0975  1.2153
 7645TIP3    H244427   5.403   3.759  11.093 -1.3873 -1.6261  0.1602
 7646TIP3   OH244428   1.414   5.532  16.485  0.4162 -0.2027 -0.3309
 7646TIP3    H144429   1.440   5.455  16.535  0.2026 -0.4847 -0.6481
 7646TIP3    H244430   1.320   5.521  16.470  0.2934  0.3470  0.0122
 7647TIP3   OH244431   3.310   1.813   0.750  0.6223 -0.2753 -0.1060
 7647TIP3    H144432   3.345   1.725   0.736  0.6444 -0.2601 -0.1482
 7647TIP3    H244433   3.334   1.861   0.671 -1.2505 -0.8072 -1.0494
 7648TIP3   OH244434   1.846   2.328   0.268  0.2159  0.9577 -0.4537
 7648TIP3    H144435   1.776   2.267   0.246  2.2648 -1.1006 -1.7198
 7648TIP3    H244436   1.870   2.305   0.358  0.7191  0.1347 -0.7910
 7649TIP3   OH244437   4.980   4.034  13.358  0.0238 -0.4561 -0.0502
 7649TIP3    H144438   4.965   3.952  13.405 -2.2585  1.6058  3.2255
 7649TIP3    H244439   5.068   4.061  13.385  0.8859 -1.8120 -1.3286
 7650TIP3   OH244440   2.902   2.564   5.920 -0.6248 -0.6111 -0.0882
 7650TIP3    H144441   2.814   2.593   5.896 -1.7035 -1.5996  2.3348
 7650TIP3    H244442   2.888   2.502   5.992  1.8883 -2.8409 -1.3185
 7651TIP3   OH244443   2.440   2.326  12.086  0.1490 -0.3291  0.2734
 7651TIP3    H144444   2.516   2.274  12.062  0.3017 -0.4391  0.9733
 7651TIP3    H244445   2.426   2.308  12.179  0.4213  1.1356  0.6333
 7652TIP3   OH244446   6.849   1.110   3.211  0.1568 -0.6700  0.4632
 7652TIP3    H144447   6.824   1.187   3.263  1.1001  0.4936 -0.7609
 7652TIP3    H244448   6.822   1.036   3.265 -0.7918  0.5052  1.6765
 7653TIP3   OH244449   2.871   1.145   5.652 -0.5449 -0.1833 -0.1261
 7653TIP3    H144450   2.821   1.222   5.622 -0.3043 -0.5272 -1.5029
 7653TIP3    H244451   2.953   1.181   5.686 -0.7007  0.2112 -0.1611
 7654TIP3   OH244452   2.556   0.856   2.794  0.1378  0.1348 -0.0481
 7654TIP3    H144453   2.488   0.800   2.832 -0.1055  0.6834  0.3457
 7654TIP3    H244454   2.538   0.855   2.700  1.2267 -1.8776 -0.2848
 7655TIP3   OH244455   1.141   6.855   3.054  0.6252 -0.3503  0.3018
 7655TIP3    H144456   1.128   6.823   2.965 -0.0248  1.2029 -0.1761
 7655TIP3    H244457   1.077   6.925   3.065  1.8380  0.6317  1.4048
 7656TIP3   OH244458   2.647   1.822  13.582 -0.3816 -0.2130 -0.0258
 7656TIP3    H144459   2.681   1.784  13.664 -1.1031 -0.1428  0.3133
 7656TIP3    H244460   2.552   1.827  13.595 -0.5025 -0.1828 -0.8652
 7657TIP3   OH244461   2.378   2.691   2.298  0.2687 -0.2860  0.9959
 7657TIP3    H144462   2.343   2.609   2.263 -0.1839  0.4096 -0.2588
 7657TIP3    H244463   2.407   2.740   2.221  2.7315 -0.2115  1.8833
 7658TIP3   OH244464   2.416   1.939  12.076  0.0609  0.1208 -0.1597
 7658TIP3    H144465   2.390   1.927  11.985 -0.4177 -1.8674  0.2035
 7658TIP3    H244466   2.456   1.856  12.102 -0.1872  0.4896  1.5596
 7659TIP3   OH244467   5.426   4.410   6.208  0.1261 -0.4540  0.1241
 7659TIP3    H144468   5.398   4.320   6.225  0.7419 -0.5581  0.6440
 7659TIP3    H244469   5.449   4.445   6.294 -1.6490  0.7601  0.1637
 7660TIP3   OH244470   6.757   3.552   6.204  0.0393 -0.6062  0.7994
 7660TIP3    H144471   6.661   3.556   6.206 -0.0108 -0.4004 -0.7766
 7660TIP3    H244472   6.779   3.474   6.256 -1.1035 -1.8285 -0.4635
 7661TIP3   OH244473   1.113   1.505   0.396  0.5440 -0.5683  0.3396
 7661TIP3    H144474   1.098   1.592   0.432 -0.2233 -0.8300  0.6962
 7661TIP3    H244475   1.206   1.489   0.407  0.2449 -0.9707  3.0441
 7662TIP3   OH244476   1.552   1.899  16.524  0.7732 -0.1712 -0.2070
 7662TIP3    H144477   1.597   1.815  16.535  1.7161  0.1204 -1.6361
 7662TIP3    H244478   1.511   1.895  16.438  0.3104  0.6130 -0.0442
 7663TIP3   OH244479   2.592   4.917  11.202 -0.0261  0.6193 -0.1509
 7663TIP3    H144480   2.594   4.920  11.298  1.1756 -1.6087 -0.0402
 7663TIP3    H244481   2.507   4.954  11.179 -1.8394 -1.7990  2.0013
 7664TIP3   OH244482   6.368   5.349   3.695  0.0039 -0.5912  0.4161
 7664TIP3    H144483   6.440   5.396   3.654 -0.6740  0.3053  0.2068
 7664TIP3    H244484   6.318   5.417   3.741 -0.8911 -1.1395  0.2794
 7665TIP3   OH244485   0.114   6.576   5.700 -0.1457  0.3042  0.3460
 7665TIP3    H144486   0.047   6.623   5.750 -0.3494 -0.0430  0.4044
 7665TIP3    H244487   0.066   6.506   5.656 -0.2804  1.5677 -1.6748
 7666TIP3   OH244488   1.097   3.989  15.883 -0.2225  0.6605 -0.4191
 7666TIP3    H144489   1.024   3.996  15.944 -0.3336  2.3362 -0.6910
 7666TIP3    H244490   1.167   4.042  15.923 -0.8418  3.1986 -2.4358
 7667TIP3   OH244491   0.849   5.298   6.394 -0.0960  0.4785  0.0207
 7667TIP3    H144492   0.844   5.236   6.321  0.1620 -0.3728  0.7139
 7667TIP3    H244493   0.762   5.293   6.435  0.9219 -2.0917  2.1797
 7668TIP3   OH244494   2.707   3.009   4.424 -0.4981 -0.0091 -0.1084
 7668TIP3    H144495   2.625   2.994   4.471  0.3480 -0.0127  1.4321
 7668TIP3    H244496   2.753   3.075   4.476  0.2069  0.4729 -1.3017
 7669TIP3   OH244497   6.797   5.023   1.738 -0.1099 -0.1147  0.0677
 7669TIP3    H144498   6.749   4.963   1.681 -0.4674 -1.3984  1.6427
 7669TIP3    H244499   6.878   4.976   1.760  0.3634  0.6682  0.0450
 7670TIP3   OH244500   5.288   5.777   1.279  0.3192 -0.1817 -0.3170
 7670TIP3    H144501   5.275   5.757   1.186  1.2808  1.8102 -0.9493
 7670TIP3    H244502   5.312   5.694   1.319 -1.8629 -1.4590 -1.4701
 7671TIP3   OH244503   3.144   6.505  16.928 -0.0554  0.2059  0.4264
 7671TIP3    H144504   3.070   6.552  16.890 -0.0494  0.2800  0.5068
 7671TIP3    H244505   3.180   6.565  16.993 -0.1544  0.0239  0.6526
 7672TIP3   OH244506   6.287   0.366  16.744  0.0740  0.0474 -0.0252
 7672TIP3    H144507   6.245   0.280  16.755 -2.0682  1.1495  0.9510
 7672TIP3    H244508   6.245   0.403  16.666  0.9201  0.2565 -0.3866
 7673TIP3   OH244509   5.219   2.662   1.436  0.4517  0.1132 -0.1207
 7673TIP3    H144510   5.124   2.650   1.426  0.5717  0.2494 -1.6724
 7673TIP3    H244511   5.228   2.741   1.488 -0.2815  0.0875  0.0634
 7674TIP3   OH244512   1.016   2.170   0.700 -0.2225 -0.1355  0.3094
 7674TIP3    H144513   1.084   2.131   0.645 -0.3368  0.5095 -0.2999
 7674TIP3    H244514   1.052   2.164   0.789  2.4238  3.4736 -0.2679
 7675TIP3   OH244515   3.230   1.332   5.394 -0.0146 -0.2319  0.1697
 7675TIP3    H144516   3.232   1.278   5.315  2.4428  0.2250 -0.1687
 7675TIP3    H244517   3.298   1.398   5.380 -3.0919  3.3095  0.3839
 7676TIP3   OH244518   3.047   4.779   1.786  0.1942 -0.4182  0.0699
 7676TIP3    H144519   3.059   4.730   1.868  1.1247 -0.2287  0.0529
 7676TIP3    H244520   2.959   4.817   1.794  0.0657 -0.8392  0.7460
 7677TIP3   OH244521   6.446   3.289   4.309  0.1748  0.1099 -0.4387
 7677TIP3    H144522   6.442   3.242   4.225 -5.2178  0.5489 -0.7788
 7677TIP3    H244523   6.410   3.227   4.372 -0.4251  1.3926  0.5116
 7678TIP3   OH244524   3.115   2.948  14.371 -0.1929 -0.0599  0.2216
 7678TIP3    H144525   3.153   2.994  14.447 -0.6805  0.0356  0.4099
 7678TIP3    H244526   3.129   2.856  14.391  0.7444 -0.0094 -0.1327
 7679TIP3   OH244527   2.966   0.335  15.947 -0.2412  0.2445 -0.4978
 7679TIP3    H144528   3.032   0.333  15.878  0.5020 -0.4093  0.1965
 7679TIP3    H244529   2.890   0.291  15.910  0.4242 -0.8054 -0.6476
 7680TIP3   OH244530   1.970   2.978  13.865  0.0209 -0.2419 -0.8176
 7680TIP3    H144531   1.996   2.903  13.810 -0.7688 -0.3319 -1.0863
 7680TIP3    H244532   1.952   2.940  13.951  1.0018 -0.1401 -0.5543
 7681TIP3   OH244533   4.540   5.315  10.895  0.1968  0.7371  0.1574
 7681TIP3    H144534   4.519   5.330  10.803 -1.3028 -0.2951  0.2925
 7681TIP3    H244535   4.462   5.346  10.942  0.6516  0.5860  1.0254
 7682TIP3   OH244536   0.463   1.842   3.925  0.2007  0.0986 -0.2899
 7682TIP3    H144537   0.497   1.908   3.985  1.3590 -1.3748  0.7630
 7682TIP3    H244538   0.507   1.861   3.842  1.3971  0.0327  0.2941
 7683TIP3   OH244539   4.129   5.419  14.362  0.5391  0.0646  0.5088
 7683TIP3    H144540   4.053   5.477  14.358  1.7603  1.7886  0.7898
 7683TIP3    H244541   4.095   5.335  14.392 -1.1404  1.0009  1.3320
 7684TIP3   OH244542   4.352   6.285  14.457 -0.5721 -0.6232  0.2368
 7684TIP3    H144543   4.439   6.259  14.426 -1.5176 -2.4848 -1.0409
 7684TIP3    H244544   4.294   6.269  14.382 -1.8426  1.9531  0.5601
 7685TIP3   OH244545   0.950   3.505   1.559 -0.4253 -0.4616  0.4107
 7685TIP3    H144546   0.925   3.436   1.498  0.3992  0.8610 -1.5598
 7685TIP3    H244547   0.891   3.578   1.538  0.3146  0.2407  0.6959
 7686TIP3   OH244548   0.023   0.007  12.633 -0.1031  0.6010  0.3217
 7686TIP3    H144549   0.092  -0.012  12.697 -0.0417 -1.0709 -0.1891
 7686TIP3    H244550   0.066  -0.005  12.548 -0.7016  0.7703 -0.0102
 7687TIP3   OH244551   6.011   4.223   0.022  0.8662 -0.7023 -0.4163
 7687TIP3    H144552   6.009   4.316   0.045  1.4666  0.0232 -3.0124
 7687TIP3    H244553   6.087   4.188   0.070  0.8171  0.1872  0.3367
 7688TIP3   OH244554   0.155   6.306  10.239  0.6490 -0.3898  0.1983
 7688TIP3    H144555   0.163   6.314  10.334  0.7970 -0.7876  0.2206
 7688TIP3    H244556   0.236   6.343  10.204  1.3928 -1.8573  0.3070
 7689TIP3   OH244557   5.484   5.529   1.233 -0.3506 -0.2954  0.4373
 7689TIP3    H144558   5.422   5.537   1.161  0.0398  1.1035  0.2372
 7689TIP3    H244559   5.555   5.589   1.211 -0.0489 -0.1213  1.8008
 7690TIP3   OH244560   2.315   0.969  15.749  0.0806  0.1639 -0.3928
 7690TIP3    H144561   2.327   0.896  15.811  0.1128 -1.5840 -2.3277
 7690TIP3    H244562   2.343   1.046  15.798 -1.2674 -0.8516  2.2577
 7691TIP3   OH244563   4.097   1.249   0.363  0.0785 -0.3438  0.0488
 7691TIP3    H144564   4.132   1.276   0.448  0.5277 -2.4277  0.5733
 7691TIP3    H244565   4.172   1.256   0.304 -0.4011  1.7637 -0.3752
 7692TIP3   OH244566   4.460   5.162   5.202  0.0739  0.1014 -0.1107
 7692TIP3    H144567   4.491   5.121   5.282  1.0552 -1.7129 -1.3439
 7692TIP3    H244568   4.536   5.209   5.167  0.1875 -0.6053 -0.8531
 7693TIP3   OH244569   0.340   4.877  14.292  0.3717  0.2737 -0.0502
 7693TIP3    H144570   0.392   4.957  14.304 -0.4246  0.7632  0.2579
 7693TIP3    H244571   0.261   4.891  14.345  0.2865 -0.7886  0.1264
 7694TIP3   OH244572   5.078   0.169  14.922  0.7511 -0.3300  0.3714
 7694TIP3    H144573   4.983   0.166  14.925  0.6591  1.3848  2.9797
 7694TIP3    H244574   5.099   0.261  14.904  1.7826 -0.0864  2.4133
 7695TIP3   OH244575   6.256   2.893  15.202  0.5864  0.5351  0.1057
 7695TIP3    H144576   6.296   2.939  15.276  0.9573 -0.2196  0.3825
 7695TIP3    H244577   6.238   2.805  15.235  0.1001  0.4055 -0.4896
 7696TIP3   OH244578   2.121   4.817  11.842  0.1484  0.1600  0.2211
 7696TIP3    H144579   2.182   4.765  11.894 -0.8776 -1.0681  0.2508
 7696TIP3    H244580   2.050   4.838  11.902  0.1392  0.8803 -0.0324
 7697TIP3   OH244581   3.449   2.570   1.335 -0.1817 -0.0870  0.2297
 7697TIP3    H144582   3.454   2.480   1.302  3.9808  0.3227 -0.7762
 7697TIP3    H244583   3.509   2.619   1.279 -0.5265  2.8491  2.2361
 7698TIP3   OH244584   2.860   2.053  12.281 -0.5784 -0.1939  0.6654
 7698TIP3    H144585   2.894   1.965  12.264  1.7380  0.7763 -0.0915
 7698TIP3    H244586   2.921   2.112  12.236 -2.6903  1.7823  0.1681
 7699TIP3   OH244587   1.640   1.881   4.256 -0.2274 -0.3309 -0.0167
 7699TIP3    H144588   1.679   1.964   4.282 -1.6005  0.2508  0.2625
 7699TIP3    H244589   1.629   1.889   4.161  0.9741 -0.8043 -0.2208
 7700TIP3   OH244590   1.976   6.790   4.404 -0.3958  0.2590 -0.0477
 7700TIP3    H144591   2.002   6.782   4.496 -0.7701  0.8804  0.1192
 7700TIP3    H244592   1.990   6.703   4.368  0.9719  0.3309  0.2719
 7701TIP3   OH244593   5.608   6.503   2.296  0.2781 -0.1037 -0.3365
 7701TIP3    H144594   5.631   6.431   2.237 -0.1119  0.5950 -1.3648
 7701TIP3    H244595   5.516   6.488   2.318 -0.0725  0.5698 -1.2915
 7702TIP3   OH244596   5.501   4.249  14.647 -0.3140  0.2887  0.8374
 7702TIP3    H144597   5.511   4.272  14.740 -1.4447  1.1008  0.7666
 7702TIP3    H244598   5.466   4.327  14.606  1.9999  0.6443 -0.6940
 7703TIP3   OH244599   1.285   2.795  16.661 -0.0145  0.0862 -0.2154
 7703TIP3    H144600   1.343   2.826  16.730 -1.4540 -0.5535  1.3307
 7703TIP3    H244601   1.323   2.712  16.632 -0.0506 -0.2507  0.6779
 7704TIP3   OH244602   1.631   2.765  16.435 -0.0912 -0.2295  0.3606
 7704TIP3    H144603   1.582   2.703  16.489 -1.2906  0.5243  0.1870
 7704TIP3    H244604   1.694   2.805  16.496  2.0538 -2.8735  0.0892
 7705TIP3   OH244605   3.359   6.171   4.879 -0.7108 -0.1429  0.2605
 7705TIP3    H144606   3.386   6.090   4.922 -1.1354 -0.3671  0.1104
 7705TIP3    H244607   3.271   6.189   4.913  0.4716  1.8704  2.5850
 7706TIP3   OH244608   2.254   4.288  15.201 -0.3624  0.0823 -0.0900
 7706TIP3    H144609   2.338   4.282  15.246  0.1261 -0.8567 -1.0845
 7706TIP3    H244610   2.191   4.250  15.263 -0.0434  0.6782  0.6066
 7707TIP3   OH244611   6.606   5.305  13.444  0.3320  0.0965  0.1322
 7707TIP3    H144612   6.587   5.392  13.479 -0.4401 -0.1865  0.4489
 7707TIP3    H244613   6.603   5.247  13.520  0.4953 -0.2510 -0.1255
 7708TIP3   OH244614   1.039   3.246  13.492  0.1542 -0.1988 -0.7121
 7708TIP3    H144615   1.037   3.268  13.399 -2.3555 -1.1054 -0.9439
 7708TIP3    H244616   1.075   3.324  13.534 -2.3995  1.8944 -2.0946
 7709TIP3   OH244617   2.157   6.141  13.796  0.1952  0.1829 -0.1043
 7709TIP3    H144618   2.064   6.162  13.797  0.2834  0.5951  0.1491
 7709TIP3    H244619   2.199   6.222  13.764  0.4823  0.0941  0.0427
 7710TIP3   OH244620   3.353   1.911  16.678  0.2969 -0.3021 -0.1768
 7710TIP3    H144621   3.346   1.902  16.583 -1.2037 -0.8481 -0.0496
 7710TIP3    H244622   3.283   1.856  16.712  0.1593  0.6704  1.2038
 7711TIP3   OH244623   1.595   3.565   4.230  0.2064 -0.2478 -0.6950
 7711TIP3    H144624   1.509   3.553   4.188  0.7565 -2.8327 -1.1954
 7711TIP3    H244625   1.575   3.572   4.323 -0.6056 -0.0884 -0.8734
 7712TIP3   OH244626   1.342   4.980  16.674 -0.4961 -1.1069  0.2170
 7712TIP3    H144627   1.389   4.940  16.748  0.2297 -0.4397  0.1370
 7712TIP3    H244628   1.366   4.926  16.599  2.3247  0.6873 -0.3193
 7713TIP3   OH244629   2.491   0.016   1.386  0.2799  0.8601  0.9078
 7713TIP3    H144630   2.411   0.025   1.438 -0.9423  0.4639 -0.7888
 7713TIP3    H244631   2.555  -0.022   1.446 -1.8172 -2.0854  1.5398
 7714TIP3   OH244632   4.650   3.709   0.605  0.2733  0.0118  0.1577
 7714TIP3    H144633   4.573   3.705   0.548  1.3952  0.6479 -1.4525
 7714TIP3    H244634   4.641   3.792   0.652 -0.4913 -0.3729  0.7259
 7715TIP3   OH244635   3.549   1.740  12.574  0.1840  0.1814  0.2081
 7715TIP3    H144636   3.576   1.796  12.501  0.6023  0.4121  0.5356
 7715TIP3    H244637   3.588   1.655  12.554  1.6988  0.6626  0.9738
 7716TIP3   OH244638   1.044   4.455   0.002 -0.7869  0.0675 -0.3413
 7716TIP3    H144639   1.033   4.500   0.086  0.5710 -0.3710  0.0903
 7716TIP3    H244640   1.028   4.524  -0.063  0.8768  1.1362  0.3094
 7717TIP3   OH244641   1.651   5.514  12.003  0.1433 -0.0671 -0.5447
 7717TIP3    H144642   1.577   5.504  11.943 -0.6397  1.2338  0.1546
 7717TIP3    H244643   1.679   5.605  11.991 -0.3204  0.3579  1.3581
 7718TIP3   OH244644   0.789   2.606  11.261  0.3469 -0.3928  0.4705
 7718TIP3    H144645   0.822   2.529  11.215  0.6155 -0.7259  1.2103
 7718TIP3    H244646   0.849   2.618  11.334  2.7765  2.9245 -1.7751
 7719TIP3   OH244647   3.396   0.855   2.663  0.0000 -0.1774  0.2697
 7719TIP3    H144648   3.352   0.771   2.647 -0.4917  0.1463 -0.1160
 7719TIP3    H244649   3.473   0.853   2.607 -0.6074  0.0840 -0.6019
 7720TIP3   OH244650   1.331   1.244  15.722  0.1260  0.2857  0.1072
 7720TIP3    H144651   1.254   1.203  15.682 -0.8219  1.5808  0.5092
 7720TIP3    H244652   1.316   1.338  15.710  1.0379  0.6030  1.3025
 7721TIP3   OH244653   6.082   2.113   3.920 -0.2826 -0.2576  0.5014
 7721TIP3    H144654   6.102   2.193   3.968  0.1281  1.4012 -2.2699
 7721TIP3    H244655   6.154   2.053   3.942 -0.0494  0.4662  1.8146
 7722TIP3   OH244656   1.323   3.077   3.079  0.3439  0.8244  0.5548
 7722TIP3    H144657   1.411   3.042   3.065  1.2996  3.3470 -0.4744
 7722TIP3    H244658   1.276   3.057   2.998 -0.7047 -2.0157  1.7284
 7723TIP3   OH244659   5.189   4.013   3.661  0.3929  0.1320  0.5382
 7723TIP3    H144660   5.244   4.081   3.623 -0.6537  0.7036 -0.0112
 7723TIP3    H244661   5.171   4.042   3.750 -0.2303  0.7037  0.2359
 7724TIP3   OH244662   0.366   3.835  11.387 -0.0420 -0.3520 -0.3688
 7724TIP3    H144663   0.328   3.796  11.466 -0.6345 -2.5705 -1.6786
 7724TIP3    H244664   0.458   3.810  11.390 -0.0629 -0.4294 -0.3549
 7725TIP3   OH244665   6.194   3.769  12.027 -0.3339 -0.2819 -0.2887
 7725TIP3    H144666   6.127   3.728  11.971 -0.5265 -0.5293  0.1197
 7725TIP3    H244667   6.253   3.812  11.965 -0.3273 -0.8756 -0.7140
 7726TIP3   OH244668   0.360   5.337   5.006 -0.4439 -0.3489 -0.8805
 7726TIP3    H144669   0.314   5.329   5.090 -0.9196 -1.8069 -1.2550
 7726TIP3    H244670   0.324   5.417   4.967  0.9588  1.3064  0.9608
 7727TIP3   OH244671   2.234   2.437   1.080 -0.4735  0.4915  0.3674
 7727TIP3    H144672   2.201   2.380   1.149 -0.4927  0.2591  0.1664
 7727TIP3    H244673   2.164   2.440   1.015  0.0469 -0.3360 -0.2562
 7728TIP3   OH244674   1.286   4.949  13.891 -0.3812  0.2630  0.2913
 7728TIP3    H144675   1.265   5.037  13.922  1.0768  0.4602  0.7957
 7728TIP3    H244676   1.300   4.959  13.797  0.8337  0.7966  0.5163
 7729TIP3   OH244677   4.318   3.560   3.490 -0.0221 -0.3223  0.3783
 7729TIP3    H144678   4.383   3.630   3.497 -1.0953  0.6322  1.1022
 7729TIP3    H244679   4.364   3.481   3.519  1.4373 -0.1053 -1.1809
 7730TIP3   OH244680   4.992   5.768   2.347  0.0477  0.2431 -0.4892
 7730TIP3    H144681   4.975   5.819   2.268 -0.1956  1.5619  0.3897
 7730TIP3    H244682   5.086   5.778   2.362 -0.2241  1.5718  0.4274
 7731TIP3   OH244683   0.597   6.641   5.641  0.1033  0.1577 -0.3089
 7731TIP3    H144684   0.508   6.606   5.638 -0.0278  0.5291 -1.0742
 7731TIP3    H244685   0.650   6.576   5.596  0.1766  0.0613 -0.0839
 7732TIP3   OH244686   4.386   3.218   5.587 -0.2544 -0.0244  0.1706
 7732TIP3    H144687   4.452   3.211   5.655  1.0911  0.4605 -1.0346
 7732TIP3    H244688   4.413   3.294   5.535 -1.1897 -0.4225 -0.9354
 7733TIP3   OH244689   6.855   3.495   5.900 -0.4869 -0.1519  0.6068
 7733TIP3    H144690   6.882   3.416   5.948 -0.8110 -1.3474 -1.0791
 7733TIP3    H244691   6.781   3.466   5.847  0.3791  0.8477 -1.2539
 7734TIP3   OH244692   2.168   2.114   4.644 -0.0241 -0.4419 -0.0702
 7734TIP3    H144693   2.205   2.106   4.556  1.1214  1.0951  0.2148
 7734TIP3    H244694   2.103   2.044   4.650  0.8049 -1.4088 -1.6627
 7735TIP3   OH244695   0.810   6.167   2.676 -0.0120  0.4768  0.3384
 7735TIP3    H144696   0.781   6.249   2.715  1.3458  0.5408  1.2959
 7735TIP3    H244697   0.862   6.125   2.745  0.4222 -0.5668 -0.5903
 7736TIP3   OH244698   2.083   3.023   3.674 -0.2309 -0.4013  0.1204
 7736TIP3    H144699   2.079   2.933   3.708  0.9361 -0.3230  0.5213
 7736TIP3    H244700   1.996   3.059   3.692 -0.9169 -1.6215 -0.5722
 7737TIP3   OH244701   0.022   0.066  13.621  0.2896 -0.1903  0.1721
 7737TIP3    H144702  -0.045   0.134  13.631  0.9692  0.3907  1.0004
 7737TIP3    H244703   0.105   0.115  13.615  0.5943 -0.8433 -1.7776
 7738TIP3   OH244704   1.448   5.688   1.556  0.3860  0.6204 -0.0855
 7738TIP3    H144705   1.448   5.757   1.490 -1.0845 -0.1565 -0.9594
 7738TIP3    H244706   1.526   5.704   1.608  0.9170  1.9979 -1.2468
 7739TIP3   OH244707   6.202   4.588   2.298 -0.2463  0.0342 -0.2108
 7739TIP3    H144708   6.265   4.631   2.240 -1.2839  1.3554 -0.4072
 7739TIP3    H244709   6.171   4.513   2.248 -0.6997  0.8330 -1.1582
 7740TIP3   OH244710   0.129   6.129  15.019  0.3531  0.4108 -0.2406
 7740TIP3    H144711   0.224   6.123  15.034  0.3072  1.3873  0.5328
 7740TIP3    H244712   0.105   6.215  15.052 -1.0982 -0.5198  1.2843
 7741TIP3   OH244713   3.953   1.574   2.389  0.8131 -0.6051 -0.0146
 7741TIP3    H144714   3.886   1.566   2.457 -1.0093 -1.3599 -1.7705
 7741TIP3    H244715   4.025   1.520   2.420 -0.9272 -2.9094  0.2890
 7742TIP3   OH244716   3.309   0.799   5.877  0.2406  0.5966 -0.1237
 7742TIP3    H144717   3.328   0.705   5.884 -1.5299  0.2932  1.5546
 7742TIP3    H244718   3.393   0.839   5.856  1.8999 -1.0023  2.7527
 7743TIP3   OH244719   6.317   6.399   3.579 -0.2945  0.0160  0.3643
 7743TIP3    H144720   6.249   6.464   3.598  1.5866  2.0176  0.5996
 7743TIP3    H244721   6.333   6.408   3.485  0.2950  0.2312  0.4836
 7744TIP3   OH244722   3.571   2.556   0.444 -0.0952 -0.4068  0.3763
 7744TIP3    H144723   3.639   2.517   0.389  0.4259  0.9166  0.0515
 7744TIP3    H244724   3.590   2.522   0.532  0.5253 -0.6464  0.1590
 7745TIP3   OH244725   2.998   0.816   3.488  0.8182 -0.7218 -0.0394
 7745TIP3    H144726   2.950   0.736   3.465  0.7006 -0.3041 -1.2980
 7745TIP3    H244727   3.089   0.797   3.464  0.9722 -0.8138  0.5766
 7746TIP3   OH244728   0.720   1.163   6.289  0.0432 -0.4413  0.0787
 7746TIP3    H144729   0.759   1.244   6.255 -0.1410 -0.7627 -0.9310
 7746TIP3    H244730   0.717   1.176   6.384  0.6888  0.4343 -0.0061
 7747TIP3   OH244731   2.313   5.291   1.429  0.4327  0.3615 -0.2324
 7747TIP3    H144732   2.270   5.216   1.388  0.4398  1.0253 -1.4882
 7747TIP3    H244733   2.404   5.286   1.398  0.0163  1.9052 -1.8542
 7748TIP3   OH244734   6.728   2.534  13.371  0.2454  0.0936  0.1165
 7748TIP3    H144735   6.684   2.478  13.435  2.0695 -0.0360  1.3352
 7748TIP3    H244736   6.758   2.609  13.423  1.6470  0.0500 -0.5836
 7749TIP3   OH244737   0.668   0.605   0.031 -0.2899  0.0328  0.0249
 7749TIP3    H144738   0.631   0.684   0.070 -3.3690 -0.8673 -0.7926
 7749TIP3    H244739   0.762   0.613   0.045 -0.5337  3.5099  0.4989
 7750TIP3   OH244740   1.228   5.863  10.744  0.2393  0.0177 -0.0396
 7750TIP3    H144741   1.167   5.913  10.798  1.4165 -0.2751  1.6315
 7750TIP3    H244742   1.296   5.926  10.719  1.1186 -0.4398  1.1103
 7751TIP3   OH244743   6.317   0.860  16.531 -0.4274  0.2674  0.3047
 7751TIP3    H144744   6.283   0.772  16.513 -0.6245  0.2766  0.6428
 7751TIP3    H244745   6.409   0.845  16.554 -0.3258  0.1983 -0.1263
 7752TIP3   OH244746   4.060   6.768  16.263  0.4038 -0.3324 -0.3381
 7752TIP3    H144747   4.051   6.803  16.352  0.5820  2.3400 -1.2788
 7752TIP3    H244748   3.982   6.799  16.217 -0.4227 -2.9229 -0.7950
 7753TIP3   OH244749   5.591   2.382  14.714  0.1403 -0.5906 -0.3542
 7753TIP3    H144750   5.626   2.374  14.803  0.2202  0.5361 -0.2664
 7753TIP3    H244751   5.666   2.408  14.661 -0.1185 -0.2367 -0.5544
 7754TIP3   OH244752   3.071   4.582  16.669  0.0701 -0.1802 -0.2624
 7754TIP3    H144753   3.046   4.673  16.658 -2.1059 -0.5309  1.2111
 7754TIP3    H244754   3.065   4.566  16.763  0.9423 -1.7170 -0.4229
 7755TIP3   OH244755   5.294   6.016  10.833  0.3713 -0.2678 -0.2574
 7755TIP3    H144756   5.387   6.026  10.811  0.0715  1.9316 -0.7995
 7755TIP3    H244757   5.249   6.024  10.748 -0.3708  0.1227  0.1654
 7756TIP3   OH244758   6.800   3.373   0.114 -0.2121  0.2057 -0.0290
 7756TIP3    H144759   6.883   3.409   0.146  0.0022  0.2303 -0.5873
 7756TIP3    H244760   6.734   3.405   0.175  0.5565 -2.6827  2.5586
 7757TIP3   OH244761   4.019   0.116  16.907  0.3492 -0.3040  0.0588
 7757TIP3    H144762   4.053   0.147  16.991  0.0903  0.9634 -0.2804
 7757TIP3    H244763   4.092   0.128  16.846  0.2251 -0.3096 -0.0899
 7758TIP3   OH244764   4.106   1.394   5.005  0.1267 -0.0735  0.1299
 7758TIP3    H144765   4.172   1.337   4.966 -0.0771 -0.9988  1.0837
 7758TIP3    H244766   4.024   1.345   4.997 -0.0753  0.1340  0.8504
 7759TIP3   OH244767   5.098   1.900   0.341 -0.4340  0.2766  0.5832
 7759TIP3    H144768   5.080   1.834   0.273  0.2534 -0.8001  1.4185
 7759TIP3    H244769   5.168   1.953   0.305 -1.4731  1.0308 -0.3993
 7760TIP3   OH244770   6.698   4.455  14.606  0.0331 -0.0176 -0.1396
 7760TIP3    H144771   6.627   4.482  14.665  0.5145  1.1640 -0.0857
 7760TIP3    H244772   6.663   4.467  14.518  0.4364  1.4123 -0.1316
 7761TIP3   OH244773   3.993   5.049  12.207  0.0139  0.2805 -0.0031
 7761TIP3    H144774   4.046   5.023  12.131 -0.7592 -1.0471 -0.1240
 7761TIP3    H244775   3.943   4.970  12.230 -0.7328  1.0324  1.0853
 7762TIP3   OH244776   0.753   1.510  14.774 -0.5900 -0.1431  0.0081
 7762TIP3    H144777   0.687   1.496  14.706 -0.9113  0.7708  0.1042
 7762TIP3    H244778   0.739   1.438  14.836 -0.1779 -1.0770 -0.9624
 7763TIP3   OH244779   3.450   3.484  15.371 -0.0712 -0.5700 -0.1090
 7763TIP3    H144780   3.509   3.499  15.297 -0.5092  1.1224 -0.1475
 7763TIP3    H244781   3.496   3.419  15.424  0.3685 -1.6392 -1.7119
 7764TIP3   OH244782   1.587   3.405  16.201  0.4985 -0.1409 -0.3904
 7764TIP3    H144783   1.521   3.474  16.190 -0.7127 -1.2420 -0.2170
 7764TIP3    H244784   1.539   3.323  16.193  1.9447 -1.0012 -0.8043
 7765TIP3   OH244785   0.980   5.295  16.911  0.5060 -0.4924 -0.3440
 7765TIP3    H144786   1.048   5.362  16.908 -0.3134  0.3927  0.1253
 7765TIP3    H244787   1.027   5.212  16.911  1.6715  0.1084  1.6058
 7766TIP3   OH244788   4.745   4.340  16.795  0.2535  0.5030 -0.1594
 7766TIP3    H144789   4.803   4.266  16.814 -0.7860  0.2201  2.1862
 7766TIP3    H244790   4.799   4.400  16.743  1.8671 -0.8237 -0.0877
 7767TIP3   OH244791   5.604   2.042  14.565 -0.4727  0.6182 -0.5440
 7767TIP3    H144792   5.537   2.052  14.632  0.1825 -1.2230  0.4613
 7767TIP3    H244793   5.560   2.000  14.491 -0.4885 -0.4452  0.0547
 7768TIP3   OH244794   6.620   4.035   3.448  0.0154  0.0222 -0.3083
 7768TIP3    H144795   6.708   4.065   3.473 -0.2253  1.4131 -0.9803
 7768TIP3    H244796   6.622   4.037   3.352 -0.1468 -1.8582 -0.3711
 7769TIP3   OH244797   1.806   3.013  13.567 -0.2974 -0.2040  0.9516
 7769TIP3    H144798   1.782   2.922  13.553 -0.5592 -0.0522  0.3675
 7769TIP3    H244799   1.769   3.059  13.491 -2.1152  0.7216  2.3327
 7770TIP3   OH244800   2.469   0.460   5.416  0.1622  0.6119  0.8923
 7770TIP3    H144801   2.395   0.460   5.476  0.4656 -1.3316  1.3164
 7770TIP3    H244802   2.463   0.378   5.369  1.1933  1.1098 -0.1683
 7771TIP3   OH244803   6.766   0.952   2.331  0.3726 -0.1165  0.0803
 7771TIP3    H144804   6.824   0.919   2.263 -0.3796  0.0930 -0.6913
 7771TIP3    H244805   6.822   1.004   2.388  1.0600 -0.4736 -0.2599
 7772TIP3   OH244806   3.283   4.855   6.310  0.9574 -0.1940 -0.1872
 7772TIP3    H144807   3.258   4.791   6.376 -0.9868  1.3547  0.6822
 7772TIP3    H244808   3.226   4.930   6.326  0.8127  0.4932 -3.2577
 7773TIP3   OH244809   6.698   1.676  10.065 -0.4513 -0.2323  0.0046
 7773TIP3    H144810   6.692   1.599  10.121  0.3250 -1.5424 -1.6217
 7773TIP3    H244811   6.778   1.720  10.093 -2.0111  1.3315  2.4449
 7774TIP3   OH244812   0.947   1.284   3.520 -0.1997  0.0546  0.5506
 7774TIP3    H144813   0.981   1.344   3.586 -0.1318  1.9972 -1.1668
 7774TIP3    H244814   0.955   1.332   3.437 -0.8533 -2.0468 -0.8035
 7775TIP3   OH244815   0.888   0.363   0.742 -0.9486  0.6307 -0.3584
 7775TIP3    H144816   0.811   0.367   0.687 -0.4282  1.7179 -1.0471
 7775TIP3    H244817   0.932   0.282   0.718 -1.1867  0.6659 -0.9083
 7776TIP3   OH244818   6.539   2.130   1.923  0.1751  0.2331  0.3820
 7776TIP3    H144819   6.480   2.067   1.883 -0.0488 -0.1029  1.2292
 7776TIP3    H244820   6.492   2.213   1.919 -0.1045  0.0819  0.5080
 7777TIP3   OH244821   4.324   4.478  15.569  0.1048  0.0808 -0.0435
 7777TIP3    H144822   4.236   4.475  15.607  0.7314  2.2927  1.7852
 7777TIP3    H244823   4.383   4.469  15.644  1.4380 -0.1502 -1.0932
 7778TIP3   OH244824   5.430   0.904   3.139 -0.0073  0.1523 -0.6520
 7778TIP3    H144825   5.502   0.951   3.097 -0.6607  1.8440  0.0175
 7778TIP3    H244826   5.381   0.972   3.185 -1.7968 -1.0066 -0.7459
 7779TIP3   OH244827   2.551   1.480  12.138  0.4783 -0.7936  0.2272
 7779TIP3    H144828   2.563   1.539  12.064  1.0460  0.0318  0.9707
 7779TIP3    H244829   2.471   1.431  12.117  0.0049  0.2296 -0.3912
 7780TIP3   OH244830   3.101   2.323   6.481 -0.3238  0.9847 -0.1032
 7780TIP3    H144831   3.192   2.319   6.452 -0.6177  0.0002 -0.9330
 7780TIP3    H244832   3.069   2.233   6.475 -1.5362  1.4123 -0.4296
 7781TIP3   OH244833   3.843   2.811   4.339 -0.6659  0.2014  0.5084
 7781TIP3    H144834   3.875   2.752   4.271 -1.2274  1.1216 -0.5747
 7781TIP3    H244835   3.762   2.770   4.370 -0.1487 -0.4764  1.0007
 7782TIP3   OH244836   2.781   2.609   2.329 -0.1956  0.3104 -0.0123
 7782TIP3    H144837   2.849   2.575   2.386  0.2268  0.1487 -0.6013
 7782TIP3    H244838   2.781   2.704   2.345  0.2309  0.3220 -0.0718
 7783TIP3   OH244839   0.847   3.591  13.724 -0.7535 -0.0640 -0.4231
 7783TIP3    H144840   0.860   3.640  13.804 -0.3357  0.1159 -0.5979
 7783TIP3    H244841   0.805   3.510  13.752 -1.4936  0.4051 -0.1374
 7784TIP3   OH244842   4.352   1.341   3.930  0.1981 -0.1708  0.2145
 7784TIP3    H144843   4.417   1.403   3.964 -0.5670  0.7252  0.0971
 7784TIP3    H244844   4.403   1.278   3.878  0.8882  1.0312 -0.6264
 7785TIP3   OH244845   4.486   6.736   2.723  0.2754 -0.5820 -0.5005
 7785TIP3    H144846   4.419   6.766   2.785 -0.3567 -2.0295 -0.4340
 7785TIP3    H244847   4.567   6.774   2.756 -0.3734  0.4821 -0.0675
 7786TIP3   OH244848   2.914   3.982  13.965  0.1672 -0.2387 -0.1309
 7786TIP3    H144849   2.873   4.066  13.948 -0.0031 -0.0926  0.9196
 7786TIP3    H244850   2.849   3.917  13.938  0.3460 -0.0474 -1.0571
 7787TIP3   OH244851   5.520   1.731   2.447  0.4533  0.3027  0.0507
 7787TIP3    H144852   5.598   1.682   2.420 -0.4963 -0.0987 -2.1586
 7787TIP3    H244853   5.454   1.710   2.381 -1.8049  0.0629  2.2074
 7788TIP3   OH244854   5.120   6.435   5.816 -0.3597  0.3057  0.1195
 7788TIP3    H144855   5.194   6.445   5.876 -0.6846  1.6323  0.3399
 7788TIP3    H244856   5.051   6.397   5.869 -0.4501  0.9076  0.4518
 7789TIP3   OH244857   2.894   1.578  15.737 -0.2214  0.6144 -0.0946
 7789TIP3    H144858   2.945   1.593  15.816 -0.1143 -0.7930  0.1170
 7789TIP3    H244859   2.919   1.649  15.678  2.1402 -0.1430 -0.0766
 7790TIP3   OH244860   0.764   2.871  16.155 -0.0770  0.3274  0.0979
 7790TIP3    H144861   0.697   2.937  16.138 -0.3693  0.0096 -0.0119
 7790TIP3    H244862   0.745   2.801  16.093  0.2842  0.1805  0.1498
 7791TIP3   OH244863   3.299   2.693   6.185  0.1266 -0.0393  0.3131
 7791TIP3    H144864   3.232   2.743   6.232 -0.0653 -0.7080  0.7556
 7791TIP3    H244865   3.382   2.718   6.226 -0.0356 -0.5822  0.9691
 7792TIP3   OH244866   1.139   3.819  16.614 -0.4308  0.1916 -0.7367
 7792TIP3    H144867   1.196   3.748  16.642 -1.0106  0.6452  1.8044
 7792TIP3    H244868   1.068   3.821  16.679  0.4777  4.1899  0.4261
 7793TIP3   OH244869   2.472   0.707   2.528  0.1553 -0.0177 -0.9769
 7793TIP3    H144870   2.439   0.796   2.530  2.8535  1.0981 -1.6168
 7793TIP3    H244871   2.469   0.682   2.436  0.2777 -0.2323 -0.9243
 7794TIP3   OH244872   1.372   1.288  16.150 -0.0211  0.6732 -0.3388
 7794TIP3    H144873   1.399   1.206  16.109 -1.9305 -1.1696  1.7470
 7794TIP3    H244874   1.283   1.302  16.119 -0.7560  0.3233  1.4639
 7795TIP3   OH244875   2.517   4.204   5.208 -0.2419 -0.5728  0.5377
 7795TIP3    H144876   2.482   4.121   5.241  1.0739 -1.1658  0.4862
 7795TIP3    H244877   2.554   4.247   5.285  1.1554 -1.1111  0.1976
 7796TIP3   OH244878   5.411   1.910  17.038  0.3517 -0.4631 -0.1308
 7796TIP3    H144879   5.322   1.893  17.007 -0.2264  0.1856  1.1099
 7796TIP3    H244880   5.443   1.825  17.068  0.7067 -0.9888 -1.8718
 7797TIP3   OH244881   3.781   6.743  12.721  0.4422 -0.3952 -0.0935
 7797TIP3    H144882   3.701   6.696  12.744  0.1825 -0.1014 -0.3959
 7797TIP3    H244883   3.803   6.793  12.800 -0.3469  0.4698 -0.4028
 7798TIP3   OH244884   5.126   2.212   6.499  0.6959 -0.6963 -0.0892
 7798TIP3    H144885   5.160   2.255   6.421  0.8536 -0.4789  0.0961
 7798TIP3    H244886   5.169   2.127   6.501 -0.2086 -1.1914 -0.8871
 7799TIP3   OH244887   0.491   0.687  14.743 -0.0081  0.3867  0.1780
 7799TIP3    H144888   0.414   0.661  14.792  0.0820 -0.2413  0.0025
 7799TIP3    H244889   0.516   0.608  14.694  0.6464  0.6277  0.1115
 7800TIP3   OH244890   3.093   3.374   5.489 -0.8259 -0.7287 -0.2914
 7800TIP3    H144891   3.183   3.353   5.512 -1.0100  0.8405  2.1563
 7800TIP3    H244892   3.101   3.428   5.410  0.4490  0.0812  0.3582
 7801TIP3   OH244893   6.323   1.720   5.052  0.5932  0.0296  0.1607
 7801TIP3    H144894   6.257   1.789   5.040  0.9666  0.5978  1.2219
 7801TIP3    H244895   6.396   1.747   4.997 -0.5770 -1.3972 -2.2539
 7802TIP3   OH244896   4.326   6.591   4.682 -0.5258 -0.3001 -0.0582
 7802TIP3    H144897   4.343   6.498   4.664 -0.7557 -0.4831  0.6326
 7802TIP3    H244898   4.255   6.590   4.747  1.0043  0.2997  1.7041
 7803TIP3   OH244899   6.382   0.736   3.540 -0.0352  0.2747  0.7416
 7803TIP3    H144900   6.295   0.740   3.578 -0.5910 -1.5298 -0.2122
 7803TIP3    H244901   6.398   0.824   3.507 -1.6535  0.5485  0.6087
 7804TIP3   OH244902   2.618   5.567   6.765  0.2252  0.7194 -0.1149
 7804TIP3    H144903   2.626   5.480   6.805 -0.2193  1.8464  2.6573
 7804TIP3    H244904   2.706   5.605   6.774 -0.1290  1.3546  0.7546
 7805TIP3   OH244905   6.851   1.691   1.707  0.3076 -0.4251  0.0952
 7805TIP3    H144906   6.868   1.753   1.778 -0.9594 -1.0720  1.0075
 7805TIP3    H244907   6.896   1.728   1.632  0.2780  1.1649  0.8193
 7806TIP3   OH244908   0.052   1.398  16.885  0.4689  0.2418 -0.0089
 7806TIP3    H144909   0.112   1.472  16.896 -1.4486  1.7442  1.0937
 7806TIP3    H244910  -0.031   1.438  16.860 -0.4763 -1.6139 -0.0110
 7807TIP3   OH244911   0.576   6.552  15.100  0.3484  0.1325 -0.3046
 7807TIP3    H144912   0.590   6.569  15.007  2.7921 -0.6954 -0.1426
 7807TIP3    H244913   0.526   6.470  15.101  2.0274 -0.9481 -0.9162
 7808TIP3   OH244914   0.442   1.689  12.753 -1.0210  0.1947  0.7076
 7808TIP3    H144915   0.380   1.633  12.800  1.1635 -1.3349  1.9181
 7808TIP3    H244916   0.445   1.770  12.804  1.4786 -1.5067  3.5816
 7809TIP3   OH244917   4.348   2.024   4.534 -0.2221  0.1498  0.3787
 7809TIP3    H144918   4.267   1.973   4.534 -0.0687 -0.0958  0.1260
 7809TIP3    H244919   4.360   2.050   4.443 -1.8167  3.0837  0.8743
 7810TIP3   OH244920   2.544   5.207   5.581  0.4011  0.2470 -0.0077
 7810TIP3    H144921   2.547   5.113   5.565 -0.9414  0.4528 -1.7789
 7810TIP3    H244922   2.517   5.215   5.672  1.7627 -1.0480  0.5586
 7811TIP3   OH244923   6.515   3.225  13.226 -0.0827  0.4437  0.2193
 7811TIP3    H144924   6.564   3.226  13.144  1.8856 -1.6613  1.2836
 7811TIP3    H244925   6.516   3.317  13.255  1.6108  0.7746 -0.7336
 7812TIP3   OH244926   0.105   2.326   5.815  0.1941 -0.7982  0.3001
 7812TIP3    H144927   0.010   2.342   5.817  0.1331 -0.7692 -1.3059
 7812TIP3    H244928   0.121   2.272   5.892 -1.0811 -0.5774  0.7618
 7813TIP3   OH244929   3.653   2.488   1.965 -0.1249  0.5256 -0.2791
 7813TIP3    H144930   3.687   2.430   2.033 -0.3373  0.0817 -0.5474
 7813TIP3    H244931   3.598   2.550   2.012 -1.1093 -0.4104 -0.1460
 7814TIP3   OH244932   6.245   3.998  13.516 -0.1397  0.0599 -0.1527
 7814TIP3    H144933   6.317   4.062  13.516 -0.0420 -0.0194 -1.5732
 7814TIP3    H244934   6.277   3.925  13.568  1.1869 -0.3436 -1.4601
 7815TIP3   OH244935   5.645   1.703   3.873  0.2255 -0.3515  0.5270
 7815TIP3    H144936   5.735   1.718   3.904  0.3646  0.1179 -0.0815
 7815TIP3    H244937   5.604   1.789   3.878  0.5423 -0.0327 -1.4823
 7816TIP3   OH244938   3.180   6.058  12.255 -0.1265 -0.0115  0.1653
 7816TIP3    H144939   3.258   6.010  12.226  1.9854  2.8955  0.5689
 7816TIP3    H244940   3.162   6.119  12.184  0.0942  1.6334  1.4601
 7817TIP3   OH244941   5.142   4.795  10.612  0.1716 -0.0833 -0.4699
 7817TIP3    H144942   5.162   4.702  10.626  0.8137  0.1789  0.4350
 7817TIP3    H244943   5.058   4.795  10.565 -1.5286 -1.0732  2.3519
 7818TIP3   OH244944   4.062   0.434  15.746 -0.1826  0.4069  0.8116
 7818TIP3    H144945   4.046   0.498  15.677  0.5387 -0.2325  0.0361
 7818TIP3    H244946   4.027   0.352  15.711 -4.3681  0.8949  3.1353
 7819TIP3   OH244947   1.263   3.846  12.576  0.4106 -0.0943  0.2283
 7819TIP3    H144948   1.183   3.794  12.580 -0.0939  0.6858  0.6026
 7819TIP3    H244949   1.245   3.913  12.510  1.5150 -1.1241 -1.1802
 7820TIP3   OH244950   3.737   3.901   3.495 -0.3967 -0.7264 -0.2645
 7820TIP3    H144951   3.667   3.929   3.555 -0.1927  1.8348 -1.0990
 7820TIP3    H244952   3.817   3.931   3.537 -0.0410 -1.0940 -0.6743
 7821TIP3   OH244953   6.075   3.256   5.604 -0.1492 -0.0932 -0.5993
 7821TIP3    H144954   6.006   3.254   5.537 -0.2947  1.8028 -0.5660
 7821TIP3    H244955   6.027   3.254   5.687  0.0146 -2.0061 -0.5028
 7822TIP3   OH244956   1.583   1.726   2.343  0.0311  0.2705 -0.1057
 7822TIP3    H144957   1.556   1.772   2.423  1.6885  1.0069  0.0614
 7822TIP3    H244958   1.531   1.766   2.273  0.4797  1.4792  0.2386
 7823TIP3   OH244959   0.118   5.660   3.175 -0.1725  0.2576  0.0131
 7823TIP3    H144960   0.180   5.596   3.141  0.3214  1.5659 -1.6737
 7823TIP3    H244961   0.036   5.639   3.130 -0.6437 -0.6083  1.2154
 7824TIP3   OH244962   6.401   5.907  12.169 -1.1347 -0.1161  0.0292
 7824TIP3    H144963   6.429   5.939  12.083 -0.1969 -0.6960  0.0967
 7824TIP3    H244964   6.413   5.812  12.164  1.0881  0.0200  1.5020
 7825TIP3   OH244965   2.963   3.727   0.628 -0.6583 -0.2328 -0.2406
 7825TIP3    H144966   2.992   3.799   0.684  1.1088 -1.1253  0.0560
 7825TIP3    H244967   3.039   3.707   0.574 -1.1367 -1.8261 -0.3670
 7826TIP3   OH244968   4.897   1.400  11.697  0.0080 -0.0516  0.0596
 7826TIP3    H144969   4.925   1.425  11.609  0.1115  0.7315  0.3082
 7826TIP3    H244970   4.977   1.373  11.741 -0.0862 -0.7396 -0.1701
 7827TIP3   OH244971   4.734   2.926   0.014 -0.8131 -0.4797  0.0970
 7827TIP3    H144972   4.779   2.885  -0.059  0.9762  0.3498  0.6749
 7827TIP3    H244973   4.680   2.995  -0.026  0.7047  0.4456 -0.4194
 7828TIP3   OH244974   4.951   1.819   1.681  0.1261  0.8640 -0.4659
 7828TIP3    H144975   4.994   1.760   1.742  1.8590  0.9107 -1.5884
 7828TIP3    H244976   4.985   1.906   1.702  1.1978  0.8043 -1.8380
 7829TIP3   OH244977   2.903   6.263   3.374 -0.2208  0.2117 -0.0632
 7829TIP3    H144978   2.936   6.300   3.456  0.1242 -0.5006  0.1304
 7829TIP3    H244979   2.938   6.321   3.307 -0.1709  0.5764  0.2702
 7830TIP3   OH244980   6.497   2.580   5.894 -0.1760 -0.4017  0.3577
 7830TIP3    H144981   6.464   2.646   5.955  2.0411  1.1773 -0.0382
 7830TIP3    H244982   6.472   2.613   5.807 -0.8012 -1.1464  0.2462
 7831TIP3   OH244983   4.352   1.539  12.528 -0.1561  0.0611  0.4943
 7831TIP3    H144984   4.259   1.546  12.548 -0.4017 -0.5455 -0.3790
 7831TIP3    H244985   4.394   1.598  12.590 -1.1183  0.3315  0.9111
 7832TIP3   OH244986   2.081   1.981   0.842 -0.1147 -0.1018 -0.3029
 7832TIP3    H144987   2.155   2.025   0.885 -1.0298 -0.2400  1.5003
 7832TIP3    H244988   2.084   1.891   0.876 -0.2217 -0.5368 -1.4098
 7833TIP3   OH244989   2.915   0.197   4.801 -0.4825  0.2430  0.3425
 7833TIP3    H144990   2.885   0.134   4.867  1.4401 -0.6290  0.4606
 7833TIP3    H244991   3.010   0.203   4.815 -0.3639  1.7899 -0.8733
 7834TIP3   OH244992   4.543   0.938   0.723 -0.2377  0.2642  0.0401
 7834TIP3    H144993   4.589   0.951   0.806 -1.1124 -0.5327  0.6700
 7834TIP3    H244994   4.579   0.856   0.688  1.1243  1.2813 -1.0860
 7835TIP3   OH244995   6.303   5.758  16.141  0.2933  0.4754 -0.3512
 7835TIP3    H144996   6.376   5.716  16.095  0.3825 -0.8880  0.9568
 7835TIP3    H244997   6.250   5.685  16.173 -0.6580  1.4187  0.2579
 7836TIP3   OH244998   3.532   5.052   4.368  0.2235 -0.3164 -0.2143
 7836TIP3    H144999   3.508   5.139   4.399 -0.3659  1.0540 -4.0280
 7836TIP3    H245000   3.627   5.055   4.357  0.1997 -0.1378 -0.3739
 7837TIP3   OH245001   5.622   5.125  13.552 -0.3988 -0.4516  0.0864
 7837TIP3    H145002   5.535   5.087  13.561 -0.3694 -0.4707  0.3034
 7837TIP3    H245003   5.678   5.070  13.606 -0.0308 -1.1490 -0.9831
 7838TIP3   OH245004   4.891   5.417  16.352  0.3723 -0.7437 -0.3920
 7838TIP3    H145005   4.919   5.490  16.296  1.4342 -0.5073  0.4124
 7838TIP3    H245006   4.971   5.388  16.395  0.1716 -3.1631 -1.5404
 7839TIP3   OH245007   0.328   0.702  13.076 -0.1705  0.4838  0.3460
 7839TIP3    H145008   0.316   0.749  12.994  1.1314 -0.5039 -0.4580
 7839TIP3    H245009   0.319   0.610  13.052 -0.9382  0.2310  1.5475
 7840TIP3   OH245010   6.465   4.078  14.430  0.0014  0.4998  0.3736
 7840TIP3    H145011   6.394   4.054  14.371  0.2529 -1.1076  0.6775
 7840TIP3    H245012   6.541   4.029  14.399  0.5488  0.8811  1.0601
 7841TIP3   OH245013   2.180   5.824  15.187 -0.5339 -0.7353 -0.4543
 7841TIP3    H145014   2.179   5.863  15.100 -1.5880 -1.1024 -0.6171
 7841TIP3    H245015   2.090   5.793  15.201 -0.3600 -0.7596  0.7240
 7842TIP3   OH245016   1.390   3.032   2.773  0.0602  0.6218 -0.2647
 7842TIP3    H145017   1.406   3.123   2.799  0.3586  0.1956  1.1083
 7842TIP3    H245018   1.462   2.983   2.811 -0.2597 -0.2445 -0.7509
 7843TIP3   OH245019   3.268   4.745  14.375  0.4684  0.2395  0.7417
 7843TIP3    H145020   3.210   4.727  14.449  0.6903  1.0349  1.1113
 7843TIP3    H245021   3.354   4.712  14.403  0.0618 -1.7097 -0.1273
 7844TIP3   OH245022   3.709   3.356  14.501 -0.6895  0.1578  0.6596
 7844TIP3    H145023   3.775   3.394  14.559  0.1975 -0.4245  0.0630
 7844TIP3    H245024   3.758   3.291  14.449 -1.2795  1.1304 -1.2101
 7845TIP3   OH245025   1.462   4.055  16.950 -0.6002  0.1477  0.6996
 7845TIP3    H145026   1.423   4.114  16.886 -0.0962 -2.0339 -1.8086
 7845TIP3    H245027   1.506   3.988  16.897  1.0902 -1.0182  3.3669
 7846TIP3   OH245028   1.941   3.055   0.436 -0.0159 -0.0961 -0.0885
 7846TIP3    H145029   1.860   3.005   0.448  0.4816 -1.1424 -0.9030
 7846TIP3    H245030   1.913   3.135   0.391 -0.8008  0.3204  1.0827
 7847TIP3   OH245031   2.445   1.922  11.810 -1.0229  0.9124  0.8665
 7847TIP3    H145032   2.505   1.992  11.785  1.9033 -0.5710  3.0721
 7847TIP3    H245033   2.427   1.875  11.729  1.6924  0.8523  0.2099
 7848TIP3   OH245034   4.396   2.630   1.097 -0.1333 -0.1038 -0.0929
 7848TIP3    H145035   4.457   2.560   1.123  0.1772  0.5508  1.0188
 7848TIP3    H245036   4.375   2.611   1.006  1.5459 -0.4861 -0.4312
 7849TIP3   OH245037   2.265   1.012   3.091 -0.0573 -0.0651  0.1985
 7849TIP3    H145038   2.310   0.994   3.009  0.4213 -1.0850  0.6620
 7849TIP3    H245039   2.172   1.005   3.070  0.0745 -0.9957 -0.1235
 7850TIP3   OH245040   4.431   0.483   0.634  0.0232  0.5425 -0.2281
 7850TIP3    H145041   4.456   0.528   0.714 -1.3486  1.2753 -0.1921
 7850TIP3    H245042   4.413   0.552   0.571 -0.7013  0.0187 -0.6134
 7851TIP3   OH245043   1.358   0.340  11.217  0.1232 -0.5776 -0.1128
 7851TIP3    H145044   1.438   0.387  11.198  0.3376 -0.6990  0.4718
 7851TIP3    H245045   1.325   0.312  11.131  1.2050 -1.3505 -0.2960
 7852TIP3   OH245046   1.872   6.454  12.300  0.3485 -0.0418 -0.3013
 7852TIP3    H145047   1.858   6.440  12.394 -1.7757 -0.8553 -0.6930
 7852TIP3    H245048   1.966   6.443  12.288  0.5199 -0.9681  1.5699
 7853TIP3   OH245049   5.834   2.829   1.464 -0.6260 -0.4598  0.1613
 7853TIP3    H145050   5.908   2.890   1.465 -1.4740  0.5770  0.1991
 7853TIP3    H245051   5.763   2.876   1.508 -1.5274 -1.1711 -0.5088
 7854TIP3   OH245052   1.862   1.963   2.641  0.1459 -0.4076  0.3235
 7854TIP3    H145053   1.771   1.964   2.671 -0.1214  4.1996  0.0339
 7854TIP3    H245054   1.855   1.962   2.545  0.2077  1.7848  0.2485
 7855TIP3   OH245055   2.437   1.993  10.828 -0.2053 -0.1392  0.0474
 7855TIP3    H145056   2.414   1.994  10.735 -0.5179  0.0671  0.1247
 7855TIP3    H245057   2.353   1.989  10.874 -0.0313 -0.8025  0.3153
 7856TIP3   OH245058   0.664   4.048  13.445  0.1379 -0.4180 -0.0996
 7856TIP3    H145059   0.615   3.968  13.465 -0.4993  0.1811  0.8050
 7856TIP3    H245060   0.739   4.018  13.393  0.7307 -1.7995  1.4833
 7857TIP3   OH245061   6.452   6.161   2.147  0.2460  0.0346 -0.0498
 7857TIP3    H145062   6.384   6.219   2.113  1.2049  1.7922  0.9204
 7857TIP3    H245063   6.434   6.155   2.241  0.0927 -1.3616 -0.1503
 7858TIP3   OH245064   3.335   0.420  11.921 -0.3304 -0.2680  0.6262
 7858TIP3    H145065   3.299   0.509  11.927  0.1025 -0.1317  1.4108
 7858TIP3    H245066   3.265   0.364  11.954 -0.1575 -0.0867  1.3255
 7859TIP3   OH245067   5.993   2.960  10.756  0.1489  0.6800 -0.3482
 7859TIP3    H145068   5.944   3.025  10.705 -2.2305  1.7201  2.8968
 7859TIP3    H245069   5.937   2.883  10.755  0.4739  0.4388 -0.0238
 7860TIP3   OH245070   2.029   4.201  15.361  0.4042 -0.3222 -0.4638
 7860TIP3    H145071   2.068   4.234  15.442  1.0131  1.4324 -1.4037
 7860TIP3    H245072   1.935   4.214  15.373  0.5869  1.2375 -0.5462
 7861TIP3   OH245073   6.770   6.390   6.216 -0.2161 -0.4001 -0.1343
 7861TIP3    H145074   6.837   6.447   6.179  0.6687 -1.3477 -0.0161
 7861TIP3    H245075   6.817   6.331   6.274 -1.0503 -1.5180 -0.5522
 7862TIP3   OH245076   3.670   0.535  10.812  0.1681 -0.1705  0.6633
 7862TIP3    H145077   3.586   0.581  10.807  1.5631  2.4823 -0.8549
 7862TIP3    H245078   3.667   0.472  10.740 -0.5623 -0.1825  0.6969
 7863TIP3   OH245079   2.162   4.101  13.789  0.1323  0.0126 -0.0472
 7863TIP3    H145080   2.208   4.027  13.749  1.2275  0.0189  1.1368
 7863TIP3    H245081   2.231   4.155  13.828 -0.6762  1.4956 -0.5840
 7864TIP3   OH245082   1.662   6.785   5.825 -0.0179 -0.1043  0.6386
 7864TIP3    H145083   1.715   6.860   5.852  3.6933 -1.1130 -2.7976
 7864TIP3    H245084   1.682   6.718   5.891  0.4121  0.5353  1.1769
 7865TIP3   OH245085   3.302   1.906  13.603  0.0956 -0.2210 -0.0187
 7865TIP3    H145086   3.279   1.817  13.574  0.9351 -0.7528  0.8721
 7865TIP3    H245087   3.221   1.941  13.639 -0.4548 -0.2976 -1.1293
 7866TIP3   OH245088   2.598   2.926  11.384 -0.2701 -0.1256 -0.2846
 7866TIP3    H145089   2.687   2.894  11.372 -0.5449 -0.7934 -0.6173
 7866TIP3    H245090   2.608   3.014  11.420  0.5601  0.6083 -2.2149
 7867TIP3   OH245091   0.692   1.909  15.351 -0.3768  0.4939 -0.8894
 7867TIP3    H145092   0.684   1.821  15.316 -0.0197 -1.6486  3.6553
 7867TIP3    H245093   0.603   1.934  15.376 -0.0643 -0.6976  1.8581
 7868TIP3   OH245094   5.105   1.017   2.894  0.1376 -0.6064 -0.5290
 7868TIP3    H145095   5.046   1.074   2.942  1.3408  1.1263 -1.0126
 7868TIP3    H245096   5.049   0.948   2.858 -0.9862 -1.2543  2.2235
 7869TIP3   OH245097   3.552   3.590   1.584  0.3089  0.2985  0.2473
 7869TIP3    H145098   3.612   3.642   1.530 -0.4576  1.1418  0.1878
 7869TIP3    H245099   3.544   3.507   1.537 -1.1255  1.3674 -1.5248
 7870TIP3   OH245100   5.584   3.051   5.234 -0.0818 -0.4441  0.0600
 7870TIP3    H145101   5.577   2.958   5.213 -1.8923 -0.1701 -0.7770
 7870TIP3    H245102   5.567   3.096   5.150 -1.4474  0.6358  0.8701
 7871TIP3   OH245103   6.567   6.702  16.414  0.0611 -0.5546 -0.0564
 7871TIP3    H145104   6.493   6.659  16.371  2.4310 -1.7561 -3.3812
 7871TIP3    H245105   6.575   6.786  16.369  0.8243 -0.5159  0.1456
 7872TIP3   OH245106   2.185   1.148  11.183 -0.4044  0.3238  0.2472
 7872TIP3    H145107   2.209   1.174  11.094 -0.5092 -1.4534 -0.3470
 7872TIP3    H245108   2.105   1.097  11.173 -0.9686  0.9146  1.4920
 7873TIP3   OH245109   3.121   6.261  12.037  0.1244 -0.4377 -0.2043
 7873TIP3    H145110   3.078   6.341  12.008 -0.3929 -0.1867  1.1613
 7873TIP3    H245111   3.119   6.203  11.961 -2.5232 -0.3790 -0.2831
 7874TIP3   OH245112   5.830   1.424   1.701 -0.4459  0.1950 -0.3507
 7874TIP3    H145113   5.803   1.478   1.626  0.2170 -1.1875 -1.6274
 7874TIP3    H245114   5.926   1.419   1.694 -0.4378 -0.5473  0.1639
 7875TIP3   OH245115   1.329   5.458   0.871  0.4925  0.2840 -0.3763
 7875TIP3    H145116   1.419   5.488   0.860  0.2230  1.1005 -0.4535
 7875TIP3    H245117   1.303   5.429   0.784  0.9159 -0.6736 -0.2008
 7876TIP3   OH245118   3.622   3.264   1.590  0.2044  0.2838 -0.3839
 7876TIP3    H145119   3.642   3.193   1.529  1.0939 -0.5144  0.7907
 7876TIP3    H245120   3.705   3.311   1.600 -0.0605  0.7176 -0.1658
 7877TIP3   OH245121   3.010   1.141  13.356 -0.2460  0.3468 -0.1120
 7877TIP3    H145122   2.958   1.186  13.289  1.8621  1.0109 -1.3642
 7877TIP3    H245123   3.002   1.197  13.433  0.4588  1.6949 -0.9795
 7878TIP3   OH245124   6.028   6.263  14.140 -0.1894 -0.1573 -0.6089
 7878TIP3    H145125   6.031   6.169  14.127 -0.5183 -0.0614 -1.4449
 7878TIP3    H245126   5.961   6.294  14.078 -0.8028  0.5018  0.3586
 7879TIP3   OH245127   4.788   4.116   4.128  0.0232 -0.0221  0.0748
 7879TIP3    H145128   4.858   4.065   4.088  1.2250  2.0454 -0.6351
 7879TIP3    H245129   4.730   4.051   4.167  0.5532 -1.9913 -2.1882
 7880TIP3   OH245130   4.042   6.702   0.492 -0.2068  0.0128  0.6497
 7880TIP3    H145131   4.031   6.622   0.543  1.0417 -0.6389 -0.0713
 7880TIP3    H245132   4.081   6.764   0.553 -0.5223 -0.1404  1.0142
 7881TIP3   OH245133   4.899   4.003   3.840 -0.0897 -0.1545 -0.2450
 7881TIP3    H145134   4.983   4.041   3.866  0.3938  0.0726 -1.9957
 7881TIP3    H245135   4.859   3.974   3.921  1.1305  0.8772  0.7604
 7882TIP3   OH245136   3.451   4.328  11.302 -0.1304 -0.3347  0.2214
 7882TIP3    H145137   3.542   4.300  11.311 -0.4251 -1.4714 -0.1500
 7882TIP3    H245138   3.403   4.247  11.283 -0.9282  0.5220 -1.6944
 7883TIP3   OH245139   2.742   0.057   0.119 -0.4479  0.2578  0.6190
 7883TIP3    H145140   2.655   0.054   0.158 -0.9905  0.5006 -0.5186
 7883TIP3    H245141   2.781   0.138   0.151 -1.3174  1.0215 -0.2075
 7884TIP3   OH245142   6.076   3.296  11.101  0.0819  0.3205 -0.1703
 7884TIP3    H145143   6.124   3.338  11.030  0.4840 -1.3601 -0.9637
 7884TIP3    H245144   6.085   3.202  11.083 -0.1710 -0.1508  1.8695
 7885TIP3   OH245145   6.280   4.685   0.789  0.0859 -0.2797 -0.0549
 7885TIP3    H145146   6.225   4.701   0.713  0.4864 -0.4267 -0.3782
 7885TIP3    H245147   6.299   4.592   0.786 -2.9903 -1.1517  2.3221
 7886TIP3   OH245148   2.844   0.281  16.223 -0.2992  0.3635 -0.2754
 7886TIP3    H145149   2.758   0.258  16.256  0.2484  0.0408  0.9602
 7886TIP3    H245150   2.834   0.282  16.128 -1.4103 -0.6703 -0.1854
 7887TIP3   OH245151   4.532   6.689  15.901 -0.1709 -0.7344  0.2960
 7887TIP3    H145152   4.485   6.693  15.985  0.7538  3.4529  0.8044
 7887TIP3    H245153   4.494   6.760  15.849  2.6321  0.0265 -0.8771
 7888TIP3   OH245154   0.496   2.302  14.342 -0.3769 -1.1843  0.3922
 7888TIP3    H145155   0.571   2.244  14.353  0.5751 -0.2493 -0.7881
 7888TIP3    H245156   0.455   2.273  14.261 -0.2354 -0.5840  0.1003
 7889TIP3   OH245157   4.720   3.228   6.018  0.8091  0.5287 -0.1896
 7889TIP3    H145158   4.776   3.156   6.047 -0.9018 -0.6075  0.4415
 7889TIP3    H245159   4.758   3.306   6.058  0.5901 -0.5242  2.2599
 7890TIP3   OH245160   6.109   2.793  12.735 -0.4835 -0.4244 -0.1664
 7890TIP3    H145161   6.165   2.738  12.679  0.7136 -0.6018  1.1495
 7890TIP3    H245162   6.141   2.778  12.823 -1.9303  0.3323  0.5205
 7891TIP3   OH245163   6.048   5.390  16.666 -0.6056  0.1839  0.1933
 7891TIP3    H145164   6.125   5.336  16.689 -0.7956  0.0005  0.4070
 7891TIP3    H245165   6.071   5.478  16.694  0.1326  0.4329 -1.1025
 7892TIP3   OH245166   5.187   2.171   6.765  0.0192  0.2955  0.3954
 7892TIP3    H145167   5.182   2.080   6.734 -0.7877 -0.1730  1.8213
 7892TIP3    H245168   5.154   2.223   6.692  2.3914 -0.3331 -1.2471
 7893TIP3   OH245169   1.861   2.622   1.453  0.2527  0.4734  0.4171
 7893TIP3    H145170   1.930   2.620   1.520  0.3510  0.4641  0.3162
 7893TIP3    H245171   1.908   2.613   1.371 -0.0445 -2.1543  0.4457
 7894TIP3   OH245172   3.767   2.990  13.516 -0.0531  0.1929 -0.0362
 7894TIP3    H145173   3.707   2.915  13.513  0.2366 -0.0228 -0.4930
 7894TIP3    H245174   3.842   2.964  13.462  0.8747  0.1011  1.2448
 7895TIP3   OH245175   2.361   0.168   6.813  0.1474 -0.6894  0.5899
 7895TIP3    H145176   2.277   0.209   6.795  0.6890  0.2375  0.0928
 7895TIP3    H245177   2.404   0.228   6.874  0.7443 -0.7625  0.2526
 7896TIP3   OH245178   1.105   2.855   3.626 -0.2618 -0.3988  0.1112
 7896TIP3    H145179   1.176   2.901   3.670  1.3131 -1.8174 -0.8211
 7896TIP3    H245180   1.047   2.925   3.596 -0.8176  0.6727  3.3035
 7897TIP3   OH245181   6.532   4.007  10.798  0.0538 -0.2674  0.3489
 7897TIP3    H145182   6.552   3.959  10.718  1.8231  1.0533 -0.0646
 7897TIP3    H245183   6.554   3.947  10.869 -1.3545 -1.3825 -0.1090
 7898TIP3   OH245184   4.373   2.029  12.918  0.2436 -0.0728 -0.3214
 7898TIP3    H145185   4.405   2.049  12.830  1.8551 -1.6195 -0.1321
 7898TIP3    H245186   4.452   2.025  12.972 -0.5703 -0.8047  0.8551
 7899TIP3   OH245187   0.900   4.865  13.515 -0.8187 -0.4549 -0.0148
 7899TIP3    H145188   0.962   4.804  13.474 -1.0092  0.5794 -1.9971
 7899TIP3    H245189   0.936   4.952  13.494 -2.2181  0.1463 -0.0217
 7900TIP3   OH245190   0.394   1.527  12.518  0.3969  0.3725  0.4370
 7900TIP3    H145191   0.427   1.563  12.600  1.0186  0.7911  0.0125
 7900TIP3    H245192   0.389   1.433  12.533  1.7213  0.3102  0.5419
 7901TIP3   OH245193   2.398   3.680   3.499  0.2431  0.4460 -0.3619
 7901TIP3    H145194   2.407   3.719   3.411  3.2411 -1.4192 -1.0205
 7901TIP3    H245195   2.484   3.643   3.518 -1.0544 -1.5478  2.2801
 7902TIP3   OH245196   3.170   2.813   3.860  0.2549  0.4598 -0.4250
 7902TIP3    H145197   3.077   2.806   3.883  0.5604 -0.3054  0.6539
 7902TIP3    H245198   3.215   2.821   3.944  1.4740 -2.7374 -0.6265
 7903TIP3   OH245199   2.027   6.147   4.781 -0.4115 -0.1782  0.2193
 7903TIP3    H145200   2.036   6.237   4.812  1.3181 -0.7609  1.5673
 7903TIP3    H245201   2.021   6.155   4.686 -1.6678  1.4232  0.3957
 7904TIP3   OH245202   6.395   4.103  11.903 -0.3391 -0.3085 -0.2784
 7904TIP3    H145203   6.338   4.112  11.826  0.7667 -0.7399 -1.1759
 7904TIP3    H245204   6.397   4.009  11.921 -0.9791 -0.1643  0.5945
 7905TIP3   OH245205   1.062   5.155   0.159 -0.5404  0.9465  0.3366
 7905TIP3    H145206   1.021   5.241   0.159 -0.6039  0.9241  0.8473
 7905TIP3    H245207   0.994   5.095   0.130 -0.5592  1.0429  0.1829
 7906TIP3   OH245208   5.630   3.554  12.132  0.4900  0.2761  0.6224
 7906TIP3    H145209   5.546   3.551  12.178  0.6823  1.8126  1.1152
 7906TIP3    H245210   5.669   3.468  12.149 -0.7249 -0.2463  0.8589
 7907TIP3   OH245211   3.609   1.649   1.458  0.2920 -1.1731  0.5820
 7907TIP3    H145212   3.515   1.666   1.465  0.7155  0.8611  2.6390
 7907TIP3    H245213   3.617   1.554   1.466 -1.5716 -1.3774  0.4603
 7908TIP3   OH245214   3.983   2.510  13.045  0.0598 -0.0441 -0.5536
 7908TIP3    H145215   4.072   2.538  13.063  0.2811 -0.1856 -1.3921
 7908TIP3    H245216   3.991   2.447  12.974 -0.3999 -2.3041  1.2483
 7909TIP3   OH245217   3.832   0.325  14.266 -0.4664  0.1181  0.8480
 7909TIP3    H145218   3.811   0.352  14.177  1.3493  0.5273  0.4986
 7909TIP3    H245219   3.813   0.401  14.320  1.0564  0.8736  0.3858
 7910TIP3   OH245220   1.336   5.652  16.730 -0.3277  1.0213  0.1796
 7910TIP3    H145221   1.366   5.742  16.743  0.3957  0.9304 -0.7438
 7910TIP3    H245222   1.378   5.624  16.649 -0.8584 -0.0214  0.2444
 7911TIP3   OH245223   1.898   5.569   2.396  0.0444  0.5263  0.3457
 7911TIP3    H145224   1.949   5.607   2.468  1.4139  1.6103 -1.1167
 7911TIP3    H245225   1.837   5.639   2.372  0.2605  0.5451 -0.1598
 7912TIP3   OH245226   2.568   6.179  11.794  0.3356  0.4616 -0.5701
 7912TIP3    H145227   2.535   6.096  11.759 -0.4518  1.4528 -2.3018
 7912TIP3    H245228   2.568   6.167  11.889 -0.7519 -1.1509 -0.7362
 7913TIP3   OH245229   5.697   3.923   4.487 -0.1292  0.5186 -0.0357
 7913TIP3    H145230   5.626   3.934   4.550 -0.3789  2.4642 -0.5798
 7913TIP3    H245231   5.664   3.965   4.407  0.6939 -0.7232 -1.0531
 7914TIP3   OH245232   0.849   1.998   4.690 -0.5711  0.0892 -0.1075
 7914TIP3    H145233   0.822   2.080   4.733 -1.4098  0.4771 -1.3358
 7914TIP3    H245234   0.919   1.964   4.746 -2.1129  0.1700  2.0038
 7915TIP3   OH245235   1.740   6.573   4.301  0.2341 -0.0665 -0.0341
 7915TIP3    H145236   1.747   6.543   4.210 -1.3388 -0.1605 -0.1511
 7915TIP3    H245237   1.823   6.546   4.341 -0.1439 -2.5502 -0.7151
 7916TIP3   OH245238   6.666   4.547   2.201  0.0723 -0.0323 -0.3406
 7916TIP3    H145239   6.668   4.619   2.138  0.6965  0.9784  0.7768
 7916TIP3    H245240   6.758   4.533   2.225 -0.2769  1.5032  2.3363
 7917TIP3   OH245241   1.471   6.606  15.902  0.6464  0.0055  0.7641
 7917TIP3    H145242   1.560   6.640  15.893  0.5594 -0.1389 -0.9135
 7917TIP3    H245243   1.416   6.674  15.863 -0.0862  0.4988  2.5893
 7918TIP3   OH245244   4.538   0.875  13.387  0.2113  0.2781 -0.5187
 7918TIP3    H145245   4.507   0.785  13.384  1.7251 -0.2887 -0.3925
 7918TIP3    H245246   4.487   0.921  13.320 -1.0948 -0.4895 -0.0641
 7919TIP3   OH245247   1.250   0.149   4.328  0.5271 -0.3872 -0.3555
 7919TIP3    H145248   1.175   0.096   4.301  1.5814 -0.5198 -3.3639
 7919TIP3    H245249   1.238   0.233   4.285  2.4742 -0.7005 -1.6533
 7920TIP3   OH245250   2.057   5.166  13.371 -0.0200  0.4822 -0.3758
 7920TIP3    H145251   2.052   5.115  13.289 -0.9458  1.1029 -0.7217
 7920TIP3    H245252   1.967   5.168  13.403  0.5365 -0.9915  1.4720
 7921TIP3   OH245253   4.803   2.945   0.559  0.1251 -0.2226  0.0505
 7921TIP3    H145254   4.853   2.969   0.481 -0.6864  0.3351 -0.3127
 7921TIP3    H245255   4.845   2.994   0.630  0.5013 -0.2724 -0.1334
 7922TIP3   OH245256   1.803   0.581   0.981  0.3271 -0.0365  0.0488
 7922TIP3    H145257   1.783   0.640   1.054  1.8666  1.7430 -0.8794
 7922TIP3    H245258   1.842   0.504   1.022 -0.8852 -0.0443  1.2382
 7923TIP3   OH245259   5.596   5.508  15.813  0.6173 -0.3588  0.1560
 7923TIP3    H145260   5.618   5.577  15.751  2.0622 -0.6343  0.3272
 7923TIP3    H245261   5.635   5.428  15.776 -1.1310 -1.1423 -0.1065
 7924TIP3   OH245262   2.335   4.385  14.738 -0.0022 -0.2760  0.3175
 7924TIP3    H145263   2.293   4.353  14.658  1.6539 -1.2263 -0.2315
 7924TIP3    H245264   2.349   4.306  14.791  1.4388 -0.0704  0.2817
 7925TIP3   OH245265   0.325   2.558  15.628  0.2871  0.1286  0.6669
 7925TIP3    H145266   0.238   2.583  15.657  0.0837 -1.0359  1.0965
 7925TIP3    H245267   0.311   2.513  15.545  0.4849 -0.0212  0.7128
 7926TIP3   OH245268   6.204   3.282   5.937 -0.5075 -0.1845 -0.0210
 7926TIP3    H145269   6.261   3.335   5.993  1.4285 -1.4814 -0.6520
 7926TIP3    H245270   6.115   3.308   5.962  0.3144  1.1067  1.8254
 7927TIP3   OH245271   1.001   5.703   2.869 -0.5207  0.0499  0.1902
 7927TIP3    H145272   1.026   5.686   2.959  1.0626  0.6666 -0.0983
 7927TIP3    H245273   0.997   5.617   2.828 -3.1935 -0.4267  1.2646
 7928TIP3   OH245274   2.472   2.385   0.615 -0.2166  0.1313 -0.8565
 7928TIP3    H145275   2.522   2.362   0.536  0.7633 -0.5199 -0.0676
 7928TIP3    H245276   2.534   2.376   0.686 -1.2749  0.0221  0.0835
 7929TIP3   OH245277   5.832   3.695  10.152  0.7760  0.3421 -0.7770
 7929TIP3    H145278   5.860   3.658  10.068  0.7729 -2.9547  0.4945
 7929TIP3    H245279   5.738   3.707  10.143  0.9577  1.2775 -1.6229
 7930TIP3   OH245280   5.981   0.181  11.225 -0.2295 -0.0784 -0.8679
 7930TIP3    H145281   5.892   0.207  11.201 -0.3742 -1.0273 -1.3874
 7930TIP3    H245282   5.971   0.134  11.308 -0.2831 -0.6402 -1.1897
 7931TIP3   OH245283   5.508   3.471   3.930  0.3538  0.0557  0.1651
 7931TIP3    H145284   5.561   3.411   3.983 -0.2779 -0.5426  0.1319
 7931TIP3    H245285   5.419   3.460   3.964 -0.1850 -0.8166 -1.4195
 7932TIP3   OH245286   4.040   4.459   2.760  0.1088 -0.2214  0.0023
 7932TIP3    H145287   3.955   4.448   2.719 -0.8212  1.3759  1.3832
 7932TIP3    H245288   4.056   4.376   2.805 -1.0553 -0.2834  0.3193
 7933TIP3   OH245289   3.784   4.805   3.893  0.0958  0.1656  0.4607
 7933TIP3    H145290   3.745   4.755   3.966  0.4089  0.7065  1.0085
 7933TIP3    H245291   3.710   4.849   3.852  0.0921  1.0490  1.3872
 7934TIP3   OH245292   3.785   2.219  16.648 -0.0303 -0.4764 -0.0378
 7934TIP3    H145293   3.701   2.191  16.683 -0.9284  2.5294  0.4681
 7934TIP3    H245294   3.833   2.251  16.724  0.6603 -0.0826 -0.6275
 7935TIP3   OH245295   1.081   4.871   1.205 -0.2645  0.1789 -0.4687
 7935TIP3    H145296   1.107   4.958   1.173 -2.8377  2.1186  2.2084
 7935TIP3    H245297   1.161   4.836   1.245  1.0422  0.8687 -2.3345
 7936TIP3   OH245298   0.482   5.772   6.445 -0.3488  0.2251  0.4854
 7936TIP3    H145299   0.566   5.752   6.486 -0.5065  0.4918  0.9528
 7936TIP3    H245300   0.506   5.818   6.365 -0.0326  2.6417  1.8427
 7937TIP3   OH245301   2.833   6.650  11.690  0.3279  0.1615 -0.1023
 7937TIP3    H145302   2.828   6.555  11.688 -2.4723  0.1636  1.7548
 7937TIP3    H245303   2.887   6.670  11.766 -0.5942  0.0387  0.5923
 7938TIP3   OH245304   1.651   2.019   3.071  0.1903 -0.0884  0.3484
 7938TIP3    H145305   1.592   2.004   2.998  0.4244 -0.8756  0.3124
 7938TIP3    H245306   1.598   2.069   3.134  0.0346  0.7173 -0.3989
 7939TIP3   OH245307   5.870   1.069  13.689  0.4490 -0.6708 -0.7838
 7939TIP3    H145308   5.846   1.068  13.597  3.1496 -1.9152 -1.5667
 7939TIP3    H245309   5.810   1.007  13.731 -0.6674 -0.2443 -1.7128
 7940TIP3   OH245310   3.269   1.157  15.751 -0.3203 -0.8409 -0.1903
 7940TIP3    H145311   3.261   1.223  15.821 -0.9231  1.1639 -2.0301
 7940TIP3    H245312   3.360   1.163  15.723 -0.2575 -1.1206 -0.0402
 7941TIP3   OH245313   1.173   3.449  14.375 -0.3657  0.3165 -0.2678
 7941TIP3    H145314   1.129   3.465  14.459 -1.5697  1.1171 -1.0062
 7941TIP3    H245315   1.102   3.421  14.317  0.5376 -0.7296 -0.8922
 7942TIP3   OH245316   2.238   5.996  14.035 -0.0335 -0.6873 -0.0273
 7942TIP3    H145317   2.184   5.919  14.051  1.0980 -1.6626 -0.7322
 7942TIP3    H245318   2.211   6.026  13.948  1.0284 -1.6417 -0.7279
 7943TIP3   OH245319   2.583   4.608   5.794  0.7681 -0.0842 -0.6669
 7943TIP3    H145320   2.515   4.663   5.833  0.1709  0.5733 -2.5322
 7943TIP3    H245321   2.662   4.628   5.846 -0.3091 -0.4917  1.2029
 7944TIP3   OH245322   4.477   1.501   5.098 -0.0097  0.0385  0.0776
 7944TIP3    H145323   4.499   1.541   5.182  2.1408 -3.6567  1.5162
 7944TIP3    H245324   4.422   1.426   5.120 -0.4266 -0.3169 -1.9615
 7945TIP3   OH245325   4.494   3.092   1.492  0.0263  0.2343  0.0013
 7945TIP3    H145326   4.427   3.060   1.551  0.6202 -2.6660 -0.7678
 7945TIP3    H245327   4.451   3.099   1.407 -0.4521  3.0232  0.3736
 7946TIP3   OH245328   2.983   6.152   0.392 -0.1095 -0.1456  0.2699
 7946TIP3    H145329   2.947   6.069   0.424  1.8861 -0.0625  3.0590
 7946TIP3    H245330   2.934   6.219   0.439 -0.4442  0.2222 -0.5798
 7947TIP3   OH245331   0.989   6.753   3.390 -0.3070 -0.4756  0.1873
 7947TIP3    H145332   0.928   6.815   3.432  1.7701  1.7107  0.1912
 7947TIP3    H245333   0.973   6.765   3.296 -0.1289 -0.1561  0.1964
 7948TIP3   OH245334   3.987   4.974  13.874  0.2478 -0.1026 -0.2920
 7948TIP3    H145335   3.957   4.890  13.839  0.8554  0.3255 -1.9184
 7948TIP3    H245336   3.933   5.039  13.830 -0.1826  0.3843  0.9199
 7949TIP3   OH245337   4.795   1.703   3.443 -0.3803  0.3685  0.2584
 7949TIP3    H145338   4.775   1.795   3.430 -0.6479  0.5316  1.6597
 7949TIP3    H245339   4.715   1.665   3.479  0.3184  0.0269  1.5193
 7950TIP3   OH245340   5.845   0.023   2.305 -0.0533  0.8308  0.0972
 7950TIP3    H145341   5.912   0.019   2.374  1.5426  2.4185 -1.2522
 7950TIP3    H245342   5.813  -0.067   2.297 -0.2200  0.5636  2.7821
 7951TIP3   OH245343   4.752   3.942   4.615 -0.7876  0.6621 -0.7538
 7951TIP3    H145344   4.823   3.972   4.559 -0.4493  0.2897 -0.5292
 7951TIP3    H245345   4.754   3.846   4.606 -0.0247  0.5145  0.7415
 7952TIP3   OH245346   1.287   1.150   5.315 -0.0587 -0.1621  0.3237
 7952TIP3    H145347   1.264   1.059   5.295  1.4261 -0.1596 -1.7329
 7952TIP3    H245348   1.335   1.144   5.398 -1.8306 -0.9375  1.3309
 7953TIP3   OH245349   5.340   6.591  13.254 -0.3899  0.6170  0.0918
 7953TIP3    H145350   5.378   6.504  13.260  1.2004  1.2071 -0.7491
 7953TIP3    H245351   5.290   6.591  13.172  0.2507  0.7074 -0.3077
 7954TIP3   OH245352   4.402   4.317   1.198  0.3359  0.0651  0.7132
 7954TIP3    H145353   4.394   4.362   1.114 -1.5227  1.0474  1.3555
 7954TIP3    H245354   4.492   4.334   1.226  0.0440  2.5402  0.4136
 7955TIP3   OH245355   3.687   4.860   4.849  0.9983 -0.0861  0.1613
 7955TIP3    H145356   3.719   4.771   4.838  1.0406  0.0379 -0.8386
 7955TIP3    H245357   3.657   4.885   4.762  0.6322  0.7410  0.5162
 7956TIP3   OH245358   5.453   1.247   5.976 -0.6984 -0.5916 -0.2447
 7956TIP3    H145359   5.457   1.289   6.062 -2.2348  1.8328 -1.2338
 7956TIP3    H245360   5.363   1.215   5.970 -0.6600 -0.5653 -1.0132
 7957TIP3   OH245361   0.896   3.615   4.708 -0.4759 -0.6593  0.5040
 7957TIP3    H145362   0.888   3.690   4.650 -0.5174 -2.1411 -1.4929
 7957TIP3    H245363   0.834   3.633   4.779  1.5329  2.4673  1.6695
 7958TIP3   OH245364   6.083   4.163  13.248 -0.4308 -0.0445  0.5986
 7958TIP3    H145365   6.122   4.109  13.317  0.9419 -1.5068 -1.2282
 7958TIP3    H245366   6.155   4.216  13.214 -0.4504 -1.1763 -1.3551
 7959TIP3   OH245367   6.853   5.643   3.450 -0.5023  0.7535  0.3149
 7959TIP3    H145368   6.913   5.653   3.376 -0.3939  0.2522  0.3303
 7959TIP3    H245369   6.840   5.548   3.457  0.9603  0.6349  2.0923
 7960TIP3   OH245370   4.435   0.702   5.934  0.0149  0.0671 -0.3778
 7960TIP3    H145371   4.517   0.704   5.885 -0.0943 -1.2525 -0.6633
 7960TIP3    H245372   4.450   0.637   6.003 -1.2218 -1.2349 -1.2855
 7961TIP3   OH245373   6.276   1.480  14.722  0.3727 -0.5899  0.2630
 7961TIP3    H145374   6.266   1.573  14.741 -2.5304 -0.6620 -0.3829
 7961TIP3    H245375   6.264   1.473  14.628 -1.4194 -1.7407  0.5211
 7962TIP3   OH245376   6.178   2.134  13.804  0.4097  0.3227 -0.2534
 7962TIP3    H145377   6.244   2.204  13.809 -0.4482  1.0986  0.5880
 7962TIP3    H245378   6.117   2.162  13.737  0.7806 -0.2802 -0.8581
 7963TIP3   OH245379   0.297   6.069   3.335  0.2173  0.1061 -0.7078
 7963TIP3    H145380   0.251   6.022   3.405  3.7903 -2.2216  0.3703
 7963TIP3    H245381   0.296   6.161   3.362 -0.2515 -0.4586  1.3480
 7964TIP3   OH245382   3.237   5.753  15.469 -0.6946  0.9200  0.0310
 7964TIP3    H145383   3.209   5.841  15.494  0.3349  1.4878 -0.7329
 7964TIP3    H245384   3.273   5.763  15.380 -1.4562 -0.4544 -0.4711
 7965TIP3   OH245385   1.802   4.633  14.760  0.3409 -0.2015 -0.3200
 7965TIP3    H145386   1.712   4.631  14.727  0.5470 -1.2049 -0.8459
 7965TIP3    H245387   1.792   4.626  14.855 -0.1991  1.6060 -0.1875
 7966TIP3   OH245388   5.787   2.431  12.970 -0.7751  0.1868  0.2830
 7966TIP3    H145389   5.741   2.362  12.922  0.2243  0.2691 -0.8243
 7966TIP3    H245390   5.747   2.430  13.057  0.8194 -3.4825  1.1780
 7967TIP3   OH245391   6.598   4.607   6.123 -0.8080 -0.0237  0.2866
 7967TIP3    H145392   6.692   4.606   6.105 -0.8075  0.0456  0.2833
 7967TIP3    H245393   6.583   4.531   6.179 -1.2603 -1.9589 -2.2762
 7968TIP3   OH245394   4.848   5.823  12.278 -0.4709  0.0839  0.4688
 7968TIP3    H145395   4.787   5.814  12.351  0.7603 -0.4777  1.4654
 7968TIP3    H245396   4.920   5.876  12.314  0.2580 -0.3975 -0.2529
 7969TIP3   OH245397   4.701   1.955   0.093  0.2869  0.2285 -0.1303
 7969TIP3    H145398   4.660   1.926   0.012 -0.3748  0.9352 -0.0680
 7969TIP3    H245399   4.695   2.051   0.090  0.2271  0.2649  0.7532
 7970TIP3   OH245400   3.639   0.262   5.449  0.0590 -0.0164 -0.6894
 7970TIP3    H145401   3.567   0.223   5.499  0.7938 -1.6853 -0.8544
 7970TIP3    H245402   3.606   0.348   5.423 -1.0797  0.1088  0.9893
 7971TIP3   OH245403   3.622   5.912   1.331 -0.0742  0.2759  0.0116
 7971TIP3    H145404   3.624   5.966   1.252  1.1719 -2.0132 -1.6798
 7971TIP3    H245405   3.700   5.937   1.380  0.4830  0.0496 -0.7458
 7972TIP3   OH245406   1.002   1.046  12.371  0.1592  0.5265  0.4803
 7972TIP3    H145407   1.090   1.077  12.349  0.4404  0.4439  1.4646
 7972TIP3    H245408   0.967   1.014  12.288  1.9105 -1.5582  0.4572
 7973TIP3   OH245409   2.655   4.139  11.422 -0.1654  0.5440  0.3455
 7973TIP3    H145410   2.696   4.078  11.361  0.1193 -0.5875  1.6417
 7973TIP3    H245411   2.664   4.224  11.378  1.9096  0.0877 -0.2680
 7974TIP3   OH245412   0.047   2.063   0.664 -0.0640  0.3592 -0.6142
 7974TIP3    H145413   0.030   2.091   0.754  1.6812 -2.2727  0.6628
 7974TIP3    H245414  -0.008   1.985   0.653  1.3652 -0.6319 -0.9866
 7975TIP3   OH245415   1.998   3.705   3.577  0.2096 -0.5060 -0.0725
 7975TIP3    H145416   1.920   3.750   3.610  0.4942  2.1171 -2.5383
 7975TIP3    H245417   2.044   3.772   3.526  3.1028 -2.4865 -0.2984
 7976TIP3   OH245418   4.608   5.783  13.292 -0.1207  0.3940  0.0409
 7976TIP3    H145419   4.515   5.767  13.282  0.0300 -1.4429  1.0350
 7976TIP3    H245420   4.638   5.807  13.204 -1.7786  2.8422  0.0589
 7977TIP3   OH245421   0.762   4.690  10.970 -0.3621  0.1157 -0.1771
 7977TIP3    H145422   0.713   4.717  11.048  1.2873  2.0885  0.2405
 7977TIP3    H245423   0.716   4.612  10.939 -2.2801  0.4710  1.5786
 7978TIP3   OH245424   1.863   2.505   6.346 -0.0671  0.0324 -0.3201
 7978TIP3    H145425   1.933   2.542   6.292  1.2410 -0.9840  0.6256
 7978TIP3    H245426   1.855   2.415   6.317  1.1829 -0.7637  1.6047
 7979TIP3   OH245427   6.612   1.230   2.092  0.1550 -0.0357 -0.0727
 7979TIP3    H145428   6.603   1.149   2.042  1.3824 -0.7440  0.7855
 7979TIP3    H245429   6.527   1.273   2.084 -0.7821 -1.7740  0.0880
 7980TIP3   OH245430   2.129   1.564  13.864 -0.3988 -0.1996 -0.6619
 7980TIP3    H145431   2.146   1.603  13.778  2.7240 -4.2962 -2.2878
 7980TIP3    H245432   2.076   1.487  13.845 -0.4192 -0.7010  1.2362
 7981TIP3   OH245433   4.270   5.402  15.132  0.2055 -0.2568  0.1966
 7981TIP3    H145434   4.212   5.444  15.196 -0.1610  0.6630 -0.7166
 7981TIP3    H245435   4.352   5.388  15.179 -0.3630 -0.4864  1.1516
 7982TIP3   OH245436   6.508   5.544  15.841 -0.2550  0.4363 -0.2548
 7982TIP3    H145437   6.544   5.565  15.928  0.6859 -1.4151 -0.1408
 7982TIP3    H245438   6.565   5.591  15.780  2.6456 -2.4796 -0.0771
 7983TIP3   OH245439   5.606   4.975   0.336 -0.3353  0.1624 -0.1042
 7983TIP3    H145440   5.546   5.005   0.404  0.8551  1.2808  0.4953
 7983TIP3    H245441   5.682   5.033   0.343 -0.3300  0.5870 -2.6408
 7984TIP3   OH245442   1.286   2.129  13.437 -0.2712 -0.6495  0.1512
 7984TIP3    H145443   1.293   2.224  13.433 -2.5207 -0.4382 -0.5638
 7984TIP3    H245444   1.372   2.097  13.411  0.7548  1.1760  1.1525
 7985TIP3   OH245445   2.543   3.511  16.086 -0.3479 -0.1196  0.3222
 7985TIP3    H145446   2.484   3.438  16.070 -2.6559  1.0938  2.5717
 7985TIP3    H245447   2.503   3.585  16.041  1.2908  0.0914 -0.8785
 7986TIP3   OH245448   1.122   3.328  14.898  0.5961  0.9454  0.5792
 7986TIP3    H145449   1.128   3.415  14.859  0.8038  2.1795  3.1527
 7986TIP3    H245450   1.041   3.291  14.864  0.9713  1.7426 -1.2800
 7987TIP3   OH245451   3.576   0.088   1.877  0.0389 -0.2313  0.5251
 7987TIP3    H145452   3.531   0.003   1.872  0.0979 -0.3660  1.9112
 7987TIP3    H245453   3.581   0.118   1.786  0.5558 -1.9879 -0.0664
 7988TIP3   OH245454   2.996   1.196  14.153  0.1370 -0.3394  0.1010
 7988TIP3    H145455   2.940   1.120  14.139 -1.4675  0.6639  0.8181
 7988TIP3    H245456   3.042   1.177  14.235 -1.5234  0.1502  1.1890
 7989TIP3   OH245457   5.391   3.849   6.078 -0.1322  0.2736 -0.2417
 7989TIP3    H145458   5.370   3.801   5.998  0.7970 -1.2986  0.3916
 7989TIP3    H245459   5.477   3.888   6.060  0.4212 -0.6853  0.1866
 7990TIP3   OH245460   0.523   6.230  16.316 -0.1409 -0.3624 -0.0100
 7990TIP3    H145461   0.506   6.308  16.263 -1.5489  0.0187  0.9438
 7990TIP3    H245462   0.619   6.222  16.317  0.1079  1.9974  0.7623
 7991TIP3   OH245463   3.829   5.820  12.531 -0.2269 -0.0433 -0.1120
 7991TIP3    H145464   3.800   5.735  12.499 -2.2871 -0.3643  2.2946
 7991TIP3    H245465   3.752   5.876  12.526 -0.4150  0.1803  2.9526
 7992TIP3   OH245466   1.802   4.153  10.580 -0.2678 -0.0866  0.0104
 7992TIP3    H145467   1.872   4.127  10.520  0.4707 -0.0154  0.8223
 7992TIP3    H245468   1.845   4.207  10.646 -0.8867 -0.9350  1.1444
 7993TIP3   OH245469   0.203   3.544   3.677 -0.4089  1.0039 -0.0543
 7993TIP3    H145470   0.141   3.540   3.750 -0.4919 -0.6718 -0.1760
 7993TIP3    H245471   0.282   3.581   3.715 -0.1318 -0.7487  1.1678
 7994TIP3   OH245472   3.836   3.514   0.672  0.4454 -0.4011  0.1583
 7994TIP3    H145473   3.844   3.517   0.767  0.1537 -0.0368  0.1692
 7994TIP3    H245474   3.746   3.486   0.655  0.5570 -0.6726 -0.0135
 7995TIP3   OH245475   5.457   3.979   5.593  0.2181 -0.3275 -0.3224
 7995TIP3    H145476   5.370   3.957   5.625  1.7825 -0.7302  4.4473
 7995TIP3    H245477   5.471   4.069   5.620  1.1637 -0.1047 -1.4443
 7996TIP3   OH245478   3.185   2.764  16.362  0.2161 -0.1993  0.1687
 7996TIP3    H145479   3.225   2.681  16.337  1.0315  0.5027 -0.9385
 7996TIP3    H245480   3.146   2.797  16.281 -2.0835 -0.5294  1.0487
 7997TIP3   OH245481   0.723   2.796  11.791 -0.0624 -0.0510 -0.4337
 7997TIP3    H145482   0.783   2.868  11.771 -1.9593  1.3272 -1.4947
 7997TIP3    H245483   0.694   2.813  11.880  0.7867 -0.4821 -0.0716
 7998TIP3   OH245484   2.158   2.987  14.290  0.0682  0.0429 -0.2384
 7998TIP3    H145485   2.131   2.943  14.371 -1.1227 -3.3055 -2.2535
 7998TIP3    H245486   2.253   2.992  14.295 -0.0608  1.4459  2.0069
 7999TIP3   OH245487   6.751   6.589  12.018 -0.1847 -0.3312  0.2563
 7999TIP3    H145488   6.728   6.642  12.095  0.7750  0.4891  0.0001
 7999TIP3    H245489   6.818   6.529  12.048 -0.6381 -0.8108  0.3283
 8000TIP3   OH245490   6.184   0.960   1.148  0.1874 -0.3076  0.0108
 8000TIP3    H145491   6.216   0.907   1.221 -0.2971 -0.7999 -0.1272
 8000TIP3    H245492   6.168   0.897   1.077 -0.2226  0.0421 -0.2168
 8001TIP3   OH245493   4.207   5.521   3.962 -0.1179  0.5373 -0.3004
 8001TIP3    H145494   4.130   5.578   3.953  0.6269  1.4010 -1.4181
 8001TIP3    H245495   4.173   5.433   3.947 -1.2213  0.6878  1.0494
 8002TIP3   OH245496   1.726   1.044   4.176 -0.4340 -0.2401  0.1893
 8002TIP3    H145497   1.805   1.013   4.220 -0.2704 -2.2064 -1.3292
 8002TIP3    H245498   1.754   1.057   4.085 -1.2658  1.6138  0.1625
 8003TIP3   OH245499   1.540   2.916  10.985 -0.0651  0.0816  0.0876
 8003TIP3    H145500   1.587   2.993  11.016  0.6891 -0.3706  0.1065
 8003TIP3    H245501   1.528   2.931  10.891 -1.2073  0.8678  0.3452
 8004TIP3   OH245502   0.224   1.890  15.845  0.3882  0.2618 -0.4541
 8004TIP3    H145503   0.225   1.795  15.860  1.5079  0.4192  0.6857
 8004TIP3    H245504   0.157   1.903  15.779 -2.4842 -0.9547  1.9780
 8005TIP3   OH245505   2.216   1.617  15.010 -0.4259 -0.2151  0.6268
 8005TIP3    H145506   2.240   1.633  15.101  2.4256  0.2656 -0.1181
 8005TIP3    H245507   2.233   1.524  14.996  2.3747  0.3325 -0.1845
 8006TIP3   OH245508   1.473   0.248   5.713  0.1400  0.0296  0.2507
 8006TIP3    H145509   1.403   0.282   5.768  0.7433  0.7619  0.5814
 8006TIP3    H245510   1.552   0.253   5.767  0.5998 -0.0034 -0.3921
 8007TIP3   OH245511   6.005   5.326   1.976 -0.3331 -0.0913  0.9812
 8007TIP3    H145512   5.955   5.283   1.906 -1.0269 -0.7160  1.8475
 8007TIP3    H245513   6.095   5.328   1.942 -0.6609 -0.3358  0.0454
 8008TIP3   OH245514   4.386   6.568   3.612 -0.1778 -0.0885  0.0406
 8008TIP3    H145515   4.405   6.616   3.692  2.6313  1.5249 -1.4265
 8008TIP3    H245516   4.424   6.482   3.625 -1.9430 -0.7318  1.2928
 8009TIP3   OH245517   0.813   0.368  14.294 -0.0620  0.1020 -0.2835
 8009TIP3    H145518   0.822   0.338  14.204  1.2167  0.7040 -0.3833
 8009TIP3    H245519   0.721   0.355  14.315  0.1632 -2.9302 -0.6547
 8010TIP3   OH245520   3.494   5.687   0.844 -0.2367 -0.1478  0.3154
 8010TIP3    H145521   3.566   5.633   0.814 -1.1715 -0.6786 -1.1041
 8010TIP3    H245522   3.460   5.729   0.765  0.0418  2.0468  1.2649
 8011TIP3   OH245523   6.744   1.441  10.841  0.3874 -0.2007 -0.1277
 8011TIP3    H145524   6.664   1.494  10.837  0.1171 -0.5023  0.9643
 8011TIP3    H245525   6.758   1.413  10.750 -1.5619 -1.3216 -0.1449
 8012TIP3   OH245526   1.641   1.134  15.370 -0.1729 -0.5071  0.3747
 8012TIP3    H145527   1.593   1.105  15.293 -1.0178 -0.8120  1.0042
 8012TIP3    H245528   1.724   1.167  15.336 -0.9955  0.4416 -0.7802
 8013TIP3   OH245529   2.394   0.438  14.627 -1.0154 -0.3225 -0.0673
 8013TIP3    H145530   2.442   0.356  14.624 -0.3954  0.0216  0.3294
 8013TIP3    H245531   2.384   0.457  14.720 -0.2837  0.5479 -0.1531
 8014TIP3   OH245532   6.037   5.205  11.631 -0.2440 -0.1585 -0.2170
 8014TIP3    H145533   6.055   5.128  11.685  0.2532  0.8683  1.1337
 8014TIP3    H245534   6.124   5.233  11.601 -0.5499 -1.0705 -2.1369
 8015TIP3   OH245535   2.309   1.792   2.083 -0.0338 -0.0904  0.1223
 8015TIP3    H145536   2.378   1.741   2.040 -0.3985  0.0316 -0.6111
 8015TIP3    H245537   2.248   1.814   2.013 -0.5260  0.2921  0.6664
 8016TIP3   OH245538   6.251   2.143   3.647  0.1958  0.2832  0.4409
 8016TIP3    H145539   6.179   2.080   3.649  0.6188 -0.1848  1.3497
 8016TIP3    H245540   6.328   2.093   3.675  0.5532  1.1837  1.1077
 8017TIP3   OH245541   6.208   1.347   4.023 -0.1946 -0.0610  0.2788
 8017TIP3    H145542   6.294   1.368   4.059  0.5302 -1.7464 -0.3442
 8017TIP3    H245543   6.226   1.318   3.934 -1.0666 -2.8942  0.9369
 8018TIP3   OH245544   5.727   1.227   6.227 -0.2935  0.4603 -0.7015
 8018TIP3    H145545   5.681   1.169   6.287 -1.6409  1.2319 -0.9501
 8018TIP3    H245546   5.709   1.315   6.260  1.6924  0.7797 -0.3396
 8019TIP3   OH245547   6.074   1.566   5.306 -0.3366 -0.7833 -0.0771
 8019TIP3    H145548   6.098   1.513   5.382 -1.6128 -1.0392  0.1694
 8019TIP3    H245549   6.158   1.588   5.264  0.4207 -0.3180  1.6008
 8020TIP3   OH245550   2.938   5.184  13.571 -0.3313 -0.2577 -0.4489
 8020TIP3    H145551   2.920   5.118  13.503  1.0802  0.5777 -1.7039
 8020TIP3    H245552   2.894   5.263  13.540  0.8956  0.3166 -0.7857
 8021TIP3   OH245553   6.080   0.047  10.237  0.2167 -0.1778  0.1580
 8021TIP3    H145554   6.089   0.143  10.236 -0.9057 -0.0638 -0.2673
 8021TIP3    H245555   5.990   0.032  10.265 -0.2755 -1.0394 -1.7462
 8022TIP3   OH245556   4.613   4.275   0.629  0.2037  0.1191 -0.0182
 8022TIP3    H145557   4.690   4.217   0.635 -1.4318 -2.3388 -1.1327
 8022TIP3    H245558   4.580   4.280   0.718 -0.9079 -2.6958 -0.1601
 8023TIP3   OH245559   5.250   2.807  11.534  0.2571 -0.1350  0.0614
 8023TIP3    H145560   5.253   2.761  11.450  0.7258  0.7139 -0.4007
 8023TIP3    H245561   5.296   2.749  11.594  0.3135 -0.5490 -0.3712
 8024TIP3   OH245562   5.096   2.577   0.428 -0.7045  0.5091  0.3816
 8024TIP3    H145563   5.017   2.541   0.470  0.7460 -0.7847  2.1465
 8024TIP3    H245564   5.087   2.551   0.336 -1.3305 -1.5350  0.9559
 8025TIP3   OH245565   4.474   0.518   1.246 -0.5862 -0.4782  0.2031
 8025TIP3    H145566   4.510   0.472   1.170 -1.1626 -1.4386  0.4875
 8025TIP3    H245567   4.506   0.468   1.321 -0.3089  0.2571  0.5798
 8026TIP3   OH245568   4.136   4.466  13.293  0.1960  0.3684  0.4107
 8026TIP3    H145569   4.164   4.377  13.316  0.9740  1.0127  2.0587
 8026TIP3    H245570   4.057   4.481  13.345  0.0878  0.6701  0.1669
 8027TIP3   OH245571   3.301   4.012   3.383  0.3211  1.1999  0.5535
 8027TIP3    H145572   3.303   4.022   3.478 -0.9685 -0.9068  0.8596
 8027TIP3    H245573   3.211   4.032   3.358 -0.5529 -2.3116  0.4058
 8028TIP3   OH245574   6.445   5.573  16.719 -0.3861 -0.0224  0.0187
 8028TIP3    H145575   6.414   5.575  16.628  1.6432  2.0224 -0.7287
 8028TIP3    H245576   6.512   5.642  16.723  0.2040 -0.6323  2.8642
 8029TIP3   OH245577   3.858   4.395   1.503  0.6056  0.8039  0.5853
 8029TIP3    H145578   3.763   4.389   1.512  0.6062 -0.5484 -0.1920
 8029TIP3    H245579   3.891   4.316   1.544  1.1908 -0.3048 -1.8699
 8030TIP3   OH245580   5.594   2.912   2.293  0.3463 -0.0537 -0.3153
 8030TIP3    H145581   5.612   2.956   2.376  1.1673  1.5951 -1.3122
 8030TIP3    H245582   5.676   2.868   2.271  0.6725  0.8728 -1.0184
 8031TIP3   OH245583   2.079   3.850   1.158 -0.0773  0.3699  0.1691
 8031TIP3    H145584   2.150   3.906   1.128 -0.7453  1.0142 -0.2369
 8031TIP3    H245585   2.111   3.813   1.241  1.3498 -0.5932 -0.7691
 8032TIP3   OH245586   0.527   6.169   3.865 -0.5894 -0.2106 -0.2700
 8032TIP3    H145587   0.528   6.098   3.929 -2.5548 -0.1823 -0.1381
 8032TIP3    H245588   0.581   6.137   3.793 -0.1294 -1.1496  0.4666
 8033TIP3   OH245589   1.604   1.984  11.659 -0.1054 -0.6024 -0.7605
 8033TIP3    H145590   1.539   2.054  11.653  1.5337  1.1217  0.3738
 8033TIP3    H245591   1.687   2.030  11.671  0.8707 -2.7435  1.5468
 8034TIP3   OH245592   5.650   3.394  12.957 -0.5018 -0.5073 -0.2543
 8034TIP3    H145593   5.573   3.339  12.951 -0.3505 -0.6756 -0.6721
 8034TIP3    H245594   5.639   3.459  12.887 -0.2745 -0.5191 -0.3021
 8035TIP3   OH245595   2.643   5.725   4.048  0.2149  0.4387 -0.5872
 8035TIP3    H145596   2.709   5.781   4.008 -1.9525  3.3530 -0.4445
 8035TIP3    H245597   2.658   5.639   4.009  2.8198  1.4080 -1.9941
 8036TIP3   OH245598   1.807   0.061   1.421 -0.4635 -0.2031  0.2360
 8036TIP3    H145599   1.839  -0.003   1.358  0.1390 -0.2000  0.5216
 8036TIP3    H245600   1.739   0.109   1.375  0.5562  0.3754 -0.7113
 8037TIP3   OH245601   1.620   2.933  16.037  0.0562 -0.1238  0.5636
 8037TIP3    H145602   1.677   2.880  15.983 -1.8838 -1.3903 -0.3462
 8037TIP3    H245603   1.592   3.005  15.980  0.7673  0.5393  1.0288
 8038TIP3   OH245604   6.556   0.090   1.923 -1.2767  0.5184  0.3188
 8038TIP3    H145605   6.619   0.153   1.958 -2.1341  1.1257  0.8163
 8038TIP3    H245606   6.475   0.109   1.971 -1.6264 -0.7722  0.2624
 8039TIP3   OH245607   1.404   6.270   3.831  0.0691 -0.1474 -0.2325
 8039TIP3    H145608   1.349   6.274   3.909 -2.0377 -1.9884 -1.5103
 8039TIP3    H245609   1.356   6.323   3.766  0.3763 -0.8445 -1.0426
 8040TIP3   OH245610   4.687   1.473  10.700 -0.9117  0.8163 -0.6127
 8040TIP3    H145611   4.774   1.505  10.722 -0.6789 -0.6345  0.7919
 8040TIP3    H245612   4.698   1.429  10.616 -0.5741  1.6901 -1.0339
 8041TIP3   OH245613   2.515   4.748   1.120  0.8136  0.2460 -0.1453
 8041TIP3    H145614   2.574   4.788   1.057  0.9417 -1.4308 -1.1490
 8041TIP3    H245615   2.428   4.779   1.094  0.6064 -1.9587 -2.5141
 8042TIP3   OH245616   3.983   6.761   3.564 -0.4785 -0.3567  0.1235
 8042TIP3    H145617   3.918   6.815   3.520 -0.7342 -0.1145  0.7828
 8042TIP3    H245618   3.967   6.672   3.532 -0.7490 -0.2048 -0.1636
 8043TIP3   OH245619   2.153   6.669  11.889  0.1431 -0.3003  0.1565
 8043TIP3    H145620   2.243   6.700  11.895 -0.5836  1.7128  2.1774
 8043TIP3    H245621   2.101   6.748  11.876 -1.3091 -1.5409 -2.4473
 8044TIP3   OH245622   1.607   2.452  12.991 -0.2612 -0.1298 -0.4219
 8044TIP3    H145623   1.637   2.367  12.959 -0.3886 -0.5078  0.4151
 8044TIP3    H245624   1.513   2.453  12.973 -0.6607 -1.0449  1.3539
 8045TIP3   OH245625   4.868   0.168  11.515  0.4292  0.0073 -0.4122
 8045TIP3    H145626   4.939   0.152  11.576  0.8833 -0.3527 -1.0191
 8045TIP3    H245627   4.821   0.085  11.511  0.8436 -0.2020 -1.1031
 8046TIP3   OH245628   5.406   5.590  12.010 -0.2935  0.3051 -0.1077
 8046TIP3    H145629   5.469   5.558  12.074 -1.1604 -0.3505  0.4437
 8046TIP3    H245630   5.321   5.576  12.051 -0.8559  0.1469 -1.2876
 8047TIP3   OH245631   2.720   1.034   4.725  0.7008  0.3137  0.5481
 8047TIP3    H145632   2.733   1.126   4.701  1.7026 -0.0866 -0.4774
 8047TIP3    H245633   2.630   1.031   4.758 -0.0221  1.3040 -1.2020
 8048TIP3   OH245634   2.980   2.359  12.284 -0.3147 -0.1566  0.9353
 8048TIP3    H145635   2.986   2.447  12.320  1.4368 -0.4158  1.3593
 8048TIP3    H245636   2.988   2.301  12.359 -0.4319 -0.6918  0.5432
 8049TIP3   OH245637   3.387   1.747   2.436 -0.1751 -0.2455  0.2640
 8049TIP3    H145638   3.374   1.819   2.375 -0.3275 -0.5917 -0.1215
 8049TIP3    H245639   3.359   1.781   2.521  0.8750  0.5347  0.3176
 8050TIP3   OH245640   4.782   2.002  14.280 -0.1822 -0.0707  0.3498
 8050TIP3    H145641   4.803   1.969  14.367  1.4411  0.7332  0.3067
 8050TIP3    H245642   4.843   1.955  14.222  0.1880  0.8829 -0.0621
 8051TIP3   OH245643   3.198   5.389  12.838  0.2994  0.1334 -0.0586
 8051TIP3    H145644   3.249   5.319  12.878  0.3872 -0.0777 -0.5394
 8051TIP3    H245645   3.157   5.349  12.761 -0.4808  0.3373  0.2425
 8052TIP3   OH245646   2.973   0.606   5.282 -0.3624  0.4193  0.7906
 8052TIP3    H145647   2.961   0.698   5.257  0.3597  0.5925  1.0502
 8052TIP3    H245648   3.068   0.592   5.275 -0.5873 -0.6578 -0.4143
 8053TIP3   OH245649   0.586   4.630  13.142 -0.0194  0.2057 -0.3455
 8053TIP3    H145650   0.619   4.690  13.075  1.1294  1.9777  1.6971
 8053TIP3    H245651   0.574   4.547  13.095  2.6786  0.7853 -2.3285
 8054TIP3   OH245652   0.747   6.159  15.663 -0.3722 -0.4526  0.0487
 8054TIP3    H145653   0.706   6.227  15.610 -0.2375  0.3819  0.9792
 8054TIP3    H245654   0.818   6.125  15.609 -0.5243  0.0637 -0.4792
 8055TIP3   OH245655   4.843   2.421   3.455 -0.6732  0.6961  0.4091
 8055TIP3    H145656   4.926   2.374   3.464 -1.4090 -0.7458  0.1349
 8055TIP3    H245657   4.800   2.408   3.540 -1.6226 -0.6791 -0.2446
 8056TIP3   OH245658   5.762   5.955  16.155 -0.0029  0.5938 -0.6625
 8056TIP3    H145659   5.681   6.001  16.177  0.9569  3.1839 -2.1243
 8056TIP3    H245660   5.773   5.968  16.061  1.5493 -0.6507 -0.6961
 8057TIP3   OH245661   5.655   5.283   1.229  0.3923 -0.6049 -0.0918
 8057TIP3    H145662   5.707   5.276   1.309 -0.3242 -1.2143  0.3414
 8057TIP3    H245663   5.611   5.368   1.235 -0.5709 -1.1390  0.7527
 8058TIP3   OH245664   5.486   5.762  12.995 -0.1966  0.6196  0.0991
 8058TIP3    H145665   5.469   5.772  13.089  1.1679  0.5541  0.3724
 8058TIP3    H245666   5.489   5.668  12.981 -0.0086  0.6303  0.0652
 8059TIP3   OH245667   6.639   0.342  11.255 -1.0734 -0.1511 -0.4645
 8059TIP3    H145668   6.695   0.393  11.314 -1.6260  0.7722 -0.7227
 8059TIP3    H245669   6.584   0.290  11.314  1.2764 -2.5528 -0.1836
 8060TIP3   OH245670   4.817   5.708  14.559 -0.0631  0.1025  0.6207
 8060TIP3    H145671   4.844   5.617  14.556 -1.0752 -0.3221  2.6116
 8060TIP3    H245672   4.896   5.757  14.583  0.9783  0.0966 -2.3293
 8061TIP3   OH245673   4.747   3.039  16.387 -0.0190 -0.5860 -1.4397
 8061TIP3    H145674   4.790   3.015  16.305  1.3797  1.2789 -1.3033
 8061TIP3    H245675   4.816   3.077  16.440 -1.1858 -0.5267  0.0926
 8062TIP3   OH245676   6.644   1.218  14.060 -0.1198  0.3310 -0.4748
 8062TIP3    H145677   6.655   1.312  14.044 -1.0346  0.6573  0.7142
 8062TIP3    H245678   6.670   1.206  14.151 -0.7107 -0.4389 -0.4020
 8063TIP3   OH245679   5.219   1.146  11.382  0.1009 -0.3070  0.0772
 8063TIP3    H145680   5.277   1.099  11.441 -1.0391 -1.0719  0.6319
 8063TIP3    H245681   5.132   1.113  11.402 -1.0698  3.2512  1.7144
 8064TIP3   OH245682   6.634   2.044   6.012 -0.1994 -0.1081 -0.4856
 8064TIP3    H145683   6.721   2.011   6.032 -0.2118  0.3289  0.3359
 8064TIP3    H245684   6.590   1.972   5.965  0.2455 -0.7119  0.0191
 8065TIP3   OH245685   2.509   1.530  15.038  0.8233  0.9931 -0.0594
 8065TIP3    H145686   2.469   1.596  15.095  0.9795  1.2701 -0.2666
 8065TIP3    H245687   2.603   1.542  15.049  0.8667  1.4880 -0.8573
 8066TIP3   OH245688   5.035   3.502   2.812 -0.0230  0.1540  0.1025
 8066TIP3    H145689   4.940   3.491   2.801 -0.1669  0.9925  0.4047
 8066TIP3    H245690   5.073   3.457   2.737 -0.6416 -0.5174  0.1746
 8067TIP3   OH245691   3.442   3.288  14.420 -0.0975  0.0108 -0.3057
 8067TIP3    H145692   3.425   3.376  14.385 -1.3164 -0.0327  0.1210
 8067TIP3    H245693   3.524   3.298  14.469  0.1404  0.7373 -0.8213
 8068TIP3   OH245694   2.275   2.207   6.423  0.1536  0.4684  0.1688
 8068TIP3    H145695   2.270   2.294   6.463  1.5593 -0.9345  3.8512
 8068TIP3    H245696   2.363   2.177   6.442 -1.2504 -3.0275  2.1944
 8069TIP3   OH245697   0.008   1.323   4.241  0.4578 -0.1895  0.0400
 8069TIP3    H145698  -0.011   1.387   4.310 -3.2064  0.4490 -1.3328
 8069TIP3    H245699  -0.017   1.368   4.160 -3.3806 -3.5085 -0.9302
 8070TIP3   OH245700   2.392   3.029   0.762  0.0108  0.2025 -0.3951
 8070TIP3    H145701   2.375   3.014   0.669 -1.2957  0.3062 -0.1904
 8070TIP3    H245702   2.421   3.120   0.766 -0.0154  0.2266 -0.6930
 8071TIP3   OH245703   5.850   0.858  14.152 -0.0455 -0.2915  0.1811
 8071TIP3    H145704   5.784   0.925  14.169  0.6383  0.6641 -0.7810
 8071TIP3    H245705   5.905   0.895  14.083 -0.4497 -2.4202 -1.4006
 8072TIP3   OH245706   0.016   6.587   0.167  0.3948  0.0822  0.3075
 8072TIP3    H145707  -0.047   6.623   0.230  0.5898  0.5452  0.2449
 8072TIP3    H245708  -0.007   6.629   0.084  1.0508  0.5794  0.3723
 8073TIP3   OH245709   5.240   6.466  14.402  0.1053  0.2499  0.0118
 8073TIP3    H145710   5.178   6.452  14.331 -0.3042  3.9244 -0.5439
 8073TIP3    H245711   5.186   6.491  14.477  0.7675  1.5420  0.0853
 8074TIP3   OH245712   3.884   3.969  14.830 -0.2386 -0.3576 -0.6235
 8074TIP3    H145713   3.969   3.927  14.844 -0.2763 -0.6838 -1.3501
 8074TIP3    H245714   3.890   4.052  14.876  0.3057 -0.5895 -0.2721
 8075TIP3   OH245715   4.761   4.247   3.256 -0.0985 -0.3757 -0.1109
 8075TIP3    H145716   4.746   4.157   3.287  0.3221 -0.8312 -1.1667
 8075TIP3    H245717   4.828   4.237   3.188  0.3952  0.8202  0.1885
 8076TIP3   OH245718   2.670   0.248  12.309  0.0358  0.4233 -0.4236
 8076TIP3    H145719   2.682   0.154  12.297  1.5412  0.5774 -0.3578
 8076TIP3    H245720   2.688   0.263  12.402 -1.6434  0.5975 -0.0962
 8077TIP3   OH245721   0.553   2.377   2.866  0.2426  0.4380  1.1528
 8077TIP3    H145722   0.574   2.362   2.958 -0.3517 -0.2248  1.1904
 8077TIP3    H245723   0.472   2.329   2.852  1.1891 -0.8652 -0.1392
 8078TIP3   OH245724   6.186   1.340  12.853 -0.3331 -0.1801 -0.0991
 8078TIP3    H145725   6.144   1.393  12.785 -0.9817 -0.1247  0.3374
 8078TIP3    H245726   6.117   1.324  12.917 -0.2361 -1.8268 -0.3681
 8079TIP3   OH245727   3.724   5.785   2.415  0.0605  0.0109 -0.5959
 8079TIP3    H145728   3.808   5.753   2.449 -0.9228 -2.9393 -0.5925
 8079TIP3    H245729   3.704   5.725   2.342 -1.7982  0.9762 -0.9456
 8080TIP3   OH245730   5.879   0.496   0.034  0.3384  0.1711  0.4565
 8080TIP3    H145731   5.918   0.565  -0.020 -0.7121  1.0188  0.7275
 8080TIP3    H245732   5.953   0.448   0.069  1.0827  0.7144 -0.3254
 8081TIP3   OH245733   6.757   3.172   4.980 -0.2759 -0.3542 -0.0220
 8081TIP3    H145734   6.669   3.140   4.963 -0.5823  1.6184 -2.7839
 8081TIP3    H245735   6.746   3.237   5.049 -0.6818 -1.3001  0.8262
 8082TIP3   OH245736   3.925   3.579   2.381 -0.1364 -0.4766  0.3181
 8082TIP3    H145737   3.923   3.544   2.470 -0.5081 -0.4571  0.3165
 8082TIP3    H245738   3.882   3.664   2.387  0.0777 -0.3552  0.1699
 8083TIP3   OH245739   0.077   4.422  14.976 -0.3329 -0.2793 -0.1467
 8083TIP3    H145740   0.101   4.343  15.024 -1.8049 -1.4873 -1.3142
 8083TIP3    H245741   0.071   4.490  15.044  0.4621 -1.2584  0.9514
 8084TIP3   OH245742   2.151   2.005   4.307  0.1792 -0.3950  0.7132
 8084TIP3    H145743   2.144   1.910   4.314  0.0618 -0.3424  1.4640
 8084TIP3    H245744   2.244   2.023   4.317  0.5965 -0.5911 -2.0483
 8085TIP3   OH245745   4.908   1.776   2.564  0.3119 -0.1421  0.0325
 8085TIP3    H145746   4.861   1.720   2.626  1.9987 -0.6518  0.9033
 8085TIP3    H245747   4.944   1.847   2.617 -0.5420  0.9906 -0.8342
 8086TIP3   OH245748   1.720   3.665  11.877 -0.0353  0.4966  0.0726
 8086TIP3    H145749   1.644   3.690  11.824 -0.0410  0.2000 -0.0603
 8086TIP3    H245750   1.691   3.676  11.967 -0.5228 -0.4330  0.0386
 8087TIP3   OH245751   3.769   1.126  14.609 -0.6255  0.3925  0.6725
 8087TIP3    H145752   3.772   1.221  14.603 -0.2979  0.3519  0.1603
 8087TIP3    H245753   3.675   1.105  14.613 -0.8892  0.5693 -2.4453
 8088TIP3   OH245754   0.803   6.004  11.825  0.0122 -0.1050  0.0875
 8088TIP3    H145755   0.830   5.982  11.915  1.6144  2.8164  0.4574
 8088TIP3    H245756   0.878   5.977  11.771 -0.1220 -0.1243 -0.0875
 8089TIP3   OH245757   1.022   3.579  10.957 -0.5798 -0.2820  0.0271
 8089TIP3    H145758   0.937   3.549  10.989 -0.3626 -0.8007  0.1187
 8089TIP3    H245759   1.085   3.514  10.988 -0.3307 -0.7112 -1.3028
 8090TIP3   OH245760   0.753   0.844   4.361  0.2265  0.1296 -0.6827
 8090TIP3    H145761   0.841   0.831   4.398  0.2544  0.7393 -0.5261
 8090TIP3    H245762   0.716   0.916   4.412 -0.3902 -0.1545 -0.7110
 8091TIP3   OH245763   2.008   2.197  15.499 -0.0338 -0.3689  0.6694
 8091TIP3    H145764   1.968   2.214  15.585 -0.0937  1.4646  0.3266
 8091TIP3    H245765   2.098   2.171  15.520  0.3654  1.3825  1.2909
 8092TIP3   OH245766   0.757   3.338  16.264 -0.2291 -0.3677  0.1547
 8092TIP3    H145767   0.731   3.320  16.354  2.3862  0.5007  1.1819
 8092TIP3    H245768   0.837   3.288  16.251 -1.4662 -1.8818 -2.3579
 8093TIP3   OH245769   3.651   5.236  14.368 -0.0010  0.2551  0.3011
 8093TIP3    H145770   3.626   5.170  14.433 -0.0273  0.5818  0.6235
 8093TIP3    H245771   3.603   5.315  14.393  0.0985  0.4253 -0.0325
 8094TIP3   OH245772   4.518   5.979   0.682 -0.0599  0.5115  0.0005
 8094TIP3    H145773   4.543   6.070   0.693 -0.6770  0.7262 -0.2931
 8094TIP3    H245774   4.422   5.981   0.674 -0.3890 -0.4335  2.7799
 8095TIP3   OH245775   0.981   0.384   1.255 -0.0479 -0.2069 -0.0630
 8095TIP3    H145776   1.043   0.320   1.290 -0.1711 -0.3491 -0.1034
 8095TIP3    H245777   0.939   0.421   1.333 -0.3100 -0.5121 -0.0554
 8096TIP3   OH245778   6.035   5.872   5.714 -0.5172 -0.6883 -0.4033
 8096TIP3    H145779   5.955   5.822   5.728 -0.1283 -0.7548  2.1552
 8096TIP3    H245780   6.078   5.828   5.641 -2.4177 -1.1177 -1.3283
 8097TIP3   OH245781   5.817   4.439  15.219 -0.0427 -0.1553  0.7870
 8097TIP3    H145782   5.815   4.406  15.129  1.1641  0.6991  0.4137
 8097TIP3    H245783   5.815   4.534  15.210 -0.0285 -0.0588  1.6701
 8098TIP3   OH245784   2.814   5.013  17.079 -0.4202 -0.1892 -0.5206
 8098TIP3    H145785   2.809   5.015  16.984 -0.9732 -2.1337 -0.5733
 8098TIP3    H245786   2.814   4.920  17.102 -3.4179  0.1644  1.5031
 8099TIP3   OH245787   3.326   4.239  16.358 -0.2510  0.5345 -0.1177
 8099TIP3    H145788   3.275   4.183  16.299 -1.3555  0.3675  0.9406
 8099TIP3    H245789   3.321   4.326  16.318  0.6584  0.0725 -1.2668
 8100TIP3   OH245790   5.255   3.127   5.046 -0.4179  0.1515 -0.2973
 8100TIP3    H145791   5.323   3.194   5.059  0.4815 -1.0901  2.1072
 8100TIP3    H245792   5.265   3.101   4.955  1.1383  1.2691 -0.5023
 8101TIP3   OH245793   1.375   2.891   0.902 -0.4498  0.3796  0.2427
 8101TIP3    H145794   1.426   2.840   0.965  0.2729 -0.4424 -0.9735
 8101TIP3    H245795   1.303   2.833   0.876 -0.5761  0.6022  0.0914
 8102TIP3   OH245796   1.095   2.970   4.422  0.2982  0.3114  0.3662
 8102TIP3    H145797   1.126   2.984   4.511 -1.2268 -1.5820  1.2894
 8102TIP3    H245798   1.000   2.960   4.431  0.1865 -0.6046 -1.3637
 8103TIP3   OH245799   2.023   0.386   2.197 -0.2119  0.0960 -0.0594
 8103TIP3    H145800   2.051   0.326   2.267 -1.5988  0.8493  1.1956
 8103TIP3    H245801   2.089   0.375   2.128  2.2952  0.6089  2.0726
 8104TIP3   OH245802   6.020   4.086  11.801 -0.8519 -0.1345  0.5663
 8104TIP3    H145803   5.982   4.002  11.824 -1.8988  0.2275  0.2069
 8104TIP3    H245804   5.983   4.148  11.864 -0.8995  0.2299  0.1879
 8105TIP3   OH245805   0.048   2.864   3.939 -0.4827  0.8369 -0.1059
 8105TIP3    H145806  -0.041   2.892   3.919 -0.6321  1.4060  1.2547
 8105TIP3    H245807   0.094   2.945   3.960 -0.0778  0.3878  0.7786
 8106TIP3   OH245808   1.512   3.193  15.192  0.1533 -0.6938  0.0128
 8106TIP3    H145809   1.458   3.248  15.136 -0.0964  1.5635  2.2688
 8106TIP3    H245810   1.601   3.226  15.179  0.2335 -0.8571  0.1422
 8107TIP3   OH245811   2.518   2.360  16.698  0.0081  0.4571 -0.3569
 8107TIP3    H145812   2.434   2.401  16.720  0.8812  1.6541  0.8549
 8107TIP3    H245813   2.581   2.400  16.757  1.2707 -1.2243 -0.5022
 8108TIP3   OH245814   0.772   1.651   2.267  0.0790  0.5921  0.0507
 8108TIP3    H145815   0.855   1.642   2.220  0.2522  1.4051  0.1899
 8108TIP3    H245816   0.768   1.743   2.292 -0.5496  0.4161  0.6345
 8109TIP3   OH245817   5.381   1.182   2.079 -0.5008 -0.0019  0.2394
 8109TIP3    H145818   5.445   1.140   2.022 -0.3130 -1.0886  1.2061
 8109TIP3    H245819   5.381   1.128   2.159 -0.5722  1.5856  1.3684
 8110TIP3   OH245820   5.557   2.740   2.015  0.2762  0.3521 -0.0213
 8110TIP3    H145821   5.623   2.789   2.064  1.8592 -1.6230 -0.0757
 8110TIP3    H245822   5.531   2.669   2.074  0.2583 -0.5161 -1.0465
 8111TIP3   OH245823   4.395   5.524  15.813 -0.6694  0.0268 -0.2906
 8111TIP3    H145824   4.435   5.459  15.870  0.2021  1.6911  1.1216
 8111TIP3    H245825   4.314   5.550  15.857 -1.4041 -0.6137 -1.2259
 8112TIP3   OH245826   0.382   0.029  13.452 -0.2820 -0.0628 -0.0014
 8112TIP3    H145827   0.442   0.076  13.394 -1.7609 -0.0349 -1.6297
 8112TIP3    H245828   0.383  -0.061  13.419 -1.0268 -0.0834  0.0042
 8113TIP3   OH245829   1.381   1.719   5.160  0.2227  0.7934 -0.3198
 8113TIP3    H145830   1.292   1.748   5.140 -0.4674 -0.2833  1.0179
 8113TIP3    H245831   1.393   1.742   5.252  1.2571  0.7298 -0.4301
 8114TIP3   OH245832   3.968   6.387  10.302  0.1983  0.1763  0.6675
 8114TIP3    H145833   3.963   6.306  10.353  0.2074  0.3468  0.9368
 8114TIP3    H245834   3.932   6.454  10.359 -1.9443 -0.0127 -0.3841
 8115TIP3   OH245835   2.113   5.782  13.228  0.2870  0.1911 -0.2496
 8115TIP3    H145836   2.133   5.766  13.136  2.0084 -1.3890  0.3454
 8115TIP3    H245837   2.116   5.877  13.237  1.1778  0.3185 -1.5978
 8116TIP3   OH245838   0.984   3.090   3.683  0.4657 -0.0927 -0.3646
 8116TIP3    H145839   0.925   3.023   3.718  0.5392  0.0713  0.0696
 8116TIP3    H245840   0.969   3.167   3.737  2.1350 -0.4726  0.7190
 8117TIP3   OH245841   5.122   1.684  13.852 -0.0960 -0.3025  0.0892
 8117TIP3    H145842   5.113   1.733  13.770 -0.6899 -0.1563  0.2378
 8117TIP3    H245843   5.161   1.746  13.913 -1.8162  0.3502  0.5821
 8118TIP3   OH245844   5.090   1.040  13.845 -0.1445  0.7496  0.1970
 8118TIP3    H145845   5.061   0.949  13.832  0.3370  0.5563  0.4512
 8118TIP3    H245846   5.155   1.034  13.915  0.1735  1.2424 -0.0578
 8119TIP3   OH245847   6.367   1.325   2.091 -0.1707 -0.4733 -0.1512
 8119TIP3    H145848   6.305   1.253   2.088 -0.5258 -0.2060  0.5288
 8119TIP3    H245849   6.354   1.372   2.008 -0.0417 -1.0951 -0.5275
 8120TIP3   OH245850   3.640   5.784   4.600  0.7964 -0.3304  0.3167
 8120TIP3    H145851   3.722   5.817   4.638  3.1387 -2.6113 -2.2636
 8120TIP3    H245852   3.649   5.800   4.506 -2.1897  0.1266  0.0214
 8121TIP3   OH245853   4.006   0.980  15.009 -0.0574  0.0941 -0.2467
 8121TIP3    H145854   3.976   1.068  15.034  2.0013  1.6490 -2.6993
 8121TIP3    H245855   3.932   0.942  14.962 -0.7902  0.7098  0.3766
 8122TIP3   OH245856   3.932   6.490   4.646 -0.4281  0.1839  0.6180
 8122TIP3    H145857   3.892   6.518   4.564 -0.9644  0.7006  1.0453
 8122TIP3    H245858   3.981   6.411   4.623 -2.0497 -0.7408  0.1542
 8123TIP3   OH245859   2.448   1.762   1.564 -0.7660 -0.0114 -0.0904
 8123TIP3    H145860   2.452   1.856   1.581 -0.2014 -0.2193  1.0054
 8123TIP3    H245861   2.507   1.750   1.489 -1.6902  0.6323 -0.9630
 8124TIP3   OH245862   4.975   1.527  13.597 -0.2184  0.3928  0.1759
 8124TIP3    H145863   4.995   1.463  13.665 -1.6260 -2.1042 -1.6339
 8124TIP3    H245864   4.924   1.594  13.643 -1.6316 -1.4969  1.5089
 8125TIP3   OH245865   4.638   1.950   0.373 -0.6391  0.1189 -0.0488
 8125TIP3    H145866   4.621   1.966   0.280 -1.4092 -0.0819  0.0508
 8125TIP3    H245867   4.598   2.024   0.418 -1.2940 -0.3609  0.1874
 8126TIP3   OH245868   1.686   0.967  16.426 -0.0443 -0.3062  0.1432
 8126TIP3    H145869   1.616   0.982  16.363 -0.6787 -0.4930  0.7924
 8126TIP3    H245870   1.737   0.895  16.389 -0.3682 -0.3653 -0.1903
 8127TIP3   OH245871   3.210   2.008   4.763  0.4520  0.2733  0.6168
 8127TIP3    H145872   3.229   2.097   4.792 -1.2023  0.5341  1.0300
 8127TIP3    H245873   3.142   1.978   4.822 -1.2405 -0.0995 -1.3883
 8128TIP3   OH245874   3.362   5.001  15.367  0.3024  0.4530  0.0137
 8128TIP3    H145875   3.430   5.064  15.393  0.8205 -0.1410  0.1331
 8128TIP3    H245876   3.297   5.007  15.436 -0.5678  2.1568 -0.8706
 8129TIP3   OH245877   6.333   6.084  10.287  0.5698 -0.0355  0.1805
 8129TIP3    H145878   6.262   6.050  10.342  0.0673 -1.0492 -1.0434
 8129TIP3    H245879   6.345   6.017  10.219 -0.3154  2.0512 -2.2123
 8130TIP3   OH245880   2.777   0.693   4.875  0.2238  0.1741 -0.2425
 8130TIP3    H145881   2.788   0.685   4.970 -1.1145  1.1986  0.0329
 8130TIP3    H245882   2.783   0.604   4.842  0.3468 -0.2309  0.8458
 8131TIP3   OH245883   3.478   6.586  15.681 -0.0225 -0.0119  0.1842
 8131TIP3    H145884   3.498   6.523  15.752  3.8006  1.1097  0.3156
 8131TIP3    H245885   3.458   6.667  15.727 -1.2116 -0.1569 -0.0459
 8132TIP3   OH245886   4.010   2.618  13.680  0.0930 -0.7383  0.2550
 8132TIP3    H145887   4.078   2.678  13.712 -0.5779  0.2352 -0.0847
 8132TIP3    H245888   4.039   2.532  13.709  0.7118 -0.1730  1.4018
 8133TIP3   OH245889   5.211   6.204  14.804 -0.3387  0.0154 -0.2762
 8133TIP3    H145890   5.264   6.155  14.740 -0.2940  1.6302 -1.5344
 8133TIP3    H245891   5.123   6.202  14.768 -0.6012 -0.2823  0.3756
 8134TIP3   OH245892   1.334   4.518  12.976  0.6725 -0.2491  0.0703
 8134TIP3    H145893   1.353   4.612  12.975  0.9211 -0.2776  0.8189
 8134TIP3    H245894   1.415   4.478  13.008 -0.0557 -0.5276  1.7188
 8135TIP3   OH245895   5.011   6.748   1.730 -0.7004  0.7723 -0.0403
 8135TIP3    H145896   5.018   6.692   1.653  0.2473 -0.2210  0.7258
 8135TIP3    H245897   4.947   6.703   1.786  0.8677 -0.1956  1.0584
 8136TIP3   OH245898   5.644   4.627   6.594  0.3958  0.1895 -0.9471
 8136TIP3    H145899   5.642   4.703   6.652  0.8630 -0.0746 -0.5731
 8136TIP3    H245900   5.566   4.636   6.539 -0.5014  0.0381  0.2514
 8137TIP3   OH245901   2.695   4.647   2.000  0.3168 -0.1840 -0.3341
 8137TIP3    H145902   2.773   4.602   1.966  0.4743  0.7577 -1.2734
 8137TIP3    H245903   2.667   4.703   1.928  0.0409  1.1229  0.7606
 8138TIP3   OH245904   5.677   6.249   5.134 -0.4166 -0.4200 -0.4450
 8138TIP3    H145905   5.621   6.276   5.061 -2.2213  0.9368  1.3317
 8138TIP3    H245906   5.623   6.262   5.212  1.2175 -2.3942  1.1303
 8139TIP3   OH245907   1.646   0.064  14.436 -0.0731 -0.3877  0.1607
 8139TIP3    H145908   1.741   0.053  14.428 -0.2638 -1.7961 -0.3739
 8139TIP3    H245909   1.636   0.150  14.476  1.4810 -0.7288  1.4282
 8140TIP3   OH245910   1.716   6.846   4.116 -0.5942  0.2632  0.2586
 8140TIP3    H145911   1.706   6.763   4.163  0.2901  0.0924  0.1710
 8140TIP3    H245912   1.768   6.901   4.176  1.4704 -0.3171 -0.8833
 8141TIP3   OH245913   0.465   3.816   0.480 -0.2268  0.0003 -0.4397
 8141TIP3    H145914   0.529   3.873   0.522 -0.3274  0.7085 -1.2195
 8141TIP3    H245915   0.514   3.770   0.413 -0.0560 -1.1641  0.4616
 8142TIP3   OH245916   1.399   3.567   1.473 -0.3705  0.2930 -0.4397
 8142TIP3    H145917   1.433   3.571   1.562  0.3398  2.9031 -0.7490
 8142TIP3    H245918   1.307   3.595   1.481  0.0232  1.7236 -0.6207
 8143TIP3   OH245919   3.792   5.399   3.439 -0.5745  0.3066 -0.5552
 8143TIP3    H145920   3.802   5.483   3.484  1.4338  1.8451 -3.5470
 8143TIP3    H245921   3.870   5.350   3.462 -1.1073 -0.2287  0.1419
 8144TIP3   OH245922   5.316   5.104   4.935 -0.1192  0.4632  0.3835
 8144TIP3    H145923   5.403   5.073   4.961  0.7615  0.4251 -2.3054
 8144TIP3    H245924   5.269   5.024   4.910  0.1866  0.7526 -1.1644
 8145TIP3   OH245925   2.405   1.561   4.467  0.0877 -0.0133  0.1801
 8145TIP3    H145926   2.429   1.469   4.454 -2.0324 -0.2910 -2.8676
 8145TIP3    H245927   2.330   1.558   4.527 -0.5101 -0.3828 -0.5715
 8146TIP3   OH245928   6.602   5.569  16.282  0.1347  0.4576  0.5623
 8146TIP3    H145929   6.688   5.540  16.314  0.4753  1.0315  0.1803
 8146TIP3    H245930   6.546   5.492  16.290  1.1132 -0.4354 -0.7510
 8147TIP3   OH245931   6.149   0.295   1.453  0.0489  0.2991  0.8038
 8147TIP3    H145932   6.124   0.380   1.489  1.3506  1.0917 -0.0592
 8147TIP3    H245933   6.222   0.266   1.507  0.3439  0.2862  0.4095
 8148TIP3   OH245934   3.772   5.765  16.406 -0.0515  0.4079  0.1070
 8148TIP3    H145935   3.762   5.854  16.371 -1.2148  0.0192 -0.6319
 8148TIP3    H245936   3.864   5.743  16.390  0.2310  1.4548  0.2457
 8149TIP3   OH245937   6.394   0.409  15.938 -0.4521 -0.1544  0.4402
 8149TIP3    H145938   6.313   0.359  15.935  0.6580 -2.0558 -3.2348
 8149TIP3    H245939   6.458   0.350  15.978  0.2355 -0.7720 -1.4548
 8150TIP3   OH245940   1.920   3.577  12.720  0.0961 -0.6536 -0.2649
 8150TIP3    H145941   1.901   3.488  12.693  0.2459 -1.1478  1.1931
 8150TIP3    H245942   2.015   3.584  12.714 -0.0636  0.5016 -3.5314
 8151TIP3   OH245943   0.163   4.606   5.788 -0.1734 -0.3282  0.0855
 8151TIP3    H145944   0.191   4.669   5.855 -1.4184  0.4512 -0.0941
 8151TIP3    H245945   0.151   4.524   5.836  0.8862 -0.2887  0.4374
 8152TIP3   OH245946   5.786   2.246  15.924  0.5421 -0.1454 -0.1935
 8152TIP3    H145947   5.724   2.245  15.997  0.5024 -2.6251 -0.1700
 8152TIP3    H245948   5.870   2.221  15.962  0.9509  0.4358 -0.6925
 8153TIP3   OH245949   3.933   6.764  13.743  0.5835  0.2148  0.4994
 8153TIP3    H145950   3.959   6.700  13.808  0.1841 -0.2580  0.2077
 8153TIP3    H245951   3.928   6.714  13.661  0.3291  0.6299  0.2577
 8154TIP3   OH245952   6.570   2.604  12.181 -0.0954 -0.3030 -0.0420
 8154TIP3    H145953   6.522   2.680  12.215  0.0600 -0.0770 -0.3189
 8154TIP3    H245954   6.513   2.530  12.197 -0.7875  0.0375 -0.8881
 8155TIP3   OH245955   5.379   0.552  16.605  0.0298  0.5359  0.4214
 8155TIP3    H145956   5.294   0.550  16.648  0.3475 -0.9362  1.0525
 8155TIP3    H245957   5.440   0.582  16.672  0.1857  0.4147  0.3377
 8156TIP3   OH245958   2.905   4.085   3.248 -0.1437 -0.3911 -0.0988
 8156TIP3    H145959   2.954   4.097   3.330  0.7323 -1.3207 -0.4631
 8156TIP3    H245960   2.954   4.135   3.183 -0.5596 -0.0594 -0.1582
 8157TIP3   OH245961   3.793   4.802   6.032 -0.2044  0.0722  0.5692
 8157TIP3    H145962   3.738   4.814   5.955  1.4774 -2.6974 -1.2127
 8157TIP3    H245963   3.761   4.721   6.072  1.4592 -0.6906  0.4309
 8158TIP3   OH245964   4.650   0.303   0.588  0.0784 -0.1709  0.1564
 8158TIP3    H145965   4.607   0.219   0.600  1.2556 -0.6769  1.1786
 8158TIP3    H245966   4.588   0.368   0.622 -0.2734 -0.7787  0.6905
 8159TIP3   OH245967   3.028   3.994   5.751 -0.3584 -0.2206 -0.2177
 8159TIP3    H145968   3.005   4.054   5.822 -1.9799 -0.4732 -0.4888
 8159TIP3    H245969   3.017   4.046   5.671 -0.2467 -0.4443 -0.3814
 8160TIP3   OH245970   4.496   5.940   5.651 -0.2522 -0.2436  0.2877
 8160TIP3    H145971   4.537   5.961   5.735  0.6217 -1.4945  0.1855
 8160TIP3    H245972   4.531   6.005   5.591 -0.0054 -0.0450  0.6412
 8161TIP3   OH245973   1.333   2.227  12.028 -0.3392 -0.3918 -1.3023
 8161TIP3    H145974   1.424   2.198  12.039 -0.7889 -2.0219 -1.6498
 8161TIP3    H245975   1.306   2.191  11.944 -0.7108  1.7864 -2.1675
 8162TIP3   OH245976   0.920   2.959   3.990  0.1660  0.5791 -0.5318
 8162TIP3    H145977   0.933   2.977   4.084  1.8888 -1.2199 -0.3873
 8162TIP3    H245978   0.980   3.019   3.946  0.8632  0.0090 -0.3727
 8163TIP3   OH245979   3.735   5.633   1.351 -0.7993  0.4733 -0.2423
 8163TIP3    H145980   3.799   5.631   1.280  1.3302 -0.3644  1.5665
 8163TIP3    H245981   3.695   5.719   1.346 -0.1096  0.7256 -1.9282
 8164TIP3   OH245982   3.813   6.415   6.190 -0.4617 -0.2281  0.3068
 8164TIP3    H145983   3.909   6.417   6.193 -0.4668  1.4612  0.8878
 8164TIP3    H245984   3.789   6.338   6.242  0.5848  0.4210  1.8588
 8165TIP3   OH245985   1.630   4.747  17.040 -1.1974 -0.1350 -0.3662
 8165TIP3    H145986   1.663   4.810  17.104 -0.2207 -0.1324 -0.8569
 8165TIP3    H245987   1.708   4.713  16.997 -1.8305 -0.2054 -1.5022
 8166TIP3   OH245988   3.557   0.347   1.999 -0.5050  0.1063 -0.2196
 8166TIP3    H145989   3.650   0.368   1.991  0.2639 -1.8826  2.1657
 8166TIP3    H245990   3.547   0.267   1.946 -0.4348 -0.5983  0.7981
 8167TIP3   OH245991   2.575   5.313  16.097  0.4782 -0.1658  0.4060
 8167TIP3    H145992   2.517   5.387  16.080  1.0438  0.3281  0.5984
 8167TIP3    H245993   2.663   5.348  16.084  0.9522  0.0338  3.3834
 8168TIP3   OH245994   3.926   6.546  13.578  0.6875  0.2636  0.1160
 8168TIP3    H145995   3.872   6.471  13.603 -0.0785  1.1636  1.2903
 8168TIP3    H245996   4.012   6.527  13.616  1.3644 -1.3424 -2.0638
 8169TIP3   OH245997   4.599   0.078   6.605 -0.4927 -0.0624  0.3354
 8169TIP3    H145998   4.657   0.007   6.632  0.9608  1.3747  1.1145
 8169TIP3    H245999   4.637   0.156   6.644 -0.8343  1.4798 -2.2561
 8170TIP3   OH246000   0.923   0.934   6.389 -0.3894 -0.5874 -0.7344
 8170TIP3    H146001   0.849   0.880   6.415 -1.9515  0.7669 -2.1098
 8170TIP3    H246002   0.891   1.024   6.393  1.1415  0.0428 -1.4451
 8171TIP3   OH246003   0.518   5.240   1.073 -0.2544  0.0266 -0.7040
 8171TIP3    H146004   0.473   5.306   1.126  2.0477  1.4858 -0.3761
 8171TIP3    H246005   0.465   5.232   0.994 -0.6501  2.3127 -0.7476
 8172TIP3   OH246006   2.949   4.414  15.498 -0.0291 -0.0044  0.7829
 8172TIP3    H146007   2.973   4.340  15.442  1.4520 -0.1059  1.4956
 8172TIP3    H246008   2.855   4.404  15.512 -0.3319 -0.3208 -1.1519
 8173TIP3   OH246009   4.418   1.282  16.996  0.9009 -0.2660 -0.1487
 8173TIP3    H146010   4.402   1.375  17.010  2.0131  0.0920 -1.0536
 8173TIP3    H246011   4.343   1.252  16.945  0.3074  0.0171  0.5367
 8174TIP3   OH246012   4.729   2.425   3.213 -0.0715 -0.1337  0.1246
 8174TIP3    H146013   4.673   2.503   3.204 -1.4218 -1.0668  0.0543
 8174TIP3    H246014   4.774   2.436   3.296  0.5369  1.1917 -0.3542
 8175TIP3   OH246015   4.710   0.725   0.685  0.1686 -0.5458 -0.3075
 8175TIP3    H146016   4.677   0.656   0.742  1.2996  0.1031  1.1829
 8175TIP3    H246017   4.788   0.686   0.644  1.7317  0.2933  1.7250
 8176TIP3   OH246018   3.094   4.942  15.807  0.2118 -0.0123  0.4182
 8176TIP3    H146019   2.999   4.928  15.807 -0.0356  1.5464  0.3900
 8176TIP3    H246020   3.114   4.965  15.716  0.6682 -0.5447  0.3771
 8177TIP3   OH246021   5.992   5.789   6.310 -0.2402  0.3567 -0.3923
 8177TIP3    H146022   6.061   5.816   6.371  2.1919 -0.4433 -2.6405
 8177TIP3    H246023   5.977   5.866   6.255 -1.1794  0.5241  0.0833
 8178TIP3   OH246024   6.685   5.920  14.615  0.1942  0.3030  0.4172
 8178TIP3    H146025   6.781   5.915  14.618  0.3172  0.9461 -1.1575
 8178TIP3    H246026   6.667   6.011  14.592 -0.8698  0.5155  1.9883
 8179TIP3   OH246027   1.217   3.851  15.303 -0.2241 -0.6441 -1.0401
 8179TIP3    H146028   1.271   3.777  15.277 -0.6060 -1.2939 -0.0412
 8179TIP3    H246029   1.230   3.858  15.398  0.2557  0.9300 -1.1853
 8180TIP3   OH246030   5.049   5.680  11.968 -0.0872  0.3017  0.2987
 8180TIP3    H146031   5.082   5.595  12.000  1.4743  0.6194 -0.3729
 8180TIP3    H246032   4.954   5.674  11.979  0.0055 -1.4346  0.5159
 8181TIP3   OH246033   2.817   3.278   4.276 -0.2085  0.3500  0.2002
 8181TIP3    H146034   2.862   3.331   4.210 -0.0679 -1.2351 -1.0366
 8181TIP3    H246035   2.839   3.188   4.254 -0.4899 -0.2663  2.2099
 8182TIP3   OH246036   2.770   3.816   5.628  0.1169 -0.4921 -0.0207
 8182TIP3    H146037   2.715   3.887   5.662  0.7070  0.0135 -0.1013
 8182TIP3    H246038   2.817   3.784   5.705  0.2355 -0.4522 -0.0774
 8183TIP3   OH246039   3.833   2.548  15.507 -0.3602 -0.6692  0.2192
 8183TIP3    H146040   3.820   2.461  15.543  0.8740 -0.6011  0.9060
 8183TIP3    H246041   3.748   2.591  15.515 -0.4648 -1.1103  1.8429
 8184TIP3   OH246042   3.244   0.503   4.825 -0.4031  0.1190 -0.4882
 8184TIP3    H146043   3.210   0.471   4.742  1.1204  0.1997 -1.1914
 8184TIP3    H246044   3.182   0.570   4.853 -1.0467 -0.0594 -1.4535
 8185TIP3   OH246045   1.823   1.638  15.037 -0.0303  0.1076  0.0486
 8185TIP3    H146046   1.850   1.609  15.124  0.5149 -0.7514 -0.3985
 8185TIP3    H246047   1.727   1.637  15.041 -0.0267  1.3281  1.0376
 8186TIP3   OH246048   3.269   1.430  11.487  0.2513 -0.5611 -0.0792
 8186TIP3    H146049   3.347   1.395  11.446  0.2176 -0.0075 -0.6171
 8186TIP3    H246050   3.197   1.399  11.432  0.0843 -1.0393  0.3934
 8187TIP3   OH246051   4.195   2.168   0.039  0.2399  0.1302  0.3568
 8187TIP3    H146052   4.266   2.208   0.088  0.6806 -0.4687  0.2301
 8187TIP3    H246053   4.116   2.187   0.090  0.8088 -1.4640  1.9680
 8188TIP3   OH246054   5.189   3.838   2.276 -0.6710  0.3541  0.0739
 8188TIP3    H146055   5.096   3.815   2.269 -0.9222  1.2919  0.2593
 8188TIP3    H246056   5.224   3.776   2.340 -1.4597  0.8342  0.9904
 8189TIP3   OH246057   6.470   0.051   5.255  0.6254 -0.0760  0.2056
 8189TIP3    H146058   6.525  -0.022   5.229  1.5068  0.6290  0.0225
 8189TIP3    H246059   6.449   0.096   5.173  0.5187  0.1564  0.3574
 8190TIP3   OH246060   1.960   1.214  12.700 -0.2651  0.2253 -0.1074
 8190TIP3    H146061   1.984   1.149  12.634 -1.4945 -0.4841  0.1124
 8190TIP3    H246062   1.933   1.291  12.648 -1.4311 -0.4010 -0.4764
 8191TIP3   OH246063   5.138   1.360   5.045 -0.6006 -0.1074  0.3099
 8191TIP3    H146064   5.156   1.454   5.034 -1.7636 -0.0316 -1.2754
 8191TIP3    H246065   5.060   1.357   5.099 -0.8455 -0.1337 -0.0410
 8192TIP3   OH246066   0.559   4.395   0.011 -0.0492 -0.0177  0.5345
 8192TIP3    H146067   0.644   4.369  -0.024  0.3417  1.8582 -0.0153
 8192TIP3    H246068   0.511   4.429  -0.064 -0.8312  0.0652  1.0558
 8193TIP3   OH246069   0.479   5.385   3.575 -0.7964 -0.0186  0.2301
 8193TIP3    H146070   0.497   5.352   3.663  1.5086 -0.7939 -0.4595
 8193TIP3    H246071   0.557   5.436   3.552 -1.7018  0.8657 -1.0814
 8194TIP3   OH246072   2.210   3.638  11.419 -0.1337  0.0063 -0.5544
 8194TIP3    H146073   2.175   3.599  11.339 -1.1848  1.1592 -0.6937
 8194TIP3    H246074   2.249   3.721  11.389  3.3682 -1.4712 -0.5030
 8195TIP3   OH246075   0.619   5.978   2.597 -0.1933 -0.2878  0.7914
 8195TIP3    H146076   0.638   5.890   2.629 -0.8278  0.1320  2.4156
 8195TIP3    H246077   0.685   6.034   2.639  0.1107  0.0363 -0.1032
 8196TIP3   OH246078   0.598   1.389   3.361 -0.3078 -0.0944 -0.0463
 8196TIP3    H146079   0.502   1.388   3.361 -0.3116 -0.0764  0.6466
 8196TIP3    H246080   0.623   1.306   3.321 -0.6188 -1.0181  1.5873
 8197TIP3   OH246081   6.718   2.667   0.863 -0.1715  0.3259  0.3413
 8197TIP3    H146082   6.697   2.670   0.770 -0.7556 -1.4294  0.3766
 8197TIP3    H246083   6.714   2.758   0.891  0.2953  0.9211 -1.3978
 8198TIP3   OH246084   5.830   6.165   4.715  0.0589  0.2370  0.2087
 8198TIP3    H146085   5.807   6.101   4.782  0.5006 -0.6854 -0.4944
 8198TIP3    H246086   5.910   6.132   4.676  1.0503  1.9192  0.6947
 8199TIP3   OH246087   4.687   2.750  16.554 -0.1292  1.0016  0.1274
 8199TIP3    H146088   4.732   2.669  16.577  1.5744  1.7264 -0.4673
 8199TIP3    H246089   4.644   2.778  16.634  0.8260  0.4774  0.8397
 8200TIP3   OH246090   4.705   0.898   0.450 -0.4330  0.5816 -0.0603
 8200TIP3    H146091   4.704   0.878   0.543  0.2409 -1.9509 -0.5351
 8200TIP3    H246092   4.693   0.814   0.407 -0.8733  1.7068 -2.2850
 8201TIP3   OH246093   0.563   0.152   4.278 -0.2344  0.4959  0.1344
 8201TIP3    H146094   0.508   0.078   4.252 -0.3107  0.0616  1.4302
 8201TIP3    H246095   0.516   0.191   4.353  1.7080 -0.5542  2.0025
 8202TIP3   OH246096   0.654   2.370  15.936 -0.7720 -0.0438 -0.4800
 8202TIP3    H146097   0.614   2.431  15.874 -0.0243 -0.4788 -1.4107
 8202TIP3    H246098   0.602   2.379  16.016 -1.1662  1.2102 -0.8667
 8203TIP3   OH246099   2.209   6.305   5.437  0.6394  0.2404 -0.4191
 8203TIP3    H146100   2.275   6.278   5.373  1.4210 -2.3711  1.3508
 8203TIP3    H246101   2.246   6.282   5.522 -1.6588  0.6759  0.7972
 8204TIP3   OH246102   6.757   0.944  10.998 -0.1150 -0.5768  0.0630
 8204TIP3    H146103   6.698   0.978  11.065  0.0386 -1.4487  0.6548
 8204TIP3    H246104   6.774   1.019  10.940  0.2744  0.3660  1.3549
 8205TIP3   OH246105   2.911   2.918  14.199  0.0632  0.0215  0.1619
 8205TIP3    H146106   3.000   2.939  14.229 -0.8948  2.5191  1.5513
 8205TIP3    H246107   2.916   2.924  14.103  1.4876 -0.4008  0.1903
 8206TIP3   OH246108   3.799   6.327  13.725 -0.1395 -0.0446 -0.3861
 8206TIP3    H146109   3.707   6.338  13.751 -0.6167  1.3060 -2.3752
 8206TIP3    H246110   3.804   6.237  13.692 -0.2355 -0.7684  1.4629
 8207TIP3   OH246111   6.775   1.511  14.340 -0.0999 -0.3622 -0.5334
 8207TIP3    H146112   6.764   1.566  14.417 -2.9370 -0.9856 -0.3730
 8207TIP3    H246113   6.864   1.477  14.346  0.1282  0.5236  1.8449
 8208TIP3   OH246114   1.254   1.402  13.281 -0.2332  0.4021  0.2450
 8208TIP3    H146115   1.249   1.343  13.355  0.7912 -0.9612 -0.7282
 8208TIP3    H246116   1.201   1.477  13.306 -0.0919 -0.1237  2.2477
 8209TIP3   OH246117   1.534   4.215   1.694 -0.3764 -0.1465 -0.5844
 8209TIP3    H146118   1.588   4.162   1.636 -2.5402 -2.6583 -0.4642
 8209TIP3    H246119   1.538   4.170   1.779 -0.4373  1.2343  0.1832
 8210TIP3   OH246120   6.856   3.618  14.493  0.0273  0.1521 -0.3708
 8210TIP3    H146121   6.902   3.575  14.566  0.6593  0.1834 -0.7511
 8210TIP3    H246122   6.911   3.601  14.417 -1.9338 -2.2010 -1.3939
 8211TIP3   OH246123   6.670   6.139  13.280 -0.0888  0.3164 -0.6792
 8211TIP3    H146124   6.716   6.110  13.359 -2.1416 -2.7991 -0.4692
 8211TIP3    H246125   6.700   6.080  13.211 -0.4135  1.1944 -1.6039
 8212TIP3   OH246126   1.606   3.833   3.096  0.4923 -0.3499  0.1615
 8212TIP3    H146127   1.565   3.752   3.065  1.7580 -0.9239 -0.0525
 8212TIP3    H246128   1.668   3.805   3.163  2.0641  0.2463 -0.9792
 8213TIP3   OH246129   4.815   6.361  15.627 -0.2966 -0.1201  0.3871
 8213TIP3    H146130   4.874   6.404  15.565  1.3893 -2.5992  0.1025
 8213TIP3    H246131   4.727   6.376  15.592  0.4321  0.5938 -1.2198
 8214TIP3   OH246132   1.692   6.264   3.832 -0.0485 -0.4541 -0.1025
 8214TIP3    H146133   1.671   6.236   3.743  1.4993  0.6149 -0.8430
 8214TIP3    H246134   1.607   6.281   3.873 -0.7752 -0.9373 -1.3728
 8215TIP3   OH246135   5.859   4.470   1.022  0.3184  0.1064 -0.3616
 8215TIP3    H146136   5.864   4.561   0.992  1.1558  0.2227  0.1081
 8215TIP3    H246137   5.772   4.463   1.061 -0.1400  0.4156 -1.3047
 8216TIP3   OH246138   0.762   5.883  16.445  0.4272 -0.2488  0.1416
 8216TIP3    H146139   0.829   5.816  16.432  0.9831  0.2575  0.3855
 8216TIP3    H246140   0.809   5.966  16.442 -0.4833  0.2476 -1.8086
 8217TIP3   OH246141   1.592   1.676  10.744  0.2567  0.4679  0.3585
 8217TIP3    H146142   1.657   1.742  10.770 -1.9566  1.2744  4.9375
 8217TIP3    H246143   1.510   1.725  10.735 -1.0220 -1.2708  1.7335
 8218TIP3   OH246144   4.850   4.175  13.139 -0.1739 -0.1211 -0.3420
 8218TIP3    H146145   4.905   4.250  13.159  1.0603 -0.4921 -2.0779
 8218TIP3    H246146   4.870   4.111  13.207  0.9778  0.0532 -0.4953
 8219TIP3   OH246147   2.768   5.005   4.772  1.0212  0.0552 -0.4294
 8219TIP3    H146148   2.687   4.957   4.754  0.9274  0.7160 -1.9296
 8219TIP3    H246149   2.820   4.946   4.826 -1.6266  0.7331  3.2570
 8220TIP3   OH246150   4.696   6.589  14.298  0.7325 -0.6774  0.0611
 8220TIP3    H146151   4.703   6.546  14.383 -0.8198  0.7536  0.9530
 8220TIP3    H246152   4.691   6.682  14.318 -0.0810 -0.3309 -1.5848
 8221TIP3   OH246153   1.564   5.727  13.138  0.7873 -0.0189  0.0592
 8221TIP3    H146154   1.562   5.661  13.207 -0.6171  1.8339  1.9179
 8221TIP3    H246155   1.651   5.717  13.098  1.2138 -1.8940  1.3199
 8222TIP3   OH246156   0.081   4.134   0.552  0.0522 -0.6556  0.1117
 8222TIP3    H146157   0.134   4.147   0.472 -0.3011 -0.1425 -0.0440
 8222TIP3    H246158  -0.008   4.153   0.525 -0.1021 -0.7127  0.5759
 8223TIP3   OH246159   4.866   5.935   2.158 -0.1264  0.7327  0.2129
 8223TIP3    H146160   4.791   5.932   2.217 -0.9301  0.3825 -0.7797
 8223TIP3    H246161   4.827   5.935   2.070  1.0495 -2.1374 -0.4235
 8224TIP3   OH246162   3.499   0.961  15.489  0.0846 -0.2730 -0.4606
 8224TIP3    H146163   3.442   0.888  15.466  0.5142 -0.0154 -2.5188
 8224TIP3    H246164   3.548   0.929  15.565 -1.1379 -1.3473 -0.0765
 8225TIP3   OH246165   4.013   1.988  10.911 -0.3550 -0.4710 -0.1540
 8225TIP3    H146166   3.980   2.033  10.988 -0.0094  0.6664 -0.6561
 8225TIP3    H246167   4.031   1.899  10.942  1.9882  0.5268  1.7268
 8226TIP3   OH246168   2.380   5.911  12.142 -0.1349 -0.7832  0.0311
 8226TIP3    H146169   2.292   5.914  12.181  0.9763  0.6047  2.6790
 8226TIP3    H246170   2.383   5.987  12.084 -0.8318 -1.1261 -0.4694
 8227TIP3   OH246171   0.155   4.806  12.657  1.1160 -0.3807  0.3176
 8227TIP3    H146172   0.192   4.764  12.734 -1.1794 -1.7222  0.7882
 8227TIP3    H246173   0.185   4.897  12.662  1.2030 -0.4737  2.6800
 8228TIP3   OH246174   3.473   1.034   3.547  0.6994  0.9427 -0.7294
 8228TIP3    H146175   3.422   0.986   3.612  0.4485 -2.6553 -3.3015
 8228TIP3    H246176   3.536   1.084   3.599  0.0880 -1.1463  2.2972
 8229TIP3   OH246177   4.057   4.098   5.758  0.1868 -0.6712  0.3490
 8229TIP3    H146178   4.005   4.022   5.782  0.9297 -1.9259 -1.6875
 8229TIP3    H246179   4.134   4.094   5.815 -0.1384 -1.0083  0.7657
 8230TIP3   OH246180   4.630   6.253   4.789  0.4161 -0.4042  0.3416
 8230TIP3    H146181   4.623   6.298   4.873  0.1013  0.0524  0.0765
 8230TIP3    H246182   4.542   6.217   4.775  0.0429  0.7385 -0.4527
 8231TIP3   OH246183   4.405   6.814   0.184  0.0955  0.2032  0.1455
 8231TIP3    H146184   4.420   6.906   0.204 -0.0355  0.1505  0.5044
 8231TIP3    H246185   4.352   6.782   0.257  1.3949 -0.5289  0.8009
 8232TIP3   OH246186   0.327   4.183  15.873  0.3623 -0.3249 -0.0825
 8232TIP3    H146187   0.250   4.158  15.925 -0.8486 -0.0528 -1.6588
 8232TIP3    H246188   0.395   4.122  15.901 -0.6973 -1.2030  0.6863
 8233TIP3   OH246189   3.277   3.930   1.861  0.2970  0.2695  0.3295
 8233TIP3    H146190   3.344   3.953   1.926  0.5332 -3.4708  1.6517
 8233TIP3    H246191   3.318   3.862   1.807 -1.0776  0.8886 -1.5920
 8234TIP3   OH246192   2.842   1.546   1.622 -0.0563  0.2834 -0.1521
 8234TIP3    H146193   2.801   1.518   1.540  0.8355  0.8003 -0.7977
 8234TIP3    H246194   2.769   1.574   1.677 -0.8999 -2.2520  0.1523
 8235TIP3   OH246195   0.740   0.883   2.926 -0.0284  0.7430 -0.0764
 8235TIP3    H146196   0.747   0.928   2.842  0.1625  2.3135  0.7505
 8235TIP3    H246197   0.821   0.904   2.971 -0.4055  0.4509  0.7545
 8236TIP3   OH246198   3.194   5.704   0.152 -0.0091  0.2598  0.4510
 8236TIP3    H146199   3.255   5.715   0.225 -0.4085 -0.1389  0.8582
 8236TIP3    H246200   3.112   5.742   0.184  0.0581  0.9150 -0.1407
 8237TIP3   OH246201   6.554   2.926  16.448 -0.1206 -0.9933 -0.0009
 8237TIP3    H146202   6.559   2.861  16.518  0.7212 -1.0027 -0.0638
 8237TIP3    H246203   6.580   2.878  16.369  0.5611 -0.5659 -0.0392
 8238TIP3   OH246204   1.572   5.169   3.207 -0.2573  0.0365  0.7108
 8238TIP3    H146205   1.602   5.082   3.235 -2.0866 -0.5412  1.0515
 8238TIP3    H246206   1.574   5.222   3.287 -2.3550 -0.6911  1.3091
 8239TIP3   OH246207   2.582   4.446  15.136 -0.0664  0.2791  0.9028
 8239TIP3    H146208   2.617   4.488  15.057  0.2685 -0.9002  0.3993
 8239TIP3    H246209   2.659   4.407  15.178 -0.3939  0.0211  1.2627
 8240TIP3   OH246210   2.412   6.212   0.611  0.0185  0.0466 -0.2192
 8240TIP3    H146211   2.345   6.209   0.680  2.4727  0.7247  2.3685
 8240TIP3    H246212   2.490   6.176   0.652  1.6342  0.4565 -2.7178
 8241TIP3   OH246213   3.870   0.907  13.007 -0.3798 -0.5235  0.0257
 8241TIP3    H146214   3.896   0.991  13.045 -1.2302 -1.8485  4.0016
 8241TIP3    H246215   3.774   0.909  13.009 -0.4094 -1.6504  0.4876
 8242TIP3   OH246216   5.914   1.041   1.067  0.6654 -0.0300 -0.4295
 8242TIP3    H146217   5.876   1.119   1.108 -1.3045 -0.8875 -0.5330
 8242TIP3    H246218   5.987   1.017   1.125 -0.9885 -0.2361  1.7170
 8243TIP3   OH246219   4.714   3.321  11.271  0.4820 -0.2905  0.5287
 8243TIP3    H146220   4.761   3.399  11.241  0.6953 -0.7881 -0.4832
 8243TIP3    H246221   4.667   3.290  11.193 -1.1204 -0.1166  1.3730
 8244TIP3   OH246222   1.441   5.885  16.811 -0.2231  0.2257  0.4753
 8244TIP3    H146223   1.471   5.918  16.895 -1.2023  3.3777 -0.2869
 8244TIP3    H246224   1.522   5.865  16.763  0.4382  1.2127  1.1412
 8245TIP3   OH246225   2.609   0.411  13.818  0.2308 -0.6517 -0.7247
 8245TIP3    H146226   2.584   0.337  13.762 -1.7537  0.9938 -2.1509
 8245TIP3    H246227   2.599   0.488  13.762  0.8632  0.8478  1.1228
 8246TIP3   OH246228   4.293   0.284  15.775 -0.0868  0.4393  0.0235
 8246TIP3    H146229   4.367   0.344  15.775  0.0283  0.3391 -1.3655
 8246TIP3    H246230   4.216   0.340  15.780  0.0577  0.6345  0.0507
 8247TIP3   OH246231   1.912   3.358   0.376 -0.2288 -0.1540 -0.2469
 8247TIP3    H146232   1.986   3.308   0.412 -1.0624 -0.8757  0.5027
 8247TIP3    H246233   1.947   3.397   0.296  0.6824 -1.2738 -0.4234
 8248TIP3   OH246234   3.860   5.482  12.174  0.0260  0.3042  0.3699
 8248TIP3    H146235   3.873   5.393  12.205  0.6320 -0.0034 -0.7265
 8248TIP3    H246236   3.818   5.471  12.088 -1.1549  1.1120  0.8237
 8249TIP3   OH246237   6.398   1.989  13.914  0.1548 -0.1339  0.0744
 8249TIP3    H146238   6.317   2.033  13.938  0.9545 -0.0020  2.9307
 8249TIP3    H246239   6.468   2.046  13.946  1.5734  0.6134 -3.8090
 8250TIP3   OH246240   2.147   2.137  17.015 -0.7544  0.3153 -0.5172
 8250TIP3    H146241   2.228   2.086  17.021 -1.4826 -0.9800 -1.1703
 8250TIP3    H246242   2.175   2.222  16.982  0.3210 -0.2083 -1.0372
 8251TIP3   OH246243   4.774   1.327  11.264  0.2454  0.1335  0.3341
 8251TIP3    H146244   4.707   1.368  11.209 -0.3335 -2.0457 -0.7158
 8251TIP3    H246245   4.740   1.335  11.353  0.6351  2.7054  0.3044
 8252TIP3   OH246246   2.217   4.336   6.644 -0.0761 -0.5267  0.2252
 8252TIP3    H146247   2.303   4.378   6.648 -1.0813  1.6749  0.1726
 8252TIP3    H246248   2.167   4.378   6.713 -1.7291 -0.2366 -1.0833
 8253TIP3   OH246249   0.395   1.529  16.577 -0.4347  0.1521 -0.1527
 8253TIP3    H146250   0.358   1.560  16.495  0.6203  0.4654 -0.5172
 8253TIP3    H246251   0.476   1.579  16.588 -0.8826  0.5798  1.4056
 8254TIP3   OH246252   4.449   6.065   2.126  0.1075  0.5426 -0.2310
 8254TIP3    H146253   4.366   6.035   2.088  0.1915 -0.9911  0.6857
 8254TIP3    H246254   4.425   6.099   2.212  0.2844  1.2332 -0.4515
 8255TIP3   OH246255   4.779   1.746  15.181  0.6025  0.4979 -0.4436
 8255TIP3    H146256   4.822   1.827  15.154  1.6320  0.1905  0.1978
 8255TIP3    H246257   4.780   1.692  15.102  1.4238  0.5004 -0.4516
 8256TIP3   OH246258   4.622   3.407   4.398  0.2795  0.4502 -0.4960
 8256TIP3    H146259   4.660   3.363   4.474 -1.5709  1.6312  1.2015
 8256TIP3    H246260   4.558   3.344   4.364  0.1923  0.4181 -0.2748
 8257TIP3   OH246261   1.303   3.347  17.018  0.2647  0.2732  0.0765
 8257TIP3    H146262   1.250   3.350  16.938 -0.6342 -0.2133  0.6467
 8257TIP3    H246263   1.279   3.427  17.065 -0.4493 -0.2577  0.6318
 8258TIP3   OH246264   5.433   0.176   0.264  0.3346 -0.0924 -0.1408
 8258TIP3    H146265   5.520   0.139   0.247  0.1844 -0.7334  0.4418
 8258TIP3    H246266   5.392   0.113   0.323 -0.5152  0.2283 -0.3853
 8259TIP3   OH246267   3.285   0.585  16.505  0.1233 -0.8743 -0.3972
 8259TIP3    H146268   3.256   0.591  16.595  2.5777 -0.3187  0.4478
 8259TIP3    H246269   3.229   0.646  16.457  1.6197  2.3715  1.6423
 8260TIP3   OH246270   5.811   6.621   2.409 -0.6937  0.0525 -0.1911
 8260TIP3    H146271   5.754   6.580   2.344  0.8225 -1.4481 -0.6692
 8260TIP3    H246272   5.842   6.548   2.462  0.9444  0.7619 -0.1186
 8261TIP3   OH246273   1.194   1.719  16.110  1.3975  0.3266 -0.7337
 8261TIP3    H146274   1.147   1.789  16.065 -0.5082  0.6660  1.5989
 8261TIP3    H246275   1.274   1.761  16.141  0.0778  1.6714  1.0042
 8262TIP3   OH246276   1.192   3.364   0.877 -0.3634 -0.9071  0.2938
 8262TIP3    H146277   1.238   3.420   0.940  1.0426 -0.7112 -0.8489
 8262TIP3    H246278   1.154   3.295   0.930 -2.2889  1.1475  1.7828
 8263TIP3   OH246279   0.996   1.504   2.682 -0.2398  0.4895  0.2563
 8263TIP3    H146280   0.935   1.578   2.681 -0.0447  0.6519  0.2955
 8263TIP3    H246281   0.946   1.432   2.720  0.4667  1.3796  3.0753
 8264TIP3   OH246282   2.965   6.543   5.974  0.0421 -0.6999  0.5071
 8264TIP3    H146283   2.891   6.577   5.923  0.2612 -0.3979  0.3848
 8264TIP3    H246284   2.975   6.605   6.047 -1.2263 -1.9498  1.7946
 8265TIP3   OH246285   3.214   2.608  16.691  0.4494 -0.0644  0.1851
 8265TIP3    H146286   3.168   2.642  16.615  0.5756  1.8562  0.9031
 8265TIP3    H246287   3.307   2.616  16.669  0.4979  0.9244  0.6662
 8266TIP3   OH246288   3.370   0.827   1.006  0.1025 -0.0233 -0.5315
 8266TIP3    H146289   3.381   0.738   0.973  1.9930  0.4351 -1.2428
 8266TIP3    H246290   3.405   0.823   1.095 -0.8384 -0.2150 -0.1537
 8267TIP3   OH246291   0.335   2.139  14.536 -0.1400 -0.0330  0.0270
 8267TIP3    H146292   0.247   2.175  14.546 -0.3995 -0.0173 -1.8626
 8267TIP3    H246293   0.379   2.199  14.475  1.6078  0.6079  1.8222
 8268TIP3   OH246294   1.913   6.311   5.965 -0.4123  0.1852  0.7699
 8268TIP3    H146295   1.903   6.225   6.007 -0.8209  0.6919  1.7395
 8268TIP3    H246296   1.996   6.345   6.000  2.1569 -1.5877 -2.9057
 8269TIP3   OH246297   4.608   0.458  10.615  0.2947 -0.5265  0.1990
 8269TIP3    H146298   4.666   0.386  10.591  0.8285  0.1298 -0.5375
 8269TIP3    H246299   4.661   0.515  10.671 -0.2053 -0.8244  0.9948
 8270TIP3   OH246300   5.639   3.965  14.992  0.0751  0.2197 -0.0646
 8270TIP3    H146301   5.732   3.965  15.015  0.0974  0.7868 -0.1345
 8270TIP3    H246302   5.636   3.935  14.901  0.0614 -1.1880  0.3881
 8271TIP3   OH246303   0.317   6.261   1.157 -0.2722  0.0350 -0.2104
 8271TIP3    H146304   0.333   6.167   1.165 -0.3941  0.0649  0.4719
 8271TIP3    H246305   0.279   6.286   1.241 -0.6687  0.6119 -0.5578
 8272TIP3   OH246306   0.633   5.454  15.047  0.2045 -0.1341 -0.2705
 8272TIP3    H146307   0.675   5.488  14.968 -2.6198  0.1200 -1.8053
 8272TIP3    H246308   0.684   5.376  15.070  0.7192 -0.6119 -2.7547
 8273TIP3   OH246309   0.756   2.212  14.962 -1.0903  0.1521 -0.1752
 8273TIP3    H146310   0.742   2.137  14.904 -1.5345  0.2652 -0.2120
 8273TIP3    H246311   0.820   2.181  15.026 -2.2109 -0.6798  0.5757
 8274TIP3   OH246312   4.629   3.962   0.739 -0.1502  0.2930  0.6009
 8274TIP3    H146313   4.721   3.984   0.723 -0.0639 -0.1300  0.5163
 8274TIP3    H246314   4.604   4.018   0.813  0.0984  0.5961  0.4583
 8275TIP3   OH246315   1.819   0.335  14.991 -0.1990  0.4952  0.4334
 8275TIP3    H146316   1.753   0.404  14.987 -0.0628  0.6209  0.3559
 8275TIP3    H246317   1.879   0.363  15.060  0.0819  0.6544  0.1286
 8276TIP3   OH246318   0.236   2.204  15.219  0.3667 -0.2201 -0.3302
 8276TIP3    H146319   0.169   2.260  15.181 -1.0239 -1.1798  0.6328
 8276TIP3    H246320   0.300   2.191  15.148  1.1079  3.0257 -0.4141
 8277TIP3   OH246321   1.692   2.961   5.279  0.2802  0.5996  0.0245
 8277TIP3    H146322   1.614   2.907   5.271 -0.8563  2.0325  0.9454
 8277TIP3    H246323   1.699   2.981   5.372  0.5574  2.1500 -0.2895
 8278TIP3   OH246324   0.918   4.807  12.824 -0.1924 -0.3305 -0.1437
 8278TIP3    H146325   0.973   4.806  12.902 -0.4849 -1.0658  0.0647
 8278TIP3    H246326   0.910   4.714  12.800 -0.0245 -0.1116 -1.1043
 8279TIP3   OH246327   1.889   1.189  13.669 -0.4684  0.2274 -0.4446
 8279TIP3    H146328   1.840   1.250  13.723  0.0764  1.1776 -0.9953
 8279TIP3    H246329   1.981   1.215  13.680 -0.0316 -1.5964  0.6665
 8280TIP3   OH246330   1.098   0.304  11.703 -0.4936 -0.5467 -0.2557
 8280TIP3    H146331   1.157   0.241  11.744  1.6409  1.6418  0.2702
 8280TIP3    H246332   1.146   0.336  11.626 -0.8418  1.4431  0.3031
 8281TIP3   OH246333   3.394   1.590  14.746 -0.3472 -0.1577 -0.0778
 8281TIP3    H146334   3.471   1.550  14.786  0.0447  1.0494  0.3891
 8281TIP3    H246335   3.421   1.679  14.725 -1.7460  0.4275  0.4905
 8282TIP3   OH246336   6.389   2.933   3.145 -0.6604 -0.4034  0.3657
 8282TIP3    H146337   6.359   2.844   3.123  2.2106 -1.7282  1.3446
 8282TIP3    H246338   6.388   2.936   3.240 -1.0174  0.7565  0.3374
 8283TIP3   OH246339   2.441   1.084   0.138 -0.1403 -0.1714  0.5336
 8283TIP3    H146340   2.487   1.164   0.117  0.4891 -0.7558 -0.3860
 8283TIP3    H246341   2.473   1.059   0.225  0.1315  0.2365  0.5491
 8284TIP3   OH246342   6.088   5.563   2.554 -0.0607  0.1478  0.0515
 8284TIP3    H146343   6.162   5.544   2.612  0.3849  0.6111 -0.3475
 8284TIP3    H246344   6.019   5.504   2.583  0.5462 -0.4668  0.2757
 8285TIP3   OH246345   2.056   4.959  12.871  0.2759 -0.2673  0.6536
 8285TIP3    H146346   2.023   5.021  12.806 -1.7261 -0.8845  0.9938
 8285TIP3    H246347   2.113   4.900  12.821  2.5733  2.0076  0.4111
 8286TIP3   OH246348   6.082   3.468   4.807 -0.3626  1.2619 -0.8386
 8286TIP3    H146349   6.072   3.380   4.844 -1.1209  2.1225  1.1381
 8286TIP3    H246350   6.044   3.462   4.720 -1.0347 -0.1946 -0.4778
 8287TIP3   OH246351   6.626   1.161  15.270 -0.1033  0.2053 -0.4722
 8287TIP3    H146352   6.533   1.138  15.272 -0.5450  0.8614 -4.6160
 8287TIP3    H246353   6.628   1.256  15.281  0.5585 -0.0853  3.2111
 8288TIP3   OH246354   4.169   5.421  13.596 -0.2495 -0.4658  0.0159
 8288TIP3    H146355   4.140   5.410  13.686  1.6955  1.5808  1.0061
 8288TIP3    H246356   4.261   5.393  13.597 -0.0398  0.1170 -1.2048
 8289TIP3   OH246357   3.029   5.393  12.408  0.0117  0.6301 -0.4453
 8289TIP3    H146358   3.018   5.484  12.436 -1.9574  0.2671  0.1222
 8289TIP3    H246359   2.966   5.383  12.336 -1.0008 -0.6974  0.5771
 8290TIP3   OH246360   3.426   3.500  14.857 -0.5130  0.4782  0.0845
 8290TIP3    H146361   3.465   3.587  14.854 -0.6194  0.5086 -0.6993
 8290TIP3    H246362   3.480   3.451  14.918 -0.1162  0.9353  0.1029
 8291TIP3   OH246363   3.179   4.809   3.316 -0.1943  0.1367 -0.6454
 8291TIP3    H146364   3.160   4.757   3.238 -0.6557 -1.6043  0.5834
 8291TIP3    H246365   3.107   4.872   3.320  0.1566  0.6630 -1.9291
 8292TIP3   OH246366   3.239   3.054   3.641  0.6050  0.4220 -0.9159
 8292TIP3    H146367   3.262   3.105   3.718  0.4087 -1.1572  0.2460
 8292TIP3    H246368   3.207   2.970   3.676  1.2950 -0.6675 -2.7255
 8293TIP3   OH246369   6.262   4.598   6.231 -0.0899 -0.1367 -0.3488
 8293TIP3    H146370   6.221   4.677   6.265 -0.3186  0.0933 -1.1430
 8293TIP3    H246371   6.291   4.551   6.309 -1.3243 -0.0186  0.1946
 8294TIP3   OH246372   6.702   0.081   5.392  0.3697  0.4833 -0.7235
 8294TIP3    H146373   6.755   0.161   5.390 -0.9533  1.4029 -0.3660
 8294TIP3    H246374   6.622   0.104   5.345  0.2814 -0.8922 -1.2994
 8295TIP3   OH246375   2.776   3.121   2.931 -0.2550 -0.0498 -0.1150
 8295TIP3    H146376   2.753   3.214   2.936  2.8199  0.7576  1.4522
 8295TIP3    H246377   2.871   3.121   2.920  0.1972 -3.0110  2.5357
 8296TIP3   OH246378   3.589   4.845   2.803 -0.2541  0.0112  0.0799
 8296TIP3    H146379   3.620   4.909   2.740  1.1047 -0.1758  0.5240
 8296TIP3    H246380   3.584   4.892   2.886 -0.4763 -0.1402  0.1544
 8297TIP3   OH246381   1.684   3.006   1.705  0.0725  1.0702 -0.2200
 8297TIP3    H146382   1.654   3.045   1.788 -0.3413 -0.4189  0.3584
 8297TIP3    H246383   1.742   3.072   1.668  2.6477  0.6760  2.6609
 8298TIP3   OH246384   2.168   3.644  12.798 -0.1664  0.0077 -0.1995
 8298TIP3    H146385   2.241   3.657  12.737  0.1075 -1.2183 -0.1484
 8298TIP3    H246386   2.175   3.718  12.860 -0.6476  1.4650 -1.8026
 8299TIP3   OH246387   3.321   2.550   3.904  0.1525  0.3379 -0.0932
 8299TIP3    H146388   3.400   2.567   3.955 -0.1054 -1.9028  1.1731
 8299TIP3    H246389   3.269   2.630   3.912  1.6505  1.3076  0.2390
 8300TIP3   OH246390   2.151   0.237   5.646 -0.1029  0.1472  0.2361
 8300TIP3    H146391   2.156   0.270   5.557  0.4153 -0.1231  0.1641
 8300TIP3    H246392   2.205   0.158   5.647  1.0882  0.9288  1.1266
 8301TIP3   OH246393   6.233   2.364  16.921  0.3839  0.0865 -0.5534
 8301TIP3    H146394   6.192   2.345  17.005  2.7102  0.5158  0.7623
 8301TIP3    H246395   6.166   2.411  16.871 -0.8161  0.4233  1.2899
 8302TIP3   OH246396   6.536   4.438  12.537 -0.2716 -0.5154 -0.0554
 8302TIP3    H146397   6.574   4.499  12.474 -1.0809 -0.5833 -0.6147
 8302TIP3    H246398   6.469   4.489  12.583 -0.5777 -0.8239 -0.1529
 8303TIP3   OH246399   5.964   3.296   0.116 -0.5345 -0.2684  0.0526
 8303TIP3    H146400   5.881   3.249   0.121 -0.6750 -0.2855 -1.8082
 8303TIP3    H246401   6.025   3.242   0.166 -1.5784 -0.3604  1.2625
 8304TIP3   OH246402   5.833   4.318  13.232 -0.0077 -0.0488 -0.2176
 8304TIP3    H146403   5.917   4.270  13.232 -0.7502 -1.4114 -1.1327
 8304TIP3    H246404   5.837   4.374  13.155  0.1728  0.0831 -0.1124
 8305TIP3   OH246405   6.695   2.108   3.377 -0.0728  0.5752 -0.8503
 8305TIP3    H146406   6.609   2.146   3.360  0.3799  1.6900 -0.7038
 8305TIP3    H246407   6.746   2.130   3.300 -0.3165 -1.3954 -1.6358
 8306TIP3   OH246408   2.206   2.726   4.678 -0.5915  0.1970 -0.3684
 8306TIP3    H146409   2.203   2.722   4.582  0.4002  0.6479 -0.4309
 8306TIP3    H246410   2.297   2.747   4.698 -0.8293  0.2759  0.6728
 8307TIP3   OH246411   1.865   5.668   0.889  0.1623 -0.3548  0.5099
 8307TIP3    H146412   1.902   5.748   0.927 -0.2541 -0.3664  0.9422
 8307TIP3    H246413   1.853   5.690   0.796 -1.1292  0.5373  0.8642
 8308TIP3   OH246414   4.959   1.596   4.762 -0.2539 -0.1655 -0.0564
 8308TIP3    H146415   5.019   1.522   4.758 -0.5218 -0.4047  0.2693
 8308TIP3    H246416   4.957   1.630   4.673 -0.1115 -0.5393 -0.2033
 8309TIP3   OH246417   6.829   1.151  16.265 -0.1793 -0.1379 -0.3482
 8309TIP3    H146418   6.801   1.196  16.186 -0.3872 -1.4762 -1.0607
 8309TIP3    H246419   6.924   1.140  16.254 -0.5440 -2.4968 -1.6053
 8310TIP3   OH246420   0.935   1.177  15.289  0.0886  0.3890 -0.0416
 8310TIP3    H146421   0.993   1.107  15.260 -0.7479 -0.4925  0.3630
 8310TIP3    H246422   0.967   1.255  15.244  0.6082 -0.3810 -1.0555
 8311TIP3   OH246423   4.221   2.636  15.820 -0.1363  0.5749 -0.0011
 8311TIP3    H146424   4.279   2.710  15.837 -0.9967  1.2768 -0.0380
 8311TIP3    H246425   4.183   2.655  15.734  1.0988 -0.8999 -0.9077
 8312TIP3   OH246426   5.199   5.569   5.413  0.7071 -0.6894 -0.0148
 8312TIP3    H146427   5.254   5.567   5.492  1.2841 -0.9909 -0.4202
 8312TIP3    H246428   5.260   5.555   5.341  0.3313  0.5461 -0.5981
 8313TIP3   OH246429   0.949   5.901  12.435 -0.0381 -0.0311  0.3529
 8313TIP3    H146430   0.855   5.881  12.443 -0.2091 -0.3449 -1.7321
 8313TIP3    H246431   0.974   5.862  12.351  1.7784  0.7929  0.4714
 8314TIP3   OH246432   2.562   0.746  11.849  0.6461  0.3456 -0.1552
 8314TIP3    H146433   2.638   0.688  11.858  0.9908  1.0614  2.0094
 8314TIP3    H246434   2.594   0.832  11.877 -0.8044  0.8031  0.1653
 8315TIP3   OH246435   1.246   2.227  12.446 -1.0226  0.0905 -0.1436
 8315TIP3    H146436   1.218   2.313  12.415  0.3354  0.3615 -0.7131
 8315TIP3    H246437   1.209   2.165  12.384 -1.8213  0.2775  0.1391
 8316TIP3   OH246438   4.208   6.408  16.005 -0.3697 -0.4482  0.4536
 8316TIP3    H146439   4.203   6.332  16.063  1.3122 -1.3353 -0.4995
 8316TIP3    H246440   4.128   6.402  15.952 -0.8231 -0.8840  1.1721
 8317TIP3   OH246441   3.854   5.052  13.310 -0.1292 -0.2119 -0.0670
 8317TIP3    H146442   3.846   5.015  13.398 -1.3239  1.0683  0.4091
 8317TIP3    H246443   3.826   5.143  13.320 -0.0121  0.0367 -1.7266
 8318TIP3   OH246444   4.197   1.727   1.658 -0.5717 -0.4354  0.9375
 8318TIP3    H146445   4.190   1.766   1.745  0.1976  0.7160  0.5091
 8318TIP3    H246446   4.107   1.720   1.627 -0.7555  3.2629  0.1121
 8319TIP3   OH246447   1.311   5.031   3.598 -0.1835  0.0711 -0.1207
 8319TIP3    H146448   1.232   5.064   3.555 -0.4478 -0.5004 -0.0772
 8319TIP3    H246449   1.328   5.094   3.668  0.1581  0.9251 -0.9439
 8320TIP3   OH246450   4.670   5.437   2.099 -0.6514  0.6503  0.2576
 8320TIP3    H146451   4.613   5.380   2.151 -2.5340  1.1685 -1.1155
 8320TIP3    H246452   4.723   5.483   2.164  2.3205 -3.7842  1.4284
 8321TIP3   OH246453   1.481   2.017   2.452 -0.2157  0.2044  0.5631
 8321TIP3    H146454   1.426   2.080   2.404  1.6073  1.0264 -0.5307
 8321TIP3    H246455   1.434   2.004   2.534 -1.2296  2.1542  0.3740
 8322TIP3   OH246456   6.004   3.011  17.059  0.1409 -0.5595 -0.1644
 8322TIP3    H146457   6.001   3.068  16.982 -0.4783 -1.7717 -1.0643
 8322TIP3    H246458   5.924   3.032  17.108 -0.3760 -1.0305 -0.7882
 8323TIP3   OH246459   0.152   6.481   3.636  0.5651  0.0251  0.4560
 8323TIP3    H146460   0.218   6.419   3.667  0.8755  0.3963  0.5490
 8323TIP3    H246461   0.119   6.522   3.717 -1.1424 -1.4979  0.5822
 8324TIP3   OH246462   6.588   4.429  10.834  0.3223 -0.1321  0.2096
 8324TIP3    H146463   6.663   4.448  10.777  0.7836 -1.0728  0.4879
 8324TIP3    H246464   6.541   4.358  10.790  0.4720 -0.6088  0.8054
 8325TIP3   OH246465   5.476   5.302   5.405  0.4744  0.3417  0.6560
 8325TIP3    H146466   5.490   5.393   5.432  0.2291  0.7119 -0.4301
 8325TIP3    H246467   5.401   5.306   5.346 -1.0654 -0.9112  2.4185
 8326TIP3   OH246468   5.837   3.496   6.259 -0.0245 -0.1640 -0.1361
 8326TIP3    H146469   5.781   3.448   6.320 -1.1588  0.8352 -0.3560
 8326TIP3    H246470   5.924   3.496   6.300 -0.5630 -0.2797  1.0351
 8327TIP3   OH246471   0.482   5.698  12.765 -0.0690  1.1445  0.2822
 8327TIP3    H146472   0.545   5.651  12.820 -0.7149 -0.0035  0.0628
 8327TIP3    H246473   0.521   5.785  12.754  0.9228  0.8260  1.0891
 8328TIP3   OH246474   6.399   3.049  16.128 -0.0541  0.1348 -0.0320
 8328TIP3    H146475   6.393   2.978  16.192 -1.1108  0.3486  0.1267
 8328TIP3    H246476   6.440   3.121  16.175  1.2996 -0.4498 -0.2800
 8329TIP3   OH246477   4.227   0.066  13.283 -0.0724  0.3519 -0.1685
 8329TIP3    H146478   4.220   0.065  13.379  0.5936  0.1712 -0.1173
 8329TIP3    H246479   4.315   0.098  13.265 -0.4647  1.1482 -0.7491
 8330TIP3   OH246480   4.460   4.534   5.382 -0.0976  0.5838 -0.0528
 8330TIP3    H146481   4.418   4.494   5.306 -0.5811 -0.1245  0.5741
 8330TIP3    H246482   4.400   4.602   5.410  1.3947  2.8686 -2.0146
 8331TIP3   OH246483   4.633   0.648  13.682  0.5014 -0.6474 -0.2269
 8331TIP3    H146484   4.683   0.586  13.736  0.8774 -0.4153 -0.3070
 8331TIP3    H246485   4.672   0.733  13.701 -0.3240 -0.3655  0.2413
 8332TIP3   OH246486   0.770   0.695   3.850 -0.1872 -0.1451  0.1247
 8332TIP3    H146487   0.697   0.672   3.793 -1.6708  1.8441  1.0974
 8332TIP3    H246488   0.730   0.710   3.936  1.4703  0.2940  0.8748
 8333TIP3   OH246489   0.884   1.432   4.212 -0.8441  0.2010  0.1396
 8333TIP3    H146490   0.919   1.451   4.298  0.5361 -2.9252  0.4161
 8333TIP3    H246491   0.886   1.515   4.166  1.8715  1.2762  1.9538
 8334TIP3   OH246492   4.954   2.561  13.439  0.1140 -0.5131 -0.1775
 8334TIP3    H146493   5.024   2.535  13.379  1.2698 -1.3745  1.4807
 8334TIP3    H246494   4.938   2.483  13.492 -2.4751 -0.4887 -0.8199
 8335TIP3   OH246495   6.335   5.425  16.927  0.5143  0.1045  0.0829
 8335TIP3    H146496   6.368   5.479  16.999  0.6858  0.4502 -0.2493
 8335TIP3    H246497   6.352   5.477  16.849  1.2848 -0.6956 -0.3111
 8336TIP3   OH246498   0.100   2.951   5.281 -0.2587 -0.1343  0.5143
 8336TIP3    H146499   0.069   2.951   5.372 -0.2485  1.1938  0.5281
 8336TIP3    H246500   0.020   2.941   5.229 -0.0363 -4.3489  0.6628
 8337TIP3   OH246501   0.844   4.979  13.105 -0.2644 -0.2400 -0.2566
 8337TIP3    H146502   0.870   5.065  13.071 -0.3011 -0.2336 -0.2686
 8337TIP3    H246503   0.760   4.961  13.062 -1.5145  0.8311  1.5740
 8338TIP3   OH246504   0.522   0.278   2.393 -0.0336  0.4048  0.3062
 8338TIP3    H146505   0.518   0.182   2.398  1.9867  0.1807 -1.2358
 8338TIP3    H246506   0.540   0.306   2.483  1.7836 -0.8796  0.3960
 8339TIP3   OH246507   4.219   0.332   0.546  0.1719  0.1257  0.3942
 8339TIP3    H146508   4.300   0.376   0.571 -0.3421  1.5560 -0.3613
 8339TIP3    H246509   4.155   0.362   0.610 -0.3663  1.1217 -0.5892
 8340TIP3   OH246510   0.740   0.625   2.255 -0.5342 -0.3882 -0.4823
 8340TIP3    H146511   0.725   0.533   2.278 -0.7951 -0.3417 -0.4563
 8340TIP3    H246512   0.794   0.621   2.176  1.5811 -0.5345  0.9116
 8341TIP3   OH246513   5.102   1.788   6.166  0.0412  0.1041  0.2011
 8341TIP3    H146514   5.192   1.767   6.190 -0.5789 -2.0330  0.8502
 8341TIP3    H246515   5.055   1.705   6.171 -1.6763  0.8810 -1.5684
 8342TIP3   OH246516   5.504   4.353  16.837 -0.1170  0.2233 -0.0909
 8342TIP3    H146517   5.441   4.370  16.767 -0.1286 -1.0140 -0.4117
 8342TIP3    H246518   5.468   4.398  16.914 -2.5087 -2.1118  0.2852
 8343TIP3   OH246519   6.255   5.789  12.941 -0.4287  0.4564  0.1050
 8343TIP3    H146520   6.302   5.861  12.899  1.7216 -0.8144  0.1784
 8343TIP3    H246521   6.266   5.715  12.882 -0.7789 -0.3486  1.0164
 8344TIP3   OH246522   6.423   4.018  17.073  0.0339  0.0136  0.5133
 8344TIP3    H146523   6.485   4.031  17.001 -0.7564  0.2111 -0.1569
 8344TIP3    H246524   6.356   4.084  17.057 -2.4150 -2.6232 -1.0853
 8345TIP3   OH246525   0.210   6.016  16.692  0.6587  0.0142  0.1112
 8345TIP3    H146526   0.287   6.061  16.656 -0.2377  1.7495  0.2587
 8345TIP3    H246527   0.154   6.001  16.616  0.0593  1.0355  0.3290
 8346TIP3   OH246528   2.746   2.220   1.701 -0.4181 -0.2904  0.0300
 8346TIP3    H146529   2.829   2.253   1.735 -0.0433 -0.0034 -1.1018
 8346TIP3    H246530   2.680   2.249   1.764  0.2934 -0.1562  0.7199
 8347TIP3   OH246531   1.009   2.314   5.542 -0.0500  0.1235 -0.4125
 8347TIP3    H146532   0.978   2.271   5.462 -0.3053 -2.4269  0.9598
 8347TIP3    H246533   0.958   2.395   5.547 -3.8236 -2.0128 -0.3010
 8348TIP3   OH246534   6.780   5.333  16.016  0.1486 -0.1617  0.8812
 8348TIP3    H146535   6.700   5.311  16.063 -0.6977  3.1159  1.2140
 8348TIP3    H246536   6.825   5.396  16.072  1.2146  0.6732 -0.8258
 8349TIP3   OH246537   0.420   0.585  16.612  0.9400  0.2358 -0.3988
 8349TIP3    H146538   0.451   0.518  16.673 -1.4617  0.0771  0.7523
 8349TIP3    H246539   0.500   0.619  16.572  2.4329 -1.3697  1.0267
 8350TIP3   OH246540   5.685   3.101  14.373  0.0648  0.0013 -0.9861
 8350TIP3    H146541   5.754   3.144  14.322 -0.2155  1.6203 -0.0808
 8350TIP3    H246542   5.712   3.010  14.379  3.2772  0.9252  1.1135
 8351TIP3   OH246543   6.767   3.495  12.890 -0.0093 -0.4340  0.3251
 8351TIP3    H146544   6.715   3.556  12.942  0.3595  1.5391 -1.4825
 8351TIP3    H246545   6.713   3.417  12.881 -0.8577 -0.0638  1.9962
 8352TIP3   OH246546   0.228   2.306   1.637 -0.2563  0.6897 -0.3666
 8352TIP3    H146547   0.246   2.254   1.716  1.2527  0.8353 -0.5832
 8352TIP3    H246548   0.307   2.360   1.626 -0.1287  0.1461 -2.3855
 8353TIP3   OH246549   2.945   0.955   2.633  0.3101  0.2329 -0.2588
 8353TIP3    H146550   2.911   0.868   2.615 -1.8130  1.1821 -1.1659
 8353TIP3    H246551   3.029   0.958   2.588  0.5457 -1.4146  0.0191
 8354TIP3   OH246552   1.118   2.667   1.177  0.2685 -0.4323  0.1611
 8354TIP3    H146553   1.044   2.723   1.152 -0.3711 -0.3562  2.0581
 8354TIP3    H246554   1.087   2.578   1.159  0.8723 -0.2773 -1.8237
 8355TIP3   OH246555   1.847   1.147   4.551 -0.3805  0.7047  0.0406
 8355TIP3    H146556   1.819   1.230   4.510 -1.1455  0.7971  0.7281
 8355TIP3    H246557   1.796   1.142   4.632  1.6004  0.8579  1.3467
 8356TIP3   OH246558   4.567   5.893   0.039 -0.5901  0.1734 -0.2250
 8356TIP3    H146559   4.625   5.966   0.016 -1.2237  0.8942  0.4050
 8356TIP3    H246560   4.622   5.816   0.033  0.1526  0.7270 -0.7048
 8357TIP3   OH246561   1.051   4.108  10.533  0.6234  0.0114  0.4536
 8357TIP3    H146562   1.142   4.120  10.506  0.3409  0.2648 -0.4341
 8357TIP3    H246563   1.011   4.058  10.462 -0.5310  2.0479 -0.4015
 8358TIP3   OH246564   4.647   0.648   1.646  0.6381 -0.2376  0.5831
 8358TIP3    H146565   4.696   0.694   1.579 -0.1941  2.0480  1.4194
 8358TIP3    H246566   4.656   0.703   1.724 -0.8806 -1.2188  1.5053
 8359TIP3   OH246567   5.419   3.100  12.235 -0.2582 -0.0967  0.1639
 8359TIP3    H146568   5.397   3.170  12.297 -0.5966 -1.8058  2.0941
 8359TIP3    H246569   5.490   3.136  12.181  0.4010  1.3230  1.8913
 8360TIP3   OH246570   6.784   1.066   4.318 -0.1551 -0.0612  0.4703
 8360TIP3    H146571   6.710   1.019   4.281  0.8314  0.3477 -2.2576
 8360TIP3    H246572   6.767   1.158   4.299  0.7866  0.0848  0.2388
 8361TIP3   OH246573   0.167   3.055   2.532  0.3458  0.5429  0.0165
 8361TIP3    H146574   0.114   3.097   2.600  2.5879  1.6227  1.1842
 8361TIP3    H246575   0.241   3.018   2.579  0.3582 -1.4830 -1.4978
 8362TIP3   OH246576   2.847   2.823  11.386 -0.2937 -0.3293 -0.5139
 8362TIP3    H146577   2.893   2.817  11.470  1.1373  1.1658 -1.1256
 8362TIP3    H246578   2.897   2.888  11.337 -0.3483 -2.0433 -3.0058
 8363TIP3   OH246579   1.231   2.473   0.603 -0.0286 -0.1178 -0.3698
 8363TIP3    H146580   1.277   2.533   0.545  0.4246 -0.9870 -0.9199
 8363TIP3    H246581   1.145   2.460   0.561 -0.1237  0.1371 -0.2545
 8364TIP3   OH246582   1.044   5.947  11.622  0.2147 -0.1782 -0.0877
 8364TIP3    H146583   1.093   6.026  11.597  1.2607 -0.5822  0.6018
 8364TIP3    H246584   1.091   5.913  11.698  0.3463 -1.9714 -0.9152
 8365TIP3   OH246585   2.113   3.265   0.980 -0.4839 -0.0125  0.4734
 8365TIP3    H146586   2.192   3.211   0.984  0.9950  1.9647 -0.5153
 8365TIP3    H246587   2.099   3.294   1.070  1.6583  1.9185  0.2565
 8366TIP3   OH246588   5.014   4.770   2.647  0.4210  0.6313 -0.2108
 8366TIP3    H146589   5.018   4.859   2.612 -1.0499  0.4344 -0.9576
 8366TIP3    H246590   5.094   4.761   2.698  2.4722  1.1312 -3.0731
 8367TIP3   OH246591   6.416   4.162  11.120  0.1560  0.2908 -1.0642
 8367TIP3    H146592   6.460   4.084  11.086  0.2322 -0.4182  0.5303
 8367TIP3    H246593   6.381   4.134  11.205  2.2358  2.6157  0.6952
 8368TIP3   OH246594   3.230   6.037   0.463  0.3293  0.0927 -0.0531
 8368TIP3    H146595   3.285   6.076   0.395 -0.6945  1.4629 -0.1430
 8368TIP3    H246596   3.141   6.064   0.440 -0.2633 -1.1271  0.7115
 8369TIP3   OH246597   5.956   6.318   5.142 -0.6035  0.1730  0.0676
 8369TIP3    H146598   5.864   6.294   5.131 -0.7119  0.0792  1.0712
 8369TIP3    H246599   5.984   6.347   5.055 -1.5202  0.0074 -0.2943
 8370TIP3   OH246600   1.391   3.068  13.413  0.0182 -0.0277 -0.3416
 8370TIP3    H146601   1.296   3.057  13.425  0.0681  0.7510  0.9977
 8370TIP3    H246602   1.414   3.005  13.345 -1.4159 -0.4413 -0.4811
 8371TIP3   OH246603   3.671   3.450  10.898 -0.2243 -0.3223 -0.3328
 8371TIP3    H146604   3.703   3.361  10.912  0.5332 -0.1226 -0.6975
 8371TIP3    H246605   3.729   3.485  10.830  0.4168  0.9004  0.7874
 8372TIP3   OH246606   5.447   5.361   0.448  0.1679 -0.7205  0.4084
 8372TIP3    H146607   5.455   5.412   0.367  1.0405 -0.4120  0.6734
 8372TIP3    H246608   5.431   5.271   0.419 -0.6083 -0.4313 -0.0798
 8373TIP3   OH246609   1.999   3.530   1.587  0.3093 -0.0206  0.6290
 8373TIP3    H146610   2.005   3.468   1.514  0.7996 -0.3340  0.9271
 8373TIP3    H246611   1.911   3.515   1.623 -0.3624  0.8881 -0.5396
 8374TIP3   OH246612   5.062   4.386  15.847 -0.0969 -0.6253  0.3739
 8374TIP3    H146613   5.040   4.463  15.900 -1.5687  0.3364 -1.4788
 8374TIP3    H246614   5.157   4.381  15.850 -0.0453  0.5230  1.5470
 8375TIP3   OH246615   5.809   5.514  13.095 -0.3806 -0.2523 -0.5861
 8375TIP3    H146616   5.827   5.421  13.086 -0.8860 -0.5077  0.7447
 8375TIP3    H246617   5.775   5.523  13.185  1.4654  1.4763  0.0141
 8376TIP3   OH246618   2.735   4.571  16.653  0.0935 -0.6333 -0.0268
 8376TIP3    H146619   2.750   4.584  16.560 -1.9910  2.4206 -0.0732
 8376TIP3    H246620   2.654   4.520  16.657 -0.5410  0.3538  0.0568
 8377TIP3   OH246621   5.986   4.388  11.675  0.1889  0.0854  0.3308
 8377TIP3    H146622   6.023   4.387  11.764 -0.6826  0.5360  0.7053
 8377TIP3    H246623   6.059   4.417  11.620  0.6581  0.0863  0.9352
 8378TIP3   OH246624   5.327   0.266  16.501 -0.1362 -0.3672  0.0524
 8378TIP3    H146625   5.338   0.294  16.410  0.3024 -0.9091 -0.0617
 8378TIP3    H246626   5.351   0.344  16.552  1.2142 -0.5447 -0.2634
 8379TIP3   OH246627   1.341   1.520   0.929  0.0358 -0.3582  0.1846
 8379TIP3    H146628   1.272   1.480   0.981  0.7694 -1.7353  0.1267
 8379TIP3    H246629   1.307   1.608   0.908 -1.7824 -1.0716 -0.0355
 8380TIP3   OH246630   1.390   5.034   2.105 -0.7279  0.0913 -0.0125
 8380TIP3    H146631   1.403   5.110   2.162 -1.8807  0.0539  0.3208
 8380TIP3    H246632   1.295   5.025   2.098 -0.6109 -0.4059 -1.2792
 8381TIP3   OH246633   2.504   4.593   0.029 -0.1364 -0.5457 -0.5407
 8381TIP3    H146634   2.575   4.543  -0.013 -0.3558 -0.3440 -1.1710
 8381TIP3    H246635   2.436   4.597  -0.038 -0.0169  0.8323 -0.5994
 8382TIP3   OH246636   0.436   4.545  10.248  0.2995  0.4939 -0.1443
 8382TIP3    H146637   0.349   4.584  10.255 -0.5446 -0.8623 -2.1504
 8382TIP3    H246638   0.496   4.612  10.280 -1.2982  2.2633 -0.7243
 8383TIP3   OH246639   6.776   6.246  15.739 -0.1640  0.6243 -0.2919
 8383TIP3    H146640   6.868   6.220  15.748  0.0639  1.2952 -0.6274
 8383TIP3    H246641   6.776   6.307  15.665 -0.9236  0.4147 -0.4711
 8384TIP3   OH246642   6.689   2.805  15.567 -0.3974 -0.2864  0.2039
 8384TIP3    H146643   6.757   2.805  15.635  0.0881 -1.7050 -0.2471
 8384TIP3    H246644   6.619   2.860  15.604  0.5243  0.3039  1.1445
 8385TIP3   OH246645   0.201   6.361   4.219 -0.1469  0.2002 -0.5982
 8385TIP3    H146646   0.201   6.298   4.291  0.3862 -0.7319 -1.4039
 8385TIP3    H246647   0.199   6.308   4.140  2.0288  1.0989 -1.3311
 8386TIP3   OH246648   3.239   3.701  11.228  0.5286 -0.2332 -0.1381
 8386TIP3    H146649   3.223   3.630  11.166 -0.0819  0.2075 -0.4986
 8386TIP3    H246650   3.265   3.775  11.173 -0.4332  0.2845  0.0835
 8387TIP3   OH246651   0.477   4.933   1.081  0.4654  0.3981 -0.1145
 8387TIP3    H146652   0.460   5.022   1.051  0.9014  1.2876  2.0518
 8387TIP3    H246653   0.545   4.900   1.022  0.6889  1.7232 -0.6276
 8388TIP3   OH246654   3.156   0.220  15.552 -0.1276  0.1302 -0.0136
 8388TIP3    H146655   3.162   0.246  15.644 -1.6332  0.5145  0.0084
 8388TIP3    H246656   3.189   0.131  15.550  0.0978  0.1848  0.8639
 8389TIP3   OH246657   4.843   5.817   3.945 -0.4757  0.6079  0.0312
 8389TIP3    H146658   4.841   5.728   3.980  0.3755  0.3557 -0.5383
 8389TIP3    H246659   4.868   5.871   4.020 -1.1347  0.3927  0.4172
 8390TIP3   OH246660   3.188   0.232   0.557  0.3903  0.2866  0.6299
 8390TIP3    H146661   3.179   0.327   0.544  1.2324  0.0449 -2.6243
 8390TIP3    H246662   3.221   0.224   0.646 -1.5029  2.9024  1.6952
 8391TIP3   OH246663   0.239   4.665  13.437  0.3049  0.8754  0.9089
 8391TIP3    H146664   0.168   4.701  13.384  0.9085  0.2781 -0.3280
 8391TIP3    H246665   0.195   4.607  13.500 -0.2498 -0.3163 -0.5204
 8392TIP3   OH246666   1.652   2.909   3.832  0.5707 -0.1558 -0.6106
 8392TIP3    H146667   1.683   2.858   3.758 -0.9452  3.1827 -3.8611
 8392TIP3    H246668   1.706   2.989   3.830 -0.6639  0.7731  0.8204
 8393TIP3   OH246669   1.027   5.871  15.384  0.0250  0.2146 -0.0598
 8393TIP3    H146670   1.066   5.786  15.406  1.0625  1.0391  1.4678
 8393TIP3    H246671   1.090   5.911  15.324  2.4243  2.0750  3.3743
 8394TIP3   OH246672   6.369   1.452  10.558  0.1268 -0.4245 -0.6164
 8394TIP3    H146673   6.294   1.404  10.522 -0.3133 -0.6252  0.5321
 8394TIP3    H246674   6.359   1.444  10.653  2.0504 -1.1694 -0.4375
 8395TIP3   OH246675   0.651   1.686   1.811 -0.0724  0.2159 -0.2573
 8395TIP3    H146676   0.719   1.646   1.865 -0.2618 -0.0550 -0.2196
 8395TIP3    H246677   0.690   1.693   1.724  1.0215  2.5884  0.3438
 8396TIP3   OH246678   1.905   4.851  11.358 -0.1622  0.1979 -0.8485
 8396TIP3    H146679   1.818   4.816  11.378  0.0729 -0.3176 -0.7163
 8396TIP3    H246680   1.962   4.810  11.422 -0.2029  2.5485  0.8072
 8397TIP3   OH246681   6.813   1.963  15.599  0.5642 -0.2298 -0.4165
 8397TIP3    H146682   6.799   2.019  15.675  0.2062  0.5995 -1.0833
 8397TIP3    H246683   6.813   2.023  15.524  2.7968 -0.7678 -0.9259
 8398TIP3   OH246684   0.116   1.231   4.767 -0.1378  0.3071 -0.4332
 8398TIP3    H146685   0.168   1.161   4.807 -1.1837  0.8882  2.1347
 8398TIP3    H246686   0.067   1.187   4.698 -0.6777 -1.5236  1.0248
 8399TIP3   OH246687   2.180   2.752  13.205 -0.2707  0.1408 -0.5552
 8399TIP3    H146688   2.142   2.779  13.122 -0.8952 -0.4774 -0.4720
 8399TIP3    H246689   2.218   2.666  13.188  1.0582  0.7030 -0.6197
 8400TIP3   OH246690   3.371   2.229  13.337 -0.1178  0.1372  0.3655
 8400TIP3    H146691   3.326   2.292  13.281  2.5443  0.6242 -1.4067
 8400TIP3    H246692   3.326   2.146  13.320 -0.8089  0.7101 -0.7482
 8401TIP3   OH246693   5.201   0.158  13.638 -0.2926  0.6791  0.0200
 8401TIP3    H146694   5.243   0.243  13.654 -1.3465  1.7233 -2.2779
 8401TIP3    H246695   5.182   0.124  13.725  0.0857  2.8373  1.0221
 8402TIP3   OH246696   3.764   3.943  16.928  0.1598  0.0843  0.6412
 8402TIP3    H146697   3.733   3.918  16.841  3.3649 -1.0447 -0.3211
 8402TIP3    H246698   3.740   3.869  16.984  0.2032 -0.2758  0.1893
 8403TIP3   OH246699   0.218   0.285   3.160  0.5232 -0.2053 -0.5840
 8403TIP3    H146700   0.162   0.363   3.164 -0.8525 -1.0541 -2.1537
 8403TIP3    H246701   0.240   0.266   3.251 -2.9707 -0.6719  0.2808
 8404TIP3   OH246702   5.289   3.839  10.510 -0.1055 -0.2421 -0.0752
 8404TIP3    H146703   5.383   3.838  10.490 -0.3083  1.7830 -1.3760
 8404TIP3    H246704   5.260   3.926  10.484 -2.1375 -0.4021  1.4290
 8405TIP3   OH246705   5.196   6.563  13.020  0.8084  0.1373  0.0185
 8405TIP3    H146706   5.112   6.547  13.061  0.4311  2.5450  0.3101
 8405TIP3    H246707   5.194   6.510  12.940 -1.3731  0.8213 -0.4425
 8406TIP3   OH246708   1.601   4.514   6.203  0.1870  0.0027 -0.0156
 8406TIP3    H146709   1.613   4.460   6.125 -0.3179  1.3175 -1.0387
 8406TIP3    H246710   1.516   4.558   6.190 -0.1657 -0.1541  1.5261
 8407TIP3   OH246711   4.802   5.302  13.681 -0.4658 -0.3034  0.3183
 8407TIP3    H146712   4.726   5.320  13.737 -0.5017  1.4137 -0.2270
 8407TIP3    H246713   4.777   5.337  13.596  0.9475  0.3021  0.1392
 8408TIP3   OH246714   5.504   4.993  14.817 -0.5676 -0.7794 -0.0882
 8408TIP3    H146715   5.426   5.040  14.787 -0.7810 -0.6824  0.5994
 8408TIP3    H246716   5.570   5.011  14.750 -1.3191 -1.3940 -1.0259
 8409TIP3   OH246717   6.376   4.540  13.918 -0.9602  0.1866 -0.5234
 8409TIP3    H146718   6.346   4.461  13.873 -0.5566 -1.0368  1.2561
 8409TIP3    H246719   6.298   4.574  13.962 -0.5603 -0.9710  1.1712
 8410TIP3   OH246720   6.235   5.178  14.065 -0.3675  0.0330  0.5404
 8410TIP3    H146721   6.234   5.270  14.088 -1.0823  0.6078 -1.5152
 8410TIP3    H246722   6.143   5.152  14.064 -0.5436  0.4017 -2.5724
 8411TIP3   OH246723   6.806   3.030  12.723 -0.3182 -0.2788 -0.0734
 8411TIP3    H146724   6.861   2.967  12.676  0.6465 -1.3835  2.4000
 8411TIP3    H246725   6.741   2.977  12.768  0.6823  0.3776  2.2725
 8412TIP3   OH246726   5.290   0.252   2.244  0.3510  0.1915  0.0988
 8412TIP3    H146727   5.372   0.301   2.253  0.7549 -0.6157  0.9506
 8412TIP3    H246728   5.304   0.172   2.295 -0.2796 -0.8470 -1.2902
 8413TIP3   OH246729   5.838   2.151  14.651 -0.2296  0.7772  0.0874
 8413TIP3    H146730   5.759   2.102  14.631 -0.7406  1.1010  1.2365
 8413TIP3    H246731   5.844   2.216  14.581  1.2254 -1.6965 -2.2909
 8414TIP3   OH246732   4.162   0.586  13.896 -0.1387 -0.2360  0.1941
 8414TIP3    H146733   4.162   0.492  13.914  0.4778 -0.2170  0.3360
 8414TIP3    H246734   4.176   0.593  13.802  4.1202 -0.2941  0.5988
 8415TIP3   OH246735   1.746   3.017  14.973  0.5085  0.3308 -0.0807
 8415TIP3    H146736   1.800   2.974  14.906  0.7274 -0.6051  0.6744
 8415TIP3    H246737   1.657   2.986  14.955  0.4229  0.8023 -0.4907
 8416TIP3   OH246738   0.000   4.718  14.640 -0.2795 -0.1902 -0.4074
 8416TIP3    H146739  -0.065   4.779  14.675  0.8195  0.4604  0.5968
 8416TIP3    H246740  -0.045   4.634  14.634 -0.5114 -0.4139  2.8373
 8417TIP3   OH246741   3.865   0.742   1.338  0.4065 -0.3229  0.8010
 8417TIP3    H146742   3.942   0.790   1.310 -1.3366  1.0063 -2.1716
 8417TIP3    H246743   3.810   0.807   1.383  0.7144 -1.1424  2.4682
 8418TIP3   OH246744   4.810   5.788  14.291 -0.2390 -0.6577 -0.4568
 8418TIP3    H146745   4.849   5.704  14.269  0.1296 -0.5099 -0.3632
 8418TIP3    H246746   4.806   5.789  14.387 -1.9617 -1.3569 -0.4725
 8419TIP3   OH246747   6.376   6.295  12.138 -0.1717  0.0235  0.3793
 8419TIP3    H146748   6.391   6.241  12.061 -2.2865  0.9761 -0.7917
 8419TIP3    H246749   6.418   6.379  12.118  1.2144 -0.4230  1.2666
 8420TIP3   OH246750   2.607   6.199   6.929  0.0671 -0.1833 -0.0350
 8420TIP3    H146751   2.523   6.182   6.972 -0.8212  1.8340 -0.8251
 8420TIP3    H246752   2.607   6.142   6.852 -0.4466 -0.3771  0.1073
 8421TIP3   OH246753   3.505   6.425  12.133 -0.1461 -0.1435  0.6064
 8421TIP3    H146754   3.553   6.479  12.196 -0.3887  1.1532 -0.2856
 8421TIP3    H246755   3.539   6.336  12.147  1.2096  0.4446  1.2111
 8422TIP3   OH246756   6.836   1.221  16.520  0.4032  0.2432  0.7244
 8422TIP3    H146757   6.762   1.281  16.531 -1.1517 -1.6039  0.8447
 8422TIP3    H246758   6.845   1.211  16.425 -0.4077 -0.5498  0.7179
 8423TIP3   OH246759   5.934   1.597  14.723 -0.2826  0.1805  0.0446
 8423TIP3    H146760   5.999   1.659  14.689 -0.7787  0.9570  0.4621
 8423TIP3    H246761   5.941   1.604  14.818 -1.1468  0.4771  0.0962
 8424TIP3   OH246762   6.827   4.290  14.762  0.6053 -0.1334 -0.2141
 8424TIP3    H146763   6.846   4.353  14.831 -0.4275 -0.6975  0.6057
 8424TIP3    H246764   6.777   4.341  14.697 -0.3279 -0.1180  0.4971
 8425TIP3   OH246765   5.876   2.696  10.872 -0.0984 -0.2280  0.3726
 8425TIP3    H146766   5.871   2.642  10.951 -2.2405  0.7966  1.0063
 8425TIP3    H246767   5.824   2.774  10.893  0.6220  0.8245 -1.4947
 8426TIP3   OH246768   4.178   5.018  15.288 -0.0089  0.2644 -0.2555
 8426TIP3    H146769   4.178   5.079  15.362 -0.3458 -1.0870  0.9171
 8426TIP3    H246770   4.245   5.051  15.228  1.9972  0.1126  1.7707
 8427TIP3   OH246771   3.349   2.423  14.258 -0.0213 -0.1974 -0.6655
 8427TIP3    H146772   3.386   2.334  14.262  0.6777  0.0829 -0.7387
 8427TIP3    H246773   3.255   2.410  14.265  0.1740 -0.7831  2.2720
 8428TIP3   OH246774   2.737   3.790   6.280  0.2084  0.0322  0.5672
 8428TIP3    H146775   2.732   3.823   6.190 -1.1722 -3.1944 -0.6713
 8428TIP3    H246776   2.698   3.859   6.333 -1.1379  1.0661 -1.6306
 8429TIP3   OH246777   0.621   2.349   6.413 -0.4699  0.0442  0.2045
 8429TIP3    H146778   0.587   2.288   6.347  0.2612  0.0542 -0.1803
 8429TIP3    H246779   0.555   2.345   6.483 -1.8846  0.9359 -1.0053
 8430TIP3   OH246780   3.424   3.933  12.520  0.6577  0.0859 -0.2832
 8430TIP3    H146781   3.497   3.884  12.482  0.1455 -0.7012 -0.2691
 8430TIP3    H246782   3.462   3.981  12.594  1.2670  0.1173 -0.6142
 8431TIP3   OH246783   1.011   5.168   5.743 -0.1428  0.1431  0.3643
 8431TIP3    H146784   0.993   5.213   5.826 -0.1004 -0.8088  0.8981
 8431TIP3    H246785   0.944   5.100   5.738 -0.3996  0.4499 -0.5896
 8432TIP3   OH246786   3.560   0.959  11.709 -0.4411  0.4960  0.6331
 8432TIP3    H146787   3.505   0.881  11.700  1.1013 -0.6153  0.5154
 8432TIP3    H246788   3.635   0.942  11.653  0.2446  1.7851  1.1181
 8433TIP3   OH246789   4.785   1.867   1.149  0.0632  0.2508 -0.4127
 8433TIP3    H146790   4.848   1.937   1.130  0.4714  0.3126  0.9964
 8433TIP3    H246791   4.751   1.841   1.064  2.0698  0.1562 -1.2523
 8434TIP3   OH246792   4.575   2.525   5.145  0.2975 -0.2256 -0.0072
 8434TIP3    H146793   4.528   2.593   5.097  0.8793 -0.1080 -0.4251
 8434TIP3    H246794   4.599   2.461   5.077 -0.3286 -0.8966  0.3965
 8435TIP3   OH246795   2.181   4.736  14.522  0.6344 -0.0942 -0.0682
 8435TIP3    H146796   2.220   4.807  14.574 -1.0522  0.4211  0.5347
 8435TIP3    H246797   2.201   4.760  14.431 -2.8103  3.1681 -0.2316
 8436TIP3   OH246798   1.753   1.616   1.938 -0.3936 -0.3242  0.1525
 8436TIP3    H146799   1.722   1.526   1.925 -1.5786 -0.2171  1.8890
 8436TIP3    H246800   1.673   1.667   1.951  0.3251  0.7766  0.3284
 8437TIP3   OH246801   6.515   3.739   2.849 -0.5258  0.0850  0.2491
 8437TIP3    H146802   6.564   3.814   2.816 -0.0617  0.7867  2.3351
 8437TIP3    H246803   6.452   3.719   2.781  0.9898  0.7737 -1.4216
 8438TIP3   OH246804   6.692   3.091   3.424 -0.5106 -0.2219  0.3802
 8438TIP3    H146805   6.615   3.033   3.425  0.4153 -1.5045  0.0501
 8438TIP3    H246806   6.657   3.177   3.402 -1.6960 -1.0354 -1.1487
 8439TIP3   OH246807   0.205   0.706   4.533  0.0462 -0.1006  0.2575
 8439TIP3    H146808   0.258   0.631   4.506 -0.1784  0.2051 -1.1413
 8439TIP3    H246809   0.216   0.770   4.462 -0.7378  0.6963  0.8251
 8440TIP3   OH246810   2.144   4.965   2.229  0.4286  0.0924 -0.0108
 8440TIP3    H146811   2.090   4.892   2.200 -0.5897  0.2882  1.3038
 8440TIP3    H246812   2.118   5.038   2.172  0.0943 -0.1006 -0.1081
 8441TIP3   OH246813   6.592   2.147  15.145 -0.2803 -0.1219  0.2358
 8441TIP3    H146814   6.565   2.076  15.204 -1.0340  0.4975  0.6623
 8441TIP3    H246815   6.668   2.112  15.098  0.1999 -0.7097  1.4165
 8442TIP3   OH246816   4.168   0.723   1.369  0.0073  0.6068 -0.1855
 8442TIP3    H146817   4.226   0.797   1.386  0.7503  0.1542 -0.6650
 8442TIP3    H246818   4.128   0.703   1.454  0.5909  0.8989  0.1645
 8443TIP3   OH246819   4.559   3.054  11.719 -0.3902 -0.2328  0.8442
 8443TIP3    H146820   4.588   3.043  11.628  1.1382 -2.8959  1.5525
 8443TIP3    H246821   4.622   3.115  11.757  0.6944 -1.2393  0.7578
 8444TIP3   OH246822   4.309   2.087   3.416 -0.0226 -0.4497 -0.1255
 8444TIP3    H146823   4.360   2.012   3.446 -0.9552 -1.2206 -0.4234
 8444TIP3    H246824   4.260   2.116   3.493 -2.0750 -2.1503 -0.7025
 8445TIP3   OH246825   3.498   1.903   1.290  0.1833 -0.3761 -0.3526
 8445TIP3    H146826   3.527   1.918   1.200 -0.1468  1.8717 -0.1584
 8445TIP3    H246827   3.551   1.830   1.322  2.1664  0.4794 -1.5435
 8446TIP3   OH246828   0.383   2.358   6.065 -0.1518  0.2413  0.0391
 8446TIP3    H146829   0.296   2.317   6.070 -0.6408  1.3960  2.2427
 8446TIP3    H246830   0.444   2.289   6.090 -0.1423 -1.0776 -3.1049
 8447TIP3   OH246831   5.509   4.844  16.969  0.0112 -0.4044 -0.2699
 8447TIP3    H146832   5.497   4.856  17.064 -0.5854 -0.4923 -0.3319
 8447TIP3    H246833   5.553   4.925  16.941  1.5970 -1.0196  0.3246
 8448TIP3   OH246834   1.472   2.543   5.440 -0.2410 -0.1214 -0.2890
 8448TIP3    H146835   1.557   2.526   5.481  0.1294  1.9248 -0.0900
 8448TIP3    H246836   1.409   2.505   5.501  0.4761 -0.5152  0.2308
 8449TIP3   OH246837   1.998   1.387  14.301 -0.2106  0.3817  0.4631
 8449TIP3    H146838   1.933   1.324  14.268  0.1418  0.2808 -0.0600
 8449TIP3    H246839   1.966   1.472  14.271 -0.4641  0.4066  0.8025
 8450TIP3   OH246840   4.787   6.141  13.382 -0.4106 -0.0239  0.0413
 8450TIP3    H146841   4.793   6.215  13.443  0.4629 -0.7550  0.8680
 8450TIP3    H246842   4.713   6.089  13.414 -0.5541  0.0924 -0.0979
 8451TIP3   OH246843   5.250   4.301   5.534 -0.4832  0.1331 -0.0064
 8451TIP3    H146844   5.260   4.392   5.505  0.4953 -0.3082 -1.1202
 8451TIP3    H246845   5.328   4.283   5.587  0.5067 -0.7240 -1.6751
 8452TIP3   OH246846   3.806   3.878   3.842 -0.2464  0.4563  0.0978
 8452TIP3    H146847   3.872   3.823   3.800 -0.0178 -0.0100  1.0493
 8452TIP3    H246848   3.725   3.860   3.794 -0.1942 -0.7824  0.4353
 8453TIP3   OH246849   0.416   4.799   1.904  0.8435  0.3394  0.1264
 8453TIP3    H146850   0.506   4.795   1.871  0.6638 -2.9734 -0.3322
 8453TIP3    H246851   0.420   4.861   1.976  2.9298  2.1117 -1.3910
 8454TIP3   OH246852   3.571   1.065   0.312  0.3770 -0.4197 -0.4211
 8454TIP3    H146853   3.553   0.994   0.374  2.1764 -0.5304  0.0115
 8454TIP3    H246854   3.580   1.021   0.227 -1.3473 -0.3445 -0.6957
 8455TIP3   OH246855   0.450   3.787   5.882  0.0033 -1.0026 -0.2017
 8455TIP3    H146856   0.445   3.785   5.978 -2.0645 -3.0337 -0.2473
 8455TIP3    H246857   0.511   3.858   5.862 -1.9273  1.6827  2.5165
 8456TIP3   OH246858   1.318   4.923  12.247 -0.2050 -0.1515  0.1175
 8456TIP3    H146859   1.368   4.844  12.225 -0.3168 -0.2416  0.1872
 8456TIP3    H246860   1.263   4.896  12.320 -0.7290 -0.1980 -0.2864
 8457TIP3   OH246861   1.331   1.084  13.236  0.1722  0.1246 -0.6265
 8457TIP3    H146862   1.254   1.036  13.267 -0.7140  1.7450 -0.1996
 8457TIP3    H246863   1.300   1.134  13.162  0.6457  1.2805 -0.0649
 8458TIP3   OH246864   3.197   3.056   1.800  0.1617  0.1942 -0.0949
 8458TIP3    H146865   3.162   3.100   1.878  0.0294 -1.8582  1.0775
 8458TIP3    H246866   3.247   3.124   1.755 -1.9531  2.1523  0.3253
 8459TIP3   OH246867   5.174   1.646  11.050  0.7054 -0.4110 -0.0509
 8459TIP3    H146868   5.087   1.611  11.069  1.6840 -2.4922  0.9777
 8459TIP3    H246869   5.188   1.628  10.958 -0.4713  1.2732 -0.6076
 8460TIP3   OH246870   1.564   1.022   6.146 -0.2236  0.6987  0.4477
 8460TIP3    H146871   1.578   0.948   6.206 -0.2086  0.0082 -0.3805
 8460TIP3    H246872   1.477   1.055   6.169 -1.2625 -1.0619 -0.6626
 8461TIP3   OH246873   1.149   4.002  15.079  0.0312  0.5141  0.8990
 8461TIP3    H146874   1.213   3.955  15.026  0.0363  0.8905  0.5733
 8461TIP3    H246875   1.142   3.950  15.159  1.1095  0.7291  1.1513
 8462TIP3   OH246876   1.375   1.178   3.784 -0.3444  0.4597 -0.0091
 8462TIP3    H146877   1.385   1.162   3.878 -0.3234 -1.3232 -0.2697
 8462TIP3    H246878   1.353   1.092   3.748  0.2541  0.9859 -1.7151
 8463TIP3   OH246879   5.677   3.092   1.155 -0.0055 -0.2069 -0.1534
 8463TIP3    H146880   5.599   3.107   1.103 -3.0237 -2.4276  3.2734
 8463TIP3    H246881   5.677   2.998   1.173  2.7813 -0.1014  1.0657
 8464TIP3   OH246882   5.864   3.505  11.364  0.0630  0.0603  0.4769
 8464TIP3    H146883   5.895   3.576  11.419 -0.6843  0.2316  0.6936
 8464TIP3    H246884   5.915   3.429  11.391 -0.3107  0.1403  1.4317
 8465TIP3   OH246885   0.952   3.411  12.642  0.2771 -0.2911  0.0163
 8465TIP3    H146886   0.872   3.445  12.603 -0.3240  2.1815  3.0260
 8465TIP3    H246887   0.924   3.335  12.694  0.2719 -0.6603 -0.5170
 8466TIP3   OH246888   1.185   1.095  16.673 -0.3889  0.3770  0.0377
 8466TIP3    H146889   1.190   1.138  16.758  0.5396  0.3113  0.0212
 8466TIP3    H246890   1.114   1.031  16.683 -3.3491  3.3270 -0.6172
 8467TIP3   OH246891   4.224   3.029   2.553  0.5113 -0.2609  0.8028
 8467TIP3    H146892   4.186   3.104   2.600  0.9522 -0.9579  2.3636
 8467TIP3    H246893   4.149   2.978   2.523  0.2097  0.6831 -0.0911
 8468TIP3   OH246894   2.696   6.555  13.109 -0.4361  0.0347 -0.0747
 8468TIP3    H146895   2.639   6.527  13.180  0.2813 -0.6086  0.2713
 8468TIP3    H246896   2.733   6.474  13.074  1.0376  0.4745  0.3827
 8469TIP3   OH246897   2.976   6.089   1.799  0.2277  0.3125  0.2763
 8469TIP3    H146898   2.917   6.013   1.798 -3.0922  2.6287 -1.5583
 8469TIP3    H246899   3.018   6.088   1.713 -0.5294  0.9641 -0.1183
 8470TIP3   OH246900   3.920   5.018  11.843  0.0893 -0.2592 -0.7784
 8470TIP3    H146901   3.940   5.105  11.877 -2.2525 -0.8364  2.6267
 8470TIP3    H246902   3.998   4.993  11.793  2.5164  2.1800  1.4480
 8471TIP3   OH246903   4.643   0.961  14.260 -0.5568 -0.5195  0.1375
 8471TIP3    H146904   4.620   0.899  14.191  0.0482 -0.3526 -0.2169
 8471TIP3    H246905   4.647   1.046  14.217  1.1007 -0.5841  0.0802
 8472TIP3   OH246906   2.802   2.532   1.891 -0.2514 -0.1030  0.0822
 8472TIP3    H146907   2.730   2.513   1.951 -0.2292 -2.1712 -0.4645
 8472TIP3    H246908   2.872   2.567   1.947 -0.0448 -2.4375  1.4138
 8473TIP3   OH246909   3.909   3.389  15.579 -0.5291 -0.0676  1.0524
 8473TIP3    H146910   3.854   3.334  15.635  0.3481 -1.8366  0.2530
 8473TIP3    H246911   3.953   3.328  15.521 -0.6063  1.6016 -0.8977
 8474TIP3   OH246912   5.136   5.440   1.497 -0.5063  0.4507  0.1808
 8474TIP3    H146913   5.046   5.463   1.521 -0.0613  1.4477  0.9896
 8474TIP3    H246914   5.187   5.516   1.525  0.5962 -0.1462 -0.1948
 8475TIP3   OH246915   3.874   3.384   1.565 -0.4194  0.1201 -0.1595
 8475TIP3    H146916   3.849   3.473   1.538 -2.2972 -0.2308  0.3438
 8475TIP3    H246917   3.865   3.384   1.660 -0.0441 -0.5026 -0.1207
 8476TIP3   OH246918   1.658   5.174  14.538  0.6877  0.0182  0.7535
 8476TIP3    H146919   1.746   5.134  14.538  0.2418 -1.1138 -1.4837
 8476TIP3    H246920   1.667   5.251  14.483  0.1274 -0.5662 -0.1869
 8477TIP3   OH246921   2.629   5.729   0.493 -0.3554 -0.0426 -0.7593
 8477TIP3    H146922   2.653   5.648   0.449 -3.2791 -0.0244 -2.7098
 8477TIP3    H246923   2.596   5.702   0.578 -0.3682 -0.8031 -1.0009
 8478TIP3   OH246924   0.647   1.031   1.844 -0.0362 -0.0881 -0.7951
 8478TIP3    H146925   0.588   1.082   1.789 -0.7905  0.2265  0.2640
 8478TIP3    H246926   0.590   0.997   1.913  0.8551 -0.6046 -0.3099
 8479TIP3   OH246927   0.107   1.945   4.258  0.1952  0.5926 -0.1805
 8479TIP3    H146928   0.147   2.029   4.235  0.7572  0.7608  1.2957
 8479TIP3    H246929   0.065   1.916   4.177  2.6147  0.7938 -1.6217
 8480TIP3   OH246930   0.567   3.689  11.166  0.0652 -0.0229 -0.4673
 8480TIP3    H146931   0.649   3.653  11.202 -0.0493 -0.6378 -0.8020
 8480TIP3    H246932   0.596   3.752  11.100  0.2664 -0.1294 -0.4810
 8481TIP3   OH246933   2.252   4.783  15.172 -0.5990 -0.0375  0.5348
 8481TIP3    H146934   2.335   4.776  15.219  0.1219 -2.3991 -0.9256
 8481TIP3    H246935   2.251   4.707  15.113 -4.2416 -0.6887  1.1872
 8482TIP3   OH246936   2.677   4.480  12.756  0.5657  0.1114  0.0624
 8482TIP3    H146937   2.717   4.544  12.698 -2.2803  1.1884 -0.8955
 8482TIP3    H246938   2.690   4.396  12.712 -3.1699  1.0627 -3.4475
 8483TIP3   OH246939   6.461   6.261  14.770 -0.0416  0.0018 -0.0288
 8483TIP3    H146940   6.437   6.352  14.788  0.5926  0.7707 -2.6630
 8483TIP3    H246941   6.430   6.213  14.847 -1.6059  2.2135  0.8416
 8484TIP3   OH246942   4.960   4.791  15.398 -0.5421  0.2329 -0.0897
 8484TIP3    H146943   4.956   4.751  15.485 -0.2662 -1.5173 -0.8513
 8484TIP3    H246944   4.880   4.763  15.355  0.4811 -1.0129 -1.2481
 8485TIP3   OH246945   5.101   0.116   3.802 -0.3306  0.2819  0.2094
 8485TIP3    H146946   5.016   0.073   3.808  0.5868 -1.4676  1.8380
 8485TIP3    H246947   5.097   0.164   3.720 -1.5792 -2.7964 -1.7448
 8486TIP3   OH246948   0.289   3.563   1.912  0.4038 -0.1105  0.3504
 8486TIP3    H146949   0.336   3.629   1.860  0.0456 -0.3701 -0.3094
 8486TIP3    H246950   0.358   3.508   1.949  0.7316  0.8495  1.2142
 8487TIP3   OH246951   1.029   5.457   6.139  0.1111  0.1707 -0.2426
 8487TIP3    H146952   1.112   5.436   6.094  0.4230  1.3071 -0.2261
 8487TIP3    H246953   1.039   5.548   6.167 -1.2659  0.4183 -0.4855
 8488TIP3   OH246954   1.811   4.271  12.877 -0.4314  0.1590  0.1779
 8488TIP3    H146955   1.783   4.250  12.788  0.9276 -0.2145 -0.1933
 8488TIP3    H246956   1.835   4.186  12.915 -2.4355  0.1117  1.4535
 8489TIP3   OH246957   2.436   1.168  16.205  0.1126 -0.2984 -0.0879
 8489TIP3    H146958   2.477   1.240  16.254 -1.4218  0.7307 -0.2182
 8489TIP3    H246959   2.463   1.089  16.251  1.8836  0.3451  0.0491
 8490TIP3   OH246960   2.117   2.469  12.774 -0.2739 -0.7296 -0.0744
 8490TIP3    H146961   2.164   2.529  12.716 -1.1529 -0.7698 -0.8444
 8490TIP3    H246962   2.033   2.456  12.732 -0.1243 -2.4903  0.1065
 8491TIP3   OH246963   5.037   6.460  13.424  0.5823 -0.2435 -0.0232
 8491TIP3    H146964   4.994   6.519  13.362 -0.2712  1.0356  1.6838
 8491TIP3    H246965   5.069   6.387  13.371 -1.2205  0.1579 -1.7641
 8492TIP3   OH246966   0.859   2.603  16.896  0.1739  0.6359 -0.3890
 8492TIP3    H146967   0.866   2.630  16.805  0.7559 -1.3253 -0.9571
 8492TIP3    H246968   0.895   2.515  16.899  0.5495  0.7888  1.8220
 8493TIP3   OH246969   6.222   4.586   1.298 -0.0301 -0.6531  0.0924
 8493TIP3    H146970   6.249   4.638   1.222 -0.5263 -1.4665 -0.6665
 8493TIP3    H246971   6.173   4.647   1.353  1.8148  0.4052  0.6532
 8494TIP3   OH246972   4.518   3.584   2.867 -0.3864  0.3623 -0.2913
 8494TIP3    H146973   4.568   3.665   2.876  0.6345 -0.1449 -1.2109
 8494TIP3    H246974   4.532   3.538   2.950  0.2785  0.4363 -0.3627
 8495TIP3   OH246975   5.916   6.106   5.925 -0.1958 -0.0274  0.3759
 8495TIP3    H146976   5.973   6.112   6.002 -1.2790  0.9851  1.1364
 8495TIP3    H246977   5.875   6.020   5.934  1.2424 -0.8134 -0.2372
 8496TIP3   OH246978   3.660   4.599  15.893 -0.5036 -0.4590 -0.0782
 8496TIP3    H146979   3.622   4.657  15.827 -0.0964 -0.0276  0.0548
 8496TIP3    H246980   3.588   4.578  15.952 -0.8102 -0.6395 -0.5160
 8497TIP3   OH246981   0.447   0.303   1.619 -0.3706 -0.0914  0.2049
 8497TIP3    H146982   0.430   0.249   1.542 -0.3186 -0.2844  0.3277
 8497TIP3    H246983   0.375   0.366   1.621  0.7115  1.2512 -1.1755
 8498TIP3   OH246984   2.504   1.614   4.209  0.4123 -0.6415 -0.4617
 8498TIP3    H146985   2.458   1.617   4.293 -1.3326  0.5442 -1.3714
 8498TIP3    H246986   2.596   1.603   4.232  0.2547  1.5789  1.7446
 8499TIP3   OH246987   1.577   1.113   3.095 -0.2029  0.0366  0.3432
 8499TIP3    H146988   1.507   1.164   3.135 -0.2314 -0.3569  0.7996
 8499TIP3    H246989   1.624   1.074   3.169 -0.0346 -0.4030  0.0089
 8500TIP3   OH246990   2.785   5.404  13.492 -0.0108 -0.4508  0.0206
 8500TIP3    H146991   2.813   5.392  13.401  0.2629  0.9937 -0.1118
 8500TIP3    H246992   2.696   5.437  13.485  0.3912  0.7188  0.2178
 8501TIP3   OH246993   2.398   4.063  11.159  0.2290  0.5534  0.1808
 8501TIP3    H146994   2.334   4.130  11.137  1.7730  1.6649 -1.2084
 8501TIP3    H246995   2.474   4.084  11.104  1.6400 -0.9167  1.4763
 8502TIP3   OH246996   6.682   1.889   1.593  0.0503 -0.9299  0.1388
 8502TIP3    H146997   6.716   1.970   1.632 -0.6860 -1.4811  2.0875
 8502TIP3    H246998   6.706   1.821   1.656  0.3212 -2.1762 -1.2802
 8503TIP3   OH246999   2.539   5.116  14.692 -0.5134 -0.2683  1.1028
 8503TIP3    H147000   2.521   5.028  14.725 -0.5174 -0.6868  0.0302
 8503TIP3    H247001   2.622   5.141  14.732  0.3208 -1.4333  0.1403
 8504TIP3   OH247002   0.401   0.646   3.166  0.3207  0.1295 -0.1899
 8504TIP3    H147003   0.318   0.602   3.147  0.7480 -0.6134 -0.3912
 8504TIP3    H247004   0.377   0.737   3.182 -0.5348 -0.0788 -0.2280
 8505TIP3   OH247005   0.417   5.688  11.241 -0.5834 -0.3584  0.3525
 8505TIP3    H147006   0.326   5.716  11.230 -0.0091  2.0711  1.2315
 8505TIP3    H247007   0.419   5.645  11.327 -1.0051 -0.9756  0.0598
 8506TIP3   OH247008   4.160   1.981  14.422 -0.3995 -0.0700 -0.7776
 8506TIP3    H147009   4.086   2.006  14.477 -1.7477 -2.2707 -1.4250
 8506TIP3    H247010   4.159   2.043  14.350 -2.1887 -0.5518 -1.2075
 8507TIP3   OH247011   6.319   4.082  12.346 -0.7277  0.3609  0.4327
 8507TIP3    H147012   6.224   4.091  12.354 -0.8203 -0.2343  0.0102
 8507TIP3    H247013   6.339   3.999  12.388 -0.5681 -0.1846 -0.6904
 8508TIP3   OH247014   4.219   3.908   1.478  0.5008  0.4359 -0.2895
 8508TIP3    H147015   4.294   3.962   1.454  2.1559 -0.5785  2.1561
 8508TIP3    H247016   4.211   3.919   1.573 -2.2453  0.1976 -0.4237
 8509TIP3   OH247017   3.819   0.109   2.058 -1.0404  0.7931 -0.1442
 8509TIP3    H147018   3.869   0.096   1.977  0.1178  0.7704  0.5651
 8509TIP3    H247019   3.727   0.101   2.030 -0.6555 -2.5792 -0.9376
 8510TIP3   OH247020   2.160   3.903   1.872  0.6693 -0.0704 -0.1460
 8510TIP3    H147021   2.201   3.829   1.916  2.3932  0.2672 -1.0938
 8510TIP3    H247022   2.148   3.969   1.941 -0.3869 -1.0016  0.5884
 8511TIP3   OH247023   5.220   0.713   4.572 -0.0584  0.0812  0.5225
 8511TIP3    H147024   5.140   0.697   4.622  1.2845 -2.1679  2.1211
 8511TIP3    H247025   5.224   0.640   4.511  0.2947  0.7359 -0.2554
 8512TIP3   OH247026   0.718   5.351  15.364  0.1560 -0.1354  0.0831
 8512TIP3    H147027   0.752   5.302  15.439  3.2717 -0.0927 -1.1850
 8512TIP3    H247028   0.703   5.284  15.297 -2.0823 -0.0979  0.4659
 8513TIP3   OH247029   6.457   2.461   0.349 -0.2577 -0.5060  0.0112
 8513TIP3    H147030   6.372   2.418   0.341 -0.4278 -0.0294 -0.7891
 8513TIP3    H247031   6.516   2.410   0.293 -0.6292  0.6974 -1.5437
 8514TIP3   OH247032   3.795   3.911  15.858  0.0035 -0.4877 -0.1951
 8514TIP3    H147033   3.886   3.901  15.886 -0.5616 -0.4926  1.7861
 8514TIP3    H247034   3.745   3.858  15.920 -1.8048  3.3886  2.1155
 8515TIP3   OH247035   3.933   1.360  15.359  0.0417 -0.6457 -0.0069
 8515TIP3    H147036   4.013   1.379  15.408 -0.2651  0.8000 -0.0298
 8515TIP3    H247037   3.882   1.441  15.364 -0.9659 -1.2030 -0.8696
 8516TIP3   OH247038   1.120   4.525  11.034  0.0750 -0.0869  0.0465
 8516TIP3    H147039   1.133   4.558  10.945 -0.7242 -1.2740 -0.5453
 8516TIP3    H247040   1.117   4.603  11.089  0.4876  0.6720 -0.9860
 8517TIP3   OH247041   2.436   4.641  14.761 -0.0669 -0.3192 -0.0805
 8517TIP3    H147042   2.420   4.549  14.737  0.1211 -0.6027  0.8466
 8517TIP3    H247043   2.356   4.669  14.805  0.3399 -0.4398  0.7670
 8518TIP3   OH247044   5.038   6.768  13.553 -0.1402 -0.1529  0.2304
 8518TIP3    H147045   5.026   6.837  13.488 -0.3332 -0.2814  0.1267
 8518TIP3    H247046   5.128   6.777  13.582 -0.6113  1.1773  1.3950
 8519TIP3   OH247047   3.570   0.763   0.523  0.3676  1.1246  0.0768
 8519TIP3    H147048   3.591   0.760   0.616  0.0792  0.7707  0.1330
 8519TIP3    H247049   3.479   0.792   0.520  0.0557  0.1781 -0.0431
 8520TIP3   OH247050   6.085   6.825  11.054 -0.4911  0.3838 -0.6866
 8520TIP3    H147051   6.174   6.801  11.027 -0.1721 -0.2179  0.7606
 8520TIP3    H247052   6.094   6.847  11.147 -1.1939  4.0566 -1.3584
 8521TIP3   OH247053   5.197   2.820  15.290 -0.3334  0.2036 -0.1506
 8521TIP3    H147054   5.225   2.799  15.380 -0.5563 -1.7763 -0.5083
 8521TIP3    H247055   5.277   2.849  15.247 -0.1337  0.7352  0.5480
 8522TIP3   OH247056   5.073   1.776  16.272  0.0931 -0.3294 -0.2027
 8522TIP3    H147057   5.098   1.817  16.189 -0.3311 -0.4667 -0.3989
 8522TIP3    H247058   5.028   1.846  16.321 -0.3198 -0.4614 -0.3943
 8523TIP3   OH247059   0.203   5.220   2.138  0.7697  0.1001 -0.4315
 8523TIP3    H147060   0.267   5.211   2.068  0.9552  0.5970 -0.3329
 8523TIP3    H247061   0.243   5.282   2.199 -0.1996  1.1732 -0.8389
 8524TIP3   OH247062   2.042   1.015  12.499  0.3842 -0.0086 -0.0202
 8524TIP3    H147063   2.036   0.929  12.542  1.6937 -0.4028 -0.5821
 8524TIP3    H247064   1.986   1.007  12.422  0.4355 -0.3328 -0.0255
 8525TIP3   OH247065   4.001   6.215   1.203 -0.3647 -0.4797  0.4437
 8525TIP3    H147066   4.088   6.217   1.244 -0.8539  1.3644  1.5152
 8525TIP3    H247067   4.011   6.267   1.123 -0.0965 -1.7319 -0.3681
 8526TIP3   OH247068   0.520   6.207   0.122 -0.0561  0.0174  0.1807
 8526TIP3    H147069   0.458   6.260   0.173  0.7403  1.4461 -0.2992
 8526TIP3    H247070   0.469   6.178   0.046 -0.5143  0.0801  0.4602
 8527TIP3   OH247071   4.052   5.788   4.026 -0.0989  0.4052 -0.3949
 8527TIP3    H147072   4.001   5.821   3.953 -1.2273  0.4743  0.4047
 8527TIP3    H247073   3.999   5.719   4.064  0.8537 -0.2134 -0.1396
 8528TIP3   OH247074   3.620   2.118  15.903 -0.1796  0.2704  0.3293
 8528TIP3    H147075   3.640   2.212  15.894 -0.4713  0.1606 -1.9957
 8528TIP3    H247076   3.666   2.092  15.983  3.3108  1.5476 -1.0342
 8529TIP3   OH247077   4.543   6.391   6.028  0.4250  0.6895  0.1636
 8529TIP3    H147078   4.616   6.332   6.009  0.8320  1.2958 -0.1951
 8529TIP3    H247079   4.519   6.427   5.943 -1.0867 -0.3919  0.0947
 8530TIP3   OH247080   3.630   0.599  12.365  0.3704  0.0307  0.4398
 8530TIP3    H147081   3.676   0.524  12.403  0.0369 -0.1643  0.4668
 8530TIP3    H247082   3.581   0.562  12.291 -1.0387 -0.0809  1.3988
 8531TIP3   OH247083   4.968   2.069   1.127  0.2614 -0.1554 -0.2900
 8531TIP3    H147084   4.965   2.164   1.136  1.9863 -0.0476 -0.3936
 8531TIP3    H247085   5.057   2.051   1.095  0.1820 -1.8524  0.3306
 8532TIP3   OH247086   4.204   0.110   2.640 -0.7352  0.2052 -0.5408
 8532TIP3    H147087   4.285   0.159   2.624  0.1800 -0.8409  0.6484
 8532TIP3    H247088   4.207   0.038   2.577 -0.7266  0.1428 -0.4685
 8533TIP3   OH247089   1.471   0.446   5.498  0.1472  0.5667  0.7338
 8533TIP3    H147090   1.523   0.527   5.491  3.4483 -1.4970 -2.5035
 8533TIP3    H247091   1.524   0.388   5.552 -0.2871 -0.5786 -0.0236
 8534TIP3   OH247092   5.809   1.314  16.312  0.3332  0.3620  0.5245
 8534TIP3    H147093   5.777   1.371  16.242  1.3385  0.1270 -0.1501
 8534TIP3    H247094   5.867   1.252  16.268  1.5402  0.6378  1.6507
 8535TIP3   OH247095   4.303   2.095   3.954  0.6459 -0.4979  0.3148
 8535TIP3    H147096   4.218   2.057   3.931  0.5460 -0.2275  0.2337
 8535TIP3    H247097   4.339   2.127   3.871  1.2414 -1.4338  0.2025
 8536TIP3   OH247098   5.438   5.587   3.592  0.6061 -0.0679 -0.0153
 8536TIP3    H147099   5.483   5.584   3.676  0.1900  1.1310  0.2737
 8536TIP3    H247100   5.407   5.677   3.585 -0.4081 -0.4683 -0.9048
 8537TIP3   OH247101   6.670   2.590   4.247  0.5624 -0.0283 -0.4158
 8537TIP3    H147102   6.743   2.653   4.249  0.2412  0.3340  0.0457
 8537TIP3    H247103   6.686   2.533   4.323  0.9296 -0.6011 -0.9119
 8538TIP3   OH247104   1.760   5.249   1.680 -0.4255  0.1354  0.3117
 8538TIP3    H147105   1.783   5.186   1.613 -0.8223 -1.2064  1.3983
 8538TIP3    H247106   1.722   5.197   1.751 -1.0439  1.6171  1.1265
 8539TIP3   OH247107   3.222   0.734   4.963  0.1801 -0.1101  0.3662
 8539TIP3    H147108   3.129   0.728   4.985 -0.4160 -0.4794 -1.9656
 8539TIP3    H247109   3.223   0.773   4.875  2.1801 -0.8154  0.0349
 8540TIP3   OH247110   5.144   1.188   5.660  0.1767 -0.1803 -0.1719
 8540TIP3    H147111   5.154   1.140   5.743 -1.6474 -0.0664  0.1589
 8540TIP3    H247112   5.187   1.272   5.676 -0.4239 -0.0317  0.8032
 8541TIP3   OH247113   1.367   2.883   6.237  0.2018 -0.6612  0.0136
 8541TIP3    H147114   1.332   2.846   6.318 -0.6112 -1.2105 -0.5596
 8541TIP3    H247115   1.339   2.821   6.169  0.3031  0.1223 -0.7625
 8542TIP3   OH247116   1.288   5.628   1.208  0.2972 -0.1191  0.5635
 8542TIP3    H147117   1.327   5.712   1.233  1.4600 -0.2369 -0.6902
 8542TIP3    H247118   1.194   5.644   1.209  0.4853  1.1106  0.6913
 8543TIP3   OH247119   0.638   3.157  14.802 -0.2728  0.3441 -0.4759
 8543TIP3    H147120   0.698   3.227  14.827  3.5851 -2.7769  0.0273
 8543TIP3    H247121   0.606   3.121  14.885 -0.8467  0.3865 -0.6712
 8544TIP3   OH247122   6.630   2.080   2.449 -0.7855 -0.5321 -0.3898
 8544TIP3    H147123   6.575   2.157   2.438 -1.7137 -1.2030 -0.5771
 8544TIP3    H247124   6.682   2.076   2.368 -0.5545  0.0171 -0.2754
 8545TIP3   OH247125   1.427   2.327   1.461  0.7912 -0.0770  0.1007
 8545TIP3    H147126   1.520   2.340   1.476  1.1226 -1.3632 -0.6501
 8545TIP3    H247127   1.421   2.304   1.368 -0.1252 -1.1043  0.3878
 8546TIP3   OH247128   2.374   1.981   3.376 -0.1151 -0.0132  0.4396
 8546TIP3    H147129   2.289   2.023   3.391  0.4631  1.1407  0.5558
 8546TIP3    H247130   2.368   1.947   3.287 -0.9099 -0.4542  0.6519
 8547TIP3   OH247131   0.608   2.472  16.352 -0.7318 -0.2370  0.1684
 8547TIP3    H147132   0.564   2.471  16.267  0.7188 -0.5141 -0.6210
 8547TIP3    H247133   0.649   2.386  16.359  0.6793  0.4037  0.2856
 8548TIP3   OH247134   5.650   1.526  11.921  0.2229 -0.0645 -0.2504
 8548TIP3    H147135   5.589   1.583  11.968  0.7940  1.2615 -1.0380
 8548TIP3    H247136   5.653   1.563  11.832 -1.7610 -3.1702 -1.7964
 8549TIP3   OH247137   5.453   5.218   3.686  0.4383 -0.2746 -0.5850
 8549TIP3    H147138   5.427   5.310   3.672  0.9873  0.4058  2.1862
 8549TIP3    H247139   5.547   5.217   3.671  0.2196 -0.7483 -2.0314
 8550TIP3   OH247140   3.030   0.563  13.135  0.3789 -0.7539  0.6739
 8550TIP3    H147141   3.095   0.590  13.201  0.6510 -2.5512  1.2048
 8550TIP3    H247142   3.081   0.552  13.055  0.5275 -1.0728  0.8110
 8551TIP3   OH247143   5.865   6.747  16.950  0.1816 -0.2882 -0.2130
 8551TIP3    H147144   5.832   6.836  16.963  0.1023 -0.2623 -0.5806
 8551TIP3    H247145   5.882   6.715  17.038  1.5644  0.6036 -0.1151
 8552TIP3   OH247146   6.699   5.173   5.732 -0.1774 -0.1176 -0.3112
 8552TIP3    H147147   6.722   5.162   5.640 -0.3952 -1.0162 -0.2690
 8552TIP3    H247148   6.614   5.130   5.741  0.3646 -1.0349  0.5425
 8553TIP3   OH247149   6.828   5.875   4.752  0.2019 -0.2431  0.3115
 8553TIP3    H147150   6.806   5.792   4.793 -0.1145 -0.7391 -0.8332
 8553TIP3    H247151   6.850   5.853   4.661  0.8494  0.8273  0.1805
 8554TIP3   OH247152   0.135   0.374  16.285  0.4351  0.0849  0.0034
 8554TIP3    H147153   0.053   0.380  16.236 -0.4205 -2.0516  1.0507
 8554TIP3    H247154   0.126   0.441  16.353 -1.1679 -1.0841  1.0263
 8555TIP3   OH247155   3.668   5.447  16.823  0.0816 -0.1560 -0.2682
 8555TIP3    H147156   3.705   5.386  16.759  0.7597 -0.4001  0.3465
 8555TIP3    H247157   3.595   5.488  16.777  1.6749  1.0305 -1.8497
 8556TIP3   OH247158   2.841   3.143   3.528  0.4434 -0.3704  0.0781
 8556TIP3    H147159   2.753   3.132   3.563  0.2648 -2.3309 -0.8645
 8556TIP3    H247160   2.840   3.229   3.487 -0.2451  0.6887  2.1913
 8557TIP3   OH247161   2.396   5.512  13.776 -0.4163 -0.0470  0.0113
 8557TIP3    H147162   2.308   5.477  13.792  0.1728 -2.0300 -0.8637
 8557TIP3    H247163   2.381   5.584  13.713 -1.5278  0.6116  0.9874
 8558TIP3   OH247164   0.522   6.774   0.397 -0.0088  0.3688  0.6093
 8558TIP3    H147165   0.493   6.862   0.421  0.0846  1.0351 -1.4944
 8558TIP3    H247166   0.488   6.761   0.309  2.2077 -0.6306 -0.1741
 8559TIP3   OH247167   1.792   0.436  12.294 -0.6678  0.0865 -0.3188
 8559TIP3    H147168   1.715   0.379  12.301 -0.6325 -0.0495 -1.0263
 8559TIP3    H247169   1.866   0.376  12.296 -0.5529  0.2512  0.8332
 8560TIP3   OH247170   3.108   3.146   1.344  0.1865  0.5767 -0.2694
 8560TIP3    H147171   3.189   3.145   1.294  0.5086  0.5278  0.2433
 8560TIP3    H247172   3.039   3.133   1.279  0.4676  2.1295 -0.9161
 8561TIP3   OH247173   3.139   2.731  11.209  0.1677 -0.3003 -0.4130
 8561TIP3    H147174   3.101   2.814  11.237 -1.5074 -1.3380  0.4907
 8561TIP3    H247175   3.077   2.696  11.146  0.3618 -1.3315 -0.0497
 8562TIP3   OH247176   1.323   6.573   4.059 -0.0075 -0.4978  0.2002
 8562TIP3    H147177   1.393   6.563   3.995  0.2895 -0.3184  0.4929
 8562TIP3    H247178   1.368   6.573   4.144 -0.3092  0.0876  0.3666
 8563TIP3   OH247179   3.360   5.423   3.087  0.3275 -0.5233  0.0664
 8563TIP3    H147180   3.281   5.370   3.097 -0.6260  0.9163  0.6677
 8563TIP3    H247181   3.414   5.400   3.162 -0.0710 -0.6547  0.3180
 8564TIP3   OH247182   2.635   4.748   3.400  0.0442 -0.0808 -0.1952
 8564TIP3    H147183   2.658   4.816   3.464  0.0715 -0.5309  0.2707
 8564TIP3    H247184   2.703   4.757   3.332  1.3147 -1.0327  0.9023
 8565TIP3   OH247185   0.090   1.615  10.894  0.2544 -0.0076  0.3172
 8565TIP3    H147186   0.016   1.556  10.881 -0.1076  0.3596  0.6771
 8565TIP3    H247187   0.167   1.561  10.879 -0.0840 -0.4585  0.1922
 8566TIP3   OH247188   3.713   5.137  10.822 -0.2737  0.0021 -0.2511
 8566TIP3    H147189   3.745   5.225  10.802  0.8130 -0.3011  0.0842
 8566TIP3    H247190   3.708   5.093  10.737  0.9697 -0.1859 -0.2391
 8567TIP3   OH247191   0.167   2.381  11.020  0.2342  0.2460 -0.0073
 8567TIP3    H147192   0.085   2.350  11.060 -0.7183  2.0886 -0.4450
 8567TIP3    H247193   0.235   2.328  11.062 -1.0867 -0.6343  1.1108
 8568TIP3   OH247194   6.695   6.298  11.815 -0.8264  1.1386 -0.2845
 8568TIP3    H147195   6.696   6.202  11.824  2.6997  1.0837  0.3610
 8568TIP3    H247196   6.639   6.328  11.887 -0.0883 -0.4038  0.9954
 8569TIP3   OH247197   6.606   2.716  15.968 -0.2164  0.9382 -0.1411
 8569TIP3    H147198   6.560   2.676  15.894 -0.8044  0.9658  0.2021
 8569TIP3    H247199   6.697   2.692  15.955  0.2198  3.3639 -2.4883
 8570TIP3   OH247200   6.464   0.075  12.761 -0.5545 -0.2054 -0.8333
 8570TIP3    H147201   6.455  -0.018  12.782  0.9783 -0.4092 -1.0117
 8570TIP3    H247202   6.387   0.094  12.708 -0.3178 -1.6665 -1.7618
 8571TIP3   OH247203   1.587   1.382  10.558  0.6029  0.2388  0.4404
 8571TIP3    H147204   1.527   1.310  10.538  1.8213 -0.2178 -1.8008
 8571TIP3    H247205   1.530   1.452  10.591 -1.0517 -0.5123 -0.6922
 8572TIP3   OH247206   0.498   4.592  11.409 -0.3839 -0.0994  0.0208
 8572TIP3    H147207   0.414   4.637  11.419 -0.8004 -0.6850 -0.7608
 8572TIP3    H247208   0.498   4.527  11.480 -1.4983 -1.4450 -1.1543
 8573TIP3   OH247209   4.959   0.690  12.256 -0.4801  0.2669 -0.4888
 8573TIP3    H147210   4.932   0.598  12.253 -2.0717  0.5123  2.5816
 8573TIP3    H247211   4.909   0.732  12.186 -0.7118 -0.9649 -1.0991
 8574TIP3   OH247212   2.248   1.397  16.788 -0.1278 -0.3013  0.0786
 8574TIP3    H147213   2.306   1.422  16.717  1.4978  0.4581  1.6038
 8574TIP3    H247214   2.163   1.432  16.764  0.0350 -1.2876 -2.1294
 8575TIP3   OH247215   2.116   2.191  13.930  0.3352 -0.2949 -0.0404
 8575TIP3    H147216   2.156   2.123  13.983 -0.0513 -0.1728  0.4192
 8575TIP3    H247217   2.169   2.270  13.947  0.0953 -0.2109  0.3102
 8576TIP3   OH247218   0.637   1.327  14.931 -0.1849 -0.0957 -0.7073
 8576TIP3    H147219   0.580   1.284  14.867 -1.1873  0.2645 -0.0811
 8576TIP3    H247220   0.696   1.259  14.961 -1.4482 -0.9502 -0.0708
 8577TIP3   OH247221   0.022   6.064   1.676  0.0314 -0.1015  0.1402
 8577TIP3    H147222  -0.041   5.992   1.680  0.1862 -0.2558 -0.1469
 8577TIP3    H247223  -0.025   6.139   1.713  0.4610 -0.7636  2.1341
 8578TIP3   OH247224   2.040   1.278   4.191 -0.2640 -0.7547 -0.5109
 8578TIP3    H147225   2.037   1.227   4.109  1.3966 -0.0405 -1.0531
 8578TIP3    H247226   2.095   1.226   4.249  0.2407 -0.2725 -0.5580
 8579TIP3   OH247227   5.998   6.698  13.392 -0.1052 -0.3574 -0.5398
 8579TIP3    H147228   5.904   6.712  13.401  0.0394  0.5322 -0.3103
 8579TIP3    H247229   6.038   6.771  13.439  0.7120 -1.1083 -0.0359
 8580TIP3   OH247230   6.806   4.838   0.763  0.1083  0.3969  0.1357
 8580TIP3    H147231   6.870   4.798   0.704 -0.5750  0.9032 -0.9929
 8580TIP3    H247232   6.722   4.823   0.719 -0.6057 -0.6147  1.7725
 8581TIP3   OH247233   2.631   1.637   5.838  0.1259  0.6200 -0.1967
 8581TIP3    H147234   2.589   1.685   5.910  0.5247  1.8339 -0.7519
 8581TIP3    H247235   2.703   1.590   5.879 -0.9033 -0.3821  0.5344
 8582TIP3   OH247236   0.614   6.350  13.595 -0.3926  0.3043 -0.5390
 8582TIP3    H147237   0.612   6.437  13.635 -0.9535  0.1427 -0.2106
 8582TIP3    H247238   0.666   6.362  13.516 -0.5656  0.9697 -0.5610
 8583TIP3   OH247239   4.448   5.325  11.551  0.1631 -0.0238  0.2061
 8583TIP3    H147240   4.451   5.287  11.639  1.1331 -0.5620 -0.0589
 8583TIP3    H247241   4.484   5.258  11.493  1.8640  1.2248 -0.2721
 8584TIP3   OH247242   6.245   4.401   5.966 -0.9198  0.1881  0.0191
 8584TIP3    H147243   6.153   4.407   5.993 -1.3555 -0.3072 -1.2856
 8584TIP3    H247244   6.241   4.381   5.873  0.5255  0.3843 -0.1005
 8585TIP3   OH247245   2.432   0.836   3.535 -0.0048  0.2716  0.2290
 8585TIP3    H147246   2.478   0.869   3.458  0.2045 -1.0465 -0.2499
 8585TIP3    H247247   2.356   0.789   3.498 -0.8530  1.0573  0.9236
 8586TIP3   OH247248   4.339   1.849   3.128  0.1101  0.1517 -0.5088
 8586TIP3    H147249   4.313   1.757   3.135 -0.5648  0.2341 -1.6599
 8586TIP3    H247250   4.429   1.852   3.161  0.1841 -0.9447 -0.5848
 8587TIP3   OH247251   6.723   1.277   6.044  0.3734 -0.1806 -0.6097
 8587TIP3    H147252   6.777   1.232   6.109  0.5448  0.7257 -0.1119
 8587TIP3    H247253   6.642   1.225   6.040 -0.3430  0.6677  1.5931
 8588TIP3   OH247254   6.399   2.629  13.922 -0.3495  0.3268 -0.7127
 8588TIP3    H147255   6.383   2.686  13.847 -0.3018 -0.2441 -1.1595
 8588TIP3    H247256   6.315   2.584  13.936 -0.0187 -0.4697 -1.1980
 8589TIP3   OH247257   4.780   0.580  16.703 -0.3737 -0.2788  0.3999
 8589TIP3    H147258   4.836   0.642  16.654 -2.5127  1.3292 -0.1444
 8589TIP3    H247259   4.774   0.503  16.646 -3.4189  1.8324 -2.5007
 8590TIP3   OH247260   1.082   5.053   6.296 -0.0300 -0.6238 -0.0862
 8590TIP3    H147261   1.011   5.075   6.235  0.8391  0.0576 -0.8754
 8590TIP3    H247262   1.132   4.984   6.250  0.5800 -0.1680 -0.1170
 8591TIP3   OH247263   0.924   5.140  12.524 -0.0211 -0.1626  0.2659
 8591TIP3    H147264   0.843   5.097  12.498 -0.6214  1.0812 -0.0254
 8591TIP3    H247265   0.918   5.146  12.619 -0.0047 -0.5646  0.2952
 8592TIP3   OH247266   5.123   4.232   0.030 -0.3628 -0.1445  0.3376
 8592TIP3    H147267   5.065   4.306   0.047 -0.8961 -0.6699  0.8581
 8592TIP3    H247268   5.156   4.247  -0.059 -1.9864 -0.2928 -0.3243
 8593TIP3   OH247269   4.744   2.307   6.250  0.3922  0.4588  0.0343
 8593TIP3    H147270   4.778   2.284   6.336 -3.5152  0.0098  1.6837
 8593TIP3    H247271   4.734   2.223   6.205 -1.7609  0.1301  1.0061
 8594TIP3   OH247272   6.382   5.616   1.015 -0.0592  0.5199  0.3097
 8594TIP3    H147273   6.459   5.599   0.962  0.9390 -0.6172  2.0446
 8594TIP3    H247274   6.341   5.692   0.974 -0.0116 -0.9682 -2.7471
 8595TIP3   OH247275   2.539   1.933   4.683  0.0173  0.2218 -0.0626
 8595TIP3    H147276   2.465   1.893   4.728  0.2998  1.6282  1.7885
 8595TIP3    H247277   2.615   1.904   4.733  0.6923 -0.6326 -1.5136
 8596TIP3   OH247278   6.187   4.113  15.382  0.7148  0.9679  0.0193
 8596TIP3    H147279   6.279   4.138  15.393  0.9057 -0.0193  0.7656
 8596TIP3    H247280   6.187   4.018  15.392 -0.2856  0.8726 -0.7500
 8597TIP3   OH247281   0.127   5.587  15.580 -0.7130  0.3948  0.6283
 8597TIP3    H147282   0.076   5.544  15.648  0.0635  0.3631  1.2129
 8597TIP3    H247283   0.092   5.676  15.576 -0.7647  0.3960  1.0788
 8598TIP3   OH247284   3.374   1.577   1.889  0.4031 -0.2805  0.2502
 8598TIP3    H147285   3.333   1.562   1.974  1.4041 -0.4811  0.6996
 8598TIP3    H247286   3.396   1.490   1.857  0.2167 -0.1911 -0.1252
 8599TIP3   OH247287   4.743   1.212   2.809 -0.2672  0.2669  0.6998
 8599TIP3    H147288   4.712   1.124   2.831 -1.7885  0.2736 -1.0887
 8599TIP3    H247289   4.816   1.228   2.868  0.2266 -2.3059  0.9013
 8600TIP3   OH247290   3.454   6.464   3.870  0.1029  0.0623  0.0185
 8600TIP3    H147291   3.500   6.401   3.815  0.5407  0.3825  0.0140
 8600TIP3    H247292   3.477   6.550   3.834  1.5756  0.3665  1.5488
 8601TIP3   OH247293   4.306   5.279  13.326  0.0726  0.1290 -0.1564
 8601TIP3    H147294   4.279   5.207  13.382  0.9575 -0.8537 -0.9449
 8601TIP3    H247295   4.395   5.257  13.300  0.6931  1.9568  0.2820
 8602TIP3   OH247296   2.028   6.173   1.133  0.0290 -0.5996 -0.1299
 8602TIP3    H147297   1.966   6.126   1.189 -0.0775 -0.5045 -0.1670
 8602TIP3    H247298   2.011   6.266   1.151  1.6510 -0.5668  1.5087
 8603TIP3   OH247299   6.358   6.120   5.667 -0.5622 -0.0596 -0.1680
 8603TIP3    H147300   6.317   6.089   5.748  0.0858 -1.0110 -0.1810
 8603TIP3    H247301   6.298   6.187   5.634 -0.2037  1.3118  1.7665
 8604TIP3   OH247302   2.757   1.224  15.281 -0.3950 -0.1157 -0.1671
 8604TIP3    H147303   2.844   1.189  15.263  0.3443  1.3109  0.4256
 8604TIP3    H247304   2.757   1.243  15.374 -0.9914  0.7805 -0.3285
 8605TIP3   OH247305   4.493   4.269  16.717  0.3537  0.8221  0.3678
 8605TIP3    H147306   4.494   4.177  16.744  0.8434  0.1999 -1.5602
 8605TIP3    H247307   4.582   4.300  16.733  1.0776  0.0154 -1.7487
 8606TIP3   OH247308   2.517   1.469  16.147 -0.5002 -0.5678 -0.0356
 8606TIP3    H147309   2.526   1.475  16.052 -1.3284 -1.1654 -0.1587
 8606TIP3    H247310   2.585   1.407  16.173 -1.3074 -1.6597 -0.4434
 8607TIP3   OH247311   3.548   5.674  12.103 -0.2471 -0.3325 -0.0374
 8607TIP3    H147312   3.508   5.683  12.016 -1.2803 -0.7714  0.3712
 8607TIP3    H247313   3.548   5.580  12.119  1.8468 -0.4448 -0.3948
 8608TIP3   OH247314   0.797   4.081   3.612 -0.0232  0.2325 -0.1307
 8608TIP3    H147315   0.883   4.067   3.651 -0.6048  0.2262  1.2296
 8608TIP3    H247316   0.763   4.158   3.658 -0.8196  0.1210 -0.5166
 8609TIP3   OH247317   5.061   3.597   0.073 -0.4379  0.2762 -0.5535
 8609TIP3    H147318   5.045   3.690   0.055 -1.1875  0.3658  0.5375
 8609TIP3    H247319   5.129   3.597   0.141  0.3737 -0.0123 -1.3371
 8610TIP3   OH247320   3.717   0.092  11.989 -0.5873  0.8329  0.1325
 8610TIP3    H147321   3.802   0.091  12.033  0.5862  1.4195 -1.9802
 8610TIP3    H247322   3.672   0.168  12.025  1.0645  2.3727 -0.8602
 8611TIP3   OH247323   1.055   5.288  14.653  0.1599 -0.1740  0.3730
 8611TIP3    H147324   1.124   5.225  14.676  0.9723  0.4070 -0.4107
 8611TIP3    H247325   1.006   5.300  14.734  2.3413  1.0660  1.6189
 8612TIP3   OH247326   2.877   5.860  16.206  0.5082  0.1382  0.2174
 8612TIP3    H147327   2.964   5.899  16.201  1.2555 -0.9546  2.8887
 8612TIP3    H247328   2.891   5.768  16.186 -0.1038  0.0363  0.2363
 8613TIP3   OH247329   4.217   6.843  11.228 -0.0911 -0.0897 -0.7246
 8613TIP3    H147330   4.236   6.932  11.259 -0.5852  0.1858 -1.1900
 8613TIP3    H247331   4.171   6.801  11.300  0.8937 -0.2508 -0.1808
 8614TIP3   OH247332   5.963   4.242   0.968  0.4377  0.3865 -0.1186
 8614TIP3    H147333   5.915   4.323   0.984 -1.3619 -0.3110 -1.6272
 8614TIP3    H247334   5.991   4.213   1.055  0.9509  2.4679  0.4809
 8615TIP3   OH247335   1.156   5.509  16.253 -0.0672 -0.4354  0.4496
 8615TIP3    H147336   1.077   5.553  16.221 -1.6303 -1.5681  2.4908
 8615TIP3    H247337   1.201   5.480  16.174 -1.9457 -0.1815 -0.7745
 8616TIP3   OH247338   2.962   1.431   1.314 -0.0369  0.8084  1.1720
 8616TIP3    H147339   2.936   1.472   1.232 -0.1733  0.7889  1.2054
 8616TIP3    H247340   2.880   1.415   1.360 -0.0739 -0.4360  0.7151
 8617TIP3   OH247341   4.181   3.475  13.502 -0.3029 -0.1864  0.4244
 8617TIP3    H147342   4.180   3.553  13.559  1.8315  0.1738  0.0815
 8617TIP3    H247343   4.147   3.506  13.418 -1.8207 -0.2841  0.9786
 8618TIP3   OH247344   4.505   5.353  16.029 -0.0159  0.1271  0.1164
 8618TIP3    H147345   4.579   5.397  16.070 -0.2967 -0.5491  1.4292
 8618TIP3    H247346   4.542   5.273  15.993  0.3286  0.9674 -1.4736
 8619TIP3   OH247347   6.551   6.505   4.444 -0.0653  0.4195 -0.3425
 8619TIP3    H147348   6.624   6.450   4.413 -0.7400 -0.9041  0.3413
 8619TIP3    H247349   6.546   6.487   4.537 -1.4779  0.2359 -0.4412
 8620TIP3   OH247350   5.213   2.283   2.082 -0.2755 -0.4727 -0.1667
 8620TIP3    H147351   5.140   2.314   2.028 -0.5105 -0.9066 -0.1002
 8620TIP3    H247352   5.181   2.202   2.122  0.9065 -1.7681 -1.6946
 8621TIP3   OH247353   6.841   0.631  12.873  0.5671 -0.4016 -0.3878
 8621TIP3    H147354   6.878   0.621  12.961  0.0417 -0.0734 -0.1221
 8621TIP3    H247355   6.756   0.587  12.877 -1.0557  2.5220  0.3437
 8622TIP3   OH247356   3.833   5.148   2.741 -0.0264 -0.9661 -0.3953
 8622TIP3    H147357   3.759   5.109   2.695 -0.5439  0.8102 -1.1420
 8622TIP3    H247358   3.824   5.115   2.831 -0.0151 -3.0657 -1.1140
 8623TIP3   OH247359   4.438   1.456  15.690  0.3491 -0.2045 -0.2804
 8623TIP3    H147360   4.478   1.369  15.693 -0.9571 -0.8304 -0.5953
 8623TIP3    H247361   4.477   1.497  15.613  0.9217 -0.5196 -0.1674
 8624TIP3   OH247362   1.755   6.540   5.953  0.1073  0.1823 -0.0911
 8624TIP3    H147363   1.820   6.475   5.980 -0.2009 -1.4633 -2.8718
 8624TIP3    H247364   1.674   6.512   5.994  0.4702  0.2489  0.6750
 8625TIP3   OH247365   2.836   4.175   0.092  0.1599 -0.0421  0.0313
 8625TIP3    H147366   2.869   4.085   0.094 -1.1096 -0.5401  0.0094
 8625TIP3    H247367   2.816   4.195   0.183  0.6724  0.3136  0.0671
 8626TIP3   OH247368   1.312   3.518   4.152 -0.1018  0.3638  0.2813
 8626TIP3    H147369   1.249   3.559   4.211  0.8143  0.6623  1.0765
 8626TIP3    H247370   1.260   3.488   4.078 -1.0754  1.2065  0.6061
 8627TIP3   OH247371   1.879   2.543  13.499 -0.4388 -0.0366 -0.1728
 8627TIP3    H147372   1.883   2.617  13.438 -1.3986 -0.8950 -1.3361
 8627TIP3    H247373   1.940   2.479  13.462 -1.8402 -1.0120 -0.9333
 8628TIP3   OH247374   5.364   2.415  15.082 -0.4674  0.5625 -0.8523
 8628TIP3    H147375   5.345   2.362  15.004 -0.8971  0.0769 -0.4221
 8628TIP3    H247376   5.285   2.410  15.134 -0.6683  1.9688 -0.9835
 8629TIP3   OH247377   6.158   2.552   1.991  0.2397 -0.6099 -0.3960
 8629TIP3    H147378   6.104   2.499   1.932 -0.5035 -0.3585  0.0495
 8629TIP3    H247379   6.126   2.531   2.078  0.3999  0.0667 -0.1678
 8630TIP3   OH247380   0.986   2.291  13.719  0.0260  0.8450  0.1738
 8630TIP3    H147381   0.914   2.250  13.767 -0.3736 -0.4965 -1.4689
 8630TIP3    H247382   1.064   2.269  13.771 -0.1869 -1.9546 -0.4880
 8631TIP3   OH247383   3.508   2.136   4.953 -0.1422  0.2035  0.0728
 8631TIP3    H147384   3.492   2.045   4.979  0.8778 -0.0303 -0.0701
 8631TIP3    H247385   3.422   2.169   4.926 -0.4934 -0.7738 -0.0411
 8632TIP3   OH247386   3.136   2.748   2.402  0.3495  0.2727 -0.0426
 8632TIP3    H147387   3.101   2.689   2.470 -0.9582  0.1162 -0.8220
 8632TIP3    H247388   3.064   2.808   2.383  0.7096  0.3421 -1.2624
 8633TIP3   OH247389   3.850   2.119   5.738 -0.8620  0.3432 -0.4765
 8633TIP3    H147390   3.923   2.173   5.709 -1.4905  2.1337  1.0661
 8633TIP3    H247391   3.789   2.180   5.778 -1.2904 -1.5710  2.0656
 8634TIP3   OH247392   6.374   4.089  12.756 -0.3029 -0.0953 -0.2015
 8634TIP3    H147393   6.409   4.167  12.799  1.2998 -1.1422  0.5054
 8634TIP3    H247394   6.290   4.116  12.720 -1.7076  0.9129  3.4400
 8635TIP3   OH247395   4.025   1.359  10.962 -0.4485 -0.1789  0.2467
 8635TIP3    H147396   3.942   1.391  11.000  0.3443  2.3519  0.0241
 8635TIP3    H247397   4.084   1.352  11.037 -0.0860  0.7118  0.0484
 8636TIP3   OH247398   1.494   5.992   3.818  0.1239  1.2659 -0.2033
 8636TIP3    H147399   1.439   6.071   3.817 -0.7028  0.8979  3.2643
 8636TIP3    H247400   1.563   6.012   3.881  0.7872 -0.2507 -0.4275
 8637TIP3   OH247401   0.822   4.215   1.622 -0.1098 -0.9347 -0.5892
 8637TIP3    H147402   0.726   4.214   1.623 -0.2532  2.5108 -0.4602
 8637TIP3    H247403   0.847   4.258   1.704  1.5644 -1.4447 -0.7881
 8638TIP3   OH247404   2.042   2.030  11.768  0.2840 -0.2349 -0.7965
 8638TIP3    H147405   2.078   1.965  11.707 -1.4588 -0.4829 -1.6235
 8638TIP3    H247406   2.098   2.023  11.846 -0.9483 -4.2100 -0.0163
 8639TIP3   OH247407   5.811   0.342   5.582 -0.1200 -0.1059  1.1585
 8639TIP3    H147408   5.737   0.311   5.530  0.9529 -0.2887 -0.3309
 8639TIP3    H247409   5.865   0.264   5.597 -0.9073 -0.2716  3.4944
 8640TIP3   OH247410   0.230   2.693  13.908  0.0312 -0.0394  0.1254
 8640TIP3    H147411   0.188   2.778  13.899 -2.9210 -1.4496 -0.8897
 8640TIP3    H247412   0.247   2.665  13.818  0.3057 -0.8286  0.4132
 8641TIP3   OH247413   2.008   0.943   0.017  0.0420 -0.2296  0.5318
 8641TIP3    H147414   2.072   0.876  -0.006  0.3991  0.3423 -0.2224
 8641TIP3    H247415   2.061   1.018   0.045 -0.3102  0.0416  0.4777
 8642TIP3   OH247416   2.769   2.121  14.312  0.1138 -0.1582  0.0367
 8642TIP3    H147417   2.687   2.160  14.342  0.9387  2.0071 -0.3878
 8642TIP3    H247418   2.785   2.049  14.374 -0.1938  1.7300  2.4471
 8643TIP3   OH247419   2.798   1.819  11.767 -0.3305 -0.2608 -0.4041
 8643TIP3    H147420   2.829   1.760  11.698  0.3729  0.5507 -0.8183
 8643TIP3    H247421   2.871   1.826  11.828 -0.6633 -0.3560  0.0121
 8644TIP3   OH247422   5.101   4.390   2.797  0.6053 -0.1530 -0.0335
 8644TIP3    H147423   5.009   4.405   2.820  1.0550 -0.8306  2.5345
 8644TIP3    H247424   5.105   4.298   2.773  0.5543 -0.0251 -0.5410
 8645TIP3   OH247425   1.550   6.150  12.168 -0.2513 -0.1161  0.3293
 8645TIP3    H147426   1.606   6.215  12.125 -1.5019  1.0496  0.4142
 8645TIP3    H247427   1.591   6.136  12.254  0.4705 -0.0386  0.0026
 8646TIP3   OH247428   1.037   2.736  15.597 -0.1436  0.1877 -0.3784
 8646TIP3    H147429   1.069   2.753  15.686  0.0724 -0.0277 -0.4132
 8646TIP3    H247430   1.088   2.660  15.568 -1.5758 -0.9877  0.0547
 8647TIP3   OH247431   3.543   5.784   6.815 -0.3085  0.2274  0.4751
 8647TIP3    H147432   3.473   5.806   6.753  1.8917  1.3290 -1.7626
 8647TIP3    H247433   3.556   5.864   6.866  0.1492  0.4531  0.0137
 8648TIP3   OH247434   2.964   6.157   0.964 -0.2118 -0.0636  0.2240
 8648TIP3    H147435   3.011   6.232   0.929  1.8635 -0.5585  1.7819
 8648TIP3    H247436   2.976   6.088   0.899  0.3864  0.1068  0.1488
 8649TIP3   OH247437   6.376   3.256   1.429  0.4322 -0.5685 -0.8589
 8649TIP3    H147438   6.451   3.314   1.417  0.1224 -0.4597 -2.6278
 8649TIP3    H247439   6.350   3.268   1.521  0.5456  1.9169 -1.0776
 8650TIP3   OH247440   1.988   1.187   0.676  0.4635  0.0865 -0.4000
 8650TIP3    H147441   2.068   1.142   0.703  1.5252  1.1432 -1.5922
 8650TIP3    H247442   2.002   1.278   0.703 -0.7327  0.1204  0.1525
 8651TIP3   OH247443   6.622   4.829  15.435 -0.2673 -0.0387 -0.3133
 8651TIP3    H147444   6.574   4.747  15.444  2.4087 -1.8367 -1.3984
 8651TIP3    H247445   6.637   4.857  15.526 -2.8191  0.3752  0.0694
 8652TIP3   OH247446   5.861   1.740  11.695 -0.0973 -0.8868 -0.2485
 8652TIP3    H147447   5.879   1.682  11.621  0.8815 -1.4665  0.4123
 8652TIP3    H247448   5.936   1.800  11.696 -0.4847 -0.4035 -0.1829
 8653TIP3   OH247449   5.948   6.433   2.075  0.2932 -0.1756  0.9892
 8653TIP3    H147450   6.010   6.465   2.010 -0.1464 -0.3756  0.4703
 8653TIP3    H247451   5.882   6.502   2.081 -0.3975 -0.7635  0.2203
 8654TIP3   OH247452   4.527   5.418   4.578 -0.9306  0.3396 -0.2914
 8654TIP3    H147453   4.516   5.372   4.495  0.6745  0.6570 -0.7118
 8654TIP3    H247454   4.513   5.510   4.557 -0.6281  0.4102 -0.1880
 8655TIP3   OH247455   5.927   4.726  13.339 -0.2622  0.0913 -0.2700
 8655TIP3    H147456   5.905   4.668  13.412 -2.1946  0.0933 -0.7964
 8655TIP3    H247457   5.999   4.780  13.371 -1.2271  0.2522  1.7262
 8656TIP3   OH247458   1.689   4.407  16.929 -0.5135 -0.0141 -0.3857
 8656TIP3    H147459   1.668   4.363  17.011 -2.2793  0.7616 -0.3757
 8656TIP3    H247460   1.739   4.484  16.955  1.1666 -1.0809 -0.2840
 8657TIP3   OH247461   0.712   1.400   1.311 -0.7941 -0.0036 -0.4463
 8657TIP3    H147462   0.746   1.319   1.350 -1.6271 -0.1019  0.0944
 8657TIP3    H247463   0.620   1.381   1.294 -0.5741  0.2084 -2.0070
 8658TIP3   OH247464   0.790   0.832  15.179  0.2578  0.1647 -0.8444
 8658TIP3    H147465   0.857   0.835  15.247 -1.6259 -0.5656  1.1380
 8658TIP3    H247466   0.771   0.739  15.168  0.0218  0.3237 -1.8760
 8659TIP3   OH247467   2.327   3.902  14.290 -0.4843 -0.2831  0.1817
 8659TIP3    H147468   2.408   3.863  14.257  0.7146  2.3189 -0.1669
 8659TIP3    H247469   2.277   3.923  14.212 -0.4450  0.2445  0.2994
 8660TIP3   OH247470   0.111   4.583   0.153  0.2058  0.6397  0.0196
 8660TIP3    H147471   0.174   4.580   0.081  1.2244 -1.4256  0.9210
 8660TIP3    H247472   0.095   4.676   0.166  0.9203  1.1209 -2.0576
 8661TIP3   OH247473   5.599   1.612  13.095 -0.4505  0.5199  0.3674
 8661TIP3    H147474   5.598   1.632  13.001 -0.8674  0.9462  0.4587
 8661TIP3    H247475   5.539   1.676  13.133 -1.1782 -0.3953  0.7786
 8662TIP3   OH247476   6.690   4.588  10.599 -0.0411 -0.0806 -0.1000
 8662TIP3    H147477   6.744   4.527  10.549 -0.7076  1.2634 -2.6406
 8662TIP3    H247478   6.602   4.551  10.595  0.0146 -0.3085  0.6940
 8663TIP3   OH247479   3.153   1.106   0.586  0.0285 -0.5238 -0.3710
 8663TIP3    H147480   3.244   1.120   0.612  0.3817  0.1618 -1.9012
 8663TIP3    H247481   3.103   1.158   0.650  0.7674 -0.1103 -0.1063
 8664TIP3   OH247482   5.730   4.032  16.366  0.2291 -0.7045 -0.3200
 8664TIP3    H147483   5.822   4.006  16.353  0.7170  0.9582 -0.3737
 8664TIP3    H247484   5.735   4.116  16.412 -1.2038  0.2969 -1.8959
 8665TIP3   OH247485   3.472   0.032  13.675 -0.1282 -0.3003 -0.8052
 8665TIP3    H147486   3.404  -0.026  13.709 -0.6302  0.1636 -0.9970
 8665TIP3    H247487   3.490   0.092  13.747 -0.2551 -0.1332 -0.9117
 8666TIP3   OH247488   1.615   3.910   0.823  0.3400 -0.2000  0.5280
 8666TIP3    H147489   1.701   3.892   0.862  1.5987 -0.0637 -2.0128
 8666TIP3    H247490   1.632   3.971   0.752 -1.8699 -0.2185 -0.1035
 8667TIP3   OH247491   2.285   4.340  16.754 -0.5633  0.4206 -0.1452
 8667TIP3    H147492   2.247   4.357  16.841  1.5636 -0.5404  1.0509
 8667TIP3    H247493   2.225   4.278  16.713 -0.6419 -0.5714  1.4066
 8668TIP3   OH247494   3.107   3.016   5.789  0.1446  0.2927 -0.2513
 8668TIP3    H147495   3.071   3.097   5.826  0.2094 -0.3150  1.2225
 8668TIP3    H247496   3.062   2.946   5.837 -0.8770 -0.6123 -2.3969
 8669TIP3   OH247497   3.296   2.342  16.978 -0.5450  0.7130  0.1032
 8669TIP3    H147498   3.214   2.305  16.946 -0.4269 -0.0701  0.6870
 8669TIP3    H247499   3.364   2.301  16.925 -0.3749 -0.3232  1.1007
 8670TIP3   OH247500   6.587   4.434   1.634  0.1680  0.0682 -0.4089
 8670TIP3    H147501   6.651   4.386   1.581 -0.3014  0.8325 -1.7290
 8670TIP3    H247502   6.638   4.494   1.686  0.7118 -1.3042  0.7034
 8671TIP3   OH247503   5.494   0.505   5.672 -0.0193 -0.4760 -0.7105
 8671TIP3    H147504   5.452   0.530   5.590 -3.0257 -0.1508  0.8115
 8671TIP3    H247505   5.484   0.409   5.675 -0.2860 -0.4418 -0.5282
 8672TIP3   OH247506   0.214   3.874   5.060  0.2609  0.4561  0.0197
 8672TIP3    H147507   0.182   3.886   4.970 -0.9967 -2.0551  0.0682
 8672TIP3    H247508   0.234   3.963   5.089 -2.2587  1.7187 -1.6662
 8673TIP3   OH247509   1.746   4.216   3.246 -0.4998 -0.1541 -0.5747
 8673TIP3    H147510   1.802   4.139   3.256  0.4971  0.7050  0.6561
 8673TIP3    H247511   1.776   4.257   3.165  0.6390  0.2532  0.0307
 8674TIP3   OH247512   1.715   1.602  11.952  0.5238  0.2721 -0.1071
 8674TIP3    H147513   1.661   1.553  12.013 -1.5731 -0.6196 -2.5024
 8674TIP3    H247514   1.750   1.675  12.004  0.2691 -1.3409  2.5030
 8675TIP3   OH247515   2.641   3.513  10.219 -0.3913  0.0131 -0.0078
 8675TIP3    H147516   2.574   3.474  10.275 -2.6876  1.5532 -1.5371
 8675TIP3    H247517   2.689   3.572  10.278 -0.8402 -0.5466  0.9550
 8676TIP3   OH247518   2.641   0.832  13.492  0.4303  0.5042  0.1879
 8676TIP3    H147519   2.733   0.857  13.484  0.5907 -0.2194 -0.3285
 8676TIP3    H247520   2.592   0.908  13.460  0.8547  0.7449  0.0995
 8677TIP3   OH247521   3.320   0.119  17.024  0.1554  0.3148 -0.0143
 8677TIP3    H147522   3.260   0.068  17.079  0.2546  0.1605 -0.0466
 8677TIP3    H247523   3.358   0.054  16.965  1.9788 -0.0289  1.4154
 8678TIP3   OH247524   3.260   1.965  14.715 -0.3678  0.0625  0.3936
 8678TIP3    H147525   3.324   1.926  14.654  0.3347  0.4703  0.8506
 8678TIP3    H247526   3.177   1.960  14.668 -0.0468 -0.7054 -0.1213
 8679TIP3   OH247527   3.054   6.345   3.606  0.5896  0.8122  0.0509
 8679TIP3    H147528   3.107   6.268   3.629  0.5277  1.3591  2.2757
 8679TIP3    H247529   3.117   6.412   3.584  0.7393  0.7473  0.2729
 8680TIP3   OH247530   6.637   1.448  15.337 -0.3377 -0.5457  0.0855
 8680TIP3    H147531   6.604   1.465  15.248 -1.5630 -1.4239  0.3446
 8680TIP3    H247532   6.562   1.465  15.394  0.7460  1.1146  1.0887
 8681TIP3   OH247533   4.835   0.793   6.046 -0.5158 -0.3025  0.0637
 8681TIP3    H147534   4.847   0.698   6.049 -2.4619 -0.6379 -1.0321
 8681TIP3    H247535   4.923   0.828   6.058  0.4700 -2.2744 -0.8578
 8682TIP3   OH247536   0.829   6.321  16.671  0.2765  0.2774 -0.2911
 8682TIP3    H147537   0.903   6.270  16.703  0.4924  0.5909 -0.2909
 8682TIP3    H247538   0.867   6.404  16.644  0.2139 -0.1830 -1.9526
 8683TIP3   OH247539   1.084   0.161   4.064 -0.8966 -0.4200 -0.2878
 8683TIP3    H147540   0.995   0.162   4.100 -1.3354  0.6918 -1.3066
 8683TIP3    H247541   1.115   0.071   4.077 -1.1642 -0.1917  2.4119
 8684TIP3   OH247542   0.307   1.998   3.152  0.1071 -0.1628 -0.0396
 8684TIP3    H147543   0.261   1.972   3.232  1.5136 -0.6445  0.6460
 8684TIP3    H247544   0.321   1.915   3.105 -1.4210  0.1983 -1.2221
 8685TIP3   OH247545   2.727   0.833  14.387 -0.1651 -0.0312 -0.3950
 8685TIP3    H147546   2.821   0.817  14.383  0.1205  0.5066  2.4707
 8685TIP3    H247547   2.691   0.755  14.429 -0.7635  0.4528  0.0088
 8686TIP3   OH247548   4.172   0.946  12.596  0.2061  0.5188  0.1031
 8686TIP3    H147549   4.162   0.953  12.691  0.9525 -2.2526  0.4745
 8686TIP3    H247550   4.241   1.009  12.575 -1.0916  2.3950  1.0578
 8687TIP3   OH247551   6.647   0.247  15.199 -0.0418  0.0579  0.0886
 8687TIP3    H147552   6.726   0.298  15.220  0.6641 -1.0326  0.1531
 8687TIP3    H247553   6.593   0.307  15.148  0.7267  0.9026  0.2384
 8688TIP3   OH247554   4.984   2.418   3.113  0.2745 -0.3015 -0.1265
 8688TIP3    H147555   4.902   2.374   3.139 -0.6305 -0.1260 -2.4605
 8688TIP3    H247556   4.958   2.508   3.095  1.1717 -0.0199 -0.0559
 8689TIP3   OH247557   2.239   3.413   2.207  0.1850 -0.2675  0.0008
 8689TIP3    H147558   2.276   3.500   2.224  0.3704 -0.4630  0.6482
 8689TIP3    H247559   2.174   3.400   2.276 -0.0293 -0.5334 -0.2484
 8690TIP3   OH247560   0.958   3.955  12.677 -0.3123  0.2540  0.1020
 8690TIP3    H147561   0.945   3.981  12.586 -0.5850 -0.2715 -0.0111
 8690TIP3    H247562   0.871   3.960  12.716 -0.1816  0.5628  0.3592
 8691TIP3   OH247563   4.620   5.172  15.846  0.2216 -0.0313 -0.0850
 8691TIP3    H147564   4.701   5.193  15.892  0.1752  1.9140 -0.7909
 8691TIP3    H247565   4.578   5.106  15.900  2.1949 -0.9999  0.3604
 8692TIP3   OH247566   1.281   0.291  14.795  0.3838 -0.2737  0.1670
 8692TIP3    H147567   1.219   0.268  14.865 -0.1164 -0.3234 -0.2865
 8692TIP3    H247568   1.345   0.219  14.795  0.7423  0.0328  0.9758
 8693TIP3   OH247569   6.842   1.790   0.901 -0.1315 -1.1987  0.1868
 8693TIP3    H147570   6.829   1.775   0.808  0.0588  0.4991 -0.1539
 8693TIP3    H247571   6.937   1.796   0.912 -0.1758 -0.7876  0.3748
 8694TIP3   OH247572   0.324   3.777   3.272  0.7934  0.0690  0.7053
 8694TIP3    H147573   0.243   3.777   3.324 -0.4722  4.1218 -0.8744
 8694TIP3    H247574   0.391   3.746   3.333 -1.3783 -0.0839  3.1929
 8695TIP3   OH247575   1.458   0.304  14.285 -0.0416 -0.4449  0.1181
 8695TIP3    H147576   1.485   0.384  14.240 -1.5478 -0.3074 -0.5967
 8695TIP3    H247577   1.489   0.315  14.375 -2.8809  2.4653  0.9467
 8696TIP3   OH247578   1.151   1.536  12.721  0.0630 -0.3485 -0.2275
 8696TIP3    H147579   1.065   1.508  12.690  0.3066 -0.5879 -0.7081
 8696TIP3    H247580   1.178   1.467  12.782 -0.7811  0.5448  1.2097
 8697TIP3   OH247581   1.358   1.085  11.271  0.1352 -0.0015  0.4634
 8697TIP3    H147582   1.357   1.039  11.187  1.2709  1.7365 -0.5585
 8697TIP3    H247583   1.265   1.096  11.293 -0.4148  2.8726 -2.5543
 8698TIP3   OH247584   5.380   3.480  12.208  0.4718 -0.1354 -0.1898
 8698TIP3    H147585   5.387   3.450  12.299  3.0951 -0.4312 -0.4161
 8698TIP3    H247586   5.305   3.539  12.209 -0.5056 -1.2959  1.8224
 8699TIP3   OH247587   5.291   6.626  12.007  0.0689  0.5301 -0.4990
 8699TIP3    H147588   5.321   6.707  11.966 -1.3253  1.2903 -0.0838
 8699TIP3    H247589   5.278   6.648  12.099 -0.7950 -0.0261 -0.4785
 8700TIP3   OH247590   2.101   4.999  15.790 -0.4292 -0.2597  0.0485
 8700TIP3    H147591   2.113   4.905  15.777  1.2109 -0.0930  0.1378
 8700TIP3    H247592   2.126   5.039  15.706 -0.2234  0.1348  0.2899
 8701TIP3   OH247593   2.507   2.568  13.521  0.4984  0.5166  0.3045
 8701TIP3    H147594   2.415   2.542  13.512  0.7564  0.1603 -1.6972
 8701TIP3    H247595   2.540   2.511  13.590 -0.1295 -1.3281 -0.8306
 8702TIP3   OH247596   0.888   0.101  15.791 -0.3897  0.0959 -0.1225
 8702TIP3    H147597   0.967   0.146  15.821 -0.6823  1.1943 -0.9578
 8702TIP3    H247598   0.840   0.081  15.872 -1.5333  3.6733  0.2559
 8703TIP3   OH247599   6.158   4.955  10.697  0.1203 -0.5565 -0.0300
 8703TIP3    H147600   6.220   5.027  10.711 -0.4061 -0.4489  2.1036
 8703TIP3    H247601   6.076   4.997  10.675  0.1845 -0.5672 -0.2843
 8704TIP3   OH247602   0.076   3.816   1.850 -0.3635  0.3516 -0.0132
 8704TIP3    H147603   0.039   3.868   1.779 -0.7103  1.4430  0.9374
 8704TIP3    H247604   0.166   3.848   1.859 -0.5000  0.6330  0.4086
 8705TIP3   OH247605   1.623   4.498   1.756  0.4733  0.0575 -0.3921
 8705TIP3    H147606   1.566   4.489   1.832 -3.1956  0.6747 -2.7834
 8705TIP3    H247607   1.654   4.409   1.738 -0.5636 -0.4989  0.4692
 8706TIP3   OH247608   5.079   3.127   4.003  0.3380 -0.1498 -0.1384
 8706TIP3    H147609   5.175   3.129   4.006  0.3289 -0.4954  1.2884
 8706TIP3    H247610   5.057   3.155   3.915  1.7881 -1.0499 -0.8288
 8707TIP3   OH247611   1.784   1.162  14.885 -0.2281  0.3774 -0.5103
 8707TIP3    H147612   1.701   1.115  14.891  0.9197 -1.8949 -1.3275
 8707TIP3    H247613   1.815   1.169  14.975 -1.9125  2.6145  0.0090
 8708TIP3   OH247614   1.109   5.584  13.206  0.4440  0.2239  0.4128
 8708TIP3    H147615   1.099   5.628  13.121 -0.2863  0.6999  0.7319
 8708TIP3    H247616   1.113   5.656  13.269  0.7686 -0.1372  0.8077
 8709TIP3   OH247617   4.244   0.678   0.780 -0.0729  0.2783 -0.2157
 8709TIP3    H147618   4.186   0.704   0.852 -1.2034  0.5154 -1.1707
 8709TIP3    H247619   4.204   0.717   0.703  0.6442 -0.6663 -1.0843
 8710TIP3   OH247620   5.775   6.644   2.041  0.1237 -0.4138  0.0295
 8710TIP3    H147621   5.720   6.706   2.088  0.4472 -0.3602  0.3471
 8710TIP3    H247622   5.765   6.668   1.949  1.2393  0.9633  0.2213
 8711TIP3   OH247623   5.117   2.120  10.467  0.1678 -0.7786  0.0053
 8711TIP3    H147624   5.042   2.151  10.416  0.1017  1.1263  1.1883
 8711TIP3    H247625   5.193   2.159  10.425  0.2820 -0.7042  0.2840
 8712TIP3   OH247626   0.103   1.789  10.109  0.2695  0.1824 -0.4231
 8712TIP3    H147627   0.099   1.864  10.167 -2.5194  0.1053 -0.3852
 8712TIP3    H247628   0.131   1.825  10.025  1.2372  0.8260  0.1556
 8713TIP3   OH247629   0.529   0.719   3.409  0.1600 -0.1150 -0.0716
 8713TIP3    H147630   0.461   0.786   3.403 -1.1061 -1.4523 -1.5688
 8713TIP3    H247631   0.548   0.696   3.318  2.1232 -0.3167  0.3436
 8714TIP3   OH247632   2.837   0.232  14.381  0.1043  0.2477  0.8650
 8714TIP3    H147633   2.856   0.318  14.420  1.6106 -1.0849  3.3340
 8714TIP3    H247634   2.915   0.180  14.401 -1.0268 -1.8866 -0.0373
 8715TIP3   OH247635   0.094   0.819  13.699 -0.1034  0.1242  0.4822
 8715TIP3    H147636   0.169   0.815  13.640  0.1197 -1.5128  0.8373
 8715TIP3    H247637   0.133   0.816  13.787 -0.5666 -0.8291  0.6673
 8716TIP3   OH247638   4.228   3.862  14.420 -0.3357  0.0695 -0.1434
 8716TIP3    H147639   4.293   3.792  14.425  0.0070  0.4640  1.5412
 8716TIP3    H247640   4.258   3.927  14.483 -0.5409  1.8638 -1.7795
 8717TIP3   OH247641   2.640   2.647  12.206 -0.4781 -0.1360 -0.2028
 8717TIP3    H147642   2.615   2.738  12.189  1.4161  0.6457  0.9393
 8717TIP3    H247643   2.685   2.649  12.291  2.5384 -1.5148 -1.6086
 8718TIP3   OH247644   5.372   5.758  14.551 -0.1030 -0.0696  0.8709
 8718TIP3    H147645   5.332   5.687  14.602 -1.7961 -0.4611 -0.8563
 8718TIP3    H247646   5.311   5.831  14.561  1.6247  1.2406  2.6317
 8719TIP3   OH247647   3.594   1.038  12.821  0.8991  0.1376  0.2554
 8719TIP3    H147648   3.578   1.130  12.839  1.5690  0.4219 -0.5483
 8719TIP3    H247649   3.536   1.017  12.748  1.7983  0.3259 -0.5354
 8720TIP3   OH247650   5.197   4.355   2.378 -0.3905 -0.5534  0.1180
 8720TIP3    H147651   5.252   4.284   2.410 -0.7963 -1.2503 -0.6973
 8720TIP3    H247652   5.218   4.362   2.285 -0.5545  0.2236  0.1294
 8721TIP3   OH247653   2.163   0.385   6.219  0.1349  0.4820 -0.1710
 8721TIP3    H147654   2.249   0.400   6.257 -1.1093  2.6720  2.0630
 8721TIP3    H247655   2.154   0.452   6.151  0.6741 -0.6541 -1.4105
 8722TIP3   OH247656   5.738   6.313  12.940 -0.2003 -0.0824 -0.3358
 8722TIP3    H147657   5.734   6.294  12.846  0.7037 -1.3189 -0.1650
 8722TIP3    H247658   5.713   6.230  12.981 -0.1649  0.3228  0.5068
 8723TIP3   OH247659   2.460   3.965  11.504 -0.4224 -0.8293 -0.3951
 8723TIP3    H147660   2.538   4.015  11.481 -1.0460  0.0867 -0.6277
 8723TIP3    H247661   2.492   3.891  11.555  0.4016  1.0940  2.1387
 8724TIP3   OH247662   1.106   4.771   0.042  0.6570 -0.0776  0.4876
 8724TIP3    H147663   1.157   4.829  -0.014  0.5457 -1.7303 -1.4020
 8724TIP3    H247664   1.171   4.726   0.096  0.8435  0.7532  0.9787
 8725TIP3   OH247665   6.464   4.573  16.541 -0.3861  0.2437  0.4118
 8725TIP3    H147666   6.520   4.613  16.607 -0.2940  0.2313  0.3414
 8725TIP3    H247667   6.388   4.541  16.590 -0.0907 -0.2041  0.5787
 8726TIP3   OH247668   1.590   5.899   3.397 -0.2526  0.2494 -0.1538
 8726TIP3    H147669   1.636   5.975   3.362  0.7960  0.5782  1.7905
 8726TIP3    H247670   1.660   5.840   3.425 -1.0207 -0.2460  0.7633
 8727TIP3   OH247671   0.864   3.305   0.462  0.1382 -0.1642 -0.0218
 8727TIP3    H147672   0.811   3.354   0.525 -1.5977 -0.4998 -1.1509
 8727TIP3    H247673   0.952   3.303   0.500 -0.7962 -0.1777  2.2649
 8728TIP3   OH247674   2.565   0.832  12.415  0.2835  0.5781 -0.2164
 8728TIP3    H147675   2.548   0.877  12.332  1.9139  0.1350 -0.8353
 8728TIP3    H247676   2.571   0.740  12.391 -1.8344  0.1040  0.8526
 8729TIP3   OH247677   3.813   3.443  13.528  0.4052 -0.4625  0.3107
 8729TIP3    H147678   3.815   3.534  13.559  0.3373 -0.5705  0.6357
 8729TIP3    H247679   3.851   3.447  13.440 -0.9966  0.1132 -0.2989
 8730TIP3   OH247680   4.593   2.163   5.620  0.4990  0.5565  0.8431
 8730TIP3    H147681   4.529   2.226   5.586 -1.7727 -1.8329  0.3931
 8730TIP3    H247682   4.647   2.140   5.545 -0.6718 -0.2964  0.2386
 8731TIP3   OH247683   0.758   2.063   0.208  0.1054  0.0924  0.4632
 8731TIP3    H147684   0.670   2.067   0.170  0.3943 -0.5805 -0.3011
 8731TIP3    H247685   0.767   2.145   0.257  0.2598  1.7652 -2.1485
 8732TIP3   OH247686   2.684   1.318  16.321 -0.5927  0.5250 -0.5615
 8732TIP3    H147687   2.753   1.270  16.276 -0.5266 -0.2530  0.3412
 8732TIP3    H247688   2.724   1.350  16.402 -0.8084  1.5938 -0.8545
 8733TIP3   OH247689   2.809   5.367   5.067 -0.1504 -0.4658 -0.1313
 8733TIP3    H147690   2.823   5.420   4.989  1.2780 -1.9578 -0.9402
 8733TIP3    H247691   2.720   5.389   5.096 -0.4543  0.5973 -1.7809
 8734TIP3   OH247692   1.121   3.075   0.370 -0.0364 -0.4487  0.0719
 8734TIP3    H147693   1.098   3.138   0.302  0.5983  0.5447  0.7357
 8734TIP3    H247694   1.090   2.991   0.337  0.2506  0.0030 -1.4242
 8735TIP3   OH247695   4.608   0.870  16.318  0.4006 -0.1976 -0.0151
 8735TIP3    H147696   4.687   0.891  16.268  1.2680  1.0015  1.7431
 8735TIP3    H247697   4.599   0.775  16.310  1.0115 -0.1602 -1.6449
 8736TIP3   OH247698   1.486   6.115   2.452  0.2287  0.0141  0.2814
 8736TIP3    H147699   1.553   6.071   2.505 -0.5447 -0.4264  0.9211
 8736TIP3    H247700   1.524   6.200   2.431  0.9438 -0.1834  0.7239
 8737TIP3   OH247701   3.323   4.747  13.502  0.3585 -0.3202  0.6152
 8737TIP3    H147702   3.281   4.823  13.544  1.4494  1.7738 -1.7631
 8737TIP3    H247703   3.256   4.679  13.505 -1.9784  1.7654  0.0166
 8738TIP3   OH247704   1.939   2.247   5.159  0.6216 -0.2535 -0.2086
 8738TIP3    H147705   2.028   2.250   5.193  0.2968 -2.0647  0.9106
 8738TIP3    H247706   1.888   2.298   5.221  0.7392  0.1261 -0.4203
 8739TIP3   OH247707   2.457   5.097  12.045 -0.0552 -0.2217  0.1092
 8739TIP3    H147708   2.399   5.129  11.976  0.2419 -1.2302 -0.6190
 8739TIP3    H247709   2.532   5.157  12.044 -1.3519  1.5747  1.5700
 8740TIP3   OH247710   1.396   4.167  15.736 -0.2314  0.2802 -0.2095
 8740TIP3    H147711   1.449   4.087  15.738  1.7602  1.4788 -1.4567
 8740TIP3    H247712   1.383   4.189  15.828  0.7413 -0.5058  0.1391
 8741TIP3   OH247713   0.995   1.864  15.967 -0.2702 -0.5954  0.3882
 8741TIP3    H147714   0.936   1.802  15.923  1.6356 -2.1255 -0.1511
 8741TIP3    H247715   1.055   1.893  15.899 -0.1149  0.6140  1.0094
 8742TIP3   OH247716   1.085   5.630   2.419 -0.2228 -0.0357 -0.1655
 8742TIP3    H147717   1.022   5.697   2.394 -0.2424  0.5749  1.4043
 8742TIP3    H247718   1.170   5.675   2.417 -0.3422  0.3662  1.8614
 8743TIP3   OH247719   2.137   4.518  11.812  0.3635  0.0160 -0.3154
 8743TIP3    H147720   2.115   4.562  11.894  1.0860 -0.1030 -0.0531
 8743TIP3    H247721   2.052   4.504  11.768  0.2015  3.2876 -1.2858
 8744TIP3   OH247722   3.307   2.104  15.980  0.2291  0.3321 -0.2330
 8744TIP3    H147723   3.235   2.072  16.033  0.2118  1.0062  0.1504
 8744TIP3    H247724   3.386   2.070  16.023  0.1080 -2.7213 -2.1467
 8745TIP3   OH247725   5.874   5.759   2.164  0.1982  0.7774 -0.2136
 8745TIP3    H147726   5.851   5.754   2.257 -2.4184 -1.4975 -0.8388
 8745TIP3    H247727   5.949   5.701   2.155  1.2206  1.9270  0.6249
 8746TIP3   OH247728   5.467   2.583   5.893  0.7890 -0.1390 -0.6105
 8746TIP3    H147729   5.442   2.673   5.915 -1.8266 -0.7054 -0.9770
 8746TIP3    H247730   5.438   2.531   5.968 -0.1768 -0.9748 -1.5209
 8747TIP3   OH247731   4.683   0.149  15.372  0.1230 -0.1253  0.3888
 8747TIP3    H147732   4.613   0.207  15.403 -0.2259 -0.3020 -0.0487
 8747TIP3    H247733   4.716   0.107  15.452 -2.1267 -2.1053  0.4025
 8748TIP3   OH247734   3.974   3.754  12.297 -0.5797  0.5567  0.6488
 8748TIP3    H147735   3.929   3.772  12.380 -2.6053 -1.1082 -0.0060
 8748TIP3    H247736   3.914   3.787  12.230  0.8159  1.4554 -0.2186
 8749TIP3   OH247737   4.097   5.193   2.897  0.1347  0.1022 -0.0597
 8749TIP3    H147738   4.185   5.217   2.869 -0.1315  0.6811 -0.4173
 8749TIP3    H247739   4.040   5.223   2.827 -0.3614 -0.1610  0.2227
 8750TIP3   OH247740   0.567   0.081  14.973  0.0530 -0.1957  0.3862
 8750TIP3    H147741   0.476   0.102  14.991  0.1484  0.4424  0.1587
 8750TIP3    H247742   0.613   0.100  15.055  0.2292  1.0890  0.0078
 8751TIP3   OH247743   1.309   1.715  12.853  0.1390  0.3377 -0.4215
 8751TIP3    H147744   1.295   1.725  12.947  1.2222 -0.2452 -0.1805
 8751TIP3    H247745   1.246   1.650  12.825  1.3545 -1.2534  0.3758
 8752TIP3   OH247746   1.263   6.272   2.470  0.1859 -0.1411 -0.2617
 8752TIP3    H147747   1.316   6.194   2.484  2.0919  1.3769  1.6874
 8752TIP3    H247748   1.173   6.239   2.461  1.1039 -2.6179 -1.2302
 8753TIP3   OH247749   1.783   4.370   5.546  0.4585  0.2101  0.1162
 8753TIP3    H147750   1.826   4.405   5.468  2.3834  0.1356  1.0759
 8753TIP3    H247751   1.855   4.351   5.607 -0.8932 -0.7824  1.4956
 8754TIP3   OH247752   2.996   2.601   2.611 -0.3472 -0.3162  0.0485
 8754TIP3    H147753   2.986   2.515   2.570  0.5499 -2.4057  3.7723
 8754TIP3    H247754   2.919   2.611   2.667  1.2025 -0.4617  2.3535
 8755TIP3   OH247755   1.533   0.910  13.382 -0.2124 -0.5160 -0.7489
 8755TIP3    H147756   1.494   0.982  13.331  1.2172  1.4585  0.7498
 8755TIP3    H247757   1.502   0.924  13.471  1.2236 -0.8716 -0.1549
 8756TIP3   OH247758   0.614   1.055  13.655 -0.2216 -0.0742 -0.6667
 8756TIP3    H147759   0.621   0.987  13.723  0.6366  0.4657 -0.1859
 8756TIP3    H247760   0.594   1.007  13.575  0.0576 -0.8662 -0.2754
 8757TIP3   OH247761   0.298   6.022  16.203 -0.3042  0.1760 -0.2740
 8757TIP3    H147762   0.366   5.955  16.206  0.2264  0.5138 -2.7653
 8757TIP3    H247763   0.326   6.089  16.266  1.5978  0.2051 -1.1030
 8758TIP3   OH247764   0.151   0.588  16.497 -0.6148 -0.4145  0.0397
 8758TIP3    H147765   0.234   0.609  16.539 -0.4309  1.1473 -0.9935
 8758TIP3    H247766   0.085   0.633  16.551 -0.8928 -2.1280  1.1949
 8759TIP3   OH247767   2.910   6.248   3.102 -0.2364 -0.0705 -0.0337
 8759TIP3    H147768   3.004   6.268   3.098 -0.4269  0.6285 -1.4643
 8759TIP3    H247769   2.906   6.153   3.091  0.4393 -0.5560  3.0329
 8760TIP3   OH247770   5.064   3.563  12.464 -0.2328 -0.3326  0.4245
 8760TIP3    H147771   4.990   3.509  12.435 -0.6878 -0.0606  1.0488
 8760TIP3    H247772   5.023   3.632  12.517  0.6274 -1.4345  2.6610
 8761TIP3   OH247773   6.468   5.887   1.113 -0.1745  0.7703  0.2391
 8761TIP3    H147774   6.476   5.814   1.174  2.8134  0.1020 -0.8071
 8761TIP3    H247775   6.377   5.883   1.084  0.2064 -3.7532 -1.1494
 8762TIP3   OH247776   4.181   1.093   5.655 -0.1223  0.7447  0.1947
 8762TIP3    H147777   4.135   1.011   5.675  3.1984 -1.7244 -1.2030
 8762TIP3    H247778   4.130   1.133   5.585 -0.8101 -1.2274 -0.5095
 8763TIP3   OH247779   2.953   5.397  11.353 -0.1369 -0.4399  0.3601
 8763TIP3    H147780   2.903   5.450  11.415 -0.2587  0.7943 -0.7456
 8763TIP3    H247781   3.044   5.406  11.381 -0.1829  0.1984  0.3274
 8764TIP3   OH247782   3.710   0.287   3.633  0.7456  0.2869  0.0154
 8764TIP3    H147783   3.682   0.379   3.627  0.1914  0.1174 -0.0694
 8764TIP3    H247784   3.768   0.285   3.709  1.2744  0.8322 -0.3618
 8765TIP3   OH247785   4.448   1.860  11.878 -0.2208  0.6575 -0.1740
 8765TIP3    H147786   4.499   1.870  11.798 -1.0303  0.3980 -0.7327
 8765TIP3    H247787   4.508   1.885  11.948  1.6696 -2.4205 -0.5237
 8766TIP3   OH247788   3.440   4.554   0.371 -0.2533  0.0957 -0.4258
 8766TIP3    H147789   3.384   4.514   0.305  1.1454  0.0439 -1.6281
 8766TIP3    H247790   3.483   4.480   0.413 -0.6967  0.1603  0.1518
 8767TIP3   OH247791   6.806   1.767  14.499  0.3217  0.3113  0.0830
 8767TIP3    H147792   6.901   1.778  14.507  0.4132 -0.3517 -0.0345
 8767TIP3    H247793   6.770   1.807  14.579  0.6483  1.1190 -0.1574
 8768TIP3   OH247794   2.238   3.728   4.118 -0.5437  0.0857 -0.0318
 8768TIP3    H147795   2.257   3.728   4.024 -0.9049  1.2001 -0.1180
 8768TIP3    H247796   2.215   3.819   4.138  0.5384  0.0893  1.3409
 8769TIP3   OH247797   4.984   4.407  16.335  0.0191 -0.1742  0.4934
 8769TIP3    H147798   5.067   4.418  16.287 -0.3361  1.4256  0.1782
 8769TIP3    H247799   4.960   4.496  16.361 -2.7048 -0.2521 -1.3110
 8770TIP3   OH247800   1.494   1.868   0.180  0.5681  0.4913 -0.3813
 8770TIP3    H147801   1.438   1.806   0.135 -0.1682  1.8695 -1.4399
 8770TIP3    H247802   1.439   1.905   0.249  0.5217  1.0299 -0.7018
 8771TIP3   OH247803   4.033   2.211   0.627  0.0584 -0.1132  0.1118
 8771TIP3    H147804   4.112   2.211   0.572  1.5396 -2.1244  2.0677
 8771TIP3    H247805   4.058   2.261   0.705 -0.9981  0.1611  0.2906
 8772TIP3   OH247806   2.399   5.286   5.851  0.4282  0.3357 -0.0983
 8772TIP3    H147807   2.463   5.358   5.856 -1.6647  2.3103 -0.0486
 8772TIP3    H247808   2.370   5.273   5.941  0.6410 -0.4764 -0.1378
 8773TIP3   OH247809   6.162   5.361  15.254  0.4872 -0.1663  0.3381
 8773TIP3    H147810   6.167   5.441  15.201  0.0020  0.2399  0.8823
 8773TIP3    H247811   6.091   5.310  15.214 -0.5912  0.6084  1.1738
 8774TIP3   OH247812   2.926   0.016   0.977 -0.3364  0.1531  0.4505
 8774TIP3    H147813   2.894   0.010   1.067 -3.2502 -1.4801 -0.5656
 8774TIP3    H247814   2.849  -0.001   0.923  1.0582  2.1694 -2.4345
 8775TIP3   OH247815   4.720   6.123   0.021 -0.1150 -0.0439 -0.5339
 8775TIP3    H147816   4.652   6.172  -0.026 -0.7983 -1.5199 -1.1463
 8775TIP3    H247817   4.801   6.146  -0.024 -0.0600  2.1626  0.5428
 8776TIP3   OH247818   4.004   5.170   2.020 -0.5727 -1.0069  0.3451
 8776TIP3    H147819   3.939   5.240   2.026  0.1723 -0.2942  0.3299
 8776TIP3    H247820   4.005   5.146   1.927 -1.9357 -2.1408  0.5885
 8777TIP3   OH247821   6.029   2.370   1.836 -0.1940 -0.0172 -0.5030
 8777TIP3    H147822   6.035   2.394   1.743 -1.4515 -0.6711 -0.7685
 8777TIP3    H247823   6.042   2.275   1.837 -0.7926 -0.0944 -0.0756
 8778TIP3   OH247824   6.562   6.272  13.978 -0.5049 -0.1216 -0.2537
 8778TIP3    H147825   6.554   6.277  13.883 -0.1879  0.8430 -0.2382
 8778TIP3    H247826   6.560   6.178  13.997  3.6664 -0.6817 -1.6146
 8779TIP3   OH247827   4.107   2.438  12.501  0.1085 -0.3981 -0.1117
 8779TIP3    H147828   4.039   2.506  12.505  1.5897  1.3278 -2.0545
 8779TIP3    H247829   4.189   2.487  12.496  1.1853 -2.2730 -2.8097
 8780TIP3   OH247830   1.357   4.347  13.957 -0.6520  0.1656 -0.0663
 8780TIP3    H147831   1.296   4.415  13.985 -0.7675 -0.1613  0.5118
 8780TIP3    H247832   1.405   4.385  13.884 -2.0221  0.1854 -0.9876
 8781TIP3   OH247833   1.147   5.082  16.882  0.1849  0.2897 -0.3096
 8781TIP3    H147834   1.193   5.059  16.801  2.6155  1.2334  0.7061
 8781TIP3    H247835   1.210   5.063  16.952 -2.0854 -1.1274  1.4793
 8782TIP3   OH247836   4.343   0.259  12.443 -0.1230 -0.0448  0.1962
 8782TIP3    H147837   4.355   0.299  12.529 -0.7079  0.5848 -0.0063
 8782TIP3    H247838   4.430   0.232  12.417  0.3573  1.3765  0.2203
 8783TIP3   OH247839   5.945   1.905   5.930 -0.0159 -0.4291 -0.7976
 8783TIP3    H147840   5.908   1.959   5.861 -0.4480  0.5077  0.1511
 8783TIP3    H247841   5.876   1.843   5.953 -0.3985  0.2240 -0.1858
 8784TIP3   OH247842   5.971   5.577   0.188  0.2203 -0.4707  0.0477
 8784TIP3    H147843   6.019   5.559   0.108  0.3639  0.9534 -0.2122
 8784TIP3    H247844   6.037   5.604   0.252  0.0452 -1.0337  0.4791
 8785TIP3   OH247845   5.190   6.148  15.918 -0.1145 -0.5368 -0.0941
 8785TIP3    H147846   5.275   6.187  15.901 -0.9791  0.9985 -1.2026
 8785TIP3    H247847   5.132   6.223  15.932 -1.6636 -1.4642 -1.2996
 8786TIP3   OH247848   0.942   2.467   2.230 -0.7212  0.8205 -0.7863
 8786TIP3    H147849   0.949   2.478   2.325 -0.6479  1.3261 -0.8447
 8786TIP3    H247850   0.964   2.553   2.195 -0.3440  0.5257 -1.2797
 8787TIP3   OH247851   4.803   5.610   1.608 -0.0165  0.0885  0.1847
 8787TIP3    H147852   4.768   5.623   1.697  1.3155  0.4973  0.6819
 8787TIP3    H247853   4.778   5.520   1.585 -0.3619 -0.0312  0.9918
 8788TIP3   OH247854   3.064   3.736  10.435 -0.1620  0.8539  0.2243
 8788TIP3    H147855   3.075   3.647  10.470 -1.9034  0.8924  0.9486
 8788TIP3    H247856   3.153   3.772  10.434  0.3414 -0.2508  1.6693
 8789TIP3   OH247857   4.960   6.199  12.036  0.3583 -0.1302 -0.1403
 8789TIP3    H147858   4.978   6.105  12.033 -0.1510 -0.2351 -0.0096
 8789TIP3    H247859   4.973   6.228  11.946  1.3880 -0.1554 -0.0096
 8790TIP3   OH247860   3.839   0.699   1.038  0.5757  0.5457 -0.7644
 8790TIP3    H147861   3.785   0.653   1.103  3.1584 -0.4347  0.8406
 8790TIP3    H247862   3.828   0.792   1.059 -1.5343  0.5246 -1.4496
 8791TIP3   OH247863   0.816   4.673   4.715 -0.2717 -0.0776  0.0011
 8791TIP3    H147864   0.837   4.764   4.737 -0.3006 -0.4988  2.0029
 8791TIP3    H247865   0.895   4.625   4.735 -0.9163 -0.7550  1.0069
 8792TIP3   OH247866   3.080   4.011   0.242 -0.4380  0.1571 -0.3799
 8792TIP3    H147867   3.150   4.073   0.219  2.0971 -2.2140  0.2903
 8792TIP3    H247868   3.083   4.007   0.338 -1.5283 -0.0034 -0.3445
 8793TIP3   OH247869   4.735   1.062  15.891 -0.1280  0.0086  0.5186
 8793TIP3    H147870   4.792   1.041  15.817 -1.0677 -0.0476 -0.2049
 8793TIP3    H247871   4.792   1.055  15.968  0.6379 -0.8539 -0.1085
 8794TIP3   OH247872   3.509   0.194   5.816 -0.0501 -0.0645 -0.0813
 8794TIP3    H147873   3.423   0.158   5.836 -0.9075  1.5373 -0.7288
 8794TIP3    H247874   3.533   0.152   5.733 -1.2915  1.2030 -1.1229
 8795TIP3   OH247875   3.665   2.601   4.422  0.3536 -0.4538  0.0480
 8795TIP3    H147876   3.746   2.552   4.439  0.2916 -0.3041  0.7856
 8795TIP3    H247877   3.608   2.539   4.377  0.6418 -0.7520  0.0894
 8796TIP3   OH247878   0.553   5.925  16.264 -0.1575 -0.7036  0.4436
 8796TIP3    H147879   0.582   5.993  16.204 -0.6470 -0.1277  0.8580
 8796TIP3    H247880   0.630   5.906  16.318 -0.8713  1.9900  2.6600
 8797TIP3   OH247881   1.112   2.498  13.939 -0.4047 -0.0794 -0.0838
 8797TIP3    H147882   1.033   2.484  13.991 -0.6880 -1.0502 -0.7434
 8797TIP3    H247883   1.149   2.411  13.928  1.0301  0.4201  0.6152
 8798TIP3   OH247884   6.847   2.829  13.266  0.7654 -0.0546 -0.5872
 8798TIP3    H147885   6.780   2.810  13.201  0.5689  0.5501 -0.5671
 8798TIP3    H247886   6.799   2.863  13.341  0.9494 -1.2127  0.0663
 8799TIP3   OH247887   0.206   1.628   0.529  0.5598 -0.6749  0.2350
 8799TIP3    H147888   0.195   1.711   0.483  1.1247 -1.5061 -1.4935
 8799TIP3    H247889   0.248   1.651   0.612 -0.3083  0.8578  0.2761
 8800TIP3   OH247890   0.651   1.922  13.778  0.0930 -0.3486  0.2880
 8800TIP3    H147891   0.610   1.847  13.821 -0.0148 -0.1629  0.5086
 8800TIP3    H247892   0.581   1.963  13.727 -0.1170  0.2337  1.0211
 8801TIP3   OH247893   3.524   4.141   4.237 -0.0711  0.5686  0.2179
 8801TIP3    H147894   3.501   4.135   4.144  0.3066  0.4280  0.1313
 8801TIP3    H247895   3.513   4.051   4.269 -0.8447  0.7467  0.4649
 8802TIP3   OH247896   1.996   1.687  13.094  1.0848  0.3455 -0.0152
 8802TIP3    H147897   2.010   1.595  13.070  1.1202  0.3907 -0.1710
 8802TIP3    H247898   2.084   1.720  13.112  1.0071  0.1682  0.7105
 8803TIP3   OH247899   1.694   2.724   6.376 -0.7674 -0.2996 -0.0714
 8803TIP3    H147900   1.732   2.636   6.368  0.3522 -0.1298  2.5909
 8803TIP3    H247901   1.748   2.778   6.318 -0.4572 -1.0655 -0.5216
 8804TIP3   OH247902   5.132   4.137   3.886  0.1015 -0.4742  0.2597
 8804TIP3    H147903   5.155   4.221   3.847 -0.4186 -0.7360 -0.6516
 8804TIP3    H247904   5.128   4.154   3.980 -3.1728  1.3550 -0.0456
 8805TIP3   OH247905   3.538   6.372   0.058 -0.0084 -0.0804 -0.7889
 8805TIP3    H147906   3.580   6.443   0.105 -0.1511 -0.1146 -0.6093
 8805TIP3    H247907   3.537   6.401  -0.034 -0.8402  0.5245 -0.5969
 8806TIP3   OH247908   6.698   5.006  16.185 -0.1963 -0.0106  0.0446
 8806TIP3    H147909   6.790   5.005  16.159 -0.3390 -1.2242 -0.4745
 8806TIP3    H247910   6.655   4.949  16.122 -1.3244  0.6196  0.2352
 8807TIP3   OH247911   6.706   6.504  13.574 -0.1493 -0.3631 -0.1743
 8807TIP3    H147912   6.660   6.458  13.504 -0.2631  1.1077 -1.1144
 8807TIP3    H247913   6.670   6.467  13.655 -0.6557 -1.4775 -0.8852
 8808TIP3   OH247914   5.538   5.629  14.321  0.5907 -0.2602 -0.4226
 8808TIP3    H147915   5.486   5.560  14.281  0.3480  0.1304 -0.7918
 8808TIP3    H247916   5.477   5.675  14.380  1.7339 -3.0096  3.2635
 8809TIP3   OH247917   1.753   3.186  11.516 -0.2102  0.6203 -1.3950
 8809TIP3    H147918   1.843   3.169  11.489 -0.2326 -0.4803 -0.8066
 8809TIP3    H247919   1.760   3.259  11.577  0.4682 -0.3526 -0.2631
 8810TIP3   OH247920   1.764   3.031   0.153 -0.1715  0.4010 -0.3787
 8810TIP3    H147921   1.708   3.034   0.231 -2.6990 -0.4917 -2.0243
 8810TIP3    H247922   1.730   2.957   0.102  2.9216 -0.5601 -1.2897
 8811TIP3   OH247923   4.299   6.093  12.075  0.1146 -0.3916 -0.5793
 8811TIP3    H147924   4.312   6.127  12.164  0.6922 -0.9270 -0.4517
 8811TIP3    H247925   4.226   6.145  12.040 -0.8224 -0.8642  0.5757
 8812TIP3   OH247926   3.761   4.453   4.319  0.0251 -0.6277 -0.2216
 8812TIP3    H147927   3.759   4.358   4.327  0.8919 -0.6780 -0.4118
 8812TIP3    H247928   3.850   4.477   4.347 -0.0188  0.0683 -0.6508
 8813TIP3   OH247929   0.663   2.098  11.136 -0.5662 -0.0563 -0.3603
 8813TIP3    H147930   0.674   2.067  11.225 -0.9637  1.5792  0.3014
 8813TIP3    H247931   0.749   2.131  11.110 -0.7117  0.4644 -0.1788
 8814TIP3   OH247932   0.084   4.916  13.580  0.6170 -0.4418  0.6528
 8814TIP3    H147933   0.169   4.890  13.614  1.9694  0.0530 -2.0247
 8814TIP3    H247934   0.090   5.011  13.569 -0.4716 -0.3343  0.8635
 8815TIP3   OH247935   6.429   3.342  15.347  0.2474  0.0657 -0.1309
 8815TIP3    H147936   6.459   3.407  15.410  1.2219 -0.9130  0.4419
 8815TIP3    H247937   6.335   3.332  15.366  0.3378  0.4490  0.5423
 8816TIP3   OH247938   4.228   3.266  15.675 -0.5357  0.5051 -0.3261
 8816TIP3    H147939   4.277   3.343  15.645  0.4503 -0.1760 -0.5114
 8816TIP3    H247940   4.278   3.191  15.642 -1.1593 -0.2275  0.3450
 8817TIP3   OH247941   6.400   6.305   3.016 -0.1725 -0.3454  0.1897
 8817TIP3    H147942   6.484   6.352   3.019  0.3040 -1.0895 -0.9584
 8817TIP3    H247943   6.338   6.370   2.985 -0.6335  0.9960  3.5141
 8818TIP3   OH247944   4.644   6.492  11.402  0.0876 -0.4815 -0.2709
 8818TIP3    H147945   4.644   6.397  11.391 -0.4439 -0.7871  1.8438
 8818TIP3    H247946   4.578   6.524  11.341  0.5098 -1.4303 -1.2307
 8819TIP3   OH247947   1.614   5.728   4.347  0.3449  0.6928 -0.5575
 8819TIP3    H147948   1.647   5.818   4.351  0.6987  0.5308  1.0070
 8819TIP3    H247949   1.692   5.675   4.330  0.3571  0.5919 -0.2060
 8820TIP3   OH247950   2.776   4.818   3.194  0.2751  0.0262  0.0526
 8820TIP3    H147951   2.712   4.863   3.138  0.1801  0.2248  0.3208
 8820TIP3    H247952   2.851   4.878   3.198  0.7401 -0.4762 -0.7687
 8821TIP3   OH247953   2.865   0.373  11.485  0.0460  0.1126 -0.0744
 8821TIP3    H147954   2.927   0.300  11.481 -1.1403 -0.9435  0.0515
 8821TIP3    H247955   2.829   0.379  11.397 -2.2878 -1.7067  0.6506
 8822TIP3   OH247956   6.211   3.505   0.420  0.0029  0.0040  0.0014
 8822TIP3    H147957   6.225   3.597   0.446  2.2429  0.1114 -1.3814
 8822TIP3    H247958   6.260   3.455   0.485 -1.0881 -0.2653  0.6569
 8823TIP3   OH247959   6.818   3.460   5.148 -0.1671 -0.4163 -0.0283
 8823TIP3    H147960   6.726   3.488   5.150 -0.3788 -1.0899  1.5615
 8823TIP3    H247961   6.864   3.532   5.105 -1.2015  0.7272  0.7053
 8824TIP3   OH247962   0.956   6.749  14.171 -0.5158 -0.1805  0.4117
 8824TIP3    H147963   0.952   6.836  14.133 -3.5525 -0.5796 -0.4898
 8824TIP3    H247964   1.039   6.746  14.219  0.1989  2.7531 -0.4948
 8825TIP3   OH247965   6.109   2.570  13.622  0.4888  0.2291 -0.2788
 8825TIP3    H147966   6.019   2.601  13.620  0.6579  0.7525 -0.0397
 8825TIP3    H247967   6.161   2.647  13.599  0.9006  0.0422  0.0232
 8826TIP3   OH247968   0.017   1.515   3.606  0.4154 -0.0848  0.4572
 8826TIP3    H147969  -0.031   1.595   3.628 -1.0937 -0.2180 -1.9884
 8826TIP3    H247970   0.055   1.486   3.689 -0.1750  2.3805  1.6659
 8827TIP3   OH247971   5.355   3.217   0.531  0.5853 -0.1785  0.1180
 8827TIP3    H147972   5.306   3.299   0.523  0.5876 -0.2817 -1.1180
 8827TIP3    H247973   5.382   3.215   0.623 -2.7798 -0.7159  1.2555
 8828TIP3   OH247974   3.417   6.164  13.113 -0.3394 -0.2006  0.7944
 8828TIP3    H147975   3.365   6.210  13.047 -0.7918  0.4329  1.5770
 8828TIP3    H247976   3.376   6.078  13.121 -0.6080 -0.0883  0.6361
 8829TIP3   OH247977   1.459   3.342  13.894  0.0176  1.1430 -0.0906
 8829TIP3    H147978   1.510   3.285  13.951 -0.6765  2.3248  1.7998
 8829TIP3    H247979   1.377   3.356  13.941 -0.7544  1.8572 -1.5768
 8830TIP3   OH247980   0.244   2.681   4.133  0.4005 -0.3792  0.0115
 8830TIP3    H147981   0.252   2.749   4.067 -0.6262  0.8564  1.0953
 8830TIP3    H247982   0.183   2.618   4.096 -2.9168  1.9998  1.0132
 8831TIP3   OH247983   0.633   3.574   4.359  0.3600 -0.1281 -0.3105
 8831TIP3    H147984   0.697   3.518   4.404 -1.0751 -2.0763 -0.5435
 8831TIP3    H247985   0.681   3.610   4.285  2.4553  2.2195  1.9502
 8832TIP3   OH247986   6.809   1.884  12.241  0.1077 -0.2933  0.4860
 8832TIP3    H147987   6.760   1.814  12.286 -1.0364  0.1710 -0.0046
 8832TIP3    H247988   6.768   1.965  12.271  2.0684  0.2705  1.8298
 8833TIP3   OH247989   1.883   1.719   0.202 -0.4512 -0.4222 -0.0427
 8833TIP3    H147990   1.905   1.651   0.266  0.9687  0.0103 -0.0361
 8833TIP3    H247991   1.968   1.747   0.167 -1.2114 -1.0522 -2.5708
 8834TIP3   OH247992   2.859   5.920  11.543  0.2970 -0.2342 -0.5048
 8834TIP3    H147993   2.837   5.863  11.617  1.4093 -2.0477 -1.4882
 8834TIP3    H247994   2.955   5.920  11.541  0.2925 -0.3638 -2.0044
 8835TIP3   OH247995   6.158   5.143  12.115  0.4293 -0.0993  0.5189
 8835TIP3    H147996   6.210   5.091  12.055  0.8298 -0.8036  1.4502
 8835TIP3    H247997   6.171   5.102  12.201 -2.3885 -0.9005  0.6876
 8836TIP3   OH247998   4.763   6.362   0.487  0.2325  0.3944 -0.0272
 8836TIP3    H147999   4.798   6.415   0.415 -0.5642  0.1157 -0.6416
 8836TIP3    H248000   4.702   6.302   0.444 -0.0088  0.0009  0.8496
 8837TIP3   OH248001   1.650   3.649  12.371  0.3729  0.3388 -0.5237
 8837TIP3    H148002   1.598   3.626  12.448  0.9261  2.2504  0.4933
 8837TIP3    H248003   1.688   3.734  12.392  1.4195  0.4297 -2.4957
 8838TIP3   OH248004   2.255   4.490   5.799  0.7311  0.0348 -0.0057
 8838TIP3    H148005   2.269   4.547   5.723 -2.8946  1.2303  0.0251
 8838TIP3    H248006   2.288   4.539   5.873 -0.2184  1.1250 -0.2728
 8839TIP3   OH248007   3.431   1.182  10.929  0.1448  0.3515  0.2916
 8839TIP3    H148008   3.371   1.111  10.906 -2.5755  1.9768  1.7023
 8839TIP3    H248009   3.471   1.208  10.846 -2.3379  0.1702 -1.0611
 8840TIP3   OH248010   4.635   5.465  12.153  0.3013  0.0025  0.7390
 8840TIP3    H148011   4.717   5.434  12.192  0.1401 -0.2510  0.8738
 8840TIP3    H248012   4.567   5.411  12.192  0.2210 -0.8895 -0.5826
 8841TIP3   OH248013   0.070   2.362  15.054 -0.2783 -0.0169 -1.0804
 8841TIP3    H148014   0.078   2.442  15.106 -2.3693  0.1046 -0.8572
 8841TIP3    H248015  -0.008   2.376  15.001 -1.0694 -2.1501 -0.5727
 8842TIP3   OH248016   4.810   5.434  10.679 -0.0524  0.1244  0.2521
 8842TIP3    H148017   4.786   5.524  10.703  1.4581  0.7402 -0.4244
 8842TIP3    H248018   4.742   5.407  10.617  0.2252  1.3152 -0.5978
 8843TIP3   OH248019   1.234   5.872  15.177 -0.7131 -0.1961  0.1575
 8843TIP3    H148020   1.323   5.899  15.155 -0.5611 -0.3313  0.5955
 8843TIP3    H248021   1.229   5.780  15.151 -0.2996 -0.5679  1.3335
 8844TIP3   OH248022   5.123   5.780  14.374  0.4610 -0.3360 -0.2777
 8844TIP3    H148023   5.113   5.772  14.469  0.3956  0.1580 -0.2419
 8844TIP3    H248024   5.216   5.798  14.361  0.2146  1.1720 -0.1865
 8845TIP3   OH248025   0.144   5.928   3.091 -0.0621  0.5765  0.4360
 8845TIP3    H148026   0.204   5.984   3.140 -0.4434  0.2231  1.3227
 8845TIP3    H248027   0.152   5.842   3.131 -0.7496  0.3944  0.2099
 8846TIP3   OH248028   5.896   6.581  11.495  0.0209  0.3703 -0.4831
 8846TIP3    H148029   5.812   6.555  11.533 -0.6008  1.5897 -0.9446
 8846TIP3    H248030   5.914   6.514  11.429  0.7015 -1.3000  1.3063
 8847TIP3   OH248031   2.517   0.278   1.179  0.4522 -0.0597  0.0114
 8847TIP3    H148032   2.561   0.207   1.224 -1.9611 -0.0662  2.6222
 8847TIP3    H248033   2.494   0.341   1.247 -1.2519  1.1634 -1.5611
 8848TIP3   OH248034   5.511   6.119  16.228 -0.6166 -0.1416  0.0926
 8848TIP3    H148035   5.459   6.196  16.247  1.0699  0.6169  2.0656
 8848TIP3    H248036   5.490   6.057  16.299  0.5672 -0.1030  0.5003
 8849TIP3   OH248037   1.451   4.119  14.064 -0.1020  0.3725  0.3560
 8849TIP3    H148038   1.536   4.120  14.020 -0.6043 -1.4690 -0.7911
 8849TIP3    H248039   1.411   4.202  14.041  0.2471  0.0632 -1.5294
 8850TIP3   OH248040   3.150   5.271   3.184  0.0874 -0.4140  0.6739
 8850TIP3    H148041   3.192   5.252   3.268 -0.9376  0.8418  1.5149
 8850TIP3    H248042   3.139   5.185   3.143  4.1478 -0.8197 -0.0284
 8851TIP3   OH248043   2.422   5.983  13.060  0.4955  0.4592  0.2085
 8851TIP3    H148044   2.421   5.977  13.156  1.2652 -0.8078  0.1608
 8851TIP3    H248045   2.405   6.075  13.042  4.1982  1.6192  1.7017
 8852TIP3   OH248046   0.514   1.017   4.151  0.0542 -1.1539  0.2229
 8852TIP3    H148047   0.493   0.965   4.228  0.6188  0.1664  1.3117
 8852TIP3    H248048   0.466   1.099   4.164 -1.8370 -1.7659 -2.0563
 8853TIP3   OH248049   1.976   3.948   0.628 -0.3907  0.3251 -0.3032
 8853TIP3    H148050   1.892   3.910   0.654 -0.4488 -0.4122 -1.4932
 8853TIP3    H248051   2.004   3.998   0.705 -2.3103  1.2993 -0.1802
 8854TIP3   OH248052   2.062   5.845   1.799 -0.2028  0.5283 -0.1161
 8854TIP3    H148053   2.139   5.839   1.742 -0.0219 -0.7746  0.2353
 8854TIP3    H248054   2.048   5.755   1.829 -1.9585  0.7300 -0.2842
 8855TIP3   OH248055   6.085   2.437  13.855  0.1833 -0.3515  0.0027
 8855TIP3    H148056   6.152   2.376  13.825  0.4813 -0.2723  0.5109
 8855TIP3    H248057   6.065   2.490  13.777  0.9793 -0.1244 -0.0567
 8856TIP3   OH248058   2.573   1.293   1.782 -0.3027 -0.3706  0.1897
 8856TIP3    H148059   2.556   1.211   1.828 -0.1675 -1.3202 -1.4143
 8856TIP3    H248060   2.616   1.268   1.701 -3.2618  0.9362 -1.9814
 8857TIP3   OH248061   3.422   4.465  13.172  0.4417  0.4796  0.7041
 8857TIP3    H148062   3.464   4.443  13.255  1.5674  1.1816  0.3458
 8857TIP3    H248063   3.417   4.383  13.124 -0.4033  0.0322  1.5464
 8858TIP3   OH248064   5.442   2.210   2.273  0.3304  0.9370  0.2439
 8858TIP3    H148065   5.374   2.277   2.269 -0.6594 -0.0436 -0.1110
 8858TIP3    H248066   5.396   2.131   2.304  1.1342  0.0392 -0.7699
 8859TIP3   OH248067   1.057   1.580   3.395  0.3324 -0.0110  0.0919
 8859TIP3    H148068   1.145   1.558   3.426 -0.2513 -1.0628  1.1027
 8859TIP3    H248069   1.014   1.619   3.472  0.2213  1.4222 -0.6751
 8860TIP3   OH248070   3.313   6.725   0.775 -0.3618 -0.5065  0.0972
 8860TIP3    H148071   3.366   6.804   0.787 -1.3894  0.3108 -0.5447
 8860TIP3    H248072   3.300   6.691   0.863  0.5807 -0.2950  0.3278
 8861TIP3   OH248073   6.342   2.783   3.929 -0.0458 -0.0402  0.1267
 8861TIP3    H148074   6.371   2.713   3.987 -1.3639  0.2883  1.2337
 8861TIP3    H248075   6.302   2.848   3.987  0.1427  1.1259 -0.9825
 8862TIP3   OH248076   0.875   2.269  12.675 -0.2547  0.1705 -0.5210
 8862TIP3    H148077   0.957   2.242  12.716 -0.4900  0.9986  0.5500
 8862TIP3    H248078   0.830   2.187  12.655  0.6791 -0.2858 -0.8091
 8863TIP3   OH248079   3.266   4.994  17.044  0.0676 -0.4119 -0.1682
 8863TIP3    H148080   3.218   5.054  17.101  0.4773  0.1107 -0.3661
 8863TIP3    H248081   3.222   5.001  16.960  0.8620  0.5533 -0.5262
 8864TIP3   OH248082   0.208   2.851   3.016  0.0919 -0.1112 -0.0746
 8864TIP3    H148083   0.113   2.836   3.021  0.1959 -0.7581 -0.0027
 8864TIP3    H248084   0.242   2.822   3.100  0.5576 -1.4588 -0.6986
 8865TIP3   OH248085   1.993   0.817   5.448  0.8057 -0.2161  0.0788
 8865TIP3    H148086   1.976   0.760   5.373  0.7799 -0.0593 -0.0328
 8865TIP3    H248087   1.928   0.887   5.441  1.0130 -0.0238  0.0689
 8866TIP3   OH248088   2.010   0.967   1.006  0.9350 -0.1163  0.1997
 8866TIP3    H148089   2.059   0.919   1.072  1.0255  0.8012  0.8154
 8866TIP3    H248090   1.959   1.032   1.055 -0.3425 -0.5580 -0.4866
 8867TIP3   OH248091   1.700   4.789  15.637  0.4072 -0.1463 -0.0421
 8867TIP3    H148092   1.780   4.792  15.585  0.3770 -2.3712 -0.3223
 8867TIP3    H248093   1.709   4.711  15.691 -1.5091 -0.4000 -0.0099
 8868TIP3   OH248094   2.127   1.318  16.490 -0.5053  0.4778 -0.3513
 8868TIP3    H148095   2.200   1.347  16.435 -1.1572  0.2725 -1.3489
 8868TIP3    H248096   2.100   1.234  16.452 -0.3191 -0.1898  0.9130
 8869TIP3   OH248097   5.796   5.402  11.750 -0.3393 -0.1042  0.0350
 8869TIP3    H148098   5.862   5.343  11.714 -1.6301 -0.8075 -1.2639
 8869TIP3    H248099   5.740   5.347  11.804 -1.2665 -0.0039 -0.7931
 8870TIP3   OH248100   2.950   5.956   0.751  0.6497  0.2724  0.0370
 8870TIP3    H148101   2.937   5.960   0.656  0.7833 -0.5755 -0.0221
 8870TIP3    H248102   2.864   5.930   0.785  0.5250  0.8522  0.1795
 8871TIP3   OH248103   4.008   5.286   1.098 -0.2365  0.0899 -0.6309
 8871TIP3    H148104   4.022   5.221   1.167  0.5058  1.3707  0.4613
 8871TIP3    H248105   4.086   5.280   1.043 -0.6140 -0.5971 -1.1142
 8872TIP3   OH248106   4.713   1.003   1.342 -0.3180 -0.6676 -0.1665
 8872TIP3    H148107   4.655   0.927   1.332  1.6056 -2.4380  1.1377
 8872TIP3    H248108   4.800   0.964   1.354  1.2097  1.8593 -2.1510
 8873TIP3   OH248109   4.342   4.371   0.227 -0.2615 -0.6370  0.2981
 8873TIP3    H148110   4.434   4.347   0.215  0.5751  2.8584 -1.9380
 8873TIP3    H248111   4.300   4.341   0.146 -0.3984  0.3688 -0.0107
 8874TIP3   OH248112   5.756   3.745   3.313  0.6060  0.0193  0.5775
 8874TIP3    H148113   5.818   3.800   3.266 -0.3664  1.0675  0.4883
 8874TIP3    H248114   5.808   3.671   3.344  2.3686  1.8396  2.2488
 8875TIP3   OH248115   3.749   1.561   4.573 -0.4084  0.3451 -0.0387
 8875TIP3    H148116   3.657   1.539   4.586 -0.0307 -1.4594 -0.1007
 8875TIP3    H248117   3.763   1.553   4.479 -0.6421  2.7182 -0.3259
 8876TIP3   OH248118   5.694   5.272   5.699  0.7469 -0.1844 -0.6165
 8876TIP3    H148119   5.764   5.209   5.687 -0.0269 -1.0823 -0.5170
 8876TIP3    H248120   5.722   5.326   5.773  0.6942 -1.4461  0.3563
 8877TIP3   OH248121   5.447   2.308   4.495  0.1052  0.2734  0.4081
 8877TIP3    H148122   5.533   2.346   4.480 -0.1878  0.2163 -1.7445
 8877TIP3    H248123   5.457   2.215   4.473 -0.1255 -0.1085  1.8139
 8878TIP3   OH248124   4.278   4.219  15.333 -0.8389  0.4464 -0.5889
 8878TIP3    H148125   4.265   4.313  15.349  1.2730  0.3745  2.4401
 8878TIP3    H248126   4.209   4.176  15.383 -0.8345  0.3662 -0.6523
 8879TIP3   OH248127   1.360   4.605   1.617 -0.1423  0.1937 -0.3470
 8879TIP3    H148128   1.430   4.634   1.676 -0.3204  1.1365 -0.5829
 8879TIP3    H248129   1.316   4.686   1.591  0.1246 -0.1616 -2.0259
 8880TIP3   OH248130   5.290   0.893   4.386 -0.1153  0.4085  0.4187
 8880TIP3    H148131   5.344   0.849   4.321 -0.7935  0.7724 -0.4095
 8880TIP3    H248132   5.259   0.822   4.443  0.2853  0.0578  0.2093
 8881TIP3   OH248133   2.564   2.464   5.639 -0.0029  0.1106 -0.1222
 8881TIP3    H148134   2.613   2.526   5.692  1.3499 -1.2298  0.2881
 8881TIP3    H248135   2.602   2.379   5.661 -0.3388 -0.6544 -2.1929
 8882TIP3   OH248136   0.064   0.443  13.100 -0.4865  0.7632  0.2551
 8882TIP3    H148137   0.090   0.367  13.152  1.8734  0.9020 -0.5808
 8882TIP3    H248138  -0.026   0.461  13.126 -1.0106 -2.1102  0.6989
 8883TIP3   OH248139   1.443   5.339  11.094  0.4022  0.5064 -0.3007
 8883TIP3    H148140   1.397   5.368  11.016  1.6269 -0.6649 -1.5150
 8883TIP3    H248141   1.491   5.417  11.124  1.3227  0.5484 -1.7887
 8884TIP3   OH248142   4.958   4.436  12.391 -0.4413 -0.5165  0.7103
 8884TIP3    H148143   5.022   4.394  12.448 -0.2072  1.0595  1.6801
 8884TIP3    H248144   4.886   4.374  12.385  0.1752 -1.3324  1.5170
 8885TIP3   OH248145   0.579   1.367  12.104  0.0073  0.2204 -0.5000
 8885TIP3    H148146   0.603   1.289  12.155  0.3419  0.9213  0.4391
 8885TIP3    H248147   0.603   1.344  12.014  1.1449 -0.3561 -0.0762
 8886TIP3   OH248148   1.726   3.715   3.311  0.2523  0.4663  0.0003
 8886TIP3    H148149   1.745   3.621   3.314 -0.0920  0.3817 -0.4246
 8886TIP3    H248150   1.648   3.724   3.366  2.5502  1.1040  3.4899
 8887TIP3   OH248151   2.596   4.737  14.143 -0.2495  0.1256  0.3636
 8887TIP3    H148152   2.520   4.779  14.104 -0.0915  1.0153  0.9945
 8887TIP3    H248153   2.587   4.644  14.119 -1.2604  0.3045  0.0119
 8888TIP3   OH248154   2.404   0.161   0.758 -0.2997  0.0823 -0.1689
 8888TIP3    H148155   2.394   0.164   0.854 -2.0597 -1.0238 -0.2621
 8888TIP3    H248156   2.347   0.089   0.731  0.4433  0.1451 -2.0392
 8889TIP3   OH248157   0.463   6.379   0.968  0.2846  0.1122  0.0894
 8889TIP3    H148158   0.409   6.335   1.032  0.3102  0.4481  0.3451
 8889TIP3    H248159   0.468   6.470   0.998 -0.1053  0.3880 -0.6468
 8890TIP3   OH248160   5.421   1.210   3.613 -0.5883 -0.4090 -0.3009
 8890TIP3    H148161   5.381   1.199   3.699 -0.7416 -0.0476 -0.3245
 8890TIP3    H248162   5.458   1.299   3.615 -1.7128  0.0951 -1.0614
 8891TIP3   OH248163   5.455   1.873  13.388  0.4729 -0.5917 -0.4590
 8891TIP3    H148164   5.413   1.787  13.391  0.2382 -0.4529  0.5366
 8891TIP3    H248165   5.385   1.934  13.365 -0.3255 -0.1415  2.6927
 8892TIP3   OH248166   0.458   1.143  16.685 -0.3173  0.3277  0.3424
 8892TIP3    H148167   0.389   1.200  16.649 -0.1004  0.4883  0.1758
 8892TIP3    H248168   0.443   1.058  16.643 -1.0541  0.0683  1.0925
 8893TIP3   OH248169   6.409   1.475  12.952  0.7583  0.1116  0.3196
 8893TIP3    H148170   6.334   1.416  12.942 -0.0242  0.8464  1.5926
 8893TIP3    H248171   6.398   1.540  12.882  2.2026 -1.7533 -1.7797
 8894TIP3   OH248172   6.056   3.114   2.075  0.4341  0.4587 -0.1631
 8894TIP3    H148173   6.067   3.087   1.983 -0.1760 -0.8885  0.1328
 8894TIP3    H248174   5.985   3.178   2.073 -0.4374 -0.4920 -0.5054
 8895TIP3   OH248175   0.728   2.042   1.755 -0.0046 -0.2704 -0.3581
 8895TIP3    H148176   0.724   2.038   1.851 -0.4690  0.0748 -0.3604
 8895TIP3    H248177   0.820   2.061   1.736  0.0011  0.1093  0.0388
 8896TIP3   OH248178   2.592   5.619  15.384  0.3710 -0.4230 -0.3498
 8896TIP3    H148179   2.598   5.597  15.477 -0.2763  0.3871 -0.1053
 8896TIP3    H248180   2.682   5.642  15.359  0.2613  1.0930  0.5359
 8897TIP3   OH248181   3.524   3.849  11.886 -0.2567  0.6569 -0.1073
 8897TIP3    H148182   3.486   3.803  11.962 -0.2798  0.6039 -0.1507
 8897TIP3    H248183   3.557   3.778  11.830 -1.8181  0.5898 -0.9987
 8898TIP3   OH248184   5.540   6.763  13.233 -0.5460 -0.6337 -0.1602
 8898TIP3    H148185   5.498   6.791  13.151 -0.3085 -2.0502 -0.7824
 8898TIP3    H248186   5.473   6.713  13.279  0.3519 -2.8541 -1.1310
 8899TIP3   OH248187   3.841   4.300  14.483  0.6324 -0.1546  0.1164
 8899TIP3    H148188   3.836   4.392  14.458 -0.8629 -0.3647 -0.4516
 8899TIP3    H248189   3.777   4.291  14.554 -0.1673 -1.0045 -0.6873
 8900TIP3   OH248190   5.376   5.211  12.008 -0.5346  0.1761  0.3534
 8900TIP3    H148191   5.315   5.270  11.964 -2.5760 -0.1908  2.4972
 8900TIP3    H248192   5.347   5.123  11.981 -1.6337 -0.0393  2.0817
 8901TIP3   OH248193   2.322   3.575  14.213 -0.4475  0.0194  0.0533
 8901TIP3    H148194   2.344   3.515  14.284  1.1315 -0.8633 -1.1054
 8901TIP3    H248195   2.400   3.629  14.201 -0.0814 -0.8538 -1.9376
 8902TIP3   OH248196   5.682   4.134  11.811 -0.1806 -0.0706 -0.3553
 8902TIP3    H148197   5.723   4.123  11.896  2.8244  0.2544 -1.6275
 8902TIP3    H248198   5.679   4.229  11.798  0.5584 -0.1391 -1.1010
 8903TIP3   OH248199   6.450   0.775  10.654  0.0952 -0.4141 -0.5880
 8903TIP3    H148200   6.369   0.775  10.602  1.1071  1.7834 -2.3648
 8903TIP3    H248201   6.511   0.722  10.602  0.0538 -1.4100  0.3521
 8904TIP3   OH248202   5.577   3.182  12.026  0.1544  0.0868 -0.7489
 8904TIP3    H148203   5.641   3.222  12.084  1.8710 -1.5031 -1.4515
 8904TIP3    H248204   5.596   3.219  11.940 -2.7325  2.8579 -0.3867
 8905TIP3   OH248205   1.988   2.615  16.990  0.1305 -0.5626  0.3510
 8905TIP3    H148206   2.051   2.686  16.979  1.3994 -1.6969 -0.0217
 8905TIP3    H248207   2.011   2.575  17.074  0.4926 -1.5298 -0.1958
 8906TIP3   OH248208   4.006   1.803  16.757 -0.3449  0.5184 -0.5858
 8906TIP3    H148209   3.916   1.818  16.784  0.6472  0.9721  2.9435
 8906TIP3    H248210   4.036   1.887  16.724 -0.5737  1.0029  0.4124
 8907TIP3   OH248211   6.438   1.726   6.097  0.2328 -0.4523  0.2133
 8907TIP3    H148212   6.397   1.776   6.167  0.2547 -1.1350  0.7284
 8907TIP3    H248213   6.391   1.752   6.018 -0.5082 -0.4552  0.6404
 8908TIP3   OH248214   6.087   1.349  13.653  0.1411 -0.5965 -0.5414
 8908TIP3    H148215   6.155   1.412  13.629  1.0436 -1.4917 -0.4377
 8908TIP3    H248216   6.131   1.264  13.646 -0.4056 -1.0853  1.4007
 8909TIP3   OH248217   5.831   0.681   6.281  0.1456 -0.5602 -0.5017
 8909TIP3    H148218   5.876   0.606   6.243  1.8071 -0.4293  1.1039
 8909TIP3    H248219   5.768   0.643   6.342 -0.7246 -0.6777 -1.4334
 8910TIP3   OH248220   6.244   4.915   2.591 -0.3227 -0.6280  0.2951
 8910TIP3    H148221   6.204   4.990   2.547 -2.0495 -1.1152  0.9798
 8910TIP3    H248222   6.214   4.921   2.681  0.8282 -1.2718  0.7500
 8911TIP3   OH248223   4.012   6.590   3.961 -0.0562 -0.3184  1.0337
 8911TIP3    H148224   3.956   6.545   4.025  0.5672 -1.2318  0.9613
 8911TIP3    H248225   4.092   6.609   4.010 -0.0555  0.0915  0.8692
 8912TIP3   OH248226   4.671   3.420  16.441  0.3180 -0.6125 -0.2449
 8912TIP3    H148227   4.655   3.345  16.498 -0.7524 -0.8018 -0.7485
 8912TIP3    H248228   4.766   3.427  16.435  0.6078  0.9880  3.5779
 8913TIP3   OH248229   1.825   6.640   2.069  0.5235 -0.1881  0.2408
 8913TIP3    H148230   1.738   6.601   2.061  1.0013 -1.8344  2.4174
 8913TIP3    H248231   1.821   6.692   2.149  1.4158  0.1792  0.0596
 8914TIP3   OH248232   2.903   3.770   1.243  0.3410 -0.0222  0.6004
 8914TIP3    H148233   2.900   3.675   1.249  0.4674 -0.0263  0.5925
 8914TIP3    H248234   2.983   3.789   1.194  0.3447  0.0903  0.6495
 8915TIP3   OH248235   0.425   1.166  11.765 -0.5068 -0.1213  0.9158
 8915TIP3    H148236   0.333   1.138  11.767 -1.3994  2.0036 -2.4782
 8915TIP3    H248237   0.428   1.243  11.822 -0.5609 -0.7316  1.7653
 8916TIP3   OH248238   0.758   1.635  12.057  0.5161 -0.0542 -0.4432
 8916TIP3    H148239   0.704   1.605  12.130 -0.8488 -1.4420 -1.9605
 8916TIP3    H248240   0.695   1.667  11.992  1.5836 -0.4292 -1.6967
 8917TIP3   OH248241   0.767   4.011   4.381 -0.5119 -0.3982  0.0298
 8917TIP3    H148242   0.694   3.950   4.369  0.7431 -1.9099 -0.2420
 8917TIP3    H248243   0.817   4.004   4.300 -0.3329  1.0272 -0.0022
 8918TIP3   OH248244   2.699   0.752  16.834  0.1530 -0.4428 -0.5060
 8918TIP3    H148245   2.679   0.670  16.790  1.3865 -1.7915  1.2626
 8918TIP3    H248246   2.790   0.741  16.863  0.5941  1.8623 -0.8351
 8919TIP3   OH248247   4.623   2.741  14.501  0.3865 -0.6792  0.1944
 8919TIP3    H148248   4.616   2.836  14.492  1.4954 -0.3850  2.0356
 8919TIP3    H248249   4.662   2.727  14.587 -0.6130 -2.8582  0.3675
 8920TIP3   OH248250   4.448   4.119   4.315 -0.1342 -0.3431 -0.0620
 8920TIP3    H148251   4.401   4.110   4.398  0.4925  1.0191  0.4788
 8920TIP3    H248252   4.497   4.037   4.306 -0.2845 -0.5511  0.8751
 8921TIP3   OH248253   6.463   4.553   5.890 -0.6545  0.9788  0.2694
 8921TIP3    H148254   6.380   4.518   5.921  0.6310 -2.0680  0.6680
 8921TIP3    H248255   6.511   4.575   5.969  0.6720 -1.9722  0.4408
 8922TIP3   OH248256   3.328   2.711   4.341 -0.1842  0.1322 -0.2301
 8922TIP3    H148257   3.317   2.620   4.315 -0.3058 -0.0895  0.5646
 8922TIP3    H248258   3.361   2.706   4.431  2.9097  0.8174 -1.1928
 8923TIP3   OH248259   0.402   2.114   5.364 -0.5159  0.3993  0.3700
 8923TIP3    H148260   0.327   2.058   5.382 -1.5450  1.2873 -0.9211
 8923TIP3    H248261   0.451   2.068   5.296 -0.7142  0.5121  0.1501
 8924TIP3   OH248262   0.834   4.199  14.698 -0.5072 -0.2152  0.1784
 8924TIP3    H148263   0.910   4.206  14.756 -0.0088 -1.5437 -0.2603
 8924TIP3    H248264   0.768   4.154  14.750 -0.9285  0.7374  0.4847
 8925TIP3   OH248265   3.078   4.628   2.447  0.2731  0.1294  0.1474
 8925TIP3    H148266   3.146   4.598   2.508 -0.2337 -0.2215  0.5534
 8925TIP3    H248267   3.057   4.550   2.395  0.3572  0.2994 -0.1392
 8926TIP3   OH248268   3.483   2.225   6.452  0.2303 -0.1791  0.1927
 8926TIP3    H148269   3.480   2.311   6.493  3.1969  1.0032 -1.7623
 8926TIP3    H248270   3.518   2.167   6.519  0.5493  0.6619  0.7718
 8927TIP3   OH248271   0.223   3.080   0.144  0.3580  0.3050  0.6581
 8927TIP3    H148272   0.224   2.985   0.130 -0.9514  0.3113  0.4550
 8927TIP3    H248273   0.255   3.117   0.061 -0.6463  0.0844  0.1566
 8928TIP3   OH248274   6.401   6.359   3.315 -0.3071  0.7749  0.1550
 8928TIP3    H148275   6.362   6.277   3.345  0.5357  0.1100 -0.5014
 8928TIP3    H248276   6.424   6.342   3.223 -0.8127  2.0075 -0.2202
 8929TIP3   OH248277   2.310   1.837  16.993 -0.1761 -0.2627  0.4568
 8929TIP3    H148278   2.311   1.822  16.899 -0.8414 -1.5252  0.6445
 8929TIP3    H248279   2.300   1.751  17.032  1.5515  0.0566  1.7432
 8930TIP3   OH248280   2.841   1.454   2.015  0.8258  0.3293 -0.4662
 8930TIP3    H148281   2.832   1.537   2.062 -0.2898  1.0005 -1.7984
 8930TIP3    H248282   2.771   1.399   2.049 -0.3150  0.9974 -1.6514
 8931TIP3   OH248283   5.940   5.854   3.341  0.3499 -0.2896 -0.0369
 8931TIP3    H148284   5.871   5.890   3.397  1.3739  0.1473  0.9967
 8931TIP3    H248285   6.015   5.911   3.356  0.9764 -0.8007 -1.0741
 8932TIP3   OH248286   4.008   5.181   3.217  0.2208 -0.2004 -0.7339
 8932TIP3    H148287   4.081   5.134   3.177 -0.6548 -1.2704 -1.1347
 8932TIP3    H248288   4.046   5.263   3.247  1.6239 -0.8093 -0.7639
 8933TIP3   OH248289   1.438   5.682  13.487  0.3560  0.4042 -0.3516
 8933TIP3    H148290   1.358   5.709  13.441  1.5268 -0.0317 -2.8328
 8933TIP3    H248291   1.413   5.604  13.536 -1.1090  1.2113  0.2439
 8934TIP3   OH248292   3.977   4.647   2.406  0.1348  0.2481  1.0062
 8934TIP3    H148293   3.892   4.615   2.438  0.6457 -1.8284  0.4154
 8934TIP3    H248294   4.037   4.634   2.479  0.3468 -0.1445  0.7648
 8935TIP3   OH248295   1.757   3.501   2.327 -0.2407 -0.0290 -0.5309
 8935TIP3    H148296   1.686   3.563   2.317 -0.8617 -0.2662  1.7533
 8935TIP3    H248297   1.829   3.552   2.365  0.3826 -0.0590 -1.6347
 8936TIP3   OH248298   3.749   6.647   1.751  0.7899 -0.2016 -0.3943
 8936TIP3    H148299   3.791   6.732   1.765 -0.8468  0.5853 -0.1312
 8936TIP3    H248300   3.823   6.586   1.742  2.0381  0.6442  2.7474
 8937TIP3   OH248301   2.393   2.195  12.319  0.3150 -0.4197  0.0766
 8937TIP3    H148302   2.475   2.219  12.363  0.3094 -0.8733  0.3390
 8937TIP3    H248303   2.412   2.112  12.276 -0.4259 -1.3190  1.3982
 8938TIP3   OH248304   6.151   3.253  11.902  0.3170 -0.4571  0.3815
 8938TIP3    H148305   6.225   3.211  11.858  0.4168  0.0019  0.1058
 8938TIP3    H248306   6.175   3.254  11.994  1.9908  2.2403  0.0379
 8939TIP3   OH248307   3.890   5.899  14.488  0.2069  0.8290  0.0147
 8939TIP3    H148308   3.952   5.899  14.414  0.6322 -3.0502  0.1796
 8939TIP3    H248309   3.945   5.887  14.565 -0.5297  0.5470  0.5049
 8940TIP3   OH248310   2.890   4.629  14.002 -0.2578 -0.0645 -0.1181
 8940TIP3    H148311   2.873   4.553  13.947  0.6019  0.8697 -1.7378
 8940TIP3    H248312   2.847   4.702  13.958  0.9623  0.8170  0.0950
 8941TIP3   OH248313   0.288   1.773   5.243 -0.1543 -0.0463 -0.2174
 8941TIP3    H148314   0.285   1.683   5.275 -0.9912  0.3289  0.8211
 8941TIP3    H248315   0.245   1.769   5.158  1.2472 -0.8918 -0.9259
 8942TIP3   OH248316   3.656   3.719   4.137  0.2610 -0.1774  0.2771
 8942TIP3    H148317   3.702   3.643   4.173 -0.9921 -2.1822 -2.0720
 8942TIP3    H248318   3.580   3.682   4.092 -1.2186  2.6279  0.2681
 8943TIP3   OH248319   3.326   5.287   2.231 -0.5350  0.3547 -0.1281
 8943TIP3    H148320   3.234   5.306   2.246 -0.6122  1.2181 -1.5567
 8943TIP3    H248321   3.371   5.371   2.241  0.2634 -0.2215  1.5135
 8944TIP3   OH248322   5.269   3.737   1.364 -0.2733  0.1416  0.0178
 8944TIP3    H148323   5.272   3.731   1.459 -0.7543  1.0767  0.1129
 8944TIP3    H248324   5.175   3.737   1.343 -0.2409  1.7025 -0.2894
 8945TIP3   OH248325   4.322   3.440  14.234 -0.2145 -0.2829  0.1131
 8945TIP3    H148326   4.273   3.362  14.259  1.1572 -1.0823  0.4727
 8945TIP3    H248327   4.399   3.406  14.188  0.4354  0.8500  0.3183
 8946TIP3   OH248328   2.664   6.041   2.312 -0.3140  0.2608 -0.1719
 8946TIP3    H148329   2.578   6.072   2.342 -0.7684 -1.0189 -0.0909
 8946TIP3    H248330   2.721   6.051   2.389 -0.3291  1.2905 -0.2819
 8947TIP3   OH248331   5.268   3.843  17.041  0.4542 -0.6824 -0.0288
 8947TIP3    H148332   5.304   3.770  17.090  0.9013  0.7910  1.9606
 8947TIP3    H248333   5.318   3.919  17.071  0.1800  0.4354 -2.1913
 8948TIP3   OH248334   0.108   0.231   1.906  0.4653 -0.2987  0.7891
 8948TIP3    H148335   0.095   0.222   2.000 -1.4982  0.5898  0.6528
 8948TIP3    H248336   0.055   0.160   1.868  0.3227  0.0513  0.3325
 8949TIP3   OH248337   3.754   5.162  14.603  0.1276  0.5581  0.1350
 8949TIP3    H148338   3.669   5.198  14.628  0.5108 -0.2194  2.8116
 8949TIP3    H248339   3.815   5.234  14.614  0.3159  0.1807  1.6752
 8950TIP3   OH248340   2.935   3.069  14.702  0.1585  0.2678  0.3754
 8950TIP3    H148341   2.997   2.999  14.720  1.0697  0.7254 -0.8596
 8950TIP3    H248342   2.893   3.087  14.787  0.9205 -0.7884  0.9924
 8951TIP3   OH248343   3.414   2.865  13.795  0.0083 -0.1179  0.2207
 8951TIP3    H148344   3.374   2.829  13.716 -1.8319 -1.8140  1.8095
 8951TIP3    H248345   3.409   2.960  13.783 -1.7124 -0.3124 -1.0222
 8952TIP3   OH248346   5.842   2.864  12.867 -0.0363  0.1710 -0.1542
 8952TIP3    H148347   5.873   2.807  12.797 -2.4834  0.2088 -1.4014
 8952TIP3    H248348   5.884   2.949  12.850 -0.6614  0.2040 -1.6819
 8953TIP3   OH248349   0.095   4.512   1.584  0.8153 -0.0028  0.1110
 8953TIP3    H148350   0.114   4.525   1.491 -0.5040 -0.7695 -0.2831
 8953TIP3    H248351   0.098   4.600   1.621 -1.9691  0.8400 -1.3482
 8954TIP3   OH248352   1.276   0.956   3.044 -0.4154  0.3016 -0.1902
 8954TIP3    H148353   1.354   0.928   3.090 -0.3535  1.2612  0.3113
 8954TIP3    H248354   1.309   1.004   2.967 -0.4397  2.3126  0.9767
 8955TIP3   OH248355   0.453   3.451  13.954 -0.4042  0.4627  0.0591
 8955TIP3    H148356   0.463   3.387  13.884 -2.6966 -0.4420  0.4641
 8955TIP3    H248357   0.497   3.530  13.922 -0.8545 -0.1139 -2.1230
 8956TIP3   OH248358   4.003   4.302   4.614 -0.1484 -0.5215 -0.0242
 8956TIP3    H148359   3.942   4.232   4.593 -3.1358  2.6434 -3.5416
 8956TIP3    H248360   4.071   4.296   4.547 -0.9777  0.3507 -1.0021
 8957TIP3   OH248361   3.898   1.267   4.794  0.1798 -0.0457 -0.2117
 8957TIP3    H148362   3.985   1.228   4.792  0.1536 -0.0531 -1.5592
 8957TIP3    H248363   3.843   1.208   4.742 -0.3236  0.6744 -0.5188
 8958TIP3   OH248364   5.508   4.009  15.991 -0.8347 -0.2144 -0.2666
 8958TIP3    H148365   5.544   3.959  16.065  1.2321 -1.6386 -2.1147
 8958TIP3    H248366   5.477   3.942  15.930 -0.2390  0.7980 -1.7404
 8959TIP3   OH248367   1.557   6.173   6.898 -0.5507 -0.0922 -0.1735
 8959TIP3    H148368   1.621   6.209   6.837  0.5067  0.4618  1.1962
 8959TIP3    H248369   1.583   6.208   6.983 -1.6080 -1.3143  0.6951
 8960TIP3   OH248370   3.854   0.642   4.261 -0.1884 -0.1426 -0.3959
 8960TIP3    H148371   3.859   0.633   4.356  1.4490 -0.8877 -0.5262
 8960TIP3    H248372   3.927   0.698   4.238  0.6432 -1.5735 -1.3850
 8961TIP3   OH248373   5.419   6.326   1.449 -0.6847 -0.8283 -0.4315
 8961TIP3    H148374   5.336   6.298   1.411  0.6090 -3.7185 -1.4259
 8961TIP3    H248375   5.474   6.349   1.373  0.0195 -0.7378  0.0890
 8962TIP3   OH248376   1.649   1.818  16.065  0.4917 -0.1046  0.2593
 8962TIP3    H148377   1.715   1.757  16.095  0.1329 -1.0948 -0.8828
 8962TIP3    H248378   1.608   1.851  16.145  1.2008 -0.7851  0.9158
 8963TIP3   OH248379   4.589   0.240  14.125 -0.0494 -0.2990 -0.8393
 8963TIP3    H148380   4.540   0.314  14.162  0.9504 -0.0849  0.1078
 8963TIP3    H248381   4.646   0.280  14.059  0.0839 -0.2982 -0.7244
 8964TIP3   OH248382   4.627   3.817   1.583  0.1936 -0.4105 -0.1398
 8964TIP3    H148383   4.541   3.783   1.606  0.7562 -0.6293  1.8624
 8964TIP3    H248384   4.686   3.778   1.647  1.4961  1.1422 -0.3274
 8965TIP3   OH248385   5.552   4.793  16.033 -0.4699  0.1704  0.3421
 8965TIP3    H148386   5.612   4.754  16.097 -1.5717 -1.1398  0.6178
 8965TIP3    H248387   5.576   4.751  15.950  0.8978  1.8014 -0.1348
 8966TIP3   OH248388   1.631   0.333  16.014 -0.0865  0.1412  0.4667
 8966TIP3    H148389   1.569   0.278  15.966 -0.2251  0.9229 -0.2786
 8966TIP3    H248390   1.622   0.419  15.973  2.6637 -0.0609 -0.7440
 8967TIP3   OH248391   3.401   6.514  12.505 -0.2374 -0.1939  0.5558
 8967TIP3    H148392   3.380   6.444  12.567 -0.0369 -0.3297  0.4718
 8967TIP3    H248393   3.316   6.554  12.485 -0.1332  0.8947  2.1377
 8968TIP3   OH248394   0.825   2.729  14.455  0.0353  0.0513  0.1552
 8968TIP3    H148395   0.763   2.778  14.400 -0.6601 -0.6339  0.3151
 8968TIP3    H248396   0.788   2.735  14.543  0.6258  0.3060  0.3908
 8969TIP3   OH248397   5.028   4.072  11.876 -0.2530  0.2947 -0.2649
 8969TIP3    H148398   5.008   3.990  11.831 -0.8819 -0.0861  0.6697
 8969TIP3    H248399   5.022   4.050  11.969  1.0697  1.0405  0.0222
 8970TIP3   OH248400   0.949   5.359   1.176  0.7056  0.6405  0.4186
 8970TIP3    H148401   0.985   5.324   1.095 -0.8859 -2.0949  0.7820
 8970TIP3    H248402   0.963   5.290   1.241  0.3329  2.0270  2.0647
 8971TIP3   OH248403   0.853   2.535   5.523 -0.3806 -0.0941  0.2353
 8971TIP3    H148404   0.828   2.580   5.604 -1.2456 -0.8169  0.3769
 8971TIP3    H248405   0.771   2.523   5.476 -0.2515 -1.9695  0.4215
 8972TIP3   OH248406   6.753   4.209   1.106  0.0399 -0.0236 -0.1771
 8972TIP3    H148407   6.832   4.193   1.055 -0.4546  0.2261 -1.0418
 8972TIP3    H248408   6.772   4.171   1.192  1.1920  0.2744 -0.2845
 8973TIP3   OH248409   2.034   5.324   4.389  0.3317  0.0786 -0.3949
 8973TIP3    H148410   2.061   5.255   4.448 -4.1113 -0.5025  1.3711
 8973TIP3    H248411   2.013   5.279   4.307  0.0104 -0.2620 -0.1296
 8974TIP3   OH248412   5.204   0.729  12.522 -0.0880  0.3893  0.0375
 8974TIP3    H148413   5.262   0.795  12.483  1.1502 -0.2918  0.6822
 8974TIP3    H248414   5.178   0.767  12.606 -1.7335  1.2986 -0.8355
 8975TIP3   OH248415   1.904   1.437   0.807 -0.4457 -0.1341  0.1332
 8975TIP3    H148416   1.944   1.515   0.768  0.1964  1.1583  3.0782
 8975TIP3    H248417   1.810   1.455   0.805 -0.3438  0.4191  0.1353
 8976TIP3   OH248418   3.835   0.075  12.536  0.6758 -0.1785 -0.3476
 8976TIP3    H148419   3.769   0.065  12.467 -0.4381  1.8954  0.3306
 8976TIP3    H248420   3.800   0.026  12.610 -0.5614  1.5050  0.2518
 8977TIP3   OH248421   3.028   0.615   4.571  0.3116 -0.1742  0.0652
 8977TIP3    H148422   2.963   0.613   4.501  1.4600  0.1908 -1.0567
 8977TIP3    H248423   3.081   0.536   4.558 -0.1692 -0.7240  1.2614
 8978TIP3   OH248424   2.584   1.239   3.469 -0.0710 -0.7029  0.2094
 8978TIP3    H148425   2.570   1.245   3.563 -1.5514 -0.1932 -0.0179
 8978TIP3    H248426   2.637   1.315   3.447  1.2040 -1.4005  0.7634
 8979TIP3   OH248427   3.854   4.792   3.138  0.4294 -0.7089  0.4255
 8979TIP3    H148428   3.937   4.827   3.106  0.6039 -1.3561  0.1568
 8979TIP3    H248429   3.838   4.715   3.084  0.1713 -1.1777  1.1579
 8980TIP3   OH248430   5.805   6.475   4.464 -0.2856  0.2560 -0.0803
 8980TIP3    H148431   5.854   6.411   4.413  0.8663 -0.2964  1.6235
 8980TIP3    H248432   5.828   6.559   4.426 -0.2465 -0.1793 -1.0685
 8981TIP3   OH248433   6.149   6.267   2.162 -0.8776 -0.1489  0.0434
 8981TIP3    H148434   6.212   6.339   2.162  0.4973 -1.2886 -0.9206
 8981TIP3    H248435   6.069   6.306   2.127 -0.4993  1.1656  0.5819
 8982TIP3   OH248436   6.044   0.405   2.862  0.1320 -0.7713  0.2236
 8982TIP3    H148437   6.097   0.336   2.901 -1.4599 -0.9830  2.1407
 8982TIP3    H248438   5.954   0.380   2.881 -0.5176  1.4160  0.2731
 8983TIP3   OH248439   6.536   5.759   4.073 -0.3369  0.0157 -0.6038
 8983TIP3    H148440   6.510   5.712   3.994  0.0729  0.6504 -1.1235
 8983TIP3    H248441   6.611   5.812   4.046 -0.1330  0.1662  0.2344
 8984TIP3   OH248442   2.446   5.993   6.377  0.2724  0.0716  0.1299
 8984TIP3    H148443   2.471   5.920   6.321 -0.6187  1.1507 -1.7504
 8984TIP3    H248444   2.359   6.018   6.347  0.1074  1.2262  1.4559
 8985TIP3   OH248445   4.415   1.129  16.726 -0.2534  0.6053  0.1524
 8985TIP3    H148446   4.362   1.072  16.671 -2.8760  0.9693  2.0786
 8985TIP3    H248447   4.453   1.071  16.792 -1.6240  0.7884  1.1558
 8986TIP3   OH248448   6.850   4.322  11.926 -0.3047 -0.1813 -0.0984
 8986TIP3    H148449   6.767   4.278  11.904 -0.7335  0.0163  1.0637
 8986TIP3    H248450   6.912   4.250  11.938 -0.4336 -0.3576 -0.4540
 8987TIP3   OH248451   6.064   0.971   4.284 -0.1535  0.3991  0.5360
 8987TIP3    H148452   6.056   0.893   4.340  1.9970 -1.5857 -1.6835
 8987TIP3    H248453   5.989   0.965   4.225  0.5106 -0.5815 -0.2368
 8988TIP3   OH248454   0.622   2.872  12.038 -0.2699  0.4588  0.1986
 8988TIP3    H148455   0.707   2.909  12.064  0.3324 -0.2551 -0.6884
 8988TIP3    H248456   0.580   2.849  12.120  0.0551  1.5467  0.6949
 8989TIP3   OH248457   3.715   2.464  14.033 -0.3015  0.8053  0.0955
 8989TIP3    H148458   3.628   2.494  14.007 -1.3339 -1.8008  0.2227
 8989TIP3    H248459   3.741   2.404  13.963 -0.5946 -1.8394  2.1018
 8990TIP3   OH248460   6.439   1.283  12.738 -0.0315  1.1528 -0.4617
 8990TIP3    H148461   6.499   1.254  12.807 -0.0262  1.4215 -0.3546
 8990TIP3    H248462   6.369   1.328  12.785 -1.5465 -1.1319 -0.3334
 8991TIP3   OH248463   6.502   5.006   0.556  0.1483 -0.5969 -0.7064
 8991TIP3    H148464   6.532   4.917   0.575  0.5316 -0.4672 -0.6796
 8991TIP3    H248465   6.410   4.997   0.532 -0.0259 -0.9034  0.0724
 8992TIP3   OH248466   0.239   6.762   1.664  0.4657 -0.4458  0.2891
 8992TIP3    H148467   0.254   6.835   1.724 -1.0584  1.5992 -1.6814
 8992TIP3    H248468   0.173   6.708   1.708 -0.0569  0.5819  0.7960
 8993TIP3   OH248469   2.006   3.328   3.158 -0.5456 -0.9525 -0.5772
 8993TIP3    H148470   1.973   3.346   3.247 -2.4517  0.8071 -1.5376
 8993TIP3    H248471   2.021   3.234   3.157 -0.3607 -1.0091  1.6421
 8994TIP3   OH248472   0.363   4.751  13.861  0.4376  0.6147 -0.3211
 8994TIP3    H148473   0.296   4.689  13.831  1.6245 -0.0806 -1.6113
 8994TIP3    H248474   0.432   4.746  13.795  2.4545  0.1901  1.6872
 8995TIP3   OH248475   2.081   3.442   0.177  0.1905 -0.2841  0.0157
 8995TIP3    H148476   2.094   3.514   0.115  0.6925 -1.3683 -1.2028
 8995TIP3    H248477   2.096   3.363   0.124  0.7227 -1.2529  1.5584
 8996TIP3   OH248478   3.909   0.734   0.254  0.0587 -0.5179 -0.8597
 8996TIP3    H148479   3.949   0.749   0.168 -1.1875  1.4788 -1.1528
 8996TIP3    H248480   3.949   0.801   0.310 -2.2667  1.1111 -1.0065
 8997TIP3   OH248481   3.153   6.324  15.517  0.1217 -0.2733 -0.0713
 8997TIP3    H148482   3.247   6.331  15.499  0.4181 -0.7830  1.2157
 8997TIP3    H248483   3.111   6.351  15.435  1.3971 -1.0898 -1.0313
 8998TIP3   OH248484   4.450   5.544   3.842  0.1939 -0.0311 -0.1147
 8998TIP3    H148485   4.520   5.487   3.874 -1.3486 -0.7716  2.1198
 8998TIP3    H248486   4.371   5.515   3.887 -1.1403  2.3172 -0.7345
 8999TIP3   OH248487   5.878   4.734   0.936  0.1227  0.3340 -0.5020
 8999TIP3    H148488   5.784   4.728   0.921 -0.0923 -0.1341  0.9471
 8999TIP3    H248489   5.891   4.816   0.982  0.3677  0.1536 -0.2443
 9000TIP3   OH248490   6.704   0.703   1.966  0.1122  0.4132  0.3126
 9000TIP3    H148491   6.725   0.700   2.060  2.0928 -2.0595 -0.1055
 9000TIP3    H248492   6.748   0.782   1.934  0.0874  0.8453  1.3063
 9001TIP3   OH248493   3.293   1.368   1.700  0.1971  0.2423 -0.0086
 9001TIP3    H148494   3.243   1.295   1.663  1.1411 -0.6809  0.4898
 9001TIP3    H248495   3.226   1.432   1.724 -1.1106 -1.9731  2.9447
 9002TIP3   OH248496   6.557   2.039  16.889  0.0703 -0.2229 -0.0592
 9002TIP3    H148497   6.509   2.086  16.821 -0.3991 -0.5737  0.0251
 9002TIP3    H248498   6.579   1.954  16.848 -0.1196 -0.3928  0.1924
 9003TIP3   OH248499   4.132   2.406  10.699 -0.8706  0.1068 -0.1724
 9003TIP3    H148500   4.173   2.415  10.614 -0.8442  1.4862 -0.0340
 9003TIP3    H248501   4.074   2.482  10.706  0.3925  0.9668  1.7204
 9004TIP3   OH248502   2.977   2.366  16.224 -0.5575 -0.3631  0.3929
 9004TIP3    H148503   2.899   2.359  16.170  0.5961  2.2377 -1.9171
 9004TIP3    H248504   3.003   2.276  16.242 -2.2889 -1.3175 -1.5240
 9005TIP3   OH248505   4.957   2.143   0.741 -0.1621  0.0713 -1.1147
 9005TIP3    H148506   4.958   2.048   0.734 -1.9187  0.0344 -1.4064
 9005TIP3    H248507   4.915   2.160   0.826 -0.8334  0.5757 -1.5377
 9006TIP3   OH248508   6.188   1.773  10.544 -0.3608 -0.4925  0.5526
 9006TIP3    H148509   6.189   1.836  10.471 -3.4082 -0.5980  0.2720
 9006TIP3    H248510   6.165   1.690  10.503 -0.3820 -0.9261  1.4301
 9007TIP3   OH248511   3.715   4.694  12.561 -0.1008  0.4824 -0.0289
 9007TIP3    H148512   3.649   4.650  12.507 -0.3123  0.7605  0.0033
 9007TIP3    H248513   3.798   4.678  12.515 -0.3573  1.2508 -0.7711
 9008TIP3   OH248514   1.751   4.594   3.016 -0.0570  0.1471 -0.1917
 9008TIP3    H148515   1.714   4.508   3.035 -1.2749  0.6344 -0.2541
 9008TIP3    H248516   1.821   4.605   3.081 -1.0852 -0.1358  0.9916
 9009TIP3   OH248517   6.458   4.980   0.861 -0.1257  0.1789 -0.0874
 9009TIP3    H148518   6.400   5.022   0.924  0.0167  0.7905 -0.3615
 9009TIP3    H248519   6.419   4.998   0.776  0.0550 -0.0541 -0.2211
 9010TIP3   OH248520   3.487   1.893   3.447 -0.1995 -0.3869  0.6322
 9010TIP3    H148521   3.517   1.820   3.502 -1.4332 -0.5385  1.1268
 9010TIP3    H248522   3.527   1.970   3.486  0.5460 -0.7098  0.5314
 9011TIP3   OH248523   0.772   5.063   0.543 -0.0285 -0.0483  0.0367
 9011TIP3    H148524   0.743   5.087   0.455 -0.0408 -1.7573 -0.4630
 9011TIP3    H248525   0.693   5.070   0.597 -0.3200 -0.2441 -0.3614
 9012TIP3   OH248526   4.612   0.132   3.927  0.2234 -0.4074  0.0577
 9012TIP3    H148527   4.539   0.077   3.900  0.6788 -1.0095  0.0349
 9012TIP3    H248528   4.579   0.179   4.005 -0.0597 -0.9567  0.2731
 9013TIP3   OH248529   6.630   5.677  15.648 -0.3680  0.0455 -0.4512
 9013TIP3    H148530   6.660   5.714  15.565  1.4494  1.1265  0.6176
 9013TIP3    H248531   6.684   5.599  15.660  0.8814  1.0349  0.6520
 9014TIP3   OH248532   1.871   2.369  14.496 -0.2846  0.9806 -0.5242
 9014TIP3    H148533   1.782   2.343  14.520 -0.2298  0.2681 -1.0461
 9014TIP3    H248534   1.921   2.288  14.500  0.2498  1.3009 -0.6516
 9015TIP3   OH248535   2.613   6.471   6.027 -0.0777 -0.0321 -0.2693
 9015TIP3    H148536   2.525   6.435   6.029 -0.0657 -0.0633 -0.2990
 9015TIP3    H248537   2.601   6.565   6.012 -0.2136  0.3318  1.7667
 9016TIP3   OH248538   4.691   3.030   5.632 -0.3705  0.1628  0.4979
 9016TIP3    H148539   4.628   2.993   5.694 -1.8766 -0.5911 -1.3481
 9016TIP3    H248540   4.642   3.101   5.589  0.6800  0.7760  0.2980
 9017TIP3   OH248541   4.105   0.618  16.843  0.0511 -0.1760 -0.3409
 9017TIP3    H148542   4.051   0.558  16.895 -0.9540  1.4710  0.6234
 9017TIP3    H248543   4.194   0.584  16.850 -0.4514 -1.3808  0.3866
 9018TIP3   OH248544   3.342   6.799   0.174  0.3295  0.2382 -0.2204
 9018TIP3    H148545   3.286   6.833   0.244  0.7549  1.2151 -0.3263
 9018TIP3    H248546   3.413   6.864   0.167  0.0581  0.4020 -1.8462
 9019TIP3   OH248547   5.338   5.828  13.657  0.3810  0.1546 -0.3548
 9019TIP3    H148548   5.303   5.917  13.655  0.1434  0.0638 -0.3322
 9019TIP3    H248549   5.327   5.800  13.748  0.3610  0.0665 -0.3838
 9020TIP3   OH248550   0.480   2.766   2.209 -0.0616 -0.5147 -0.0924
 9020TIP3    H148551   0.543   2.730   2.147  0.1609  1.8600 -1.3110
 9020TIP3    H248552   0.523   2.756   2.295  0.6625 -1.5979 -0.5560
 9021TIP3   OH248553   1.566   0.989   0.598  0.1538  0.2920  0.5800
 9021TIP3    H148554   1.607   1.026   0.676 -0.0466  1.0211  0.3431
 9021TIP3    H248555   1.472   0.998   0.615  0.1146  0.9913 -0.0042
 9022TIP3   OH248556   4.447   0.242  14.478  0.1570 -0.0504  1.0512
 9022TIP3    H148557   4.450   0.297  14.556 -0.2742 -0.4939  1.3923
 9022TIP3    H248558   4.372   0.184  14.493 -0.7486  0.7146 -0.2671
 9023TIP3   OH248559   2.818   3.841   4.909  0.8143  0.0197 -0.2962
 9023TIP3    H148560   2.762   3.909   4.947  0.5509 -1.1650  1.5397
 9023TIP3    H248561   2.780   3.825   4.822 -1.1607 -0.1021  0.5378
 9024TIP3   OH248562   1.413   6.234   4.169 -0.2747 -0.1630  0.2809
 9024TIP3    H148563   1.440   6.320   4.202  0.4329 -1.1192  2.4227
 9024TIP3    H248564   1.339   6.251   4.112 -1.8687  1.6760  2.7457
 9025TIP3   OH248565   0.861   4.548  15.777  0.3639  0.3145  0.3959
 9025TIP3    H148566   0.901   4.551  15.691 -1.1588  0.0842 -0.3518
 9025TIP3    H248567   0.799   4.620  15.777  1.7049  1.5596  2.0473
 9026TIP3   OH248568   1.298   0.640   3.599 -0.1207 -0.4572 -0.6927
 9026TIP3    H148569   1.210   0.607   3.615 -0.1349  0.6723  1.8746
 9026TIP3    H248570   1.301   0.653   3.504 -2.7929 -0.2775 -0.8308
 9027TIP3   OH248571   3.218   6.831  11.586  0.0781 -0.4254 -0.1149
 9027TIP3    H148572   3.279   6.882  11.532  1.0982  0.3178  1.6733
 9027TIP3    H248573   3.230   6.740  11.556 -0.1767  0.0596 -1.8302
 9028TIP3   OH248574   2.211   5.818   4.340 -0.6123  0.4347  0.1284
 9028TIP3    H148575   2.120   5.813   4.367 -0.7758 -0.0561 -0.4934
 9028TIP3    H248576   2.256   5.754   4.394 -0.6858  0.4654  0.2263
 9029TIP3   OH248577   0.201   3.738   4.693  0.6044  0.1532 -0.5794
 9029TIP3    H148578   0.220   3.831   4.679 -2.2501  1.5310  3.0927
 9029TIP3    H248579   0.133   3.718   4.629 -0.4880  1.3707  0.1474
 9030TIP3   OH248580   5.245   4.525  15.233 -0.4487  0.0927  0.1197
 9030TIP3    H148581   5.277   4.464  15.167  1.0858  0.6385  0.3119
 9030TIP3    H248582   5.250   4.611  15.190 -0.7219  0.2983  0.4949
 9031TIP3   OH248583   3.206   6.219  14.557  0.4360 -0.6879 -0.1016
 9031TIP3    H148584   3.229   6.157  14.488 -0.7647 -2.4560  1.0110
 9031TIP3    H248585   3.288   6.262  14.580  1.0208 -0.7340 -1.9459
 9032TIP3   OH248586   4.156   2.269   4.106 -0.3726  0.2160  0.2154
 9032TIP3    H148587   4.213   2.234   4.038 -0.3747  0.0440  0.3014
 9032TIP3    H248588   4.105   2.193   4.135 -0.1682  0.2327  0.6119
 9033TIP3   OH248589   5.093   3.762  16.856  0.5560 -0.1033 -0.1935
 9033TIP3    H148590   5.101   3.821  16.781  1.3670 -1.4070 -1.1785
 9033TIP3    H248591   5.167   3.785  16.912  2.0468 -1.4167 -1.5221
 9034TIP3   OH248592   3.006   2.566  10.356  0.3472  0.5143 -0.0646
 9034TIP3    H148593   3.055   2.629  10.410  0.4456 -0.4145  0.9675
 9034TIP3    H248594   2.915   2.595  10.363  0.4695  0.9289 -0.1418
 9035TIP3   OH248595   0.346   5.454   5.869 -0.5058  0.2318 -0.5791
 9035TIP3    H148596   0.316   5.545   5.857 -0.0146  0.2928 -1.4126
 9035TIP3    H248597   0.283   5.401   5.821 -1.2938  0.0371  0.6265
 9036TIP3   OH248598   5.358   5.994  14.236 -0.5945  0.7297 -0.3137
 9036TIP3    H148599   5.447   5.980  14.267 -1.4976 -0.6148  1.9369
 9036TIP3    H248600   5.309   6.017  14.315 -2.1013  2.3505 -1.6338
 9037TIP3   OH248601   5.054   4.911  12.177 -0.2290  0.0453  0.7138
 9037TIP3    H148602   4.967   4.874  12.186 -0.0046 -0.7255 -0.1949
 9037TIP3    H248603   5.103   4.847  12.125  1.1565 -0.0039  1.9846
 9038TIP3   OH248604   6.457   1.676  15.291  0.3164 -0.4042  0.0111
 9038TIP3    H148605   6.537   1.699  15.244  0.5534  1.1206  1.1064
 9038TIP3    H248606   6.438   1.586  15.263  1.3793 -0.1456 -1.6572
 9039TIP3   OH248607   5.888   3.345   2.091 -0.0604 -0.6228  0.9429
 9039TIP3    H148608   5.872   3.439   2.095  3.4233  0.2647 -1.4852
 9039TIP3    H248609   5.826   3.307   2.154 -1.4024  3.2526  2.2181
 9040TIP3   OH248610   0.612   5.266   5.069  0.5005 -0.1565 -0.0207
 9040TIP3    H148611   0.523   5.298   5.055 -0.5921 -2.5407  0.9382
 9040TIP3    H248612   0.668   5.335   5.035 -1.6324  2.5344  1.4962
 9041TIP3   OH248613   0.132   0.215  14.589 -0.0407 -0.1647  0.1591
 9041TIP3    H148614   0.085   0.137  14.560 -1.2261  0.8705 -0.8095
 9041TIP3    H248615   0.063   0.276  14.614  0.8003  1.2536 -0.8808
 9042TIP3   OH248616   3.564   2.882  10.824 -0.0788 -0.0299 -0.6802
 9042TIP3    H148617   3.625   2.824  10.869 -1.5147 -1.0372  0.0491
 9042TIP3    H248618   3.619   2.952  10.789  1.0281  1.6604  3.7987
 9043TIP3   OH248619   3.311   0.377  13.204 -0.0845  0.0115  0.1762
 9043TIP3    H148620   3.249   0.370  13.277 -1.4543 -0.6584 -1.0127
 9043TIP3    H248621   3.347   0.465  13.212 -3.3401  1.5680 -0.7237
 9044TIP3   OH248622   1.575   1.354  16.713  0.7701  0.4468 -0.8108
 9044TIP3    H148623   1.495   1.386  16.754  0.6567 -1.3220  0.4767
 9044TIP3    H248624   1.565   1.378  16.620 -0.3079  1.9942 -0.3359
 9045TIP3   OH248625   0.681   1.173   0.009 -0.3513 -0.1088 -0.3482
 9045TIP3    H148626   0.603   1.149  -0.041 -0.6662  0.7617 -0.2723
 9045TIP3    H248627   0.650   1.230   0.078 -0.0158 -1.8512  1.3223
 9046TIP3   OH248628   1.273   3.402  14.070 -0.2781 -0.1295 -0.3461
 9046TIP3    H148629   1.269   3.494  14.045  0.1332 -0.0440 -0.1013
 9046TIP3    H248630   1.265   3.403  14.166  3.3521 -0.0479  0.0997
 9047TIP3   OH248631   6.341   2.434  11.268  0.0510 -0.9389 -0.2391
 9047TIP3    H148632   6.314   2.343  11.276 -1.1820 -0.6115 -0.4427
 9047TIP3    H248633   6.347   2.449  11.174 -0.7707 -0.5380 -0.2362
 9048TIP3   OH248634   2.207   2.627   0.584 -0.3277  0.0059 -0.3106
 9048TIP3    H148635   2.197   2.685   0.659  1.3207 -1.2675  0.9883
 9048TIP3    H248636   2.136   2.564   0.592 -0.2025 -0.0798  0.1670
 9049TIP3   OH248637   3.106   6.115   4.317  0.2440 -0.3838 -0.2343
 9049TIP3    H148638   3.147   6.036   4.351 -0.6269 -0.5033  0.5713
 9049TIP3    H248639   3.161   6.186   4.348 -0.0420 -0.5525  0.6902
 9050TIP3   OH248640   5.041   5.575   1.902  0.3609  0.0761  0.0866
 9050TIP3    H148641   5.049   5.665   1.872  1.1777  1.1118  3.0874
 9050TIP3    H248642   5.131   5.548   1.922 -0.1407 -0.3401  1.9301
 9051TIP3   OH248643   2.665   6.415  12.518  0.6040  0.3556  0.9338
 9051TIP3    H148644   2.718   6.485  12.480 -1.4799  0.5919 -1.7856
 9051TIP3    H248645   2.706   6.334  12.486  0.3620  0.4712  0.3375
 9052TIP3   OH248646   4.872   3.257   5.756 -0.1932 -0.2160 -0.0384
 9052TIP3    H148647   4.944   3.310   5.790 -1.4529  1.2961  0.4018
 9052TIP3    H248648   4.800   3.274   5.817 -2.1539  1.5565 -2.6723
 9053TIP3   OH248649   2.431   2.194   4.698 -0.1922 -0.0023 -0.1603
 9053TIP3    H148650   2.469   2.107   4.708  1.4111  0.8796  2.9209
 9053TIP3    H248651   2.337   2.179   4.689  0.1596 -2.0656 -0.8085
 9054TIP3   OH248652   3.382   2.340   5.505  0.0472 -0.8621  0.0888
 9054TIP3    H148653   3.373   2.435   5.509 -0.2876 -0.9073  0.4919
 9054TIP3    H248654   3.337   2.315   5.425  1.9469 -0.4863 -1.1773
 9055TIP3   OH248655   4.230   5.921   2.738  0.5631 -0.6729  0.6223
 9055TIP3    H148656   4.166   5.960   2.679 -0.0251 -1.8505  0.4581
 9055TIP3    H248657   4.186   5.920   2.823  0.5653 -1.0084  0.6182
 9056TIP3   OH248658   5.609   1.257   1.149 -0.0226 -0.3163  0.0460
 9056TIP3    H148659   5.586   1.224   1.062  0.4207  2.0385 -1.0286
 9056TIP3    H248660   5.703   1.271   1.146 -0.2814  1.7430  0.1502
 9057TIP3   OH248661   5.186   4.183  10.747  0.3404  0.0417  0.3669
 9057TIP3    H148662   5.157   4.122  10.678  0.2365 -0.6789  1.0377
 9057TIP3    H248663   5.231   4.253  10.699 -1.0644  0.3509 -0.5792
 9058TIP3   OH248664   5.897   6.462  16.566  0.0913 -0.2867  0.0541
 9058TIP3    H148665   5.814   6.433  16.529 -0.4373  1.0014  0.1830
 9058TIP3    H248666   5.962   6.444  16.498 -0.6130  0.5193 -0.8588
 9059TIP3   OH248667   1.085   4.511  15.285  0.6068  0.4118 -0.5125
 9059TIP3    H148668   1.112   4.567  15.213  1.2356  0.4497 -0.2616
 9059TIP3    H248669   1.015   4.456  15.249  1.7980 -0.4952 -1.5542
 9060TIP3   OH248670   0.012   4.788   2.837  0.1445  0.4333 -0.1532
 9060TIP3    H148671   0.082   4.784   2.902  0.7394  1.4986 -0.6919
 9060TIP3    H248672   0.028   4.713   2.780  0.7722  0.5749 -0.1756
 9061TIP3   OH248673   2.317   4.889   3.504 -0.2955  0.4685 -0.0250
 9061TIP3    H148674   2.364   4.816   3.544 -0.7546  1.4348  2.4881
 9061TIP3    H248675   2.374   4.920   3.433  1.0926 -0.6887  0.5601
 9062TIP3   OH248676   1.741   3.455   0.582 -0.1958 -0.0582 -0.1898
 9062TIP3    H148677   1.800   3.531   0.587  1.2727 -1.1460 -0.2526
 9062TIP3    H248678   1.780   3.399   0.515 -2.1282 -0.1730 -1.2712
 9063TIP3   OH248679   6.758   4.113  13.402 -0.0002 -0.7325  0.3774
 9063TIP3    H148680   6.804   4.098  13.319 -2.0777 -2.4015 -0.5879
 9063TIP3    H248681   6.808   4.063  13.466  0.9713 -0.3849 -0.0871
 9064TIP3   OH248682   3.938   4.205  14.950  0.1810 -0.0006 -0.0318
 9064TIP3    H148683   3.884   4.283  14.959 -1.5173 -1.0727 -0.3810
 9064TIP3    H248684   3.928   4.159  15.034  0.7684 -0.0866 -0.0033
 9065TIP3   OH248685   6.432   2.330  12.161 -0.6296  0.6103  0.1747
 9065TIP3    H148686   6.433   2.243  12.201  0.6134 -0.0709 -1.2212
 9065TIP3    H248687   6.356   2.374  12.200 -1.5853 -1.2708  0.5466
 9066TIP3   OH248688   1.593   0.891   2.022 -0.1863 -0.2624  0.1956
 9066TIP3    H148689   1.508   0.934   2.021  0.3464  0.9770 -2.5648
 9066TIP3    H248690   1.639   0.928   1.946  4.0650  1.5364  3.2761
 9067TIP3   OH248691   0.422   4.583   2.269  0.4237 -0.1971 -0.1581
 9067TIP3    H148692   0.467   4.639   2.206  0.8129 -0.1076  0.1990
 9067TIP3    H248693   0.432   4.495   2.235 -0.2480 -0.0463 -0.7596
 9068TIP3   OH248694   0.836   1.444  14.075 -0.0643 -0.2907 -0.9192
 9068TIP3    H148695   0.923   1.459  14.039  0.6495 -1.0576  0.3919
 9068TIP3    H248696   0.777   1.456  14.001  0.9835  1.9568 -1.4573
 9069TIP3   OH248697   5.771   1.973   2.187  0.2389 -0.3912 -0.2600
 9069TIP3    H148698   5.864   1.987   2.206 -0.1221  2.0522 -0.0039
 9069TIP3    H248699   5.766   1.968   2.092  0.6290 -0.7195 -0.2695
 9070TIP3   OH248700   5.258   0.173   0.957  0.0265  0.1738  0.3447
 9070TIP3    H148701   5.205   0.161   0.878  0.3808 -1.7414  0.3558
 9070TIP3    H248702   5.305   0.255   0.942 -2.1150  1.3812 -0.1093
 9071TIP3   OH248703   0.016   1.875   6.075 -0.2053  0.1521 -0.2607
 9071TIP3    H148704   0.052   1.907   5.992  0.4371  0.5937  0.1792
 9071TIP3    H248705   0.091   1.839   6.122 -0.3890  0.7509  0.5210
 9072TIP3   OH248706   6.058   1.088  14.436 -0.0650 -0.0700 -0.2926
 9072TIP3    H148707   6.052   1.122  14.526 -2.2269 -0.1665 -0.3597
 9072TIP3    H248708   6.028   0.997  14.443  3.5463 -1.4305 -0.4927
 9073TIP3   OH248709   2.704   5.429   5.556 -0.8556 -0.7485  0.1399
 9073TIP3    H148710   2.776   5.379   5.519  1.1352  1.1649  1.1600
 9073TIP3    H248711   2.637   5.364   5.577  1.1732 -2.8446  0.5041
 9074TIP3   OH248712   2.641   0.799   6.522  0.3413 -0.4295  0.2327
 9074TIP3    H148713   2.626   0.721   6.469 -1.7341 -0.2817  0.5277
 9074TIP3    H248714   2.559   0.813   6.568  1.1549  1.0999  1.3189
 9075TIP3   OH248715   1.872   3.428  11.245 -0.2079  0.5517 -0.6406
 9075TIP3    H148716   1.833   3.460  11.164 -2.4151 -3.6770 -1.5227
 9075TIP3    H248717   1.809   3.451  11.313  0.0834  1.2480 -0.5873
 9076TIP3   OH248718   1.764   4.754   4.374 -0.1392 -0.1967 -0.1753
 9076TIP3    H148719   1.844   4.709   4.404  0.3574  0.7250 -0.0671
 9076TIP3    H248720   1.732   4.799   4.452 -0.1924  0.2551 -0.4536
 9077TIP3   OH248721   1.801   6.478  16.624  0.1457 -0.1625 -0.2566
 9077TIP3    H148722   1.712   6.441  16.623 -0.0436  0.2758  0.2989
 9077TIP3    H248723   1.794   6.559  16.575  0.3495 -0.3588 -0.6191
 9078TIP3   OH248724   6.086   3.937   4.772  0.0081  0.3053 -0.0814
 9078TIP3    H148725   6.139   3.968   4.846 -0.4973 -2.0116  1.3441
 9078TIP3    H248726   6.137   3.865   4.735 -1.9673 -1.9524  1.2975
 9079TIP3   OH248727   0.061   0.917   2.109 -0.3583  0.0777 -0.2725
 9079TIP3    H148728   0.152   0.933   2.084 -0.5427  2.4046  0.3308
 9079TIP3    H248729   0.012   0.983   2.061 -1.9108 -1.7489 -1.3526
 9080TIP3   OH248730   3.010   3.474   2.305  0.0049 -0.4327  0.0165
 9080TIP3    H148731   3.036   3.564   2.322  0.8848 -1.1664  3.1537
 9080TIP3    H248732   2.920   3.468   2.338 -0.6021 -0.3990 -1.5424
 9081TIP3   OH248733   2.487   0.763  15.895  0.1353  0.1526  0.2433
 9081TIP3    H148734   2.536   0.807  15.827 -1.1705  0.5297 -0.4783
 9081TIP3    H248735   2.551   0.749  15.965  1.4504 -0.0652 -0.9546
 9082TIP3   OH248736   1.990   1.560   1.794 -0.1925  0.3943 -0.5180
 9082TIP3    H148737   2.049   1.634   1.783 -0.9069  1.0652  0.0990
 9082TIP3    H248738   1.925   1.590   1.857 -0.8470 -0.5474 -0.7284
 9083TIP3   OH248739   2.002   6.098   4.513  0.4953 -0.0451  0.4519
 9083TIP3    H148740   1.908   6.107   4.525  0.4973  0.0387  0.3975
 9083TIP3    H248741   2.015   6.004   4.500  0.0981  0.2092 -2.4611
 9084TIP3   OH248742   1.454   3.966   5.647  0.0723 -0.3357  0.0533
 9084TIP3    H148743   1.495   4.052   5.657  1.1355 -0.9024  0.8747
 9084TIP3    H248744   1.426   3.943   5.736  0.3402 -1.0827 -0.0479
 9085TIP3   OH248745   1.360   6.001   0.846  0.0376  0.3192  0.0855
 9085TIP3    H148746   1.332   5.912   0.869  0.5742  0.0069 -0.4439
 9085TIP3    H248747   1.454   5.993   0.828  0.3190  1.2012  1.0500
 9086TIP3   OH248748   0.106   3.015   3.660 -0.0859 -0.6750 -0.6073
 9086TIP3    H148749   0.176   3.072   3.692  0.1557 -1.7757  0.9609
 9086TIP3    H248750   0.030   3.072   3.652  0.0586 -0.1508  1.2535
 9087TIP3   OH248751   5.840   2.643  11.797  0.2023 -0.0990 -0.3431
 9087TIP3    H148752   5.863   2.732  11.823  0.5209  0.4065 -2.2219
 9087TIP3    H248753   5.882   2.631  11.712 -1.6582 -1.2423 -1.1663
 9088TIP3   OH248754   2.015   5.467  13.212 -0.3873 -0.1507  0.0204
 9088TIP3    H148755   2.058   5.551  13.197 -2.4548  0.9116 -0.3135
 9088TIP3    H248756   2.060   5.407  13.153  1.3819  0.5974  0.5433
 9089TIP3   OH248757   6.082   0.627   5.223 -0.2356  1.0046 -0.2137
 9089TIP3    H148758   6.084   0.720   5.200  0.0134  1.1327  0.2911
 9089TIP3    H248759   6.172   0.608   5.251 -0.2080  0.5313 -0.6248
 9090TIP3   OH248760   1.620   1.499   0.740 -0.1469 -0.4576 -0.3859
 9090TIP3    H148761   1.612   1.574   0.799  0.7263 -1.0513  0.5341
 9090TIP3    H248762   1.560   1.518   0.668 -0.2423  0.9233  0.0276
 9091TIP3   OH248763   3.274   4.033   3.029  0.1208  0.1740 -0.3508
 9091TIP3    H148764   3.337   3.992   3.088  1.3845  1.2899 -0.8903
 9091TIP3    H248765   3.228   3.960   2.987 -1.3796 -0.6757  2.5191
 9092TIP3   OH248766   6.329   3.945   5.057 -0.1948 -0.1799  0.2437
 9092TIP3    H148767   6.372   4.018   5.012  0.6008  0.2683  1.6628
 9092TIP3    H248768   6.252   3.984   5.099  0.3661 -0.0688  1.2099
 9093TIP3   OH248769   3.256   0.421  16.904 -0.2073  0.2430 -0.4615
 9093TIP3    H148770   3.233   0.337  16.944 -0.3525 -0.2235 -1.5009
 9093TIP3    H248771   3.352   0.423  16.906 -0.2174  0.6092  0.6524
 9094TIP3   OH248772   5.695   2.407   2.150  0.1299 -0.6690  0.3380
 9094TIP3    H148773   5.760   2.379   2.214  0.3754  0.5320  0.6432
 9094TIP3    H248774   5.632   2.458   2.200 -0.7859 -1.3935 -0.0466
 9095TIP3   OH248775   4.355   0.099   0.436 -0.6146  0.6846  0.2052
 9095TIP3    H148776   4.320   0.187   0.423 -0.6500  0.4991 -1.1446
 9095TIP3    H248777   4.439   0.099   0.389 -0.9592 -0.1982 -0.4521
 9096TIP3   OH248778   2.896   4.975  15.528  0.3521 -0.2726  0.3666
 9096TIP3    H148779   2.892   4.984  15.433  0.8004 -1.7537  0.1810
 9096TIP3    H248780   2.982   5.009  15.553  0.5231 -0.5387  0.1445
 9097TIP3   OH248781   2.676   1.861  13.318 -0.3335 -0.0121  0.0593
 9097TIP3    H148782   2.610   1.926  13.290 -2.2232 -1.5135  0.7969
 9097TIP3    H248783   2.668   1.859  13.413  0.8696 -0.1839  0.1672
 9098TIP3   OH248784   5.376   1.163  13.718  0.4434 -0.8177  0.0680
 9098TIP3    H148785   5.311   1.205  13.663  0.7015 -0.3550  0.1073
 9098TIP3    H248786   5.401   1.084  13.671 -0.6117 -1.3289  0.3606
 9099TIP3   OH248787   2.967   3.923  13.025 -0.6247 -0.1243 -0.1042
 9099TIP3    H148788   2.985   4.015  13.046  0.8781  0.0629 -1.9350
 9099TIP3    H248789   2.960   3.921  12.930 -0.4248 -1.9343 -0.1115
 9100TIP3   OH248790   3.500   1.836   2.134 -0.0253  0.3716  0.5553
 9100TIP3    H148791   3.586   1.810   2.101 -0.4087 -0.0221 -0.1707
 9100TIP3    H248792   3.443   1.762   2.113 -1.1095  1.6603 -1.3588
 9101TIP3   OH248793   2.334   1.846  14.494 -0.2468 -0.8122  0.2796
 9101TIP3    H148794   2.358   1.912  14.430  1.0997 -0.1457  1.4229
 9101TIP3    H248795   2.239   1.853  14.502 -0.4068 -0.7738 -1.4488
 9102TIP3   OH248796   6.746   2.133  12.332 -0.0028  0.0152 -0.0317
 9102TIP3    H148797   6.788   2.197  12.275 -0.9018  0.6480  0.0051
 9102TIP3    H248798   6.676   2.182  12.375 -0.8748 -1.0650 -0.2020
 9103TIP3   OH248799   1.354   5.758   4.126  0.1249 -0.2384 -0.5822
 9103TIP3    H148800   1.324   5.687   4.069  0.2452  0.3440 -1.3826
 9103TIP3    H248801   1.437   5.726   4.161  1.2088  0.2957 -2.5252
 9104TIP3   OH248802   2.662   4.605   1.345  0.6202 -0.4854  0.3841
 9104TIP3    H148803   2.605   4.638   1.414 -1.5516 -2.0909 -0.4913
 9104TIP3    H248804   2.612   4.620   1.264  1.2075 -2.2967 -0.3822
 9105TIP3   OH248805   0.985   2.734  13.889  0.0189  0.2304 -0.2153
 9105TIP3    H148806   1.026   2.664  13.940  0.4976  1.6821  1.4936
 9105TIP3    H248807   1.053   2.801  13.880 -1.4138  1.9879  1.2712
 9106TIP3   OH248808   3.590   5.406   2.940 -0.0373  0.1119  0.1801
 9106TIP3    H148809   3.520   5.438   2.996 -0.1131 -2.6426  1.8782
 9106TIP3    H248810   3.671   5.438   2.981 -0.2010  1.4896 -0.5369
 9107TIP3   OH248811   0.592   1.714  15.930 -0.1817  1.0021  0.2929
 9107TIP3    H148812   0.525   1.722  15.862 -0.1579  1.7344  0.3491
 9107TIP3    H248813   0.544   1.718  16.012 -0.2170  0.0528  0.3250
 9108TIP3   OH248814   5.619   2.907  16.442 -0.3686  0.0543 -0.4112
 9108TIP3    H148815   5.579   2.842  16.384  0.6911  0.3230 -1.4730
 9108TIP3    H248816   5.563   2.985  16.433 -0.9185 -0.2957 -0.0957
 9109TIP3   OH248817   4.709   0.967   0.954 -0.4133 -0.4464 -0.7736
 9109TIP3    H148818   4.683   0.877   0.978 -1.4625  0.1103  0.2983
 9109TIP3    H248819   4.804   0.968   0.966 -0.2809 -1.6238 -1.5441
 9110TIP3   OH248820   4.250   0.743  14.698  0.2458  0.2362 -0.1659
 9110TIP3    H148821   4.218   0.751  14.608 -1.4530 -1.2503  0.2432
 9110TIP3    H248822   4.344   0.758  14.691  0.5000 -1.6636 -2.5389
 9111TIP3   OH248823   4.487   0.038  14.865  0.3281  1.0882 -0.4768
 9111TIP3    H148824   4.416   0.096  14.890  2.1226  1.8857  3.6231
 9111TIP3    H248825   4.525   0.078  14.787 -2.5157  1.6006 -1.6993
 9112TIP3   OH248826   0.121   3.518  11.686 -0.0518 -0.6350  0.4769
 9112TIP3    H148827   0.177   3.457  11.735 -0.9305 -0.9278  1.1490
 9112TIP3    H248828   0.090   3.580  11.752  0.7665  0.5183 -0.1836
 9113TIP3   OH248829   1.281   6.627   4.892  0.1156 -0.2471 -0.4465
 9113TIP3    H148830   1.354   6.582   4.935  1.1937 -0.4510 -2.3628
 9113TIP3    H248831   1.218   6.558   4.873 -1.0991  0.0556  2.0197
 9114TIP3   OH248832   0.765   5.221  11.852 -0.7939 -0.5430  0.2159
 9114TIP3    H148833   0.742   5.288  11.788  0.4816 -0.7667 -0.5045
 9114TIP3    H248834   0.753   5.138  11.806  2.2039 -0.6675 -0.5498
 9115TIP3   OH248835   3.063   0.998  11.176  0.1864 -0.6103 -0.1241
 9115TIP3    H148836   3.098   1.000  11.087 -2.0439 -0.7254 -1.0603
 9115TIP3    H248837   3.107   1.070  11.221  0.0040  0.6555 -1.8646
 9116TIP3   OH248838   3.687   3.327  16.076  0.0545 -0.0255 -0.7902
 9116TIP3    H148839   3.677   3.238  16.042 -0.3454 -0.5014  0.5011
 9116TIP3    H248840   3.775   3.327  16.115 -0.2944 -0.1607  0.0224
 9117TIP3   OH248841   4.230   0.827   3.903 -0.4962  0.7311 -0.0567
 9117TIP3    H148842   4.168   0.892   3.869  0.6995  1.5692 -0.6883
 9117TIP3    H248843   4.316   0.865   3.886  0.2464 -1.0832 -0.5617
 9118TIP3   OH248844   5.176   1.439   4.648  0.7862  0.1111 -0.4179
 9118TIP3    H148845   5.170   1.344   4.660  0.0068  0.1457 -0.5075
 9118TIP3    H248846   5.153   1.453   4.556 -0.3133  0.4940 -0.0981
 9119TIP3   OH248847   1.399   6.515  10.312  0.0748 -0.8053 -0.2370
 9119TIP3    H148848   1.487   6.546  10.290  0.0597  0.2445  1.1060
 9119TIP3    H248849   1.346   6.594  10.320 -1.1022 -1.4363 -1.3578
 9120TIP3   OH248850   1.164   4.082   1.625 -0.1729 -0.1016  0.3671
 9120TIP3    H148851   1.142   4.052   1.713 -2.4651  1.9721  0.5933
 9120TIP3    H248852   1.165   4.177   1.632  1.3798  0.0792 -1.5043
 9121TIP3   OH248853   2.607   2.295  15.735 -0.3031 -0.2473 -0.4049
 9121TIP3    H148854   2.691   2.249  15.731 -1.3217 -2.2044 -0.5316
 9121TIP3    H248855   2.592   2.326  15.646 -0.8403 -2.1489 -1.0430
 9122TIP3   OH248856   2.882   3.052  16.383  0.2665 -0.0396 -0.6404
 9122TIP3    H148857   2.937   3.094  16.449  0.9534 -0.4894 -0.9090
 9122TIP3    H248858   2.871   2.963  16.414 -0.9530  0.2472 -0.2137
 9123TIP3   OH248859   2.656   4.396  11.287 -0.5881  0.1388 -0.1622
 9123TIP3    H148860   2.688   4.477  11.328  2.3892 -0.7670 -0.4180
 9123TIP3    H248861   2.594   4.425  11.221 -1.6709  1.9879  1.5387
 9124TIP3   OH248862   3.659   0.583   1.205 -0.2765  0.2833  0.1722
 9124TIP3    H148863   3.698   0.548   1.286 -0.2628  0.6058  0.3065
 9124TIP3    H248864   3.588   0.640   1.235 -1.2109 -0.7160 -0.0895
 9125TIP3   OH248865   4.152   6.681   5.936 -0.5357 -0.1911 -0.3202
 9125TIP3    H148866   4.090   6.621   5.895 -0.7133  0.4678 -1.0436
 9125TIP3    H248867   4.122   6.689   6.026 -0.1031 -1.7138 -0.0120
 9126TIP3   OH248868   6.366   2.157  14.487 -0.3784  0.1369  0.1692
 9126TIP3    H148869   6.328   2.176  14.401  1.4004 -0.6423 -0.8481
 9126TIP3    H248870   6.391   2.065  14.483  0.5553  0.3169  1.1844
 9127TIP3   OH248871   5.752   2.817  13.142  0.0730 -0.2684  0.0665
 9127TIP3    H148872   5.766   2.824  13.048 -0.5422 -1.8651 -0.1838
 9127TIP3    H248873   5.664   2.780  13.150 -0.4717  1.2272  1.3185
 9128TIP3   OH248874   1.233   2.089  16.073 -0.0840 -0.1797 -0.1093
 9128TIP3    H148875   1.295   2.034  16.121  0.1464  0.1563 -0.0201
 9128TIP3    H248876   1.251   2.070  15.981  1.7152  1.5461 -0.1915
 9129TIP3   OH248877   1.948   0.039   3.484  0.2445  0.0587 -0.7928
 9129TIP3    H148878   2.033  -0.003   3.499  0.9571  2.1471  1.6500
 9129TIP3    H248879   1.962   0.131   3.506 -2.5981  0.5219 -0.5514
 9130TIP3   OH248880   1.962   2.849   2.504 -0.5964  0.4098 -0.0749
 9130TIP3    H148881   1.991   2.758   2.498 -2.2059 -0.0491 -2.8187
 9130TIP3    H248882   2.005   2.893   2.431 -1.7845  1.2042 -0.3419
 9131TIP3   OH248883   0.558   0.232   0.890 -0.3807  0.6319  0.2445
 9131TIP3    H148884   0.638   0.235   0.943 -0.2306  0.5450  0.0228
 9131TIP3    H248885   0.495   0.286   0.939 -0.1652  0.7616  0.3815
 9132TIP3   OH248886   5.119   6.168  16.317 -0.0349 -0.9408 -0.5958
 9132TIP3    H148887   5.071   6.155  16.234 -0.7703  0.0548 -0.3548
 9132TIP3    H248888   5.186   6.232  16.295  0.7449 -1.8012 -0.7623
 9133TIP3   OH248889   6.368   5.574  11.573  0.3782  0.0857  0.0704
 9133TIP3    H148890   6.348   5.632  11.646 -0.6580  0.6157 -0.5993
 9133TIP3    H248891   6.351   5.486  11.605 -1.7032  0.4132  0.0061
 9134TIP3   OH248892   2.769   4.993   1.968 -0.0546 -0.3545 -0.6168
 9134TIP3    H148893   2.748   5.077   2.010  0.3294  0.3601 -1.8028
 9134TIP3    H248894   2.865   4.991   1.967 -0.0646 -0.6679 -0.8895
 9135TIP3   OH248895   0.140   3.741  13.190 -0.5323 -0.0998  0.0373
 9135TIP3    H148896   0.059   3.696  13.167 -1.0846  0.3687  1.0169
 9135TIP3    H248897   0.166   3.703  13.274 -1.3201  1.7425  1.1924
 9136TIP3   OH248898   6.440   2.277   4.818  0.8677  0.3702 -0.4810
 9136TIP3    H148899   6.367   2.312   4.768  1.4403 -0.6115 -2.0703
 9136TIP3    H248900   6.462   2.347   4.880 -2.5216  0.0319  1.3314
 9137TIP3   OH248901   3.324   3.391   2.785 -0.4236  0.2122  0.1733
 9137TIP3    H148902   3.388   3.390   2.856  0.6274  0.9600 -0.7258
 9137TIP3    H248903   3.335   3.307   2.740 -0.6722 -0.0128  0.5315
 9138TIP3   OH248904   4.058   1.730  10.991  0.1244  0.4908  0.3120
 9138TIP3    H148905   4.153   1.723  10.998  0.2009  1.2735  0.1642
 9138TIP3    H248906   4.034   1.666  10.923  0.6856  1.1291 -0.5093
 9139TIP3   OH248907   0.921   5.299  14.889 -0.4146  0.4748  0.0698
 9139TIP3    H148908   0.842   5.246  14.878 -0.2346  0.2339 -0.0905
 9139TIP3    H248909   0.954   5.276  14.976 -0.0019 -0.1416 -0.2416
 9140TIP3   OH248910   6.677   2.252   4.262 -0.0870  0.8698 -0.1944
 9140TIP3    H148911   6.718   2.265   4.176  1.4338 -1.6365  0.0398
 9140TIP3    H248912   6.601   2.197   4.243 -0.5580  1.4829 -0.0849
 9141TIP3   OH248913   2.050   5.600   1.887 -0.5236 -0.2185 -0.1867
 9141TIP3    H148914   2.001   5.546   1.948  2.1146 -0.7047  1.6611
 9141TIP3    H248915   2.074   5.541   1.816 -0.5907 -0.5876  0.0963
 9142TIP3   OH248916   2.148   4.657  13.095  0.0166 -0.3429  0.1249
 9142TIP3    H148917   2.183   4.652  13.184 -0.1202  0.4487  0.2326
 9142TIP3    H248918   2.226   4.668  13.040  0.0381  0.1905  0.2505
 9143TIP3   OH248919   5.778   1.572   2.807  0.2412 -0.4210  0.1939
 9143TIP3    H148920   5.827   1.643   2.766  1.2798 -0.2054  1.7249
 9143TIP3    H248921   5.690   1.609   2.820  1.1661  1.2731  2.4233
 9144TIP3   OH248922   0.290   6.451   0.081 -0.3079 -0.2427 -0.3883
 9144TIP3    H148923   0.278   6.364   0.042 -1.8711 -0.4282  0.4493
 9144TIP3    H248924   0.209   6.498   0.061 -0.3508  0.3057  0.9984
 9145TIP3   OH248925   6.677   1.548   4.225  0.5100  0.4620  0.4714
 9145TIP3    H148926   6.648   1.638   4.238 -0.5682  0.1527  0.3019
 9145TIP3    H248927   6.704   1.518   4.312  0.2111  0.7253  0.6557
 9146TIP3   OH248928   0.251   0.484   1.586  0.3034  0.0267  0.1199
 9146TIP3    H148929   0.224   0.560   1.637 -0.1726  0.2829 -0.5027
 9146TIP3    H248930   0.277   0.520   1.501 -1.4518 -0.6404 -0.7543
 9147TIP3   OH248931   6.046   2.506  16.764  0.8164  0.1907  0.4506
 9147TIP3    H148932   6.041   2.602  16.770  0.4116  0.1101  2.0555
 9147TIP3    H248933   6.019   2.486  16.675 -0.2251  1.5232  0.4227
 9148TIP3   OH248934   6.537   5.388   4.611 -0.2175  0.0474  0.2296
 9148TIP3    H148935   6.566   5.373   4.521 -0.5458  1.3374 -0.1031
 9148TIP3    H248936   6.442   5.378   4.607 -0.0785 -1.8079  0.8416
 9149TIP3   OH248937   1.178   6.514  13.987 -0.5714 -0.3750 -0.4473
 9149TIP3    H148938   1.104   6.470  13.947 -0.9137  0.7758 -1.1032
 9149TIP3    H248939   1.175   6.603  13.954  0.3569  0.0453  0.5195
 9150TIP3   OH248940   6.771   0.654   2.633  0.5703  0.1435 -0.3904
 9150TIP3    H148941   6.757   0.747   2.654 -1.7514 -0.4623  1.0490
 9150TIP3    H248942   6.852   0.632   2.678  1.7047  1.6429 -1.5468
 9151TIP3   OH248943   2.013   0.396  11.258  0.0074 -0.2608  0.1885
 9151TIP3    H148944   2.084   0.388  11.194  0.3474 -1.3530  0.6799
 9151TIP3    H248945   2.008   0.310  11.299 -1.0949  0.0348  0.7076
 9152TIP3   OH248946   4.535   0.954  16.894 -0.0790  0.5419 -0.0914
 9152TIP3    H148947   4.564   1.025  16.951 -0.4571  0.4483  0.2156
 9152TIP3    H248948   4.609   0.893  16.892 -0.5772 -0.1617  1.4382
 9153TIP3   OH248949   4.739   2.005   3.981  0.5625  0.3883 -0.2341
 9153TIP3    H148950   4.821   1.997   4.029  0.5544  0.5425 -0.1935
 9153TIP3    H248951   4.762   2.051   3.901  0.3381  1.3779  0.2535
 9154TIP3   OH248952   2.733   2.190   6.016  0.4679 -0.3094  0.3406
 9154TIP3    H148953   2.768   2.103   6.032 -0.2096 -0.5955  0.3254
 9154TIP3    H248954   2.783   2.247   6.074  1.5704 -0.5546 -0.3511
 9155TIP3   OH248955   6.259   3.780  15.155 -0.4708 -0.6103  0.0840
 9155TIP3    H148956   6.247   3.819  15.241 -0.4657  1.6805 -0.8788
 9155TIP3    H248957   6.342   3.734  15.161 -0.4935 -0.5260  1.3051
 9156TIP3   OH248958   2.583   6.448  14.310 -0.0528 -0.1799 -0.7974
 9156TIP3    H148959   2.521   6.521  14.312  0.5804  0.3826 -1.0966
 9156TIP3    H248960   2.597   6.425  14.402  1.5426  1.6609 -0.5084
 9157TIP3   OH248961   1.100   3.673  17.033  0.6675 -0.3605  0.8487
 9157TIP3    H148962   1.020   3.647  17.079  0.5141 -1.5649 -0.0592
 9157TIP3    H248963   1.073   3.744  16.976  0.5521  0.1786  1.5651
 9158TIP3   OH248964   5.335   2.354  16.113 -0.1324  0.5761  0.1389
 9158TIP3    H148965   5.329   2.436  16.161  2.8005  1.8985 -1.4774
 9158TIP3    H248966   5.245   2.327  16.098 -1.1900  3.4344  0.8308
 9159TIP3   OH248967   4.315   1.810   5.098 -0.2901  0.0480  0.5455
 9159TIP3    H148968   4.266   1.744   5.048  0.7528 -0.8964  0.7248
 9159TIP3    H248969   4.381   1.759   5.146 -0.2784  1.0969  1.6871
 9160TIP3   OH248970   0.067   4.900  15.653  0.1933  0.8619  0.0256
 9160TIP3    H148971   0.113   4.885  15.570  0.2749 -0.5976  0.3058
 9160TIP3    H248972   0.136   4.891  15.719 -0.4247 -1.1664  0.4390
 9161TIP3   OH248973   1.565   2.080  12.107  0.3146 -0.3535  0.9384
 9161TIP3    H148974   1.527   2.003  12.066  2.0906 -1.8190  1.9076
 9161TIP3    H248975   1.557   2.064  12.201 -0.8584  1.4860  1.2129
 9162TIP3   OH248976   1.435   2.074  16.955 -0.2524  0.1803  0.7602
 9162TIP3    H148977   1.505   2.015  16.985 -0.9965 -1.1764 -0.1083
 9162TIP3    H248978   1.414   2.044  16.867 -1.9283  0.5654  0.9929
 9163TIP3   OH248979   4.302   3.195  14.379  0.3584 -0.5514 -0.3433
 9163TIP3    H148980   4.211   3.187  14.408 -0.6020  3.5382 -1.5480
 9163TIP3    H248981   4.302   3.159  14.290 -0.1747 -0.2747 -0.4594
 9164TIP3   OH248982   3.438   2.728  16.595 -0.5008  0.2458 -0.1056
 9164TIP3    H148983   3.511   2.729  16.658 -1.3605 -2.9038  1.1590
 9164TIP3    H248984   3.481   2.713  16.510  0.5913  3.4757 -0.2500
 9165TIP3   OH248985   1.426   3.380  13.112 -0.0773 -0.0138  0.1564
 9165TIP3    H148986   1.371   3.342  13.180  0.1307 -0.0477  0.3057
 9165TIP3    H248987   1.407   3.474  13.117  1.0687  0.1797  1.2948
 9166TIP3   OH248988   4.994   0.729   5.122 -0.1526  0.1872 -0.3220
 9166TIP3    H148989   5.039   0.760   5.201 -0.8663 -0.4359  0.3480
 9166TIP3    H248990   4.902   0.748   5.138 -0.3989 -0.7088 -0.6501
 9167TIP3   OH248991   6.537   3.048   5.302 -0.6315 -0.0062 -0.3611
 9167TIP3    H148992   6.461   2.992   5.281  0.9116 -2.2556 -0.3020
 9167TIP3    H248993   6.563   3.020   5.390 -1.8157  3.2762  1.1963
 9168TIP3   OH248994   4.317   0.673  11.359  0.1730  0.0708 -0.1233
 9168TIP3    H148995   4.347   0.703  11.445  0.7742  1.4470 -0.7883
 9168TIP3    H248996   4.236   0.625  11.377  0.7334 -0.3971  1.2935
 9169TIP3   OH248997   2.693   2.240  11.093  0.2825  0.5747 -0.5312
 9169TIP3    H148998   2.703   2.210  11.183 -0.1850  1.3395 -0.2182
 9169TIP3    H248999   2.686   2.159  11.041  1.7670  0.1158 -0.0400
 9170TIP3   OH249000   2.081   3.922  12.634  0.2006 -0.0688  0.3011
 9170TIP3    H149001   2.146   3.978  12.677  0.9691 -0.7678  0.0824
 9170TIP3    H249002   2.134   3.860  12.584 -0.6640  0.6009 -1.5056
 9171TIP3   OH249003   6.131   6.278   5.583 -0.1336  0.1227 -0.4776
 9171TIP3    H149004   6.049   6.248   5.621  0.5320 -0.0838  0.8654
 9171TIP3    H249005   6.125   6.255   5.491 -1.4369 -0.1965 -0.3315
 9172TIP3   OH249006   3.361   0.219   5.119 -0.5728  0.3898  0.4105
 9172TIP3    H149007   3.438   0.172   5.086  1.1543  2.6620  1.0151
 9172TIP3    H249008   3.308   0.150   5.160 -0.1713 -1.6578 -2.1996
 9173TIP3   OH249009   0.056   5.649  14.543 -0.0002  0.6379 -0.5997
 9173TIP3    H149010   0.041   5.582  14.610  0.8819  0.0197 -0.9875
 9173TIP3    H249011  -0.012   5.635  14.478  0.3644 -0.1084 -0.8336
 9174TIP3   OH249012   2.394   0.954   0.795 -0.3172 -0.0771  0.3904
 9174TIP3    H149013   2.374   0.860   0.800 -2.3986  0.3440  0.6264
 9174TIP3    H249014   2.440   0.964   0.712 -0.3069 -1.2567  0.2293
 9175TIP3   OH249015   2.323   5.386  16.678  0.2618  0.6535  0.0418
 9175TIP3    H149016   2.266   5.396  16.601  0.7978  1.5947 -0.2542
 9175TIP3    H249017   2.398   5.442  16.659  0.7872  0.2558  0.9005
 9176TIP3   OH249018   6.626   4.753  11.406 -0.1150  0.0046  0.2346
 9176TIP3    H149019   6.591   4.767  11.494 -0.5642  1.9232 -0.1974
 9176TIP3    H249020   6.562   4.696  11.363 -1.4121  1.3636  0.2815
 9177TIP3   OH249021   1.615   3.712   2.159  0.3361 -0.1719 -0.1531
 9177TIP3    H149022   1.545   3.661   2.201 -1.8959  1.2077 -1.9850
 9177TIP3    H249023   1.621   3.792   2.212 -0.0067  0.0331 -0.4214
 9178TIP3   OH249024   4.739   3.733  12.216 -0.3406  0.3143  0.2752
 9178TIP3    H149025   4.728   3.795  12.287 -0.1676  0.9954 -0.2831
 9178TIP3    H249026   4.833   3.733  12.199 -0.4221  0.4358 -0.1942
 9179TIP3   OH249027   1.621   5.891   2.935  0.5954 -0.5888 -0.4207
 9179TIP3    H149028   1.654   5.938   3.012 -1.7181  0.0059  0.2718
 9179TIP3    H249029   1.544   5.844   2.967 -1.5588  1.1271 -2.6875
 9180TIP3   OH249030   5.493   0.103  13.706 -0.6178 -0.0086  0.4631
 9180TIP3    H149031   5.558   0.038  13.732 -0.0405 -0.0013 -0.8621
 9180TIP3    H249032   5.445   0.062  13.634 -0.6152  0.8025 -0.0184
 9181TIP3   OH249033   4.044   3.431   1.318 -0.6389  0.0861 -0.2076
 9181TIP3    H149034   4.049   3.414   1.412 -0.6859  2.7625  0.3752
 9181TIP3    H249035   4.115   3.494   1.302  1.3605 -2.4988 -2.6175
 9182TIP3   OH249036   2.030   2.323  11.921  0.1562 -0.5935 -0.2217
 9182TIP3    H149037   1.962   2.255  11.922  1.5273 -2.0023 -0.4496
 9182TIP3    H249038   2.107   2.281  11.958  0.9884  0.9199 -0.1611
 9183TIP3   OH249039   1.477   6.435  14.480 -0.6676  0.2704 -0.4327
 9183TIP3    H149040   1.390   6.457  14.447 -0.8444 -1.1778 -0.9715
 9183TIP3    H249041   1.461   6.374  14.552 -0.0746 -0.8552 -1.2258
 9184TIP3   OH249042   0.553   4.205   1.637  0.0861 -0.4176 -0.0448
 9184TIP3    H149043   0.484   4.223   1.701 -0.4943 -2.7079  0.0640
 9184TIP3    H249044   0.541   4.112   1.615  2.6411 -0.6653 -0.6399
 9185TIP3   OH249045   4.684   5.619  15.816 -0.0409 -0.6253  0.2305
 9185TIP3    H149046   4.594   5.653  15.820 -0.1933 -0.7490 -1.4595
 9185TIP3    H249047   4.676   5.537  15.768  1.1104 -0.1498 -0.8009
 9186TIP3   OH249048   2.282   1.464   5.972  0.4780 -0.3643 -0.1931
 9186TIP3    H149049   2.274   1.539   5.913 -1.0091 -1.3277 -1.2915
 9186TIP3    H249050   2.193   1.448   6.002  0.5732 -2.3477 -0.8609
 9187TIP3   OH249051   2.181   3.432   0.703  0.4081 -0.3272 -0.4810
 9187TIP3    H149052   2.112   3.413   0.766  3.0193  1.2034  3.2350
 9187TIP3    H249053   2.168   3.524   0.680 -0.4152 -0.8247 -2.1701
 9188TIP3   OH249054   5.282   2.803  10.972  0.2270  0.1036  0.3474
 9188TIP3    H149055   5.264   2.884  10.925 -0.3902  0.1778  0.7146
 9188TIP3    H249056   5.270   2.734  10.906  0.3767  0.2801  0.1349
 9189TIP3   OH249057   3.790   0.821  11.557  0.2701 -0.4255  0.0435
 9189TIP3    H149058   3.864   0.875  11.530 -0.9963  0.5437 -1.6246
 9189TIP3    H249059   3.778   0.758  11.486  0.3555 -1.5179  0.9627
 9190TIP3   OH249060   4.014   0.656  13.196 -0.2131  0.2191 -0.2714
 9190TIP3    H149061   4.032   0.708  13.274  0.4955 -0.5537  0.1063
 9190TIP3    H249062   3.919   0.653  13.190 -0.2664  1.4395 -0.2355
 9191TIP3   OH249063   3.021   6.698   6.204  0.3441 -0.6482  0.3188
 9191TIP3    H149064   3.103   6.741   6.180  0.3206 -0.4519  0.5858
 9191TIP3    H249065   2.973   6.765   6.253 -0.6864 -0.1840 -1.2353
 9192TIP3   OH249066   1.410   5.958   3.206  0.1619 -0.0161  0.3711
 9192TIP3    H149067   1.451   5.938   3.290 -0.3316 -0.1883  0.5711
 9192TIP3    H249068   1.470   6.020   3.164  1.3194 -1.2824  0.0782
 9193TIP3   OH249069   3.851   6.348   4.870  0.2939  0.1963 -0.2261
 9193TIP3    H149070   3.808   6.384   4.793 -1.5985  0.6515  0.9816
 9193TIP3    H249071   3.846   6.417   4.936  0.1469 -0.8605  0.9041
 9194TIP3   OH249072   1.335   1.535  12.499 -0.1350 -0.0506 -0.0501
 9194TIP3    H149073   1.271   1.491  12.442 -1.1200  0.4688  0.6137
 9194TIP3    H249074   1.281   1.586  12.560  0.8719 -0.5820  1.3499
 9195TIP3   OH249075   3.256   1.213  14.516  0.1096  0.2120 -0.6446
 9195TIP3    H149076   3.261   1.161  14.436 -2.0619  1.1054 -1.4290
 9195TIP3    H249077   3.169   1.253  14.514  0.0035  0.3400  2.1292
 9196TIP3   OH249078   1.040   0.341   5.143 -0.4965 -0.0376 -0.1314
 9196TIP3    H149079   0.966   0.379   5.191 -0.0052  0.1483  0.4843
 9196TIP3    H249080   1.055   0.403   5.071 -0.4961  0.2895  0.1470
 9197TIP3   OH249081   0.352   1.593   3.705  0.9584 -0.5849  0.3761
 9197TIP3    H149082   0.300   1.542   3.643  1.7600 -2.1786  0.9597
 9197TIP3    H249083   0.288   1.631   3.765  0.1286  1.3456 -1.6102
 9198TIP3   OH249084   2.390   1.736  11.597 -0.5770  0.1298 -0.5724
 9198TIP3    H149085   2.393   1.733  11.501  1.6997  2.1181 -0.6434
 9198TIP3    H249086   2.430   1.653  11.625  0.2856  0.2733 -1.3549
 9199TIP3   OH249087   6.230   3.850  15.438 -0.9099  0.6678  0.5413
 9199TIP3    H149088   6.313   3.894  15.459 -1.7471  2.6208 -0.0595
 9199TIP3    H249089   6.189   3.837  15.523 -0.8513  1.4827  0.7014
 9200TIP3   OH249090   0.448   1.788  12.407 -0.0075  0.5032 -0.6703
 9200TIP3    H149091   0.433   1.734  12.485 -0.7752 -0.2315 -1.3055
 9200TIP3    H249092   0.366   1.781  12.358  0.3136  1.3138 -1.3308
 9201TIP3   OH249093   4.592   2.096  13.080 -0.2248 -1.0299 -0.0939
 9201TIP3    H149094   4.666   2.064  13.028  0.8333  0.3675  0.4844
 9201TIP3    H249095   4.562   2.174  13.033 -0.9444 -1.2482 -0.0024
 9202TIP3   OH249096   5.521   5.039   1.700 -0.2287 -0.7925  0.1205
 9202TIP3    H149097   5.435   5.025   1.738 -0.3766 -2.1802 -0.6777
 9202TIP3    H249098   5.504   5.083   1.617 -0.0261  0.5105  0.7370
 9203TIP3   OH249099   5.654   5.449  12.722 -0.0275  0.3192 -0.4108
 9203TIP3    H149100   5.606   5.515  12.772  0.5960  1.0135 -0.7248
 9203TIP3    H249101   5.601   5.369  12.733 -1.8299  1.2759 -1.5743
 9204TIP3   OH249102   6.598   2.081  12.059  0.1837  0.1304  0.6230
 9204TIP3    H149103   6.563   2.099  12.146 -2.3540  0.0387 -0.2965
 9204TIP3    H249104   6.545   2.008  12.027  3.0922 -1.9465  0.1113
 9205TIP3   OH249105   5.327   6.668  16.594 -0.1581  0.1074  0.1810
 9205TIP3    H149106   5.365   6.725  16.527 -3.3438  1.8880 -0.3146
 9205TIP3    H249107   5.385   6.680  16.670  2.6512 -0.7696 -1.6592
 9206TIP3   OH249108   4.828   5.375  10.352  0.8028 -0.4478 -0.4307
 9206TIP3    H149109   4.737   5.375  10.381  1.0338 -0.8817  0.3306
 9206TIP3    H249110   4.837   5.296  10.300  0.0449  0.9870 -2.9041
 9207TIP3   OH249111   5.530   0.353   2.322 -0.2552  0.8456 -0.0166
 9207TIP3    H149112   5.625   0.359   2.322 -0.2660  1.9255  2.0239
 9207TIP3    H249113   5.502   0.409   2.394 -2.3236 -1.1716  0.8983
 9208TIP3   OH249114   0.045   5.291   2.955 -0.2453 -0.3277 -0.3427
 9208TIP3    H149115  -0.024   5.336   3.004 -0.2276 -0.8365  0.1629
 9208TIP3    H249116   0.001   5.217   2.914 -0.4979  0.7120 -2.0459
 9209TIP3   OH249117   4.569   3.774   2.449 -0.4149 -0.1822 -0.3777
 9209TIP3    H149118   4.536   3.863   2.436  0.6685  0.2005 -0.5813
 9209TIP3    H249119   4.561   3.759   2.543 -1.4790 -0.2312 -0.4678
 9210TIP3   OH249120   6.223   4.476   3.556 -0.7990  0.3485  0.0999
 9210TIP3    H149121   6.244   4.525   3.476 -0.6705  0.2660  0.0832
 9210TIP3    H249122   6.148   4.421   3.531  0.5100 -1.2097 -0.5761
 9211TIP3   OH249123   0.924   4.905   4.814  0.3604 -0.9842 -0.7524
 9211TIP3    H149124   0.993   4.924   4.877  0.6073  0.0169 -1.3071
 9211TIP3    H249125   0.886   4.990   4.793  0.3699 -1.2790 -2.0485
 9212TIP3   OH249126   6.736   3.326  16.282 -0.3331 -0.0281 -0.1994
 9212TIP3    H149127   6.818   3.305  16.328 -0.4859  1.6672  0.9497
 9212TIP3    H249128   6.754   3.303  16.190  1.0567 -0.6614  0.1977
 9213TIP3   OH249129   0.146   4.770   0.584  0.3570  0.8361  0.0221
 9213TIP3    H149130   0.187   4.850   0.617 -0.7363  1.4309 -0.0311
 9213TIP3    H249131   0.204   4.700   0.615  1.1420  1.6099  0.3658
 9214TIP3   OH249132   1.148   0.528  16.475  0.2804 -0.2887 -0.0658
 9214TIP3    H149133   1.202   0.480  16.413  0.6625  1.5463 -1.2332
 9214TIP3    H249134   1.064   0.541  16.430  0.5503  1.0333 -0.2353
 9215TIP3   OH249135   0.113   4.085  13.861  0.2787  0.3473 -0.5860
 9215TIP3    H149136   0.143   3.995  13.874  0.7447  0.6522  0.5806
 9215TIP3    H249137   0.052   4.079  13.788 -1.5272 -1.3098  0.9541
 9216TIP3   OH249138   5.291   2.029  13.648 -0.0886 -0.0854 -0.1440
 9216TIP3    H149139   5.234   1.952  13.645 -0.7756  0.3772  0.4519
 9216TIP3    H249140   5.244   2.090  13.705  1.4727 -0.0665  1.1891
 9217TIP3   OH249141   0.823   0.218   3.761  0.1360  0.4959  0.0601
 9217TIP3    H149142   0.752   0.281   3.751  1.1246  1.6420  0.0251
 9217TIP3    H249143   0.884   0.239   3.689  2.7359  2.5836  2.6373
 9218TIP3   OH249144   4.637   2.978   2.258  0.0485 -0.3662 -0.4689
 9218TIP3    H149145   4.598   2.912   2.201 -1.6245  0.0125  0.1893
 9218TIP3    H249146   4.704   3.020   2.204 -1.2284 -0.2701 -2.0383
 9219TIP3   OH249147   5.406   1.350   2.319  0.1270 -0.2043  0.0579
 9219TIP3    H149148   5.461   1.392   2.253 -0.5031  0.5161 -0.0164
 9219TIP3    H249149   5.350   1.290   2.270 -0.4938  0.4926 -0.0965
 9220TIP3   OH249150   2.531   4.036   1.509 -0.4448 -0.0376 -0.1457
 9220TIP3    H149151   2.543   3.943   1.491 -2.3093  0.0200 -2.1622
 9220TIP3    H249152   2.602   4.079   1.462  0.1255 -0.3975  0.3737
 9221TIP3   OH249153   6.766   2.151   3.916  0.2600 -0.6485 -0.1395
 9221TIP3    H149154   6.786   2.231   3.965  0.8246 -0.1453 -1.1609
 9221TIP3    H249155   6.747   2.182   3.827 -1.2100 -1.4926 -0.1502
 9222TIP3   OH249156   1.433   4.516   5.639 -0.6339 -0.4118  0.2976
 9222TIP3    H149157   1.386   4.459   5.700 -0.3640 -0.2238  0.6793
 9222TIP3    H249158   1.366   4.577   5.607 -0.9253 -0.9368 -0.1138
 9223TIP3   OH249159   4.073   0.023   5.251 -0.6247  0.1979  0.2664
 9223TIP3    H149160   3.982   0.053   5.258 -1.4734 -2.1097  0.1266
 9223TIP3    H249161   4.083   0.001   5.158  0.2703  0.9473  0.1749
 9224TIP3   OH249162   2.394   4.491  15.416  0.0316  0.4078 -0.3238
 9224TIP3    H149163   2.401   4.396  15.405 -1.7407  0.1248  0.5911
 9224TIP3    H249164   2.459   4.527  15.356  2.4736 -1.4131  1.0272
 9225TIP3   OH249165   3.131   5.027  12.119  0.1979 -0.0182  0.1935
 9225TIP3    H149166   3.142   5.009  12.026  0.1255  0.1659  0.1472
 9225TIP3    H249167   3.036   5.029  12.131  0.1939 -1.6548  0.5978
 9226TIP3   OH249168   4.230   6.283   0.735 -0.0503  0.3585  0.3760
 9226TIP3    H149169   4.147   6.326   0.752 -0.0881  0.1580  0.7267
 9226TIP3    H249170   4.273   6.337   0.669 -0.7853  0.0469 -0.3803
 9227TIP3   OH249171   3.546   0.889   6.132 -0.3889  0.3229  0.3611
 9227TIP3    H149172   3.465   0.883   6.182  0.0602  1.9881  1.3710
 9227TIP3    H249173   3.567   0.983   6.131  3.2618 -0.2293  3.0969
 9228TIP3   OH249174   2.876   1.920  12.514  0.2642  0.0806  0.2954
 9228TIP3    H149175   2.899   1.961  12.597 -1.6236  0.8514  0.4681
 9228TIP3    H249176   2.867   1.993  12.453  0.7015 -0.4127 -0.3815
 9229TIP3   OH249177   0.505   0.932  16.481  0.6484  0.2436 -0.0427
 9229TIP3    H149178   0.545   0.849  16.506  0.6937  0.6757  1.4276
 9229TIP3    H249179   0.577   0.995  16.481  0.2437  0.7599  1.3350
 9230TIP3   OH249180   4.793   5.050  15.241  0.2415 -0.0078 -0.3630
 9230TIP3    H149181   4.888   5.051  15.228  0.1732 -0.7041 -0.9681
 9230TIP3    H249182   4.762   4.979  15.185 -0.6327  0.1780 -0.1249
 9231TIP3   OH249183   3.651   2.406  14.485  0.6405 -0.4139 -0.0768
 9231TIP3    H149184   3.706   2.479  14.458 -1.1396  0.7879 -0.6650
 9231TIP3    H249185   3.570   2.416  14.434  0.9122 -3.7902 -1.4806
 9232TIP3   OH249186   1.643   0.514   0.299  0.1462 -0.7639 -0.4466
 9232TIP3    H149187   1.584   0.579   0.260  0.9294  0.6616  0.6837
 9232TIP3    H249188   1.585   0.453   0.344 -0.5268  0.0351 -0.2116
 9233TIP3   OH249189   2.334   4.533   6.289  0.4125  0.2825 -0.1687
 9233TIP3    H149190   2.318   4.446   6.254  0.1811  0.4873 -0.5772
 9233TIP3    H249191   2.274   4.590   6.241  1.0706  0.7843 -0.4105
 9234TIP3   OH249192   5.614   6.419   1.672 -0.0228  0.3156 -0.3098
 9234TIP3    H149193   5.589   6.482   1.605 -0.4594 -0.8543 -1.2879
 9234TIP3    H249194   5.706   6.402   1.656  0.0070  0.4418 -0.2722
 9235TIP3   OH249195   1.383   0.234  12.057 -0.6882  0.1313  0.9166
 9235TIP3    H149196   1.409   0.154  12.104 -0.5539 -2.4657 -3.0844
 9235TIP3    H249197   1.454   0.249  11.994 -2.0981  1.6018 -0.4115
 9236TIP3   OH249198   0.521   3.813  13.465 -0.2037  0.8548  0.3296
 9236TIP3    H149199   0.524   3.725  13.501  0.6473  1.0928  0.8940
 9236TIP3    H249200   0.500   3.802  13.373  1.2152 -0.0404  0.0890
 9237TIP3   OH249201   3.210   2.808   1.127  0.0026 -0.0220 -0.5319
 9237TIP3    H149202   3.288   2.810   1.182  1.1970  1.7192 -2.1367
 9237TIP3    H249203   3.207   2.895   1.087 -1.9263 -0.5436 -1.6755
 9238TIP3   OH249204   2.001   2.565  11.337  0.2225 -0.1004  0.0417
 9238TIP3    H149205   1.943   2.598  11.406  0.0547  0.1872 -0.2343
 9238TIP3    H249206   2.011   2.472  11.357 -1.6256 -0.5295 -0.7999
 9239TIP3   OH249207   0.708   6.397  13.867 -0.1873  0.0286 -0.3735
 9239TIP3    H149208   0.703   6.329  13.800  0.7522  0.8713 -1.3207
 9239TIP3    H249209   0.733   6.476  13.820 -0.9960  0.9944  0.7466
 9240TIP3   OH249210   0.132   5.865  13.096  0.0556  0.5887  0.3783
 9240TIP3    H149211   0.152   5.803  13.026  0.6974  1.7414 -0.4953
 9240TIP3    H249212   0.183   5.943  13.074 -1.9013  1.9951  0.5880
 9241TIP3   OH249213   2.139   4.338   5.311 -0.0369 -0.6208 -0.3767
 9241TIP3    H149214   2.046   4.353   5.322  0.0068  1.1285 -1.9373
 9241TIP3    H249215   2.145   4.278   5.237  0.0711  0.6837 -1.4709
 9242TIP3   OH249216   5.583   1.060  12.645 -0.1843 -0.1796 -0.4241
 9242TIP3    H149217   5.502   1.042  12.597 -1.4323  3.6239 -0.0624
 9242TIP3    H249218   5.586   0.992  12.713 -2.1515 -1.4180 -1.4800
 9243TIP3   OH249219   6.407   6.536   3.874  0.5595 -0.1900 -0.2725
 9243TIP3    H149220   6.370   6.620   3.847  0.6422 -0.3630 -0.9348
 9243TIP3    H249221   6.354   6.511   3.950 -0.4134 -0.2142 -0.9308
 9244TIP3   OH249222   2.194   0.895  13.832 -0.0599  0.3956  0.4557
 9244TIP3    H149223   2.141   0.914  13.754  0.3676 -0.9630 -0.2026
 9244TIP3    H249224   2.252   0.824  13.805 -0.5480 -0.7861  2.2652
 9245TIP3   OH249225   3.390   4.679  16.384  0.7519 -0.9611 -0.2436
 9245TIP3    H149226   3.358   4.593  16.412  1.1521 -1.2915 -0.7809
 9245TIP3    H249227   3.443   4.710  16.458  2.2044 -2.0410 -0.7730
 9246TIP3   OH249228   6.153   6.178  14.618  0.4361  0.2515  0.2538
 9246TIP3    H149229   6.244   6.174  14.647  0.4876  1.7846  0.4289
 9246TIP3    H249230   6.111   6.239  14.679 -0.3661  0.6299 -0.6501
 9247TIP3   OH249231   5.310   0.262   5.506 -0.4671  0.0328 -0.0618
 9247TIP3    H149232   5.222   0.241   5.473 -1.2219  0.0425  1.8399
 9247TIP3    H249233   5.310   0.231   5.597  1.8287 -0.8212 -0.2778
 9248TIP3   OH249234   0.993   1.566   0.128 -0.1560 -0.2387 -0.4878
 9248TIP3    H149235   1.038   1.518   0.197 -1.2008  0.0996  0.4714
 9248TIP3    H249236   0.918   1.606   0.172 -0.5370  0.4565 -1.7118
 9249TIP3   OH249237   6.581   0.608   4.792 -0.1040  0.2077 -0.7023
 9249TIP3    H149238   6.611   0.677   4.852  0.6149 -0.4358 -0.2878
 9249TIP3    H249239   6.633   0.621   4.713  0.2404 -0.0176 -0.5192
 9250TIP3   OH249240   0.280   1.384  14.111  0.0988  0.0200  0.2033
 9250TIP3    H149241   0.266   1.290  14.106  1.0435 -0.1380  0.2738
 9250TIP3    H249242   0.236   1.411  14.192 -0.9642 -0.1967 -0.2920
 9251TIP3   OH249243   0.067   2.884  16.370 -0.4112 -0.1124  0.0402
 9251TIP3    H149244   0.061   2.944  16.445 -1.1223 -0.1195 -0.0045
 9251TIP3    H249245  -0.007   2.907  16.315  0.2274  0.0421 -0.7846
 9252TIP3   OH249246   1.872   2.003   4.338 -0.2873  0.3821  0.8504
 9252TIP3    H149247   1.828   2.063   4.399 -1.1098 -0.4926  1.1460
 9252TIP3    H249248   1.965   2.025   4.346 -0.6070  2.0746  0.4370
 9253TIP3   OH249249   4.237   5.080  16.311 -0.0348  0.0797  0.0857
 9253TIP3    H149250   4.204   5.015  16.249  1.3357 -1.3148  0.7491
 9253TIP3    H249251   4.328   5.055  16.325 -0.5075 -0.2457  3.3616
 9254TIP3   OH249252   1.506   4.720  15.957  0.9988  0.7769  0.3780
 9254TIP3    H149253   1.569   4.726  16.029  1.3348  1.5095  0.0318
 9254TIP3    H249254   1.441   4.787  15.977  0.8139  0.6306  0.2662
 9255TIP3   OH249255   1.970   5.026  12.198 -0.4270  0.3751 -0.0926
 9255TIP3    H149256   1.989   5.026  12.104  0.3435  1.6594  0.0453
 9255TIP3    H249257   2.028   4.958  12.233 -0.2575  0.3237 -0.4636
 9256TIP3   OH249258   2.790   2.525   4.697 -0.9704 -0.2212 -0.2655
 9256TIP3    H149259   2.885   2.534   4.706 -1.0099 -0.0552 -0.0079
 9256TIP3    H249260   2.762   2.606   4.654 -0.7382 -1.1545 -2.3069
 9257TIP3   OH249261   2.832   0.152   1.357 -0.3409 -0.6892 -0.3391
 9257TIP3    H149262   2.924   0.179   1.355 -0.5134  0.1811  1.7655
 9257TIP3    H249263   2.830   0.080   1.420 -1.3156  0.2951  0.8032
 9258TIP3   OH249264   1.262   0.857  16.157  0.0382  0.1334  0.3977
 9258TIP3    H149265   1.275   0.769  16.122 -1.0967  0.3983 -0.7326
 9258TIP3    H249266   1.224   0.843  16.244  1.6441 -0.4990  1.0377
 9259TIP3   OH249267   1.131   5.788   5.645 -0.4479 -0.2098 -0.0719
 9259TIP3    H149268   1.219   5.757   5.628  0.3808  2.7154 -1.9039
 9259TIP3    H249269   1.092   5.800   5.559 -2.6946 -1.4315  0.6881
 9260TIP3   OH249270   4.930   3.220  12.006 -0.3793 -0.4415  0.4985
 9260TIP3    H149271   5.015   3.241  12.045 -1.1389  1.2276  1.3727
 9260TIP3    H249272   4.894   3.150  12.061  0.5730 -1.4387 -0.1176
 9261TIP3   OH249273   3.292   2.767  13.579  0.6985 -0.1209  0.2420
 9261TIP3    H149274   3.247   2.851  13.573 -1.1608 -1.1214 -0.4587
 9261TIP3    H249275   3.285   2.730  13.491  0.2576 -1.6204  0.8908
 9262TIP3   OH249276   2.917   2.094   2.768  0.4396  0.6460 -0.0025
 9262TIP3    H149277   2.829   2.128   2.755 -0.4801 -1.5737 -0.0276
 9262TIP3    H249278   2.971   2.145   2.707 -0.4691  3.1652  1.1728
 9263TIP3   OH249279   4.172   5.080   4.673 -0.7121 -0.1988  0.1103
 9263TIP3    H149280   4.110   5.140   4.630  0.8465  0.0351 -1.9217
 9263TIP3    H249281   4.248   5.135   4.693  1.0562 -1.5280 -2.4528
 9264TIP3   OH249282   4.523   5.001  16.027 -0.2348 -0.3151 -0.5119
 9264TIP3    H149283   4.520   4.905  16.026  1.8226 -0.5405  2.1383
 9264TIP3    H249284   4.532   5.023  16.120 -0.3954  2.4559 -1.0840
 9265TIP3   OH249285   5.851   5.255  12.385  0.0365  0.0990  0.1080
 9265TIP3    H149286   5.767   5.286  12.351 -0.0712  0.5188  0.7459
 9265TIP3    H249287   5.828   5.206  12.464  0.3437 -0.3086 -0.0505
 9266TIP3   OH249288   3.796   0.629  11.343 -0.4466 -0.3482 -0.0181
 9266TIP3    H149289   3.731   0.562  11.324 -0.4523 -0.2654 -0.3079
 9266TIP3    H249290   3.791   0.689  11.267 -1.0648  0.4665  0.6433
 9267TIP3   OH249291   6.629   2.872  13.445 -0.0683 -0.0785 -0.6835
 9267TIP3    H149292   6.633   2.967  13.458  1.4247 -0.0946 -0.8599
 9267TIP3    H249293   6.535   2.853  13.437 -0.4355  1.2807  0.0193
 9268TIP3   OH249294   4.848   1.993  12.306 -0.0775  0.0658  0.2638
 9268TIP3    H149295   4.858   2.042  12.224 -1.7556 -0.6152 -0.4082
 9268TIP3    H249296   4.828   2.059  12.372 -3.9045  0.3552 -0.9179
 9269TIP3   OH249297   6.400   6.256   4.438 -0.0766  0.7039  0.0379
 9269TIP3    H149298   6.423   6.259   4.345 -0.1421  1.1900  0.0313
 9269TIP3    H249299   6.422   6.344   4.471  0.5503  0.3334  0.6264
 9270TIP3   OH249300   3.172   1.544   3.417  0.2542 -0.0991  0.0783
 9270TIP3    H149301   3.168   1.638   3.400 -0.0176  0.1858  1.5544
 9270TIP3    H249302   3.250   1.533   3.471 -0.4965 -0.4855  1.1232
 9271TIP3   OH249303   2.379   5.530  14.148 -0.6692 -0.2374 -0.5560
 9271TIP3    H149304   2.331   5.482  14.216  1.2636  0.5881  1.4703
 9271TIP3    H249305   2.313   5.545  14.080 -2.6104 -1.3584  0.9524
 9272TIP3   OH249306   4.243   2.549  10.479  0.7349  0.5453 -0.5522
 9272TIP3    H149307   4.166   2.605  10.487 -0.1854 -0.7492 -0.1955
 9272TIP3    H249308   4.299   2.574  10.552 -0.2383  0.1462  0.3529
 9273TIP3   OH249309   1.981   4.745   2.225  0.2975  0.6360 -0.0802
 9273TIP3    H149310   1.951   4.747   2.134 -0.0082  1.5104  0.0215
 9273TIP3    H249311   1.960   4.657   2.256  1.9081 -0.2234 -1.3308
 9274TIP3   OH249312   6.514   6.618   2.562  0.7836  0.2944  0.0808
 9274TIP3    H149313   6.502   6.599   2.469  2.2597  0.0792 -0.0834
 9274TIP3    H249314   6.446   6.682   2.582 -0.5525 -0.7907 -0.7553
 9275TIP3   OH249315   1.051   0.614  13.134 -0.3848 -0.0187 -0.3304
 9275TIP3    H149316   1.114   0.557  13.089  0.8706  1.4018 -0.4540
 9275TIP3    H249317   1.017   0.672  13.065  0.4673  1.2094  0.2372
 9276TIP3   OH249318   3.961   0.947  16.212  0.1227  0.2078 -0.4098
 9276TIP3    H149319   3.991   0.886  16.279  0.3185 -0.3753 -1.0236
 9276TIP3    H249320   4.037   0.963  16.157  0.2826  1.6008  0.1644
 9277TIP3   OH249321   4.179   5.421   2.418  0.3589 -0.1796  0.5015
 9277TIP3    H149322   4.147   5.367   2.490 -2.8389  1.0594  0.1406
 9277TIP3    H249323   4.178   5.362   2.342  0.9239 -0.6981  0.8876
 9278TIP3   OH249324   3.201   0.449   2.192 -0.6915 -0.2038 -0.1330
 9278TIP3    H149325   3.128   0.446   2.129 -1.4319  1.0515  0.6240
 9278TIP3    H249326   3.219   0.542   2.203  1.3488 -0.4865 -0.6161
 9279TIP3   OH249327   3.380   4.217   2.327 -0.0672  0.0338 -0.1406
 9279TIP3    H149328   3.341   4.213   2.240  0.2365  0.7920 -0.3210
 9279TIP3    H249329   3.474   4.223   2.312 -0.0778  1.5261  0.1750
 9280TIP3   OH249330   1.979   1.382  13.192  0.1593 -0.5779  0.3757
 9280TIP3    H149331   1.934   1.355  13.272  0.1774 -1.0777  0.2197
 9280TIP3    H249332   1.941   1.329  13.123  1.0032 -1.0395  0.2464
 9281TIP3   OH249333   4.407   0.347   2.611 -0.4153  0.6411 -0.1046
 9281TIP3    H149334   4.429   0.331   2.703  0.9594  0.4867 -0.4479
 9281TIP3    H249335   4.375   0.437   2.609 -1.5050  0.2917  0.6940
 9282TIP3   OH249336   0.560   6.851  11.628  0.1943  0.1226 -0.0430
 9282TIP3    H149337   0.640   6.866  11.678 -0.2128  2.8110 -0.0422
 9282TIP3    H249338   0.516   6.780  11.675  2.3555 -1.1771  0.1563
 9283TIP3   OH249339   3.875   5.541   0.421  0.0559 -0.3875  0.3699
 9283TIP3    H149340   3.856   5.463   0.473  0.4178 -0.8961 -0.2553
 9283TIP3    H249341   3.866   5.613   0.484 -0.6916 -0.8810  0.8612
 9284TIP3   OH249342   2.247   2.690   5.434 -0.2938  0.6385 -0.3732
 9284TIP3    H149343   2.300   2.769   5.422  0.2083  0.1898 -1.2734
 9284TIP3    H249344   2.258   2.667   5.526  1.6812  0.1732 -0.6632
 9285TIP3   OH249345   2.062   5.490  15.873 -0.2408  0.0601 -1.1031
 9285TIP3    H149346   2.059   5.585  15.875 -0.7608  0.0382 -0.5927
 9285TIP3    H249347   2.042   5.463  15.962  1.1988 -0.5060 -0.9255
 9286TIP3   OH249348   6.142   3.021  14.752  0.2204  0.6204 -0.5921
 9286TIP3    H149349   6.140   3.026  14.848  0.9494 -0.7336 -0.4911
 9286TIP3    H249350   6.118   3.110  14.724 -2.6901  0.4010  0.7760
 9287TIP3   OH249351   3.223   5.277  15.976 -0.2933  0.0932 -0.0308
 9287TIP3    H149352   3.217   5.184  15.956  0.8591  0.0546 -0.2516
 9287TIP3    H249353   3.135   5.301  16.006 -0.0449 -1.5768  2.3323
 9288TIP3   OH249354   4.219   4.852   5.134 -0.6453  0.3259 -0.2350
 9288TIP3    H149355   4.125   4.834   5.140 -0.3587 -1.0515  0.7222
 9288TIP3    H249356   4.226   4.947   5.140 -1.8557  0.3360  1.9843
 9289TIP3   OH249357   0.217   3.281  11.376  0.9308  0.9099 -0.1742
 9289TIP3    H149358   0.190   3.256  11.464  0.0640  0.2857 -0.5993
 9289TIP3    H249359   0.261   3.365  11.387  1.8273  0.3125  0.9946
 9290TIP3   OH249360   6.206   6.001   5.883 -0.0197  0.4556 -0.0735
 9290TIP3    H149361   6.123   5.986   5.838  0.1226  0.4974 -0.3555
 9290TIP3    H249362   6.182   6.014   5.974 -0.3029  0.2503 -0.1170
 9291TIP3   OH249363   1.499   4.442  16.081  0.4862 -0.0248  0.2390
 9291TIP3    H149364   1.426   4.496  16.053  0.7123  0.3344  0.3356
 9291TIP3    H249365   1.464   4.386  16.150  0.2043 -0.1341  0.0063
 9292TIP3   OH249366   2.683   5.370   1.593  0.0238  0.7514  0.8758
 9292TIP3    H149367   2.693   5.283   1.631 -0.3701  0.2328 -0.1662
 9292TIP3    H249368   2.680   5.355   1.498  1.4640  2.0406  0.5725
 9293TIP3   OH249369   2.758   3.748   3.830  0.1904  0.1471 -0.6455
 9293TIP3    H149370   2.682   3.792   3.793  0.5054  0.6924 -0.6450
 9293TIP3    H249371   2.726   3.661   3.854 -0.4364  0.3829 -0.6242
 9294TIP3   OH249372   3.132   2.312  15.755 -0.1552 -0.3231  0.9149
 9294TIP3    H149373   3.076   2.316  15.832 -0.0170  1.0338  0.9735
 9294TIP3    H249374   3.184   2.232  15.767 -0.1906 -0.1743  2.1954
 9295TIP3   OH249375   5.995   4.565   4.036  0.2471 -0.5387 -0.0566
 9295TIP3    H149376   6.031   4.631   3.977 -2.0049  1.8857  1.0492
 9295TIP3    H249377   6.070   4.514   4.065  2.0972  1.4333 -1.1327
 9296TIP3   OH249378   6.505   5.653  12.110  0.5641 -0.1488  0.3294
 9296TIP3    H149379   6.571   5.674  12.176  1.7315  0.2363 -0.9156
 9296TIP3    H249380   6.445   5.593  12.154  0.3632  1.3570  2.2379
 9297TIP3   OH249381   0.188   2.267  13.542  0.1664  0.8882  0.3722
 9297TIP3    H149382   0.132   2.307  13.608  1.3915  0.7836  1.5178
 9297TIP3    H249383   0.259   2.329  13.528 -0.0707  0.9132 -0.8820
 9298TIP3   OH249384   4.408   0.219   4.802  0.5524 -0.5529 -0.0024
 9298TIP3    H149385   4.386   0.134   4.765  2.2916 -1.4253  0.8473
 9298TIP3    H249386   4.377   0.216   4.892  1.9286 -0.9007  0.4863
 9299TIP3   OH249387   4.927   2.225  13.064  0.1326 -0.1493 -0.8007
 9299TIP3    H149388   4.917   2.287  12.991  0.2309  1.5059  0.5255
 9299TIP3    H249389   5.019   2.200  13.062  0.1185 -0.1756 -1.2868
 9300TIP3   OH249390   2.585   1.238  16.724 -0.2344  0.5360 -0.4081
 9300TIP3    H149391   2.656   1.197  16.675 -0.3673  0.7145 -0.7553
 9300TIP3    H249392   2.628   1.298  16.784 -0.0521  0.0781 -0.0777
 9301TIP3   OH249393   2.886   3.724   5.865  0.3256 -0.0799 -0.3914
 9301TIP3    H149394   2.915   3.644   5.910  1.9374  1.1254  0.8218
 9301TIP3    H249395   2.957   3.786   5.878 -1.2180  1.8198 -0.6288
 9302TIP3   OH249396   4.012   3.108   1.647  0.3704 -0.2565 -0.2430
 9302TIP3    H149397   3.955   3.031   1.650 -0.7445  0.5260 -0.4908
 9302TIP3    H249398   3.954   3.179   1.619  1.4874  0.5699 -0.5201
 9303TIP3   OH249399   3.953   5.015   3.867  0.6381 -0.4808  0.0130
 9303TIP3    H149400   3.893   5.018   3.793  0.8416  1.0905 -0.1151
 9303TIP3    H249401   3.939   4.928   3.905 -1.2578 -0.4060 -0.3932
 9304TIP3   OH249402   5.870   3.378   5.174 -0.1315  0.2323  0.5520
 9304TIP3    H149403   5.810   3.427   5.230 -0.9245  0.7496 -0.6939
 9304TIP3    H249404   5.923   3.444   5.131 -0.2067 -0.0801 -0.0363
 9305TIP3   OH249405   1.014   4.987   3.302  0.2176  0.0943 -0.4083
 9305TIP3    H149406   0.997   5.007   3.210 -1.3429 -1.6061 -0.5509
 9305TIP3    H249407   1.028   4.892   3.304  2.6785  0.4054  0.8149
 9306TIP3   OH249408   1.216   4.954   2.802 -0.2604  0.1419 -0.0741
 9306TIP3    H149409   1.121   4.959   2.791 -0.3877 -2.2392 -0.5896
 9306TIP3    H249410   1.251   4.961   2.713 -0.1360 -1.2500 -0.1571
 9307TIP3   OH249411   3.328   0.516   0.620 -0.7982 -0.2229  0.1179
 9307TIP3    H149412   3.377   0.465   0.555 -0.9488  0.9151 -0.9265
 9307TIP3    H249413   3.281   0.581   0.569 -1.3777  0.3496  1.3366
 9308TIP3   OH249414   4.368   3.099   4.385 -0.4873 -0.0389  0.0952
 9308TIP3    H149415   4.366   3.044   4.464 -3.3342  0.0603  0.1904
 9308TIP3    H249416   4.433   3.057   4.329 -0.5648 -1.8948  1.2965
 9309TIP3   OH249417   5.917   4.568  16.505 -0.1137  0.2268 -0.1168
 9309TIP3    H149418   5.826   4.561  16.536  0.1581  0.1163  0.6640
 9309TIP3    H249419   5.921   4.507  16.431 -0.0977 -1.4547  1.2197
 9310TIP3   OH249420   4.111   1.388   3.650 -0.0231  0.1236  0.3446
 9310TIP3    H149421   4.078   1.308   3.609 -0.0718  0.3940 -0.1541
 9310TIP3    H249422   4.037   1.448   3.649 -0.2949 -0.1634  1.6600
 9311TIP3   OH249423   0.200   5.968   5.113  0.1496 -0.5626 -0.5835
 9311TIP3    H149424   0.109   5.941   5.125  0.3150 -1.5341 -1.3041
 9311TIP3    H249425   0.251   5.896   5.151  0.6160  0.0763  0.0090
 9312TIP3   OH249426   3.968   4.967  13.549 -0.1990  0.0332 -0.0819
 9312TIP3    H149427   4.023   4.891  13.567 -0.7335  0.3725  4.0814
 9312TIP3    H249428   3.898   4.962  13.614 -1.4911  2.9738 -1.0507
 9313TIP3   OH249429   6.842   5.548   0.198  0.4970  0.4231  0.1204
 9313TIP3    H149430   6.868   5.574   0.110  1.9038  0.2917  0.4760
 9313TIP3    H249431   6.907   5.589   0.255 -0.8791  1.2131  1.1821
 9314TIP3   OH249432   4.331   4.817  14.069 -0.6752 -0.6117  0.2225
 9314TIP3    H149433   4.408   4.788  14.019 -1.0579 -1.0185 -0.1437
 9314TIP3    H249434   4.347   4.910  14.086 -0.3054 -0.5867 -0.2345
 9315TIP3   OH249435   5.999   4.839  16.746 -0.2536 -0.0776 -0.3750
 9315TIP3    H149436   6.092   4.815  16.747 -0.1159  0.4178 -0.6787
 9315TIP3    H249437   5.961   4.792  16.820 -0.0910 -1.5181 -1.1669
 9316TIP3   OH249438   0.107   1.129   2.481 -0.0149  0.0503  0.3907
 9316TIP3    H149439   0.019   1.167   2.484 -0.0785  0.1036 -1.3136
 9316TIP3    H249440   0.136   1.131   2.572 -2.3854 -1.4133  1.2948
 9317TIP3   OH249441   1.853   5.292  14.742  0.1303 -0.2544 -0.1042
 9317TIP3    H149442   1.811   5.279  14.657 -1.0785 -0.7936  0.5435
 9317TIP3    H249443   1.866   5.203  14.776  1.2381 -0.0704 -0.0087
 9318TIP3   OH249444   1.544   4.981   2.830 -0.0753  0.1129 -0.3930
 9318TIP3    H149445   1.457   4.939   2.833 -0.6628  1.3201  0.2858
 9318TIP3    H249446   1.586   4.955   2.912  0.2545 -0.5329 -0.7554
 9319TIP3   OH249447   5.746   4.774  12.911  0.1688  0.3845 -0.4913
 9319TIP3    H149448   5.781   4.808  12.828  0.1321  2.9481  0.4744
 9319TIP3    H249449   5.691   4.844  12.945 -1.5335 -1.4370  0.7351
 9320TIP3   OH249450   1.411   3.313  13.629  0.4089  0.2340 -0.3575
 9320TIP3    H149451   1.454   3.264  13.559 -0.0536  1.1960 -1.3557
 9320TIP3    H249452   1.482   3.340  13.687  0.8493 -0.2712 -0.6601
 9321TIP3   OH249453   3.068   4.326   1.460  0.0399 -0.1659 -0.1618
 9321TIP3    H149454   3.150   4.329   1.412  1.5230 -2.2348  2.0302
 9321TIP3    H249455   3.054   4.415   1.491  0.5674  0.5478 -1.8980
 9322TIP3   OH249456   2.376   4.678  12.392 -0.4223 -0.1628  0.6479
 9322TIP3    H149457   2.387   4.649  12.482  0.5374  0.0268  0.6014
 9322TIP3    H249458   2.384   4.598  12.340  1.2597 -0.0070  0.5912
 9323TIP3   OH249459   4.576   5.051   0.962  0.2245  0.2164  0.1787
 9323TIP3    H149460   4.620   4.966   0.956  2.0883  0.9640  2.0253
 9323TIP3    H249461   4.605   5.099   0.884  0.4653 -0.2866 -0.0447
 9324TIP3   OH249462   2.702   2.836   4.915  0.1951  0.3688  0.0419
 9324TIP3    H149463   2.751   2.814   4.836  0.8665  0.5608  0.3940
 9324TIP3    H249464   2.728   2.926   4.935  0.4276  0.1507  0.7608
 9325TIP3   OH249465   1.096   0.596   2.191 -0.2867  0.2718 -0.2833
 9325TIP3    H149466   1.132   0.605   2.279 -0.8065  0.5429 -0.0962
 9325TIP3    H249467   1.038   0.521   2.197  0.0992 -0.0541 -0.5411
 9326TIP3   OH249468   1.495   3.152  11.492 -0.1870  0.2003 -0.2438
 9326TIP3    H149469   1.471   3.067  11.454  0.3119 -0.5048  0.9566
 9326TIP3    H249470   1.590   3.148  11.503  0.0331  1.4662 -1.4174
 9327TIP3   OH249471   0.165   3.318   4.192  0.2978 -0.0356  0.1669
 9327TIP3    H149472   0.116   3.367   4.258  0.6585 -0.3473  0.6735
 9327TIP3    H249473   0.151   3.226   4.216  2.0621 -0.1229  1.0200
 9328TIP3   OH249474   1.179   4.610  11.692  0.0376 -0.1348  0.6192
 9328TIP3    H149475   1.246   4.670  11.659 -0.9410  1.1943  0.9500
 9328TIP3    H249476   1.223   4.558  11.759  0.7667  0.6390  0.7470
 9329TIP3   OH249477   1.197   0.866   5.698  0.4242 -0.1866  0.1458
 9329TIP3    H149478   1.265   0.801   5.715 -0.5788 -0.6090  3.1433
 9329TIP3    H249479   1.128   0.845   5.761 -1.9099  1.0640 -1.8559
 9330TIP3   OH249480   0.492   0.596  15.304  0.3851  0.3078 -0.4989
 9330TIP3    H149481   0.417   0.619  15.250 -0.2483 -1.9243 -0.6601
 9330TIP3    H249482   0.568   0.629  15.255 -0.3401  0.6075 -1.4367
 9331TIP3   OH249483   0.632   6.153   3.431 -0.3755  0.2564 -0.1170
 9331TIP3    H149484   0.706   6.198   3.473 -0.3294 -0.1501  0.2464
 9331TIP3    H249485   0.637   6.179   3.339  1.1662 -0.9915 -0.4310
 9332TIP3   OH249486   2.538   2.730  12.656 -0.3737 -0.1975 -0.1169
 9332TIP3    H149487   2.490   2.708  12.576  0.5377  0.6858 -0.9273
 9332TIP3    H249488   2.512   2.819  12.676  1.2329  0.4845 -0.8468
 9333TIP3   OH249489   5.952   5.126  14.217 -0.6811  0.3299  0.4156
 9333TIP3    H149490   5.930   5.062  14.150  1.0462 -0.3060  0.3925
 9333TIP3    H249491   5.884   5.193  14.210 -1.6809 -0.7523 -0.5683
 9334TIP3   OH249492   5.217   0.611   2.132 -0.1328 -0.2687 -0.3482
 9334TIP3    H149493   5.170   0.536   2.169 -0.5827  0.1304 -0.0995
 9334TIP3    H249494   5.282   0.572   2.074 -0.0994 -0.8704  0.0790
 9335TIP3   OH249495   1.518   2.820   5.653  0.2958 -0.5799  0.2328
 9335TIP3    H149496   1.529   2.874   5.731  0.4104  1.2190 -0.9639
 9335TIP3    H249497   1.596   2.837   5.600  1.1012 -3.1311  0.4217
 9336TIP3   OH249498   6.674   5.155   0.908 -0.1412  0.1661  0.4082
 9336TIP3    H149499   6.685   5.170   0.813 -1.0446 -1.1672  0.0764
 9336TIP3    H249500   6.587   5.116   0.916  0.6673 -1.4994  1.5842
 9337TIP3   OH249501   6.425   2.854   2.249  0.2325  0.4454  0.3274
 9337TIP3    H149502   6.389   2.800   2.179  0.0744  1.5301 -0.4567
 9337TIP3    H249503   6.520   2.847   2.239  0.2168  1.3245 -0.6010
 9338TIP3   OH249504   6.659   6.236  16.031  0.1703 -0.6486  0.2253
 9338TIP3    H149505   6.605   6.251  15.954  1.1244  3.0771  0.0732
 9338TIP3    H249506   6.749   6.253  16.001  0.3786  3.4156  2.4255
 9339TIP3   OH249507   5.616   3.327   3.263  0.0385 -0.2112  0.2920
 9339TIP3    H149508   5.561   3.329   3.341 -0.2892 -1.1152  0.1033
 9339TIP3    H249509   5.587   3.249   3.215  0.2962  0.2795 -0.6872
 9340TIP3   OH249510   0.565   3.463  13.131 -0.2494  0.6243 -0.6869
 9340TIP3    H149511   0.605   3.464  13.217  1.6257 -0.3454 -1.4995
 9340TIP3    H249512   0.625   3.513  13.075  0.3066 -1.4498 -2.0858
 9341TIP3   OH249513   6.667   0.772  12.040 -0.5930  0.5587 -0.0381
 9341TIP3    H149514   6.597   0.809  12.095  0.1375 -0.0864  1.3735
 9341TIP3    H249515   6.711   0.848  12.003 -0.6557  1.0471  0.8558
 9342TIP3   OH249516   1.639   0.045   3.077  0.2900 -0.2494 -0.0885
 9342TIP3    H149517   1.666   0.037   3.169  0.5191 -1.9368 -0.2596
 9342TIP3    H249518   1.574   0.115   3.076  1.5969  1.0365  1.0498
 9343TIP3   OH249519   0.366   4.377  15.076  0.6908 -0.3391  0.5282
 9343TIP3    H149520   0.361   4.328  15.158 -0.3707 -0.3462  0.4689
 9343TIP3    H249521   0.368   4.469  15.103  4.4534 -0.3276  0.7339
 9344TIP3   OH249522   2.321   5.997  16.813  0.0208  0.3043  0.1667
 9344TIP3    H149523   2.382   6.055  16.858 -1.9136  1.4517  1.4589
 9344TIP3    H249524   2.239   6.006  16.861 -0.9036 -2.0422 -0.7960
 9345TIP3   OH249525   1.692   5.931  15.450  0.0895  0.5717 -0.3679
 9345TIP3    H149526   1.630   5.890  15.390 -0.5922  0.1206  0.6156
 9345TIP3    H249527   1.652   6.015  15.471  0.1372  0.5636 -0.2458
 9346TIP3   OH249528   2.795   1.444  16.565 -0.2028 -0.4939  0.3514
 9346TIP3    H149529   2.862   1.505  16.536 -0.0413 -0.6202  0.4594
 9346TIP3    H249530   2.759   1.484  16.644  1.1480 -1.4085  1.4658
 9347TIP3   OH249531   4.771   3.967   3.129 -0.2113  0.0312  0.3283
 9347TIP3    H149532   4.835   3.949   3.198 -1.0979 -3.0408  0.5371
 9347TIP3    H249533   4.687   3.969   3.175 -0.7518 -1.4489 -0.5176
 9348TIP3   OH249534   3.855   3.947  14.427 -0.7770 -0.2295 -0.4131
 9348TIP3    H149535   3.816   4.007  14.364  0.9979  0.4775 -0.9014
 9348TIP3    H249536   3.815   3.972  14.511 -1.5178  0.3130 -0.9134
 9349TIP3   OH249537   6.352   1.744  12.847 -0.5646  0.0464  1.1330
 9349TIP3    H149538   6.376   1.837  12.843  0.8506 -0.3026  1.2730
 9349TIP3    H249539   6.269   1.744  12.895  0.0472  1.1351  2.2504
 9350TIP3   OH249540   1.027   1.363   4.486  0.4473 -0.1443 -0.1760
 9350TIP3    H149541   1.021   1.417   4.565 -2.3321 -0.7431  0.1075
 9350TIP3    H249542   1.110   1.317   4.495  0.5153  0.3036  2.0746
 9351TIP3   OH249543   2.321   5.906  11.283  0.2657  0.2117  0.3257
 9351TIP3    H149544   2.325   5.860  11.199  0.5544  1.1935 -0.2119
 9351TIP3    H249545   2.304   5.997  11.260  1.1342  0.6411  1.2860
 9352TIP3   OH249546   0.759   6.263  10.568 -0.0492 -0.2208  0.2962
 9352TIP3    H149547   0.823   6.326  10.533 -0.8365  1.5929  1.9528
 9352TIP3    H249548   0.675   6.309  10.565 -0.9371 -1.7745  0.1556
 9353TIP3   OH249549   5.334   1.817  15.662 -0.6213  0.1049  0.0232
 9353TIP3    H149550   5.328   1.912  15.655 -1.0017 -0.0294 -2.1267
 9353TIP3    H249551   5.405   1.792  15.603  0.0685 -0.8953  1.2257
 9354TIP3   OH249552   4.584   1.202  14.155 -0.1685  0.5131  0.2236
 9354TIP3    H149553   4.529   1.215  14.077 -0.8226 -1.6030  0.2506
 9354TIP3    H249554   4.523   1.209  14.229 -0.0775 -0.0291  0.3590
 9355TIP3   OH249555   5.836   5.512  12.023  0.0353  0.5057  0.0557
 9355TIP3    H149556   5.863   5.512  11.931 -0.7700  0.7021 -0.1838
 9355TIP3    H249557   5.869   5.596  12.057 -0.2209  0.7164 -0.2165
 9356TIP3   OH249558   4.684   4.606  11.540  0.1797 -0.0657  0.3254
 9356TIP3    H149559   4.622   4.548  11.584  1.3694 -1.0618  0.7541
 9356TIP3    H249560   4.692   4.569  11.452 -1.1504  1.1124 -0.3199
 9357TIP3   OH249561   5.611   3.730  12.924 -0.1735 -0.0564 -0.3100
 9357TIP3    H149562   5.677   3.773  12.869 -0.2737 -0.8328 -1.0489
 9357TIP3    H249563   5.562   3.675  12.864  0.4783 -1.8578  0.7434
 9358TIP3   OH249564   6.226   1.397   4.652 -0.7173  0.6411  0.3648
 9358TIP3    H149565   6.173   1.320   4.631  0.0073 -0.1375  1.2821
 9358TIP3    H249566   6.257   1.381   4.742  1.2289  0.9581 -0.2049
 9359TIP3   OH249567   1.821   0.394   0.139  0.1267  0.4568  0.2231
 9359TIP3    H149568   1.898   0.392   0.196  0.6487  0.9202 -0.4476
 9359TIP3    H249569   1.753   0.436   0.192  0.3237  0.0337  0.8238
 9360TIP3   OH249570   3.200   0.021   5.218  0.3582  0.1753  0.4652
 9360TIP3    H149571   3.229  -0.069   5.201  0.5222  0.5943 -1.6423
 9360TIP3    H249572   3.105   0.018   5.210  0.3076  0.0884  1.0228
 9361TIP3   OH249573   2.324   5.151  11.776  0.4169  0.0780  0.5335
 9361TIP3    H149574   2.231   5.172  11.765  0.8032  1.8548  0.4408
 9361TIP3    H249575   2.334   5.067  11.731 -0.9185  0.4126 -0.4754
 9362TIP3   OH249576   2.390   4.083   2.430  0.5131  0.7143  0.5474
 9362TIP3    H149577   2.422   4.129   2.353  3.9131 -1.9546  0.1095
 9362TIP3    H249578   2.411   4.141   2.503  1.1751  1.4980 -0.2420
 9363TIP3   OH249579   4.962   2.372   1.979 -0.5724 -0.0496  0.0312
 9363TIP3    H149580   4.876   2.413   1.989 -1.1021 -1.0600 -0.1910
 9363TIP3    H249581   4.944   2.292   1.929  0.1138 -1.5391  2.0296
 9364TIP3   OH249582   5.869   2.795  16.477  0.0374 -0.8250  0.5609
 9364TIP3    H149583   5.921   2.849  16.536  0.8849  0.4882 -1.2857
 9364TIP3    H249584   5.791   2.848  16.458  0.5569 -0.4733 -0.7345
 9365TIP3   OH249585   1.835   0.243   2.747  0.3447  0.7020 -0.8857
 9365TIP3    H149586   1.758   0.270   2.698 -0.8959  0.4793  0.8434
 9365TIP3    H249587   1.810   0.160   2.787  2.0401 -0.1434 -1.4812
 9366TIP3   OH249588   4.768   2.360  11.217  0.2247  0.3688 -0.0323
 9366TIP3    H149589   4.721   2.343  11.135 -0.4860  0.1463  0.4104
 9366TIP3    H249590   4.860   2.361  11.192  0.2388 -2.3541 -0.4487
 9367TIP3   OH249591   0.894   2.511  15.803 -0.3962  0.0451  0.4483
 9367TIP3    H149592   0.843   2.454  15.861 -0.3482  1.2963  1.7928
 9367TIP3    H249593   0.984   2.479  15.811 -0.3894  0.2137  1.0972
 9368TIP3   OH249594   2.299   2.456  13.729  0.0985 -0.2152 -0.2198
 9368TIP3    H149595   2.265   2.369  13.708 -0.2774  0.2412 -1.5908
 9368TIP3    H249596   2.389   2.440  13.758  0.2246 -1.0214 -1.0073
 9369TIP3   OH249597   4.361   6.145   5.234 -0.4390  0.1247 -0.1605
 9369TIP3    H149598   4.391   6.204   5.303  0.2962 -0.4058 -0.0215
 9369TIP3    H249599   4.440   6.119   5.188 -1.1033  2.7064 -3.0907
 9370TIP3   OH249600   0.454   1.071   4.575  0.5489  0.1608 -0.4707
 9370TIP3    H149601   0.396   1.147   4.586 -0.0564 -0.1451 -1.4838
 9370TIP3    H249602   0.428   1.011   4.645  1.2688  1.0107  0.5620
 9371TIP3   OH249603   2.869   3.966  11.457 -0.2107  0.1385  0.1288
 9371TIP3    H149604   2.946   3.985  11.402 -0.1295 -2.9397 -0.9966
 9371TIP3    H249605   2.838   4.053  11.484  2.7111  1.5854 -0.6366
 9372TIP3   OH249606   5.040   4.367   0.835  0.0712 -0.1231  0.3972
 9372TIP3    H149607   4.998   4.371   0.921 -2.0239 -0.1796 -0.5706
 9372TIP3    H249608   5.061   4.458   0.815 -1.0690  0.1075  0.2119
 9373TIP3   OH249609   0.470   2.079  15.147 -0.6031  0.2034  0.2475
 9373TIP3    H149610   0.490   1.991  15.115 -0.6075  0.4689 -0.4981
 9373TIP3    H249611   0.437   2.065  15.236  0.6327 -0.4480  0.6368
 9374TIP3   OH249612   1.789   0.438  11.523  0.5117 -0.5683  0.3099
 9374TIP3    H149613   1.741   0.418  11.604 -1.5485  1.7024 -0.2470
 9374TIP3    H249614   1.758   0.372  11.460 -0.6673 -0.1499  0.4225
 9375TIP3   OH249615   5.251   6.246   1.732  0.0451  0.7231  0.3576
 9375TIP3    H149616   5.259   6.228   1.639 -0.9032 -1.6819  0.6669
 9375TIP3    H249617   5.206   6.330   1.737  1.1682  1.4730 -1.3021
 9376TIP3   OH249618   5.710   4.387   3.517 -0.7476 -0.4560  0.5061
 9376TIP3    H149619   5.740   4.473   3.546  0.3710 -0.0315 -1.7137
 9376TIP3    H249620   5.660   4.404   3.437 -0.0798 -1.8795 -0.2568
 9377TIP3   OH249621   4.460   6.634   5.106 -0.0613  0.1123 -0.6094
 9377TIP3    H149622   4.483   6.666   5.018  2.7556  0.0366  0.0357
 9377TIP3    H249623   4.497   6.699   5.166 -0.7636 -0.5583  0.5880
 9378TIP3   OH249624   6.667   1.580  15.619 -0.3976  0.2875 -1.0948
 9378TIP3    H149625   6.673   1.553  15.527  2.3353 -2.1021 -0.3673
 9378TIP3    H249626   6.588   1.538  15.652  0.6440 -2.1437 -1.4836
 9379TIP3   OH249627   4.667   3.255   2.767 -0.2444  0.0086 -0.1916
 9379TIP3    H149628   4.578   3.240   2.798  0.1587  0.5443  1.3111
 9379TIP3    H249629   4.699   3.168   2.743 -0.5131 -0.4628  1.1178
 9380TIP3   OH249630   4.161   1.158  14.810 -0.0280  0.0548  0.2013
 9380TIP3    H149631   4.231   1.132  14.751 -1.3376 -0.3874 -1.2115
 9380TIP3    H249632   4.088   1.101  14.788 -0.9139  0.6248  1.5140
 9381TIP3   OH249633   3.077   3.347  15.906 -0.3038 -0.3984  0.2606
 9381TIP3    H149634   3.015   3.410  15.943 -0.5932  0.7500 -1.9835
 9381TIP3    H249635   3.138   3.328  15.976 -0.4723  2.0656  1.1568
 9382TIP3   OH249636   0.550   3.568  13.620 -0.1127 -0.1810 -0.3962
 9382TIP3    H149637   0.487   3.510  13.663 -0.4549  0.6946  0.3200
 9382TIP3    H249638   0.580   3.626  13.690 -0.2076  0.8669 -1.1988
 9383TIP3   OH249639   3.247   3.541  15.693 -0.1168  0.0386 -0.0259
 9383TIP3    H149640   3.278   3.510  15.778 -0.4862  1.4185  0.6382
 9383TIP3    H249641   3.320   3.590  15.657  0.0131 -0.4827 -0.4915
 9384TIP3   OH249642   0.903   4.621   2.246  0.1037 -0.1685 -0.0172
 9384TIP3    H149643   0.827   4.666   2.284 -0.4190  1.3014 -2.5823
 9384TIP3    H249644   0.865   4.551   2.193  0.7180 -0.9761  0.5779
 9385TIP3   OH249645   6.534   6.681  12.537 -0.3652 -0.1599  0.3865
 9385TIP3    H149646   6.466   6.615  12.530  0.2690 -1.0367  1.9158
 9385TIP3    H249647   6.486   6.764  12.547 -1.1635 -0.4146 -1.1066
 9386TIP3   OH249648   2.021   4.760  11.586 -0.4828 -0.7751 -0.2926
 9386TIP3    H149649   2.112   4.728  11.585  0.4332  1.5986 -0.5986
 9386TIP3    H249650   2.010   4.799  11.673 -1.6606 -2.1318  0.1958
 9387TIP3   OH249651   6.088   6.246  16.817 -0.4265  0.3369 -0.0517
 9387TIP3    H149652   6.098   6.153  16.839  0.4368  0.6393  0.9456
 9387TIP3    H249653   6.085   6.248  16.722  0.7057 -0.6196 -0.1313
 9388TIP3   OH249654   4.959   5.409  14.713  0.1554 -0.1598  0.2380
 9388TIP3    H149655   5.007   5.478  14.758 -1.0016  0.9834 -0.2011
 9388TIP3    H249656   4.868   5.422  14.740  0.0304 -2.1016  0.8530
 9389TIP3   OH249657   0.780   2.604   3.738  0.8382  0.1349  0.0908
 9389TIP3    H149658   0.840   2.553   3.793  0.6835  1.6634  1.7781
 9389TIP3    H249659   0.693   2.578   3.766  0.6939  3.0985  2.9574
 9390TIP3   OH249660   5.983   4.982  11.157 -0.0316  0.0730 -0.4263
 9390TIP3    H149661   6.026   4.909  11.112  0.1364 -0.8588  1.2047
 9390TIP3    H249662   5.891   4.955  11.165  0.6477 -1.7011  3.3590
 9391TIP3   OH249663   0.629   4.804   3.806  0.0004 -0.3074  1.0702
 9391TIP3    H149664   0.556   4.807   3.744  1.5486 -0.0467 -0.8864
 9391TIP3    H249665   0.598   4.750   3.878 -1.7530 -1.1033 -0.2069
 9392TIP3   OH249666   1.892   0.233  13.682  0.0813  0.2183  0.2893
 9392TIP3    H149667   1.957   0.276  13.737 -1.7102  1.0684  1.8464
 9392TIP3    H249668   1.861   0.158  13.734  0.2016 -0.5257 -0.6690
 9393TIP3   OH249669   3.092   1.264  12.593 -1.0166 -0.5206  0.1806
 9393TIP3    H149670   3.038   1.343  12.591 -0.4502 -0.0712  1.4640
 9393TIP3    H249671   3.041   1.199  12.545 -2.3310  0.1112  0.6577
 9394TIP3   OH249672   4.181   5.685  11.651  0.0220  0.1227 -0.3291
 9394TIP3    H149673   4.229   5.685  11.734 -0.8046  0.8508  0.1732
 9394TIP3    H249674   4.107   5.626  11.668  0.3935 -0.5184 -0.8943
 9395TIP3   OH249675   0.949   2.851   5.330  0.9334  0.3789 -0.3302
 9395TIP3    H149676   0.902   2.923   5.287 -1.6539 -1.0205 -0.0800
 9395TIP3    H249677   0.900   2.837   5.411 -0.0093 -2.9585 -1.3304
 9396TIP3   OH249678   3.482   6.720  14.411 -0.0672  0.5890  0.1770
 9396TIP3    H149679   3.474   6.812  14.386  1.2875  0.4057 -1.0642
 9396TIP3    H249680   3.472   6.721  14.507 -0.2753  1.9855  0.1676
 9397TIP3   OH249681   1.733   0.866   1.555  0.4003  0.4681  0.1238
 9397TIP3    H149682   1.662   0.851   1.493  0.9334 -0.1430 -0.3405
 9397TIP3    H249683   1.725   0.795   1.618  1.0726 -0.0504 -0.3687
 9398TIP3   OH249684   3.787   5.532   5.345  0.4244 -0.3524 -0.3206
 9398TIP3    H149685   3.837   5.451   5.334 -3.4529 -2.8713 -1.5211
 9398TIP3    H249686   3.767   5.559   5.255  0.5212  1.2401  0.1141
 9399TIP3   OH249687   1.793   2.734  15.891 -0.1305 -0.0277  0.4548
 9399TIP3    H149688   1.882   2.709  15.916 -0.7702 -2.0506  0.8789
 9399TIP3    H249689   1.737   2.666  15.927 -1.9002  1.2666  0.3155
 9400TIP3   OH249690   2.473   2.262   6.156 -0.2598 -0.8326 -0.3739
 9400TIP3    H149691   2.562   2.264   6.122 -0.2134  0.7129 -0.2581
 9400TIP3    H249692   2.482   2.227   6.245  0.4947  0.7223  0.2126
 9401TIP3   OH249693   2.822   4.996   5.571  0.6540 -0.0523 -0.1426
 9401TIP3    H149694   2.827   5.090   5.549  0.0737 -0.4677 -2.2387
 9401TIP3    H249695   2.737   4.968   5.538  0.8028 -1.3150  0.5053
 9402TIP3   OH249696   5.585   3.853  16.203  0.3805  0.0897 -0.6183
 9402TIP3    H149697   5.627   3.809  16.129  0.3768 -0.9952  0.0023
 9402TIP3    H249698   5.656   3.901  16.246  0.9401 -1.3311  0.1335
 9403TIP3   OH249699   0.851   5.280   5.998 -0.3530  0.1267  0.4475
 9403TIP3    H149700   0.843   5.188   6.025 -0.3281 -1.0773 -3.1262
 9403TIP3    H249701   0.900   5.321   6.069 -0.1832 -2.6432  2.0994
 9404TIP3   OH249702   0.995   2.189  13.058  0.0773  0.5117 -0.8706
 9404TIP3    H149703   0.988   2.207  13.151  0.5391  1.2084 -0.9644
 9404TIP3    H249704   0.904   2.185  13.027 -0.1017 -0.6309 -0.2351
 9405TIP3   OH249705   1.716   1.122   0.816  0.4759 -0.1116  0.0255
 9405TIP3    H149706   1.675   1.200   0.855 -1.5434 -0.6841 -0.8527
 9405TIP3    H249707   1.804   1.152   0.792  0.7597  1.0854  2.2383
 9406TIP3   OH249708   0.779   5.296   0.135 -0.4738 -0.2451  0.6232
 9406TIP3    H149709   0.717   5.368   0.150  0.0421  0.5939 -0.9892
 9406TIP3    H249710   0.865   5.338   0.137  0.0923 -1.3804  2.7310
 9407TIP3   OH249711   0.835   4.042  16.983 -0.2198 -0.4695 -0.3314
 9407TIP3    H149712   0.830   4.040  17.079  1.5170  1.0484 -0.1482
 9407TIP3    H249713   0.810   4.132  16.960  3.6942  0.6530 -0.8506
 9408TIP3   OH249714   2.260   4.575   5.340 -0.2933 -0.1356 -0.4298
 9408TIP3    H149715   2.347   4.536   5.336 -0.0379  0.2127  1.0582
 9408TIP3    H249716   2.201   4.500   5.348 -0.1111 -0.3652 -1.2282
 9409TIP3   OH249717   4.178   6.327  15.698 -0.2976 -0.6489  0.1868
 9409TIP3    H149718   4.137   6.261  15.753  0.8879 -0.5945  1.1866
 9409TIP3    H249719   4.271   6.304  15.698  0.5598  2.2305  2.4300
 9410TIP3   OH249720   3.385   4.872   1.545  0.3932 -0.2445  0.1212
 9410TIP3    H149721   3.470   4.844   1.510 -0.2741 -1.8474 -0.3046
 9410TIP3    H249722   3.324   4.806   1.514 -0.8764  0.4029  1.1637
 9411TIP3   OH249723   1.694   6.172  16.183 -0.1879 -0.6177  0.0931
 9411TIP3    H149724   1.704   6.083  16.214  0.7634  0.2231  2.3544
 9411TIP3    H249725   1.603   6.194  16.202  0.0030 -0.5892  0.9840
 9412TIP3   OH249726   1.393   1.107   2.122  0.0871 -0.2066  0.3004
 9412TIP3    H149727   1.359   1.018   2.137 -0.0924 -0.0002  1.1729
 9412TIP3    H249728   1.352   1.160   2.191  0.6076  0.4506  0.1103
 9413TIP3   OH249729   6.317   0.547  14.274  0.1628  0.2150  0.0629
 9413TIP3    H149730   6.293   0.472  14.329  1.1804 -1.2380 -1.3845
 9413TIP3    H249731   6.412   0.554  14.284  0.0934  1.2770  0.0959
 9414TIP3   OH249732   3.794   3.704  11.080  0.2527 -0.2740  0.2370
 9414TIP3    H149733   3.711   3.662  11.102  0.1067  0.9938  2.4509
 9414TIP3    H249734   3.769   3.786  11.037  0.3245  0.1354  0.9561
 9415TIP3   OH249735   0.774   2.202  13.529 -0.3787  0.1474  0.1573
 9415TIP3    H149736   0.819   2.209  13.444  1.1703 -0.0646  0.9314
 9415TIP3    H249737   0.834   2.242  13.591 -1.7094  0.7290  1.1120
 9416TIP3   OH249738   4.454   4.683   3.672  0.0460 -0.0073 -0.2742
 9416TIP3    H149739   4.399   4.642   3.605  1.6540  1.0196 -2.3427
 9416TIP3    H249740   4.521   4.617   3.691  0.8199  0.4591 -1.2946
 9417TIP3   OH249741   0.011   6.700  10.625 -0.5342  0.2170  0.1412
 9417TIP3    H149742   0.101   6.683  10.652  0.0730 -0.7741 -2.2295
 9417TIP3    H249743  -0.026   6.613  10.608 -2.1945  0.5591  1.6940
 9418TIP3   OH249744   0.895   6.843  16.040  0.9257  0.1121  0.2062
 9418TIP3    H149745   0.857   6.758  16.062 -0.6586 -0.0101 -2.5532
 9418TIP3    H249746   0.855   6.903  16.103 -1.0251 -0.6161 -0.2524
 9419TIP3   OH249747   3.917   4.922   2.015 -0.0756  0.1397  0.0380
 9419TIP3    H149748   3.930   5.016   2.026 -0.5824  0.4707 -1.7965
 9419TIP3    H249749   4.006   4.886   2.015  0.1526  0.6888  0.3012
 9420TIP3   OH249750   1.264   3.855  11.137  0.0893  0.2992 -0.3955
 9420TIP3    H149751   1.348   3.876  11.177  0.0217 -0.7571  0.3666
 9420TIP3    H249752   1.222   3.940  11.123  2.1301  1.0107 -2.8294
 9421TIP3   OH249753   1.481   6.516   4.263 -0.9138 -0.3348  0.2862
 9421TIP3    H149754   1.573   6.541   4.278 -1.7196  2.3437  1.3952
 9421TIP3    H249755   1.439   6.527   4.349 -2.0088 -3.2338  0.2395
 9422TIP3   OH249756   1.899   4.239  16.855 -0.6485  0.1001  0.1322
 9422TIP3    H149757   1.823   4.296  16.843 -2.7908 -2.3916  0.9387
 9422TIP3    H249758   1.917   4.244  16.949 -0.9019 -0.5668  0.2213
 9423TIP3   OH249759   1.586   2.398   0.626  1.0128 -0.3188 -0.0930
 9423TIP3    H149760   1.577   2.476   0.571  1.5611 -1.1321 -1.3829
 9423TIP3    H249761   1.503   2.391   0.673  1.2468  1.4782  0.6646
 9424TIP3   OH249762   4.501   5.017   5.817  0.0598  0.1769  0.2059
 9424TIP3    H149763   4.449   4.946   5.855 -0.3522 -0.0584 -0.7831
 9424TIP3    H249764   4.510   5.080   5.888 -0.8654 -0.1657  0.6468
 9425TIP3   OH249765   3.678   5.356  17.093  0.0661  0.2984 -0.4432
 9425TIP3    H149766   3.762   5.325  17.128  0.6155  1.1529 -0.9653
 9425TIP3    H249767   3.700   5.393  17.007 -0.8810  0.3679 -0.6695
 9426TIP3   OH249768   0.214   3.661  14.758  0.0833  0.1372 -0.2355
 9426TIP3    H149769   0.162   3.581  14.763 -0.0248  0.2662  0.8073
 9426TIP3    H249770   0.303   3.633  14.782  0.7791 -0.2846 -2.9495
 9427TIP3   OH249771   3.898   4.899  14.582  0.5722 -0.0371 -0.2470
 9427TIP3    H149772   3.935   4.941  14.660 -0.4000  0.0388  0.1982
 9427TIP3    H249773   3.837   4.964  14.547 -1.6465 -1.3433  0.9675
 9428TIP3   OH249774   6.528   4.356   6.235 -0.1202 -0.1815  0.0276
 9428TIP3    H149775   6.546   4.337   6.327 -0.0756 -2.8715 -0.4527
 9428TIP3    H249776   6.439   4.322   6.221  0.4781 -1.2968 -1.2597
 9429TIP3   OH249777   3.758   2.013  13.572 -0.0369  0.5395  0.3119
 9429TIP3    H149778   3.839   1.963  13.578  0.5558  1.4598 -0.0147
 9429TIP3    H249779   3.785   2.102  13.551 -1.2267  0.4807 -1.7345
 9430TIP3   OH249780   3.209   4.607   4.642 -0.2390 -0.2369  0.9487
 9430TIP3    H149781   3.218   4.651   4.557  1.3189  0.3200  1.3785
 9430TIP3    H249782   3.246   4.520   4.628 -0.3975 -0.3048  0.9466
 9431TIP3   OH249783   5.470   2.196   3.718  0.6450 -0.0142  0.1091
 9431TIP3    H149784   5.518   2.246   3.785  0.2610 -2.0681  2.0650
 9431TIP3    H249785   5.536   2.138   3.680  0.6989  0.6054 -0.7476
 9432TIP3   OH249786   1.770   4.172  13.209 -0.3705  0.5878  0.8046
 9432TIP3    H149787   1.706   4.104  13.189  0.7801 -0.8663  1.8289
 9432TIP3    H249788   1.850   4.145  13.163  0.3707  0.7464  1.9462
 9433TIP3   OH249789   4.355   5.620   2.867 -0.1483  0.6580  0.4719
 9433TIP3    H149790   4.414   5.545   2.869  1.5513  1.9078 -0.5464
 9433TIP3    H249791   4.402   5.689   2.914 -2.6792  0.5048  3.5870
 9434TIP3   OH249792   6.659   6.274   2.395  0.2039 -0.0157 -0.5121
 9434TIP3    H149793   6.748   6.256   2.364  1.0586  0.3271  1.5843
 9434TIP3    H249794   6.627   6.343   2.335  0.9435 -0.8206 -1.8902
 9435TIP3   OH249795   4.206   3.389   0.268  0.4303  0.4424  0.0783
 9435TIP3    H149796   4.287   3.362   0.311  0.0047 -1.5509 -0.2889
 9435TIP3    H249797   4.234   3.446   0.196  2.0057 -3.3202 -2.6102
 9436TIP3   OH249798   4.715   2.709  11.495 -0.2424 -0.5279 -0.1543
 9436TIP3    H149799   4.692   2.646  11.564 -1.6891  0.0105 -0.1150
 9436TIP3    H249800   4.798   2.746  11.523  0.5057 -2.1897 -0.0258
 9437TIP3   OH249801   1.598   4.255  14.361 -0.2265 -0.0325 -0.4182
 9437TIP3    H149802   1.637   4.302  14.288 -0.6438  1.0010  0.0034
 9437TIP3    H249803   1.557   4.323  14.414 -0.1952 -0.7955  0.6171
 9438TIP3   OH249804   1.196   1.564  10.964  0.6850  0.2923  0.6042
 9438TIP3    H149805   1.279   1.541  11.005  0.6623  0.7536  0.9149
 9438TIP3    H249806   1.195   1.660  10.962 -0.3349  0.3204  1.6483
 9439TIP3   OH249807   4.516   3.285   1.066 -0.2500  0.1054  0.1714
 9439TIP3    H149808   4.558   3.365   1.034 -0.7550  0.4413  0.3283
 9439TIP3    H249809   4.428   3.287   1.028 -0.0897 -0.6595 -0.2701
 9440TIP3   OH249810   4.829   5.410   0.003  0.4162 -0.7474 -0.2466
 9440TIP3    H149811   4.796   5.351  -0.065 -0.8540 -0.8039  0.3899
 9440TIP3    H249812   4.924   5.399   0.001  0.2171 -2.8404 -0.1408
 9441TIP3   OH249813   0.399   0.590  12.509 -0.0635 -0.4135 -0.5158
 9441TIP3    H149814   0.425   0.601  12.417 -0.0001  0.7953 -0.3734
 9441TIP3    H249815   0.337   0.661  12.524  0.3669 -0.2518  0.5367
 9442TIP3   OH249816   0.926   0.140  14.429 -0.8125  0.0943 -0.3602
 9442TIP3    H149817   0.984   0.186  14.491 -0.9680 -0.8871  0.5403
 9442TIP3    H249818   0.892   0.210  14.372  0.2105  0.8665 -0.0603
 9443TIP3   OH249819   2.034   1.200   5.354 -0.1239 -0.2456  0.2853
 9443TIP3    H149820   2.085   1.162   5.426  1.1531  0.6562 -0.1125
 9443TIP3    H249821   1.998   1.281   5.390  0.0421 -0.0781  0.0679
 9444TIP3   OH249822   3.012   6.400   1.683  0.5059  0.4364 -0.0016
 9444TIP3    H149823   3.063   6.388   1.602 -0.6220 -0.0887 -0.6582
 9444TIP3    H249824   2.942   6.460   1.659 -0.1884 -0.1908  0.4246
 9445TIP3   OH249825   4.145   4.606  12.623 -0.0228 -0.0176 -0.1727
 9445TIP3    H149826   4.106   4.522  12.598  0.0425 -0.3367  0.7683
 9445TIP3    H249827   4.233   4.603  12.585  0.0948 -0.5152  0.1268
 9446TIP3   OH249828   3.596   3.869  16.359 -0.9519 -0.2553 -0.5760
 9446TIP3    H149829   3.614   3.952  16.402 -0.8188 -1.0717  0.9924
 9446TIP3    H249830   3.515   3.884  16.309 -0.8769  0.8250 -0.3826
 9447TIP3   OH249831   6.389   5.241  16.484  1.0635 -0.0765 -0.1386
 9447TIP3    H149832   6.468   5.295  16.490  0.8029  0.4376 -1.1303
 9447TIP3    H249833   6.343   5.274  16.407  0.3132 -0.9568 -0.0860
 9448TIP3   OH249834   5.846   3.384   1.585 -0.1883  0.7255 -0.6024
 9448TIP3    H149835   5.788   3.327   1.636 -0.3490  2.1000  0.8104
 9448TIP3    H249836   5.812   3.378   1.495  0.0985 -1.7445 -0.6134
 9449TIP3   OH249837   0.487   2.035  16.082 -0.2083 -0.3739 -0.4087
 9449TIP3    H149838   0.496   2.044  15.987  2.5511  0.8561 -0.1182
 9449TIP3    H249839   0.572   2.000  16.111 -0.9773 -0.6999  1.6088
 9450TIP3   OH249840   5.200   1.616   3.254 -0.5050 -0.5973  0.6288
 9450TIP3    H149841   5.258   1.609   3.330  2.6635 -1.7130 -1.6856
 9450TIP3    H249842   5.184   1.525   3.228 -1.2837 -0.2315 -0.2245
 9451TIP3   OH249843   4.255   3.983  11.198 -0.0298 -0.4613 -0.0805
 9451TIP3    H149844   4.237   4.077  11.197  2.3356  0.0393 -0.2488
 9451TIP3    H249845   4.267   3.960  11.106 -0.8031 -1.0149 -0.0600
 9452TIP3   OH249846   0.976   5.827   1.784  0.4276 -0.5635 -0.0033
 9452TIP3    H149847   0.907   5.782   1.735  0.0386  0.7086 -0.6689
 9452TIP3    H249848   1.057   5.798   1.744  0.2298 -1.1767  0.0203
 9453TIP3   OH249849   6.001   0.590   4.071  0.2519 -0.1736 -0.3524
 9453TIP3    H149850   6.035   0.513   4.025 -0.6616 -0.0278 -1.3142
 9453TIP3    H249851   6.076   0.623   4.120  0.1051 -3.0155  2.0403
 9454TIP3   OH249852   4.036   1.786  13.058 -0.0373  0.4754  0.2101
 9454TIP3    H149853   3.957   1.756  13.103 -0.7578 -0.2104 -1.4438
 9454TIP3    H249854   4.006   1.858  13.003  0.5195  0.3020 -0.3265
 9455TIP3   OH249855   5.494   6.060  10.636  0.0946  0.0782 -0.4249
 9455TIP3    H149856   5.521   6.141  10.592  1.0772  0.5274  0.9435
 9455TIP3    H249857   5.408   6.040  10.598 -0.7526  2.4489  0.0697
 9456TIP3   OH249858   3.396   0.657   4.575 -0.5712 -0.2812  0.4545
 9456TIP3    H149859   3.436   0.592   4.517 -2.5632 -0.2014 -1.1177
 9456TIP3    H249860   3.379   0.609   4.656  1.7298 -0.5493  0.8645
 9457TIP3   OH249861   5.082   5.958   3.105  0.1418 -0.3589 -0.2673
 9457TIP3    H149862   5.096   5.935   3.014  1.1025 -3.7026  0.5981
 9457TIP3    H249863   5.167   5.987   3.137  0.0972 -0.3806 -0.1258
 9458TIP3   OH249864   4.845   0.663   1.157  0.2552 -0.1243  0.0700
 9458TIP3    H149865   4.835   0.589   1.097 -0.2703  0.3314 -0.4234
 9458TIP3    H249866   4.939   0.669   1.172  0.3259 -0.7153 -0.1143
 9459TIP3   OH249867   5.349   3.267   1.591  0.3308 -0.4497  0.2297
 9459TIP3    H149868   5.261   3.238   1.565  0.1140 -1.6889  2.1666
 9459TIP3    H249869   5.405   3.238   1.520 -0.6249 -0.9692 -0.3403
 9460TIP3   OH249870   0.705   3.041  13.573 -0.0659 -0.7331  0.2716
 9460TIP3    H149871   0.742   2.961  13.610  0.5375 -0.3583  0.5036
 9460TIP3    H249872   0.720   3.033  13.479  0.6505 -0.5753  0.3652
 9461TIP3   OH249873   4.655   5.055   1.451  0.0132 -0.6355  0.2158
 9461TIP3    H149874   4.582   5.019   1.501  1.7964 -2.5508  1.6015
 9461TIP3    H249875   4.710   5.098   1.516  0.2123  0.6872 -0.7809
 9462TIP3   OH249876   1.008   4.373   4.869  0.5455  0.2544  0.4079
 9462TIP3    H149877   1.002   4.278   4.858  1.7439  0.0082  1.6102
 9462TIP3    H249878   1.071   4.385   4.940 -0.6367  1.9165  1.2424
 9463TIP3   OH249879   5.673   5.009  12.415 -0.0321  0.3398 -0.0197
 9463TIP3    H149880   5.711   4.990  12.501  0.7634  1.9790  0.0260
 9463TIP3    H249881   5.586   5.045  12.434 -0.1636 -0.0236  0.0627
 9464TIP3   OH249882   6.622   1.335   3.902 -0.1898 -0.1578 -0.3886
 9464TIP3    H149883   6.673   1.259   3.929  0.0293  0.0285 -0.2766
 9464TIP3    H249884   6.597   1.315   3.811 -0.5173 -0.5640 -0.2145
 9465TIP3   OH249885   4.914   1.435  15.896 -0.0923  0.1433  0.5398
 9465TIP3    H149886   4.839   1.376  15.888  0.2249 -0.2475  0.3765
 9465TIP3    H249887   4.881   1.511  15.944 -0.4587 -0.2531  0.9203
 9466TIP3   OH249888   3.544   3.297   4.111  0.2835 -0.2081  0.5316
 9466TIP3    H149889   3.492   3.356   4.057 -0.9139  0.4051  2.2781
 9466TIP3    H249890   3.516   3.314   4.201  0.7845 -2.5726  1.2193
 9467TIP3   OH249891   6.407   1.137   0.045 -0.3965 -0.2327 -0.4693
 9467TIP3    H149892   6.339   1.203   0.035 -0.3776 -0.4418 -2.4495
 9467TIP3    H249893   6.365   1.054   0.021  0.5484 -0.3335 -1.9547
 9468TIP3   OH249894   1.367   0.727  13.262 -0.2085  0.2440 -0.3818
 9468TIP3    H149895   1.377   0.762  13.173  1.3509 -0.4471 -0.5029
 9468TIP3    H249896   1.439   0.765  13.311 -1.4010  1.0832  0.7842
 9469TIP3   OH249897   6.344   6.336   1.148  0.4970  0.2805 -0.0221
 9469TIP3    H149898   6.334   6.346   1.053  1.2847 -2.0436 -0.4201
 9469TIP3    H249899   6.258   6.306   1.178  0.3546  0.6461 -0.0646
 9470TIP3   OH249900   4.073   0.050  10.620  0.4920  0.4729 -0.6965
 9470TIP3    H149901   4.076   0.004  10.704 -0.2321 -0.3841 -1.1251
 9470TIP3    H249902   4.157   0.030  10.579 -0.2963 -1.6073 -1.4368
 9471TIP3   OH249903   2.105   4.227   2.397  0.1414  0.3426  0.6769
 9471TIP3    H149904   2.117   4.240   2.303  0.0814 -1.0449  0.4640
 9471TIP3    H249905   2.180   4.271   2.437 -0.4332  1.9394  0.0743
 9472TIP3   OH249906   2.944   4.789  16.327 -0.0086 -0.2270 -0.4568
 9472TIP3    H149907   2.999   4.851  16.376  0.3987 -0.9051 -0.0342
 9472TIP3    H249908   3.000   4.760  16.255 -0.0593 -0.3973 -0.4262
 9473TIP3   OH249909   0.293   3.206  15.741 -0.3469 -0.5736  0.6238
 9473TIP3    H149910   0.361   3.161  15.791 -1.2148 -1.8551  0.7045
 9473TIP3    H249911   0.306   3.175  15.651  0.7334  1.1379  0.1500
 9474TIP3   OH249912   6.260   0.282  13.400 -0.3749  0.0121  0.1072
 9474TIP3    H149913   6.300   0.369  13.411 -1.7355  0.8693 -1.3035
 9474TIP3    H249914   6.176   0.289  13.444 -0.9345 -0.2331 -0.8921
 9475TIP3   OH249915   3.258   3.795  14.166 -0.6601  0.3338 -0.2324
 9475TIP3    H149916   3.193   3.865  14.153  0.4703  1.6236  0.7072
 9475TIP3    H249917   3.210   3.724  14.208 -1.8176  0.5831 -1.0974
 9476TIP3   OH249918   4.832   0.881   2.427 -0.0002  0.2977 -0.1223
 9476TIP3    H149919   4.902   0.877   2.493 -1.4747 -0.4341  1.4805
 9476TIP3    H249920   4.768   0.942   2.463 -2.0354 -1.9968  0.4345
 9477TIP3   OH249921   4.555   3.259  16.258  0.2070  0.8966  0.1387
 9477TIP3    H149922   4.559   3.170  16.295  0.3188  0.6868 -0.3684
 9477TIP3    H249923   4.605   3.313  16.319  0.1082  0.6166  0.4696
 9478TIP3   OH249924   1.848   5.380  16.808 -0.7706  0.1244  0.1080
 9478TIP3    H149925   1.940   5.371  16.780 -1.4082 -0.8293 -1.8726
 9478TIP3    H249926   1.803   5.309  16.763 -2.2287 -0.5606  2.4854
 9479TIP3   OH249927   2.340   6.430   2.828  0.1025  1.0484 -0.5101
 9479TIP3    H149928   2.372   6.518   2.850 -1.1921  1.1395  1.1696
 9479TIP3    H249929   2.246   6.435   2.839 -0.2091 -0.1001 -2.2101
 9480TIP3   OH249930   1.104   4.968  16.474  0.0362  0.3127  0.1084
 9480TIP3    H149931   1.085   4.976  16.381  0.5858  0.9630  0.0450
 9480TIP3    H249932   1.198   4.953  16.479  0.0004  0.2015  0.5575
 9481TIP3   OH249933   5.292   2.009   6.343  0.5590  0.1110  0.5892
 9481TIP3    H149934   5.317   2.075   6.279  2.5231 -0.2482  0.9459
 9481TIP3    H249935   5.320   1.926   6.304 -1.1582 -0.4647  0.5002
 9482TIP3   OH249936   3.477   4.432  15.491 -1.0974 -0.1647  0.0316
 9482TIP3    H149937   3.387   4.402  15.476 -1.3008  0.0374  0.7904
 9482TIP3    H249938   3.478   4.523  15.460 -1.2142 -0.0976  0.2249
 9483TIP3   OH249939   1.820   2.851   3.296  0.2700 -0.0895  0.2676
 9483TIP3    H149940   1.871   2.781   3.338 -0.6913 -0.1096  1.4428
 9483TIP3    H249941   1.737   2.810   3.274  0.1317  0.3899 -0.1256
 9484TIP3   OH249942   3.228   4.148   0.990 -0.2355 -0.2137  0.4292
 9484TIP3    H149943   3.296   4.088   0.959  0.6538  1.4125 -0.9458
 9484TIP3    H249944   3.265   4.187   1.069  0.2442  0.3058 -0.0432
 9485TIP3   OH249945   1.263   0.781   0.227  0.5920  0.4299 -0.7266
 9485TIP3    H149946   1.225   0.868   0.231  0.7168  0.4364  1.6662
 9485TIP3    H249947   1.354   0.793   0.253  0.7684 -0.3575 -0.9396
 9486TIP3   OH249948   0.818   1.731  10.820 -0.4183 -0.7580 -0.4555
 9486TIP3    H149949   0.894   1.784  10.842 -0.5063 -1.9298  3.4912
 9486TIP3    H249950   0.767   1.785  10.759  1.0213  2.2527  0.8071
 9487TIP3   OH249951   3.671   4.709  11.415 -0.2247 -0.0500 -0.6534
 9487TIP3    H149952   3.627   4.794  11.405  0.2354  0.0187 -2.3130
 9487TIP3    H249953   3.604   4.645  11.391 -0.6586 -0.2104  0.8673
 9488TIP3   OH249954   5.199   1.531   5.987  0.0975  0.0965  0.2930
 9488TIP3    H149955   5.290   1.553   6.004 -0.4188  2.8791 -0.1005
 9488TIP3    H249956   5.163   1.510   6.073  1.3197 -2.2529  0.3040
 9489TIP3   OH249957   1.929   0.179  10.932  0.0072 -0.3079  0.5951
 9489TIP3    H149958   2.005   0.130  10.900  0.0848  0.5826 -0.6445
 9489TIP3    H249959   1.861   0.112  10.945  1.1054 -1.2026  2.2363
 9490TIP3   OH249960   2.334   6.781  13.161 -0.3225 -0.5236  0.3737
 9490TIP3    H149961   2.273   6.843  13.200 -0.3609 -1.3049  1.5882
 9490TIP3    H249962   2.392   6.755  13.233  0.9248 -0.4289 -0.5622
 9491TIP3   OH249963   6.346   6.078  13.647  0.0849 -0.1721 -0.0861
 9491TIP3    H149964   6.402   6.144  13.689  1.6587 -1.4366 -0.0784
 9491TIP3    H249965   6.377   5.994  13.683 -0.8141 -1.0271 -1.2330
 9492TIP3   OH249966   0.967   0.927   5.550  0.2334 -0.5863  0.2649
 9492TIP3    H149967   0.977   1.016   5.515 -1.5905  0.7792  2.9149
 9492TIP3    H249968   1.055   0.904   5.581  0.5366  0.6785  0.3899
 9493TIP3   OH249969   4.787   0.905  11.543  0.1169 -0.5343 -0.3493
 9493TIP3    H149970   4.720   0.974  11.544 -0.5398 -1.1518  0.1229
 9493TIP3    H249971   4.789   0.874  11.453 -0.5492 -0.7867 -0.2869
 9494TIP3   OH249972   1.385   3.741   2.797  0.0949 -0.0041  0.1831
 9494TIP3    H149973   1.423   3.680   2.861  0.2977  0.5387  0.5922
 9494TIP3    H249974   1.459   3.795   2.770 -0.0718  0.0183 -0.2267
 9495TIP3   OH249975   3.606   6.722   2.316  0.6954  0.3062  0.4688
 9495TIP3    H149976   3.528   6.695   2.268  0.7384  0.0485  0.5444
 9495TIP3    H249977   3.601   6.675   2.399 -0.6458  2.5565  1.7719
 9496TIP3   OH249978   2.839   1.946   0.969  0.2210  0.4553  0.1662
 9496TIP3    H149979   2.906   1.883   0.943  2.1390  1.3778  2.4861
 9496TIP3    H249980   2.829   1.933   1.063 -0.2411  2.7419  0.4939
 9497TIP3   OH249981   0.771   4.177   2.187 -0.3260 -0.2272  0.4284
 9497TIP3    H149982   0.711   4.133   2.248 -0.5821 -0.4327  0.0338
 9497TIP3    H249983   0.817   4.105   2.144 -0.0800 -0.0784  0.4426
 9498TIP3   OH249984   0.909   0.392   0.427  0.0364 -0.2836 -0.1089
 9498TIP3    H149985   0.960   0.452   0.372 -0.1401  0.4914  0.5409
 9498TIP3    H249986   0.944   0.305   0.407  0.4837  0.0582 -0.8789
 9499TIP3   OH249987   2.243   6.490  17.092  0.6408  0.0435  0.1042
 9499TIP3    H149988   2.216   6.581  17.092  1.5526  0.3817 -2.2883
 9499TIP3    H249989   2.339   6.493  17.096  0.6875 -0.7857 -0.1493
 9500TIP3   OH249990   5.741   4.466   3.872 -0.8075 -0.2009 -0.8130
 9500TIP3    H149991   5.830   4.434   3.878 -0.8660 -0.3835 -0.9246
 9500TIP3    H249992   5.745   4.537   3.807 -0.2813  1.4115  0.8896
 9501TIP3   OH249993   3.423   6.431   2.797  0.3633  0.1516  0.1997
 9501TIP3    H149994   3.429   6.356   2.738 -0.5327 -2.2999  2.9216
 9501TIP3    H249995   3.503   6.481   2.782  0.4091 -0.6213 -2.6148
 9502TIP3   OH249996   0.259   5.361   5.636 -0.1379  0.3267 -0.2909
 9502TIP3    H149997   0.276   5.280   5.589 -1.8346 -0.4180  0.2880
 9502TIP3    H249998   0.190   5.404   5.585 -1.5613 -0.1998  1.1004
 9503TIP3   OH249999   0.161   5.013   4.426 -0.6193  1.0701  0.3802
 9503TIP3    H150000   0.172   5.108   4.423 -2.1664  1.2689 -1.6944
 9503TIP3    H250001   0.108   4.997   4.504 -2.2170  2.2126 -0.4121
 9504TIP3   OH250002   3.283   3.368  12.281 -0.2664  0.0941  0.2866
 9504TIP3    H150003   3.363   3.420  12.270  1.1964 -1.9275  0.8812
 9504TIP3    H250004   3.241   3.405  12.359  0.2431  0.9689  0.1651
 9505TIP3   OH250005   5.601   5.754  10.928  0.4868 -0.1225  0.1323
 9505TIP3    H150006   5.639   5.707  10.854  1.4048 -1.3931  1.3608
 9505TIP3    H250007   5.573   5.685  10.989 -0.4031  0.8786  0.9066
 9506TIP3   OH250008   0.870   3.951   3.113 -0.0622 -0.8360  0.5306
 9506TIP3    H150009   0.903   3.940   3.202  0.6113 -2.0702  0.1551
 9506TIP3    H250010   0.780   3.980   3.124  0.2055 -0.3715  1.6057
 9507TIP3   OH250011   0.188   1.586   4.376  0.4112  0.1605 -0.3750
 9507TIP3    H150012   0.165   1.650   4.443 -0.3513  1.0916 -1.5054
 9507TIP3    H250013   0.271   1.618   4.340  0.8152 -0.3342  0.0886
 9508TIP3   OH250014   5.750   4.317   5.675 -0.4451 -0.0983 -0.0710
 9508TIP3    H150015   5.820   4.306   5.739 -1.6704 -0.2453  1.3092
 9508TIP3    H250016   5.735   4.229   5.641 -1.6887 -0.5820  1.5883
 9509TIP3   OH250017   6.094   5.127   2.505 -0.3704  0.3790 -0.2907
 9509TIP3    H150018   6.052   5.076   2.436  0.0391  0.6890 -0.7804
 9509TIP3    H250019   6.138   5.199   2.458 -1.3454  1.4681  0.4259
 9510TIP3   OH250020   0.600   5.733  11.733 -0.4214 -0.0397  0.0015
 9510TIP3    H150021   0.581   5.826  11.720 -2.2291 -0.2299  0.8623
 9510TIP3    H250022   0.695   5.727  11.729 -0.2868  1.7776 -0.4853
 9511TIP3   OH250023   5.313   6.754  12.886 -0.4779  0.2878  0.2458
 9511TIP3    H150024   5.284   6.720  12.802 -0.3425  0.5226  0.1026
 9511TIP3    H250025   5.280   6.691  12.951  1.2598 -1.0774 -0.1289
 9512TIP3   OH250026   5.597   5.311  15.140 -0.3492  0.0078  0.2067
 9512TIP3    H150027   5.626   5.402  15.133  0.6935 -0.0800  2.5095
 9512TIP3    H250028   5.669   5.260  15.103 -0.6029  0.0560 -0.3735
 9513TIP3   OH250029   1.527   3.088  16.469  0.7459 -0.0100 -0.0210
 9513TIP3    H150030   1.447   3.043  16.443  1.1232  0.4689 -2.1635
 9513TIP3    H250031   1.592   3.018  16.479  1.0735 -0.1330 -2.3640
 9514TIP3   OH250032   0.459   5.721  14.840 -0.5286 -0.0219  0.2498
 9514TIP3    H150033   0.424   5.665  14.909 -0.6485 -0.0800  0.1424
 9514TIP3    H250034   0.455   5.667  14.761  1.3005 -0.6031  0.5200
 9515TIP3   OH250035   3.799   4.996  15.977 -0.0992  0.5780  0.3006
 9515TIP3    H150036   3.826   5.020  16.066  0.5493 -1.0084  0.5655
 9515TIP3    H250037   3.809   4.901  15.973  1.0597  0.7081 -1.8331
 9516TIP3   OH250038   5.900   4.655  12.132  0.4872 -0.0885  0.5715
 9516TIP3    H150039   5.992   4.659  12.105  0.1204  1.7202 -0.5755
 9516TIP3    H250040   5.898   4.701  12.216  0.3330  1.8418 -0.4404
 9517TIP3   OH250041   4.318   1.562   3.677  0.0095  0.2645  0.2662
 9517TIP3    H150042   4.332   1.599   3.764 -1.3226 -0.0199  0.6161
 9517TIP3    H250043   4.248   1.499   3.689 -0.4803  0.5260 -1.0996
 9518TIP3   OH250044   1.109   5.905   0.687  0.1469 -0.0737  0.2700
 9518TIP3    H150045   1.183   5.955   0.653  0.3381 -1.6945 -1.9288
 9518TIP3    H250046   1.037   5.927   0.629 -0.4636 -0.3493  0.9045
 9519TIP3   OH250047   4.926   0.260   4.138 -0.2893  0.2542 -0.2056
 9519TIP3    H150048   5.003   0.275   4.083  0.6270  0.3788  1.0727
 9519TIP3    H250049   4.959   0.267   4.227 -1.7034 -0.1588  0.3673
 9520TIP3   OH250050   2.298   2.696  10.656 -0.0127  0.4236  0.4858
 9520TIP3    H150051   2.294   2.612  10.701  1.1538 -0.0405 -0.2025
 9520TIP3    H250052   2.207   2.720  10.640 -0.4633 -2.5403 -2.5713
 9521TIP3   OH250053   1.374   1.494   4.790 -0.1271 -0.2774  0.3344
 9521TIP3    H150054   1.453   1.505   4.843 -0.5761  2.1484  0.6110
 9521TIP3    H250055   1.407   1.471   4.703  0.7610 -1.3405  0.9309
 9522TIP3   OH250056   0.357   6.380   1.804  0.1041  0.2440  0.5177
 9522TIP3    H150057   0.410   6.430   1.742  0.2809  0.1127  0.5618
 9522TIP3    H250058   0.309   6.447   1.853  1.4531  0.4891  1.5916
 9523TIP3   OH250059   2.326   2.051  11.556  0.4910  0.7519 -0.0096
 9523TIP3    H150060   2.344   2.144  11.566 -0.8707  1.0301  0.1302
 9523TIP3    H250061   2.245   2.037  11.606 -0.0402 -0.2367 -1.0969
 9524TIP3   OH250062   2.498   3.723  15.104  0.9690  0.4607 -0.1228
 9524TIP3    H150063   2.561   3.785  15.067  2.5170  0.1467  1.7959
 9524TIP3    H250064   2.519   3.721  15.198  0.6568 -2.5666 -0.0104
 9525TIP3   OH250065   2.566   6.607   1.133 -0.5002 -0.4716  0.0756
 9525TIP3    H150066   2.643   6.663   1.147 -1.0467  1.2952 -2.9519
 9525TIP3    H250067   2.576   6.536   1.196  2.4278  0.8647  1.3164
 9526TIP3   OH250068   0.800   0.037  12.449  0.0272 -0.5135 -0.1324
 9526TIP3    H150069   0.771   0.075  12.366 -0.5678  0.8976  0.6924
 9526TIP3    H250070   0.752  -0.046  12.455 -0.6388 -0.1861 -0.7726
 9527TIP3   OH250071   3.551   6.710  15.076  0.3195  0.1821 -0.1435
 9527TIP3    H150072   3.625   6.714  15.138  0.9576 -0.1857 -0.8654
 9527TIP3    H250073   3.587   6.744  14.994 -0.6310  1.0464 -0.2193
 9528TIP3   OH250074   0.036   1.869   1.355 -0.2350  0.2077  0.2321
 9528TIP3    H150075  -0.006   1.845   1.272 -0.1152  1.7827 -0.3292
 9528TIP3    H250076   0.071   1.957   1.339  0.9094  0.0252  1.5584
 9529TIP3   OH250077   1.617   0.066  16.940 -0.6838  0.5842  0.1950
 9529TIP3    H150078   1.526   0.040  16.953 -0.6482  0.8329  0.9941
 9529TIP3    H250079   1.666   0.010  17.000 -0.0945 -0.8416 -1.5116
 9530TIP3   OH250080   3.959   6.777  14.342  0.0722  0.0663  0.3146
 9530TIP3    H150081   3.894   6.723  14.297  0.5216 -0.3868  0.2027
 9530TIP3    H250082   4.022   6.714  14.378  0.0368  0.4551  1.0874
 9531TIP3   OH250083   5.143   2.193   5.813 -0.9507  0.1937  0.2309
 9531TIP3    H150084   5.208   2.248   5.770 -1.1375  0.3007  0.0865
 9531TIP3    H250085   5.059   2.219   5.775 -1.0393 -0.2031  0.1452
 9532TIP3   OH250086   0.677   0.852  11.596 -0.1530 -0.2167  0.0312
 9532TIP3    H150087   0.591   0.821  11.568 -1.0667  0.7094  1.6946
 9532TIP3    H250088   0.737   0.782  11.569 -1.5158 -1.2166 -0.5256
 9533TIP3   OH250089   1.642   0.914   5.172  0.2430  0.1620 -0.3395
 9533TIP3    H150090   1.706   0.948   5.235  0.7412  1.1147 -1.3277
 9533TIP3    H250091   1.559   0.912   5.220  0.9669 -1.0197  0.9421
 9534TIP3   OH250092   2.164   6.143  16.080  0.2960 -0.7819  0.1611
 9534TIP3    H150093   2.141   6.213  16.142  1.3001 -0.8018  0.5823
 9534TIP3    H250094   2.158   6.062  16.132  0.4239 -0.8708  0.0378
 9535TIP3   OH250095   2.482   2.446   4.049 -0.2636  0.0954  0.0869
 9535TIP3    H150096   2.551   2.448   3.984 -0.0260 -3.2366  0.0749
 9535TIP3    H250097   2.528   2.449   4.133 -0.3951  1.6105  0.1261
 9536TIP3   OH250098   1.181   3.559   3.186  0.1919  0.0911 -0.0225
 9536TIP3    H150099   1.105   3.592   3.138  1.2307  1.0821 -1.0646
 9536TIP3    H250100   1.178   3.464   3.173 -1.6722 -0.0810  1.2332
 9537TIP3   OH250101   1.024   3.853   4.213  0.1009  0.1428  0.4504
 9537TIP3    H150102   1.116   3.860   4.239 -0.2723  1.8138  1.4916
 9537TIP3    H250103   1.021   3.892   4.125  0.5271 -0.8018  0.0062
 9538TIP3   OH250104   5.738   4.373   2.303  0.9071  0.0674  0.8550
 9538TIP3    H150105   5.675   4.407   2.239  1.5831 -0.3998 -0.0827
 9538TIP3    H250106   5.815   4.429   2.293  1.8099 -1.3249 -0.2849
 9539TIP3   OH250107   3.700   3.080  10.726 -0.0727 -0.4238  0.6189
 9539TIP3    H150108   3.731   3.143  10.791 -2.6200  0.5413  0.9786
 9539TIP3    H250109   3.779   3.031  10.701  1.7896  2.1296  1.1390
 9540TIP3   OH250110   6.491   1.103   3.757  0.1549  0.1220  0.2681
 9540TIP3    H150111   6.560   1.085   3.821 -1.3825 -2.1909  1.4151
 9540TIP3    H250112   6.417   1.051   3.787 -0.6883 -1.0691 -3.3754
 9541TIP3   OH250113   0.552   3.739  12.691  0.1562  0.1972  0.5707
 9541TIP3    H150114   0.571   3.778  12.606 -1.8821  0.7504  0.3040
 9541TIP3    H250115   0.499   3.805  12.736  0.5338 -0.4148  1.9588
 9542TIP3   OH250116   3.580   0.508  15.311 -0.3152  0.3450  0.2730
 9542TIP3    H150117   3.507   0.458  15.349  0.0413 -1.1495 -0.9097
 9542TIP3    H250118   3.540   0.588  15.278 -1.5676 -0.6692 -0.8077
 9543TIP3   OH250119   0.976   4.228  14.090 -0.3890  0.6733 -0.4780
 9543TIP3    H150120   0.906   4.282  14.127 -0.7409 -0.4455  0.5564
 9543TIP3    H250121   1.054   4.256  14.136 -0.5798  0.2719  0.0959
 9544TIP3   OH250122   4.216   5.453   5.648 -0.7965  0.3083 -0.2566
 9544TIP3    H150123   4.240   5.533   5.601  1.7171  2.0192  3.4272
 9544TIP3    H250124   4.262   5.383   5.602  0.7850  1.7130 -0.9223
 9545TIP3   OH250125   1.567   6.733   4.777 -0.5514  0.2404  0.0455
 9545TIP3    H150126   1.564   6.638   4.778 -2.2145  0.2613  0.2329
 9545TIP3    H250127   1.584   6.756   4.686  1.0307 -0.2099  0.1890
 9546TIP3   OH250128   5.176   5.154  15.474  0.5575 -0.0703  0.1641
 9546TIP3    H150129   5.242   5.109  15.527  0.0800 -1.2098 -0.1778
 9546TIP3    H250130   5.104   5.171  15.535  1.5541  2.1958  0.8270
 9547TIP3   OH250131   4.926   4.137   2.531 -0.5822  0.3002 -0.6112
 9547TIP3    H150132   4.938   4.131   2.436 -0.0315 -0.3911 -0.5092
 9547TIP3    H250133   5.014   4.125   2.566 -0.6926  1.1531 -0.0296
 9548TIP3   OH250134   3.912   0.192   1.470  0.3965 -0.2320 -0.0478
 9548TIP3    H150135   3.890   0.264   1.410  2.1083 -1.2688 -2.0254
 9548TIP3    H250136   3.877   0.114   1.427 -0.0743 -0.8121  1.3247
 9549TIP3   OH250137   4.620   1.500  11.112  0.0243  0.1698  0.5045
 9549TIP3    H150138   4.587   1.450  11.038 -0.7138  1.2783  0.0469
 9549TIP3    H250139   4.577   1.585  11.104 -0.3064  0.2298  2.3712
 9550TIP3   OH250140   4.775   2.867   0.906  0.3773  0.0543 -0.0477
 9550TIP3    H150141   4.742   2.939   0.959 -0.9523 -1.5126  1.3574
 9550TIP3    H250142   4.868   2.886   0.896  0.3416  1.2626  1.4597
 9551TIP3   OH250143   6.038   2.021   2.227  0.4730  0.0108  0.3090
 9551TIP3    H150144   6.035   2.069   2.310 -1.3879  2.3401 -0.9662
 9551TIP3    H250145   6.123   2.045   2.189  0.8262 -0.1089  1.0150
 9552TIP3   OH250146   6.095   0.999   0.210  0.3430  0.5237 -0.0633
 9552TIP3    H150147   6.143   0.939   0.153 -0.8696  0.6622 -1.2925
 9552TIP3    H250148   6.160   1.029   0.273  1.6385 -0.0020 -1.0908
 9553TIP3   OH250149   4.798   0.285   3.772  0.1915  0.0806  0.6503
 9553TIP3    H150150   4.728   0.219   3.769 -0.8606  1.1919 -1.4946
 9553TIP3    H250151   4.773   0.344   3.843 -0.6798  0.0557  0.3772
 9554TIP3   OH250152   1.864   0.347  13.114 -0.0270 -0.3887  0.0971
 9554TIP3    H150153   1.793   0.283  13.110 -0.1321 -0.3266  0.8257
 9554TIP3    H250154   1.880   0.371  13.023  0.8757 -2.3881 -0.3278
 9555TIP3   OH250155   5.110   4.675  15.958  0.0567 -0.6063  0.2221
 9555TIP3    H150156   5.056   4.659  15.881  0.7300  0.3320 -0.4712
 9555TIP3    H250157   5.049   4.706  16.025 -0.6768 -2.3173  0.3917
 9556TIP3   OH250158   2.734   1.450  15.936 -0.2493 -0.5952 -0.2295
 9556TIP3    H150159   2.748   1.356  15.926 -1.0238 -0.6214 -1.1089
 9556TIP3    H250160   2.764   1.488  15.854 -0.3735 -0.1151 -0.0583
 9557TIP3   OH250161   2.411   2.526  11.755 -0.1612 -0.8141  0.3273
 9557TIP3    H150162   2.357   2.532  11.834  2.1406  1.1193  1.9140
 9557TIP3    H250163   2.501   2.534  11.787  1.0255 -2.3046 -2.3267
 9558TIP3   OH250164   0.324   5.329  11.125  0.2836 -0.0675  0.3644
 9558TIP3    H150165   0.234   5.361  11.135  0.1611 -0.6368  1.2495
 9558TIP3    H250166   0.367   5.354  11.206  1.6577  2.3756 -1.0202
 9559TIP3   OH250167   4.452   1.674  16.323 -0.4729 -0.6928 -0.8646
 9559TIP3    H150168   4.468   1.667  16.229  2.7106  0.3528 -0.4926
 9559TIP3    H250169   4.454   1.583  16.354 -0.5771 -0.9700 -1.6445
 9560TIP3   OH250170   0.151   1.970   3.383 -0.0713  0.0472  0.6531
 9560TIP3    H150171   0.149   1.948   3.476 -1.9275 -0.0071  0.6430
 9560TIP3    H250172   0.079   2.032   3.371  0.3036  0.2625 -0.6975
 9561TIP3   OH250173   4.553   4.126  14.338 -0.1742  0.0974  0.8313
 9561TIP3    H150174   4.536   4.071  14.261  0.2942 -0.6877  1.2681
 9561TIP3    H250175   4.470   4.168  14.356 -1.3039 -2.4355  1.9954
 9562TIP3   OH250176   6.394   6.672  13.471  0.6480 -0.0608  0.4071
 9562TIP3    H150177   6.348   6.649  13.552 -0.8501  0.3449 -0.2973
 9562TIP3    H250178   6.382   6.767  13.463  0.4611 -0.1512 -0.4826
 9563TIP3   OH250179   1.640   5.184   0.667  0.4009 -0.2042  0.0513
 9563TIP3    H150180   1.620   5.273   0.638  1.9592 -0.0098 -0.4773
 9563TIP3    H250181   1.556   5.151   0.701 -0.6116  0.8362 -1.3288
 9564TIP3   OH250182   3.561   5.819  13.476 -0.3249  0.0830 -0.2096
 9564TIP3    H150183   3.523   5.784  13.396  0.0690  1.4524 -1.0359
 9564TIP3    H250184   3.597   5.743  13.521  0.3914 -0.5950 -1.8404
 9565TIP3   OH250185   5.918   6.606   0.378  0.7627  0.1167 -0.0483
 9565TIP3    H150186   5.847   6.655   0.419 -0.0470 -0.3822 -0.8067
 9565TIP3    H250187   5.977   6.583   0.450 -0.0701  0.1641  0.6677
 9566TIP3   OH250188   2.088   6.539   2.116  0.2304 -0.1663 -0.0765
 9566TIP3    H150189   2.008   6.579   2.080  0.7259  0.9594  0.0144
 9566TIP3    H250190   2.125   6.490   2.043  0.4991  0.9624 -0.7285
 9567TIP3   OH250191   1.130   0.910   0.861  0.3400  0.2280 -0.3091
 9567TIP3    H150192   1.049   0.947   0.825 -0.2463 -0.1291  0.5853
 9567TIP3    H250193   1.123   0.927   0.955  0.8547 -0.6608 -0.1065
 9568TIP3   OH250194   3.069   3.706  16.331  0.2335 -0.1314 -0.7401
 9568TIP3    H150195   3.105   3.652  16.401 -0.2708 -0.5197 -0.7755
 9568TIP3    H250196   3.016   3.645  16.279 -1.2622  0.6280 -0.1391
 9569TIP3   OH250197   2.658   1.097   1.611 -0.1897  0.5577  0.0820
 9569TIP3    H150198   2.570   1.068   1.588 -0.3958  0.1787  1.2806
 9569TIP3    H250199   2.716   1.041   1.560 -0.6122 -0.9720  1.2047
 9570TIP3   OH250200   4.380   5.316   4.161 -0.4188  0.2010  0.0955
 9570TIP3    H150201   4.394   5.410   4.148 -0.8113  0.0615 -1.4618
 9570TIP3    H250202   4.285   5.307   4.166 -0.3770 -0.1088  0.3767
 9571TIP3   OH250203   4.317   2.938   1.656  0.1999  0.0825 -0.2722
 9571TIP3    H150204   4.403   2.909   1.686  0.1009 -1.3186 -1.2394
 9571TIP3    H250205   4.256   2.876   1.697 -0.0069 -1.3590 -2.5813
 9572TIP3   OH250206   3.574   3.110   3.063  0.4708  0.9518  0.4295
 9572TIP3    H150207   3.487   3.071   3.057  1.1021 -0.3256 -1.7128
 9572TIP3    H250208   3.568   3.190   3.011  1.1649 -0.5051 -2.0675
 9573TIP3   OH250209   1.896   3.259  14.081 -0.3021  0.4281  0.3205
 9573TIP3    H150210   1.916   3.352  14.072  1.9376 -0.1739 -2.3804
 9573TIP3    H250211   1.979   3.215  14.066 -1.2275 -2.0574  1.8416
 9574TIP3   OH250212   5.349   1.877   4.583  0.1150 -0.3177 -0.4065
 9574TIP3    H150213   5.354   1.789   4.620 -1.4063  0.2591  1.3114
 9574TIP3    H250214   5.263   1.881   4.541  0.1484  0.3710 -0.4116
 9575TIP3   OH250215   2.599   0.549  12.356  0.0174 -0.0219  0.1803
 9575TIP3    H150216   2.596   0.495  12.435  2.3379 -0.5805 -0.0250
 9575TIP3    H250217   2.590   0.487  12.284 -2.2699  0.5075 -0.0421
 9576TIP3   OH250218   0.834   1.448   5.476  0.7478 -0.2533 -0.4499
 9576TIP3    H150219   0.886   1.442   5.555  1.0763 -0.8658 -0.7034
 9576TIP3    H250220   0.840   1.540   5.449 -0.7534  0.3683  1.1450
 9577TIP3   OH250221   0.304   2.421   5.059  0.4074  0.1172  0.4668
 9577TIP3    H150222   0.259   2.399   4.978  1.0518  1.4158 -0.2905
 9577TIP3    H250223   0.304   2.517   5.061  4.0987  0.3046 -0.2155
 9578TIP3   OH250224   1.798   0.305   4.415  0.3836  0.5328  0.3528
 9578TIP3    H150225   1.747   0.369   4.365 -3.0092 -2.3946 -0.3513
 9578TIP3    H250226   1.819   0.236   4.352  1.9456 -0.1554  1.5433
 9579TIP3   OH250227   4.596   1.463   2.448 -0.0495 -0.1373 -0.1673
 9579TIP3    H150228   4.589   1.558   2.455 -0.6184 -0.2742  2.0357
 9579TIP3    H250229   4.518   1.436   2.399  0.6488  0.5558 -1.7383
 9580TIP3   OH250230   2.491   0.954  11.658 -0.4402  0.5446 -0.0642
 9580TIP3    H150231   2.514   0.923  11.570  0.6332  1.1167 -0.0070
 9580TIP3    H250232   2.481   0.874  11.710  3.9833  0.0919  0.5105
 9581TIP3   OH250233   1.632   5.427  12.339  0.3857  0.3644 -0.0474
 9581TIP3    H150234   1.711   5.412  12.287  0.4189  0.0101  0.1021
 9581TIP3    H250235   1.560   5.405  12.279  0.4539 -2.4598  0.7489
 9582TIP3   OH250236   2.383   3.309  14.266 -0.1688  0.1947  1.0728
 9582TIP3    H150237   2.472   3.330  14.237  0.4356 -2.5251  0.6850
 9582TIP3    H250238   2.331   3.309  14.185 -0.6330  1.9244  1.3155
 9583TIP3   OH250239   3.904   0.756  14.689 -0.7285 -0.2645  0.0808
 9583TIP3    H150240   3.820   0.795  14.715 -0.7234 -1.2577  1.7282
 9583TIP3    H250241   3.969   0.821  14.715 -0.7747 -0.9718  2.1222
 9584TIP3   OH250242   6.609   6.508  16.008 -0.1405 -0.3645  0.3938
 9584TIP3    H150243   6.642   6.441  16.067  2.4354  0.8554  0.5047
 9584TIP3    H250244   6.518   6.521  16.034 -0.1036 -2.3620  1.6919
 9585TIP3   OH250245   2.149   5.740   3.482 -0.3551 -0.5564 -0.2869
 9585TIP3    H150246   2.220   5.802   3.465 -0.5348 -0.3987 -0.4729
 9585TIP3    H250247   2.183   5.682   3.550  0.0375 -0.6295 -0.5466
 9586TIP3   OH250248   5.850   6.199  11.458  0.2026  0.1671  0.0112
 9586TIP3    H150249   5.882   6.148  11.532 -1.7858 -1.6538 -0.2782
 9586TIP3    H250250   5.852   6.138  11.384  0.8496  1.5310 -1.1445
 9587TIP3   OH250251   6.800   2.163   4.901 -0.1935  0.3529 -0.0737
 9587TIP3    H150252   6.869   2.201   4.846 -0.5378  2.3314  0.7605
 9587TIP3    H250253   6.808   2.211   4.984 -1.5091 -0.5697  0.6125
 9588TIP3   OH250254   0.417   2.028   0.226  0.6869  0.4211 -0.0541
 9588TIP3    H150255   0.409   2.124   0.222 -1.2295  0.4272  1.8733
 9588TIP3    H250256   0.433   2.009   0.319 -0.5912 -1.1753 -0.1089
 9589TIP3   OH250257   5.939   4.113   1.657  0.3293  0.2554  0.0528
 9589TIP3    H150258   5.923   4.072   1.742 -1.0647  0.6909  0.0214
 9589TIP3    H250259   5.892   4.058   1.594 -0.5660  1.2149 -0.1361
 9590TIP3   OH250260   2.522   2.978  15.737 -0.6818 -0.1526  0.3923
 9590TIP3    H150261   2.507   2.900  15.792  2.5966 -1.1827  0.0595
 9590TIP3    H250262   2.437   3.021  15.733 -2.1628 -2.5958  2.3302
 9591TIP3   OH250263   6.770   4.422  13.026  0.4445  0.1926 -0.3430
 9591TIP3    H150264   6.737   4.449  13.112  1.0974 -2.3067  0.7696
 9591TIP3    H250265   6.703   4.450  12.965 -0.1946  1.7578  0.9987
 9592TIP3   OH250266   4.130   3.815  14.874  0.0093 -0.2839 -0.8193
 9592TIP3    H150267   4.164   3.863  14.950 -2.3363  1.1993 -0.6315
 9592TIP3    H250268   4.201   3.820  14.810  1.3193  0.0422  0.5862
 9593TIP3   OH250269   0.524   5.915  16.575  0.0070  0.7568  0.6285
 9593TIP3    H150270   0.616   5.923  16.549  0.7178 -0.7859  2.4050
 9593TIP3    H250271   0.479   5.983  16.526  2.0867  1.5054 -0.3572
 9594TIP3   OH250272   1.393   3.605  15.500  0.2641 -0.6612 -0.4075
 9594TIP3    H150273   1.400   3.555  15.582 -0.2920  0.5503  0.4170
 9594TIP3    H250274   1.472   3.659  15.499 -0.2923  0.1823 -0.0495
 9595TIP3   OH250275   2.044   1.799   1.593 -0.3731  0.0323 -0.0036
 9595TIP3    H150276   2.122   1.800   1.648  2.0321 -3.3132 -2.8815
 9595TIP3    H250277   2.077   1.819   1.505 -2.9381 -0.5427 -1.1807
 9596TIP3   OH250278   2.000   3.127  14.507 -0.2744 -0.2539 -0.0894
 9596TIP3    H150279   2.022   3.186  14.435  2.8581 -0.6783  0.3976
 9596TIP3    H250280   1.986   3.042  14.465 -1.3351  0.0754 -0.4350
 9597TIP3   OH250281   5.390   0.586   1.914  0.0672 -0.4055 -0.1738
 9597TIP3    H150282   5.318   0.544   1.866 -1.4586 -0.0988  1.7349
 9597TIP3    H250283   5.459   0.520   1.916 -1.2963 -1.8859  0.4715
 9598TIP3   OH250284   5.570   5.962  15.927 -0.1761  0.1203 -0.2643
 9598TIP3    H150285   5.479   5.990  15.925 -0.7736 -1.7231 -0.6045
 9598TIP3    H250286   5.567   5.867  15.916  1.8249  0.0771 -0.9984
 9599TIP3   OH250287   6.474   3.259  16.297  0.1849 -0.3233  0.5122
 9599TIP3    H150288   6.404   3.306  16.343  0.1713 -0.3212  0.4885
 9599TIP3    H250289   6.553   3.280  16.348  0.1420 -0.4584  0.6334
 9600TIP3   OH250290   1.061   0.598   0.341  0.2810 -0.0684 -0.6956
 9600TIP3    H150291   1.093   0.687   0.329 -0.1273  0.1349 -0.2911
 9600TIP3    H250292   1.140   0.544   0.342  0.8744  0.6716  2.6802
 9601TIP3   OH250293   0.154   6.427   4.590 -0.0661  0.2879  0.2184
 9601TIP3    H150294   0.129   6.349   4.540 -1.6848  0.3973  0.7955
 9601TIP3    H250295   0.204   6.480   4.528  0.3152 -0.7992 -0.4434
 9602TIP3   OH250296   5.476   3.709   3.583  0.1692 -0.1757  0.7047
 9602TIP3    H150297   5.545   3.766   3.618 -1.3103  1.9524  0.3230
 9602TIP3    H250298   5.470   3.733   3.490 -2.2979  1.0726  1.1105
 9603TIP3   OH250299   2.958   1.275   3.353 -0.4263 -0.5179 -0.1272
 9603TIP3    H150300   3.016   1.312   3.420 -1.9097  0.0962  0.8824
 9603TIP3    H250301   2.895   1.223   3.403 -0.6520 -1.3171 -1.2115
 9604TIP3   OH250302   4.889   1.039   2.056 -0.1461  0.6229  0.4219
 9604TIP3    H150303   4.957   0.971   2.051 -1.4279 -0.6165 -1.4296
 9604TIP3    H250304   4.889   1.065   2.148 -0.2390 -2.6047  1.4873
 9605TIP3   OH250305   0.200   2.317  10.634  0.0673 -0.1534  0.7192
 9605TIP3    H150306   0.151   2.235  10.645  0.7922 -1.0928 -2.1748
 9605TIP3    H250307   0.245   2.307  10.550  0.9827  2.8474  0.7393
 9606TIP3   OH250308   1.656   2.317   5.263  0.4201  0.2200 -0.0343
 9606TIP3    H150309   1.603   2.297   5.186  0.2545  1.2408 -0.1894
 9606TIP3    H250310   1.634   2.407   5.285  2.1921  0.7251 -0.1757
 9607TIP3   OH250311   5.072   5.328  14.244  0.1544  0.0309  0.4712
 9607TIP3    H150312   5.031   5.248  14.279 -0.1055  0.0430  0.1946
 9607TIP3    H250313   5.119   5.299  14.167  2.3914 -0.3636  1.9038
 9608TIP3   OH250314   2.594   0.137   4.364  0.0742 -0.4742 -0.0953
 9608TIP3    H150315   2.546   0.219   4.375  1.3234  0.2756 -0.0556
 9608TIP3    H250316   2.636   0.122   4.449  1.1204 -0.3081 -0.5638
 9609TIP3   OH250317   1.886   1.989   5.327  0.4571  0.3946 -0.3648
 9609TIP3    H150318   1.960   1.958   5.276  0.4529  0.8559 -0.6596
 9609TIP3    H250319   1.924   2.025   5.407  0.3148 -2.6487  1.2293
 9610TIP3   OH250320   1.143   1.306   3.711  0.3030 -0.2621 -0.3880
 9610TIP3    H150321   1.143   1.386   3.763 -1.1762  0.2714 -1.1625
 9610TIP3    H250322   1.217   1.256   3.745 -0.1011  0.4225  1.6601
 9611TIP3   OH250323   1.461   3.127  14.337  0.1495 -0.2944  0.3055
 9611TIP3    H150324   1.555   3.133  14.354  0.0844  0.8857  0.3730
 9611TIP3    H250325   1.419   3.151  14.420 -0.2131 -0.8633  0.2904
 9612TIP3   OH250326   6.659   2.790   0.159  0.2322  0.2051  0.1621
 9612TIP3    H150327   6.595   2.778   0.089  1.0811  0.6574 -0.6998
 9612TIP3    H250328   6.703   2.705   0.166  0.7798  0.4285 -0.4944
 9613TIP3   OH250329   1.865   3.637  15.321 -0.5128 -0.1948 -0.3163
 9613TIP3    H150330   1.785   3.585  15.317  0.6676 -2.1817  0.2056
 9613TIP3    H250331   1.888   3.654  15.230 -0.4852 -1.3416 -0.5350
 9614TIP3   OH250332   4.660   2.372  14.833  0.2826  0.2631 -0.0591
 9614TIP3    H150333   4.738   2.410  14.874  0.4968 -0.2847  0.0512
 9614TIP3    H250334   4.695   2.311  14.767  0.0711 -2.5200  2.1849
 9615TIP3   OH250335   1.126   6.215   5.924  0.1675 -0.2040  0.6568
 9615TIP3    H150336   1.155   6.295   5.881 -2.1522 -0.2370 -1.2114
 9615TIP3    H250337   1.163   6.144   5.871 -1.5280 -0.2517 -0.5680
 9616TIP3   OH250338   3.466   4.790   4.233  0.0763 -0.1290  0.4175
 9616TIP3    H150339   3.500   4.731   4.300  0.9965 -0.0474  0.0347
 9616TIP3    H250340   3.424   4.860   4.282  1.2251  0.2156  0.9320
 9617TIP3   OH250341   1.806   0.637   0.708 -0.0784 -0.5412 -0.0113
 9617TIP3    H150342   1.803   0.613   0.801  0.4421 -0.0363  0.1451
 9617TIP3    H250343   1.840   0.727   0.708  0.0536 -0.5868 -0.6974
 9618TIP3   OH250344   0.404   4.351  10.720  0.0959 -0.0755 -0.2907
 9618TIP3    H150345   0.454   4.281  10.763 -0.2261 -0.1439 -0.0176
 9618TIP3    H250346   0.469   4.403  10.674  0.4848  0.1349  0.4785
 9619TIP3   OH250347   3.474   5.162  15.684 -0.2105 -0.7504  0.3865
 9619TIP3    H150348   3.553   5.139  15.635  0.3149  1.1445  0.2907
 9619TIP3    H250349   3.489   5.124  15.771  0.4154 -1.1253  0.1274
 9620TIP3   OH250350   5.901   4.072   2.203 -0.5485 -0.2273  0.0175
 9620TIP3    H150351   5.893   4.141   2.269 -2.3303  1.4933 -1.8551
 9620TIP3    H250352   5.845   4.001   2.235 -0.3852  0.0459  0.9413
 9621TIP3   OH250353   1.989   2.584  11.998  0.2615 -0.7267  0.7221
 9621TIP3    H150354   1.898   2.596  12.028  0.8684  0.7598  2.1154
 9621TIP3    H250355   1.996   2.490  11.981 -1.0038 -1.1836  2.4217
 9622TIP3   OH250356   1.880   1.645  14.550 -0.2941 -0.5553  0.4113
 9622TIP3    H150357   1.792   1.672  14.576 -0.7546 -1.6508  0.0417
 9622TIP3    H250358   1.887   1.555  14.579 -0.4845 -1.5522 -2.3457
 9623TIP3   OH250359   5.438   0.932  12.429 -0.3879  0.0210 -0.1003
 9623TIP3    H150360   5.382   0.945  12.352  0.3107  1.4705 -0.3968
 9623TIP3    H250361   5.520   0.975  12.407 -0.1929  0.5388  1.4708
 9624TIP3   OH250362   5.975   2.259  16.119 -0.4257 -0.4822 -0.2876
 9624TIP3    H150363   6.059   2.261  16.074 -0.9930 -0.5153 -1.3893
 9624TIP3    H250364   5.981   2.183  16.178  0.1298 -0.7795 -0.7201
 9625TIP3   OH250365   1.189   0.381  13.313 -0.2719 -0.0673 -0.6599
 9625TIP3    H150366   1.247   0.414  13.382 -1.0262  0.8707 -0.4550
 9625TIP3    H250367   1.218   0.425  13.234 -1.8548  1.8662 -0.2254
 9626TIP3   OH250368   3.264   2.702  10.871  0.2325  0.1551  0.5680
 9626TIP3    H150369   3.271   2.607  10.858 -1.1687 -0.0306  0.9563
 9626TIP3    H250370   3.340   2.738  10.825 -0.9200 -0.9224 -2.4453
 9627TIP3   OH250371   2.615   1.468  11.224 -0.1237 -0.9467  0.2295
 9627TIP3    H150372   2.629   1.562  11.227  1.0458 -1.0850 -0.5991
 9627TIP3    H250373   2.540   1.457  11.166  0.7104 -0.6115 -0.9336
 9628TIP3   OH250374   3.496   3.308  11.513  0.2635  0.3642 -0.2181
 9628TIP3    H150375   3.458   3.256  11.585 -0.7525  1.1926 -0.1340
 9628TIP3    H250376   3.511   3.394  11.551 -2.4322  1.5374 -1.5209
 9629TIP3   OH250377   4.723   2.699   2.126 -0.1442 -0.0485 -0.1834
 9629TIP3    H150378   4.738   2.662   2.213 -1.1878 -0.4905 -0.1873
 9629TIP3    H250379   4.628   2.709   2.119 -0.0881 -0.1373 -1.3234
 9630TIP3   OH250380   5.617   5.924  13.628  0.3131  0.1822 -0.3354
 9630TIP3    H150381   5.546   5.894  13.685 -0.0664 -0.2200 -1.0156
 9630TIP3    H250382   5.696   5.885  13.666 -0.0926 -1.1485 -0.8139
 9631TIP3   OH250383   3.061   4.575  16.935  0.0364  0.2971 -0.4037
 9631TIP3    H150384   3.079   4.657  16.979  0.5443  0.6314 -1.2114
 9631TIP3    H250385   3.036   4.515  17.005 -1.0447  1.3169  0.1269
 9632TIP3   OH250386   2.385   1.058  16.692 -0.0144 -0.5217 -0.4038
 9632TIP3    H150387   2.387   0.990  16.759  0.6084  0.1056  0.2314
 9632TIP3    H250388   2.441   1.127  16.726 -0.7961  0.4107 -0.9396
 9633TIP3   OH250389   2.818   2.692  13.053 -0.3065  0.3009 -0.1296
 9633TIP3    H150390   2.778   2.672  12.968 -0.6840 -0.6867  0.2571
 9633TIP3    H250391   2.766   2.764  13.088 -0.0528  0.8142 -0.8016
 9634TIP3   OH250392   1.873   5.087   2.700  0.6634 -0.3788 -0.8050
 9634TIP3    H150393   1.863   4.999   2.735  1.2086 -0.4448 -0.8065
 9634TIP3    H250394   1.945   5.081   2.638  3.7275  0.8902  2.2818
 9635TIP3   OH250395   2.227   6.695   4.036 -1.1225 -0.5107  0.3963
 9635TIP3    H150396   2.162   6.628   4.054 -2.6613  0.5532 -0.8786
 9635TIP3    H250397   2.196   6.772   4.084 -2.0600  0.6187 -1.8451
 9636TIP3   OH250398   6.814   1.010   4.873 -0.5942 -0.1153  0.3959
 9636TIP3    H150399   6.785   0.996   4.783 -1.3128 -2.1390  0.8859
 9636TIP3    H250400   6.810   1.104   4.885 -0.3364  0.2149 -1.7258
 9637TIP3   OH250401   5.609   4.875   5.655 -0.2490 -0.0771 -0.5836
 9637TIP3    H150402   5.598   4.950   5.596 -0.0531 -1.7571 -2.8884
 9637TIP3    H250403   5.662   4.909   5.727 -1.5104  2.3839 -0.7167
 9638TIP3   OH250404   5.185   1.006  14.990  0.0427 -0.0340 -0.2985
 9638TIP3    H150405   5.215   1.025  15.079  0.0125 -1.3676  0.0147
 9638TIP3    H250406   5.101   1.051  14.983  0.5362  0.9662 -0.0346
 9639TIP3   OH250407   2.332   0.788  14.115 -0.1379 -0.2055 -0.4028
 9639TIP3    H150408   2.310   0.860  14.055 -0.1455  0.5139  0.4459
 9639TIP3    H250409   2.387   0.730  14.063 -2.5568 -1.1920 -2.0679
 9640TIP3   OH250410   3.278   1.397  13.384  0.1484  0.8747  0.1811
 9640TIP3    H150411   3.243   1.371  13.298  1.1148  1.1660 -0.3090
 9640TIP3    H250412   3.371   1.377  13.379  0.5527  2.5372  0.5237
 9641TIP3   OH250413   1.521   5.594  13.838 -0.4818 -0.2482 -0.4678
 9641TIP3    H150414   1.501   5.685  13.816 -0.9647 -0.1947  0.1687
 9641TIP3    H250415   1.474   5.578  13.920  0.8611 -0.5854  0.2650
 9642TIP3   OH250416   3.885   5.641  11.077  0.8079  0.2276  0.1692
 9642TIP3    H150417   3.858   5.670  11.164  1.1990  0.3530  0.2510
 9642TIP3    H250418   3.927   5.718  11.038  0.3715  0.2628 -0.2420
 9643TIP3   OH250419   6.613   6.650   0.942  0.1104 -0.1179 -0.0409
 9643TIP3    H150420   6.598   6.721   1.004 -2.1054 -0.7516  0.2219
 9643TIP3    H250421   6.678   6.684   0.881  0.4011  1.4615  1.0970
 9644TIP3   OH250422   6.707   5.229   0.590  0.4110 -0.6170 -0.0240
 9644TIP3    H150423   6.622   5.186   0.582 -0.1965  0.2834  1.2468
 9644TIP3    H250424   6.698   5.308   0.535  0.0976 -0.0739  0.7879
 9645TIP3   OH250425   2.181   0.974  11.697  0.0039 -0.1007  0.1239
 9645TIP3    H150426   2.185   0.968  11.602  0.5817  1.1323  0.0388
 9645TIP3    H250427   2.129   1.053  11.714  1.0750  0.5068  0.7709
 9646TIP3   OH250428   1.812   1.352  11.489  0.3981 -0.4663  0.2088
 9646TIP3    H150429   1.859   1.269  11.479 -1.9135 -1.6871 -1.5376
 9646TIP3    H250430   1.845   1.407  11.417  0.7155 -0.4770  0.3425
 9647TIP3   OH250431   3.037   0.127  14.103 -0.7648 -0.2791  0.5826
 9647TIP3    H150432   3.027   0.032  14.090 -2.3333 -0.1209  0.4466
 9647TIP3    H250433   3.119   0.136  14.151  0.0311 -1.6158 -0.4649
 9648TIP3   OH250434   4.161   4.970  14.962 -1.4616  0.2810 -0.1043
 9648TIP3    H150435   4.074   4.938  14.986 -2.0013 -0.3034 -2.5766
 9648TIP3    H250436   4.219   4.896  14.978 -1.9673 -0.4296 -1.3805
 9649TIP3   OH250437   1.533   0.198  15.803  0.5645  0.5573 -0.3926
 9649TIP3    H150438   1.490   0.115  15.782  3.1902 -0.5074 -2.0510
 9649TIP3    H250439   1.485   0.264  15.752  1.0380 -0.6353 -2.4942
 9650TIP3   OH250440   0.075   1.055  13.008  0.0335  0.2414  0.2425
 9650TIP3    H150441   0.012   1.112  12.964 -0.4397  0.5633  1.3087
 9650TIP3    H250442   0.110   1.108  13.080 -0.2108 -0.7071  1.0863
 9651TIP3   OH250443   5.824   0.951   3.466 -0.5250  0.1894 -0.0479
 9651TIP3    H150444   5.755   0.886   3.452  0.1811 -0.5293 -0.2501
 9651TIP3    H250445   5.852   0.938   3.557 -0.5166  0.3363 -0.0296
 9652TIP3   OH250446   6.471   1.052   2.897  0.0163  0.2368 -0.3650
 9652TIP3    H150447   6.476   0.967   2.940  1.6025  0.9373  0.9800
 9652TIP3    H250448   6.560   1.068   2.866 -0.8405  0.2645 -3.0047
 9653TIP3   OH250449   3.219   1.991  13.149  0.3409 -0.2832  0.2291
 9653TIP3    H150450   3.279   2.008  13.076  1.3989  1.4213  1.4182
 9653TIP3    H250451   3.149   2.055  13.138 -0.1604 -0.8454  0.0545
 9654TIP3   OH250452   4.092   5.996  14.984 -0.0374 -0.5774  0.3790
 9654TIP3    H150453   4.007   5.953  14.988 -0.3098 -0.3642 -1.7215
 9654TIP3    H250454   4.076   6.086  15.011 -1.3658  0.4891 -3.3203
 9655TIP3   OH250455   4.515   0.378   6.452  0.1431  0.0866  0.3157
 9655TIP3    H150456   4.543   0.295   6.490  0.8989 -0.2870 -0.9727
 9655TIP3    H250457   4.426   0.360   6.420  0.3415 -0.2820 -0.0541
 9656TIP3   OH250458   2.466   0.546   2.962 -0.2919  0.4870 -0.0035
 9656TIP3    H150459   2.488   0.480   3.027  2.5626  0.5867 -0.7032
 9656TIP3    H250460   2.402   0.505   2.905  0.0707 -1.0065  0.6325
 9657TIP3   OH250461   6.836   4.817  12.425 -0.4431 -0.4615 -0.4481
 9657TIP3    H150462   6.854   4.813  12.519 -3.1437  0.3805  0.1780
 9657TIP3    H250463   6.819   4.909  12.407 -1.2246 -0.7885 -1.5008
 9658TIP3   OH250464   0.284   4.516  14.082 -0.5249 -0.5988 -0.2513
 9658TIP3    H150465   0.225   4.443  14.066  0.9437 -2.4003  1.9798
 9658TIP3    H250466   0.249   4.560  14.159  0.3265 -0.9343  0.3453
 9659TIP3   OH250467   1.079   2.084   3.524  0.0069 -0.7401 -0.8451
 9659TIP3    H150468   1.023   2.008   3.509  0.1163 -0.8207 -0.8469
 9659TIP3    H250469   1.026   2.143   3.579  0.3962 -1.3839  0.2545
 9660TIP3   OH250470   6.748   4.475   0.587  0.1957  0.0529  0.4187
 9660TIP3    H150471   6.696   4.403   0.551 -0.3040 -0.2923  1.7801
 9660TIP3    H250472   6.818   4.432   0.637  1.4306  0.5171 -0.8174
 9661TIP3   OH250473   0.965   0.973  14.991 -0.0537 -0.6988  0.1451
 9661TIP3    H150474   0.912   1.051  14.979  1.1801  0.0357 -0.7683
 9661TIP3    H250475   0.906   0.909  15.031 -1.4138  0.2869 -0.2404
 9662TIP3   OH250476   6.566   2.927   1.901 -0.3507 -0.0430 -0.2067
 9662TIP3    H150477   6.504   2.875   1.952  0.6066 -1.9618 -0.9173
 9662TIP3    H250478   6.650   2.915   1.945 -0.3793  2.4901  0.7228
 9663TIP3   OH250479   3.741   1.507  16.588 -0.1740  0.0456  0.3627
 9663TIP3    H150480   3.696   1.442  16.535 -2.2222  1.6250  0.0258
 9663TIP3    H250481   3.827   1.470  16.604 -0.8295 -2.1606 -0.8468
 9664TIP3   OH250482   2.831   5.772  13.679  0.0208 -0.4390  0.6021
 9664TIP3    H150483   2.831   5.754  13.585  2.5407  0.0618  0.4373
 9664TIP3    H250484   2.753   5.727  13.712 -0.9401 -0.6001 -1.7075
 9665TIP3   OH250485   5.011   3.119   2.568  0.2903 -0.8612 -0.3680
 9665TIP3    H150486   4.922   3.087   2.556  0.4110 -1.4084  0.1360
 9665TIP3    H250487   5.066   3.053   2.526  0.4397 -0.2913 -1.0867
 9666TIP3   OH250488   0.989   1.386  15.568 -0.7288 -0.1454  0.3846
 9666TIP3    H150489   0.917   1.377  15.506 -1.5666  0.6755  1.2046
 9666TIP3    H250490   0.947   1.400  15.652  0.3901 -0.2371  0.9820
 9667TIP3   OH250491   1.897   4.434  12.004  0.1450 -0.1608  0.0500
 9667TIP3    H150492   1.821   4.409  11.951  0.6876 -1.9213  0.0620
 9667TIP3    H250493   1.946   4.353  12.016  0.8562  0.5098  1.9480
 9668TIP3   OH250494   2.386   2.954   2.143 -0.4353  0.1637  0.1057
 9668TIP3    H150495   2.371   3.048   2.143 -1.6205  0.0337 -2.2755
 9668TIP3    H250496   2.373   2.927   2.052 -0.6763 -2.3864  0.8188
 9669TIP3   OH250497   5.218   6.142  13.558 -0.1811 -0.4174  0.3991
 9669TIP3    H150498   5.151   6.104  13.500  1.4575 -2.2512 -0.4219
 9669TIP3    H250499   5.203   6.099  13.643 -0.3960 -0.3901  0.3754
 9670TIP3   OH250500   3.795   0.836  10.584 -0.0510 -0.1933 -0.1535
 9670TIP3    H150501   3.827   0.778  10.515 -2.0612 -0.1175 -1.2315
 9670TIP3    H250502   3.835   0.921  10.565  0.2751 -0.4317 -0.5570
 9671TIP3   OH250503   1.811   5.167   2.208 -0.3250 -0.3224  0.1226
 9671TIP3    H150504   1.791   5.079   2.175  0.3510 -0.3021 -0.3560
 9671TIP3    H250505   1.792   5.162   2.302 -0.5194 -0.9113  0.0560
 9672TIP3   OH250506   6.845   0.650  12.203  0.6818  0.6446  0.2213
 9672TIP3    H150507   6.774   0.631  12.141  0.4307  0.5153  0.5445
 9672TIP3    H250508   6.905   0.576  12.194 -0.2818 -0.3475  1.4594
 9673TIP3   OH250509   1.473   3.520  14.363 -0.0933  0.4267  0.0795
 9673TIP3    H150510   1.514   3.547  14.281  1.4228 -1.4484  0.1704
 9673TIP3    H250511   1.380   3.541  14.351  0.4358  2.2638 -1.1984
 9674TIP3   OH250512   5.738   4.537  14.569 -0.1819 -0.4405  0.4621
 9674TIP3    H150513   5.771   4.548  14.480  1.1832  0.8962  1.0899
 9674TIP3    H250514   5.814   4.550  14.625 -0.9345 -1.6624  1.8304
 9675TIP3   OH250515   4.505   1.364  11.440 -0.3725 -0.0811 -0.2475
 9675TIP3    H150516   4.524   1.457  11.452 -0.1254 -0.3609  1.9362
 9675TIP3    H250517   4.409   1.358  11.443 -0.3431 -0.1012  1.8301
 9676TIP3   OH250518   5.976   2.234  13.288  0.7601  0.2390  0.1093
 9676TIP3    H150519   5.947   2.144  13.303  0.8930  0.4622  1.9007
 9676TIP3    H250520   5.898   2.287  13.301  0.3519  0.3432 -2.2822
 9677TIP3   OH250521   5.463   4.586   5.823 -0.6025 -0.6549 -0.2066
 9677TIP3    H150522   5.472   4.508   5.878  0.2507 -0.5461 -0.1731
 9677TIP3    H250523   5.521   4.651   5.863  0.8231 -0.8945 -1.7482
 9678TIP3   OH250524   3.819   5.869  15.378 -0.0637 -0.1071  0.2561
 9678TIP3    H150525   3.890   5.928  15.352  0.0897 -0.2658  0.3145
 9678TIP3    H250526   3.763   5.863  15.300  0.9521 -1.4093 -0.4080
 9679TIP3   OH250527   1.929   0.769   3.217 -0.0830  0.0890 -0.7012
 9679TIP3    H150528   1.844   0.813   3.217  0.0709  0.4471  1.3430
 9679TIP3    H250529   1.911   0.680   3.247  0.1840 -0.0321 -0.8905
 9680TIP3   OH250530   4.487   6.822   5.385  0.1011  0.0669 -0.2583
 9680TIP3    H150531   4.491   6.894   5.447 -1.5222 -0.3895  0.4283
 9680TIP3    H250532   4.457   6.862   5.303 -0.8522  0.1871  0.1377
 9681TIP3   OH250533   0.396   3.706  15.673  0.3089  0.7968 -0.2156
 9681TIP3    H150534   0.319   3.649  15.667  0.6390  0.4210 -0.8463
 9681TIP3    H250535   0.362   3.793  15.650 -0.1739  0.8576  0.6584
 9682TIP3   OH250536   1.416   1.526   0.397  0.0781 -0.1622  0.4200
 9682TIP3    H150537   1.431   1.447   0.448 -1.0686 -0.9448 -0.3965
 9682TIP3    H250538   1.496   1.539   0.346 -0.0014 -1.2481 -0.0030
 9683TIP3   OH250539   4.897   2.348   1.112  0.2132 -0.5452 -0.0462
 9683TIP3    H150540   4.981   2.391   1.129 -0.6341  1.3684 -0.4314
 9683TIP3    H250541   4.837   2.391   1.173 -0.7242 -1.0357 -0.6140
 9684TIP3   OH250542   5.557   2.436   2.410 -0.1251 -0.0780  0.6982
 9684TIP3    H150543   5.555   2.409   2.502 -0.3817 -2.3113  0.0915
 9684TIP3    H250544   5.567   2.354   2.361  0.5098  1.1002 -1.2605
 9685TIP3   OH250545   2.859   3.806  12.501 -0.1824 -0.3096 -0.0523
 9685TIP3    H150546   2.935   3.787  12.446 -0.3563 -0.7456 -0.1434
 9685TIP3    H250547   2.791   3.833  12.439  0.3632  1.6723  0.1413
 9686TIP3   OH250548   2.459   5.508   6.169  0.5371  0.2692  0.3863
 9686TIP3    H150549   2.446   5.532   6.261 -0.1967  0.6501  0.1860
 9686TIP3    H250550   2.475   5.413   6.171 -2.9952 -0.4642  0.6300
 9687TIP3   OH250551   6.009   4.751   1.373  0.5970 -0.0629 -1.0090
 9687TIP3    H150552   5.938   4.805   1.408  0.2238 -1.8203  1.2230
 9687TIP3    H250553   5.965   4.678   1.329  1.0906  0.9052 -3.2511
 9688TIP3   OH250554   4.637   3.171   1.713 -0.0540 -0.8298 -0.0949
 9688TIP3    H150555   4.582   3.140   1.640 -0.6136  0.8479 -0.4286
 9688TIP3    H250556   4.576   3.180   1.786 -0.0325  0.0225 -0.1731
 9689TIP3   OH250557   4.400   1.280   0.462 -0.4182 -0.1119  0.4560
 9689TIP3    H150558   4.403   1.350   0.397  1.0730 -0.8882 -0.3553
 9689TIP3    H250559   4.418   1.324   0.545 -1.6424  0.7785  0.2860
 9690TIP3   OH250560   5.029   0.065  16.956  0.3007  0.2892  0.2003
 9690TIP3    H150561   4.959   0.034  16.899 -0.2327 -0.1656  1.0844
 9690TIP3    H250562   5.086  -0.011  16.968  1.5344  0.9168 -1.3246
 9691TIP3   OH250563   0.260   5.065  12.424  0.0067 -0.5999  0.0716
 9691TIP3    H150564   0.216   5.105  12.500  0.0855  2.8662 -1.5065
 9691TIP3    H250565   0.353   5.072  12.444  0.0744  1.4537 -0.7638
 9692TIP3   OH250566   2.651   1.395   5.642  0.3913  0.3232 -0.1869
 9692TIP3    H150567   2.623   1.387   5.550 -0.5214  3.1992 -0.2707
 9692TIP3    H250568   2.578   1.440   5.685  1.5350  0.5922  1.5475
 9693TIP3   OH250569   5.849   1.041   2.579  0.2991  0.2567  0.3199
 9693TIP3    H150570   5.876   0.966   2.526  1.0990  0.3836  0.5413
 9693TIP3    H250571   5.753   1.039   2.576  0.3030  0.9978 -2.1702
 9694TIP3   OH250572   2.324   3.954  15.001 -0.0627 -0.4960 -0.3338
 9694TIP3    H150573   2.349   3.946  15.093 -0.7313  0.8715 -0.0076
 9694TIP3    H250574   2.406   3.948  14.952  0.6613  1.4838  0.5396
 9695TIP3   OH250575   1.738   6.803   2.579  0.3974 -0.4723 -0.2790
 9695TIP3    H150576   1.721   6.880   2.524  0.8494 -0.3036 -0.1896
 9695TIP3    H250577   1.737   6.838   2.668 -1.2649 -0.9030 -0.0840
 9696TIP3   OH250578   4.837   5.595  16.840 -0.8056 -0.0897  0.0655
 9696TIP3    H150579   4.746   5.625  16.844 -0.5971  0.5397  0.3477
 9696TIP3    H250580   4.844   5.529  16.909 -1.0369 -0.1073  0.0729
 9697TIP3   OH250581   6.633   1.851  15.822  0.2407  0.7278  0.2941
 9697TIP3    H150582   6.685   1.931  15.826  1.6381 -0.1674  0.8860
 9697TIP3    H250583   6.661   1.808  15.740 -1.2517  1.3020 -0.5547
 9698TIP3   OH250584   1.880   6.851   5.565  0.5999 -0.4469  0.5049
 9698TIP3    H150585   1.833   6.778   5.606 -0.2900 -0.4473 -0.4837
 9698TIP3    H250586   1.869   6.924   5.626  0.0407 -0.6742  0.6856
 9699TIP3   OH250587   1.882   0.188  12.143  0.1758  0.2234 -0.2039
 9699TIP3    H150588   1.816   0.235  12.090  0.9708 -0.0644 -1.4851
 9699TIP3    H250589   1.837   0.108  12.171  0.0661 -0.1301 -1.3428
 9700TIP3   OH250590   6.044   2.139  14.866 -0.2347 -0.2739  0.0662
 9700TIP3    H150591   5.953   2.147  14.838  0.3668  1.1776 -1.6784
 9700TIP3    H250592   6.077   2.229  14.868  1.4992 -0.8367 -0.6759
 9701TIP3   OH250593   4.273   4.086   2.085  0.1236 -0.5411 -0.1656
 9701TIP3    H150594   4.337   4.151   2.112 -0.4614 -0.0846  0.1520
 9701TIP3    H250595   4.324   4.008   2.067  0.5913 -0.8242  2.0713
 9702TIP3   OH250596   6.036   5.853  16.240  0.4458 -0.1267 -0.4965
 9702TIP3    H150597   5.968   5.865  16.174 -1.1895  1.3443  1.3322
 9702TIP3    H250598   6.051   5.759  16.242 -0.0489 -0.2815 -2.3647
 9703TIP3   OH250599   4.143   3.487  17.091 -0.5866  0.1365  0.1498
 9703TIP3    H150600   4.165   3.560  17.149 -1.0845 -0.5436  1.2207
 9703TIP3    H250601   4.084   3.525  17.025 -1.3004  0.5857  1.0304
 9704TIP3   OH250602   3.447   0.777  16.818 -0.2404  0.2195 -0.8144
 9704TIP3    H150603   3.416   0.719  16.888  1.7392 -0.5517 -0.5027
 9704TIP3    H250604   3.386   0.851  16.820 -1.4674 -0.7578  0.3224
 9705TIP3   OH250605   1.955   6.138   2.214 -0.0100  0.2494  0.5040
 9705TIP3    H150606   1.867   6.160   2.184 -0.2488 -0.6676  0.5120
 9705TIP3    H250607   1.961   6.043   2.204  1.8859  0.5181 -1.9501
 9706TIP3   OH250608   6.347   0.306   1.671 -0.0168  0.1993  0.3617
 9706TIP3    H150609   6.425   0.352   1.703 -0.1990 -0.2209  1.4686
 9706TIP3    H250610   6.276   0.370   1.682  0.0751  0.3995 -0.1589
 9707TIP3   OH250611   1.203   4.163  15.419 -0.7614  0.0052  0.4144
 9707TIP3    H150612   1.262   4.129  15.352 -0.8124 -0.9301  0.8277
 9707TIP3    H250613   1.196   4.092  15.483  0.3112  1.3299  2.1016
 9708TIP3   OH250614   0.208   2.675   5.261 -0.9331  0.2016  0.0403
 9708TIP3    H150615   0.175   2.765   5.257 -1.8417 -0.0541  1.2369
 9708TIP3    H250616   0.301   2.684   5.283 -1.2438  0.8335  1.1554
 9709TIP3   OH250617   1.322   4.663  12.079  0.1038  0.3039  0.2109
 9709TIP3    H150618   1.407   4.675  12.036 -1.3030  1.4670 -2.5008
 9709TIP3    H250619   1.267   4.731  12.041 -2.6910 -1.8581  0.1053
 9710TIP3   OH250620   0.294   6.241  11.682 -0.1538  0.3996 -0.0101
 9710TIP3    H150621   0.238   6.164  11.685 -1.1337  1.0001  4.3177
 9710TIP3    H250622   0.349   6.234  11.760  0.3641  3.5678  0.0495
 9711TIP3   OH250623   2.848   5.686  15.287  0.1488  0.1360  0.2246
 9711TIP3    H150624   2.881   5.686  15.197  2.2454  0.4675  0.9404
 9711TIP3    H250625   2.902   5.621  15.332 -2.5961 -1.9647  0.7097
 9712TIP3   OH250626   1.062   6.623   5.910  0.7186 -0.0274  0.3278
 9712TIP3    H150627   1.120   6.633   5.834 -0.5531 -2.2597 -1.0402
 9712TIP3    H250628   0.974   6.627   5.874  0.0389  0.5487  1.9641
 9713TIP3   OH250629   1.308   3.430   1.861 -0.5079 -0.3510  0.7505
 9713TIP3    H150630   1.272   3.474   1.938 -0.9345 -0.4014  0.5856
 9713TIP3    H250631   1.237   3.372   1.831  0.1814 -1.4626  1.2067
 9714TIP3   OH250632   4.706   3.782   2.890  1.1365 -0.4888  0.2286
 9714TIP3    H150633   4.728   3.821   2.975  1.6271 -2.7795  1.2442
 9714TIP3    H250634   4.754   3.834   2.826  2.3284  0.1138  1.5592
 9715TIP3   OH250635   4.008   6.692  12.447 -0.0367  0.5237 -0.0830
 9715TIP3    H150636   3.943   6.753  12.481 -0.8498 -0.5818  0.3649
 9715TIP3    H250637   4.072   6.684  12.518 -2.5121 -2.9689  2.0075
 9716TIP3   OH250638   0.896   4.382   0.676  0.3953  0.1470  0.0666
 9716TIP3    H150639   0.821   4.433   0.708 -0.2754  0.1424 -1.3809
 9716TIP3    H250640   0.967   4.445   0.670 -0.1958  0.7542 -0.9025
 9717TIP3   OH250641   4.925   6.827  13.906 -0.0017  0.7213  0.3585
 9717TIP3    H150642   4.929   6.741  13.946 -0.1388  0.5634  0.0367
 9717TIP3    H250643   5.012   6.840  13.867 -1.0526 -0.9309 -2.9632
 9718TIP3   OH250644   1.713   4.301  15.964  0.2328  0.2693 -0.0203
 9718TIP3    H150645   1.704   4.207  15.981  1.3168  0.1266 -0.1548
 9718TIP3    H250646   1.643   4.342  16.014  0.6802 -0.4988  1.2799
 9719TIP3   OH250647   0.854   3.923   2.062 -0.6261  0.0125  0.4040
 9719TIP3    H150648   0.848   3.841   2.111  1.6158 -0.5350 -0.1085
 9719TIP3    H250649   0.819   3.902   1.976  0.3403 -0.5666  0.1352
 9720TIP3   OH250650   6.279   1.023   2.354 -0.1553  0.0227 -0.0942
 9720TIP3    H150651   6.244   0.961   2.419 -0.4079  1.0807  0.8084
 9720TIP3    H250652   6.325   0.967   2.291 -0.4491 -1.0937  0.6358
 9721TIP3   OH250653   6.222   0.767  10.515 -0.0425  0.5228  0.3457
 9721TIP3    H150654   6.137   0.794  10.549  0.6336  1.8964  1.0771
 9721TIP3    H250655   6.219   0.790  10.422 -0.4467  0.6365  0.3843
 9722TIP3   OH250656   5.387   3.160  11.723  0.3096 -0.3329 -0.0579
 9722TIP3    H150657   5.455   3.225  11.738  1.3930 -1.7691  1.6773
 9722TIP3    H250658   5.423   3.103  11.655  0.9243 -1.1326  0.9079
 9723TIP3   OH250659   4.811   0.299  10.931 -0.1838 -0.0656 -0.0902
 9723TIP3    H150660   4.750   0.371  10.942  0.0049 -0.1934  2.2949
 9723TIP3    H250661   4.760   0.230  10.889 -1.0282  0.5905 -0.1720
 9724TIP3   OH250662   6.140   4.322  13.538  0.2133 -0.3123 -0.4283
 9724TIP3    H150663   6.172   4.323  13.448  0.0796  0.7166 -0.4763
 9724TIP3    H250664   6.196   4.383  13.585 -2.1511  2.2722 -0.7113
 9725TIP3   OH250665   4.771   1.012   4.220 -0.3996  0.4738  0.4171
 9725TIP3    H150666   4.754   0.944   4.155  0.1792  0.6403  0.0809
 9725TIP3    H250667   4.707   0.997   4.289  0.7404 -1.4324  1.1309
 9726TIP3   OH250668   1.585   6.203  15.458  0.0191 -0.0950  0.1453
 9726TIP3    H150669   1.559   6.266  15.524  0.0123  0.0563 -0.0001
 9726TIP3    H250670   1.533   6.226  15.381 -0.0907 -0.3708  0.1376
 9727TIP3   OH250671   2.318   2.947  11.632 -0.4289  0.0539 -0.1490
 9727TIP3    H150672   2.346   2.960  11.722  3.4749  2.7099 -1.4695
 9727TIP3    H250673   2.321   2.852  11.619 -0.1391 -0.3167  2.2223
 9728TIP3   OH250674   2.870   3.141   1.751  0.4294  0.4662  0.6458
 9728TIP3    H150675   2.786   3.099   1.768 -0.8309  1.2484 -2.8162
 9728TIP3    H250676   2.915   3.080   1.692  1.5411  0.8617  1.0665
 9729TIP3   OH250677   2.997   3.154  12.710  0.2907  0.2470 -0.1274
 9729TIP3    H150678   3.047   3.072  12.710  1.7687  1.0819 -1.6130
 9729TIP3    H250679   3.000   3.183  12.619 -1.0962  1.4555  0.1777
 9730TIP3   OH250680   6.635   0.134  16.361  0.1888 -0.2984 -0.0230
 9730TIP3    H150681   6.585   0.210  16.391  1.4575  0.1649  1.0527
 9730TIP3    H250682   6.726   0.166  16.358  0.6246 -1.5333 -0.4277
 9731TIP3   OH250683   1.236   0.158  14.208  0.2060 -0.1549  0.8125
 9731TIP3    H150684   1.327   0.177  14.232  0.6364  0.1322 -0.8645
 9731TIP3    H250685   1.192   0.243  14.211 -0.2178 -0.4054  2.3436
 9732TIP3   OH250686   3.078   4.928  11.826  0.3826 -0.5307  0.3141
 9732TIP3    H150687   3.007   4.889  11.773 -1.4555  0.4159  1.9559
 9732TIP3    H250688   3.136   4.968  11.762 -0.1060 -2.0275 -1.1501
 9733TIP3   OH250689   2.449   5.090   3.897  0.2543  0.2248 -0.1102
 9733TIP3    H150690   2.524   5.078   3.955 -0.8991 -0.9795  1.1918
 9733TIP3    H250691   2.429   5.002   3.865 -1.7967  0.1863  1.1247
 9734TIP3   OH250692   5.617   0.382   2.702  0.4305 -0.2393  0.3122
 9734TIP3    H150693   5.540   0.406   2.650 -0.8973 -0.5287  2.0602
 9734TIP3    H250694   5.689   0.427   2.659 -0.9719  1.4761 -0.3770
 9735TIP3   OH250695   0.887   2.036   4.160  0.2023 -0.5423 -0.3763
 9735TIP3    H150696   0.912   2.046   4.068 -1.2384 -0.3365 -0.7689
 9735TIP3    H250697   0.970   2.030   4.207  0.9560 -1.1375 -1.7413
 9736TIP3   OH250698   5.344   3.811  12.977  0.0938 -0.5994 -0.2274
 9736TIP3    H150699   5.292   3.847  13.049 -0.8167 -0.0235 -1.1505
 9736TIP3    H250700   5.433   3.803  13.013  0.2648  2.2226  0.1432
 9737TIP3   OH250701   1.659   0.717   4.635 -0.0087  0.2966 -0.3547
 9737TIP3    H150702   1.725   0.744   4.571  1.3300  1.9752  1.5964
 9737TIP3    H250703   1.709   0.684   4.709 -1.4042  0.3819  0.6620
 9738TIP3   OH250704   6.472   4.335   4.444  0.2066  0.0523  0.6510
 9738TIP3    H150705   6.469   4.240   4.458 -1.5433 -0.0323 -0.0258
 9738TIP3    H250706   6.411   4.350   4.372  0.1553  1.7437  1.0083
 9739TIP3   OH250707   5.902   3.834  13.709  0.4997 -0.0367  0.0754
 9739TIP3    H150708   5.943   3.916  13.681  0.0337  0.3960  0.6065
 9739TIP3    H250709   5.973   3.784  13.749  0.7819  0.1214 -0.2237
 9740TIP3   OH250710   2.177   5.069   0.664  0.5099 -0.1913 -0.2102
 9740TIP3    H150711   2.184   5.091   0.571  0.8430  1.8704  0.2596
 9740TIP3    H250712   2.267   5.064   0.694  0.4007 -0.8259  0.0177
 9741TIP3   OH250713   6.775   0.973  14.779 -0.2601  0.0206 -0.1261
 9741TIP3    H150714   6.735   0.981  14.866  0.8021  1.7621  0.2652
 9741TIP3    H250715   6.743   1.050  14.731  2.2576  1.3234  0.1095
 9742TIP3   OH250716   6.732   2.360  15.369 -0.4067  0.0812  0.2570
 9742TIP3    H150717   6.768   2.279  15.332 -0.5218  0.1184  0.0576
 9742TIP3    H250718   6.775   2.429  15.319  0.5262  0.1810  1.1838
 9743TIP3   OH250719   1.105   1.632  15.665 -0.0069  0.0379  0.0851
 9743TIP3    H150720   1.193   1.600  15.683 -0.0767  0.5446  1.4558
 9743TIP3    H250721   1.060   1.558  15.626 -0.1210 -1.5475  3.0053
 9744TIP3   OH250722   5.750   2.798  10.482 -0.1666  0.4174 -0.1947
 9744TIP3    H150723   5.728   2.860  10.413 -1.8558 -0.2551 -0.3324
 9744TIP3    H250724   5.688   2.818  10.552  1.0053  0.5745  0.8271
 9745TIP3   OH250725   2.526   2.219  12.572  0.3181 -0.1677  0.0076
 9745TIP3    H150726   2.435   2.230  12.600 -0.4048  1.1397 -2.5594
 9745TIP3    H250727   2.536   2.125  12.560 -0.3598 -0.4262  1.2644
 9746TIP3   OH250728   2.099   3.753  16.107  0.4001  0.4291  0.5609
 9746TIP3    H150729   2.070   3.710  16.187  0.1995 -0.2540  0.1331
 9746TIP3    H250730   2.072   3.693  16.037 -0.0542  1.3461 -0.0641
 9747TIP3   OH250731   0.722   6.340  13.029  0.3626 -0.2896  0.1292
 9747TIP3    H150732   0.691   6.347  12.939 -0.6013  2.3873  0.5905
 9747TIP3    H250733   0.646   6.309  13.079  0.1437  0.6186  0.3735
 9748TIP3   OH250734   0.571   3.110   2.342  0.2657  0.3516  0.0490
 9748TIP3    H150735   0.523   3.134   2.421  1.4621  2.7311  0.1456
 9748TIP3    H250736   0.652   3.071   2.374 -0.5982 -1.6702 -0.0947
 9749TIP3   OH250737   4.436   2.753  12.097 -0.0901 -0.1765 -0.9716
 9749TIP3    H150738   4.461   2.804  12.020 -2.5136  0.9187 -1.1369
 9749TIP3    H250739   4.340   2.750  12.094 -0.1894 -1.5474  1.1059
 9750TIP3   OH250740   3.368   5.226   1.279 -0.7485  0.2422 -0.1330
 9750TIP3    H150741   3.414   5.308   1.298 -0.7887  0.1436  0.4169
 9750TIP3    H250742   3.424   5.180   1.216  0.4844 -0.3750  1.3482
 9751TIP3   OH250743   2.975   3.548  14.455 -0.2674  0.1289 -0.1417
 9751TIP3    H150744   2.953   3.471  14.508  2.9367 -1.3049 -0.6892
 9751TIP3    H250745   3.042   3.594  14.506 -0.7193  1.4845 -0.7380
 9752TIP3   OH250746   5.745   2.200   5.497  0.2672 -0.7287 -0.2018
 9752TIP3    H150747   5.739   2.294   5.479 -0.2130 -0.5264  0.8817
 9752TIP3    H250748   5.771   2.161   5.414  0.8284  0.3995 -0.5794
 9753TIP3   OH250749   0.676   5.466   1.725  0.1047 -0.7089 -0.1520
 9753TIP3    H150750   0.668   5.433   1.814 -0.6559 -0.4563 -0.1156
 9753TIP3    H250751   0.686   5.561   1.736 -0.7874 -0.5811 -0.3511
 9754TIP3   OH250752   4.774   5.616   6.274 -0.7647 -0.0731  0.1256
 9754TIP3    H150753   4.789   5.545   6.336 -1.7675 -1.4149 -1.0917
 9754TIP3    H250754   4.847   5.676   6.288 -1.1690 -0.1233  2.8191
 9755TIP3   OH250755   0.435   2.028   1.133 -0.3494  0.9005  0.2546
 9755TIP3    H150756   0.469   2.036   1.044 -0.6813 -1.6131 -0.1830
 9755TIP3    H250757   0.492   2.085   1.186  0.9656  1.0911 -1.2968
 9756TIP3   OH250758   0.018   4.137  10.879  0.6219  0.5845  0.0139
 9756TIP3    H150759   0.057   4.218  10.910  0.1064  0.5648  0.7421
 9756TIP3    H250760  -0.051   4.165  10.819  0.2938  0.6942  0.4399
 9757TIP3   OH250761   5.322   0.233  14.264 -0.4170 -0.1412 -0.3604
 9757TIP3    H150762   5.341   0.253  14.172  0.0726 -0.1209 -0.2582
 9757TIP3    H250763   5.247   0.175  14.261  0.2819 -1.0454 -0.8392
 9758TIP3   OH250764   3.750   1.416   5.607 -0.1313 -0.0711 -0.3856
 9758TIP3    H150765   3.680   1.364   5.567 -1.8724  0.6173  1.6123
 9758TIP3    H250766   3.747   1.393   5.700  1.9400  0.4137 -0.1570
 9759TIP3   OH250767   1.855   2.780  14.893  0.8994 -0.0950 -0.9616
 9759TIP3    H150768   1.883   2.731  14.816  0.2383 -1.5349 -0.3292
 9759TIP3    H250769   1.784   2.727  14.930 -0.2694  1.6539 -0.5682
 9760TIP3   OH250770   3.216   0.708  13.894 -0.4137  0.2176 -0.3486
 9760TIP3    H150771   3.147   0.667  13.841 -0.0504 -0.7585 -0.0967
 9760TIP3    H250772   3.297   0.673  13.857 -0.1408 -0.2069  0.6193
 9761TIP3   OH250773   6.166   1.210  10.993  0.5623  0.3044  0.3369
 9761TIP3    H150774   6.091   1.183  11.046  1.0436 -0.5993  0.5869
 9761TIP3    H250775   6.129   1.233  10.908 -0.2671  2.0477  1.1222
 9762TIP3   OH250776   2.154   3.634  13.242 -0.0731  0.3904  0.6986
 9762TIP3    H150777   2.212   3.629  13.318  1.7952 -0.0734 -0.6788
 9762TIP3    H250778   2.199   3.693  13.181 -1.4346  0.6098 -0.1363
 9763TIP3   OH250779   0.703   6.067  13.404  0.4589  0.5585 -0.0211
 9763TIP3    H150780   0.618   6.044  13.366  0.8809 -2.5995  0.6435
 9763TIP3    H250781   0.685   6.081  13.497  0.3067  2.5263 -0.3205
 9764TIP3   OH250782   3.755   1.608   0.437  0.2373  0.2310  0.2792
 9764TIP3    H150783   3.745   1.664   0.360  0.0409 -0.9995 -0.6203
 9764TIP3    H250784   3.688   1.639   0.498 -1.2189 -0.2830 -1.0008
 9765TIP3   OH250785   2.354   0.863   4.997  0.2944  0.1483  0.2835
 9765TIP3    H150786   2.408   0.797   5.041 -0.6025 -0.2559  0.7897
 9765TIP3    H250787   2.292   0.892   5.064 -0.3962  0.3041 -0.4094
 9766TIP3   OH250788   6.225   3.823  12.749  0.2138  0.1008  0.0943
 9766TIP3    H150789   6.280   3.752  12.783  0.7211  0.1291 -0.6319
 9766TIP3    H250790   6.285   3.877  12.698 -0.3043  0.6877  0.0990
 9767TIP3   OH250791   5.135   3.708  16.398 -0.2984 -0.3211  1.1939
 9767TIP3    H150792   5.201   3.673  16.338 -0.1766 -2.5102  2.4729
 9767TIP3    H250793   5.090   3.777  16.349  0.5654 -1.2235 -0.9523
 9768TIP3   OH250794   1.293   2.881  12.502  0.0258 -0.0450 -0.1479
 9768TIP3    H150795   1.252   2.962  12.532  0.0561 -0.0351 -0.1333
 9768TIP3    H250796   1.375   2.876  12.550  1.3564  1.3021 -2.1465
 9769TIP3   OH250797   1.608   6.286  16.449  0.1042 -0.1305  0.3914
 9769TIP3    H150798   1.547   6.276  16.376  2.1125  0.2485 -1.4460
 9769TIP3    H250799   1.665   6.358  16.422  0.3670  0.6368  2.7844
 9770TIP3   OH250800   4.929   6.083  16.080 -1.0792 -0.6624  0.5557
 9770TIP3    H150801   4.947   6.084  15.986 -1.0450 -1.3068  0.5485
 9770TIP3    H250802   4.869   6.156  16.094  0.1277  0.4236  0.2927
 9771TIP3   OH250803   3.163   5.270  14.679  0.0028  0.2549  0.0515
 9771TIP3    H150804   3.153   5.365  14.686  1.3190  0.4064  0.1117
 9771TIP3    H250805   3.161   5.253  14.585  1.0905  0.5109 -0.0235
 9772TIP3   OH250806   0.419   2.694  13.443 -0.0151 -0.6627 -0.1224
 9772TIP3    H150807   0.481   2.662  13.508 -0.5831 -0.1608  0.6961
 9772TIP3    H250808   0.361   2.620  13.426  0.5586 -1.0124 -0.5977
 9773TIP3   OH250809   0.757   1.615   0.297  0.1340 -0.0930  0.1130
 9773TIP3    H150810   0.718   1.559   0.363 -0.5778  0.1389 -0.1013
 9773TIP3    H250811   0.687   1.631   0.234  0.4820  0.5851 -0.1157
 9774TIP3   OH250812   6.820   5.112  10.732  0.3219 -0.5619  1.0507
 9774TIP3    H150813   6.902   5.161  10.734  0.0525  0.0052 -0.3477
 9774TIP3    H250814   6.812   5.074  10.819  0.6049  1.7485  2.1390
 9775TIP3   OH250815   3.046   3.282   5.148 -0.0940  0.3017  0.3566
 9775TIP3    H150816   2.987   3.255   5.219 -0.0680 -0.3081  0.1471
 9775TIP3    H250817   3.077   3.369   5.175 -0.5017  0.3045  0.8314
 9776TIP3   OH250818   1.439   6.787  16.702 -0.3900  0.6132 -0.5288
 9776TIP3    H150819   1.517   6.792  16.646 -0.6290  0.8493 -0.8420
 9776TIP3    H250820   1.435   6.695  16.729 -1.8333 -0.2073 -3.1492
 9777TIP3   OH250821   2.837   3.427  14.025 -0.1570  0.1758  0.3897
 9777TIP3    H150822   2.865   3.483  14.097  1.3882 -0.7289  0.5549
 9777TIP3    H250823   2.883   3.461  13.949 -2.2352  1.4872 -0.3416
 9778TIP3   OH250824   2.646   1.825   3.331  0.0463 -0.2647 -0.2480
 9778TIP3    H150825   2.639   1.830   3.236 -1.5499  0.3293 -0.1168
 9778TIP3    H250826   2.610   1.739   3.354  0.5268 -0.4525 -0.1677
 9779TIP3   OH250827   4.258   2.212   2.100 -0.7355 -0.0841  0.0004
 9779TIP3    H150828   4.205   2.259   2.035 -1.2766 -1.6039 -0.7076
 9779TIP3    H250829   4.227   2.122   2.094  0.0830 -0.4826  1.5161
 9780TIP3   OH250830   4.263   2.673   5.209  0.1137  0.3684  0.2689
 9780TIP3    H150831   4.237   2.584   5.235  0.3248  0.5527  1.1500
 9780TIP3    H250832   4.327   2.699   5.275  0.6516  0.8828 -0.4386
 9781TIP3   OH250833   6.099   0.915   4.545 -0.1324  0.5330 -1.1563
 9781TIP3    H150834   6.119   0.947   4.633  0.2544  2.9891 -2.0288
 9781TIP3    H250835   6.150   0.835   4.536 -1.0627 -0.4156  1.2083
 9782TIP3   OH250836   1.169   0.285  14.540  0.3419  0.5139 -0.6702
 9782TIP3    H150837   1.141   0.375  14.524  3.4029  1.7723  0.3665
 9782TIP3    H250838   1.207   0.287  14.628  1.9912 -1.3812 -1.2789
 9783TIP3   OH250839   6.198   3.252  14.472 -0.4443  0.2802 -0.7036
 9783TIP3    H150840   6.241   3.300  14.401  0.2547  0.3933 -0.2175
 9783TIP3    H250841   6.139   3.316  14.513  1.0377  0.9925  0.4227
 9784TIP3   OH250842   4.655   2.953   2.832  0.2183 -0.4012 -0.1996
 9784TIP3    H150843   4.693   2.865   2.837  1.1838  0.0598  0.8835
 9784TIP3    H250844   4.573   2.940   2.784  0.8974 -1.6998 -1.0834
 9785TIP3   OH250845   3.867   1.189   4.016 -0.6038 -0.9561 -0.2652
 9785TIP3    H150846   3.821   1.160   3.938 -0.9776 -0.0079 -0.4168
 9785TIP3    H250847   3.941   1.240   3.983 -1.0821 -0.0731 -0.0191
 9786TIP3   OH250848   6.093   0.542  16.344  0.4304  0.3245 -0.8530
 9786TIP3    H150849   6.080   0.460  16.391  0.2556 -1.3731 -3.6333
 9786TIP3    H250850   6.017   0.550  16.287 -0.1554  3.1110  0.1605
 9787TIP3   OH250851   3.208   4.681   4.383 -0.0025  0.2556 -0.4214
 9787TIP3    H150852   3.133   4.622   4.391 -1.6535  2.3190  0.1353
 9787TIP3    H250853   3.217   4.695   4.288 -1.1469  0.9648 -0.4414
 9788TIP3   OH250854   2.706   0.495   4.598 -0.4494 -0.0527  0.1949
 9788TIP3    H150855   2.759   0.444   4.537 -0.1963 -0.3623  0.6622
 9788TIP3    H250856   2.698   0.581   4.558  0.2636 -0.0549  0.0402
 9789TIP3   OH250857   3.012   5.665   4.617  0.1209  0.4683  0.0422
 9789TIP3    H150858   3.071   5.590   4.613 -1.4198 -0.8021  0.3099
 9789TIP3    H250859   3.066   5.736   4.654  2.9138  0.8558 -4.0970
 9790TIP3   OH250860   2.262   6.850   6.183 -0.2265 -0.4625  0.1244
 9790TIP3    H150861   2.342   6.899   6.169 -0.4299 -0.0396  0.4156
 9790TIP3    H250862   2.223   6.888   6.262 -0.9817 -0.2965 -0.3098
 9791TIP3   OH250863   1.703   4.555  13.016 -0.3204 -0.0812  0.4465
 9791TIP3    H150864   1.780   4.612  13.015 -1.2832  1.3456 -1.9462
 9791TIP3    H250865   1.738   4.467  12.999  0.7921  0.5633 -0.7430
 9792TIP3   OH250866   5.905   5.835   3.931  0.1066 -0.1423 -0.0419
 9792TIP3    H150867   5.926   5.928   3.920 -0.0495 -0.0322  0.5221
 9792TIP3    H250868   5.864   5.810   3.849 -1.3300  0.7169  0.3673
 9793TIP3   OH250869   0.943   5.274  12.059  0.0117 -0.1308  0.7291
 9793TIP3    H150870   1.028   5.285  12.016 -1.5724  2.7347 -2.0263
 9793TIP3    H250871   0.884   5.248  11.988 -1.7375 -0.6975  2.3193
 9794TIP3   OH250872   3.724   2.581  13.638 -0.0598  0.0785  0.1549
 9794TIP3    H150873   3.818   2.591  13.624 -0.2292  1.0378 -0.3632
 9794TIP3    H250874   3.708   2.622  13.723 -0.2023  1.0854 -0.3482
 9795TIP3   OH250875   3.589   5.155  13.104 -0.0300 -0.2878 -0.4223
 9795TIP3    H150876   3.608   5.212  13.030  0.5011 -1.5244 -1.2781
 9795TIP3    H250877   3.628   5.071  13.080  0.0171 -0.7627  1.2059
 9796TIP3   OH250878   4.816   6.347  13.662 -0.2482  0.2873  0.4497
 9796TIP3    H150879   4.720   6.344  13.658 -0.2088 -0.2359 -0.1472
 9796TIP3    H250880   4.840   6.269  13.712 -0.2122  1.4263  2.3163
 9797TIP3   OH250881   6.295   4.292   2.919 -0.2469 -0.2679 -0.0167
 9797TIP3    H150882   6.343   4.344   2.855  0.5914  0.5961  1.2631
 9797TIP3    H250883   6.300   4.343   3.000 -0.8324 -1.5644  0.8714
 9798TIP3   OH250884   0.355   2.598  16.413  0.2271 -0.4078  0.4285
 9798TIP3    H150885   0.443   2.583  16.379 -0.2807 -0.1669 -1.0801
 9798TIP3    H250886   0.299   2.541  16.361 -0.5733 -0.1360  0.9767
 9799TIP3   OH250887   1.819   2.140  12.476 -0.2243 -0.1392  0.0540
 9799TIP3    H150888   1.786   2.229  12.463 -0.7957 -0.4273 -0.5598
 9799TIP3    H250889   1.747   2.094  12.518  0.5547  0.0168  1.6262
 9800TIP3   OH250890   5.739   1.314   5.583  0.0722  0.9097  0.4226
 9800TIP3    H150891   5.711   1.384   5.524 -0.8386  0.4766  0.3234
 9800TIP3    H250892   5.686   1.327   5.662 -1.2809 -0.5856 -0.1872
 9801TIP3   OH250893   3.541   6.505   6.302 -0.6981 -0.0508  0.0682
 9801TIP3    H150894   3.463   6.531   6.352 -0.0558 -0.2055  1.1816
 9801TIP3    H250895   3.611   6.500   6.368  0.5345  1.2564 -1.0863
 9802TIP3   OH250896   3.872   5.797   0.541 -0.4457 -0.0206 -0.0089
 9802TIP3    H150897   3.963   5.817   0.516  0.6110 -1.4744  2.2832
 9802TIP3    H250898   3.875   5.793   0.636 -2.7675 -0.9648  0.0659
 9803TIP3   OH250899   0.966   2.653   4.389 -0.2040 -0.1700  0.2010
 9803TIP3    H150900   1.052   2.666   4.350 -0.4392 -1.9905 -1.0324
 9803TIP3    H250901   0.921   2.736   4.377  0.0982 -0.3237 -2.5326
 9804TIP3   OH250902   6.199   2.346   0.332  0.0764  0.1250 -0.8120
 9804TIP3    H150903   6.125   2.406   0.340 -0.4992 -0.2472 -2.7443
 9804TIP3    H250904   6.171   2.268   0.381 -0.6311  0.1774 -1.1087
 9805TIP3   OH250905   3.203   4.747   4.110 -0.2610 -0.4960  0.0998
 9805TIP3    H150906   3.233   4.835   4.135  1.7781 -1.2149  0.3734
 9805TIP3    H250907   3.236   4.735   4.021 -0.1897 -1.1145  0.2022
 9806TIP3   OH250908   4.021   1.913   5.470  0.6904 -0.2454 -0.5841
 9806TIP3    H150909   3.928   1.922   5.450  0.4076  0.9549  1.0731
 9806TIP3    H250910   4.061   1.992   5.436  0.9432 -0.3322 -0.4919
 9807TIP3   OH250911   5.840   2.712  15.288 -0.8726  0.4914 -0.1254
 9807TIP3    H150912   5.830   2.774  15.215 -0.8164 -1.7899 -2.1933
 9807TIP3    H250913   5.807   2.629  15.254  3.1962 -1.8122  0.8004
 9808TIP3   OH250914   2.525   0.705  13.128  0.6834 -0.2667  0.7864
 9808TIP3    H150915   2.621   0.708  13.125  0.6863 -0.6634  0.1007
 9808TIP3    H250916   2.499   0.794  13.148  1.1421  0.4691 -1.5269
 9809TIP3   OH250917   3.144   5.275   1.418 -0.1125 -0.2312  0.1899
 9809TIP3    H150918   3.184   5.245   1.500 -1.6684 -0.9559  0.7191
 9809TIP3    H250919   3.209   5.253   1.351  1.4289  0.8533  1.2357
 9810TIP3   OH250920   6.730   2.526  16.979 -0.1320 -0.1860 -0.2367
 9810TIP3    H150921   6.640   2.514  16.951  0.4839 -0.7655 -2.1030
 9810TIP3    H250922   6.777   2.451  16.943  1.3960  0.9781 -0.7686
 9811TIP3   OH250923   5.729   3.103  12.785 -0.3411  0.8028  0.8374
 9811TIP3    H150924   5.669   3.069  12.851 -0.8488 -2.2932 -0.9987
 9811TIP3    H250925   5.805   3.133  12.834 -0.5284 -1.6993  2.8499
 9812TIP3   OH250926   4.292   0.019   5.009 -0.0625 -0.5688  0.3530
 9812TIP3    H150927   4.366   0.036   5.067  0.7767 -0.3117 -0.7637
 9812TIP3    H250928   4.233   0.093   5.023  1.7519  1.3960 -1.6166
 9813TIP3   OH250929   6.553   6.162   2.808  0.4293 -0.3150 -0.0139
 9813TIP3    H150930   6.520   6.203   2.888  0.8764  0.1017 -0.0407
 9813TIP3    H250931   6.533   6.225   2.739 -0.9811 -1.1596 -0.4220
 9814TIP3   OH250932   4.293   4.689   1.129  0.4454  0.2161  0.1725
 9814TIP3    H150933   4.289   4.772   1.082 -1.0474 -0.3052 -0.6833
 9814TIP3    H250934   4.386   4.677   1.148  0.6839  2.0976  0.3819
 9815TIP3   OH250935   5.303   2.451   4.279  0.0772 -0.1128  0.4280
 9815TIP3    H150936   5.369   2.468   4.211  0.6682 -1.4856  0.6115
 9815TIP3    H250937   5.349   2.397   4.343 -1.7045 -2.8282 -0.4144
 9816TIP3   OH250938   4.856   1.963  15.490  0.0809  0.4555  0.1838
 9816TIP3    H150939   4.933   1.953  15.434  0.6439  0.5645  0.9194
 9816TIP3    H250940   4.875   1.908  15.566 -1.2065 -0.6683 -0.2673
 9817TIP3   OH250941   2.395   4.785  13.000 -0.4420 -0.0467 -0.3786
 9817TIP3    H150942   2.423   4.736  12.923  3.3562  1.4264 -0.1663
 9817TIP3    H250943   2.438   4.742  13.074  0.2001  1.5179  0.2139
 9818TIP3   OH250944   2.021   0.056  14.148 -0.0227 -0.8174  0.4144
 9818TIP3    H150945   2.077  -0.017  14.174  0.8879 -0.1255  0.4329
 9818TIP3    H250946   1.991   0.033  14.060 -0.9715 -1.9129  1.0040
 9819TIP3   OH250947   0.215   2.546  13.008  0.0933 -0.2193 -0.2647
 9819TIP3    H150948   0.150   2.608  13.042 -1.3197 -1.4255 -0.6504
 9819TIP3    H250949   0.184   2.461  13.037  2.4037 -0.7496  0.8959
 9820TIP3   OH250950   6.015   2.773   2.617 -0.1326 -0.2334 -0.0470
 9820TIP3    H150951   5.926   2.792   2.648  1.1272  0.3856  3.7143
 9820TIP3    H250952   6.049   2.857   2.588 -1.2320 -0.7732 -3.3049
 9821TIP3   OH250953   5.172   3.586  15.535  0.2167  0.1030 -0.5011
 9821TIP3    H150954   5.105   3.641  15.495  0.2644 -0.6212 -1.6424
 9821TIP3    H250955   5.242   3.647  15.558 -0.9791  0.9296  1.1211
 9822TIP3   OH250956   5.492   5.973   1.832 -0.3151  0.3141  0.5629
 9822TIP3    H150957   5.526   6.052   1.791 -1.5815  0.3985 -0.3607
 9822TIP3    H250958   5.428   5.939   1.771 -1.1377 -0.4159  1.7837
 9823TIP3   OH250959   0.110   2.383   4.843 -0.5706 -0.1986  0.6194
 9823TIP3    H150960   0.159   2.330   4.780 -1.1904 -0.4953  0.3842
 9823TIP3    H250961   0.026   2.399   4.801 -0.9010 -0.1947  1.2706
 9824TIP3   OH250962   4.750   4.840   5.998 -0.0920  0.3521  0.1743
 9824TIP3    H150963   4.753   4.932   6.023 -0.0040  0.1295  1.0101
 9824TIP3    H250964   4.772   4.792   6.078  0.5461 -0.3729 -0.4209
 9825TIP3   OH250965   3.482   0.704  16.093  0.5953 -0.3002  0.1301
 9825TIP3    H150966   3.456   0.731  16.005  1.1193 -0.7371 -0.1686
 9825TIP3    H250967   3.404   0.718  16.146 -0.1165 -1.1427 -0.6417
 9826TIP3   OH250968   4.652   5.624   3.004 -0.2911 -0.5467 -0.2137
 9826TIP3    H150969   4.639   5.633   2.910 -1.5010 -0.0351 -0.0136
 9826TIP3    H250970   4.719   5.690   3.026 -2.7112  2.0718 -0.1555
 9827TIP3   OH250971   3.813   2.214   2.865 -0.0329  0.2120  0.3968
 9827TIP3    H150972   3.812   2.309   2.875  1.0055  0.4012 -1.0815
 9827TIP3    H250973   3.906   2.190   2.866 -0.2569 -0.7316  0.2328
 9828TIP3   OH250974   2.747   6.211  14.232  0.0412  0.1449  0.1661
 9828TIP3    H150975   2.687   6.282  14.259  1.1679  1.7111 -1.2524
 9828TIP3    H250976   2.690   6.135  14.219 -1.0648  0.3719  2.9250
 9829TIP3   OH250977   0.548   0.867  13.465  0.1430  0.1395 -0.5806
 9829TIP3    H150978   0.531   0.790  13.410 -1.0107  0.4371 -0.6649
 9829TIP3    H250979   0.461   0.898  13.491  0.6493  0.2222  1.1288
 9830TIP3   OH250980   1.017   5.887   0.235 -0.4445 -0.6902  0.0157
 9830TIP3    H150981   0.973   5.872   0.151  1.1914  0.6285 -1.1419
 9830TIP3    H250982   0.982   5.819   0.292 -0.9292 -2.2427 -1.9895
 9831TIP3   OH250983   4.754   0.494   2.477 -0.1301 -0.4826 -0.4869
 9831TIP3    H150984   4.846   0.513   2.496 -0.2134  0.2844 -0.8083
 9831TIP3    H250985   4.757   0.447   2.394  0.1209 -2.4888  0.5939
 9832TIP3   OH250986   1.094   5.679  13.529 -0.1482  0.4396  0.0688
 9832TIP3    H150987   1.069   5.589  13.507  0.4329  0.4123 -0.5233
 9832TIP3    H250988   1.023   5.733  13.492 -1.3800  0.1535  1.8937
 9833TIP3   OH250989   1.657   4.905  13.149  0.1206 -0.4215 -0.4368
 9833TIP3    H150990   1.695   4.979  13.196 -1.2426  0.7549 -1.0762
 9833TIP3    H250991   1.731   4.851  13.123  1.1067  0.4289  0.5274
 9834TIP3   OH250992   0.968   5.624  16.908  0.2856 -0.2351 -0.1489
 9834TIP3    H150993   1.017   5.547  16.940  2.3936  1.4302  0.8934
 9834TIP3    H250994   0.968   5.684  16.983  0.8385  1.7338 -1.6575
 9835TIP3   OH250995   1.644   2.671  13.165  0.0473  0.4664  0.1169
 9835TIP3    H150996   1.613   2.605  13.104  1.5186 -1.4618  1.3442
 9835TIP3    H250997   1.649   2.752  13.114 -0.8681 -0.5728 -1.6873
 9836TIP3   OH250998   2.890   4.599  13.698 -0.1665 -0.0881  0.0404
 9836TIP3    H150999   2.883   4.615  13.604 -0.7742 -1.5972 -0.2014
 9836TIP3    H251000   2.852   4.677  13.739  0.6325  0.8384 -0.9398
 9837TIP3   OH251001   2.612   2.143   3.546 -0.1196  0.3908 -0.1264
 9837TIP3    H151002   2.705   2.157   3.565 -0.3532  0.8428  0.7373
 9837TIP3    H251003   2.567   2.216   3.590 -0.7457  1.2161 -2.0452
 9838TIP3   OH251004   5.326   3.597  16.742 -0.4509  0.0729  0.2032
 9838TIP3    H151005   5.369   3.669  16.789 -1.5567  0.1679  1.1136
 9838TIP3    H251006   5.234   3.603  16.768 -1.3127  0.7070 -2.7372
 9839TIP3   OH251007   2.181   1.393   0.216  0.7656 -0.0930 -0.3293
 9839TIP3    H151008   2.229   1.368   0.295  0.8257 -1.5608 -0.7886
 9839TIP3    H251009   2.106   1.444   0.248  0.1799 -1.5740  0.7950
 9840TIP3   OH251010   5.101   2.989  14.151 -0.1145 -0.0879  0.1699
 9840TIP3    H151011   5.086   3.056  14.218  0.8855 -0.8616  1.1997
 9840TIP3    H251012   5.020   2.938  14.150 -0.1349 -0.0810  0.8137
 9841TIP3   OH251013   2.234   5.839   5.300 -0.2500  0.1454  0.7865
 9841TIP3    H151014   2.197   5.877   5.380  1.3568  1.1638  1.0745
 9841TIP3    H251015   2.310   5.788   5.329 -0.6644 -0.9397  0.0745
 9842TIP3   OH251016   1.628   4.069  16.089  0.1460 -0.3855 -0.2531
 9842TIP3    H151017   1.703   4.062  16.148  0.4713 -1.9815 -0.7965
 9842TIP3    H251018   1.559   4.017  16.132 -0.1064 -0.2960 -0.5481
 9843TIP3   OH251019   0.079   4.264  12.735  0.5001 -0.1638 -0.2948
 9843TIP3    H151020  -0.016   4.263  12.729  0.4995  1.7005 -1.5822
 9843TIP3    H251021   0.099   4.325  12.806  0.7529 -0.8943  0.2772
 9844TIP3   OH251022   3.673   6.115  14.773  0.0958 -0.6227 -0.3227
 9844TIP3    H151023   3.744   6.164  14.813  0.0846 -0.5160 -0.4310
 9844TIP3    H251024   3.595   6.139  14.823  0.0311 -0.2619 -0.5916
 9845TIP3   OH251025   6.072   4.411   5.117  0.0812  0.0196 -1.0237
 9845TIP3    H151026   6.128   4.488   5.117 -0.7275  0.9021  3.5187
 9845TIP3    H251027   6.108   4.354   5.184 -2.1152 -1.2810 -0.8270
 9846TIP3   OH251028   5.862   5.082   5.481 -0.6570 -0.0623 -0.3163
 9846TIP3    H151029   5.947   5.092   5.439 -0.2657  1.8897  0.8219
 9846TIP3    H251030   5.881   5.087   5.575 -1.8331 -1.4066  0.0223
 9847TIP3   OH251031   1.133   5.703  11.196 -0.0519 -0.3500  0.5170
 9847TIP3    H151032   1.166   5.786  11.230  0.6190 -0.3340 -0.1342
 9847TIP3    H251033   1.210   5.661  11.157 -0.4465 -1.1386  0.5743
 9848TIP3   OH251034   5.696   4.048   1.150 -0.4671  0.3207 -0.4344
 9848TIP3    H151035   5.743   3.985   1.096 -1.1972  0.6070 -1.4454
 9848TIP3    H251036   5.629   3.995   1.195  0.2991  0.0420  0.3920
 9849TIP3   OH251037   2.558   0.555  14.180  0.2750  0.1920 -0.6483
 9849TIP3    H151038   2.589   0.476  14.225 -1.1585 -0.5365 -0.8927
 9849TIP3    H251039   2.495   0.594  14.240  0.5864  0.8688 -0.7558
 9850TIP3   OH251040   1.744   3.723  12.865 -0.8121  0.3168  0.2001
 9850TIP3    H151041   1.687   3.670  12.920 -1.4493 -0.1337 -0.8718
 9850TIP3    H251042   1.816   3.663  12.841 -0.1484  0.7239  1.1035
 9851TIP3   OH251043   6.042   2.664  14.984 -0.0773  0.6770  0.3685
 9851TIP3    H151044   6.012   2.751  15.009 -2.5233  0.7051 -2.1798
 9851TIP3    H251045   6.138   2.669  14.987 -0.1519  3.4734  0.1746
 9852TIP3   OH251046   3.542   1.422  11.916 -0.1662  0.1200  0.1248
 9852TIP3    H151047   3.598   1.407  11.992  2.5161  0.4307 -1.6807
 9852TIP3    H251048   3.537   1.338  11.872 -1.1124  0.1134  0.2174
 9853TIP3   OH251049   3.388   0.127  15.027 -1.3943 -0.1026  0.0606
 9853TIP3    H151050   3.355   0.205  15.072 -2.5483 -1.0769  0.9654
 9853TIP3    H251051   3.318   0.063  15.035 -1.1570 -0.7272 -2.1036
 9854TIP3   OH251052   5.467   0.023  16.433  0.3656  0.1889 -0.0569
 9854TIP3    H151053   5.557   0.052  16.451 -0.1487  0.8415  1.7243
 9854TIP3    H251054   5.413   0.098  16.455 -0.6012  0.0931 -1.9498
 9855TIP3   OH251055   4.470   4.742   2.251  0.2476 -0.3497 -0.3879
 9855TIP3    H151056   4.501   4.791   2.175 -0.6561  0.7591 -0.0732
 9855TIP3    H251057   4.378   4.724   2.231 -0.1406  0.4026  0.6427
 9856TIP3   OH251058   4.671   0.169  14.673  0.6373 -0.3023 -1.0108
 9856TIP3    H151059   4.661   0.191  14.580  0.8920  0.0776 -0.9493
 9856TIP3    H251060   4.695   0.076  14.673  1.3773 -0.1141 -1.3637
 9857TIP3   OH251061   5.097   4.863  12.783  0.0039  0.4125 -0.3412
 9857TIP3    H151062   5.038   4.903  12.719 -0.6844  0.6666  0.4251
 9857TIP3    H251063   5.139   4.792  12.735 -0.6179  0.4903 -1.0333
 9858TIP3   OH251064   6.479   5.560  13.331 -0.0538 -0.3968 -0.3676
 9858TIP3    H151065   6.413   5.493  13.345 -0.6135 -0.1388 -1.6626
 9858TIP3    H251066   6.439   5.640  13.366  0.4083 -0.6271  0.7101
 9859TIP3   OH251067   4.025   0.148  14.219  0.0972  0.3130  0.0580
 9859TIP3    H151068   3.961   0.206  14.259 -0.0257 -0.0727  0.4318
 9859TIP3    H251069   4.004   0.061  14.255  0.0956 -0.0091 -0.6988
 9860TIP3   OH251070   5.236   1.841   3.996  0.1971 -0.4522 -0.0856
 9860TIP3    H151071   5.323   1.881   4.009  0.5377 -1.3011  0.2904
 9860TIP3    H251072   5.241   1.802   3.910 -0.4002  0.9444 -0.7855
 9861TIP3   OH251073   4.695   5.090   0.430 -0.1807 -0.2572  0.2791
 9861TIP3    H151074   4.648   5.120   0.508 -0.8395  0.7327 -0.4746
 9861TIP3    H251075   4.698   5.167   0.373  1.4024 -0.6115 -0.1586
 9862TIP3   OH251076   0.503   2.115  14.762 -0.4232  0.1152 -0.7501
 9862TIP3    H151077   0.506   2.208  14.786  1.5212 -0.0186 -0.3100
 9862TIP3    H251078   0.434   2.109  14.696  1.5340  2.4557 -3.2078
 9863TIP3   OH251079   0.734   3.910  15.626  0.0855 -0.2762 -0.1665
 9863TIP3    H151080   0.728   3.977  15.558  1.1240 -0.0382 -0.0365
 9863TIP3    H251081   0.690   3.950  15.702  0.6627  0.2538 -0.1023
 9864TIP3   OH251082   6.004   4.043   5.448  0.3185 -0.1142  0.5782
 9864TIP3    H151083   6.070   4.022   5.514  1.4073 -0.8349 -0.6732
 9864TIP3    H251084   6.015   3.974   5.381  0.0988  1.2495 -0.9253
 9865TIP3   OH251085   3.622   4.116   0.971 -0.0347  0.5576  0.1693
 9865TIP3    H151086   3.557   4.047   0.955  0.3495  0.2399 -0.0412
 9865TIP3    H251087   3.578   4.197   0.944 -0.0391  0.2461 -0.8046
 9866TIP3   OH251088   4.350   4.656  12.897  0.2761  0.2629  0.3279
 9866TIP3    H151089   4.336   4.723  12.963  0.1937 -0.2264  0.8067
 9866TIP3    H251090   4.262   4.630  12.869  0.3059  0.2700  0.2232
 9867TIP3   OH251091   6.424   4.574  11.285 -0.3451 -0.4980  0.2259
 9867TIP3    H151092   6.352   4.534  11.333 -1.1223 -0.8460 -1.1757
 9867TIP3    H251093   6.426   4.528  11.201  0.3774  0.6996 -0.4523
 9868TIP3   OH251094   6.385   5.624  14.937  0.0803  0.4696  0.5122
 9868TIP3    H151095   6.465   5.577  14.960 -0.1474 -0.2867 -0.2091
 9868TIP3    H251096   6.315   5.578  14.983 -0.1046  0.2748  0.0486
 9869TIP3   OH251097   6.683   6.020  13.649 -0.3569  0.1990  0.4881
 9869TIP3    H151098   6.729   5.967  13.715  2.5566  0.1311 -1.4671
 9869TIP3    H251099   6.658   5.957  13.582  1.3563  0.9359 -0.9013
 9870TIP3   OH251100   1.813   3.179   2.532  0.2422 -0.0768  0.5838
 9870TIP3    H151101   1.862   3.174   2.450 -0.2496  1.1139  0.1871
 9870TIP3    H251102   1.872   3.224   2.593 -0.8380  2.8833 -0.3690
 9871TIP3   OH251103   5.642   0.763   1.861  0.1716  0.1627  0.3271
 9871TIP3    H151104   5.651   0.827   1.790  0.2513  1.5078  1.5010
 9871TIP3    H251105   5.617   0.682   1.817  1.2201  0.6827 -1.3356
 9872TIP3   OH251106   2.127   5.516  13.885 -0.0598 -0.1000  0.1331
 9872TIP3    H151107   2.060   5.510  13.954 -1.5334  0.0226 -1.2176
 9872TIP3    H251108   2.077   5.516  13.803  1.6255 -0.1570 -0.9521
 9873TIP3   OH251109   5.067   0.793  13.385  0.0784  0.0148 -0.1634
 9873TIP3    H151110   5.001   0.862  13.389  0.1960  0.2261 -1.5171
 9873TIP3    H251111   5.067   0.765  13.294  2.2985  0.4487 -0.3454
 9874TIP3   OH251112   3.071   3.699  14.830  0.0347  0.0357  0.0216
 9874TIP3    H151113   2.990   3.653  14.849 -0.5196  1.0953  0.2984
 9874TIP3    H251114   3.125   3.688  14.908  1.2195 -2.7659 -1.0586
 9875TIP3   OH251115   5.131   5.682   2.827  0.6808  0.2112 -0.1065
 9875TIP3    H151116   5.159   5.636   2.748 -3.0458 -2.0183 -0.3733
 9875TIP3    H251117   5.105   5.769   2.797  1.5005  0.1979 -0.8905
 9876TIP3   OH251118   1.655   0.898   1.041 -0.2085  0.6891 -0.3574
 9876TIP3    H151119   1.687   0.919   0.953 -2.0018  2.2373 -0.7018
 9876TIP3    H251120   1.717   0.942   1.099  0.5718  0.2743 -0.8581
 9877TIP3   OH251121   2.297   3.166   4.972  0.0694  0.6588 -0.8116
 9877TIP3    H151122   2.232   3.209   5.028 -0.8186 -1.6117 -0.0068
 9877TIP3    H251123   2.254   3.086   4.943  1.8783 -0.0032 -1.7697
 9878TIP3   OH251124   4.617   5.343   1.660  0.4928  0.2097 -0.1042
 9878TIP3    H151125   4.673   5.282   1.708  1.9648  1.0960 -0.6403
 9878TIP3    H251126   4.534   5.296   1.649  1.1463 -1.1648  0.6458
 9879TIP3   OH251127   4.591   2.294   4.973  0.4004  0.0618  0.1205
 9879TIP3    H151128   4.541   2.240   4.912  0.1857 -1.5723  1.6873
 9879TIP3    H251129   4.681   2.265   4.962  0.2899 -0.6256  0.9362
 9880TIP3   OH251130   5.568   2.750   5.165 -0.1330 -0.1905 -0.0106
 9880TIP3    H151131   5.614   2.685   5.113  1.4391  1.8198 -1.2873
 9880TIP3    H251132   5.502   2.787   5.106  0.5734  0.9755 -0.1045
 9881TIP3   OH251133   0.262   4.046  12.656  0.0448  0.0258  0.0016
 9881TIP3    H151134   0.337   4.053  12.715 -0.3075  0.0132  0.4465
 9881TIP3    H251135   0.197   4.107  12.691 -0.0712  0.2062 -0.5134
 9882TIP3   OH251136   5.278   3.985  14.008  0.1387  0.3255  0.0943
 9882TIP3    H151137   5.357   3.969  14.059  0.8058  0.4422 -0.8721
 9882TIP3    H251138   5.236   3.899  14.002  0.3622  0.1962  0.3361
 9883TIP3   OH251139   4.352   5.950   3.602 -0.6144  0.0270  0.0572
 9883TIP3    H151140   4.356   5.983   3.513  1.1530  0.9002  0.4282
 9883TIP3    H251141   4.364   5.855   3.594 -0.2989  0.1233 -0.6010
 9884TIP3   OH251142   4.863   6.414   3.872  0.5689 -0.1796 -0.1686
 9884TIP3    H151143   4.842   6.397   3.781  0.2433  1.8834 -0.5368
 9884TIP3    H251144   4.816   6.495   3.893  1.2242 -0.2092  1.5980
 9885TIP3   OH251145   0.356   4.725   4.850 -0.3337  0.3284 -0.2393
 9885TIP3    H151146   0.358   4.743   4.755 -2.2750 -1.4226 -0.6785
 9885TIP3    H251147   0.277   4.769   4.881  0.2765  0.8663  0.6156
 9886TIP3   OH251148   2.141   0.638  10.743 -0.2795  0.1838 -0.0539
 9886TIP3    H151149   2.050   0.617  10.722 -0.8560  2.3990 -0.0403
 9886TIP3    H251150   2.188   0.629  10.660 -0.8364  0.5484 -0.4107
 9887TIP3   OH251151   4.814   1.267   1.475 -0.1809 -0.2604 -0.1508
 9887TIP3    H151152   4.906   1.267   1.503 -0.5166 -0.1769  1.0316
 9887TIP3    H251153   4.796   1.176   1.452 -0.2101 -0.6057  1.1379
 9888TIP3   OH251154   1.432   2.203  11.585 -0.5489  0.8298  0.2489
 9888TIP3    H151155   1.475   2.288  11.578  1.8321 -0.2001  1.2678
 9888TIP3    H251156   1.342   2.223  11.610 -0.5161  3.0731 -1.1610
 9889TIP3   OH251157   1.309   4.208  14.935  0.2342 -0.9902  0.3951
 9889TIP3    H151158   1.277   4.148  15.003  1.2538 -2.2385 -0.1836
 9889TIP3    H251159   1.404   4.202  14.941  0.4228  1.5061  1.0874
 9890TIP3   OH251160   3.627   5.875   0.400  0.1090 -0.1425  0.5383
 9890TIP3    H151161   3.691   5.844   0.464  1.3173 -0.7898 -0.9271
 9890TIP3    H251162   3.672   5.947   0.355 -0.4691 -0.1257 -0.0161
 9891TIP3   OH251163   1.158   2.287   2.420  0.7081 -0.1549  0.0699
 9891TIP3    H151164   1.074   2.288   2.374 -0.2035  1.3657  1.6502
 9891TIP3    H251165   1.212   2.351   2.373 -0.0275  0.9760  0.7118
 9892TIP3   OH251166   2.916   4.793  16.759  0.1249 -0.4376  0.2849
 9892TIP3    H151167   2.849   4.854  16.790  1.2259  0.4711  0.9464
 9892TIP3    H251168   2.871   4.708  16.756 -1.0950  0.1751  0.5334
 9893TIP3   OH251169   2.316   1.646   0.130 -0.1852  1.0790 -0.9781
 9893TIP3    H151170   2.256   1.572   0.138  0.6406  0.5065  0.4503
 9893TIP3    H251171   2.370   1.626   0.054 -0.3424  0.4732 -0.9344
 9894TIP3   OH251172   2.179   1.158   0.109 -0.1551 -0.3932  0.9479
 9894TIP3    H151173   2.271   1.131   0.116 -0.4384 -1.6678  0.1041
 9894TIP3    H251174   2.181   1.253   0.117  1.5791 -0.0652 -1.9133
 9895TIP3   OH251175   5.367   1.556   1.465  0.8360  0.1873  0.4005
 9895TIP3    H151176   5.271   1.559   1.462  0.8746  0.9064 -0.3766
 9895TIP3    H251177   5.390   1.610   1.540  0.7205  2.7249 -1.2767
 9896TIP3   OH251178   6.453   2.626   2.737  0.3912 -0.7397  0.6040
 9896TIP3    H151179   6.449   2.544   2.687 -2.6365  0.2144 -0.9144
 9896TIP3    H251180   6.368   2.633   2.780  0.3302  1.8954  0.2046
 9897TIP3   OH251181   4.029   2.053  16.647 -0.9743  0.1465 -0.1276
 9897TIP3    H151182   4.094   2.071  16.714 -0.4191 -1.6568 -0.1277
 9897TIP3    H251183   3.946   2.080  16.686 -0.3975  1.2569  0.3680
 9898TIP3   OH251184   2.991   2.548   3.498  0.2468  1.0199  0.2737
 9898TIP3    H151185   3.077   2.586   3.515  0.4779  0.7946 -0.3349
 9898TIP3    H251186   3.008   2.453   3.495  0.1369  1.0174 -0.6532
 9899TIP3   OH251187   5.528   4.781  10.422  0.3018  0.4357 -0.2511
 9899TIP3    H151188   5.484   4.700  10.447  1.1081  0.5972  1.9276
 9899TIP3    H251189   5.458   4.846  10.414 -0.4516 -0.5737 -2.8439
 9900TIP3   OH251190   2.034   5.789   0.245  0.5780 -0.4025  0.2605
 9900TIP3    H151191   1.962   5.731   0.268  0.6959 -0.7073 -0.1323
 9900TIP3    H251192   2.110   5.751   0.290  0.6189 -0.4477  0.1536
 9901TIP3   OH251193   3.519   6.387   1.951  0.5021  0.4653  0.3046
 9901TIP3    H151194   3.446   6.350   2.001 -0.9667  1.5047 -0.9726
 9901TIP3    H251195   3.550   6.314   1.897 -1.0658  0.5312 -0.7525
 9902TIP3   OH251196   0.810   5.681   4.909  0.6069 -0.2674  0.3021
 9902TIP3    H151197   0.806   5.685   5.004  2.4843  0.6415  0.3856
 9902TIP3    H251198   0.812   5.587   4.889 -0.8523 -0.4854  1.0576
 9903TIP3   OH251199   3.888   0.754  15.113 -0.2704  0.0145  0.4461
 9903TIP3    H151200   3.834   0.712  15.180 -0.0360 -1.3074 -0.1710
 9903TIP3    H251201   3.947   0.812  15.162 -1.8656  1.1164  1.1722
 9904TIP3   OH251202   0.933   3.778  10.794  0.3356  1.2202 -0.3969
 9904TIP3    H151203   0.988   3.743  10.864  1.8415  2.4259 -0.8969
 9904TIP3    H251204   0.954   3.724  10.718  1.0041  1.7712 -0.6244
 9905TIP3   OH251205   2.323   0.129  11.994 -0.2942  0.4993  0.4715
 9905TIP3    H151206   2.373   0.064  11.946 -2.0271 -0.5746  0.0446
 9905TIP3    H251207   2.335   0.105  12.086  0.5878  0.7382  0.4284
 9906TIP3   OH251208   2.572   6.034  13.578 -0.4585  0.3008  0.2950
 9906TIP3    H151209   2.629   6.019  13.502 -1.0574 -0.0336 -0.0994
 9906TIP3    H251210   2.546   6.126  13.570 -1.5886 -0.0724 -0.6789
 9907TIP3   OH251211   4.239   6.621   0.837  0.1069  0.0498  0.0362
 9907TIP3    H151212   4.155   6.590   0.803 -0.7259  0.6241  1.5087
 9907TIP3    H251213   4.260   6.697   0.783  0.2594 -0.7471 -1.0666
 9908TIP3   OH251214   6.693   0.196   4.490 -0.4554  0.3621 -0.0362
 9908TIP3    H151215   6.652   0.188   4.576 -1.2662  3.3121 -0.0460
 9908TIP3    H251216   6.620   0.213   4.430  0.2440 -0.3224 -1.1165
 9909TIP3   OH251217   6.556   6.772   4.456 -0.6979  0.3300  0.4169
 9909TIP3    H151218   6.517   6.821   4.383 -1.6646  1.3319  1.5671
 9909TIP3    H251219   6.547   6.681   4.431 -0.2909  0.6635 -1.0708
 9910TIP3   OH251220   1.929   5.361   3.596  0.4581 -0.3068 -0.1250
 9910TIP3    H151221   1.983   5.404   3.661  0.4386  0.6897 -0.7443
 9910TIP3    H251222   1.943   5.267   3.611  0.4199 -0.0980  1.3095
 9911TIP3   OH251223   0.729   3.781  15.246 -0.1801 -0.3682 -0.0765
 9911TIP3    H151224   0.808   3.772  15.299 -1.3466  0.3210  1.8761
 9911TIP3    H251225   0.761   3.806  15.159  1.7254  0.2758  0.7608
 9912TIP3   OH251226   0.043   2.772  15.985 -0.0186 -0.4766  0.4457
 9912TIP3    H151227   0.099   2.729  16.049  0.7537  1.2049  0.9272
 9912TIP3    H251228   0.044   2.864  16.009 -1.0534 -0.0487 -1.0028
 9913TIP3   OH251229   3.560   4.923   1.867  0.4472 -0.0025 -0.4087
 9913TIP3    H151230   3.616   4.846   1.860 -0.2378 -0.4681 -0.8468
 9913TIP3    H251231   3.544   4.950   1.777 -1.8263 -1.2052 -0.4407
 9914TIP3   OH251232   6.074   3.752   6.367 -0.3132  0.3474 -0.5983
 9914TIP3    H151233   6.014   3.826   6.365  0.8168  1.2983 -0.7893
 9914TIP3    H251234   6.160   3.791   6.381  0.3008 -0.9470 -0.5568
 9915TIP3   OH251235   6.059   4.867   5.360  0.1738  0.2527  0.1647
 9915TIP3    H151236   6.129   4.932   5.368  0.3436  0.0280  0.5124
 9915TIP3    H251237   5.986   4.915   5.321  0.6851  0.3672 -0.6705
 9916TIP3   OH251238   5.279   2.779   0.675  0.1713  0.0118  0.0343
 9916TIP3    H151239   5.319   2.804   0.758 -1.0919  0.1918  0.6203
 9916TIP3    H251240   5.269   2.861   0.627  0.2156  0.0098  0.0217
 9917TIP3   OH251241   0.741   0.972   4.675  0.3135 -0.9083 -0.0083
 9917TIP3    H151242   0.654   0.947   4.708  0.5647 -0.9657  0.6251
 9917TIP3    H251243   0.802   0.941   4.742  0.9098 -1.7485 -0.9142
 9918TIP3   OH251244   2.761   5.821   5.746 -0.2868  0.1783  0.4001
 9918TIP3    H151245   2.781   5.868   5.827  1.5155  1.0467 -0.4793
 9918TIP3    H251246   2.811   5.868   5.678 -0.6176 -1.3634 -0.9827
 9919TIP3   OH251247   2.253   4.080  12.270  0.4484 -0.5360 -0.4306
 9919TIP3    H151248   2.292   3.996  12.245 -0.6382 -1.3357  0.5081
 9919TIP3    H251249   2.161   4.060  12.287  0.0321  0.9652 -0.7666
 9920TIP3   OH251250   2.379   1.865  14.914 -0.3921  0.2859  0.1616
 9920TIP3    H151251   2.293   1.894  14.943 -0.4369  0.0249  0.2856
 9920TIP3    H251252   2.377   1.770  14.921 -0.5751  0.1630 -1.1535
 9921TIP3   OH251253   3.033   2.190   3.018 -0.2859  0.2619  0.0560
 9921TIP3    H151254   3.090   2.119   3.047  0.0134  1.1762  1.8610
 9921TIP3    H251255   2.980   2.152   2.948 -1.8567 -2.4954  2.5357
 9922TIP3   OH251256   3.092   0.634  12.845  0.8291 -0.5127  0.8036
 9922TIP3    H151257   3.013   0.678  12.813  1.5498 -0.4586 -0.9910
 9922TIP3    H251258   3.164   0.690  12.817  1.5769 -1.1301  1.4409
 9923TIP3   OH251259   2.870   5.360  16.950 -0.1364 -0.1221 -0.6361
 9923TIP3    H151260   2.917   5.312  17.019 -1.2713  0.2070  0.4031
 9923TIP3    H251261   2.778   5.351  16.973 -0.5257  0.2701 -1.9573
 9924TIP3   OH251262   4.016   5.703  16.364 -0.4640 -0.1764  0.4841
 9924TIP3    H151263   4.050   5.676  16.449  0.9948  0.9478  0.2943
 9924TIP3    H251264   4.077   5.771  16.334 -0.7000 -0.8241 -1.6426
 9925TIP3   OH251265   6.352   1.970  15.029  0.6958 -0.3251  0.7604
 9925TIP3    H151266   6.374   1.989  14.937  1.7065  0.1775  1.0824
 9925TIP3    H251267   6.330   2.056  15.066  1.9976 -0.2463  1.4019
 9926TIP3   OH251268   0.126   4.383  11.170  0.0838  0.2409 -0.2073
 9926TIP3    H151269   0.127   4.376  11.074  1.5607 -1.1125 -0.1333
 9926TIP3    H251270   0.216   4.367  11.196  0.2543  3.0624  1.3173
 9927TIP3   OH251271   0.877   3.637   0.119  0.4556  0.4201  0.1161
 9927TIP3    H151272   0.796   3.657   0.167  0.1014  1.4395 -0.8479
 9927TIP3    H251273   0.900   3.548   0.147 -0.7055  0.3076  0.8111
 9928TIP3   OH251274   2.433   5.172   2.424 -0.1179  0.0442 -0.4599
 9928TIP3    H151275   2.527   5.156   2.426  0.4369  2.9252  0.5622
 9928TIP3    H251276   2.416   5.208   2.337 -0.6472 -1.9942 -1.2634
 9929TIP3   OH251277   2.685   6.174   6.333 -0.4049 -0.1312 -0.1340
 9929TIP3    H151278   2.615   6.120   6.370 -1.3054  1.7081  0.9854
 9929TIP3    H251279   2.706   6.237   6.402  1.7210 -0.0385 -0.7982
 9930TIP3   OH251280   0.540   4.921  12.703 -0.1754  0.5222 -0.2721
 9930TIP3    H151281   0.507   5.008  12.727  0.2750  0.6596 -0.1445
 9930TIP3    H251282   0.473   4.885  12.645 -1.8771 -0.2700  2.0478
 9931TIP3   OH251283   6.208   5.917   2.277 -0.1693  0.0378  0.0391
 9931TIP3    H151284   6.248   5.944   2.360 -0.5621 -0.9329  0.5713
 9931TIP3    H251285   6.126   5.874   2.303 -0.1480 -0.5502 -0.8282
 9932TIP3   OH251286   1.453   6.457   1.263  0.2848  0.2187 -0.3089
 9932TIP3    H151287   1.404   6.455   1.345  0.8381 -2.3225  0.0398
 9932TIP3    H251288   1.534   6.411   1.283  1.8651  2.3409 -1.4889
 9933TIP3   OH251289   1.516   2.456  15.392 -0.4400  0.1575 -0.1694
 9933TIP3    H151290   1.542   2.528  15.334 -0.3209  0.2607  0.0119
 9933TIP3    H251291   1.491   2.499  15.474  3.2111 -0.1998  1.3167
 9934TIP3   OH251292   3.091   4.896  15.023  0.2996  0.4916 -0.5218
 9934TIP3    H151293   3.054   4.925  14.940  0.6109  1.7781 -0.2294
 9934TIP3    H251294   3.074   4.802  15.025  1.5446  0.1541 -2.6807
 9935TIP3   OH251295   4.957   3.141  16.509 -0.2479  0.2348 -0.2983
 9935TIP3    H151296   5.041   3.106  16.478 -0.7121 -1.9339  0.7253
 9935TIP3    H251297   4.968   3.236  16.504  2.8768  0.0958  1.2604
 9936TIP3   OH251298   1.814   3.917  12.070 -0.0300  0.6228  0.2494
 9936TIP3    H151299   1.745   3.855  12.093  1.6260 -2.3333 -2.0167
 9936TIP3    H251300   1.769   3.987  12.023 -1.6741 -0.4358  0.1700
 9937TIP3   OH251301   3.554   3.985   2.889 -0.4598 -0.3725 -0.2977
 9937TIP3    H151302   3.489   4.044   2.929  0.0298  0.3452 -0.5454
 9937TIP3    H251303   3.594   3.940   2.963  1.7830  2.3046  0.2914
 9938TIP3   OH251304   4.026   3.499  12.132 -0.3555  0.1909 -0.2999
 9938TIP3    H151305   3.995   3.542  12.212  0.4456  1.5305 -0.6848
 9938TIP3    H251306   4.013   3.564  12.063  2.9482  0.7595 -0.5378
 9939TIP3   OH251307   6.564   1.515   2.512 -0.2304 -0.5954  0.4095
 9939TIP3    H151308   6.631   1.447   2.521  0.7818  0.1368 -1.1584
 9939TIP3    H251309   6.579   1.573   2.587 -1.7968 -2.5668  2.4041
 9940TIP3   OH251310   6.541   0.854  15.603 -0.2814 -0.4010  0.1712
 9940TIP3    H151311   6.607   0.913  15.567 -0.2298 -0.0972  0.7610
 9940TIP3    H251312   6.580   0.821  15.684  0.6862 -3.0464 -1.2585
 9941TIP3   OH251313   5.859   3.669   0.444  0.4919  0.2034 -0.2041
 9941TIP3    H151314   5.865   3.765   0.444 -0.7966  0.3564  2.2994
 9941TIP3    H251315   5.905   3.643   0.524 -0.1364 -1.1750 -0.2772
 9942TIP3   OH251316   5.270   6.090  14.480 -0.2590 -0.1635 -0.2354
 9942TIP3    H151317   5.307   6.172  14.447  0.4021 -0.9224 -1.4585
 9942TIP3    H251318   5.316   6.074  14.562  0.5732  0.0362 -0.6522
 9943TIP3   OH251319   2.927   1.086   1.186 -0.2407 -0.1910 -0.2355
 9943TIP3    H151320   2.981   1.110   1.261  0.2917 -0.2809 -0.5863
 9943TIP3    H251321   2.922   0.991   1.189 -0.5161 -0.1750 -0.1144
 9944TIP3   OH251322   2.100   6.013  11.087 -0.0257  0.4141 -0.1512
 9944TIP3    H151323   2.040   6.071  11.040  1.7691  0.4451 -2.5553
 9944TIP3    H251324   2.168   6.072  11.121  0.8895 -0.0296 -1.1431
 9945TIP3   OH251325   1.862   0.715   2.301 -0.3586 -0.0851  0.1410
 9945TIP3    H151326   1.930   0.698   2.236  0.2204 -0.9469  0.9442
 9945TIP3    H251327   1.905   0.700   2.385 -1.2693  0.3615  0.7026
 9946TIP3   OH251328   2.619   1.660   4.601 -0.2006 -0.6035  0.4424
 9946TIP3    H151329   2.542   1.630   4.553  0.7127 -2.1518 -0.1379
 9946TIP3    H251330   2.593   1.655   4.693 -0.3674 -2.5376  0.3319
 9947TIP3   OH251331   1.729   3.751   5.343  0.3970  0.4148 -0.2819
 9947TIP3    H151332   1.751   3.833   5.297  0.7194  0.7649  0.4853
 9947TIP3    H251333   1.774   3.757   5.426 -0.1101 -0.2618  0.0543
 9948TIP3   OH251334   1.308   6.302  16.607  0.5856  0.0434  0.8377
 9948TIP3    H151335   1.367   6.281  16.535  1.0102  2.0074  0.5312
 9948TIP3    H251336   1.221   6.283  16.574  0.8763 -0.4628  0.3549
 9949TIP3   OH251337   0.920   3.977  16.374  0.0916 -0.8644  0.1914
 9949TIP3    H151338   0.977   3.999  16.448  1.6498 -0.6161 -1.0514
 9949TIP3    H251339   0.832   3.978  16.412  0.3819  3.1412  1.2383
 9950TIP3   OH251340   1.359   0.453   1.736  0.0391 -0.3733  0.2420
 9950TIP3    H151341   1.413   0.519   1.779 -0.4422 -2.1477  4.0172
 9950TIP3    H251342   1.272   0.464   1.774 -1.0217 -0.8249 -1.8987
 9951TIP3   OH251343   2.592   5.591  10.874  0.2757  0.3201  0.3316
 9951TIP3    H151344   2.610   5.671  10.825 -2.0213  0.9689  0.4537
 9951TIP3    H251345   2.639   5.603  10.957  0.4965  1.2382  0.0847
 9952TIP3   OH251346   2.491   1.614  12.999  0.5935  0.0605 -0.5362
 9952TIP3    H151347   2.466   1.522  12.998  1.6395 -0.2422 -1.4829
 9952TIP3    H251348   2.418   1.658  13.042  0.1476 -1.2185  0.0923
 9953TIP3   OH251349   3.006   6.605  16.670  0.0841  0.4970 -0.5624
 9953TIP3    H151350   2.933   6.622  16.610 -0.3822  1.5203  0.2519
 9953TIP3    H251351   2.981   6.525  16.717  0.8491 -0.8012 -2.2906
 9954TIP3   OH251352   5.239   4.876  13.190  0.0080 -0.8165 -0.0149
 9954TIP3    H151353   5.171   4.827  13.143 -0.6345 -0.8401  0.8977
 9954TIP3    H251354   5.260   4.950  13.132 -2.8104  0.7741  0.7749
 9955TIP3   OH251355   4.653   1.331  15.883 -0.5357  0.1038 -1.1293
 9955TIP3    H151356   4.667   1.246  15.926  1.3291  0.0850 -1.7038
 9955TIP3    H251357   4.585   1.373  15.936 -1.2633 -1.5910 -0.6267
 9956TIP3   OH251358   0.870   0.053   1.735  0.2441  0.2028  0.5253
 9956TIP3    H151359   0.953   0.008   1.750 -0.4701 -1.8174 -1.0749
 9956TIP3    H251360   0.806  -0.000   1.782 -0.1944  1.6878  1.6601
 9957TIP3   OH251361   5.878   0.541  11.177  0.2478  0.4213  0.2644
 9957TIP3    H151362   5.966   0.545  11.215  0.7782  1.0416 -0.9712
 9957TIP3    H251363   5.849   0.451  11.193  1.5976 -0.1491 -0.3576
 9958TIP3   OH251364   6.697   5.283  12.935 -0.3421  0.0881  0.6233
 9958TIP3    H151365   6.661   5.296  13.022 -1.5360 -1.7388  0.4558
 9958TIP3    H251366   6.700   5.188  12.924  1.1350  0.2483 -0.7926
 9959TIP3   OH251367   3.529   2.103   2.291  0.1191 -0.6733  0.0898
 9959TIP3    H151368   3.493   2.116   2.379  0.0735 -0.2663  0.0146
 9959TIP3    H251369   3.536   2.008   2.281 -0.0166 -0.7246  0.4756
 9960TIP3   OH251370   0.996   5.421  15.979  0.0386  0.0096 -0.9045
 9960TIP3    H151371   1.089   5.403  15.986 -0.4669 -2.6828  0.4124
 9960TIP3    H251372   0.982   5.499  16.033  1.3667 -0.1272 -0.3344
 9961TIP3   OH251373   3.830   1.604  13.152  0.5994 -0.2287  0.3674
 9961TIP3    H151374   3.875   1.577  13.232 -0.7714 -1.0116  0.8907
 9961TIP3    H251375   3.758   1.659  13.182  0.5125  0.0851 -0.3902
 9962TIP3   OH251376   0.848   0.883   5.304  0.5366 -0.7066 -0.2809
 9962TIP3    H151377   0.835   0.972   5.273 -0.6859 -0.8846 -0.3579
 9962TIP3    H251378   0.881   0.892   5.393  0.3550 -0.1765 -0.2664
 9963TIP3   OH251379   3.962   3.911   1.384 -0.3485  0.2094 -0.0267
 9963TIP3    H151380   3.999   3.866   1.308 -0.2522  0.4869 -0.1439
 9963TIP3    H251381   4.038   3.945   1.432 -0.3860 -0.3047  0.4076
 9964TIP3   OH251382   2.860   4.609  15.713  0.7205  0.1839 -0.1491
 9964TIP3    H151383   2.802   4.650  15.649 -1.1432 -2.0738 -0.0262
 9964TIP3    H251384   2.929   4.568  15.660 -0.5134 -1.2106 -0.7282
 9965TIP3   OH251385   6.549   1.035  13.067  0.1580 -0.1799 -0.0745
 9965TIP3    H151386   6.615   1.086  13.020  0.9355  0.2856  1.4740
 9965TIP3    H251387   6.535   1.083  13.149 -0.1434 -1.6910  0.7993
 9966TIP3   OH251388   4.127   4.481   1.104  0.1185 -0.9590 -0.1288
 9966TIP3    H151389   4.203   4.536   1.123 -0.0435  0.9329 -4.0111
 9966TIP3    H251390   4.052   4.536   1.125 -0.0562 -0.6272 -1.4889
 9967TIP3   OH251391   3.875   4.822  12.255 -0.4176 -0.0936 -0.1562
 9967TIP3    H151392   3.873   4.729  12.232  0.9209 -0.2866  0.4407
 9967TIP3    H251393   3.894   4.823  12.349 -0.9344  0.7872 -0.0477
 9968TIP3   OH251394   2.767   5.745   3.557 -0.2845 -0.9051  0.5380
 9968TIP3    H151395   2.822   5.716   3.630 -2.2453  0.2908  2.6044
 9968TIP3    H251396   2.805   5.828   3.530 -0.4135 -0.6152  1.2253
 9969TIP3   OH251397   5.892   1.778   4.643 -0.2722  0.5225  0.5579
 9969TIP3    H151398   5.969   1.754   4.591 -1.5667  0.8132 -1.6169
 9969TIP3    H251399   5.824   1.716   4.616 -1.3343  1.4619  0.9954
 9970TIP3   OH251400   6.616   2.702   1.181  0.5282 -1.1366  0.0365
 9970TIP3    H151401   6.571   2.712   1.266  0.1714  0.3268 -0.2974
 9970TIP3    H251402   6.706   2.681   1.204  0.1261 -2.1948  0.7477
 9971TIP3   OH251403   2.548   6.666   4.029  0.1036  0.6598  0.5544
 9971TIP3    H151404   2.516   6.731   4.092 -0.6988  0.1658  0.6619
 9971TIP3    H251405   2.527   6.581   4.068  1.8381  0.2891  0.7864
 9972TIP3   OH251406   1.850   4.024  15.767  0.2944 -0.6607 -0.8265
 9972TIP3    H151407   1.893   4.063  15.843  0.3503 -1.1314 -0.6175
 9972TIP3    H251408   1.920   3.978  15.721  0.3408 -0.0669 -1.3742
 9973TIP3   OH251409   4.533   5.555   4.843  0.0683  0.1455 -0.2337
 9973TIP3    H151410   4.509   5.479   4.789 -0.6816  0.7818 -0.8147
 9973TIP3    H251411   4.624   5.572   4.821  0.0134 -0.1130 -0.6726
 9974TIP3   OH251412   6.704   1.803   0.147 -0.1354  0.2446  0.5460
 9974TIP3    H151413   6.655   1.721   0.145 -0.5516  0.5062 -0.4781
 9974TIP3    H251414   6.717   1.826   0.055  0.5073  1.0203  0.8140
 9975TIP3   OH251415   0.327   2.752   1.466  0.0741  0.1341  0.3277
 9975TIP3    H151416   0.358   2.666   1.495  0.0018  0.2870  0.8638
 9975TIP3    H251417   0.347   2.811   1.539  2.2336  1.0499 -0.9193
 9976TIP3   OH251418   1.453   2.899  16.258  0.2774 -0.2477  0.2402
 9976TIP3    H151419   1.518   2.839  16.295 -0.9230 -1.0746  1.0837
 9976TIP3    H251420   1.479   2.909  16.166  0.3772 -2.2750  0.0048
 9977TIP3   OH251421   3.904   4.349  13.437 -0.7135 -0.2500  0.2796
 9977TIP3    H151422   3.816   4.357  13.476  0.3425  0.7005  2.6688
 9977TIP3    H251423   3.952   4.295  13.499  0.8610  0.6568 -0.1082
 9978TIP3   OH251424   6.187   0.030  14.458 -0.2392  0.5019  0.5004
 9978TIP3    H151425   6.153  -0.016  14.534  0.9226  1.8705  1.9099
 9978TIP3    H251426   6.277  -0.003  14.448 -0.8556 -0.7945 -1.2713
 9979TIP3   OH251427   0.663   2.366   2.603  0.3724 -0.0731  0.7968
 9979TIP3    H151428   0.750   2.398   2.625  2.1899 -2.9602 -1.3618
 9979TIP3    H251429   0.618   2.358   2.687  2.4733  0.7668  2.0813
 9980TIP3   OH251430   4.239   1.522   4.261  0.0203  0.0639 -0.0131
 9980TIP3    H151431   4.308   1.456   4.266 -0.3746 -0.6502 -2.5491
 9980TIP3    H251432   4.276   1.599   4.304  1.1133 -1.2673  1.5802
 9981TIP3   OH251433   5.310   2.162   1.862 -0.0716 -0.3914  0.0817
 9981TIP3    H151434   5.295   2.238   1.918  0.8614  1.5166 -2.0702
 9981TIP3    H251435   5.397   2.131   1.885  0.3104  0.3907 -0.2626
 9982TIP3   OH251436   0.822   0.113  12.712 -0.3890 -0.1311 -0.0551
 9982TIP3    H151437   0.834   0.072  12.626  0.7236  1.3400 -0.6388
 9982TIP3    H251438   0.788   0.200  12.694  0.5080  0.4624  0.9333
 9983TIP3   OH251439   3.456   4.115  14.686 -0.2144  0.2174  0.4698
 9983TIP3    H151440   3.432   4.202  14.653  1.9880  0.1555 -1.5628
 9983TIP3    H251441   3.377   4.062  14.673 -1.3396  1.6831  1.0028
 9984TIP3   OH251442   5.765   6.027   1.945 -0.1741  0.0182 -0.0672
 9984TIP3    H151443   5.678   5.992   1.963 -0.9937  2.3317  0.7610
 9984TIP3    H251444   5.814   6.012   2.026 -0.2311 -0.0209 -0.0402
 9985TIP3   OH251445   3.312   5.112   4.667 -0.3677  0.2069  0.1822
 9985TIP3    H151446   3.237   5.054   4.675  1.0551 -1.8231 -0.4384
 9985TIP3    H251447   3.378   5.075   4.726  0.8283  0.7373 -0.7628
 9986TIP3   OH251448   5.223   1.794   2.683  0.0686  0.0499  0.7897
 9986TIP3    H151449   5.243   1.769   2.773 -1.1703  0.0780  1.0867
 9986TIP3    H251450   5.211   1.711   2.637  0.6342  0.0369  0.6596
 9987TIP3   OH251451   6.312   2.772  16.325  0.0047  0.5307 -0.0778
 9987TIP3    H151452   6.275   2.769  16.413 -3.4945  3.9433 -1.1877
 9987TIP3    H251453   6.249   2.725  16.271  0.8548  0.5488 -1.1196
 9988TIP3   OH251454   2.924   2.195   0.890 -0.2304  0.3024  0.2662
 9988TIP3    H151455   2.889   2.106   0.892 -0.2710  0.2488 -1.3910
 9988TIP3    H251456   2.847   2.251   0.904 -0.3825  0.0938  0.2779
 9989TIP3   OH251457   3.869   4.460  15.431 -0.6354 -0.5828 -0.0272
 9989TIP3    H151458   3.907   4.514  15.500 -1.4373  0.2664 -0.2369
 9989TIP3    H251459   3.811   4.399  15.477 -1.1290 -0.0520  0.0609
 9990TIP3   OH251460   6.278   1.342   5.670  0.4138  0.2782 -0.7846
 9990TIP3    H151461   6.282   1.248   5.653  0.0643 -0.1526  1.2605
 9990TIP3    H251462   6.200   1.372   5.624 -2.2996 -1.4038  2.3177
 9991TIP3   OH251463   5.700   5.924  11.533  0.4303 -0.3476  0.1269
 9991TIP3    H151464   5.754   5.952  11.607  1.1356 -1.2862 -0.0024
 9991TIP3    H251465   5.636   5.993  11.522  1.7791  0.9623  0.1210
 9992TIP3   OH251466   0.814   2.986   0.063  0.0187 -0.9305  0.1340
 9992TIP3    H151467   0.824   2.893   0.080 -0.6559 -1.1396 -0.5788
 9992TIP3    H251468   0.864   3.002  -0.017  0.6077 -0.5661  0.5706
 9993TIP3   OH251469   1.448   2.788  12.820  0.2562  0.1048 -0.2228
 9993TIP3    H151470   1.368   2.816  12.864 -0.7951 -0.7729 -1.4910
 9993TIP3    H251471   1.436   2.694  12.806  2.1730 -0.3493  0.8601
 9994TIP3   OH251472   1.993   4.207  11.507 -0.2794 -0.2490 -0.0908
 9994TIP3    H151473   2.081   4.231  11.478 -0.8743  1.1544 -0.8195
 9994TIP3    H251474   1.997   4.112  11.521  1.1280 -0.3315 -0.8982
 9995TIP3   OH251475   2.336   6.602   3.381 -0.1507  0.1176  0.2211
 9995TIP3    H151476   2.288   6.654   3.446 -0.2670 -1.5078  1.5078
 9995TIP3    H251477   2.427   6.606   3.410 -0.2583 -0.9403  0.7567
 9996TIP3   OH251478   2.992   3.395   4.494  0.0651  0.2588  0.5431
 9996TIP3    H151479   2.988   3.441   4.411 -0.0726 -1.3945 -0.4150
 9996TIP3    H251480   2.984   3.464   4.560  0.6995  1.6586 -0.7831
 9997TIP3   OH251481   6.508   3.513  11.049  0.1228 -0.0777  0.2061
 9997TIP3    H151482   6.546   3.527  10.962  0.6144  2.2598  0.7276
 9997TIP3    H251483   6.566   3.451  11.092  0.5282 -0.3503 -0.7178
 9998TIP3   OH251484   6.075   2.104  16.376  0.4160  0.2873 -0.0287
 9998TIP3    H151485   6.147   2.048  16.405 -0.3666  0.2463  2.0232
 9998TIP3    H251486   6.100   2.191  16.407  0.0488  0.4544 -0.2065
 9999TIP3   OH251487   6.186   3.202  12.888 -0.5933  0.7010 -0.3772
 9999TIP3    H151488   6.189   3.291  12.922  0.0385  0.1503  1.0924
 9999TIP3    H251489   6.193   3.146  12.966  2.6321 -0.6499 -1.4824
10000TIP3   OH251490   1.946   4.893   3.229 -0.1876 -0.4966  0.2442
10000TIP3    H151491   1.992   4.913   3.310  0.4004  1.0208 -0.4303
10000TIP3    H251492   1.858   4.867   3.257 -0.2879  0.9186  1.3395
10001TIP3   OH251493   0.861   2.014   0.544  0.9618  0.2750 -0.2849
10001TIP3    H151494   0.919   2.009   0.468  1.0504  2.3059 -0.4021
10001TIP3    H251495   0.908   2.069   0.607  0.6003 -0.8257  1.0038
10002TIP3   OH251496   1.402   1.878  15.212 -0.3734  0.1466 -0.1669
10002TIP3    H151497   1.482   1.928  15.230  0.5297 -1.2438 -0.1913
10002TIP3    H251498   1.382   1.835  15.295  0.2716 -1.3719 -0.7573
10003TIP3   OH251499   2.534   4.519   5.374 -0.2800 -0.3929  0.3769
10003TIP3    H151500   2.593   4.496   5.446  0.1905 -0.5466 -0.0469
10003TIP3    H251501   2.588   4.509   5.295 -1.4246 -2.4802 -0.2043
10004TIP3   OH251502   0.654   4.064   0.985 -0.1263 -0.5066 -0.4920
10004TIP3    H151503   0.723   4.092   0.925 -1.7101  1.5961 -1.4503
10004TIP3    H251504   0.600   4.142   0.999 -1.8013 -1.8219  0.9526
10005TIP3   OH251505   6.005   2.924  16.115 -0.1783  0.3722 -0.0731
10005TIP3    H151506   6.056   2.883  16.045  0.0693  0.7466 -0.1167
10005TIP3    H251507   5.976   2.850  16.169  2.3057  0.2415  1.2463
10006TIP3   OH251508   0.889   1.122   1.226  0.8252  0.0279 -0.2936
10006TIP3    H151509   0.931   1.205   1.202  2.6021 -0.7847 -0.1593
10006TIP3    H251510   0.962   1.063   1.244 -0.3694 -1.9539 -1.6032
10007TIP3   OH251511   5.807   4.867   5.851  0.3721  0.3694  0.1281
10007TIP3    H151512   5.791   4.842   5.941 -0.3264  0.2027 -0.0383
10007TIP3    H251513   5.868   4.941   5.857 -0.3690  0.9420  0.7699
10008TIP3   OH251514   6.746   1.809  11.083  0.5348  0.5178 -0.0583
10008TIP3    H151515   6.785   1.890  11.051  2.2946 -0.0692  0.4840
10008TIP3    H251516   6.793   1.789  11.164  0.5274 -1.3065 -0.4470
10009TIP3   OH251517   1.834   3.906  13.059 -0.3530  0.0480 -0.0606
10009TIP3    H151518   1.828   3.840  12.990 -2.3656  1.9640 -1.9010
10009TIP3    H251519   1.752   3.955  13.052  0.0638  1.3463  2.7065
10010TIP3   OH251520   2.115   6.480  15.670 -0.2652 -0.0360  0.0784
10010TIP3    H151521   2.117   6.448  15.760  0.6932  2.1079  0.8684
10010TIP3    H251522   2.028   6.453  15.637  0.3627 -3.1802  0.6594
10011TIP3   OH251523   1.043   6.381   5.544  0.2220 -0.0455 -0.4085
10011TIP3    H151524   0.975   6.347   5.485  0.9639 -1.0327 -0.7130
10011TIP3    H251525   1.033   6.476   5.539 -1.6610 -0.1751  0.1793
10012TIP3   OH251526   2.086   6.411  11.770  0.0730  0.3407 -0.3240
10012TIP3    H151527   2.123   6.498  11.784  0.8739 -0.1571  0.8938
10012TIP3    H251528   2.162   6.355  11.751  0.0347 -0.6772  2.0874
10013TIP3   OH251529   4.876   4.363   0.149 -0.3914 -0.1138  0.3146
10013TIP3    H151530   4.859   4.453   0.121  0.1228 -0.0345  0.2448
10013TIP3    H251531   4.816   4.349   0.223  0.1366  0.5848  0.8882
10014TIP3   OH251532   1.759   6.447   0.002  0.0801 -0.0836 -0.0203
10014TIP3    H151533   1.664   6.454   0.013  0.1707  0.3132  0.6241
10014TIP3    H251534   1.777   6.491  -0.081 -0.3295 -0.4010 -0.2801
10015TIP3   OH251535   6.045   4.310  13.983 -0.0765 -0.4038  0.4789
10015TIP3    H151536   6.023   4.217  13.985  0.1713 -0.4650  0.4486
10015TIP3    H251537   6.139   4.312  14.002 -0.0174 -0.1840  0.1658
10016TIP3   OH251538   3.716   5.220  12.054  0.2130  0.0385  0.1269
10016TIP3    H151539   3.696   5.131  12.022 -0.6275 -0.4450  1.8700
10016TIP3    H251540   3.797   5.210  12.104 -0.5827 -0.0431  1.4360
10017TIP3   OH251541   0.251   2.066  10.838 -0.7291  0.1581 -0.0180
10017TIP3    H151542   0.325   2.048  10.781 -0.5707 -2.8069  0.9317
10017TIP3    H251543   0.284   2.130  10.901  0.7453 -0.4623 -0.1283
10018TIP3   OH251544   0.243   1.262   4.486  0.0771  0.1440  0.1278
10018TIP3    H151545   0.215   1.180   4.446  2.6673 -0.2428 -1.1044
10018TIP3    H251546   0.186   1.328   4.446 -0.5667 -0.7961 -0.5539
10019TIP3   OH251547   0.918   4.719   6.064 -0.0847  0.3836  0.6397
10019TIP3    H151548   0.844   4.701   6.121 -0.0501  0.6828  0.7826
10019TIP3    H251549   0.880   4.765   5.989 -0.0676  0.3937  0.6373
10020TIP3   OH251550   4.886   3.568  11.211 -0.5145  0.0370  0.1347
10020TIP3    H151551   4.970   3.561  11.256 -0.2509 -0.6252 -0.4560
10020TIP3    H251552   4.874   3.662  11.198  1.1337  0.0510 -1.6367
10021TIP3   OH251553   1.551   1.605   5.517 -0.6741  0.0395 -0.3982
10021TIP3    H151554   1.501   1.528   5.488 -0.7985 -0.3719  0.8455
10021TIP3    H251555   1.517   1.676   5.463 -0.2857 -0.8278 -1.8517
10022TIP3   OH251556   2.029   0.879   5.108 -0.0070 -0.5961 -0.2039
10022TIP3    H151557   1.951   0.839   5.068 -1.5478  0.7186  1.3206
10022TIP3    H251558   1.996   0.957   5.152  2.4030  0.6525 -0.4487
10023TIP3   OH251559   5.640   2.004  15.801 -0.0004  0.3116 -0.5868
10023TIP3    H151560   5.697   2.080  15.790  0.9448 -0.4054 -0.9142
10023TIP3    H251561   5.578   2.009  15.728  0.9336  0.0556 -1.4280
10024TIP3   OH251562   3.796   0.529  14.435  0.1065 -0.7934  0.0543
10024TIP3    H151563   3.833   0.550  14.520  0.8107  1.0340 -0.6658
10024TIP3    H251564   3.844   0.583  14.373 -0.8552 -1.5675 -1.4346
10025TIP3   OH251565   0.868   3.229   1.008  0.5986  0.2752  0.0799
10025TIP3    H151566   0.951   3.190   1.034  0.9130  1.6219  1.1722
10025TIP3    H251567   0.859   3.307   1.063 -1.3458  0.2080 -0.0590
10026TIP3   OH251568   1.764   2.145  15.674 -0.2937  0.1472 -0.0679
10026TIP3    H151569   1.738   2.136  15.766 -0.3747  1.4011  0.0604
10026TIP3    H251570   1.830   2.077  15.661  1.5242  1.4425  1.6309
10027TIP3   OH251571   1.951   6.801  16.022 -0.1808 -0.0766 -0.6253
10027TIP3    H151572   1.921   6.877  16.071 -1.9474 -0.7033 -0.6572
10027TIP3    H251573   1.993   6.838  15.944 -2.3071  0.9258 -1.3820
10028TIP3   OH251574   4.808   3.805  11.117  0.4334 -0.1871  0.4141
10028TIP3    H151575   4.790   3.832  11.027  2.0217  0.1326  0.1583
10028TIP3    H251576   4.811   3.887  11.166  1.6151 -0.1773  0.3475
10029TIP3   OH251577   0.971   4.975  13.786  0.1915  0.0963 -0.1764
10029TIP3    H151578   1.065   4.982  13.802  0.3665 -2.3002  0.1142
10029TIP3    H251579   0.961   5.001  13.695  1.3281 -0.8472 -0.5957
10030TIP3   OH251580   1.844   3.146  15.197 -0.0993 -0.8004 -0.5671
10030TIP3    H151581   1.901   3.072  15.220  3.0963  1.5625 -0.2235
10030TIP3    H251582   1.840   3.144  15.101  0.1762 -1.2916 -0.5732
10031TIP3   OH251583   3.690   3.607   3.531 -0.1156  0.0217 -0.6556
10031TIP3    H151584   3.746   3.632   3.604 -0.3676  0.3240 -0.5622
10031TIP3    H251585   3.601   3.621   3.563 -0.2151  0.5985 -1.1806
10032TIP3   OH251586   5.161   6.016  13.793  0.1932 -0.0329 -0.2643
10032TIP3    H151587   5.072   5.984  13.800  0.6410 -1.1121  0.8912
10032TIP3    H251588   5.210   5.965  13.857  1.5147  1.0030 -0.4063
10033TIP3   OH251589   2.176   3.841   2.449 -0.1891  0.7202  0.4989
10033TIP3    H151590   2.218   3.919   2.486 -1.0588  2.5600 -2.1361
10033TIP3    H251591   2.236   3.812   2.380 -1.8242  1.7281 -1.4444
10034TIP3   OH251592   2.204   5.084   0.985 -0.1984 -0.1530 -0.2420
10034TIP3    H151593   2.273   5.150   0.975 -0.8925  0.9351  1.6309
10034TIP3    H251594   2.133   5.115   0.928  0.0808 -0.1669 -0.6009
10035TIP3   OH251595   3.555   1.818  14.783 -0.2345 -0.5076  0.3883
10035TIP3    H151596   3.507   1.860  14.711 -0.1614 -0.7751  0.1804
10035TIP3    H251597   3.647   1.840  14.766 -0.4158  1.6100  1.8338
10036TIP3   OH251598   4.793   4.237   3.707 -0.1856  0.0775 -0.3275
10036TIP3    H151599   4.833   4.153   3.729  0.0812 -0.0714 -1.3403
10036TIP3    H251600   4.858   4.282   3.653 -1.0517  0.1568 -1.3320
10037TIP3   OH251601   1.976   0.335   0.352 -0.2499 -0.0043  0.2334
10037TIP3    H151602   2.003   0.407   0.409  0.1850 -0.2575  0.3474
10037TIP3    H251603   1.916   0.283   0.405 -0.5917  0.2901  0.1396
10038TIP3   OH251604   3.994   5.230   4.506  1.2980 -0.6791 -0.1818
10038TIP3    H151605   3.996   5.323   4.485  1.0870 -0.5814  0.2127
10038TIP3    H251606   3.921   5.221   4.567  1.3586 -1.0920 -0.1671
10039TIP3   OH251607   5.754   4.864  13.665 -0.2569  0.0341 -0.4951
10039TIP3    H151608   5.785   4.820  13.745 -0.3101  1.3563  0.2902
10039TIP3    H251609   5.826   4.923  13.642 -0.5247  0.1488 -1.0323
10040TIP3   OH251610   3.752   5.061  17.087  0.4141  0.8562  0.2031
10040TIP3    H151611   3.695   4.986  17.065  1.0854  0.0706  1.0497
10040TIP3    H251612   3.699   5.114  17.147  0.1050  0.8141 -0.0295
10041TIP3   OH251613   2.679   3.193  13.855  0.0657 -0.1432  0.2054
10041TIP3    H151614   2.592   3.230  13.871 -0.8425 -2.2590  0.5018
10041TIP3    H251615   2.706   3.158  13.940  0.0160 -1.7919 -0.4097
10042TIP3   OH251616   0.456   6.456  11.615  0.6200 -0.2646 -0.1267
10042TIP3    H151617   0.418   6.533  11.572  4.4933  1.4924 -0.9177
10042TIP3    H251618   0.396   6.385  11.596 -2.3086  2.1782 -0.8663
10043TIP3   OH251619   1.744   3.480   2.788 -0.1142  0.2592  0.0626
10043TIP3    H151620   1.681   3.430   2.736  1.0493  1.9008 -3.2595
10043TIP3    H251621   1.825   3.430   2.783 -0.3921 -0.4832  2.0167
10044TIP3   OH251622   2.140   3.241   5.193  0.0215  0.2754 -0.4215
10044TIP3    H151623   2.114   3.149   5.200  1.0096 -0.0583 -0.9229
10044TIP3    H251624   2.062   3.290   5.219 -0.6274 -0.6946 -0.4797
10045TIP3   OH251625   3.209   3.984  11.484  0.3481 -0.2178 -0.1755
10045TIP3    H151626   3.218   4.050  11.415 -0.4721 -1.2271 -1.3001
10045TIP3    H251627   3.179   4.032  11.561  1.7581  1.0129 -0.3486
10046TIP3   OH251628   2.609   6.557  16.194  0.3088  0.1785 -0.5979
10046TIP3    H151629   2.645   6.474  16.225 -0.4615  0.5282  1.3828
10046TIP3    H251630   2.667   6.624  16.229 -1.3602  0.6620  1.4485
10047TIP3   OH251631   5.475   2.131   5.504  0.6749  0.0102  0.4153
10047TIP3    H151632   5.561   2.171   5.515  1.2737 -1.3562  0.9452
10047TIP3    H251633   5.482   2.080   5.423 -0.4740  1.8850 -0.9383
10048TIP3   OH251634   4.220   2.376   2.318 -0.0706  0.0297  0.1095
10048TIP3    H151635   4.212   2.316   2.392  0.1883 -0.6241 -0.3882
10048TIP3    H251636   4.229   2.320   2.241  0.3373  0.7013 -0.3482
10049TIP3   OH251637   5.273   6.557   9.796 -0.1872  0.6284  0.0509
10049TIP3    H151638   5.297   6.569   9.887 -2.7734  1.0737  0.7598
10049TIP3    H251639   5.220   6.477   9.795  0.7833 -0.0416 -1.3008
10050TIP3   OH251640   2.420   5.678  16.501  0.4968 -0.3851  0.2636
10050TIP3    H151641   2.389   5.651  16.415 -0.5242  0.7099  0.2669
10050TIP3    H251642   2.511   5.649  16.504  0.2933 -1.1869 -0.8448
10051TIP3   OH251643   6.011   4.314   4.544 -0.0739  0.7603  0.0957
10051TIP3    H151644   5.996   4.406   4.522  0.4647  1.0612  0.9684
10051TIP3    H251645   6.034   4.314   4.636 -3.1374 -0.5684  0.9873
10052TIP3   OH251646   4.814   4.558  11.907 -0.1185  0.1524 -0.0335
10052TIP3    H151647   4.833   4.554  12.001  1.5631 -1.3151 -0.3696
10052TIP3    H251648   4.776   4.472  11.887 -0.7831  0.5796 -0.6542
10053TIP3   OH251649   3.047   5.342  10.788  0.5346  0.7019 -0.3342
10053TIP3    H151650   3.033   5.360  10.880 -2.5869 -0.0572 -0.5710
10053TIP3    H251651   3.021   5.423  10.743  1.3534  0.8235 -0.6090
10054TIP3   OH251652   4.968   2.763  11.066 -0.2544 -0.3899  0.2789
10054TIP3    H151653   4.898   2.821  11.097 -0.5507 -1.4064  1.6369
10054TIP3    H251654   4.993   2.798  10.981 -0.7304  1.4558  0.8491
10055TIP3   OH251655   5.621   4.656   3.006 -0.0265  0.4861 -0.2555
10055TIP3    H151656   5.556   4.600   2.962 -0.3483  0.2159  0.5439
10055TIP3    H251657   5.705   4.625   2.972 -0.2119 -0.3609  0.0291
10056TIP3   OH251658   5.550   1.084  13.056 -0.4027 -0.0040  0.6750
10056TIP3    H151659   5.546   1.178  13.074  0.0597 -0.1225  1.4386
10056TIP3    H251660   5.630   1.055  13.099 -1.6345 -1.1407  2.3592
10057TIP3   OH251661   2.586   0.366  16.103  0.4968  0.5620 -0.5534
10057TIP3    H151662   2.575   0.440  16.043  1.4643 -0.4721 -2.0720
10057TIP3    H251663   2.624   0.297  16.049  1.2956 -0.4604  1.2423
10058TIP3   OH251664   5.772   0.091  15.364  0.4049  0.3540 -0.5691
10058TIP3    H151665   5.792   0.021  15.301  0.4452 -1.4424  1.3236
10058TIP3    H251666   5.813   0.062  15.446  1.4746  3.2311  0.0396
10059TIP3   OH251667   0.186   5.201   6.556  0.5805 -0.1806 -0.0378
10059TIP3    H151668   0.233   5.227   6.635  1.1147 -1.6192  0.1619
10059TIP3    H251669   0.209   5.267   6.491  0.8236  0.5429  0.7638
10060TIP3   OH251670   4.106   0.740   0.546 -0.0673 -0.0893 -0.2267
10060TIP3    H151671   4.016   0.710   0.559  0.3024 -0.3562  2.0350
10060TIP3    H251672   4.103   0.790   0.464 -2.4328  0.5480  0.1780
10061TIP3   OH251673   5.005   0.722  10.486  0.5868 -0.2853  0.2897
10061TIP3    H151674   4.918   0.737  10.524  0.7137 -0.7379  0.7660
10061TIP3    H251675   4.988   0.704  10.393  0.2948  1.0860  0.0526
10062TIP3   OH251676   6.838   2.529   1.837  0.2907 -0.6920 -0.2008
10062TIP3    H151677   6.778   2.483   1.896  1.4913 -1.0247  0.8000
10062TIP3    H251678   6.925   2.509   1.871  0.9666  0.0435 -1.4315
10063TIP3   OH251679   0.228   6.643   1.186  0.1615 -0.2518 -0.3168
10063TIP3    H151680   0.167   6.652   1.112 -2.0730  1.0112  1.5464
10063TIP3    H251681   0.223   6.726   1.232  1.0502 -1.1825  1.5725
10064TIP3   OH251682   3.354   2.602  15.169  0.1268  1.1527  0.5728
10064TIP3    H151683   3.350   2.698  15.163  0.5973  1.1358 -0.1312
10064TIP3    H251684   3.417   2.586  15.239 -0.0928  1.3571  0.8207
10065TIP3   OH251685   1.667   5.447   0.187 -0.1276  0.0572  0.1595
10065TIP3    H151686   1.664   5.399   0.105 -0.0440  0.3931 -0.0402
10065TIP3    H251687   1.599   5.406   0.241 -1.0274  0.6252 -0.5086
10066TIP3   OH251688   1.276   4.274   2.805 -0.0471 -0.2801  0.2658
10066TIP3    H151689   1.316   4.353   2.839  0.2169 -0.3918  0.2191
10066TIP3    H251690   1.243   4.228   2.882 -0.3387 -0.0500  0.2778
10067TIP3   OH251691   3.660   0.121  15.147 -0.3635  0.1042  0.1116
10067TIP3    H151692   3.698   0.110  15.060 -1.8930 -1.6175 -0.4064
10067TIP3    H251693   3.566   0.110  15.134 -0.7138  0.6917  1.8612
10068TIP3   OH251694   0.876   0.268   1.925  0.3467  0.1660 -0.4738
10068TIP3    H151695   0.809   0.256   1.858  0.1916 -3.2892  0.1233
10068TIP3    H251696   0.857   0.201   1.991  1.3705  2.4545  2.3522
10069TIP3   OH251697   5.645   5.946   2.366  0.7856 -0.2821  0.7787
10069TIP3    H151698   5.718   5.986   2.318  0.4321 -0.9228 -0.3286
10069TIP3    H251699   5.569   5.960   2.309 -0.0071  0.5314  2.0002
10070TIP3   OH251700   3.841   0.630  15.413 -0.3401 -0.4065 -0.6217
10070TIP3    H151701   3.772   0.581  15.368 -1.9140 -1.2043  2.3674
10070TIP3    H251702   3.914   0.568  15.419  0.1260 -0.0858 -2.4591
10071TIP3   OH251703   1.259   2.437   5.581 -0.2160 -0.5944 -0.1142
10071TIP3    H151704   1.172   2.398   5.570 -1.6598  2.5539 -0.9844
10071TIP3    H251705   1.244   2.515   5.635  1.9289  0.4270 -0.8743
10072TIP3   OH251706   0.636   5.309  14.691  0.3450  0.6281 -0.0754
10072TIP3    H151707   0.689   5.372  14.739  0.3899 -1.6076  3.1705
10072TIP3    H251708   0.688   5.229  14.691 -1.8855 -0.9349  1.0146
10073TIP3   OH251709   5.211   2.448  15.369  0.0323 -0.1486  0.3116
10073TIP3    H151710   5.178   2.413  15.451 -0.2913  1.9795  1.1417
10073TIP3    H251711   5.304   2.429  15.370  0.0284 -0.1191  1.1675
10074TIP3   OH251712   3.300   1.970  11.966  0.1002 -0.1463 -0.1736
10074TIP3    H151713   3.293   2.061  11.993 -1.0767 -0.3195  0.1683
10074TIP3    H251714   3.354   1.929  12.034 -0.6202 -0.0114  0.4903
10075TIP3   OH251715   6.036   6.703   2.124  0.1878 -0.1198  0.1692
10075TIP3    H151716   6.022   6.633   2.188  0.3320 -3.1582 -2.7831
10075TIP3    H251717   5.955   6.704   2.072  1.3180 -0.3243 -1.7100
10076TIP3   OH251718   3.039   0.037   0.091 -0.3878  0.2804 -0.1649
10076TIP3    H151719   2.946   0.036   0.114 -0.6428 -1.7321 -1.1176
10076TIP3    H251720   3.081  -0.010   0.163  0.1316  2.3094  0.9395
10077TIP3   OH251721   6.783   1.345   1.400 -0.8839 -0.3459  0.2400
10077TIP3    H151722   6.829   1.287   1.339  0.3483  1.0741 -0.2682
10077TIP3    H251723   6.844   1.354   1.474 -0.5545  1.1144 -0.1804
10078TIP3   OH251724   0.323   6.604   2.007 -0.3482 -0.2355 -0.5545
10078TIP3    H151725   0.232   6.632   2.019 -0.3140 -0.6220  0.7969
10078TIP3    H251726   0.369   6.684   1.980 -0.6910  0.5252  0.9685
10079TIP3   OH251727   1.959   6.043   0.635 -0.3845 -0.2177 -0.2904
10079TIP3    H151728   2.015   6.013   0.706 -1.1599 -0.2177  0.3307
10079TIP3    H251729   1.939   6.134   0.656 -1.5300 -0.5430  0.0976
10080TIP3   OH251730   3.120   4.617  14.603 -0.1407 -0.1928  0.4188
10080TIP3    H151731   3.156   4.634  14.690  0.7613 -1.0694  0.2361
10080TIP3    H251732   3.028   4.643  14.609  0.5845  2.6516  0.7462
10081TIP3   OH251733   1.569   4.471  10.585 -0.4268  0.3384  0.2224
10081TIP3    H151734   1.653   4.485  10.630 -0.3911 -0.2418  0.3463
10081TIP3    H251735   1.508   4.529  10.630 -0.2864  0.1054  0.7143
10082TIP3   OH251736   3.006   4.416   6.072 -0.7068  0.5325  0.2958
10082TIP3    H151737   3.082   4.463   6.037  0.3568 -0.5224  1.0968
10082TIP3    H251738   2.931   4.467   6.043  0.3074  1.6417 -0.4850
10083TIP3   OH251739   2.711   1.477   5.154  0.2339 -0.3604  0.3668
10083TIP3    H151740   2.794   1.452   5.194  0.5393 -0.1919 -0.1591
10083TIP3    H251741   2.687   1.402   5.099  0.0405 -0.4050  0.5101
10084TIP3   OH251742   4.800   1.929   2.360 -0.1669 -0.6779 -0.3316
10084TIP3    H151743   4.842   1.862   2.414 -0.2329 -0.0677  0.4867
10084TIP3    H251744   4.853   2.007   2.372 -1.2219 -0.0400  0.3088
10085TIP3   OH251745   4.051   2.047   4.236 -0.3839  0.1367  0.0578
10085TIP3    H151746   4.071   1.999   4.317  0.6739 -0.0557 -0.2991
10085TIP3    H251747   4.028   1.979   4.173 -0.1004  0.1874 -0.1048
10086TIP3   OH251748   2.206   6.045  11.823 -0.3962 -0.2242  0.2016
10086TIP3    H151749   2.273   6.014  11.761  0.0658  0.8049  0.1655
10086TIP3    H251750   2.124   6.007  11.791 -0.1668  0.2651 -1.0367
10087TIP3   OH251751   1.186   6.067   0.123 -0.6783 -0.1701 -0.2325
10087TIP3    H151752   1.126   6.008   0.169  0.0402 -1.2238 -0.6240
10087TIP3    H251753   1.131   6.141   0.098 -1.2814  0.0378  1.5468
10088TIP3   OH251754   0.809   1.044   3.211  0.2956 -0.7026  0.1900
10088TIP3    H151755   0.889   0.991   3.222  1.4306  1.2427  2.1071
10088TIP3    H251756   0.839   1.123   3.167 -0.8686 -0.5003 -0.2681
10089TIP3   OH251757   3.964   1.155  15.578 -0.4333 -0.1381  0.3799
10089TIP3    H151758   3.910   1.182  15.504  0.0243 -0.9595 -0.2760
10089TIP3    H251759   3.945   1.061  15.589  1.6520 -0.7490 -0.6040
10090TIP3   OH251760   6.538   3.063   4.132 -0.6783 -0.3101 -0.0231
10090TIP3    H151761   6.507   2.997   4.193 -0.4259 -1.0538 -0.6876
10090TIP3    H251762   6.598   3.017   4.074  1.6005  1.0184  1.0970
10091TIP3   OH251763   2.577   2.535  14.746 -0.0544 -0.7824  0.0106
10091TIP3    H151764   2.617   2.603  14.801  2.4362 -1.5489 -0.7156
10091TIP3    H251765   2.528   2.584  14.680 -0.5079  0.2217  1.0520
10092TIP3   OH251766   0.207   3.688  16.957  0.0095  0.2390 -0.1105
10092TIP3    H151767   0.197   3.708  16.864  0.1310  0.2393 -0.1243
10092TIP3    H251768   0.119   3.696  16.993 -0.2121 -0.7384 -0.4088
10093TIP3   OH251769   0.153   6.398  15.399 -0.4761 -0.3246  0.0340
10093TIP3    H151770   0.162   6.400  15.303  0.1283  0.3357  0.0962
10093TIP3    H251771   0.229   6.348  15.429  0.8222  1.6919  0.3055
10094TIP3   OH251772   5.304   5.580   1.031 -0.0105 -0.3785 -0.0351
10094TIP3    H151773   5.209   5.591   1.021  0.1517  3.1819  1.0167
10094TIP3    H251774   5.337   5.571   0.941 -1.1233  1.3512 -0.6654
10095TIP3   OH251775   4.304   2.631  12.584  0.3621  0.2653  0.0726
10095TIP3    H151776   4.340   2.647  12.672  0.6306  1.2678 -0.2137
10095TIP3    H251777   4.369   2.667  12.524  0.8750 -1.6876 -0.6220
10096TIP3   OH251778   4.641   2.430  16.575 -0.7127  0.2510 -0.5791
10096TIP3    H151779   4.570   2.494  16.577 -1.6872 -0.6323 -3.0209
10096TIP3    H251780   4.605   2.356  16.527  1.0966 -1.2730  0.2737
10097TIP3   OH251781   5.392   1.430   0.974  0.1407  0.1193 -0.0354
10097TIP3    H151782   5.326   1.366   1.001  0.1299  0.6544  1.2666
10097TIP3    H251783   5.476   1.390   0.997  0.2750 -0.4296 -1.4097
10098TIP3   OH251784   6.337   0.203   2.097 -0.2104 -0.0301 -0.3938
10098TIP3    H151785   6.349   0.236   2.186  1.5760  0.9847 -0.9681
10098TIP3    H251786   6.332   0.281   2.042 -0.3974 -0.6489 -1.2781
10099TIP3   OH251787   2.467   0.737  16.319  0.0303  0.4838  0.2890
10099TIP3    H151788   2.388   0.689  16.295  0.4350 -0.9805  1.6970
10099TIP3    H251789   2.435   0.819  16.355 -0.8227  0.1407  0.3347
10100TIP3   OH251790   3.051   4.998  14.217 -0.0699  0.1492 -0.4276
10100TIP3    H151791   3.117   5.031  14.279  0.5051 -0.8591 -0.4752
10100TIP3    H251792   3.045   4.905  14.237 -0.4346 -0.0426 -1.3984
10101TIP3   OH251793   6.737   3.736  16.054  0.4147 -0.5645  0.4454
10101TIP3    H151794   6.746   3.643  16.076  0.7966 -0.4250  0.8933
10101TIP3    H251795   6.771   3.743  15.965 -2.6153 -1.4309 -0.9247
10102TIP3   OH251796   0.198   0.188  17.001 -0.2998  0.1485 -0.2005
10102TIP3    H151797   0.239   0.119  16.950  0.2545  0.7295 -0.5588
10102TIP3    H251798   0.255   0.200  17.077 -0.8022 -0.2997  0.2575
10103TIP3   OH251799   3.474   3.848   5.547  1.0597 -0.2823 -0.5547
10103TIP3    H151800   3.505   3.915   5.608  1.4803 -0.8474 -0.1436
10103TIP3    H251801   3.380   3.844   5.562  0.9648  0.4844 -0.8599
10104TIP3   OH251802   5.518   2.988  11.520  0.4985 -0.2675 -0.0418
10104TIP3    H151803   5.450   2.921  11.529  0.0119  0.0910 -0.9438
10104TIP3    H251804   5.516   3.013  11.427  2.5234 -0.9369 -0.3296
10105TIP3   OH251805   0.351   0.362   4.800  0.2214  0.5612  0.2998
10105TIP3    H151806   0.304   0.444   4.812  0.6088  1.1863 -1.9213
10105TIP3    H251807   0.435   0.389   4.760  0.0482 -0.9275 -1.1654
10106TIP3   OH251808   6.347   6.415  15.150 -0.2742  0.3462 -0.3250
10106TIP3    H151809   6.403   6.338  15.158 -1.8610 -0.9586 -1.1808
10106TIP3    H251810   6.361   6.447  15.061  0.8633  1.5007  0.2247
10107TIP3   OH251811   3.292   5.596  16.451 -0.3448  0.3375 -0.3661
10107TIP3    H151812   3.342   5.659  16.504 -1.3743  1.1448 -0.3244
10107TIP3    H251813   3.359   5.546  16.404  0.6295 -0.5456  1.8237
10108TIP3   OH251814   2.477   1.459   2.908 -0.5017 -0.2739  0.2620
10108TIP3    H151815   2.481   1.363   2.912  0.1891 -0.4735 -2.7745
10108TIP3    H251816   2.568   1.487   2.906 -0.6109  0.7493  3.5428
10109TIP3   OH251817   2.884   3.933  10.949 -0.0972 -0.2179  0.0494
10109TIP3    H151818   2.872   3.915  10.856 -0.5899 -1.3689  0.3230
10109TIP3    H251819   2.930   4.017  10.952 -0.0601 -0.1859 -1.2246
10110TIP3   OH251820   3.879   4.571  11.550  0.4607  0.1209  0.0934
10110TIP3    H151821   3.858   4.631  11.479 -1.1063 -0.1281  0.3211
10110TIP3    H251822   3.859   4.484  11.515  2.1518 -0.2680 -0.0282
10111TIP3   OH251823   1.608   2.635  11.258 -0.0207  0.2555  0.1364
10111TIP3    H151824   1.651   2.564  11.210  0.3250 -0.1924  1.0632
10111TIP3    H251825   1.677   2.671  11.314 -0.1110  1.5505 -0.5408
10112TIP3   OH251826   4.863   1.786   5.561  0.2951  0.2988  0.3548
10112TIP3    H151827   4.899   1.697   5.565 -0.6050 -0.2261 -1.7453
10112TIP3    H251828   4.894   1.828   5.641  1.7461 -1.5246  0.8263
10113TIP3   OH251829   6.542   2.209  15.515 -0.4310 -0.6103  0.3868
10113TIP3    H151830   6.550   2.123  15.472 -0.1731  0.2969 -1.4929
10113TIP3    H251831   6.595   2.267  15.461 -1.7103  1.0193  0.8177
10114TIP3   OH251832   6.160   3.620   5.572  0.6415  0.4426  0.1956
10114TIP3    H151833   6.066   3.636   5.566  0.6612  1.1922  1.5282
10114TIP3    H251834   6.194   3.648   5.487 -0.6491 -2.5380 -1.4415
10115TIP3   OH251835   2.678   6.333   2.484  0.4177 -0.1055  0.6571
10115TIP3    H151836   2.583   6.333   2.496  0.0943  0.0174 -1.4822
10115TIP3    H251837   2.699   6.423   2.463  0.6879 -0.4735 -0.7644
10116TIP3   OH251838   0.203   1.883   2.070  0.0807  0.0032  0.0767
10116TIP3    H151839   0.247   1.930   2.141 -0.8912  0.8529  0.1357
10116TIP3    H251840   0.247   1.798   2.067  1.5017  0.6863  0.3470
10117TIP3   OH251841   4.148   2.718   0.574  0.1513 -0.1062 -0.0774
10117TIP3    H151842   4.116   2.770   0.500  0.9523 -1.1522 -1.2075
10117TIP3    H251843   4.069   2.700   0.626 -0.0401  2.7553  0.7486
10118TIP3   OH251844   1.615   1.266  11.718  0.8836  0.5968 -0.2681
10118TIP3    H151845   1.533   1.315  11.724  0.9622  0.5884  1.4420
10118TIP3    H251846   1.610   1.219  11.635 -1.0093  0.2816 -0.0064
10119TIP3   OH251847   1.361   3.109  14.067 -0.0268  0.0514 -0.5555
10119TIP3    H151848   1.337   3.199  14.087  0.1954  0.2263 -1.0579
10119TIP3    H251849   1.409   3.079  14.144  0.5727  0.6159 -0.7028
10120TIP3   OH251850   5.571   0.973  14.783 -0.0381 -0.1461 -0.2351
10120TIP3    H151851   5.490   0.922  14.786 -0.8254  1.0488 -0.4966
10120TIP3    H251852   5.573   1.011  14.696  2.1071 -2.1109 -1.1579
10121TIP3   OH251853   6.395   6.357  10.805 -0.1940  0.3464 -0.3982
10121TIP3    H151854   6.418   6.278  10.854 -1.5298  1.1673  1.6850
10121TIP3    H251855   6.480   6.398  10.787  0.3983 -0.3034  0.7386
10122TIP3   OH251856   2.620   1.632  15.321  0.0900 -0.1366  0.3405
10122TIP3    H151857   2.603   1.666  15.409 -0.1568 -0.7467  0.5310
10122TIP3    H251858   2.706   1.591  15.327  0.0971 -0.1301  0.2837
10123TIP3   OH251859   2.767   5.131  11.031 -0.3502 -0.2038 -0.2817
10123TIP3    H151860   2.844   5.088  11.069  0.8236  0.7066 -1.5052
10123TIP3    H251861   2.719   5.165  11.106  1.3689  0.6987  0.4627
10124TIP3   OH251862   4.750   3.304   4.619  0.2495 -0.5209  0.0167
10124TIP3    H151863   4.722   3.257   4.698 -1.2572  0.4723  0.1168
10124TIP3    H251864   4.839   3.332   4.639 -0.2209  0.0009  1.5398
10125TIP3   OH251865   4.707   3.021  14.082 -0.5523  0.2655  0.2765
10125TIP3    H151866   4.764   2.980  14.016 -0.0450 -0.9234  1.4110
10125TIP3    H251867   4.751   3.006  14.165 -1.2330  1.6534  0.9308
10126TIP3   OH251868   4.566   0.320  16.801  0.2955 -0.2293  0.6502
10126TIP3    H151869   4.656   0.290  16.791  0.1473 -0.0892 -1.9201
10126TIP3    H251870   4.536   0.334  16.711 -1.4584  2.2423  1.5077
10127TIP3   OH251871   5.383   3.853  14.550  0.3113 -0.2160 -0.5004
10127TIP3    H151872   5.344   3.933  14.587 -0.2497 -0.5083 -0.4504
10127TIP3    H251873   5.320   3.823  14.485  1.3927  0.4053 -1.8747
10128TIP3   OH251874   3.177   3.501  12.058 -0.0492 -0.1217 -0.0293
10128TIP3    H151875   3.217   3.452  12.131 -0.6502  0.7059  0.8817
10128TIP3    H251876   3.104   3.445  12.030 -1.3390  0.6015  1.6471
10129TIP3   OH251877   1.421   3.240   4.696  0.1571  0.4020 -0.5113
10129TIP3    H151878   1.512   3.223   4.673  0.2580 -1.5326  1.0359
10129TIP3    H251879   1.424   3.277   4.784 -0.5489 -1.7852  0.5282
10130TIP3   OH251880   3.326   0.893  11.408 -0.1155 -0.4569 -0.1109
10130TIP3    H151881   3.283   0.829  11.351 -0.2403 -0.0970 -0.4296
10130TIP3    H251882   3.364   0.842  11.479 -1.7567 -0.7032  0.6152
10131TIP3   OH251883   5.849   6.465   3.988 -0.6056  0.0893 -0.3836
10131TIP3    H151884   5.849   6.487   3.895  1.7851 -0.7318 -0.6702
10131TIP3    H251885   5.864   6.548   4.033 -0.5157  0.3189 -0.8362
10132TIP3   OH251886   3.587   2.013  13.376  0.2354 -0.2018  0.1575
10132TIP3    H151887   3.623   1.989  13.462 -0.9587 -2.0766  0.1797
10132TIP3    H251888   3.587   2.109  13.377  2.0038 -0.1519  1.4729
10133TIP3   OH251889   4.870   4.626   3.822 -0.3225 -0.0163 -0.2889
10133TIP3    H151890   4.778   4.617   3.797  0.0471  1.5502 -2.5400
10133TIP3    H251891   4.918   4.579   3.754  0.5804 -0.7954  0.8492
10134TIP3   OH251892   0.393   4.365   5.206  0.2665 -0.8899  0.0727
10134TIP3    H151893   0.345   4.419   5.143  2.5234  0.7626 -0.3515
10134TIP3    H251894   0.484   4.369   5.177  0.9847 -2.3536  1.8946
10135TIP3   OH251895   0.901   4.295  16.462 -0.7744  0.0341  0.1481
10135TIP3    H151896   0.924   4.224  16.523  2.2114  0.4453 -0.3496
10135TIP3    H251897   0.936   4.265  16.377 -1.0059  1.3348 -0.4224
10136TIP3   OH251898   3.322   4.861  12.750 -0.7701 -0.2849 -1.1050
10136TIP3    H151899   3.397   4.815  12.788 -1.6338 -0.4549  0.4443
10136TIP3    H251900   3.359   4.943  12.716 -0.1320  0.4794  1.2549
10137TIP3   OH251901   4.732   2.649   1.146 -0.2823 -0.6581 -0.3907
10137TIP3    H151902   4.765   2.637   1.057  1.1257 -1.1281  0.1696
10137TIP3    H251903   4.692   2.736   1.144  1.0742 -0.0099 -1.1065
10138TIP3   OH251904   5.663   3.003   3.934 -0.5285 -0.3077 -0.5006
10138TIP3    H151905   5.640   2.914   3.905 -0.0680 -1.4448  2.2866
10138TIP3    H251906   5.728   2.989   4.003 -0.1740  2.2527 -0.2382
10139TIP3   OH251907   5.826   0.351  13.286  0.4162 -0.2312 -0.1353
10139TIP3    H151908   5.833   0.403  13.207 -0.1325  0.5945  0.3426
10139TIP3    H251909   5.735   0.320  13.287  0.5361 -0.5886 -0.0452
10140TIP3   OH251910   6.061   4.892   2.330  0.2591 -0.3783  0.0143
10140TIP3    H151911   6.084   4.938   2.250  1.2925 -0.3721  0.2952
10140TIP3    H251912   6.083   4.800   2.312 -1.0983 -0.6564 -0.2889
10141TIP3   OH251913   0.957   2.420   1.551  0.0188  0.2886 -0.0681
10141TIP3    H151914   1.016   2.494   1.536  0.3774  0.1656  0.7338
10141TIP3    H251915   1.006   2.343   1.523  0.1792  0.2020  0.4559
10142TIP3   OH251916   3.531   2.524   0.924 -0.0014  0.1465  0.2237
10142TIP3    H151917   3.497   2.437   0.904  0.4977 -0.5291  2.0582
10142TIP3    H251918   3.471   2.585   0.881 -0.9378 -1.0876 -0.2630
10143TIP3   OH251919   5.955   1.724  12.069 -0.7893 -0.3116  0.0518
10143TIP3    H151920   5.893   1.782  12.113 -0.2967  0.3720 -0.1383
10143TIP3    H251921   5.969   1.764  11.983  1.5512  0.7779  0.8433
10144TIP3   OH251922   5.333   0.415   3.624 -0.3026 -0.0559  0.0199
10144TIP3    H151923   5.254   0.420   3.677  0.1269 -0.1356  0.6819
10144TIP3    H251924   5.366   0.505   3.622  0.4098 -0.2713  1.0426
10145TIP3   OH251925   2.641   5.541  15.911 -0.0296 -0.1559 -0.4287
10145TIP3    H151926   2.702   5.549  15.837 -0.5825  1.8931 -0.7096
10145TIP3    H251927   2.575   5.480  15.881  1.6022 -2.1173 -0.2735
10146TIP3   OH251928   0.103   3.311   3.049 -0.6971  0.4768  0.1823
10146TIP3    H151929   0.087   3.278   2.961 -1.3299  1.3217 -0.0305
10146TIP3    H251930   0.055   3.251   3.106 -1.3991  0.7007 -0.1575
10147TIP3   OH251931   4.875   0.148   2.500 -0.0960 -0.4946  0.2151
10147TIP3    H151932   4.779   0.144   2.499 -0.1046 -0.2954 -0.7854
10147TIP3    H251933   4.901   0.126   2.411  0.7245  0.9428  0.0771
10148TIP3   OH251934   3.198   4.681   6.509 -0.3160  0.1066 -0.3872
10148TIP3    H151935   3.262   4.614   6.536  2.6459  2.3933 -1.2264
10148TIP3    H251936   3.168   4.652   6.423 -0.5779 -1.1137  0.0962
10149TIP3   OH251937   5.722   3.388  13.559 -0.1662  0.0176 -0.0184
10149TIP3    H151938   5.781   3.435  13.500  0.5830  0.3276  0.9501
10149TIP3    H251939   5.722   3.441  13.639 -0.7306 -0.6892  0.4578
10150TIP3   OH251940   6.119   3.892   0.679  0.3273  0.1017 -0.0390
10150TIP3    H151941   6.149   3.868   0.767  0.0434  2.2815  0.7057
10150TIP3    H251942   6.068   3.972   0.692 -1.5920 -0.7192 -1.9256
10151TIP3   OH251943   3.643   6.125   3.580  0.3675  0.3936 -1.0053
10151TIP3    H151944   3.711   6.093   3.521  0.3869  0.2492 -0.9049
10151TIP3    H251945   3.690   6.176   3.646  0.4586 -0.3393 -0.5021
10152TIP3   OH251946   3.480   6.442   6.064  0.0118 -0.2488  0.0271
10152TIP3    H151947   3.395   6.480   6.040  0.4453  0.5340 -0.3020
10152TIP3    H251948   3.493   6.468   6.155  0.3430  0.4779 -0.2204
10153TIP3   OH251949   6.209   1.996  14.649 -0.3412 -0.6224 -0.7018
10153TIP3    H151950   6.137   2.007  14.710  0.9614  2.5947  0.4878
10153TIP3    H251951   6.211   2.078  14.600  3.2553  0.0648  0.3117
10154TIP3   OH251952   5.474   6.448   2.808  0.0580  0.8267  0.2106
10154TIP3    H151953   5.521   6.530   2.823 -0.2487  0.9469  0.5344
10154TIP3    H251954   5.382   6.472   2.817 -0.2678  1.1224 -2.8218
10155TIP3   OH251955   1.101   4.047   0.952 -0.4438  0.3682 -0.2850
10155TIP3    H151956   1.170   4.017   1.011 -0.0501  0.2740 -0.7758
10155TIP3    H251957   1.090   4.139   0.973  0.7195  0.7037 -1.0223
10156TIP3   OH251958   4.543   0.385   4.627 -0.7633  0.6217 -0.6372
10156TIP3    H151959   4.508   0.328   4.696 -1.5488  1.6741 -0.1407
10156TIP3    H251960   4.500   0.469   4.641  1.8838  1.9887 -0.0823
10157TIP3   OH251961   3.651   3.396  16.793 -0.3248  0.0635  0.0974
10157TIP3    H151962   3.666   3.487  16.769 -0.6335  0.0144 -0.3100
10157TIP3    H251963   3.588   3.400  16.865 -0.6207  0.1659 -0.1618
10158TIP3   OH251964   2.698   4.950  12.394  0.2313  0.1994 -0.1323
10158TIP3    H151965   2.630   4.905  12.344 -1.8933  0.6968  2.1631
10158TIP3    H251966   2.675   4.935  12.485  2.7458  1.1418  0.7312
10159TIP3   OH251967   1.737   1.055  15.641  0.2105  0.7340 -0.1504
10159TIP3    H151968   1.817   1.107  15.647 -0.6246  1.9358  1.5500
10159TIP3    H251969   1.700   1.077  15.555  0.4689  2.0662  0.0658
10160TIP3   OH251970   3.824   3.243   4.633  0.0180  0.5570  0.7871
10160TIP3    H151971   3.848   3.335   4.625 -0.0955  0.6360  1.3241
10160TIP3    H251972   3.828   3.210   4.543  0.0820  1.0771  0.5912
10161TIP3   OH251973   3.925   3.163   2.116  0.4872 -0.3415  1.1585
10161TIP3    H151974   3.953   3.254   2.118  0.9711 -0.5032  2.0088
10161TIP3    H251975   3.842   3.162   2.164  0.6552 -0.4097  1.4452
10162TIP3   OH251976   0.891   1.880  11.906 -0.1677 -0.4467 -0.3780
10162TIP3    H151977   0.849   1.956  11.945 -1.2192 -0.6840 -0.9883
10162TIP3    H251978   0.828   1.809  11.918  1.0739 -1.4025  0.7693
10163TIP3   OH251979   3.203   0.600  13.417  0.5826 -0.1177 -0.0545
10163TIP3    H151980   3.151   0.675  13.448  0.2910 -0.8153  1.2385
10163TIP3    H251981   3.293   0.630  13.419  0.3219  0.8677 -1.5928
10164TIP3   OH251982   6.210   1.840  16.505  0.6053  0.2844  0.4123
10164TIP3    H151983   6.119   1.813  16.516  0.6172  0.4570  0.9720
10164TIP3    H251984   6.236   1.804  16.421  0.2383 -0.3796  0.5765
10165TIP3   OH251985   2.973   6.118  12.912  0.3201  0.3348 -0.1491
10165TIP3    H151986   3.017   6.091  12.993  0.0300 -1.2289 -0.4865
10165TIP3    H251987   2.917   6.044  12.889  0.3311  0.7826 -1.7463
10166TIP3   OH251988   2.772   6.744   3.238 -0.1045 -0.5599  0.1300
10166TIP3    H151989   2.821   6.664   3.222 -0.4346 -0.8124  0.3532
10166TIP3    H251990   2.751   6.742   3.332  0.0512 -0.1173  0.1799
10167TIP3   OH251991   0.492   4.747  12.161 -0.2734  0.1729  1.1264
10167TIP3    H151992   0.566   4.804  12.138  1.3885 -1.8750  1.1101
10167TIP3    H251993   0.420   4.807  12.177  0.6456  2.1400 -1.4653
10168TIP3   OH251994   5.807   6.448  13.266  0.1555 -0.2959 -0.0009
10168TIP3    H151995   5.879   6.440  13.204 -0.3163 -0.8554 -0.4808
10168TIP3    H251996   5.824   6.531  13.311  1.2755 -0.5697  0.1228
10169TIP3   OH251997   5.661   5.321   4.266 -0.4509  0.1335  0.1691
10169TIP3    H151998   5.584   5.286   4.220 -0.2786 -0.0193 -0.0008
10169TIP3    H251999   5.701   5.381   4.203  1.2245 -1.9506 -0.8604
10170TIP3   OH252000   1.385   5.385   1.223 -0.5842 -0.0775  0.0815
10170TIP3    H152001   1.475   5.380   1.257 -0.6998 -1.8353  0.1794
10170TIP3    H252002   1.358   5.475   1.243  0.2225 -0.2973  2.4295
10171TIP3   OH252003   3.134   2.629  16.983 -0.4011  0.0192 -0.5855
10171TIP3    H152004   3.207   2.603  17.038 -0.2563 -1.3266 -1.3771
10171TIP3    H252005   3.157   2.597  16.895 -1.6859  0.0444 -0.9530
10172TIP3   OH252006   5.952   0.806  14.421 -0.4641 -0.6050 -0.3804
10172TIP3    H152007   6.046   0.795  14.414  0.4218  3.9560  0.9873
10172TIP3    H252008   5.923   0.821  14.331  0.8679  1.5021 -0.5411
10173TIP3   OH252009   3.807   3.687  13.188 -0.7006  0.0163  0.3634
10173TIP3    H152010   3.885   3.644  13.224 -1.2304 -0.0110  1.5248
10173TIP3    H252011   3.773   3.625  13.124  0.2099  0.0195 -0.1425
10174TIP3   OH252012   3.990   5.489   0.652  0.0825  0.3227 -0.5165
10174TIP3    H152013   4.067   5.540   0.627  0.0878  0.7599  0.3449
10174TIP3    H252014   4.017   5.398   0.642  1.2029  0.4298  1.0889
10175TIP3   OH252015   1.952   5.227  15.210  0.6250 -0.6286  0.0645
10175TIP3    H152016   1.902   5.308  15.206  0.0981 -0.9047  0.8708
10175TIP3    H252017   2.032   5.249  15.257  1.0240 -0.3211 -0.7269
10176TIP3   OH252018   0.086   2.859  11.280 -0.4908  0.0918 -0.9025
10176TIP3    H152019   0.093   2.945  11.238 -0.3443  0.1275 -0.8079
10176TIP3    H252020   0.143   2.802  11.228  0.4143  0.3478 -0.2191
10177TIP3   OH252021   2.520   4.158  16.321 -0.4507 -0.4266 -0.0348
10177TIP3    H152022   2.510   4.064  16.332  0.7240 -0.6911 -1.0850
10177TIP3    H252023   2.431   4.192  16.328 -0.7733 -1.4545  1.4984
10178TIP3   OH252024   1.184   4.157   2.583  0.0664 -0.5211 -0.0852
10178TIP3    H152025   1.183   4.227   2.518 -1.8045  1.5828  2.0062
10178TIP3    H252026   1.248   4.186   2.648  0.6546 -1.7259 -0.1081
10179TIP3   OH252027   0.418   3.607  16.117 -0.0296 -0.1148 -0.3909
10179TIP3    H152028   0.508   3.612  16.149 -0.1847  0.2786 -0.0191
10179TIP3    H252029   0.365   3.592  16.195 -0.1974 -1.4034 -0.7201
10180TIP3   OH252030   2.763   5.916   2.106 -0.2867 -0.7829  0.2394
10180TIP3    H152031   2.754   5.827   2.140  0.7038 -0.5631  1.1383
10180TIP3    H252032   2.732   5.972   2.177 -0.1847 -0.3819 -0.0278
10181TIP3   OH252033   0.980   0.690   0.741 -0.1556  0.2983 -0.2743
10181TIP3    H152034   1.028   0.746   0.802  0.6714 -0.8898  0.2044
10181TIP3    H252035   0.985   0.735   0.657  2.7564 -0.2759 -0.5032
10182TIP3   OH252036   0.896   2.984  12.069  0.2903  0.9437  0.2687
10182TIP3    H152037   0.832   3.055  12.054 -0.9147  0.1316  1.3385
10182TIP3    H252038   0.945   3.012  12.146  0.4306  1.0274  0.1494
10183TIP3   OH252039   2.206   2.943  16.262  0.3785  0.0620 -0.0891
10183TIP3    H152040   2.248   2.948  16.348  2.5504 -0.1292 -1.0760
10183TIP3    H252041   2.141   3.013  16.263 -1.3233 -1.3444  2.4939
10184TIP3   OH252042   0.521   3.241   4.917 -0.0295 -0.2486 -0.1767
10184TIP3    H152043   0.570   3.247   4.999 -1.2611 -1.9105  0.7482
10184TIP3    H252044   0.583   3.269   4.850  1.7365 -0.9682  1.0778
10185TIP3   OH252045   5.865   4.711   4.248  0.2703  0.7964  0.1513
10185TIP3    H152046   5.799   4.646   4.269 -0.0906  1.5390  1.3923
10185TIP3    H252047   5.900   4.683   4.163  0.0361 -0.9219  0.5837
10186TIP3   OH252048   5.090   6.271   2.697  0.2447 -0.1103 -0.3476
10186TIP3    H152049   5.056   6.348   2.650  2.3779  0.8221 -0.4747
10186TIP3    H252050   5.126   6.306   2.778  1.2847 -0.9365 -0.4252
10187TIP3   OH252051   1.463   3.505   3.324  0.6694  0.2771 -0.2428
10187TIP3    H152052   1.413   3.428   3.349 -0.4894  1.6878  2.2069
10187TIP3    H252053   1.551   3.473   3.306  0.1426 -1.6152  0.4099
10188TIP3   OH252054   1.750   6.470   5.050  0.0600 -0.1384 -0.1564
10188TIP3    H152055   1.846   6.477   5.055 -0.0131  0.0377  1.6088
10188TIP3    H252056   1.722   6.469   5.142 -1.7602  1.4659 -0.6455
10189TIP3   OH252057   4.727   5.678  10.790 -0.3512  0.0010 -0.0735
10189TIP3    H152058   4.634   5.699  10.787 -0.5271 -0.8677 -1.1797
10189TIP3    H252059   4.770   5.760  10.765 -0.8787  0.0461 -0.8672
10190TIP3   OH252060   5.394   3.898  13.354 -0.0274 -0.4625 -0.0169
10190TIP3    H152061   5.352   3.813  13.339  1.3451 -0.8914 -1.8335
10190TIP3    H252062   5.369   3.922  13.443 -2.5063 -1.5664 -0.3336
10191TIP3   OH252063   0.324   3.026  14.608 -0.4149 -0.0826  1.0919
10191TIP3    H152064   0.322   2.933  14.586  0.2206  0.5450 -2.0530
10191TIP3    H252065   0.234   3.056  14.596 -0.5107 -0.1529  1.5914
10192TIP3   OH252066   4.722   2.929   4.406 -0.4406  0.0705 -0.2116
10192TIP3    H152067   4.657   2.881   4.457 -2.5315  0.7037 -2.0988
10192TIP3    H252068   4.675   2.958   4.328  1.6427  2.1727 -0.8276
10193TIP3   OH252069   2.723   6.694  11.228 -0.2027 -0.1256  0.1691
10193TIP3    H152070   2.781   6.706  11.152 -0.4595 -2.0071 -0.3687
10193TIP3    H252071   2.635   6.707  11.192 -0.2300  1.7834  0.7894
10194TIP3   OH252072   3.052   6.283  16.360 -0.3098  0.4017  0.5548
10194TIP3    H152073   2.974   6.308  16.309 -0.5766 -0.5042  0.5027
10194TIP3    H252074   3.121   6.340  16.327 -0.7780  0.6952  0.0638
10195TIP3   OH252075   1.901   3.762   1.841  0.2034 -0.0032  0.2284
10195TIP3    H152076   1.976   3.822   1.839 -0.8297  1.3678  1.2593
10195TIP3    H252077   1.896   3.729   1.752  1.6664  0.3445 -0.0191
10196TIP3   OH252078   5.149   3.412  16.938 -0.2035  0.2617  0.0619
10196TIP3    H152079   5.240   3.382  16.948 -0.6424 -1.0828  0.2713
10196TIP3    H252080   5.131   3.462  17.017  0.9517  2.2367 -0.8651
10197TIP3   OH252081   3.698   5.189   3.246  0.0063  0.3573  0.1154
10197TIP3    H152082   3.782   5.235   3.244  0.6718 -0.5403  3.0043
10197TIP3    H252083   3.633   5.259   3.246  0.7651  1.1012 -1.0184
10198TIP3   OH252084   2.977   5.901  11.968 -0.1318 -0.2314  0.0205
10198TIP3    H152085   2.937   5.882  12.054 -0.7491  0.7200 -0.0351
10198TIP3    H252086   2.934   5.983  11.940 -1.0158 -1.2770 -1.8691
10199TIP3   OH252087   6.288   0.790   6.138 -1.0940  0.1376 -0.1075
10199TIP3    H152088   6.369   0.817   6.183 -0.1857  0.0669 -1.6421
10199TIP3    H252089   6.224   0.857   6.163 -0.0811  1.2170 -0.2869
10200TIP3   OH252090   5.078   2.593  16.464  0.0492 -1.0472  0.1359
10200TIP3    H152091   5.032   2.669  16.500 -0.7024 -0.5102 -1.8275
10200TIP3    H252092   5.158   2.586  16.516  0.0059  0.9212  0.5298
10201TIP3   OH252093   2.946   4.145  12.381  0.3421  0.6380  0.7225
10201TIP3    H152094   2.910   4.058  12.362  1.7819  0.4903 -1.8961
10201TIP3    H252095   3.002   4.131  12.457  0.7290 -0.7971  0.2177
10202TIP3   OH252096   1.780   3.263  16.859  0.3573  0.5581 -0.2767
10202TIP3    H152097   1.706   3.232  16.807 -0.5320 -2.3994  2.4566
10202TIP3    H252098   1.844   3.192  16.856  1.3546  1.3741  0.6032
10203TIP3   OH252099   0.235   3.075   3.970 -0.5209  0.4252  0.6403
10203TIP3    H152100   0.303   3.009   3.960  0.9618  1.3815  3.4955
10203TIP3    H252101   0.274   3.155   3.936 -0.8634  0.6202  0.7026
10204TIP3   OH252102   0.616   3.417  10.897 -0.1001 -0.5455 -0.0380
10204TIP3    H152103   0.625   3.475  10.972  0.6401 -0.3288 -0.2829
10204TIP3    H252104   0.618   3.475  10.821  1.2114 -0.9114 -0.3125
10205TIP3   OH252105   1.414   6.518   5.095  0.1226 -0.0916 -0.1478
10205TIP3    H152106   1.351   6.553   5.158  0.8154 -2.9232  2.3785
10205TIP3    H252107   1.497   6.517   5.143  0.5022 -3.1915 -0.6526
10206TIP3   OH252108   2.119   0.676   1.984  0.2269  0.1733  0.3206
10206TIP3    H152109   2.127   0.680   2.079  0.6899 -2.3630  0.4655
10206TIP3    H252110   2.208   0.658   1.954  0.2904  1.9799 -0.7333
10207TIP3   OH252111   0.544   0.055  11.345 -0.5796  0.2332  0.3035
10207TIP3    H152112   0.492   0.117  11.294 -0.9088  0.5122  0.9566
10207TIP3    H252113   0.486   0.031  11.418 -0.2123 -0.3447  0.4036
10208TIP3   OH252114   1.740   2.630  14.513 -0.2356 -0.0406 -0.4870
10208TIP3    H152115   1.690   2.643  14.594 -0.1272 -0.9999 -0.2586
10208TIP3    H252116   1.791   2.551  14.528  1.1448  0.7568 -0.8392
10209TIP3   OH252117   3.226   4.654  15.874  0.4557 -0.1237 -0.8541
10209TIP3    H152118   3.194   4.588  15.812 -0.9716 -0.8445  0.5616
10209TIP3    H252119   3.230   4.735  15.823  2.2213 -1.2348 -2.6345
10210TIP3   OH252120   0.734   2.324  11.730  0.7647 -0.2109  0.4695
10210TIP3    H152121   0.778   2.357  11.809  0.0248 -0.9888  1.2309
10210TIP3    H252122   0.670   2.261  11.763 -1.7427  1.6655 -0.4721
10211TIP3   OH252123   6.007   0.315  13.512 -0.3665 -0.4950  0.8773
10211TIP3    H152124   6.005   0.405  13.545 -0.3098 -0.7654  1.6468
10211TIP3    H252125   5.960   0.319  13.429  1.0585  0.5794  0.0555
10212TIP3   OH252126   5.610   1.701  16.724  0.6738  0.0466  0.0302
10212TIP3    H152127   5.683   1.739  16.774 -0.3658  0.9729  0.8998
10212TIP3    H252128   5.574   1.634  16.782  0.3921  0.1011 -0.0780
10213TIP3   OH252129   0.328   1.144   3.332  0.1189 -0.5626 -0.3427
10213TIP3    H152130   0.422   1.127   3.339  0.3882  1.0585  0.3376
10213TIP3    H252131   0.317   1.180   3.244  0.3126  0.2740 -0.0271
10214TIP3   OH252132   3.336   1.117   2.384  0.0351  0.1296  0.1660
10214TIP3    H152133   3.372   1.173   2.454  2.5926  1.1383 -1.7706
10214TIP3    H252134   3.300   1.179   2.320  0.1048 -0.5868 -0.5840
10215TIP3   OH252135   4.257   5.011  13.819 -0.5400  0.1435 -0.2871
10215TIP3    H152136   4.317   4.944  13.851 -0.1644 -0.1764 -1.5919
10215TIP3    H252137   4.170   4.975  13.837 -0.3458 -0.8606 -1.2541
10216TIP3   OH252138   1.803   0.751   0.050 -0.3159  0.1058 -0.6130
10216TIP3    H152139   1.872   0.688   0.068 -0.8397  0.0747  1.7423
10216TIP3    H252140   1.844   0.837   0.062 -0.8648  0.0873  2.1774
10217TIP3   OH252141   5.694   2.974   3.433  0.6398  0.6098  0.0476
10217TIP3    H152142   5.700   3.033   3.358 -1.6647  0.5745 -0.2312
10217TIP3    H252143   5.750   3.013   3.499  0.3172  2.3196 -0.6533
10218TIP3   OH252144   4.123   2.404   0.778  0.2379  0.5908 -0.2947
10218TIP3    H152145   4.208   2.445   0.791  0.4808  0.2195 -0.6805
10218TIP3    H252146   4.108   2.352   0.856  0.2009  0.9405 -0.0678
10219TIP3   OH252147   3.799   4.580   4.804  0.0422  0.1817  0.0995
10219TIP3    H152148   3.814   4.494   4.842  0.0662  0.8822  1.7458
10219TIP3    H252149   3.721   4.569   4.749 -1.7295 -0.2689  2.5394
10220TIP3   OH252150   5.063   3.407   2.281 -0.7589 -0.1653  0.1581
10220TIP3    H152151   5.075   3.501   2.272  0.1884 -0.0505  2.0291
10220TIP3    H252152   4.987   3.386   2.227 -1.7087  1.8520  0.6426
10221TIP3   OH252153   3.396   1.992   4.054  0.2611  0.1041  0.0224
10221TIP3    H152154   3.417   2.078   4.089 -0.2335  1.1172 -1.9959
10221TIP3    H252155   3.477   1.942   4.062  1.1267  1.3829 -0.4993
10222TIP3   OH252156   1.448   5.397   1.544 -0.3882  0.1771  0.7175
10222TIP3    H152157   1.423   5.489   1.535 -1.1217  0.0386  1.2879
10222TIP3    H252158   1.454   5.383   1.638  2.1851  0.2691  0.6473
10223TIP3   OH252159   0.087   5.775  12.111 -0.1826 -0.7206 -0.1846
10223TIP3    H152160   0.088   5.772  12.015  0.6107  1.3591 -0.3122
10223TIP3    H252161   0.157   5.715  12.137  0.0038 -0.8469 -0.9397
10224TIP3   OH252162   6.518   3.617  12.607  0.4088  0.0391  0.0372
10224TIP3    H152163   6.488   3.671  12.534  0.0705  0.6265  0.5981
10224TIP3    H252164   6.598   3.660  12.637 -0.5151  0.9882  1.2719
10225TIP3   OH252165   3.384   2.567  14.658 -0.6821  0.3686  0.6975
10225TIP3    H152166   3.334   2.489  14.634  0.8226 -0.2287 -0.6053
10225TIP3    H252167   3.403   2.555  14.751 -0.1606 -1.0272  0.4353
10226TIP3   OH252168   4.608   4.329   5.898  0.1969  0.0247 -0.3437
10226TIP3    H152169   4.642   4.381   5.825 -0.7958  2.8422  1.0441
10226TIP3    H252170   4.675   4.336   5.966  0.6529 -1.7156 -0.5694
10227TIP3   OH252171   6.649   2.825  16.206  0.1242 -0.4993  0.5226
10227TIP3    H152172   6.700   2.893  16.162  0.4500 -0.7895  0.4503
10227TIP3    H252173   6.609   2.774  16.135 -0.5854 -0.0365  0.5810
10228TIP3   OH252174   1.819   5.578   0.417 -0.2645  0.1442  0.2297
10228TIP3    H152175   1.794   5.491   0.450 -1.0545  0.4185  0.3728
10228TIP3    H252176   1.786   5.581   0.328 -0.0972  0.2432  0.1698
10229TIP3   OH252177   1.363   3.413  11.608 -0.4622 -0.1663  0.2093
10229TIP3    H152178   1.401   3.329  11.581 -2.0890 -0.9254  0.1599
10229TIP3    H252179   1.294   3.389  11.670 -0.7503  1.1636  0.4270
10230TIP3   OH252180   4.347   2.989  13.399 -1.0981  0.5205 -0.2168
10230TIP3    H152181   4.383   2.918  13.451 -1.1615  1.2929  0.9104
10230TIP3    H252182   4.408   3.062  13.410 -2.5347  1.5997  1.0892
10231TIP3   OH252183   6.396   2.420  14.602  0.2236  0.4229 -0.5478
10231TIP3    H152184   6.332   2.357  14.635  1.5701 -0.3918  0.6103
10231TIP3    H252185   6.370   2.436  14.511 -3.7622  2.9310  0.7738
10232TIP3   OH252186   3.631   1.758   0.822 -0.3004  0.1239 -0.1096
10232TIP3    H152187   3.603   1.723   0.737  0.7884 -2.3456  0.4557
10232TIP3    H252188   3.693   1.693   0.855  2.3760  2.9401  0.8564
10233TIP3   OH252189   1.498   5.193  15.176  0.7366  0.0198 -0.2146
10233TIP3    H152190   1.530   5.147  15.254  0.6137 -1.1492 -0.8276
10233TIP3    H252191   1.575   5.201  15.120  0.5893 -0.1694 -0.4476
10234TIP3   OH252192   1.333   6.257   2.882  0.4662 -0.1503  0.1693
10234TIP3    H152193   1.421   6.230   2.857  0.2693 -1.1607  0.5113
10234TIP3    H252194   1.297   6.182   2.928 -0.0908  0.7393  1.2460
10235TIP3   OH252195   0.014   0.070   5.834  0.1823 -0.0571 -0.3193
10235TIP3    H152196   0.079   0.140   5.837  1.7125 -1.4264  0.0194
10235TIP3    H252197   0.035   0.022   5.754 -1.2729  0.2153 -0.9017
10236TIP3   OH252198   3.116   1.059  12.224  0.1972 -0.7140  0.3746
10236TIP3    H152199   3.106   1.014  12.141 -1.9295  0.7009 -0.2323
10236TIP3    H252200   3.059   1.136  12.217  0.6604 -0.0492  2.7856
10237TIP3   OH252201   3.839   6.629   2.552  0.9055 -0.1991 -0.1061
10237TIP3    H152202   3.918   6.604   2.601 -0.4382 -0.5962  2.0263
10237TIP3    H252203   3.850   6.589   2.466  3.1116 -0.0590  0.0694
10238TIP3   OH252204   1.566   5.415  13.640 -0.2679 -0.7446  0.4923
10238TIP3    H152205   1.526   5.336  13.677  1.1920 -1.4834  0.5188
10238TIP3    H252206   1.523   5.487  13.687 -2.7237 -1.3953 -0.6015
10239TIP3   OH252207   0.196   5.108  12.700  0.2711 -0.1373 -0.2887
10239TIP3    H152208   0.272   5.148  12.741  0.5802 -0.2823 -0.7167
10239TIP3    H252209   0.121   5.150  12.743  0.5325 -1.6086  1.7899
10240TIP3   OH252210   6.667   3.116   3.737 -0.2215 -1.0417 -0.3678
10240TIP3    H152211   6.733   3.173   3.774  2.1607 -2.0921 -2.6725
10240TIP3    H252212   6.624   3.168   3.669 -0.9057 -0.7584  0.2717
10241TIP3   OH252213   6.493   5.741   1.595 -0.0314  0.5456  0.0844
10241TIP3    H152214   6.413   5.689   1.601 -1.3463  2.3612 -0.6324
10241TIP3    H252215   6.551   5.690   1.538 -2.2397  0.9192 -2.7167
10242TIP3   OH252216   3.151   6.374  13.211 -0.0439 -0.3917 -1.1619
10242TIP3    H152217   3.124   6.407  13.296  0.3637  0.4330 -1.3392
10242TIP3    H252218   3.244   6.395  13.205  0.0875 -1.0575 -1.5284
10243TIP3   OH252219   6.821   6.365  12.767  0.1511 -0.6426  0.0098
10243TIP3    H152220   6.802   6.302  12.836  1.0257  1.0827  1.9181
10243TIP3    H252221   6.744   6.423  12.765  1.3567  1.1821  1.8192
10244TIP3   OH252222   5.516   4.074  11.079  0.4186  0.1108 -0.6104
10244TIP3    H152223   5.507   4.169  11.070  1.2195  0.1052 -1.7161
10244TIP3    H252224   5.430   4.044  11.106  0.3177  1.2126  0.3869
10245TIP3   OH252225   6.651   1.185  17.014  0.1011  0.2934  0.2953
10245TIP3    H152226   6.561   1.160  17.034 -0.3831  0.8558 -1.0656
10245TIP3    H252227   6.666   1.265  17.063 -0.4928  0.7434 -0.2499
10246TIP3   OH252228   0.088   0.983  11.434 -0.1193  0.2662  0.0615
10246TIP3    H152229   0.134   0.912  11.389 -1.1280 -0.6458  0.4458
10246TIP3    H252230   0.024   0.939  11.490 -0.4740  1.4660  0.6327
10247TIP3   OH252231   6.290   1.916   5.534  0.3788  0.3920 -0.1464
10247TIP3    H152232   6.240   1.996   5.552 -0.0601  0.2103 -0.5353
10247TIP3    H252233   6.243   1.847   5.580  1.5564  0.5598  1.3846
10248TIP3   OH252234   6.751   4.647   4.353 -0.3308  0.0870  0.0580
10248TIP3    H152235   6.710   4.654   4.439 -0.8206  0.6730 -0.2080
10248TIP3    H252236   6.845   4.642   4.370 -0.5101 -1.5381  0.6997
10249TIP3   OH252237   0.644   3.897  16.018 -0.6678 -0.4345 -0.6993
10249TIP3    H152238   0.603   3.904  16.104  3.8977 -3.2070  2.0921
10249TIP3    H252239   0.622   3.809  15.988  1.4493 -1.2458 -0.0355
10250TIP3   OH252240   3.154   3.455  12.500  0.0709 -0.3946  0.3809
10250TIP3    H152241   3.160   3.388  12.569  1.0221  0.7830  1.4760
10250TIP3    H252242   3.071   3.435  12.455 -1.5021 -0.1602  2.9674
10251TIP3   OH252243   6.284   1.515  11.819  0.1808  0.0286  0.0909
10251TIP3    H152244   6.340   1.475  11.753  0.1295  1.3611 -0.8103
10251TIP3    H252245   6.197   1.478  11.803 -0.1968  1.5443 -1.7327
10252TIP3   OH252246   4.710   1.911   0.868  0.5517 -0.1108  0.2047
10252TIP3    H152247   4.799   1.905   0.836  0.1013 -0.2214 -1.0587
10252TIP3    H252248   4.689   2.005   0.863  0.2669 -0.2073 -0.4177
10253TIP3   OH252249   3.764   3.327  11.843 -0.4140 -0.4264  0.8078
10253TIP3    H152250   3.830   3.357  11.780 -1.6806 -0.8009 -0.7462
10253TIP3    H252251   3.805   3.252  11.886 -1.1788 -3.3060 -2.9982
10254TIP3   OH252252   6.347   1.929   1.903 -0.0865 -0.6998 -0.9465
10254TIP3    H152253   6.313   1.899   1.987  0.4076  0.0927 -0.4463
10254TIP3    H252254   6.391   1.852   1.866  0.1298 -0.9215 -0.2488
10255TIP3   OH252255   2.326   5.439  12.134  0.0955  0.6321 -0.4835
10255TIP3    H152256   2.356   5.529  12.148  0.6725  0.3472  0.2110
10255TIP3    H252257   2.314   5.432  12.040 -1.3685  1.8696 -0.4419
10256TIP3   OH252258   4.981   1.874   0.770  0.8037  0.1657 -0.1306
10256TIP3    H152259   4.971   1.780   0.779 -0.3908 -0.0003 -2.3733
10256TIP3    H252260   5.068   1.893   0.806  0.2519 -1.4248  2.2529
10257TIP3   OH252261   4.084   1.978  16.357  0.2020  0.3511  0.2063
10257TIP3    H152262   4.154   2.043  16.353  0.1667  0.4202  0.6173
10257TIP3    H252263   4.061   1.974  16.450 -0.5529  0.5634  0.0348
10258TIP3   OH252264   3.946   2.194  13.485  0.9244 -0.3428  0.1807
10258TIP3    H152265   3.925   2.275  13.438 -0.9538 -1.3744 -0.9009
10258TIP3    H252266   4.009   2.149  13.429 -0.0827 -0.8335 -0.5797
10259TIP3   OH252267   2.708   0.297  16.990  0.0747 -0.0781 -0.3672
10259TIP3    H152268   2.662   0.319  17.071  2.5978 -0.5115  1.3041
10259TIP3    H252269   2.725   0.203  16.997  3.0920  0.3976  0.2650
10260TIP3   OH252270   1.237   1.428  11.836 -0.5557  0.1150 -0.1041
10260TIP3    H152271   1.193   1.506  11.803  0.3411  0.5141 -0.3851
10260TIP3    H252272   1.303   1.407  11.769 -0.0340 -0.2193  0.5008
10261TIP3   OH252273   3.858   2.904   2.266  0.2026  0.6031  0.5433
10261TIP3    H152274   3.909   2.977   2.229  0.7044  0.2459  0.5204
10261TIP3    H252275   3.772   2.942   2.283  0.6040  1.3375  0.9985
10262TIP3   OH252276   0.917   2.635  11.526  0.0361 -0.1173 -0.0387
10262TIP3    H152277   0.828   2.664  11.548  0.7416  0.4557  2.2481
10262TIP3    H252278   0.974   2.687  11.582  2.0404  1.0317 -2.8818
10263TIP3   OH252279   1.122   3.051   2.874  0.3391 -0.0035 -0.1814
10263TIP3    H152280   1.117   2.956   2.864  0.8076 -0.2369  1.5077
10263TIP3    H252281   1.184   3.078   2.806  1.2349 -1.0891  0.1492
10264TIP3   OH252282   1.428   6.804   0.160  0.2620 -0.1232 -0.0306
10264TIP3    H152283   1.499   6.853   0.202 -0.3393  0.1391  0.6991
10264TIP3    H252284   1.433   6.829   0.068  1.5481 -0.6425 -0.1147
10265TIP3   OH252285   1.125   2.786   5.136  0.3264  0.3340  0.2254
10265TIP3    H152286   1.211   2.756   5.165  0.1712 -1.3543 -0.9282
10265TIP3    H252287   1.076   2.800   5.217  1.3296  0.1941  0.8702
10266TIP3   OH252288   2.898   5.718  15.017  0.0864 -0.3534  0.1441
10266TIP3    H152289   2.826   5.777  14.995  2.3724  2.3399 -0.7307
10266TIP3    H252290   2.975   5.774  15.021  1.8300 -2.5913  3.7232
10267TIP3   OH252291   4.366   4.703  15.909 -0.2197  0.2697 -0.2870
10267TIP3    H152292   4.301   4.730  15.844 -1.6450  0.8883  1.2909
10267TIP3    H252293   4.450   4.711  15.865 -1.1262  0.6151 -2.0390
10268TIP3   OH252294   6.047   4.789  16.425  0.1797  0.0246 -0.0142
10268TIP3    H152295   5.985   4.719  16.445  0.8338 -0.8137 -0.8303
10268TIP3    H252296   6.091   4.807  16.508  1.0722 -1.6106 -0.1104
10269TIP3   OH252297   2.703   0.350   0.893 -0.9583 -0.1689 -0.4758
10269TIP3    H152298   2.737   0.299   0.819  1.5342  0.9164 -0.1773
10269TIP3    H252299   2.766   0.335   0.964 -2.9160 -0.6200  1.2539
10270TIP3   OH252300   4.974   2.776   2.751  0.0495  0.4375 -0.0571
10270TIP3    H152301   4.940   2.748   2.836  0.3585  0.0340 -0.0645
10270TIP3    H252302   4.898   2.776   2.693 -0.3551  1.6604  0.4428
10271TIP3   OH252303   5.661   2.546  10.563 -0.2346 -0.1318 -0.0821
10271TIP3    H152304   5.582   2.584  10.604  0.2915 -0.1605  1.0039
10271TIP3    H252305   5.706   2.621  10.525 -0.9931 -0.1722 -1.0827
10272TIP3   OH252306   4.259   2.570   1.333 -0.1085  0.0611  0.2109
10272TIP3    H152307   4.340   2.580   1.383  0.7697 -0.4246 -1.0583
10272TIP3    H252308   4.283   2.596   1.244 -1.5108  0.4760 -0.0707
10273TIP3   OH252309   2.116   6.075  12.805  0.1581  0.4324 -0.0685
10273TIP3    H152310   2.135   6.166  12.783 -2.0064  0.9150 -0.1264
10273TIP3    H252311   2.062   6.043  12.733 -0.0111 -0.5657  0.4725
10274TIP3   OH252312   1.857   6.799   1.147 -0.1822  0.4660 -0.3869
10274TIP3    H152313   1.918   6.763   1.082 -0.7136 -1.2761  0.0423
10274TIP3    H252314   1.770   6.773   1.117 -0.7068  2.2421 -0.5571
10275TIP3   OH252315   1.253   3.880   1.279  0.2770  0.5485  0.0635
10275TIP3    H152316   1.195   3.955   1.296 -1.3936 -0.4356 -1.0673
10275TIP3    H252317   1.260   3.836   1.364 -0.3607  0.8606  0.2859
10276TIP3   OH252318   1.588   5.436   2.141  0.3220  0.4140 -0.3342
10276TIP3    H152319   1.572   5.390   2.223  1.5282 -0.0543 -0.3527
10276TIP3    H252320   1.586   5.529   2.165  1.7265  0.2641  0.4435
10277TIP3   OH252321   2.452   5.660  10.606 -0.1296  0.5301 -0.0353
10277TIP3    H152322   2.428   5.738  10.656 -1.8488 -1.2011  2.0326
10277TIP3    H252323   2.446   5.687  10.514  0.0205  2.9748  0.6157
10278TIP3   OH252324   2.606   4.235   4.018  0.2042 -0.0495  0.3451
10278TIP3    H152325   2.659   4.307   3.984 -0.1721  1.1122  2.0489
10278TIP3    H252326   2.595   4.257   4.111  0.8128 -2.7648  1.1308
10279TIP3   OH252327   6.787   0.035   1.795  0.1271 -0.5404 -0.6913
10279TIP3    H152328   6.774  -0.001   1.707  0.5712 -0.5297 -0.7664
10279TIP3    H252329   6.704   0.075   1.817  0.8633  2.1852 -2.3669
10280TIP3   OH252330   6.266   1.460   2.929 -0.7011 -0.5636  0.0061
10280TIP3    H152331   6.281   1.514   2.852  0.7792 -2.8261 -1.4186
10280TIP3    H252332   6.274   1.520   3.003  0.4778  1.2037 -1.4646
10281TIP3   OH252333   3.261   5.790   5.613  0.1718  0.3948 -0.5892
10281TIP3    H152334   3.169   5.792   5.586 -0.3364 -2.5592  0.4854
10281TIP3    H252335   3.263   5.835   5.697 -1.2696 -2.8616  1.4042
10282TIP3   OH252336   3.087   0.026  12.731  0.5219  0.0966 -0.4843
10282TIP3    H152337   3.140   0.103  12.751 -0.3235  0.7374 -0.6450
10282TIP3    H252338   3.099  -0.032  12.806  0.4777  0.7771  0.0592
10283TIP3   OH252339   4.147   5.011   6.468  0.3008 -0.2575  0.0129
10283TIP3    H152340   4.116   4.952   6.400  1.6916 -1.4775  0.3974
10283TIP3    H252341   4.209   5.069   6.423  0.6474 -0.5763  0.0706
10284TIP3   OH252342   3.539   4.024  13.731 -0.1816 -0.1733  0.2864
10284TIP3    H152343   3.465   4.070  13.772  0.8590  0.0408  2.0613
10284TIP3    H252344   3.607   4.091  13.724 -0.1873 -0.3152 -1.5218
10285TIP3   OH252345   4.353   4.925   4.077  0.2202 -0.2736  0.5046
10285TIP3    H152346   4.320   4.876   4.002  2.3252 -1.9155  0.5458
10285TIP3    H252347   4.342   4.865   4.151 -0.1478  0.6147  1.1829
10286TIP3   OH252348   6.454   0.811  12.925  0.0045 -0.1164 -0.4110
10286TIP3    H152349   6.493   0.830  12.840  1.7154  0.8509  0.5282
10286TIP3    H252350   6.483   0.884  12.981 -1.6018 -0.3920  0.8395
10287TIP3   OH252351   2.273   1.910   4.836  0.1591 -0.5652 -0.0120
10287TIP3    H152352   2.216   1.984   4.815  1.7560  0.5367 -0.6700
10287TIP3    H252353   2.217   1.833   4.825 -2.1259  0.5582  2.6394
10288TIP3   OH252354   6.374   3.786   2.114 -0.1455  0.2900 -0.3600
10288TIP3    H152355   6.369   3.702   2.160  0.4666  0.0234 -0.7590
10288TIP3    H252356   6.328   3.848   2.170 -0.7410 -0.3480 -0.1396
10289TIP3   OH252357   3.649   1.211  12.416  0.0694  0.0327  0.3120
10289TIP3    H152358   3.566   1.165  12.406  0.0907 -0.0216  0.3825
10289TIP3    H252359   3.700   1.186  12.340  1.0501 -2.0849  1.5791
10290TIP3   OH252360   2.822   0.946  12.218 -0.0388 -0.3075  0.2104
10290TIP3    H152361   2.806   0.899  12.300 -1.4573 -0.2830 -0.0386
10290TIP3    H252362   2.776   1.029  12.228 -1.3693 -0.8502 -1.1127
10291TIP3   OH252363   5.946   3.900   1.027  0.6350 -0.6870 -0.7359
10291TIP3    H152364   5.940   3.865   1.116  1.1769 -1.3136 -0.9395
10291TIP3    H252365   5.988   3.985   1.038 -3.4664  1.4601  0.1332
10292TIP3   OH252366   3.676   4.196  14.189 -0.3403  0.1868  0.4521
10292TIP3    H152367   3.691   4.125  14.126 -1.4876 -0.6204  1.0473
10292TIP3    H252368   3.762   4.235  14.203  0.1137 -0.3276 -0.7803
10293TIP3   OH252369   4.596   3.714  16.768  0.0497 -0.3776  0.2208
10293TIP3    H152370   4.686   3.734  16.796  0.3183 -0.3008 -0.6699
10293TIP3    H252371   4.587   3.620  16.780 -0.1911 -0.2095  1.5253
10294TIP3   OH252372   5.203   4.725  12.559 -0.5541  0.1280  0.0616
10294TIP3    H152373   5.280   4.746  12.612 -0.8573  3.0815 -0.5077
10294TIP3    H252374   5.238   4.711  12.471 -0.5302 -0.0006  0.0914
10295TIP3   OH252375   5.258   6.331   3.306 -0.2650  0.3393 -0.3134
10295TIP3    H152376   5.345   6.340   3.343  0.1074 -1.9082 -0.4710
10295TIP3    H252377   5.200   6.372   3.370  0.9421  3.0377 -0.8112
10296TIP3   OH252378   2.046   6.802  16.649  0.3690 -0.0222 -0.5957
10296TIP3    H152379   1.987   6.839  16.715  1.1224  0.6668 -0.2986
10296TIP3    H252380   2.028   6.853  16.570  1.0910  0.6982 -0.3043
10297TIP3   OH252381   6.700   0.172   1.477 -0.0051 -0.0674 -0.1011
10297TIP3    H152382   6.763   0.210   1.539  0.6963 -0.4581 -0.5571
10297TIP3    H252383   6.632   0.134   1.532  0.6035 -0.3961  0.4385
10298TIP3   OH252384   2.491   4.449   1.762  0.2898  0.2368  0.1067
10298TIP3    H152385   2.490   4.355   1.780  0.7025  0.4338  1.2333
10298TIP3    H252386   2.545   4.457   1.683 -2.2150 -0.7347 -1.8287
10299TIP3   OH252387   3.224   1.525  15.224 -0.1112  0.3136 -0.1316
10299TIP3    H152388   3.203   1.590  15.157 -1.7303  0.0731  0.0860
10299TIP3    H252389   3.244   1.445  15.175 -0.7173  0.2965 -0.3627
10300TIP3   OH252390   0.761   2.783  14.071 -0.0345  0.1312  0.2118
10300TIP3    H152391   0.820   2.746  14.006 -0.2833 -2.5364  1.3747
10300TIP3    H252392   0.780   2.877  14.071  0.5847  0.0995 -3.0018
10301TIP3   OH252393   0.366   5.714  12.221 -0.7980 -0.3506  0.0139
10301TIP3    H152394   0.391   5.743  12.133 -0.9884  0.7130  0.2920
10301TIP3    H252395   0.369   5.618  12.216 -2.8975 -0.4087 -1.7808
10302TIP3   OH252396   5.662   3.802  13.526  0.3247 -0.9323  0.8618
10302TIP3    H152397   5.593   3.755  13.574  1.6858 -3.5078  0.4863
10302TIP3    H252398   5.742   3.782  13.574  1.1342  0.0228 -0.0529
10303TIP3   OH252399   4.256   6.033  10.800  0.0328 -0.0953  0.6451
10303TIP3    H152400   4.181   6.086  10.774  0.7029  0.9005  0.6659
10303TIP3    H252401   4.325   6.058  10.739  1.5879  2.1392  3.0794
10304TIP3   OH252402   1.038   1.191   6.146  0.1413 -0.1994 -0.1554
10304TIP3    H152403   1.117   1.243   6.161 -0.1907  0.1636  0.3887
10304TIP3    H252404   0.969   1.239   6.192 -0.7080  0.3175 -1.8691
10305TIP3   OH252405   0.720   5.421   2.026 -0.1373  0.5630 -0.2256
10305TIP3    H152406   0.775   5.424   2.105  0.1647  0.7961 -0.4487
10305TIP3    H252407   0.690   5.330   2.023 -0.5905  0.6755  0.4587
10306TIP3   OH252408   6.718   3.522   3.739  0.3607  0.2242 -0.3259
10306TIP3    H152409   6.689   3.525   3.830 -0.7619  0.4936 -0.6650
10306TIP3    H252410   6.746   3.432   3.725 -0.3202 -0.0554  0.0490
10307TIP3   OH252411   0.991   0.641  10.679 -0.0151 -0.0955  0.7983
10307TIP3    H152412   0.902   0.661  10.653  0.7609  2.5494 -0.1824
10307TIP3    H252413   1.014   0.563  10.630 -2.2708 -1.8967  2.3823
10308TIP3   OH252414   6.223   6.048  11.658  0.3630  0.2716 -0.4723
10308TIP3    H152415   6.230   6.099  11.739 -0.4668  0.0676 -0.2628
10308TIP3    H252416   6.190   6.111  11.593 -1.6280 -0.1947  0.0252
10309TIP3   OH252417   0.202   6.728   3.078  0.1805 -0.2226  0.0372
10309TIP3    H152418   0.216   6.646   3.125  1.2292 -0.1210 -0.0675
10309TIP3    H252419   0.170   6.789   3.144  0.4812 -0.4086  0.3571
10310TIP3   OH252420   6.260   4.714  10.778  0.4582 -0.2097  0.2516
10310TIP3    H152421   6.228   4.800  10.750  0.0444 -0.1447  0.9155
10310TIP3    H252422   6.337   4.734  10.832  0.4241 -0.2705  0.3209
10311TIP3   OH252423   0.712   3.922   5.474  0.8355 -0.4150  0.3290
10311TIP3    H152424   0.699   3.842   5.524  0.7507 -0.7456 -0.2049
10311TIP3    H252425   0.624   3.957   5.462  0.7669 -0.7742 -0.2768
10312TIP3   OH252426   2.806   0.757  13.114 -0.2518 -0.0947 -1.0011
10312TIP3    H152427   2.827   0.664  13.118 -1.0588 -0.2564  2.1114
10312TIP3    H252428   2.889   0.801  13.133 -0.5093 -0.3874  1.0962
10313TIP3   OH252429   1.919   4.399  11.689 -0.1061  0.4326 -0.1848
10313TIP3    H152430   1.936   4.325  11.632  0.4615  0.8248 -0.5414
10313TIP3    H252431   1.853   4.368  11.751  0.9597 -0.7582  0.4178
10314TIP3   OH252432   2.940   5.671   3.840  0.4819 -0.2672  0.7560
10314TIP3    H152433   2.849   5.701   3.832  0.2639 -1.0656  0.1079
10314TIP3    H252434   2.993   5.750   3.831 -0.1328  0.1324  0.6019
10315TIP3   OH252435   1.674   3.569   4.732 -0.1797  0.2788  0.3418
10315TIP3    H152436   1.632   3.536   4.811  1.4923 -0.2939  1.0380
10315TIP3    H252437   1.724   3.494   4.699 -1.1574  0.3767 -1.5178
10316TIP3   OH252438   2.166   2.874   1.799 -0.1711 -0.4199 -0.0525
10316TIP3    H152439   2.147   2.966   1.785  2.5629  0.2795  0.2801
10316TIP3    H252440   2.183   2.839   1.711  0.5503 -0.1513 -0.0244
10317TIP3   OH252441   2.419   2.555   3.718 -0.4127  0.6341 -0.4960
10317TIP3    H152442   2.386   2.490   3.656 -0.4155  1.9991 -1.9735
10317TIP3    H252443   2.395   2.519   3.804 -1.5766 -0.6721 -1.3112
10318TIP3   OH252444   6.819   1.516   0.365  0.8587 -0.0949 -0.7299
10318TIP3    H152445   6.746   1.569   0.397 -0.1995 -0.9848 -1.5969
10318TIP3    H252446   6.895   1.552   0.410 -0.1269  0.7281  0.3655
10319TIP3   OH252447   1.970   6.730  13.134 -0.4393 -0.4097 -0.3304
10319TIP3    H152448   1.901   6.716  13.199 -1.7233 -0.6374 -1.7005
10319TIP3    H252449   2.007   6.644  13.119 -0.4312 -0.4247 -0.2284
10320TIP3   OH252450   3.014   3.556  13.301  0.0950  0.0475 -0.3406
10320TIP3    H152451   3.102   3.519  13.311 -0.5328 -1.0358  1.8670
10320TIP3    H252452   2.988   3.578  13.390 -0.8714  2.8991 -1.2261
10321TIP3   OH252453   5.055   1.663  14.178  0.4326 -0.1093  0.1342
10321TIP3    H152454   5.083   1.723  14.247 -1.4107 -0.6838  1.4487
10321TIP3    H252455   5.137   1.630  14.141  1.4865  0.3868  1.8906
10322TIP3   OH252456   4.443   1.913  11.315 -0.2245  0.7451 -0.2166
10322TIP3    H152457   4.487   1.954  11.240 -0.2909  1.1575 -0.0338
10322TIP3    H252458   4.360   1.961  11.322 -0.6164  0.1040 -0.4394
10323TIP3   OH252459   5.806   0.886  14.883  0.2765 -0.5731 -0.0343
10323TIP3    H152460   5.829   0.845  14.799 -0.0355 -1.1705  0.1653
10323TIP3    H252461   5.721   0.925  14.868  1.7970  2.6433 -1.1217
10324TIP3   OH252462   2.441   2.633   4.409 -0.2018  0.4749  0.2222
10324TIP3    H152463   2.517   2.678   4.372 -0.8444  1.1544 -0.2981
10324TIP3    H252464   2.389   2.703   4.449  0.0835 -0.1412  1.7441
10325TIP3   OH252465   3.214   3.378  14.649  0.3170 -0.5903  0.6550
10325TIP3    H152466   3.215   3.456  14.593  1.7012 -1.7300 -1.0233
10325TIP3    H252467   3.292   3.388  14.704  0.9299 -1.1058 -0.0918
10326TIP3   OH252468   6.271   2.131   3.181 -0.4606 -0.1873  0.0341
10326TIP3    H152469   6.285   2.039   3.199  0.7891 -0.3058 -1.3249
10326TIP3    H252470   6.176   2.142   3.182 -0.6251 -1.5158  0.0499
10327TIP3   OH252471   5.756   2.280   3.281 -0.6046  0.7042  0.2608
10327TIP3    H152472   5.715   2.194   3.268 -1.4144  0.6599  2.6116
10327TIP3    H252473   5.721   2.334   3.210 -1.7617 -0.3602 -0.0230
10328TIP3   OH252474   2.714   4.912  16.373  0.5350  0.0229 -0.3816
10328TIP3    H152475   2.672   4.876  16.452  0.5054  2.3558  0.7729
10328TIP3    H252476   2.804   4.880  16.377 -0.1077 -1.9492 -0.8223
10329TIP3   OH252477   0.505   0.065   2.584 -0.0653  0.1520 -0.4987
10329TIP3    H152478   0.425   0.012   2.584 -1.7442  2.5173 -0.0884
10329TIP3    H252479   0.527   0.074   2.677  0.6602 -0.4166 -0.6068
10330TIP3   OH252480   4.916   2.318   0.507 -0.7503  0.0058 -0.5052
10330TIP3    H152481   4.982   2.293   0.441 -0.8430  0.3234 -0.7218
10330TIP3    H252482   4.940   2.267   0.585 -0.0954  0.3072 -0.5027
10331TIP3   OH252483   1.149   3.538  15.219  0.5119 -0.6738  0.0174
10331TIP3    H152484   1.088   3.589  15.167  1.4945  1.1184  0.5222
10331TIP3    H252485   1.121   3.553  15.310  1.1629 -0.5442  0.2019
10332TIP3   OH252486   3.062   3.143  15.568 -0.2416  0.0373 -0.3622
10332TIP3    H152487   3.080   3.055  15.534  0.7625  0.0748  0.0550
10332TIP3    H252488   2.974   3.163  15.535 -0.0673 -0.6963 -1.3277
10333TIP3   OH252489   2.793   4.101   2.947  0.2242  0.5107  0.1664
10333TIP3    H152490   2.845   4.056   2.880  1.9283  1.9333  0.4412
10333TIP3    H252491   2.811   4.054   3.028 -1.9264 -1.2817 -0.2999
10334TIP3   OH252492   2.618   1.879  16.476 -0.9349  0.6347 -0.7394
10334TIP3    H152493   2.589   1.853  16.389 -1.6547  0.2563 -0.3994
10334TIP3    H252494   2.554   1.946  16.503 -1.6331 -0.3400  0.0982
10335TIP3   OH252495   5.686   2.230  13.834 -0.0315 -0.0302  0.3984
10335TIP3    H152496   5.653   2.303  13.781  0.3071  0.9602  1.5142
10335TIP3    H252497   5.634   2.155  13.805 -1.3411  0.9218  0.1514
10336TIP3   OH252498   3.372   2.740   2.925 -0.0793 -0.1844 -0.6876
10336TIP3    H152499   3.279   2.745   2.947 -0.1234 -3.3799  0.4194
10336TIP3    H252500   3.413   2.706   3.004  1.8494 -0.0616 -1.5881
10337TIP3   OH252501   3.700   4.288   2.290  0.1874  0.1730  0.1724
10337TIP3    H152502   3.793   4.295   2.272  0.3291 -0.3831  0.6779
10337TIP3    H252503   3.667   4.377   2.277  0.7329  0.3176 -0.2743
10338TIP3   OH252504   4.862   0.813  11.309 -0.1782 -0.0398 -0.2492
10338TIP3    H152505   4.926   0.804  11.379  2.2564  1.6426 -2.1037
10338TIP3    H252506   4.880   0.739  11.250  0.8943  1.0317 -1.3268
10339TIP3   OH252507   1.272   3.368   4.501 -0.1553 -0.0357 -0.6246
10339TIP3    H152508   1.322   3.327   4.573 -1.1414 -0.2362 -0.0368
10339TIP3    H252509   1.287   3.310   4.426  0.5209 -0.0732 -0.4675
10340TIP3   OH252510   2.828   2.143  14.032 -0.0157 -0.0210 -0.2831
10340TIP3    H152511   2.881   2.063  14.027  0.0993  0.0380 -0.0321
10340TIP3    H252512   2.801   2.149  14.123  1.5010  1.1869  0.1496
10341TIP3   OH252513   2.796   1.032   1.857 -0.1683  0.4308 -1.0721
10341TIP3    H152514   2.704   1.006   1.863  0.3181 -1.9032 -2.3923
10341TIP3    H252515   2.797   1.104   1.795 -1.1185  0.6563 -0.8468
10342TIP3   OH252516   5.902   0.082   3.936  0.5251  0.2049 -0.3711
10342TIP3    H152517   5.868  -0.002   3.968 -2.6700  1.3403 -0.4591
10342TIP3    H252518   5.971   0.057   3.875 -0.7826 -2.4490 -0.9446
10343TIP3   OH252519   6.040   1.322  12.259  0.2104 -0.0052  0.1330
10343TIP3    H152520   6.101   1.387  12.224 -0.9351  1.4412  0.7126
10343TIP3    H252521   5.960   1.334  12.208 -0.1198 -0.7440  0.4639
10344TIP3   OH252522   5.762   4.310  16.783  0.0450 -0.8475  0.5601
10344TIP3    H152523   5.670   4.332  16.793 -0.3258 -1.9457 -0.2739
10344TIP3    H252524   5.806   4.356  16.855 -1.2402 -0.9278  1.4249
10345TIP3   OH252525   2.404   3.312   5.302  0.2394 -0.0816 -0.4615
10345TIP3    H152526   2.470   3.314   5.233  0.7383 -0.1216  0.0068
10345TIP3    H252527   2.320   3.306   5.256  0.5606  0.0118 -1.0606
10346TIP3   OH252528   0.136   0.469  15.415 -0.2747  0.0233  0.1758
10346TIP3    H152529   0.129   0.520  15.334  0.3999  0.8546  0.6168
10346TIP3    H252530   0.159   0.534  15.482  0.7726 -0.8748  0.7268
10347TIP3   OH252531   3.756   6.139   3.022  0.0172 -0.2543  0.1892
10347TIP3    H152532   3.753   6.162   2.929 -0.6753 -1.4538 -0.1055
10347TIP3    H252533   3.775   6.221   3.067 -1.8252  0.8149 -0.8489
10348TIP3   OH252534   5.814   0.496  16.305  0.1716  0.3380  0.0593
10348TIP3    H152535   5.778   0.413  16.335 -0.6706  0.3820 -0.7659
10348TIP3    H252536   5.756   0.563  16.343 -0.4488  0.4277 -1.0019
10349TIP3   OH252537   5.506   4.340  11.104 -0.1349  0.1738 -0.1335
10349TIP3    H152538   5.543   4.417  11.060 -0.6240 -0.1168 -1.0858
10349TIP3    H252539   5.423   4.371  11.139 -0.9139 -0.2020 -1.5746
10350TIP3   OH252540   1.955   3.561  13.053  0.6167 -0.2249  0.2561
10350TIP3    H152541   1.977   3.553  12.960  0.8114  1.7582  0.0965
10350TIP3    H252542   2.040   3.565  13.097  0.5256 -1.3136  0.5696
10351TIP3   OH252543   5.477   1.998  12.824  0.3595  0.5400  0.1930
10351TIP3    H152544   5.565   2.032  12.838  0.6771 -0.1767 -0.0022
10351TIP3    H252545   5.476   1.969  12.732  0.7615 -1.7668  0.8464
10352TIP3   OH252546   6.534   5.005  10.734  0.4978 -0.5106  0.3906
10352TIP3    H152547   6.613   5.059  10.738  0.8387 -1.0050  0.4087
10352TIP3    H252548   6.462   5.068  10.734  0.9216  0.0820 -2.4022
10353TIP3   OH252549   4.956   5.900   1.058  0.1117  0.7381 -0.7443
10353TIP3    H152550   4.924   5.940   0.977  0.1041 -1.8830 -2.1483
10353TIP3    H252551   4.877   5.866   1.101  0.1064  2.1762  0.4536
10354TIP3   OH252552   4.552   1.603   3.527 -0.3099 -0.2179 -0.6653
10354TIP3    H152553   4.459   1.581   3.527 -0.0519 -1.3574 -1.1952
10354TIP3    H252554   4.597   1.519   3.528  0.7190  0.3184 -0.6445
10355TIP3   OH252555   0.688   2.374   1.096  0.3148  0.3142 -0.0956
10355TIP3    H152556   0.604   2.382   1.052 -0.5306 -0.9676  1.2143
10355TIP3    H252557   0.673   2.310   1.165  2.3342  0.1659  0.2590
10356TIP3   OH252558   3.365   0.245   2.213 -0.0653 -0.7377 -0.9624
10356TIP3    H152559   3.440   0.258   2.155 -0.5443 -0.1680 -1.4599
10356TIP3    H252560   3.309   0.321   2.198 -1.0635 -1.4772 -1.0715
10357TIP3   OH252561   3.268   1.487   0.603 -0.4234 -0.2536  0.7085
10357TIP3    H152562   3.261   1.482   0.508  1.5304 -2.0295  0.6014
10357TIP3    H252563   3.216   1.564   0.627  1.7047  2.2667 -2.0839
10358TIP3   OH252564   1.491   5.963   1.701 -0.1215  0.1454 -0.3414
10358TIP3    H152565   1.554   6.035   1.698 -1.4810  1.4197 -0.0629
10358TIP3    H252566   1.542   5.886   1.723  1.1429  1.3545  1.1572
10359TIP3   OH252567   0.712   3.796   1.795 -0.4874  0.1290 -0.1882
10359TIP3    H152568   0.740   3.870   1.741 -1.4168  0.1225 -0.6954
10359TIP3    H252569   0.620   3.784   1.774 -0.8252 -0.0068  1.2824
10360TIP3   OH252570   0.639   4.434  10.942 -0.0147 -0.4543  0.2671
10360TIP3    H152571   0.701   4.395  11.004 -0.2650 -0.2336  0.6642
10360TIP3    H252572   0.575   4.364  10.926 -1.2603  0.1896  2.0720
10361TIP3   OH252573   3.528   4.517   1.543 -0.2335  0.4370 -0.5122
10361TIP3    H152574   3.434   4.525   1.528 -0.4563  0.1864  0.6963
10361TIP3    H252575   3.540   4.537   1.636  0.9599  0.8668 -0.7394
10362TIP3   OH252576   5.533   1.153  14.982 -0.4245 -0.1162  0.5947
10362TIP3    H152577   5.514   1.070  15.027 -0.3110 -0.9437 -0.8055
10362TIP3    H252578   5.588   1.127  14.908 -1.6790  1.0057 -0.7868
10363TIP3   OH252579   2.693   2.276  13.346 -0.7934  0.3913  0.1090
10363TIP3    H152580   2.675   2.341  13.278 -0.6870 -1.1036 -1.4198
10363TIP3    H252581   2.784   2.291  13.370 -1.6257  2.9128  2.2374
10364TIP3   OH252582   4.003   4.605   1.931  0.5590  0.0429  0.1644
10364TIP3    H152583   4.096   4.591   1.949  0.4126 -0.4033  0.5803
10364TIP3    H252584   3.988   4.559   1.848  0.3676 -1.2213  0.8796
10365TIP3   OH252585   4.813   1.454  16.220  0.3780  0.3581 -0.1547
10365TIP3    H152586   4.800   1.463  16.314  0.0671  1.0062 -0.2549
10365TIP3    H252587   4.773   1.370  16.198  2.4206 -0.9020  0.6373
10366TIP3   OH252588   3.907   4.839   0.105  0.0110 -0.3309  0.2916
10366TIP3    H152589   3.928   4.901   0.036  0.4940 -1.3654 -0.5327
10366TIP3    H252590   3.831   4.790   0.071 -0.2065 -0.3589  0.8087
10367TIP3   OH252591   3.087   1.138   0.331 -0.2521 -0.6526 -0.4119
10367TIP3    H152592   3.108   1.150   0.424  0.7796 -0.7044 -0.6309
10367TIP3    H252593   3.053   1.048   0.326 -2.1248 -0.0334  0.2053
10368TIP3   OH252594   1.480   0.264  15.031  0.1297 -0.0623  0.0691
10368TIP3    H152595   1.395   0.292  14.996 -0.3143 -2.0199 -0.4926
10368TIP3    H252596   1.472   0.277  15.126 -1.2904 -1.4163  0.1677
10369TIP3   OH252597   3.899   2.116   2.072 -0.3031  0.0777 -0.2097
10369TIP3    H152598   3.889   2.070   1.989  1.4060 -0.3025 -0.2397
10369TIP3    H252599   3.855   2.059   2.136 -2.0607  0.6173 -0.8846
10370TIP3   OH252600   5.137   2.887  16.256  0.4684 -0.2377  0.4373
10370TIP3    H152601   5.120   2.794  16.247  0.1900 -0.2240  0.8147
10370TIP3    H252602   5.159   2.899  16.349  1.9408 -0.1653  0.1169
10371TIP3   OH252603   2.687   1.397   2.433 -0.4527 -0.0635  0.1859
10371TIP3    H152604   2.717   1.337   2.364 -0.1952  0.6627 -0.3390
10371TIP3    H252605   2.706   1.350   2.515 -2.3520 -1.7072 -0.2262
10372TIP3   OH252606   3.342   5.455   0.394 -0.2175 -0.1009  0.0510
10372TIP3    H152607   3.396   5.405   0.332 -1.6462  0.3620 -1.6633
10372TIP3    H252608   3.368   5.546   0.381 -0.3372 -0.0242  0.3358
10373TIP3   OH252609   3.034   0.190  14.827  0.3136 -0.4429  0.1463
10373TIP3    H152610   2.944   0.208  14.854 -0.0557 -1.5777 -0.2394
10373TIP3    H252611   3.027   0.170  14.733  0.9089 -0.8914  0.1918
10374TIP3   OH252612   4.679   2.232   0.423  0.1451 -0.1102 -0.7750
10374TIP3    H152613   4.756   2.275   0.460 -0.7157  0.0807  0.8979
10374TIP3    H252614   4.605   2.281   0.458 -0.7667 -0.8975 -1.5480
10375TIP3   OH252615   2.228   2.717   5.828  0.0446 -0.3034  0.3437
10375TIP3    H152616   2.181   2.739   5.909 -0.6584  0.7749 -0.3223
10375TIP3    H252617   2.244   2.802   5.786 -0.4124 -0.8981 -1.0918
10376TIP3   OH252618   5.666   2.032   3.147 -0.3908 -0.6134  0.2164
10376TIP3    H152619   5.582   2.021   3.102  0.7108 -2.6957 -1.5290
10376TIP3    H252620   5.731   2.024   3.077  1.3060  1.9159  1.3647
10377TIP3   OH252621   3.669   5.344  11.188 -0.5460  0.0565  0.4633
10377TIP3    H152622   3.639   5.424  11.146 -0.9469  0.7903  2.0506
10377TIP3    H252623   3.609   5.276  11.159 -0.9303  0.5811  0.0327
10378TIP3   OH252624   6.263   3.354  16.450  0.0370  0.1958  0.0950
10378TIP3    H152625   6.228   3.265  16.443 -1.0510  0.6798 -0.9672
10378TIP3    H252626   6.221   3.390  16.528 -1.1871  0.4612 -0.6578
10379TIP3   OH252627   3.837   2.827   1.687  0.1755  0.3135 -0.0530
10379TIP3    H152628   3.800   2.896   1.742  1.6931  0.7205  0.5159
10379TIP3    H252629   3.784   2.829   1.607 -2.1719 -0.3799  1.3863
10380TIP3   OH252630   3.369   4.822   1.213  0.1311  0.4860 -0.1176
10380TIP3    H152631   3.456   4.831   1.252  0.6706  1.9266 -1.5137
10380TIP3    H252632   3.371   4.738   1.167  0.5203  0.1872  0.4324
10381TIP3   OH252633   4.224   4.877  12.658  0.3045 -0.0833  0.7464
10381TIP3    H152634   4.206   4.783  12.662 -0.6602 -0.0881 -1.8910
10381TIP3    H252635   4.144   4.917  12.694 -0.6698 -0.2784 -1.0879
10382TIP3   OH252636   2.650   5.096  15.603  0.0992 -0.6930  0.2289
10382TIP3    H152637   2.569   5.061  15.565  0.5805 -0.4927 -1.0296
10382TIP3    H252638   2.712   5.097  15.530  0.1884  2.6303  0.2053
10383TIP3   OH252639   1.831   0.888  16.086 -0.2296 -0.0422  0.4103
10383TIP3    H152640   1.846   0.808  16.136  0.8742  0.0207  0.2072
10383TIP3    H252641   1.858   0.866  15.997 -0.0294  0.5212  0.3261
10384TIP3   OH252642   3.481   4.184  14.378 -0.1224 -0.3082 -0.0022
10384TIP3    H152643   3.542   4.197  14.305  0.4825  0.1071  0.5673
10384TIP3    H252644   3.494   4.094  14.405  1.4268  0.2190  1.1498
10385TIP3   OH252645   6.737   5.703  11.622  0.5926 -0.4900  0.8539
10385TIP3    H152646   6.681   5.752  11.682 -0.6757 -0.1768 -0.5334
10385TIP3    H252647   6.705   5.726  11.535  0.9060 -2.6646  0.1026
10386TIP3   OH252648   4.036   6.065  16.475  0.1640  0.3679  0.2058
10386TIP3    H152649   4.099   5.995  16.459 -0.7187 -0.6236  0.9463
10386TIP3    H252650   4.079   6.122  16.539 -0.5931 -1.6870  2.7236
10387TIP3   OH252651   0.901   5.948  14.502 -0.0890 -0.9909 -0.6465
10387TIP3    H152652   0.871   5.870  14.549 -0.9682 -1.5569 -2.0924
10387TIP3    H252653   0.855   5.945  14.419 -1.0546  1.7387 -0.2914
10388TIP3   OH252654   1.932   5.862  16.386 -0.0399  0.7405 -0.3518
10388TIP3    H152655   1.945   5.887  16.477  1.3793  1.0898 -0.6262
10388TIP3    H252656   1.916   5.767  16.389  1.8926  0.4035  0.1241
10389TIP3   OH252657   0.770   5.703  14.504 -0.5453  0.1759 -0.0170
10389TIP3    H152658   0.824   5.683  14.428 -0.0809  1.2063  0.0326
10389TIP3    H252659   0.714   5.626  14.514  1.6580 -1.4470  0.6036
10390TIP3   OH252660   4.572   5.672  16.838 -0.3347  0.6479 -0.3905
10390TIP3    H152661   4.532   5.601  16.788  0.1887 -0.8335  1.2121
10390TIP3    H252662   4.499   5.712  16.886 -0.3856  0.0279  0.0591
10391TIP3   OH252663   1.725   2.675  12.040  0.5233 -0.2940  0.2965
10391TIP3    H152664   1.652   2.613  12.042  0.2112 -0.0373 -1.3604
10391TIP3    H252665   1.705   2.738  12.110  0.5378 -1.6731  1.5955
10392TIP3   OH252666   4.138   3.036   5.020  0.2234 -0.3041  0.7361
10392TIP3    H152667   4.079   3.079   4.959  0.2882 -0.3656  0.6294
10392TIP3    H252668   4.169   3.107   5.077  0.2869 -0.2188  0.5964
10393TIP3   OH252669   5.277   0.414   2.933  0.0291 -0.5219 -0.0691
10393TIP3    H152670   5.251   0.352   2.864 -4.6890  1.3859 -0.3766
10393TIP3    H252671   5.319   0.486   2.886 -1.4315 -0.0960 -0.7747
10394TIP3   OH252672   1.274   1.123   6.524 -0.3538 -0.3962 -0.6560
10394TIP3    H152673   1.204   1.155   6.581  0.1837 -2.0498  1.0642
10394TIP3    H252674   1.353   1.163   6.559 -0.1518 -0.5097 -0.9849
10395TIP3   OH252675   6.651   6.700  16.935 -0.3179  0.0724  0.3934
10395TIP3    H152676   6.595   6.637  16.980 -0.8106  0.8399  0.8755
10395TIP3    H252677   6.592   6.745  16.875  0.3511 -1.0143 -1.1517
10396TIP3   OH252678   1.129   1.086   0.385 -0.1289 -0.1863 -0.5211
10396TIP3    H152679   1.118   1.173   0.424 -1.7875 -1.1354  1.3179
10396TIP3    H252680   1.186   1.100   0.310  2.1386  2.0349  1.4401
10397TIP3   OH252681   6.007   1.900  15.451  0.4458 -0.5557 -0.0753
10397TIP3    H152682   6.013   1.972  15.515  1.9289 -1.4581  0.8543
10397TIP3    H252683   6.078   1.916  15.390  0.1507 -0.6856 -0.4538
10398TIP3   OH252684   4.849   1.785  14.843  0.0220 -0.3679  0.0538
10398TIP3    H152685   4.777   1.768  14.782  0.3846  1.0143 -0.8075
10398TIP3    H252686   4.908   1.710  14.833 -1.1218 -1.3686  0.5538
10399TIP3   OH252687   5.875   4.864  11.374 -0.4665  0.5163  0.0730
10399TIP3    H152688   5.942   4.893  11.313 -1.5054 -0.4042 -1.5969
10399TIP3    H252689   5.836   4.945  11.407 -1.1227  1.0901 -1.9606
10400TIP3   OH252690   1.523   1.483  10.930 -0.5255  0.1076  0.0572
10400TIP3    H152691   1.527   1.548  11.000  3.2764  0.5801 -0.3792
10400TIP3    H252692   1.544   1.532  10.851  1.3475 -1.4113 -0.4484
10401TIP3   OH252693   3.171   4.768  15.336 -0.2927  0.1436  0.0061
10401TIP3    H152694   3.111   4.831  15.296  0.5082 -0.8598 -3.0640
10401TIP3    H252695   3.235   4.749  15.267  1.5100 -1.4685  1.9785
10402TIP3   OH252696   5.503   2.684  12.642 -0.4361 -0.0206  0.6045
10402TIP3    H152697   5.574   2.743  12.617  0.0941 -0.1525  1.7218
10402TIP3    H252698   5.433   2.702  12.580  1.1738 -1.0976 -1.6340
10403TIP3   OH252699   1.018   2.428  16.753 -0.2656  0.0677  0.1397
10403TIP3    H152700   1.065   2.346  16.739  0.1533  0.4397 -0.7366
10403TIP3    H252701   1.067   2.492  16.701 -0.7261  0.8246  0.6162
10404TIP3   OH252702   2.748   1.894   3.673  0.4918 -0.5976  0.2227
10404TIP3    H152703   2.842   1.911   3.674  0.6554 -1.4016  1.6453
10404TIP3    H252704   2.719   1.914   3.762 -0.2803 -2.3576  0.4188
10405TIP3   OH252705   6.482   6.138  15.013  0.4121  0.8949  0.3824
10405TIP3    H152706   6.475   6.043  15.005 -1.5048  0.8936  1.4045
10405TIP3    H252707   6.460   6.156  15.104  2.0672  2.2576  0.5554
10406TIP3   OH252708   2.786   0.278   2.656 -0.7076  0.2334 -0.1430
10406TIP3    H152709   2.703   0.324   2.646 -0.2401  0.6882 -2.9907
10406TIP3    H252710   2.769   0.190   2.622 -0.4603 -0.2698  0.9949
10407TIP3   OH252711   6.326   0.122  16.945  0.2452  0.3840  0.0518
10407TIP3    H152712   6.274   0.098  16.869  2.0808 -2.0674 -0.5525
10407TIP3    H252713   6.263   0.126  17.017 -1.1420  0.2353 -1.1111
10408TIP3   OH252714   5.927   3.145  12.970  0.0535  0.5300  0.1927
10408TIP3    H152715   6.019   3.154  12.943 -0.1369  1.8226 -0.0890
10408TIP3    H252716   5.928   3.160  13.064  0.1654  0.3040  0.2272
10409TIP3   OH252717   3.655   5.528   2.670  0.1624 -0.7492 -0.2949
10409TIP3    H152718   3.630   5.470   2.597 -2.9343  0.8806 -0.7081
10409TIP3    H252719   3.658   5.470   2.746  0.6715 -2.0219 -1.2328
10410TIP3   OH252720   6.179   5.274   1.443 -0.3187  0.3238  0.7395
10410TIP3    H152721   6.272   5.256   1.429 -0.7449 -1.1842 -0.4102
10410TIP3    H252722   6.158   5.231   1.526 -0.4444 -1.1909 -0.0547
10411TIP3   OH252723   3.211   3.189  13.281  0.1247 -0.1994 -0.1645
10411TIP3    H152724   3.144   3.218  13.343 -0.0220  2.3682 -1.4181
10411TIP3    H252725   3.163   3.135  13.219 -0.8254  1.4430 -0.9347
10412TIP3   OH252726   6.407   1.505  16.466 -0.6185  0.1251 -0.4976
10412TIP3    H152727   6.401   1.537  16.557 -0.4158  1.2933 -0.8773
10412TIP3    H252728   6.398   1.583  16.413  3.2553  0.1202 -1.4371
10413TIP3   OH252729   3.147   3.585  15.400  0.3449  0.0355  0.3358
10413TIP3    H152730   3.211   3.528  15.358 -0.1015 -0.7235  0.6685
10413TIP3    H252731   3.090   3.526  15.449 -0.0578  0.7776  0.7839
10414TIP3   OH252732   3.473   1.487  15.458  0.5129 -0.3458 -0.7558
10414TIP3    H152733   3.522   1.465  15.537 -0.9735 -0.6493  0.1194
10414TIP3    H252734   3.513   1.434  15.389  1.4721 -0.4932 -0.1037
10415TIP3   OH252735   4.116   5.213   4.018 -0.3908  0.3043 -0.1200
10415TIP3    H152736   4.071   5.152   3.960  0.5926 -0.3819 -0.1823
10415TIP3    H252737   4.099   5.178   4.106 -1.5906  1.1491  0.0094
10416TIP3   OH252738   3.745   3.482   4.251 -0.1577 -0.5574  0.6266
10416TIP3    H152739   3.692   3.439   4.318  0.5250 -0.9676  0.9147
10416TIP3    H252740   3.727   3.433   4.171 -0.2697 -0.6414  0.7021
10417TIP3   OH252741   1.399   0.487  13.491  0.2209 -0.3636 -0.4553
10417TIP3    H152742   1.462   0.494  13.419 -1.8440  2.0463 -2.1619
10417TIP3    H252743   1.396   0.574  13.529  0.0243 -1.1906  1.5512
10418TIP3   OH252744   0.415   1.751  13.850  0.4869 -0.0409 -0.2277
10418TIP3    H152745   0.367   1.797  13.919 -0.3944 -1.1958 -0.0420
10418TIP3    H252746   0.358   1.755  13.773 -0.1983 -1.8646  0.1362
10419TIP3   OH252747   5.078   4.968   4.313  0.2518  0.2527 -0.8519
10419TIP3    H152748   5.065   5.031   4.242  1.8437 -0.3682 -1.7566
10419TIP3    H252749   5.038   5.008   4.389 -1.1117  1.1541 -2.0018
10420TIP3   OH252750   4.302   3.563  11.444  0.4126 -0.1945 -0.1776
10420TIP3    H152751   4.288   3.631  11.377 -0.4705 -0.4778 -0.2900
10420TIP3    H252752   4.319   3.612  11.524 -0.7184  0.1939 -0.1491
10421TIP3   OH252753   6.151   0.177   5.456  0.0714 -0.3036  0.0965
10421TIP3    H152754   6.229   0.162   5.509  0.7382 -0.3076 -0.8701
10421TIP3    H252755   6.124   0.090   5.427 -0.1591 -0.2774  0.2241
10422TIP3   OH252756   1.456   3.715  14.776 -0.1090  0.3326  0.1235
10422TIP3    H152757   1.495   3.777  14.715 -0.1521  0.0469 -0.1975
10422TIP3    H252758   1.473   3.629  14.737  1.4815  0.0198  1.4222
10423TIP3   OH252759   1.772   4.927  10.633  0.0976  0.4129  0.0095
10423TIP3    H152760   1.746   4.934  10.541 -0.0634  0.1731  0.0351
10423TIP3    H252761   1.748   5.011  10.672 -1.4974 -0.1252  0.2483
10424TIP3   OH252762   3.067   0.266   5.309 -0.2236  0.1073  0.4422
10424TIP3    H152763   3.139   0.205   5.327  0.7435  1.0412 -0.1875
10424TIP3    H252764   3.092   0.309   5.227 -1.1977  0.9034  0.5477
10425TIP3   OH252765   6.368   4.233   3.627 -0.2667  0.2781  0.2281
10425TIP3    H152766   6.296   4.296   3.635 -0.0310  0.6175 -0.2893
10425TIP3    H252767   6.445   4.286   3.610 -0.1596 -0.1818 -0.7957
10426TIP3   OH252768   2.966   4.742   1.336  0.2787  0.2800 -0.1867
10426TIP3    H152769   2.961   4.700   1.250  0.7532 -1.0814  0.4158
10426TIP3    H252770   2.915   4.822   1.326  2.0152  1.2272 -2.3199
10427TIP3   OH252771   0.200   5.171  13.092 -0.1298 -0.5785 -0.6668
10427TIP3    H152772   0.149   5.141  13.168 -2.2457  0.0674 -1.7530
10427TIP3    H252773   0.197   5.266  13.098  1.5462 -0.5186 -0.4225
10428TIP3   OH252774   0.357   6.377   0.348  0.3568  0.1065 -0.4628
10428TIP3    H152775   0.268   6.349   0.368  0.4058 -0.8204 -1.4467
10428TIP3    H252776   0.349   6.428   0.267  0.6239  0.7343 -0.1031
10429TIP3   OH252777   1.631   0.497   2.673  0.5339 -0.2163 -0.1062
10429TIP3    H152778   1.603   0.406   2.666  0.0151  0.0025 -1.0203
10429TIP3    H252779   1.614   0.520   2.765  0.0474 -0.8427 -0.0283
10430TIP3   OH252780   4.968   5.641  11.324  0.1195 -0.7750  0.3535
10430TIP3    H152781   4.880   5.604  11.317  0.3238 -1.0370 -1.1441
10430TIP3    H252782   4.981   5.656  11.418 -1.2896 -1.2777  0.6423
10431TIP3   OH252783   1.452   1.574   1.443  0.1828  0.0974 -0.0441
10431TIP3    H152784   1.509   1.549   1.516  0.6804  0.4212 -0.3104
10431TIP3    H252785   1.440   1.669   1.455 -0.7279 -0.0495  0.2995
10432TIP3   OH252786   0.137   0.339   2.459  0.2516  0.0615 -0.2976
10432TIP3    H152787   0.163   0.259   2.504  1.4349  1.0671  0.9214
10432TIP3    H252788   0.087   0.388   2.525  0.6868  0.8824 -0.5568
10433TIP3   OH252789   0.255   3.049  13.123  0.3048 -0.0132  0.2110
10433TIP3    H152790   0.173   3.089  13.092  0.9944  2.2997  1.2035
10433TIP3    H252791   0.238   3.027  13.214  0.7947  0.4999  0.4278
10434TIP3   OH252792   4.442   1.847  12.183  0.2907 -0.5811 -0.4160
10434TIP3    H152793   4.515   1.793  12.154 -0.6024 -3.2925  1.9241
10434TIP3    H252794   4.364   1.795  12.164 -0.6029 -0.3301  2.1253
10435TIP3   OH252795   1.757   2.990  12.198 -0.2083 -0.0890  0.7662
10435TIP3    H152796   1.716   3.071  12.228 -0.0601 -0.0871  0.9620
10435TIP3    H252797   1.824   2.971  12.263 -1.0079 -0.9883  1.3616
10436TIP3   OH252798   5.475   1.929   3.880 -0.3911  0.2235  0.5255
10436TIP3    H152799   5.518   2.009   3.850  1.9765 -1.0682  0.1557
10436TIP3    H252800   5.422   1.901   3.805  2.0108 -0.6334 -0.9741
10437TIP3   OH252801   1.756   0.236   5.030 -0.2517 -0.8522  0.0371
10437TIP3    H152802   1.746   0.152   4.985  2.2648 -1.3394  0.2280
10437TIP3    H252803   1.844   0.265   5.006 -0.5297  1.0563  1.1338
10438TIP3   OH252804   0.896   4.378   0.407  0.1544  0.0673 -0.4417
10438TIP3    H152805   0.883   4.398   0.500  0.3266 -1.7262  0.0047
10438TIP3    H252806   0.810   4.353   0.376 -0.0349  1.2909 -0.9624
10439TIP3   OH252807   0.409   4.495  15.485 -0.4112  0.0802 -0.6422
10439TIP3    H152808   0.323   4.537  15.494  0.6548  2.2338  0.1743
10439TIP3    H252809   0.413   4.433  15.557 -2.0230 -1.5450 -1.8660
10440TIP3   OH252810   2.283   4.619  16.968  0.0116 -0.3694 -0.2779
10440TIP3    H152811   2.261   4.699  17.016 -0.6567 -0.1695 -0.8899
10440TIP3    H252812   2.224   4.553  17.005 -0.5738 -0.1921 -0.8738
10441TIP3   OH252813   6.649   2.933   3.926 -0.2667  0.5537  0.2422
10441TIP3    H152814   6.598   2.855   3.904  0.3009  0.1134  0.4644
10441TIP3    H252815   6.647   2.986   3.847  1.0713 -0.6338 -0.6466
10442TIP3   OH252816   4.290   0.945  14.489 -0.8485 -0.2868 -0.4912
10442TIP3    H152817   4.278   0.867  14.435  0.0275  0.6919 -2.1497
10442TIP3    H252818   4.206   0.991  14.482 -1.6093 -1.3438  1.0312
10443TIP3   OH252819   3.009   5.671   0.530 -0.2347 -0.2158 -0.3007
10443TIP3    H152820   2.959   5.623   0.596 -1.0916 -0.1529 -0.8915
10443TIP3    H252821   3.086   5.616   0.514  1.5813  1.1425  2.8682
10444TIP3   OH252822   3.963   0.461   6.196 -0.2582  0.0217  0.0363
10444TIP3    H152823   4.003   0.374   6.197 -1.2414 -0.4799 -1.7514
10444TIP3    H252824   4.027   0.517   6.242 -0.7167 -2.0304  3.5714
10445TIP3   OH252825   2.561   3.671   4.021  0.3629 -0.1019 -0.3583
10445TIP3    H152826   2.516   3.650   4.103 -0.0392  0.2414 -0.4831
10445TIP3    H252827   2.565   3.767   4.020  2.0937 -0.1428  0.1692
10446TIP3   OH252828   0.148   1.231   1.730 -0.1528  0.4468  0.3334
10446TIP3    H152829   0.101   1.193   1.656  0.7765  0.1543 -0.1314
10446TIP3    H252830   0.100   1.203   1.807 -0.2890 -0.4841 -0.0821
10447TIP3   OH252831   4.667   0.132   5.627  0.3652 -0.2976  0.4049
10447TIP3    H152832   4.598   0.192   5.598 -0.3603 -1.7824 -1.1166
10447TIP3    H252833   4.748   0.171   5.594 -0.2295 -0.8033 -1.8035
10448TIP3   OH252834   5.655   6.665   1.503  0.0873  0.1930 -0.1579
10448TIP3    H152835   5.660   6.713   1.585  1.6956  0.4379 -0.3655
10448TIP3    H252836   5.746   6.660   1.472 -0.1372 -2.1191 -0.6468
10449TIP3   OH252837   4.142   4.876   4.851 -0.0861 -0.1707  0.3641
10449TIP3    H152838   4.156   4.965   4.818  0.2947  0.4518  2.0515
10449TIP3    H252839   4.174   4.880   4.942  1.8433 -2.5443 -0.0924
10450TIP3   OH252840   0.520   3.669  10.445 -0.0371 -0.5910  0.0330
10450TIP3    H152841   0.489   3.625  10.366 -0.0227 -0.6812  0.0778
10450TIP3    H252842   0.550   3.598  10.502  1.1660 -0.4503 -0.3994
10451TIP3   OH252843   5.886   0.107  13.171  0.5804  0.1536 -0.1466
10451TIP3    H152844   5.935   0.189  13.169 -1.0719  1.1751 -2.5441
10451TIP3    H252845   5.831   0.115  13.249  0.8187  1.1023 -0.0582
10452TIP3   OH252846   6.288   4.561  15.651  0.2310  0.1173 -0.0852
10452TIP3    H152847   6.245   4.499  15.592  0.8968  0.5917 -1.1005
10452TIP3    H252848   6.274   4.525  15.738 -1.4390 -0.1925 -0.4589
10453TIP3   OH252849   6.719   2.636   4.731  0.0446 -0.2864  0.6089
10453TIP3    H152850   6.779   2.691   4.682 -0.6520  0.2930  0.3878
10453TIP3    H252851   6.632   2.657   4.695 -0.1295 -2.4767 -0.4079
10454TIP3   OH252852   4.814   6.271  16.820 -0.2392 -0.4022  0.5503
10454TIP3    H152853   4.832   6.327  16.895  1.1829 -1.3906  0.9930
10454TIP3    H252854   4.893   6.277  16.766 -0.6149 -0.9280 -0.0745
10455TIP3   OH252855   5.114   1.264  13.650 -0.3105 -0.0990 -0.1418
10455TIP3    H152856   5.040   1.241  13.594  0.7083 -2.0327 -0.8071
10455TIP3    H252857   5.116   1.195  13.716  0.3022  0.4993  0.4840
10456TIP3   OH252858   0.730   6.713   5.279  0.3519 -0.3271 -0.3870
10456TIP3    H152859   0.711   6.624   5.251  0.2274 -0.6218  0.6072
10456TIP3    H252860   0.824   6.723   5.264  0.6311 -1.0940  0.7335
10457TIP3   OH252861   2.893   4.192  13.151 -0.4058 -0.3810 -0.0832
10457TIP3    H152862   2.982   4.187  13.186 -0.2647  0.6491 -0.2711
10457TIP3    H252863   2.889   4.277  13.108 -1.6140 -0.2397  0.2779
10458TIP3   OH252864   3.541   1.385   0.837  0.2016 -0.0347  0.2869
10458TIP3    H152865   3.593   1.322   0.789 -0.1781  0.0949 -0.3028
10458TIP3    H252866   3.589   1.467   0.831 -0.8149  0.4824 -1.6347
10459TIP3   OH252867   2.784   3.437  13.708  0.7316  0.0808 -0.1833
10459TIP3    H152868   2.757   3.359  13.756 -1.6702  1.2562  0.5556
10459TIP3    H252869   2.704   3.466  13.663  2.2455  0.5514 -2.7965
10460TIP3   OH252870   1.143   2.275  12.761  0.3311 -0.8762 -0.5483
10460TIP3    H152871   1.178   2.281  12.850  0.3500 -1.0031 -0.5466
10460TIP3    H252872   1.203   2.216  12.716  0.7437 -0.2298 -0.8551
10461TIP3   OH252873   6.400   2.407  15.277  0.1538 -0.0329  0.4043
10461TIP3    H152874   6.478   2.397  15.331  2.0483  2.3500 -1.6575
10461TIP3    H252875   6.431   2.447  15.196 -3.0076 -0.4315 -1.1837
10462TIP3   OH252876   5.069   0.457  14.884 -0.4727 -0.5332  0.2881
10462TIP3    H152877   4.975   0.438  14.881 -0.8816  1.2810  0.2363
10462TIP3    H252878   5.088   0.498  14.800  0.2963 -0.5597  0.4406
10463TIP3   OH252879   0.891   6.772   4.958 -0.5268  0.1278  0.5889
10463TIP3    H152880   0.919   6.803   4.871 -0.2653  0.8677  0.9259
10463TIP3    H252881   0.960   6.801   5.017 -0.7350 -0.3215  1.0542
10464TIP3   OH252882   3.806   0.349  13.112 -0.0565 -0.6254  0.0597
10464TIP3    H152883   3.881   0.304  13.151  0.9840 -0.3372 -1.5471
10464TIP3    H252884   3.844   0.414  13.054 -1.5589 -0.0960 -0.3814
10465TIP3   OH252885   0.110   3.360  16.483 -0.1788  0.2848 -0.2539
10465TIP3    H152886   0.183   3.378  16.543 -1.3947 -0.2226  1.4726
10465TIP3    H252887   0.053   3.437  16.492 -0.0509  0.5136 -1.3157
10466TIP3   OH252888   6.003   6.339   4.861  0.1342  0.3593 -0.9358
10466TIP3    H152889   6.077   6.348   4.801  1.5298 -1.5317  0.3892
10466TIP3    H252890   5.944   6.278   4.818  1.0885 -0.9188 -0.4761
10467TIP3   OH252891   1.992   6.292  16.499  0.4018  0.7922 -0.6455
10467TIP3    H152892   1.988   6.293  16.403  1.0591  1.2961 -0.6740
10467TIP3    H252893   1.921   6.351  16.526 -0.3292 -0.0032 -0.7907
10468TIP3   OH252894   5.193   0.347  11.636  0.4250 -0.4885 -0.1365
10468TIP3    H152895   5.206   0.388  11.722  2.5865 -0.7456 -0.2868
10468TIP3    H252896   5.143   0.268  11.655  2.0355 -1.2770  1.1416
10469TIP3   OH252897   0.839   2.124  10.751  0.3345  0.1734  0.2962
10469TIP3    H152898   0.905   2.117  10.820  0.9843  2.8789  0.0598
10469TIP3    H252899   0.869   2.198  10.697 -2.8298  1.4419  0.1060
10470TIP3   OH252900   3.391   0.584  13.721  0.0081 -0.2578  0.4764
10470TIP3    H152901   3.486   0.581  13.734  0.3254 -0.2407 -1.4298
10470TIP3    H252902   3.380   0.637  13.642 -1.4678 -1.4910 -0.2058
10471TIP3   OH252903   6.393   6.158   3.635 -0.0054  0.0344 -0.2731
10471TIP3    H152904   6.387   6.253   3.644  2.0602  0.3847 -1.8430
10471TIP3    H252905   6.335   6.137   3.561 -0.4352  0.0665  0.0519
10472TIP3   OH252906   6.107   4.430  14.692 -0.7694  0.1946 -0.1109
10472TIP3    H152907   6.171   4.407  14.625 -0.1661 -1.1192  0.8542
10472TIP3    H252908   6.073   4.345  14.722  1.2950  0.3845  3.3950
10473TIP3   OH252909   0.568   0.202  16.198 -0.2200  0.4127 -0.4374
10473TIP3    H152910   0.486   0.248  16.178 -0.1998 -0.0226 -1.5954
10473TIP3    H252911   0.544   0.109  16.198 -0.2018  0.3429  1.6121
10474TIP3   OH252912   4.745   4.720  13.536  0.1164 -0.1950  0.2323
10474TIP3    H152913   4.826   4.767  13.552 -0.8068  1.4747  0.1785
10474TIP3    H252914   4.747   4.700  13.442  0.4112 -0.0743  0.2118
10475TIP3   OH252915   5.062   5.292   1.304  0.3617 -0.0294  0.1051
10475TIP3    H152916   5.033   5.359   1.243 -0.1612  0.0074  0.3926
10475TIP3    H252917   5.105   5.340   1.374  0.4777 -0.0349  0.0384
10476TIP3   OH252918   4.060   5.878  15.842  0.3884  0.6110 -0.2110
10476TIP3    H152919   4.118   5.817  15.888  1.4986  2.6578  1.2363
10476TIP3    H252920   4.062   5.848  15.751 -0.5776 -2.5765  0.6640
10477TIP3   OH252921   5.718   4.260  16.517 -0.3840  0.3967 -0.2580
10477TIP3    H152922   5.756   4.245  16.604  0.0874 -1.0918 -0.6868
10477TIP3    H252923   5.694   4.352  16.517 -1.0508  0.2769  1.7165
10478TIP3   OH252924   0.805   2.247  16.261  0.5917 -0.7515 -0.6593
10478TIP3    H152925   0.874   2.180  16.260  3.0229  1.5188  0.9403
10478TIP3    H252926   0.845   2.321  16.305 -1.9643  1.7932 -2.2909
10479TIP3   OH252927   2.182   6.387  12.341 -0.2295 -0.9276 -0.1596
10479TIP3    H152928   2.217   6.310  12.384  0.7819 -1.6546 -2.1392
10479TIP3    H252929   2.259   6.443  12.325 -0.7589 -0.1016  0.1265
10480TIP3   OH252930   4.666   4.334  12.978  0.3970 -0.3136 -0.1057
10480TIP3    H152931   4.685   4.247  13.014 -2.1612 -0.4490  1.1822
10480TIP3    H252932   4.749   4.381  12.985  1.1800 -1.8133  1.7498
10481TIP3   OH252933   6.514   5.131  15.008  0.3363 -0.1771 -0.4779
10481TIP3    H152934   6.438   5.174  14.968  0.4247  0.4049 -0.0283
10481TIP3    H252935   6.477   5.057  15.056  0.1274 -0.2972 -0.8178
10482TIP3   OH252936   6.050   0.059   1.790  0.6167 -0.2196  0.7456
10482TIP3    H152937   5.981   0.069   1.725  0.4759  0.5890  1.0115
10482TIP3    H252938   6.008   0.078   1.873  1.4641  1.7216  0.7749
10483TIP3   OH252939   0.608   0.406   4.673  0.0441 -0.0049 -0.6425
10483TIP3    H152940   0.669   0.439   4.608  0.8904 -1.4884 -0.6465
10483TIP3    H252941   0.616   0.311   4.668  0.3204 -0.1910  1.7456
10484TIP3   OH252942   6.051   3.721  12.971 -0.5899  0.1868  0.1551
10484TIP3    H152943   6.131   3.748  12.927  0.6954 -0.0326  2.2416
10484TIP3    H252944   6.013   3.654  12.914  0.6568  0.3700 -0.9149
10485TIP3   OH252945   0.679   6.385   2.808 -0.3931  0.5827  0.2495
10485TIP3    H152946   0.622   6.459   2.788 -1.6613 -1.2195 -4.0898
10485TIP3    H252947   0.619   6.314   2.831  0.5506  0.0067  1.0237
10486TIP3   OH252948   6.743   0.202   0.444  0.2679  0.5668  0.1298
10486TIP3    H152949   6.826   0.248   0.447  0.7372 -0.2674  0.4632
10486TIP3    H252950   6.709   0.218   0.356 -0.1672  2.5015  0.6131
10487TIP3   OH252951   1.751   6.758  12.967  0.0170  0.1784  0.1846
10487TIP3    H152952   1.771   6.689  12.904 -2.1945 -2.7466  2.4517
10487TIP3    H252953   1.816   6.746  13.037  0.0742  0.8978  0.2620
10488TIP3   OH252954   3.242   4.648  14.832  0.3515 -0.3874 -0.2687
10488TIP3    H152955   3.337   4.647  14.837  0.5152  1.3253 -1.8768
10488TIP3    H252956   3.216   4.557  14.843  2.1598 -0.8731  0.2310
10489TIP3   OH252957   6.328   6.431  14.065 -0.3351 -0.2268  0.0287
10489TIP3    H152958   6.331   6.506  14.124 -0.4040  0.0315 -0.2904
10489TIP3    H252959   6.420   6.406  14.053 -0.4077 -1.6162  1.8955
10490TIP3   OH252960   2.141   1.433   3.277  0.1672  0.2307  0.4472
10490TIP3    H152961   2.165   1.440   3.369  0.2537 -0.7758  0.5083
10490TIP3    H252962   2.208   1.375   3.239  0.9541  1.7170 -0.5613
10491TIP3   OH252963   1.156   3.660  11.302 -0.1217 -0.7146  0.4621
10491TIP3    H152964   1.197   3.584  11.261  0.4612 -0.1961  0.0663
10491TIP3    H252965   1.170   3.731  11.240 -0.3612 -0.2060  0.9833
10492TIP3   OH252966   0.516   2.473  14.735 -0.1446 -0.2359  0.6761
10492TIP3    H152967   0.610   2.461  14.720 -0.3327 -1.1748  0.1619
10492TIP3    H252968   0.481   2.495  14.649 -0.5281 -0.8565  0.6696
10493TIP3   OH252969   0.241   4.422   0.626 -0.5782  1.2461 -0.4853
10493TIP3    H152970   0.323   4.407   0.673 -0.3543  0.6020 -1.0715
10493TIP3    H252971   0.266   4.425   0.534 -1.4798 -1.2529 -0.8822
10494TIP3   OH252972   0.564   1.015  12.006  0.0395 -0.1140  0.2338
10494TIP3    H152973   0.619   1.093  12.020 -0.3799  0.2736 -0.2564
10494TIP3    H252974   0.601   0.975  11.928 -1.2551  0.9473 -0.9682
10495TIP3   OH252975   3.603   6.375   5.506 -0.0837  0.3413 -0.4422
10495TIP3    H152976   3.680   6.431   5.503 -0.8138  1.4266  0.3952
10495TIP3    H252977   3.637   6.286   5.495  1.2302  0.8415 -0.5061
10496TIP3   OH252978   2.136   0.046   4.197  0.1004  0.0557 -0.1614
10496TIP3    H152979   2.212   0.093   4.231 -0.5164  1.9834 -1.3499
10496TIP3    H252980   2.091   0.015   4.276  3.3693 -3.5231  0.6400
10497TIP3   OH252981   1.632   5.453   5.333 -0.0784 -0.9630  0.2828
10497TIP3    H152982   1.690   5.406   5.273 -0.7668 -2.3918  0.6853
10497TIP3    H252983   1.565   5.491   5.276  1.4342  1.1049 -0.2406
10498TIP3   OH252984   2.492   2.685   0.655 -0.2221  0.0878 -0.1908
10498TIP3    H152985   2.480   2.734   0.574 -0.8842  0.2206 -0.0174
10498TIP3    H252986   2.482   2.593   0.629  0.0541  0.0997 -0.3435
10499TIP3   OH252987   2.448   1.662  14.269 -0.1599 -0.1749  0.0941
10499TIP3    H152988   2.452   1.696  14.180  0.1371 -0.8596 -0.1677
10499TIP3    H252989   2.375   1.708  14.310 -0.9735 -0.6035 -0.8404
10500TIP3   OH252990   4.862   3.305  15.326 -0.3210  0.8393  0.3581
10500TIP3    H152991   4.835   3.217  15.300 -0.6625  1.2684 -0.7790
10500TIP3    H252992   4.957   3.299  15.336  0.0044  0.9285 -2.2103
10501TIP3   OH252993   5.775   4.194   0.626  0.4441  1.5357  0.4512
10501TIP3    H152994   5.698   4.137   0.635 -0.0436  2.0509 -0.4004
10501TIP3    H252995   5.746   4.265   0.568  1.4431  1.9490  0.4442
10502TIP3   OH252996   3.590   6.662   0.532  0.4423 -0.1561 -0.6780
10502TIP3    H152997   3.567   6.571   0.513  1.2322 -0.6471  0.5708
10502TIP3    H252998   3.611   6.662   0.625  1.1461  1.1674 -0.8130
10503TIP3   OH252999   0.220   1.967   3.668 -0.5254  0.3675 -0.1262
10503TIP3    H153000   0.261   2.041   3.713 -1.9286  0.3203  1.3141
10503TIP3    H253001   0.177   1.917   3.738  0.5781 -1.9877 -1.0031
10504TIP3   OH253002   1.714   3.471   1.650  0.3814 -0.1577  0.1635
10504TIP3    H153003   1.737   3.421   1.728  0.1050 -0.3297  0.1336
10504TIP3    H253004   1.628   3.509   1.670 -0.5615 -1.7041 -0.7698
10505TIP3   OH253005   3.647   0.060  12.327 -0.3225 -0.3083 -0.5974
10505TIP3    H153006   3.711   0.108  12.275  0.7563 -1.4127 -0.3467
10505TIP3    H253007   3.563   0.080  12.286  0.1017  1.6017 -0.6004
10506TIP3   OH253008   1.277   5.610  12.248 -0.4091 -0.3921 -0.5513
10506TIP3    H153009   1.300   5.641  12.336 -0.4282  1.0410 -1.0175
10506TIP3    H253010   1.259   5.517  12.259  0.6523 -0.4703  0.7610
10507TIP3   OH253011   5.988   2.896  12.471 -0.1170  0.1426  0.3769
10507TIP3    H153012   6.077   2.863  12.462 -0.1225  0.2564 -0.1225
10507TIP3    H253013   5.972   2.896  12.565 -0.1562 -1.3889  0.4007
10508TIP3   OH253014   4.511   3.701  12.844 -0.3932  0.7171  0.3286
10508TIP3    H153015   4.502   3.619  12.796  0.5056  0.0683  1.2400
10508TIP3    H253016   4.466   3.686  12.927 -1.5017  1.6672 -0.0602
10509TIP3   OH253017   1.539   0.433  13.200  0.0369  0.1542 -0.5979
10509TIP3    H153018   1.567   0.523  13.181 -0.0032 -0.3812 -3.4880
10509TIP3    H253019   1.519   0.395  13.115  0.1395 -2.6593  0.5323
10510TIP3   OH253020   4.567   1.644   0.660  0.1951  0.4340 -0.1960
10510TIP3    H153021   4.578   1.558   0.701 -0.0732 -0.7384 -2.4439
10510TIP3    H253022   4.656   1.679   0.655  0.6813 -0.8649 -1.5106
10511TIP3   OH253023   5.927   0.703  11.979 -0.6094 -0.1154 -0.0120
10511TIP3    H153024   5.855   0.659  11.933 -1.4731 -0.9550  2.0419
10511TIP3    H253025   6.005   0.680  11.928 -1.4766 -1.2961 -0.8572
10512TIP3   OH253026   2.614   1.606   0.057  0.1096 -0.2674 -0.4078
10512TIP3    H153027   2.602   1.676  -0.007 -1.0950 -0.9103 -0.9061
10512TIP3    H253028   2.642   1.652   0.137  0.4148  0.6614 -1.0197
10513TIP3   OH253029   3.227   4.458   4.116  0.2084 -0.0484 -0.2385
10513TIP3    H153030   3.171   4.398   4.066 -0.1815  2.2740 -2.9061
10513TIP3    H253031   3.179   4.541   4.115  2.4627  1.3420 -0.2886
10514TIP3   OH253032   2.089   1.028   0.348 -0.2762  0.2014 -0.0179
10514TIP3    H153033   1.999   1.054   0.366 -0.0834  1.6677 -1.0374
10514TIP3    H253034   2.119   1.089   0.281  1.8601  0.4793  1.1004
10515TIP3   OH253035   3.570   2.259   1.797 -0.1713  0.3374  0.8051
10515TIP3    H153036   3.623   2.332   1.829 -1.0806  1.4137 -0.0355
10515TIP3    H253037   3.524   2.227   1.874 -0.6965  1.4867  0.9954
10516TIP3   OH253038   6.154   2.175   4.972  0.0570 -0.1588 -0.0594
10516TIP3    H153039   6.144   2.113   5.044  3.6533  0.4425  1.1710
10516TIP3    H253040   6.187   2.123   4.899 -1.2205 -0.3578 -0.5197
10517TIP3   OH253041   0.347   0.670   1.377  0.6876  0.0648 -0.0058
10517TIP3    H153042   0.326   0.711   1.461  0.8818 -1.8499  1.0514
10517TIP3    H253043   0.358   0.743   1.316 -0.8020  1.4604  1.3083
10518TIP3   OH253044   0.348   2.518  14.081 -0.0059 -0.2226 -1.0946
10518TIP3    H153045   0.305   2.598  14.050  0.5878  0.7055  0.3896
10518TIP3    H253046   0.276   2.462  14.108 -0.4033  1.2762  1.2750
10519TIP3   OH253047   0.497   3.943  13.879 -0.0197  0.3372 -0.5391
10519TIP3    H153048   0.553   4.013  13.846  1.9873 -1.9728 -2.3927
10519TIP3    H253049   0.412   3.958  13.837 -0.1379  2.4577  0.3237
10520TIP3   OH253050   1.823   2.981  11.284  0.0763 -0.2765 -0.2186
10520TIP3    H153051   1.826   2.905  11.226  1.1828 -0.0559 -0.4599
10520TIP3    H253052   1.895   2.968  11.345  1.5976  1.5635 -1.5224
10521TIP3   OH253053   4.795   5.197  11.308 -0.4277  0.6433  0.1862
10521TIP3    H153054   4.851   5.263  11.266 -1.2512  2.1027  1.3110
10521TIP3    H253055   4.740   5.246  11.368 -0.1119 -1.2361  2.1352
10522TIP3   OH253056   1.534   5.237  16.795  0.4173  0.2393 -0.7962
10522TIP3    H153057   1.455   5.240  16.741 -0.3312 -1.4094  0.1240
10522TIP3    H253058   1.511   5.177  16.867  2.0970  0.6912  0.1611
10523TIP3   OH253059   4.581   1.032  14.993  0.4141 -0.0070  0.6384
10523TIP3    H153060   4.620   1.087  14.924 -1.4489 -0.3715 -0.7854
10523TIP3    H253061   4.640   0.957  14.999  1.9841  1.2256  1.2945
10524TIP3   OH253062   2.206   2.055   0.584  0.2095  0.0574 -0.1938
10524TIP3    H153063   2.136   2.053   0.519 -0.3023 -2.0846  0.3478
10524TIP3    H253064   2.169   2.010   0.660  0.9874  1.9822  1.4320
10525TIP3   OH253065   6.325   3.825  16.736 -0.1885 -0.2680 -0.4875
10525TIP3    H153066   6.256   3.865  16.789 -0.4296 -0.4504 -0.6582
10525TIP3    H253067   6.404   3.873  16.759  0.6206 -2.9211  3.1034
10526TIP3   OH253068   1.068   2.867   0.197 -0.0266 -0.1575  0.7616
10526TIP3    H153069   1.114   2.915   0.128 -1.0753 -1.7768 -1.1683
10526TIP3    H253070   1.075   2.776   0.171 -1.8739 -0.6854  1.9253
10527TIP3   OH253071   2.580   3.262  14.522  0.1019 -0.3204  0.2074
10527TIP3    H153072   2.514   3.317  14.480 -0.8524 -2.0616 -0.7120
10527TIP3    H253073   2.660   3.313  14.519 -1.0192  1.5479  0.6414
10528TIP3   OH253074   4.590   3.440   5.800 -0.3721  0.2616  0.1113
10528TIP3    H153075   4.570   3.352   5.832  0.4758  0.1324  0.2992
10528TIP3    H253076   4.584   3.495   5.878 -0.1414  0.2431  0.1430
10529TIP3   OH253077   5.750   6.043  13.036 -0.1178 -0.3789  0.0210
10529TIP3    H153078   5.760   5.962  13.086  0.6501  0.0249  0.5408
10529TIP3    H253079   5.837   6.058  12.998 -0.6202 -0.5295 -1.2125
10530TIP3   OH253080   3.820   4.490   2.126  0.1093 -0.1160 -0.8517
10530TIP3    H153081   3.856   4.566   2.081 -0.4905  0.7048  0.0212
10530TIP3    H253082   3.895   4.451   2.170 -0.0159  1.6557  1.0661
10531TIP3   OH253083   5.468   1.418   4.590  0.3818  0.0211 -0.3422
10531TIP3    H153084   5.496   1.345   4.646  2.1602  1.0793  0.2056
10531TIP3    H253085   5.380   1.439   4.621  1.0251  0.0692  1.5657
10532TIP3   OH253086   6.015   3.023   1.520  0.2099  0.0532  0.1178
10532TIP3    H153087   6.015   3.118   1.505  1.5335  0.2355  1.1760
10532TIP3    H253088   6.102   2.995   1.492 -0.0045 -0.7864  0.2884
10533TIP3   OH253089   5.086   5.781  10.272  0.5202 -0.0109  0.1269
10533TIP3    H153090   5.055   5.866  10.303  1.8362  0.7310 -0.5087
10533TIP3    H253091   5.181   5.785  10.284  0.8355 -0.5361 -1.9391
10534TIP3   OH253092   5.780   1.575  13.676 -0.1469 -0.3824 -0.0134
10534TIP3    H153093   5.688   1.554  13.659  0.2231 -0.8276 -1.7056
10534TIP3    H253094   5.816   1.496  13.716 -0.4969 -0.2035  0.6588
10535TIP3   OH253095   2.430   4.902   0.778  0.2053  0.1308  0.6022
10535TIP3    H153096   2.447   4.943   0.693  0.1991  0.0946  0.5835
10535TIP3    H253097   2.436   4.808   0.761 -0.5775  0.0953  0.4727
10536TIP3   OH253098   1.099   1.787   5.058 -0.2255 -0.0736 -0.2096
10536TIP3    H153099   1.152   1.854   5.102  1.0769 -1.3290  0.2368
10536TIP3    H253100   1.070   1.729   5.129 -1.6417  0.1923 -0.5386
10537TIP3   OH253101   4.317   3.451  12.519  0.3698  0.1639  0.2730
10537TIP3    H153102   4.227   3.446  12.551  0.6730  0.6776  1.2784
10537TIP3    H253103   4.325   3.539  12.483  0.5029  0.1695  0.3136
10538TIP3   OH253104   1.167   4.878   6.114 -0.3494  0.0029  0.5111
10538TIP3    H153105   1.186   4.785   6.099  0.0750  0.3321 -1.1598
10538TIP3    H253106   1.115   4.904   6.038 -1.3321  0.9081  1.4630
10539TIP3   OH253107   4.547   2.029   2.261 -0.3713  0.0859 -0.2363
10539TIP3    H153108   4.488   1.962   2.296  1.6358 -1.6578 -0.0122
10539TIP3    H253109   4.635   1.993   2.275  0.7272  2.1752 -1.3765
10540TIP3   OH253110   4.680   5.284   5.107 -0.5693 -0.0414  0.0432
10540TIP3    H153111   4.761   5.247   5.140 -0.0730  1.2961  0.4025
10540TIP3    H253112   4.707   5.360   5.055 -1.4849 -0.6893 -1.4561
10541TIP3   OH253113   1.713   0.912  16.752 -0.0973  0.1747  0.4559
10541TIP3    H153114   1.694   0.846  16.685  1.4698 -0.8143  0.9429
10541TIP3    H253115   1.786   0.876  16.801 -0.3295  1.5105  1.8491
10542TIP3   OH253116   6.369   2.463  16.185  0.2259  0.0042 -0.0382
10542TIP3    H153117   6.382   2.543  16.236  2.4319 -0.7087  0.5985
10542TIP3    H253118   6.438   2.465  16.119 -0.8157 -0.5153 -1.1809
10543TIP3   OH253119   0.105   6.345  14.741 -0.2285  0.4096 -0.1352
10543TIP3    H153120   0.102   6.302  14.655 -1.4242  0.5275 -0.1661
10543TIP3    H253121   0.183   6.309  14.783 -1.3867 -2.1686  0.0164
10544TIP3   OH253122   1.311   1.128  15.153 -0.0018 -0.2592 -0.0498
10544TIP3    H153123   1.258   1.072  15.096 -1.1615 -0.2630  0.9795
10544TIP3    H253124   1.292   1.217  15.123  1.5310 -0.3505 -1.4234
10545TIP3   OH253125   1.614   5.827   4.899  0.6278  0.1410 -0.5589
10545TIP3    H153126   1.587   5.792   4.814  0.4743 -1.6365  0.1713
10545TIP3    H253127   1.701   5.788   4.914 -0.0821 -1.0200  0.8391
10546TIP3   OH253128   0.115   4.577   5.138  0.3907 -0.2197  0.2609
10546TIP3    H153129   0.136   4.541   5.051 -0.5189  1.1654 -0.5752
10546TIP3    H253130   0.053   4.514   5.175 -2.5154  1.0839 -1.8689
10547TIP3   OH253131   3.670   4.442  12.907  0.0932 -0.2172  0.5289
10547TIP3    H153132   3.656   4.527  12.865 -0.2720  0.2088  1.4826
10547TIP3    H253133   3.698   4.463  12.996  0.1406 -1.0937  0.7327
10548TIP3   OH253134   1.111   0.738  13.402  0.0559  0.2151 -0.5391
10548TIP3    H153135   1.203   0.755  13.381 -0.0545  1.4608 -0.0588
10548TIP3    H253136   1.078   0.689  13.326  0.9646  0.2573 -0.9678
10549TIP3   OH253137   4.356   0.065  10.857  0.0404 -0.6045 -0.0848
10549TIP3    H153138   4.322   0.153  10.840  1.5698 -0.0264 -0.2675
10549TIP3    H253139   4.277   0.011  10.866 -0.9595  0.9377  1.0175
10550TIP3   OH253140   6.536   5.861  15.392 -0.0990 -0.1718 -0.2415
10550TIP3    H153141   6.556   5.949  15.358  1.5989  0.8972  3.0938
10550TIP3    H253142   6.601   5.804  15.350  0.2319  0.5727 -0.7719
10551TIP3   OH253143   0.426   1.425   1.380 -0.0546 -0.1504 -0.4146
10551TIP3    H153144   0.485   1.453   1.450 -1.5126  2.0099  0.0530
10551TIP3    H253145   0.339   1.431   1.418 -0.8463  0.5085 -2.2167
10552TIP3   OH253146   2.240   6.435  13.781 -0.3591  0.2292 -0.2249
10552TIP3    H153147   2.280   6.475  13.704 -0.6534 -0.8980 -0.9706
10552TIP3    H253148   2.307   6.441  13.849  0.2260  0.4152 -0.8167
10553TIP3   OH253149   2.280   5.282   4.179 -0.1576  0.7218  0.5340
10553TIP3    H153150   2.204   5.332   4.211  0.1713  0.0796  2.4581
10553TIP3    H253151   2.242   5.211   4.128 -0.9129  0.0762  1.9459
10554TIP3   OH253152   5.021   4.359   4.741  0.1802  0.0123  0.4485
10554TIP3    H153153   4.938   4.336   4.697 -0.1493  0.4790  0.8183
10554TIP3    H253154   5.086   4.304   4.698 -0.3419 -0.4571  0.2323
10555TIP3   OH253155   0.254   0.861  13.461 -0.2234  0.0383  0.2251
10555TIP3    H153156   0.285   0.796  13.399  0.4369  1.3804 -0.9196
10555TIP3    H253157   0.165   0.883  13.432 -0.5517 -0.5280  0.7754
10556TIP3   OH253158   4.622   6.834   3.671 -0.0374 -0.5427 -0.1932
10556TIP3    H153159   4.614   6.792   3.585 -2.2156 -0.9183  0.1099
10556TIP3    H253160   4.560   6.785   3.726  0.6413  0.2726  1.3521
10557TIP3   OH253161   5.452   6.296  14.382 -0.2029  0.4077 -0.0864
10557TIP3    H153162   5.502   6.260  14.309 -0.5505  0.7698 -0.5054
10557TIP3    H253163   5.379   6.342  14.341 -0.8371 -0.0374  0.5130
10558TIP3   OH253164   6.301   5.272  11.295  0.0279  0.1002 -0.4478
10558TIP3    H153165   6.210   5.259  11.267 -0.2214  0.0346  0.3869
10558TIP3    H253166   6.303   5.360  11.331  0.3373  0.1535 -0.5881
10559TIP3   OH253167   0.662   5.386  10.883 -0.0085  0.4474  0.0497
10559TIP3    H153168   0.597   5.419  10.821  1.0135  1.5905 -0.4509
10559TIP3    H253169   0.678   5.459  10.943  2.3617  0.9953 -1.1337
10560TIP3   OH253170   5.454   5.993   2.192 -0.2871  0.7074  0.0239
10560TIP3    H153171   5.449   5.947   2.108  0.8328  0.1421  0.2456
10560TIP3    H253172   5.411   6.077   2.176 -0.6910  0.3361 -0.9192
10561TIP3   OH253173   1.653   6.207  11.009  0.5128  0.8049 -0.0155
10561TIP3    H153174   1.675   6.289  11.054  1.6314  1.0076 -0.8775
10561TIP3    H253175   1.690   6.217  10.922  1.9520 -1.1913  0.2915
10562TIP3   OH253176   2.585   1.298   0.927 -0.0489 -0.0920  0.5605
10562TIP3    H153177   2.511   1.319   0.983 -0.3500 -0.3256  0.2565
10562TIP3    H253178   2.607   1.207   0.948  1.2432  0.4781  1.8672
10563TIP3   OH253179   5.878   5.419  15.063 -0.2561  0.3156 -0.0691
10563TIP3    H153180   5.829   5.375  14.994 -1.0581  0.9432  0.0924
10563TIP3    H253181   5.813   5.471  15.110 -0.1349 -1.5027  2.3507
10564TIP3   OH253182   2.314   2.315   2.800  0.1239  0.5006  0.1464
10564TIP3    H153183   2.304   2.234   2.851 -0.1419 -1.1851 -2.3848
10564TIP3    H253184   2.235   2.320   2.746  1.2526  1.0052 -1.5675
10565TIP3   OH253185   2.711   1.970   4.977  0.5221 -0.2781 -0.1251
10565TIP3    H153186   2.772   2.030   5.021 -1.1194  1.2394  0.1527
10565TIP3    H253187   2.731   1.980   4.884  0.5575  0.3728 -0.0528
10566TIP3   OH253188   3.357   2.857  15.107  0.1009  0.4066 -0.0450
10566TIP3    H153189   3.401   2.927  15.155 -2.0410  0.3664  2.1689
10566TIP3    H253190   3.267   2.888  15.098  0.0098 -0.3727 -2.6194
10567TIP3   OH253191   4.167   2.048   3.179 -0.7299 -0.2164  0.2573
10567TIP3    H153192   4.216   2.083   3.254 -0.4822 -0.6968  0.3211
10567TIP3    H253193   4.217   1.971   3.151 -1.7392 -1.0385  0.6668
10568TIP3   OH253194   0.546   4.997  16.899  0.8472 -0.1024  0.2247
10568TIP3    H153195   0.540   5.067  16.834  0.1047 -0.1936  0.1818
10568TIP3    H253196   0.607   5.030  16.965  1.2159  0.1995 -0.2580
10569TIP3   OH253197   6.841   2.541   5.178  0.3214 -0.2566  0.4197
10569TIP3    H153198   6.918   2.599   5.173  0.4136 -0.3725  0.5014
10569TIP3    H253199   6.788   2.578   5.248 -0.7281  1.0701 -0.9874
10570TIP3   OH253200   4.517   0.859   3.876 -0.0175  0.0473 -0.9962
10570TIP3    H153201   4.557   0.825   3.796 -0.2272 -1.3047 -0.5503
10570TIP3    H253202   4.576   0.833   3.946 -1.1202 -1.0671 -0.4419
10571TIP3   OH253203   3.212   4.438  11.158  0.2121 -0.0758  0.4739
10571TIP3    H153204   3.250   4.431  11.071  2.3122  1.4995  1.2012
10571TIP3    H253205   3.267   4.383  11.213  1.5806  2.1895  1.5308
10572TIP3   OH253206   0.637   4.739   1.585  0.3612  0.3037  0.2585
10572TIP3    H153207   0.685   4.668   1.542  0.4689 -0.0016  0.8682
10572TIP3    H253208   0.549   4.735   1.548  0.6612  0.5593 -0.5135
10573TIP3   OH253209   3.944   2.295   0.175  0.1325  0.3130  0.0654
10573TIP3    H153210   3.951   2.298   0.270  0.3761  0.8021  0.0349
10573TIP3    H253211   3.870   2.237   0.158 -1.1544  1.7442  0.5843
10574TIP3   OH253212   3.666   2.628   1.141  0.1650  0.6234  0.3043
10574TIP3    H153213   3.610   2.607   1.067  1.0717  0.1920 -0.2838
10574TIP3    H253214   3.741   2.568   1.133  0.2410  0.5023  1.6241
10575TIP3   OH253215   0.153   1.092  11.662 -0.9663  0.3076 -0.3043
10575TIP3    H153216   0.150   1.187  11.656 -0.6279  0.3041 -0.6048
10575TIP3    H253217   0.141   1.062  11.571  1.3150  0.1473 -0.6146
10576TIP3   OH253218   6.694   2.578  10.845  0.1910 -0.0415  0.2477
10576TIP3    H153219   6.608   2.566  10.807  0.1478 -1.0294  0.6472
10576TIP3    H253220   6.678   2.630  10.924  0.4721  3.6361 -1.8872
10577TIP3   OH253221   1.515   3.909  11.239  0.0011  0.7311 -0.2999
10577TIP3    H153222   1.494   3.883  11.329 -1.3988  0.1925 -0.7540
10577TIP3    H253223   1.605   3.878  11.226 -0.1663 -0.1911  0.5524
10578TIP3   OH253224   1.037   6.703  16.734 -0.1375 -0.2043 -0.3397
10578TIP3    H153225   1.061   6.788  16.697 -0.1418  0.1228  0.4043
10578TIP3    H253226   0.994   6.658  16.662 -0.2120  0.4575 -0.7205
10579TIP3   OH253227   4.887   6.571   2.938 -0.1893  0.4622  0.2614
10579TIP3    H153228   4.801   6.535   2.915 -0.1992 -0.9527  2.3168
10579TIP3    H253229   4.922   6.510   3.003  3.4813 -0.4382 -2.2341
10580TIP3   OH253230   6.579   4.353   5.366  0.1080  0.1086  0.6786
10580TIP3    H153231   6.555   4.266   5.335  0.5740  0.0522  0.4611
10580TIP3    H253232   6.521   4.369   5.440 -1.7073  0.6433 -0.7777
10581TIP3   OH253233   5.898   6.548   1.342  0.0946  0.1373 -0.5495
10581TIP3    H153234   5.975   6.575   1.292  0.5894 -2.3710 -1.2753
10581TIP3    H253235   5.824   6.567   1.284 -0.0468  3.5223  0.5553
10582TIP3   OH253236   3.023   6.539  12.137  0.6992 -0.0228 -0.4758
10582TIP3    H153237   3.075   6.579  12.207 -0.6616  1.0112 -0.0016
10582TIP3    H253238   3.011   6.610  12.074 -1.7546  0.3803  0.3673
10583TIP3   OH253239   1.035   3.935   3.749 -0.6120 -0.4813 -0.5141
10583TIP3    H153240   0.969   3.957   3.815 -1.9192 -2.9796 -0.8628
10583TIP3    H253241   1.040   3.840   3.752  0.9421 -0.5213 -2.4955
10584TIP3   OH253242   3.532   3.414  17.053 -0.1002  0.2869 -0.2111
10584TIP3    H153243   3.534   3.332  17.102 -1.2201  0.2854 -0.1496
10584TIP3    H253244   3.485   3.475  17.110 -0.7735  0.4862 -0.9652
10585TIP3   OH253245   6.147   4.504  10.654  0.0272  0.4243 -0.2535
10585TIP3    H153246   6.149   4.525  10.561  0.7461  0.6309 -0.1974
10585TIP3    H253247   6.207   4.567  10.694 -0.9128  0.8867  0.4642
10586TIP3   OH253248   0.773   5.730   5.683 -0.4726 -0.1366  0.0547
10586TIP3    H153249   0.801   5.640   5.697  0.6020 -0.0519 -1.2993
10586TIP3    H253250   0.683   5.722   5.650 -0.1715 -0.7696 -0.6493
10587TIP3   OH253251   3.127   1.254   3.606 -0.4450  0.2513  0.1007
10587TIP3    H153252   3.203   1.282   3.556 -1.1703  0.2218 -1.0531
10587TIP3    H253253   3.142   1.161   3.622  0.2239  0.4618  0.7571
10588TIP3   OH253254   4.923   1.331  12.507 -0.1941 -0.2957  0.3632
10588TIP3    H153255   4.855   1.282  12.554 -0.3436 -0.6479 -0.2065
10588TIP3    H253256   5.001   1.323  12.562 -0.6982  0.4218  1.2027
10589TIP3   OH253257   1.914   4.528  13.883 -0.3744 -0.4870 -0.3078
10589TIP3    H153258   1.940   4.468  13.813 -2.2178 -1.7464  0.0231
10589TIP3    H253259   1.894   4.471  13.957 -0.1021  0.7141  0.7219
10590TIP3   OH253260   2.821   1.528   4.128  0.3698  0.0970  0.5034
10590TIP3    H153261   2.790   1.440   4.110 -0.0121  0.4849 -0.8543
10590TIP3    H253262   2.791   1.547   4.217 -0.9474 -0.5411  0.2112
10591TIP3   OH253263   1.568   4.332  14.927  0.0618  0.6432  0.2396
10591TIP3    H153264   1.580   4.416  14.882  0.6618  0.3839 -0.1035
10591TIP3    H253265   1.639   4.277  14.894 -1.4090 -0.6155 -1.0034
10592TIP3   OH253266   0.075   6.317  16.020  0.1273 -0.1840  0.3349
10592TIP3    H153267   0.068   6.288  16.111 -1.0206 -1.4253 -0.1023
10592TIP3    H253268   0.053   6.410  16.023 -1.3559 -0.5214  1.1736
10593TIP3   OH253269   4.835   2.673   0.572 -0.5300  0.2067 -0.6730
10593TIP3    H153270   4.767   2.648   0.510  0.7088 -0.0159 -2.0101
10593TIP3    H253271   4.832   2.769   0.575 -1.6040  0.1690  0.1491
10594TIP3   OH253272   4.748   2.021  13.749  0.0331 -0.5095 -0.1788
10594TIP3    H153273   4.727   2.053  13.836 -0.0986 -0.0972 -0.3643
10594TIP3    H253274   4.707   1.934  13.745  0.6316 -0.8306  0.4190
10595TIP3   OH253275   6.252   6.018   4.073 -0.3470  0.2101 -0.1965
10595TIP3    H153276   6.277   5.991   3.985 -2.9311  3.2278 -2.0635
10595TIP3    H253277   6.306   6.095   4.091 -0.8928  0.5084  0.2023
10596TIP3   OH253278   1.458   0.391   0.450  0.3900  0.1828  0.4933
10596TIP3    H153279   1.438   0.300   0.470 -1.0945  0.6018  1.0159
10596TIP3    H253280   1.385   0.421   0.397 -0.9282  2.0123  3.1416
10597TIP3   OH253281   0.258   5.994  15.615 -0.3117 -0.0790 -0.3654
10597TIP3    H153282   0.235   6.087  15.626 -2.7521 -0.3354 -2.3940
10597TIP3    H253283   0.176   5.947  15.630  0.6440 -1.8508 -0.4353
10598TIP3   OH253284   3.839   4.510  13.987  0.0230  0.1202  0.3171
10598TIP3    H153285   3.769   4.571  13.967  1.4496  1.7720  0.0803
10598TIP3    H253286   3.900   4.518  13.914  0.9067 -0.5522  0.9548
10599TIP3   OH253287   5.684   5.161   3.535 -0.3658  0.3272 -0.4893
10599TIP3    H153288   5.773   5.167   3.572 -0.7985 -0.5810  0.7597
10599TIP3    H253289   5.669   5.068   3.524 -1.0905  0.4891 -0.9207
10600TIP3   OH253290   1.031   3.708  12.597  0.5012 -0.0329 -0.0671
10600TIP3    H153291   1.001   3.769  12.665 -0.3280 -0.6351  0.1210
10600TIP3    H253292   1.004   3.622  12.628  0.8030 -0.3977 -0.7932
10601TIP3   OH253293   1.737   3.239  13.153  0.2220 -0.2687  0.6599
10601TIP3    H153294   1.777   3.155  13.129  1.1534  0.6000 -1.0681
10601TIP3    H253295   1.688   3.220  13.233 -0.6916 -2.7625 -0.3736
10602TIP3   OH253296   3.743   6.228  14.132  0.6165  0.1816 -0.3447
10602TIP3    H153297   3.782   6.212  14.218  0.6884 -0.6683 -0.5305
10602TIP3    H253298   3.810   6.276  14.084  0.8810 -0.0327 -0.1921
10603TIP3   OH253299   0.233   6.369   6.043 -0.2162 -0.0914 -0.0618
10603TIP3    H153300   0.201   6.459   6.052 -1.5473 -0.3713 -1.4968
10603TIP3    H253301   0.241   6.337   6.133 -1.7681  0.7797  0.4228
10604TIP3   OH253302   2.972   5.068   1.055 -0.6927 -0.1008 -0.5231
10604TIP3    H153303   2.977   5.039   1.146 -1.8539 -0.8712 -0.6824
10604TIP3    H253304   3.062   5.068   1.024 -0.1707  1.1419  0.9065
10605TIP3   OH253305   3.693   3.657  14.485  0.4270  0.2295 -0.0464
10605TIP3    H153306   3.782   3.690  14.471  0.6604 -0.6332 -0.6694
10605TIP3    H253307   3.698   3.565  14.461 -0.3640 -0.1194  1.0540
10606TIP3   OH253308   5.459   2.532   0.167 -0.8010 -0.1188 -0.0121
10606TIP3    H153309   5.434   2.610   0.216 -0.4780 -0.5453  0.8618
10606TIP3    H253310   5.530   2.493   0.219  0.4339  0.0889 -1.4712
10607TIP3   OH253311   0.570   5.512  14.443 -0.0165 -0.2214 -0.2297
10607TIP3    H153312   0.489   5.559  14.459  0.2195  0.0014  0.3396
10607TIP3    H253313   0.581   5.456  14.521 -1.3761 -2.8312 -1.7616
10608TIP3   OH253314   4.426   1.052   5.993  0.0777  0.0304 -0.0353
10608TIP3    H153315   4.353   0.990   5.990 -0.0927  0.2406 -0.2810
10608TIP3    H253316   4.471   1.040   5.910  1.0271 -0.9346  0.5890
10609TIP3   OH253317   2.470   5.908  15.814  0.9261  0.0539  0.1088
10609TIP3    H153318   2.537   5.897  15.881  2.1552  0.1324 -1.0494
10609TIP3    H253319   2.496   5.847  15.745  1.1401  1.7232 -1.3511
10610TIP3   OH253320   6.030   3.381  16.102  0.0372  0.4211 -0.6037
10610TIP3    H153321   6.104   3.378  16.041 -1.2144 -4.2056 -2.3413
10610TIP3    H253322   6.058   3.329  16.177 -0.3106  1.5973  0.3791
10611TIP3   OH253323   1.871   2.326   3.540 -0.0928 -0.2235  0.3066
10611TIP3    H153324   1.785   2.285   3.532 -0.8688  1.2223  0.8420
10611TIP3    H253325   1.859   2.394   3.607  1.0374  1.0830 -0.7599
10612TIP3   OH253326   1.324   6.667   3.234  0.0893  0.3242 -0.3001
10612TIP3    H153327   1.281   6.581   3.233  0.1982  0.2597  0.3709
10612TIP3    H253328   1.285   6.713   3.160 -0.7080  0.0514 -0.0630
10613TIP3   OH253329   2.293   4.526  15.066 -0.2820 -0.2910  1.0231
10613TIP3    H153330   2.246   4.461  15.118 -1.3283 -0.5855 -0.2354
10613TIP3    H253331   2.374   4.483  15.040 -1.2036 -1.3394 -0.2435
10614TIP3   OH253332   4.226   3.307  14.982 -0.3632  0.6442  0.1377
10614TIP3    H153333   4.275   3.389  14.976 -0.0896  0.3582 -3.3214
10614TIP3    H253334   4.292   3.239  14.978 -0.7896  0.2719 -0.9418
10615TIP3   OH253335   6.098   6.426  17.005 -0.1070 -0.2448 -0.3000
10615TIP3    H153336   6.100   6.363  16.933  0.9234 -1.6717  0.8940
10615TIP3    H253337   6.158   6.495  16.978  1.4527 -1.5068 -0.2397
10616TIP3   OH253338   2.949   5.958  15.657 -0.1554  0.2876 -0.2511
10616TIP3    H153339   3.016   5.992  15.597 -0.3770 -0.3448 -0.8864
10616TIP3    H253340   2.979   5.869  15.677 -0.2649  0.3750  0.3142
10617TIP3   OH253341   2.578   3.437  16.764 -0.1836 -0.0101 -0.1586
10617TIP3    H153342   2.605   3.385  16.839 -1.0623  1.3860  1.1866
10617TIP3    H253343   2.494   3.399  16.737 -0.2386 -0.0425  0.0567
10618TIP3   OH253344   2.072   6.828   2.351 -0.1775  0.3534 -0.6930
10618TIP3    H153345   2.083   6.868   2.437 -1.3678  0.0004 -0.3631
10618TIP3    H253346   2.160   6.830   2.312  0.4464  0.1881  0.6636
10619TIP3   OH253347   5.321   5.139  13.497  0.2380 -0.2497 -0.3414
10619TIP3    H153348   5.228   5.133  13.472 -0.0182 -0.9660  0.7453
10619TIP3    H253349   5.331   5.229  13.529  0.0142 -0.0593 -0.7876
10620TIP3   OH253350   3.591   0.922  12.236 -0.2451 -0.2755  0.0098
10620TIP3    H153351   3.536   0.846  12.219  1.4834 -1.7681  0.7928
10620TIP3    H253352   3.552   0.964  12.312  0.2017 -1.8746  1.1647
10621TIP3   OH253353   3.804   0.119   6.514 -0.1016  0.4024 -0.4900
10621TIP3    H153354   3.769   0.035   6.486 -0.5561  0.8442 -1.2950
10621TIP3    H253355   3.898   0.111   6.504  0.0460 -0.6362  1.2252
10622TIP3   OH253356   4.963   3.647   2.232 -0.2605  0.0393  0.1151
10622TIP3    H153357   4.909   3.617   2.159 -0.5552 -0.6578  0.6080
10622TIP3    H253358   4.914   3.719   2.272 -0.4461 -0.0682  0.0782
10623TIP3   OH253359   6.162   1.507   0.752 -0.0974 -0.5134  0.2407
10623TIP3    H153360   6.109   1.559   0.812  0.8222  0.8314 -0.0537
10623TIP3    H253361   6.252   1.522   0.781  0.2745 -0.9083 -0.6646
10624TIP3   OH253362   0.116   1.520  12.405  0.1532 -0.5507 -0.1600
10624TIP3    H153363   0.118   1.599  12.459  0.8832 -0.3304 -0.4873
10624TIP3    H253364   0.186   1.534  12.341  0.4481 -1.5680 -0.0744
10625TIP3   OH253365   2.503   1.321  13.032 -0.2638  0.9600 -0.4726
10625TIP3    H153366   2.528   1.269  13.109  0.3866  0.2702 -1.1420
10625TIP3    H253367   2.418   1.285  13.006  0.2138  0.1712 -0.9712
10626TIP3   OH253368   2.836   0.109  13.047 -0.4617 -0.1023 -0.3251
10626TIP3    H153369   2.927   0.105  13.017 -0.2740  1.1193  0.0289
10626TIP3    H253370   2.833   0.051  13.123  1.0156  2.6330  2.0137
10627TIP3   OH253371   5.424   0.691  16.394 -0.2058 -0.0825  0.5223
10627TIP3    H153372   5.517   0.713  16.403  0.5073 -1.8518 -1.4983
10627TIP3    H253373   5.400   0.653  16.478  1.5138 -1.5189  0.4176
10628TIP3   OH253374   1.762   3.846   3.630  0.0408  0.3979 -0.4044
10628TIP3    H153375   1.705   3.840   3.554  0.8642  0.4945 -1.0490
10628TIP3    H253376   1.707   3.821   3.704 -0.6854 -0.0335 -1.0774
10629TIP3   OH253377   4.751   5.444  14.468 -0.2424  0.8558  0.2656
10629TIP3    H153378   4.726   5.352  14.468  2.4785  0.0097 -0.6946
10629TIP3    H253379   4.681   5.488  14.420 -2.6885 -0.2674  2.5672
10630TIP3   OH253380   1.252   5.809  16.416 -0.1991  0.1868  0.0954
10630TIP3    H153381   1.312   5.793  16.490  0.9289 -1.2436 -1.0749
10630TIP3    H253382   1.299   5.775  16.340 -1.8261  0.5894 -1.1228
10631TIP3   OH253383   3.905   4.923  16.480 -0.6845  0.1486  0.2634
10631TIP3    H153384   3.820   4.963  16.495 -1.5695 -1.4532 -0.2974
10631TIP3    H253385   3.897   4.880  16.395  0.4739 -0.5497  0.4846
10632TIP3   OH253386   2.975   6.003   3.283 -0.1584 -0.6355 -0.2303
10632TIP3    H153387   2.910   5.934   3.296  0.2804 -1.1749 -0.8457
10632TIP3    H253388   2.929   6.084   3.307 -0.8004 -1.0943  0.1150
10633TIP3   OH253389   3.878   4.723  16.001  0.2949 -0.5126  0.5898
10633TIP3    H153390   3.957   4.671  15.984  1.1415  0.9975 -0.2704
10633TIP3    H253391   3.806   4.669  15.969  1.1195 -1.2858 -0.0009
10634TIP3   OH253392   5.763   4.681   6.353 -0.4140  0.4936 -0.0323
10634TIP3    H153393   5.723   4.659   6.437  1.6431 -0.0289  0.8788
10634TIP3    H253394   5.763   4.599   6.304  1.6841 -0.1915  0.9634
10635TIP3   OH253395   3.018   3.530   6.046 -0.4931 -0.1274  0.6790
10635TIP3    H153396   3.035   3.593   6.115 -2.0839 -0.1129  1.1046
10635TIP3    H253397   3.007   3.447   6.091  0.9755 -0.6278  0.1761
10636TIP3   OH253398   3.305   1.057   1.282 -0.6777  0.1720 -0.9213
10636TIP3    H153399   3.244   0.983   1.293 -0.5594  0.1638 -0.2710
10636TIP3    H253400   3.260   1.116   1.222 -1.6077  0.4544  0.0261
10637TIP3   OH253401   0.524   5.071  12.381 -0.3206  0.0529 -0.1392
10637TIP3    H153402   0.583   5.015  12.332  0.1854  0.7439 -0.3356
10637TIP3    H253403   0.544   5.160  12.351 -0.7475  0.3883  0.5286
10638TIP3   OH253404   2.107   5.532   4.212 -0.1509  0.0502 -0.3136
10638TIP3    H153405   2.103   5.623   4.184 -1.0462  0.2311  0.3599
10638TIP3    H253406   2.035   5.523   4.274  0.1002 -1.0467 -0.1645
10639TIP3   OH253407   6.574   1.640   0.441 -0.2048 -0.0129  0.1367
10639TIP3    H153408   6.515   1.582   0.392  0.5033 -0.4015 -0.2752
10639TIP3    H253409   6.519   1.679   0.509 -0.7747 -0.9165  0.2090
10640TIP3   OH253410   5.242   1.020   1.804  0.0522 -0.2755 -0.0032
10640TIP3    H153411   5.187   0.957   1.757 -0.4479 -0.5702  0.9572
10640TIP3    H253412   5.252   0.983   1.892  1.4163  0.0022 -0.0103
10641TIP3   OH253413   1.827   1.543   2.338 -0.3811  0.0123 -0.1549
10641TIP3    H153414   1.754   1.606   2.330  1.4590  2.2293 -0.7492
10641TIP3    H253415   1.892   1.575   2.275  0.5227 -2.7975 -0.7812
10642TIP3   OH253416   6.355   3.003  13.986  0.5158  0.3958  0.4778
10642TIP3    H153417   6.361   3.093  14.016 -0.5011  0.2161  1.2992
10642TIP3    H253418   6.384   3.005  13.895 -0.6042  1.7619  0.1231
10643TIP3   OH253419   6.678   5.898  11.107  0.3349  0.0738 -0.3665
10643TIP3    H153420   6.608   5.835  11.126 -0.4724  1.0194 -0.1074
10643TIP3    H253421   6.724   5.860  11.033  0.5069 -1.3140  0.4120
10644TIP3   OH253422   1.456   4.544  16.845 -0.2032  0.5913 -0.1049
10644TIP3    H153423   1.471   4.571  16.754 -0.9223  1.2901 -0.0300
10644TIP3    H253424   1.530   4.487  16.865 -0.5372 -0.3699 -1.4347
10645TIP3   OH253425   1.930   4.689  12.489 -0.0930  0.0686 -0.0008
10645TIP3    H153426   1.847   4.734  12.476  0.3953  1.1465  0.4687
10645TIP3    H253427   1.921   4.645  12.573 -0.1223  0.3397  0.1383
10646TIP3   OH253428   4.272   6.810   0.653 -0.0932  0.3781  0.2729
10646TIP3    H153429   4.320   6.830   0.572  3.3533 -0.6835  1.8588
10646TIP3    H253430   4.276   6.892   0.703 -0.2361  0.3775  0.2848
10647TIP3   OH253431   6.332   1.901  15.772 -0.3374 -0.6047 -0.2346
10647TIP3    H153432   6.425   1.897  15.793 -0.3255 -1.9068 -0.4471
10647TIP3    H253433   6.326   1.863  15.685 -1.1326 -1.0125 -0.0063
10648TIP3   OH253434   5.347   5.393  15.146 -0.3600 -0.7228  0.2697
10648TIP3    H153435   5.356   5.440  15.063  0.4956  0.2345  0.8919
10648TIP3    H253436   5.426   5.339  15.152 -0.9476 -1.6592 -0.0441
10649TIP3   OH253437   3.857   6.038   5.463 -0.4660 -0.0845  0.3028
10649TIP3    H153438   3.936   6.077   5.502 -0.3298 -0.5583  0.5056
10649TIP3    H253439   3.888   5.960   5.419 -0.9436 -0.7649  1.1325
10650TIP3   OH253440   0.112   5.600   1.082 -0.3870 -0.2226  0.1550
10650TIP3    H153441   0.036   5.648   1.051  0.1046  0.7963  0.5040
10650TIP3    H253442   0.139   5.547   1.007 -0.1580  1.0364 -0.6858
10651TIP3   OH253443   6.366   1.976  11.754 -0.2276 -0.6676  0.6969
10651TIP3    H153444   6.306   1.983  11.829  2.4425  1.9046  2.8002
10651TIP3    H253445   6.396   1.886  11.756 -2.3065 -1.4200  0.8966
10652TIP3   OH253446   3.612   3.142  14.139  0.2965 -0.0112 -0.4742
10652TIP3    H153447   3.679   3.149  14.070 -1.1136  1.3198 -1.7671
10652TIP3    H253448   3.555   3.217  14.125 -0.8693 -0.5168  1.2840
10653TIP3   OH253449   1.769   0.098   4.583 -0.0016  0.0008  0.4374
10653TIP3    H153450   1.805   0.052   4.507 -1.5171 -0.6145  0.0425
10653TIP3    H253451   1.730   0.177   4.546 -0.4113 -0.1166  0.6070
10654TIP3   OH253452   3.327   6.016  14.352 -0.7723 -0.3056 -0.8319
10654TIP3    H153453   3.338   5.994  14.445 -1.6785  0.3535 -0.5501
10654TIP3    H253454   3.392   6.084  14.336 -1.4076  0.4383 -0.3452
10655TIP3   OH253455   6.117   5.821  17.090 -0.5305 -0.1307  0.1805
10655TIP3    H153456   6.195   5.858  17.132 -0.0805 -1.2907  0.3941
10655TIP3    H253457   6.148   5.743  17.044 -1.7530 -1.3370  1.2987
10656TIP3   OH253458   3.621   2.244   5.646 -0.2144  0.3956 -0.1157
10656TIP3    H153459   3.538   2.269   5.605  0.4727  1.4998 -0.8746
10656TIP3    H253460   3.595   2.195   5.724 -1.5676 -1.5019 -1.6521
10657TIP3   OH253461   1.621   1.569   0.217 -0.0345 -0.1706 -0.0720
10657TIP3    H153462   1.701   1.622   0.218 -0.3523  0.3103  0.9745
10657TIP3    H253463   1.619   1.531   0.130  0.8626  0.5425 -0.4210
10658TIP3   OH253464   2.542   0.750   4.715  0.4096 -0.3601 -0.0396
10658TIP3    H153465   2.606   0.756   4.786  0.5563 -3.5484  0.2323
10658TIP3    H253466   2.594   0.758   4.635  0.7297 -0.1527  0.1873
10659TIP3   OH253467   4.522   4.304   5.087 -0.3824  0.3116  0.1809
10659TIP3    H153468   4.604   4.289   5.134  0.2176  3.0079  0.1594
10659TIP3    H253469   4.548   4.314   4.996 -0.4715  2.6349  0.3636
10660TIP3   OH253470   2.846   6.083  14.511 -0.5180 -0.0459  0.2503
10660TIP3    H153471   2.917   6.057  14.453 -0.3536  2.6629 -0.8838
10660TIP3    H253472   2.853   6.178  14.519 -4.5160  0.5396 -0.6716
10661TIP3   OH253473   0.528   1.462  16.837 -0.1596 -0.3327  0.4636
10661TIP3    H153474   0.618   1.428  16.838  0.2200  0.6231  1.7037
10661TIP3    H253475   0.509   1.477  16.745  0.5432 -1.5877  0.0985
10662TIP3   OH253476   4.646   3.548   2.329  0.2845 -0.5244 -0.3126
10662TIP3    H153477   4.652   3.470   2.384 -1.2246 -0.2132  0.3669
10662TIP3    H253478   4.632   3.620   2.392 -0.3585 -0.0045 -1.0287
10663TIP3   OH253479   2.156   5.403  12.804 -0.1607  0.3657 -0.0286
10663TIP3    H153480   2.104   5.473  12.845  0.4717  0.0940  1.3013
10663TIP3    H253481   2.191   5.443  12.724 -0.3377  1.3799  0.3800
10664TIP3   OH253482   1.289   1.535  13.729 -0.1064  0.0641  0.2508
10664TIP3    H153483   1.245   1.553  13.812 -0.1458  1.0153  0.0331
10664TIP3    H253484   1.220   1.505  13.671  0.0686 -1.5043  0.8126
10665TIP3   OH253485   4.462   4.051  15.432 -0.0661  0.0772 -0.0620
10665TIP3    H153486   4.503   4.039  15.346  0.9926  0.3323  0.3898
10665TIP3    H253487   4.390   4.111  15.416  0.8795  1.1174 -0.5838
10666TIP3   OH253488   4.575   1.431   1.778  0.3362 -0.1114 -0.5413
10666TIP3    H153489   4.506   1.379   1.820  0.6236 -1.8355 -2.0728
10666TIP3    H253490   4.639   1.446   1.847  0.5719 -2.4462 -0.1563
10667TIP3   OH253491   0.000   5.853   3.942 -0.2704 -0.2559  0.2137
10667TIP3    H153492   0.066   5.822   3.879  1.4816  1.0484  1.3144
10667TIP3    H253493  -0.064   5.899   3.889  0.7778  0.1918 -0.7072
10668TIP3   OH253494   6.411   2.173  12.633  0.3254 -0.1092 -0.2693
10668TIP3    H153495   6.361   2.255  12.630  0.5594  0.0674  0.4205
10668TIP3    H253496   6.406   2.139  12.544 -1.6468 -0.4797 -0.0626
10669TIP3   OH253497   5.242   2.151   0.996 -0.4293 -0.1524 -0.5567
10669TIP3    H153498   5.335   2.142   0.977 -0.6563 -0.6990 -1.5078
10669TIP3    H253499   5.219   2.238   0.964 -0.0894  0.3197  0.4359
10670TIP3   OH253500   3.573   1.930  13.952 -0.3162  0.2774 -0.2217
10670TIP3    H153501   3.545   1.978  13.874 -0.3048 -0.2270 -0.5444
10670TIP3    H253502   3.518   1.851  13.952 -2.3297  1.5542  1.8406
10671TIP3   OH253503   5.570   5.857   5.318 -0.3756 -0.3727 -0.3859
10671TIP3    H153504   5.551   5.849   5.411 -1.2103 -0.2741 -0.5422
10671TIP3    H253505   5.630   5.931   5.311 -1.1255  0.2692 -0.0358
10672TIP3   OH253506   1.180   4.280   4.045  0.1948  0.1482 -0.2048
10672TIP3    H153507   1.178   4.357   4.102  0.2747 -0.6088  0.8701
10672TIP3    H253508   1.115   4.297   3.978  1.3240  1.8351 -0.9364
10673TIP3   OH253509   3.917   5.701  14.958  0.3865 -0.3277 -0.2526
10673TIP3    H153510   3.985   5.656  14.908  0.6755  1.3645 -1.4586
10673TIP3    H253511   3.942   5.689  15.049  1.3898 -1.1298 -0.6245
10674TIP3   OH253512   5.039   3.649  11.963  0.3632 -0.0639  0.0863
10674TIP3    H153513   4.974   3.708  11.925  1.1344  1.1775  0.6555
10674TIP3    H253514   5.021   3.651  12.057  0.3572 -0.7941  0.1064
10675TIP3   OH253515   2.134   6.757  13.473 -0.3008  0.2869 -0.3550
10675TIP3    H153516   2.094   6.828  13.523  0.4432  1.3488 -1.2185
10675TIP3    H253517   2.082   6.753  13.392  0.2066  0.4702 -0.6980
10676TIP3   OH253518   6.062   4.243   0.414  0.1100  0.2933  0.4496
10676TIP3    H153519   6.068   4.263   0.320 -1.2923  1.2946  0.5522
10676TIP3    H253520   5.979   4.196   0.423  1.6641 -2.6381  0.7685
10677TIP3   OH253521   0.496   3.723  14.486 -0.1703  0.5254  0.0552
10677TIP3    H153522   0.415   3.767  14.461 -0.2764  0.2326 -0.1167
10677TIP3    H253523   0.557   3.794  14.503 -0.4233  0.7451  0.0540
10678TIP3   OH253524   3.645   6.610   1.464  0.4114  0.2696 -0.3675
10678TIP3    H153525   3.683   6.635   1.548 -0.0921 -1.3111  0.3715
10678TIP3    H253526   3.700   6.538   1.434 -1.1278 -1.1465  0.0675
10679TIP3   OH253527   5.225   5.374   4.400  0.4307 -0.2417 -0.1466
10679TIP3    H153528   5.162   5.437   4.435  0.3066 -1.3978  1.8982
10679TIP3    H253529   5.191   5.351   4.313 -0.8162  0.6988  0.0705
10680TIP3   OH253530   2.763   5.878   3.852  1.0624  0.1747 -0.0903
10680TIP3    H153531   2.711   5.953   3.823  1.1726  0.1957 -0.2325
10680TIP3    H253532   2.852   5.912   3.859  1.1366  0.0215 -0.2888
10681TIP3   OH253533   1.698   6.609   5.293  0.1390 -0.7050  0.3490
10681TIP3    H153534   1.668   6.696   5.269  0.0439 -0.8283  0.0226
10681TIP3    H253535   1.662   6.595   5.381  2.2959  0.6326  1.5376
10682TIP3   OH253536   4.654   3.949  12.852 -0.4002  0.0719  0.2810
10682TIP3    H153537   4.746   3.952  12.878  0.2035 -1.1257 -1.5731
10682TIP3    H253538   4.625   3.862  12.877 -1.1079  0.5055  1.0177
10683TIP3   OH253539   3.050   4.319  11.940  0.0799 -0.0626  0.6958
10683TIP3    H153540   3.020   4.292  12.026 -0.3871 -1.0185  0.2508
10683TIP3    H253541   2.970   4.343  11.893  0.3223  0.3723  0.5002
10684TIP3   OH253542   2.652   1.848   3.014  0.0977 -0.2168  0.9009
10684TIP3    H153543   2.667   1.754   3.015  1.6594 -0.0466 -0.7664
10684TIP3    H253544   2.730   1.886   3.054 -0.2888  0.3884  1.0980
10685TIP3   OH253545   0.117   5.767  14.953  0.2654  0.2221 -1.0383
10685TIP3    H153546   0.111   5.862  14.967  0.8210  0.3524 -1.6182
10685TIP3    H253547   0.090   5.728  15.036  1.3355  0.9094 -0.3488
10686TIP3   OH253548   3.061   0.147  14.519 -0.0391 -0.4710  0.2536
10686TIP3    H153549   3.068   0.054  14.543 -0.5732 -0.2868  1.1475
10686TIP3    H253550   3.146   0.184  14.541 -0.7923 -0.1118  2.7952
10687TIP3   OH253551   6.532   3.059  16.908 -0.7171  1.6942  0.1733
10687TIP3    H153552   6.445   3.099  16.903 -0.1790  2.8341 -0.4796
10687TIP3    H253553   6.518   2.968  16.880 -1.6416  1.9592 -0.2645
10688TIP3   OH253554   3.206   1.542   1.020 -0.3510 -0.2304  0.7850
10688TIP3    H153555   3.274   1.566   1.083  1.2050  1.7942 -1.4963
10688TIP3    H253556   3.187   1.450   1.038  0.5945  0.0389  3.6035
10689TIP3   OH253557   4.853   3.215  13.321  0.0288 -0.2795  0.1206
10689TIP3    H153558   4.807   3.285  13.273  0.3643 -0.2068 -0.0961
10689TIP3    H253559   4.945   3.229  13.301  0.2205  0.0489  1.1993
10690TIP3   OH253560   0.905   5.422   5.325 -0.2309  0.1092 -0.5758
10690TIP3    H153561   0.980   5.377   5.286 -0.6474  0.0652 -1.3486
10690TIP3    H253562   0.913   5.407   5.419 -0.0967 -1.1628 -0.7774
10691TIP3   OH253563   3.374   3.478   3.270  0.1035  0.0069  0.5876
10691TIP3    H153564   3.468   3.491   3.287  0.1233 -0.3367  0.7552
10691TIP3    H253565   3.336   3.468   3.357  0.2016 -1.7716  0.4551
10692TIP3   OH253566   3.556   1.257   5.481 -0.4915 -0.2763  0.1192
10692TIP3    H153567   3.526   1.190   5.420 -1.0442 -0.7535  0.8920
10692TIP3    H253568   3.504   1.335   5.458  0.3986  0.0058 -1.0040
10693TIP3   OH253569   1.957   4.861   0.648 -0.5376  0.1553 -0.1037
10693TIP3    H153570   1.929   4.870   0.739 -2.7310  0.0448 -0.7100
10693TIP3    H253571   2.041   4.908   0.644 -0.4868  0.3316  1.9034
10694TIP3   OH253572   1.023   1.024   3.504 -0.1090  0.2185  0.2172
10694TIP3    H153573   0.989   1.113   3.498 -0.1154  0.1710 -0.5433
10694TIP3    H253574   0.953   0.975   3.547 -1.5872 -0.1273 -2.3402
10695TIP3   OH253575   0.728   6.399  13.353 -0.5918  0.1027 -0.0464
10695TIP3    H153576   0.682   6.482  13.343 -1.2726 -0.0560  1.4547
10695TIP3    H253577   0.815   6.416  13.319 -0.6226  1.5465  0.5077
10696TIP3   OH253578   0.998   2.966  15.378  0.0895  0.1372  0.7024
10696TIP3    H153579   0.973   2.880  15.410  0.4577  0.3239  1.5255
10696TIP3    H253580   1.024   3.014  15.457  0.2148  0.8876  0.2150
10697TIP3   OH253581   3.296   1.088   2.824  0.2391  0.7126  0.0667
10697TIP3    H153582   3.323   1.007   2.780  0.0543  1.2334 -1.0102
10697TIP3    H253583   3.339   1.083   2.910  0.1950 -0.5481  0.0315
10698TIP3   OH253584   2.853   0.546  16.449  0.1669 -0.4443 -0.1026
10698TIP3    H153585   2.759   0.558  16.462 -0.1565 -1.6730 -1.0899
10698TIP3    H253586   2.868   0.454  16.470  1.7174  0.3801  2.9062
10699TIP3   OH253587   3.823   1.815   2.117 -0.2328  0.3488  0.1362
10699TIP3    H153588   3.841   1.734   2.069  2.7187  2.0495 -1.9402
10699TIP3    H253589   3.881   1.813   2.193  0.4939  0.8325 -0.3878
10700TIP3   OH253590   0.788   3.465  11.592  0.0818 -0.0863  0.1898
10700TIP3    H153591   0.703   3.423  11.580 -0.4850  1.0590  0.1696
10700TIP3    H253592   0.842   3.428  11.521 -1.0010  0.7460 -1.1135
10701TIP3   OH253593   5.270   0.821   0.162  0.0215 -0.0270 -0.1455
10701TIP3    H153594   5.248   0.877   0.236 -0.2829 -0.4766  0.1095
10701TIP3    H253595   5.336   0.870   0.113 -1.3853  1.2962 -0.8376
10702TIP3   OH253596   4.398   1.419   0.194  0.5453  0.3155  0.0396
10702TIP3    H153597   4.339   1.472   0.140  0.7644  0.6144  0.0915
10702TIP3    H253598   4.457   1.482   0.234  1.2812 -0.0413 -0.4704
10703TIP3   OH253599   1.855   6.503  15.608  0.5297 -0.6414  0.9834
10703TIP3    H153600   1.799   6.427  15.593  0.2897 -0.1600 -0.7291
10703TIP3    H253601   1.794   6.576  15.619  0.6967  0.2148 -2.6474
10704TIP3   OH253602   2.650   4.827  11.719 -0.4155  0.5071  0.3698
10704TIP3    H153603   2.741   4.813  11.697 -0.6060  1.6610 -1.3576
10704TIP3    H253604   2.651   4.856  11.810  0.8403 -0.2698  0.6187
10705TIP3   OH253605   2.595   1.177  13.246  0.1676 -0.4986 -0.7626
10705TIP3    H153606   2.554   1.099  13.285 -0.2354  0.4871  0.9191
10705TIP3    H253607   2.640   1.219  13.320 -0.0515  1.1295 -1.5210
10706TIP3   OH253608   4.120   6.241  11.935  1.0614  0.0773 -0.2503
10706TIP3    H153609   4.119   6.299  11.859  1.3256 -1.2269 -1.2817
10706TIP3    H253610   4.030   6.208  11.942  1.2290 -0.4408 -0.5077
10707TIP3   OH253611   6.169   0.216  10.574 -0.0721 -0.1652 -0.5115
10707TIP3    H153612   6.142   0.304  10.549  0.7364  0.3233  0.2523
10707TIP3    H253613   6.174   0.168  10.492 -2.5564 -0.1267 -0.7642
10708TIP3   OH253614   2.263   3.044   4.467  0.1015 -0.5825 -0.0343
10708TIP3    H153615   2.198   3.093   4.518 -0.5003 -0.6617 -0.7138
10708TIP3    H253616   2.282   3.100   4.392 -1.9302 -2.0618 -1.8026
10709TIP3   OH253617   5.610   3.322  12.566 -0.4618  0.6263  0.0740
10709TIP3    H153618   5.682   3.375  12.600 -0.8336  1.8754 -0.9863
10709TIP3    H253619   5.631   3.232  12.592  1.4596  0.9654 -0.1876
10710TIP3   OH253620   3.217   2.824   4.121 -0.0745  0.1068 -0.4641
10710TIP3    H153621   3.143   2.841   4.179  0.5840 -0.7754  0.6831
10710TIP3    H253622   3.291   2.811   4.180  1.0452  1.1053 -1.5778
10711TIP3   OH253623   2.196   3.279  16.492 -0.0427  0.1510 -0.2600
10711TIP3    H153624   2.228   3.271  16.402 -0.3777  2.3039 -0.6394
10711TIP3    H253625   2.102   3.295  16.482 -0.4399 -1.4398  0.6065
10712TIP3   OH253626   1.884   3.201  16.576 -0.0961 -0.5498 -0.1306
10712TIP3    H153627   1.803   3.226  16.532  0.8012 -1.3480 -2.3674
10712TIP3    H253628   1.925   3.284  16.602 -0.7213 -0.0612 -0.6811
10713TIP3   OH253629   4.019   1.638   4.416 -0.5819 -0.4466  0.0286
10713TIP3    H153630   4.087   1.571   4.411 -1.6809 -1.5300 -0.8745
10713TIP3    H253631   3.961   1.620   4.343 -0.8533  1.5968 -0.3338
10714TIP3   OH253632   3.011   5.763   1.242 -0.4211 -0.2981 -0.7764
10714TIP3    H153633   3.042   5.711   1.168 -1.5396 -1.1890 -0.6499
10714TIP3    H253634   3.042   5.717   1.319 -0.1849  0.0229 -0.6803
10715TIP3   OH253635   3.036   2.275   3.542 -0.0227  0.8070  0.1160
10715TIP3    H153636   2.985   2.197   3.520  1.1277  0.3460 -1.0257
10715TIP3    H253637   3.066   2.259   3.632 -1.2904  0.7818  0.5525
10716TIP3   OH253638   0.690   5.076   0.286 -0.4230 -0.3826  0.5847
10716TIP3    H153639   0.716   5.152   0.234  0.1129 -1.3392 -0.5889
10716TIP3    H253640   0.686   5.004   0.223 -2.3894 -1.0394  1.3970
10717TIP3   OH253641   5.805   5.257  15.918  0.0952  0.1952 -0.2638
10717TIP3    H153642   5.778   5.275  15.828  0.1874  0.5432 -0.2200
10717TIP3    H253643   5.852   5.335  15.946  0.9030 -0.2934 -0.2390
10718TIP3   OH253644   6.407   4.644   1.623  0.1389  0.2002 -0.1322
10718TIP3    H153645   6.329   4.597   1.651  0.4893  1.5434  3.6822
10718TIP3    H253646   6.478   4.580   1.633  0.1412  0.4181  1.4800
10719TIP3   OH253647   5.921   2.559  13.318 -0.0292  0.3835 -0.0607
10719TIP3    H153648   5.867   2.602  13.384 -0.3346 -1.3529  0.8854
10719TIP3    H253649   5.864   2.492  13.281  0.7318  0.1111 -0.7644
10720TIP3   OH253650   4.097   6.505   6.261  0.3520  0.1693 -0.6778
10720TIP3    H153651   4.070   6.517   6.352 -0.3814 -0.2874 -0.8278
10720TIP3    H253652   4.190   6.527   6.260 -0.0032  1.8393 -0.1546
10721TIP3   OH253653   3.852   1.138   2.485  0.6747  0.4290 -0.7377
10721TIP3    H153654   3.820   1.059   2.443 -0.3756  0.7466 -0.5701
10721TIP3    H253655   3.800   1.209   2.446  0.0621  0.7881  0.6621
10722TIP3   OH253656   0.480   2.565  14.473 -0.1863  0.1328  0.4623
10722TIP3    H153657   0.502   2.481  14.432  0.1329 -0.4464  1.7835
10722TIP3    H253658   0.467   2.625  14.399 -2.6712 -1.5767 -0.6392
10723TIP3   OH253659   3.224   5.019  13.530 -0.4999  0.1791 -0.0608
10723TIP3    H153660   3.204   5.113  13.526  1.3037  0.5783 -0.4009
10723TIP3    H253661   3.299   5.008  13.472 -1.0821 -1.6157 -0.5385
10724TIP3   OH253662   0.958   0.994   0.682  0.1876  0.5801 -0.6403
10724TIP3    H153663   0.923   1.078   0.651 -2.2703 -0.2569 -0.3294
10724TIP3    H253664   0.944   0.934   0.609 -0.3312 -0.0965  0.0037
10725TIP3   OH253665   6.807   6.119   3.083  0.0944 -0.1186 -0.1394
10725TIP3    H153666   6.845   6.182   3.021 -1.8414  0.1132 -1.1648
10725TIP3    H253667   6.869   6.047   3.084  0.2522 -0.0888 -2.3113
10726TIP3   OH253668   1.309   4.772   4.389 -0.7580 -0.4528 -0.1449
10726TIP3    H153669   1.265   4.855   4.370 -0.1306  0.5830  2.4897
10726TIP3    H253670   1.238   4.713   4.415 -0.9289  0.1714  0.8305
10727TIP3   OH253671   0.827   6.613  13.011 -0.6268  0.3257  0.5064
10727TIP3    H153672   0.820   6.518  13.027  0.2228  0.2594  0.5313
10727TIP3    H253673   0.770   6.652  13.077 -0.4575 -0.1389  0.9365
10728TIP3   OH253674   4.767   6.164  12.435  0.0130 -0.1511  0.7461
10728TIP3    H153675   4.787   6.166  12.529  1.1745 -1.5338  0.5684
10728TIP3    H253676   4.851   6.144  12.394 -0.4234  0.7264 -0.6226
10729TIP3   OH253677   0.011   6.582   1.709  0.0665 -0.4711 -0.2023
10729TIP3    H153678  -0.045   6.645   1.664  2.1492  2.1019  0.4681
10729TIP3    H253679   0.039   6.521   1.642 -2.1290 -0.7812 -0.8800
10730TIP3   OH253680   0.756   1.735  11.164 -0.0693 -0.0561 -0.3778
10730TIP3    H153681   0.733   1.680  11.089  0.2565  0.4409 -0.8536
10730TIP3    H253682   0.705   1.699  11.236  0.2245 -1.0470 -0.6458
10731TIP3   OH253683   3.490   1.550  13.176  0.6331  0.5777 -0.3287
10731TIP3    H153684   3.490   1.461  13.210  1.6521  0.2940 -1.0286
10731TIP3    H253685   3.496   1.606  13.254 -3.3222  0.2570  0.4297
10732TIP3   OH253686   1.329   4.010   4.333  0.0753 -0.8253 -0.1272
10732TIP3    H153687   1.366   3.936   4.285 -0.1090 -0.1053 -1.3933
10732TIP3    H253688   1.344   4.086   4.278  0.5706  0.1769  1.3154
10733TIP3   OH253689   4.279   1.170  15.928  0.2311  0.4126  0.5260
10733TIP3    H153690   4.222   1.247  15.924 -0.4103 -0.0898 -0.3938
10733TIP3    H253691   4.288   1.142  15.837 -0.1792 -1.0437  0.9086
10734TIP3   OH253692   0.962   0.596  13.941  0.0195  0.0616 -0.8933
10734TIP3    H153693   1.021   0.640  13.879  0.2526  0.9381 -0.0702
10734TIP3    H253694   0.938   0.515  13.897  1.0520  0.1507 -1.6709
10735TIP3   OH253695   1.938   3.041  17.028 -0.0052 -0.2586  0.5660
10735TIP3    H153696   1.873   3.014  17.093 -0.2448 -0.6526  0.1671
10735TIP3    H253697   1.949   3.135  17.043  0.7206 -0.5190  1.8674
10736TIP3   OH253698   1.180   5.689  14.393  0.0090  0.2937 -0.3936
10736TIP3    H153699   1.090   5.659  14.384  1.3466 -4.3890 -0.7505
10736TIP3    H253700   1.196   5.688  14.488  0.0606 -0.2461 -0.4066
10737TIP3   OH253701   2.067   4.546   0.390  0.3583  0.4335  0.5339
10737TIP3    H153702   2.070   4.467   0.443  0.1813  0.9913  1.4003
10737TIP3    H253703   2.044   4.516   0.302  0.8496 -0.5250  0.7248
10738TIP3   OH253704   5.641   2.699   0.766  0.3941 -0.5121 -0.3240
10738TIP3    H153705   5.598   2.752   0.699  0.2635 -0.2537 -0.0391
10738TIP3    H253706   5.588   2.713   0.845  0.5573 -0.7963 -0.1631
10739TIP3   OH253707   2.302   4.693  13.360  0.0207  0.1645  0.0575
10739TIP3    H153708   2.303   4.788  13.372  2.8163  0.2536 -0.3269
10739TIP3    H253709   2.242   4.662  13.428  0.2316  2.0846  1.2039
10740TIP3   OH253710   1.857   5.677   4.915 -0.1214 -0.3604 -0.0484
10740TIP3    H153711   1.853   5.605   4.853 -1.3878  0.3196 -0.7929
10740TIP3    H253712   1.885   5.636   4.997  0.6768 -1.4242 -0.8183
10741TIP3   OH253713   5.211   5.267   5.322  0.3846  0.2159  0.1079
10741TIP3    H153714   5.175   5.191   5.366  1.1131 -0.1596  0.0653
10741TIP3    H253715   5.137   5.328   5.315 -0.4297 -0.8170 -0.6285
10742TIP3   OH253716   1.035   5.985   4.485 -0.3168  0.2753  0.2295
10742TIP3    H153717   1.037   5.943   4.570 -1.5404  0.3770  0.3256
10742TIP3    H253718   1.018   6.077   4.504 -0.2299  0.3641 -0.1081
10743TIP3   OH253719   3.984   2.056   1.791 -0.1484 -0.2701  0.5649
10743TIP3    H153720   3.905   2.029   1.743  0.5890 -1.1611 -0.2073
10743TIP3    H253721   3.987   2.151   1.780  0.4234 -0.4998 -1.9118
10744TIP3   OH253722   4.622   4.468   1.643 -0.2652  0.5649  0.6551
10744TIP3    H153723   4.630   4.471   1.548  1.5460  2.3170  0.8132
10744TIP3    H253724   4.711   4.450   1.674 -1.3429 -3.7469  2.0075
10745TIP3   OH253725   1.530   4.898  15.172  0.2159 -0.1791 -0.0796
10745TIP3    H153726   1.473   4.877  15.246  0.7353 -2.4437 -0.2595
10745TIP3    H253727   1.612   4.927  15.213  0.0508 -0.1062  0.2010
10746TIP3   OH253728   5.919   4.949  17.005 -0.1094 -0.1762 -0.1659
10746TIP3    H153729   5.952   4.883  17.067 -1.9350 -0.5956  0.4197
10746TIP3    H253730   5.829   4.964  17.032 -0.3858  0.9994 -1.6239
10747TIP3   OH253731   5.271   1.485   0.083 -0.1048 -0.7109 -0.3044
10747TIP3    H153732   5.362   1.480   0.055 -0.1055  0.1479 -0.5087
10747TIP3    H253733   5.221   1.493   0.001 -0.0899  2.1119 -0.1257
10748TIP3   OH253734   0.216   5.269   3.712  0.1389  0.0451 -0.0584
10748TIP3    H153735   0.222   5.180   3.676 -0.2447  0.1398 -0.3649
10748TIP3    H253736   0.266   5.323   3.651  0.0345  0.1032 -0.0927
10749TIP3   OH253737   1.158   6.545   2.270  0.2091 -0.2713  0.1370
10749TIP3    H153738   1.193   6.629   2.298  0.1625 -0.4545  0.7623
10749TIP3    H253739   1.063   6.553   2.282  0.2567 -0.6219  0.7932
10750TIP3   OH253740   1.525   6.771  13.377  0.0110  0.6069  0.2984
10750TIP3    H153741   1.525   6.735  13.289  0.7687 -0.3255  0.6622
10750TIP3    H253742   1.550   6.863  13.366  0.0060  0.5206 -0.4621
10751TIP3   OH253743   2.296   1.043   1.207  0.2375 -0.1815  0.0262
10751TIP3    H153744   2.316   0.955   1.174  0.1581 -0.3710  0.4744
10751TIP3    H253745   2.206   1.037   1.238  0.6430 -0.2989  1.2196
10752TIP3   OH253746   6.784   5.499  11.805  0.3768  0.1193 -0.1761
10752TIP3    H153747   6.765   5.425  11.748 -1.0396 -0.2883  0.7857
10752TIP3    H253748   6.727   5.569  11.774 -0.4948 -0.1440  0.7787
10753TIP3   OH253749   5.895   6.733  15.226  0.0883 -0.0197 -0.2715
10753TIP3    H153750   5.971   6.717  15.282 -0.3151 -0.9508  0.0429
10753TIP3    H253751   5.839   6.657  15.240 -1.3574  1.0808  0.2567
10754TIP3   OH253752   4.824   1.399   4.451 -0.2570 -0.2316 -0.1573
10754TIP3    H153753   4.787   1.484   4.426 -0.8093 -0.9197 -1.7400
10754TIP3    H253754   4.770   1.371   4.525  0.0422  0.8542  0.5021
10755TIP3   OH253755   2.243   1.050   3.385 -0.2171  0.1448 -0.6301
10755TIP3    H153756   2.313   0.991   3.413  0.1341  0.4273 -0.9079
10755TIP3    H253757   2.262   1.068   3.293 -1.0799 -0.3769 -0.9269
10756TIP3   OH253758   4.735   2.474   3.707 -0.3453 -0.2400  0.2722
10756TIP3    H153759   4.710   2.416   3.780 -0.4960  0.3992  0.7409
10756TIP3    H253760   4.657   2.528   3.693 -0.2042 -0.1515 -0.1577
10757TIP3   OH253761   4.746   0.425  16.053  0.0639  0.3652  0.0219
10757TIP3    H153762   4.675   0.425  16.117 -0.6646 -1.2191 -0.7247
10757TIP3    H253763   4.768   0.332  16.043  0.3998  0.6049 -1.7357
10758TIP3   OH253764   3.921   2.421  13.331 -0.1788 -0.0929 -0.1432
10758TIP3    H153765   3.961   2.496  13.373  2.1522 -1.2375 -0.1633
10758TIP3    H253766   3.953   2.423  13.241 -0.3456 -0.9196 -0.2377
10759TIP3   OH253767   6.808   4.908  15.889  0.2741  0.5089 -0.5640
10759TIP3    H153768   6.850   4.826  15.916 -0.1372 -0.1061 -1.6926
10759TIP3    H253769   6.837   4.921  15.799 -1.2678  0.4835 -1.1066
10760TIP3   OH253770   6.736   3.904   6.566  0.3645  0.4629 -0.2749
10760TIP3    H153771   6.665   3.903   6.631  0.7686 -1.2381  0.1864
10760TIP3    H253772   6.728   3.989   6.523 -0.8358  1.0249  0.9961
10761TIP3   OH253773   5.122   6.806   6.148 -0.1786  0.3981 -0.0359
10761TIP3    H153774   5.094   6.796   6.239 -0.0412  0.6314  0.0335
10761TIP3    H253775   5.123   6.901   6.134  0.3482  0.3815 -0.1100
10762TIP3   OH253776   0.724   5.831  14.762  0.0014 -0.7922  0.3061
10762TIP3    H153777   0.708   5.873  14.677  1.9239 -1.3711 -0.3892
10762TIP3    H253778   0.643   5.783  14.780 -0.8358  0.1849 -0.6827
10763TIP3   OH253779   1.951   1.024  15.296 -0.5623  0.0522  0.3235
10763TIP3    H153780   2.013   1.047  15.226 -0.0960  0.9025  0.9946
10763TIP3    H253781   1.999   1.043  15.377 -1.6367  0.5456  0.8628
10764TIP3   OH253782   2.662   0.725  16.097 -0.0723 -0.0475 -0.5101
10764TIP3    H153783   2.731   0.669  16.063 -0.3795 -1.1538  0.6067
10764TIP3    H253784   2.619   0.673  16.164 -0.3198  1.5658  0.6570
10765TIP3   OH253785   5.185   5.313  14.941  0.4746 -0.2913 -0.4963
10765TIP3    H153786   5.231   5.326  15.024  0.5850  0.4211 -0.6632
10765TIP3    H253787   5.169   5.401  14.909  2.2397 -0.5251 -2.2366
10766TIP3   OH253788   4.843   2.650   5.129  0.3078 -0.6259 -0.7389
10766TIP3    H153789   4.832   2.731   5.079 -0.7837 -1.2857 -1.5980
10766TIP3    H253790   4.777   2.591   5.094 -0.0192 -1.3545  1.0047
10767TIP3   OH253791   5.931   4.704  15.109  0.0344  0.0440 -0.5987
10767TIP3    H153792   5.931   4.799  15.113 -0.0958  0.2012 -3.0241
10767TIP3    H253793   5.884   4.683  15.029  0.5371 -2.0497 -0.4075
10768TIP3   OH253794   3.644   2.395  12.136 -0.0513 -0.5346  0.0192
10768TIP3    H153795   3.736   2.399  12.110 -0.0178 -1.9104 -0.1765
10768TIP3    H253796   3.604   2.334  12.074 -0.9272 -0.5255  0.5530
10769TIP3   OH253797   1.478   5.614   3.545 -0.2566  0.7147  0.7636
10769TIP3    H153798   1.496   5.645   3.633  1.2072  0.7330  0.4802
10769TIP3    H253799   1.564   5.603   3.505 -0.7931 -1.3822  0.0386
10770TIP3   OH253800   1.250   0.143   5.987  0.7507 -0.0257  0.0092
10770TIP3    H153801   1.304   0.067   5.962  1.6223 -0.0901  1.8929
10770TIP3    H253802   1.196   0.112   6.059  0.9385  1.0578  0.6456
10771TIP3   OH253803   2.083   5.871   5.050  0.3137 -0.2742  0.0374
10771TIP3    H153804   2.145   5.848   5.120 -0.2537  0.6548  0.8826
10771TIP3    H253805   2.055   5.787   5.014  1.0564 -0.7528  0.5400
10772TIP3   OH253806   0.986   2.642   4.060  0.2404 -0.6208 -0.1389
10772TIP3    H153807   1.065   2.606   4.101 -1.1739  0.3818  3.9737
10772TIP3    H253808   1.002   2.737   4.059 -0.3122 -0.5277 -0.8229
10773TIP3   OH253809   1.135   3.701  15.784  0.2313  1.0056  0.5863
10773TIP3    H153810   1.134   3.796  15.796 -2.8592  0.9235  1.7920
10773TIP3    H253811   1.058   3.683  15.729  1.5891 -0.7180 -0.8597
10774TIP3   OH253812   3.399   6.396  11.705 -0.3091  0.2731  0.5042
10774TIP3    H153813   3.374   6.466  11.645  0.3946  0.8497  0.8783
10774TIP3    H253814   3.368   6.425  11.791 -1.2936 -0.5381  0.4469
10775TIP3   OH253815   3.314   2.873   3.366  0.4216 -0.0539  0.3539
10775TIP3    H153816   3.310   2.963   3.399 -1.2225  0.1540 -0.3500
10775TIP3    H253817   3.291   2.819   3.441  0.8896  0.1390  0.6413
10776TIP3   OH253818   4.233   0.206   1.099 -0.0038 -0.0759 -0.2243
10776TIP3    H153819   4.209   0.123   1.140 -0.3789 -0.1398 -0.5744
10776TIP3    H253820   4.207   0.273   1.162  3.1555 -0.2888  1.5666
10777TIP3   OH253821   0.252   2.513   5.638 -0.1639 -0.0083 -0.3879
10777TIP3    H153822   0.197   2.455   5.690  1.4466 -1.8707 -0.6492
10777TIP3    H253823   0.226   2.497   5.547 -1.3215  1.4653 -0.3481
10778TIP3   OH253824   2.298   4.873  14.027  0.0299  0.9875 -0.1746
10778TIP3    H153825   2.363   4.850  13.960  1.2136 -0.7646  1.4953
10778TIP3    H253826   2.215   4.841  13.991  0.5095  0.7805 -1.1422
10779TIP3   OH253827   6.681   0.175   4.164 -0.2551 -0.2899 -0.5272
10779TIP3    H153828   6.596   0.158   4.204  0.5161 -0.8412  0.9318
10779TIP3    H253829   6.686   0.270   4.157 -0.3646 -0.1608  0.8545
10780TIP3   OH253830   6.795   5.466   3.711  0.1548  0.6673  0.0341
10780TIP3    H153831   6.843   5.414   3.647  0.6987  0.8825  0.2576
10780TIP3    H253832   6.750   5.532   3.659  1.0996  1.2349 -0.0860
10781TIP3   OH253833   0.099   6.198  16.286  0.2828 -0.1466 -0.1998
10781TIP3    H153834   0.139   6.148  16.214 -2.6662 -1.0032 -1.4390
10781TIP3    H253835   0.085   6.133  16.355 -1.5587 -0.6247 -0.9568
10782TIP3   OH253836   3.286   6.150   5.882 -0.0232  0.9165  0.2469
10782TIP3    H153837   3.287   6.197   5.798 -0.2381  0.3919 -0.0546
10782TIP3    H253838   3.215   6.191   5.932 -1.2149 -0.0485 -0.5873
10783TIP3   OH253839   4.992   5.322   2.426  0.2009 -0.5867 -0.4845
10783TIP3    H153840   5.032   5.298   2.510 -0.7498 -1.3440 -0.2337
10783TIP3    H253841   5.058   5.376   2.383  1.1761 -1.1437  0.2607
10784TIP3   OH253842   0.828   1.830   5.019 -0.2010  0.8888 -0.8691
10784TIP3    H153843   0.800   1.822   4.928 -0.1692 -2.6508 -0.6903
10784TIP3    H253844   0.921   1.808   5.018 -0.0535  1.4164 -0.0377
10785TIP3   OH253845   2.909   4.320  15.997  0.1847 -0.0525 -0.1216
10785TIP3    H153846   2.879   4.274  15.919 -1.0437  0.2493  0.1518
10785TIP3    H253847   2.969   4.258  16.040 -0.6562 -1.0087 -0.2795
10786TIP3   OH253848   5.319   3.630  16.221  0.0197  0.0791 -0.1308
10786TIP3    H153849   5.280   3.548  16.192  1.2331 -0.3179 -0.6609
10786TIP3    H253850   5.406   3.631  16.183  1.0098  0.3864  2.0203
10787TIP3   OH253851   4.441   3.310   2.193 -1.0286  0.0616  0.6608
10787TIP3    H153852   4.492   3.348   2.264  0.0995 -1.0006  0.4540
10787TIP3    H253853   4.377   3.254   2.236  0.5901 -1.7326  0.8654
10788TIP3   OH253854   0.691   0.637   3.135  0.0411  0.6188 -0.1865
10788TIP3    H153855   0.692   0.719   3.087 -0.3556  0.7388  0.0059
10788TIP3    H253856   0.598   0.615   3.145  0.1433  0.1020 -0.3162
10789TIP3   OH253857   5.340   6.033  16.737  0.1874  0.2933 -0.2005
10789TIP3    H153858   5.282   5.977  16.789  1.0251  0.2036  0.6594
10789TIP3    H253859   5.307   6.122  16.751 -0.7263  0.1021 -1.0214
10790TIP3   OH253860   4.310   4.112   5.331  0.1037 -0.3936 -0.1209
10790TIP3    H153861   4.215   4.106   5.344  0.2387 -2.1074  0.2812
10790TIP3    H253862   4.343   4.141   5.415 -0.0823  0.6415 -0.3899
10791TIP3   OH253863   4.244   0.971   1.877  0.3610  0.0092 -0.2103
10791TIP3    H153864   4.236   0.896   1.936  2.1582  0.2357  0.3857
10791TIP3    H253865   4.240   0.932   1.789  3.0075 -1.1121  0.0648
10792TIP3   OH253866   3.302   1.470   3.187  0.4326 -0.3034  0.1094
10792TIP3    H153867   3.255   1.417   3.122  0.1200  0.0522  0.0402
10792TIP3    H253868   3.235   1.490   3.253 -0.0101  1.7580 -0.9106
10793TIP3   OH253869   6.184   2.646  12.502  0.6260 -0.2476 -0.0482
10793TIP3    H153870   6.094   2.651  12.470  0.7646  0.4328 -0.3603
10793TIP3    H253871   6.213   2.558  12.480  0.8476  0.2901 -2.1978
10794TIP3   OH253872   1.612   3.741  12.120  0.5515  0.1420 -0.6728
10794TIP3    H153873   1.605   3.753  12.215 -1.1894  0.1565 -0.7560
10794TIP3    H253874   1.526   3.768  12.087  2.0706  3.1360 -2.6261
10795TIP3   OH253875   5.301   6.285  15.233  0.2489  0.1152 -0.1488
10795TIP3    H153876   5.229   6.323  15.181 -0.7724 -1.2136  0.2356
10795TIP3    H253877   5.351   6.233  15.170  0.3686  0.3417 -0.2436
10796TIP3   OH253878   1.765   6.851   2.849 -0.2589 -0.2633 -0.6414
10796TIP3    H153879   1.741   6.874   2.939 -0.1455  0.4980 -0.7936
10796TIP3    H253880   1.792   6.759   2.854  1.8547  0.3359  0.5562
10797TIP3   OH253881   0.243   2.227  14.912  0.7444  0.6314  0.5916
10797TIP3    H153882   0.294   2.299  14.874  2.1508  0.5184  2.1286
10797TIP3    H253883   0.176   2.270  14.965  0.2554  0.7819 -0.1304
10798TIP3   OH253884   2.760   4.913   2.452 -0.0509  0.0853  0.4107
10798TIP3    H153885   2.742   4.875   2.366  1.1181  0.5947 -0.0891
10798TIP3    H253886   2.754   5.007   2.438 -0.7308  0.1549  1.1122
10799TIP3   OH253887   5.996   5.525   5.306 -0.0258  0.8502 -0.0724
10799TIP3    H153888   6.040   5.586   5.364 -0.0290  0.1542  0.6879
10799TIP3    H253889   5.948   5.466   5.365  1.7486 -1.2779 -0.6208
10800TIP3   OH253890   3.180   0.283   4.081  0.2609  0.7029 -0.6690
10800TIP3    H153891   3.273   0.284   4.057 -0.1365  2.0269 -2.2697
10800TIP3    H253892   3.178   0.325   4.168  1.2146  0.0214 -0.2989
10801TIP3   OH253893   0.029   4.864  14.900  0.3256 -0.4092 -0.0363
10801TIP3    H153894  -0.052   4.830  14.862  0.6817  0.2816 -1.4881
10801TIP3    H253895   0.006   4.950  14.934  0.7339  0.4698 -1.8413
10802TIP3   OH253896   5.552   4.843   4.768 -0.2459  0.8326  0.1183
10802TIP3    H153897   5.485   4.895   4.725  0.0986  0.4754 -0.8925
10802TIP3    H253898   5.507   4.762   4.795 -0.2712  0.6893 -0.3537
10803TIP3   OH253899   4.139   6.619   5.378 -0.0583 -0.3928 -0.5265
10803TIP3    H153900   4.170   6.585   5.295  0.0425 -0.5538 -0.4235
10803TIP3    H253901   4.143   6.714   5.368  1.0712 -0.4013 -0.3048
10804TIP3   OH253902   2.344   1.961  15.260 -0.3472 -0.1620 -0.1422
10804TIP3    H153903   2.346   1.877  15.305 -1.4725  0.5094  1.2280
10804TIP3    H253904   2.253   1.971  15.231 -0.7102  1.3594  1.3284
10805TIP3   OH253905   1.944   4.148  12.563  0.2238  0.1900  0.2583
10805TIP3    H153906   1.859   4.130  12.602  0.9473  0.6247  2.1697
10805TIP3    H253907   1.995   4.068  12.579  0.9286  0.8366  1.4842
10806TIP3   OH253908   4.624   2.177   6.536  0.1755  0.1554  0.0058
10806TIP3    H153909   4.718   2.183   6.518  0.2350 -1.2779 -0.2970
10806TIP3    H253910   4.604   2.083   6.531 -0.8554  0.2001  2.2756
10807TIP3   OH253911   1.297   6.279  10.454 -0.4978  1.0458 -0.3224
10807TIP3    H153912   1.296   6.208  10.390 -1.6209  0.9372 -0.2031
10807TIP3    H253913   1.329   6.355  10.405 -0.6299  0.7872 -0.8210
10808TIP3   OH253914   6.232   5.481  13.823  0.2575  0.0536  0.4593
10808TIP3    H153915   6.237   5.461  13.917 -0.2352  0.7526  0.6440
10808TIP3    H253916   6.180   5.562  13.819  0.2925  0.0363 -0.4162
10809TIP3   OH253917   2.699   0.372  10.927  0.4829 -0.3335 -0.0011
10809TIP3    H153918   2.696   0.366  10.832  2.7846 -1.4299 -0.0667
10809TIP3    H253919   2.679   0.464  10.946  3.2823  0.7859 -1.8316
10810TIP3   OH253920   4.052   0.018   5.748  0.1046 -0.3051 -0.3421
10810TIP3    H153921   3.969   0.007   5.703 -0.4582 -0.3133  0.6512
10810TIP3    H253922   4.050  -0.047   5.818  1.3487 -0.9108 -0.8559
10811TIP3   OH253923   1.639   2.908  12.987  0.6669 -0.4534 -0.5170
10811TIP3    H153924   1.706   2.958  12.939 -0.4173  1.6524  0.0312
10811TIP3    H253925   1.578   2.878  12.919  1.0206 -0.5357 -0.8020
10812TIP3   OH253926   3.393   6.203  12.419  0.0185  0.6331 -0.6511
10812TIP3    H153927   3.304   6.217  12.385 -0.2983 -0.0122 -0.1080
10812TIP3    H253928   3.432   6.141  12.357  0.5920  1.9725 -1.6834
10813TIP3   OH253929   6.310   3.107   2.283 -0.3043 -0.0094 -0.1946
10813TIP3    H153930   6.365   3.037   2.246  2.2851  1.6245  0.3318
10813TIP3    H253931   6.297   3.168   2.210 -0.6733  0.0376 -0.0873
10814TIP3   OH253932   3.661   4.569  16.334  0.4600 -0.1610 -0.1737
10814TIP3    H153933   3.709   4.508  16.389 -1.2195 -0.5218  0.9771
10814TIP3    H253934   3.629   4.636  16.395 -1.3754 -0.5218 -0.6751
10815TIP3   OH253935   0.377   0.919   5.448 -0.7638 -0.3808  0.0660
10815TIP3    H153936   0.389   0.832   5.487 -2.5889 -0.5671  0.3006
10815TIP3    H253937   0.448   0.927   5.384  0.3032 -1.4313  1.0743
10816TIP3   OH253938   3.226   6.479  16.247 -0.1791 -0.4217 -0.9781
10816TIP3    H153939   3.230   6.499  16.154  0.2715 -0.8721 -1.0561
10816TIP3    H253940   3.301   6.525  16.285 -0.5419  0.0246 -0.7814
10817TIP3   OH253941   5.036   5.762  11.577 -0.2327  0.0305 -0.6295
10817TIP3    H153942   5.099   5.805  11.635  0.5375 -0.3110 -1.2105
10817TIP3    H253943   4.954   5.764  11.627  0.5705 -0.9100  0.7984
10818TIP3   OH253944   4.349   4.049   2.939 -0.0387  0.3689  0.0315
10818TIP3    H153945   4.418   4.024   2.877  1.3495  0.0640  1.6267
10818TIP3    H253946   4.370   4.001   3.019 -2.9431 -0.8424  0.1642
10819TIP3   OH253947   1.964   0.002   1.873  0.1161 -0.5589 -0.1687
10819TIP3    H153948   1.913  -0.063   1.921  0.6277 -2.1398 -1.6377
10819TIP3    H253949   2.033  -0.050   1.830  0.4454  0.9419 -1.5324
10820TIP3   OH253950   2.731   1.949   0.716 -0.4546 -0.2201  0.6322
10820TIP3    H153951   2.740   1.935   0.810 -0.3326 -0.7470  0.5465
10820TIP3    H253952   2.647   1.994   0.707 -0.3241  0.1028  1.0165
10821TIP3   OH253953   0.690   6.602   4.617 -0.1489 -0.0096  0.2026
10821TIP3    H153954   0.625   6.559   4.673 -0.5715 -1.4340 -1.3297
10821TIP3    H253955   0.771   6.555   4.634 -0.4560 -1.0058 -0.9370
10822TIP3   OH253956   4.842   6.641   1.003 -0.3781 -0.1129 -0.0219
10822TIP3    H153957   4.758   6.627   0.959  0.3185 -0.3003 -1.3529
10822TIP3    H253958   4.877   6.553   1.017 -0.6938 -0.0683  1.1674
10823TIP3   OH253959   3.962   6.332  16.457  0.1341 -0.2840 -0.4380
10823TIP3    H153960   3.868   6.339  16.441  0.2850 -0.4441 -1.4505
10823TIP3    H253961   3.990   6.256  16.406  0.9605  0.2923 -0.8763
10824TIP3   OH253962   1.331   0.549  14.642  0.0776  0.1406 -0.9373
10824TIP3    H153963   1.274   0.618  14.675  0.8731  0.6409 -0.5942
10824TIP3    H253964   1.307   0.472  14.694  1.2873  0.9042  0.8399
10825TIP3   OH253965   3.570   3.697  13.508  0.1091  0.3522  0.3500
10825TIP3    H153966   3.564   3.605  13.484  0.7229  0.5440 -0.5889
10825TIP3    H253967   3.554   3.698  13.603  0.2917 -0.7394  0.4093
10826TIP3   OH253968   5.686   6.580   5.959  0.0708 -0.7737 -0.0668
10826TIP3    H153969   5.633   6.572   6.038  1.3509  0.5846  0.9974
10826TIP3    H253970   5.774   6.600   5.991  0.7030 -0.5517 -1.8287
10827TIP3   OH253971   0.260   2.786   0.079 -0.0655 -0.1378  0.1959
10827TIP3    H153972   0.349   2.768   0.050 -0.3018 -3.8230  1.2704
10827TIP3    H253973   0.207   2.780  -0.001  0.4566  1.1287 -0.2846
10828TIP3   OH253974   1.203   4.840   4.691 -0.2240  0.7433  0.4178
10828TIP3    H153975   1.176   4.805   4.776 -1.9933  2.5301  0.6516
10828TIP3    H253976   1.193   4.767   4.630  0.2278 -0.3149  1.5677
10829TIP3   OH253977   2.858   0.334   1.117 -0.5499  0.1944 -0.0868
10829TIP3    H153978   2.846   0.408   1.177 -0.3086 -0.5234  0.8849
10829TIP3    H253979   2.828   0.258   1.167 -0.2383 -0.4464 -0.8505
10830TIP3   OH253980   3.143   5.679   5.981  0.4035  0.6446 -0.6110
10830TIP3    H153981   3.118   5.695   6.072 -0.5801 -0.7812 -0.5936
10830TIP3    H253982   3.199   5.753   5.958  1.0525  0.7995  1.2900
10831TIP3   OH253983   4.192   1.878   2.736  0.0592 -0.6954 -0.7461
10831TIP3    H153984   4.184   1.963   2.693  0.5220 -0.0285  0.4247
10831TIP3    H253985   4.285   1.855   2.725  0.3800 -0.1241  0.5491
10832TIP3   OH253986   4.438   5.994  14.880 -0.1283 -0.6495 -0.2924
10832TIP3    H153987   4.428   6.016  14.787 -1.7529  1.1712  0.2297
10832TIP3    H253988   4.479   6.071  14.918 -2.5517  0.1100  1.0104
10833TIP3   OH253989   4.921   3.194   1.983  0.2182  0.3338 -0.0007
10833TIP3    H153990   4.962   3.146   2.056 -0.9990 -1.2963 -0.3178
10833TIP3    H253991   4.930   3.135   1.909  0.3831  1.4729 -0.9095
10834TIP3   OH253992   0.368   4.364   2.757  0.1530 -0.2010 -0.4136
10834TIP3    H153993   0.395   4.308   2.684 -0.9209  0.6504 -1.5007
10834TIP3    H253994   0.272   4.360   2.755 -0.0178  2.5475 -1.2784
10835TIP3   OH253995   3.198   4.617   5.980  0.3360  0.2224  0.3111
10835TIP3    H153996   3.199   4.704   5.941  1.4023 -0.0449 -0.3170
10835TIP3    H253997   3.284   4.608   6.021  0.1466 -0.4422  0.5877
10836TIP3   OH253998   2.363   0.707   0.879 -0.1299 -0.0729 -0.4140
10836TIP3    H153999   2.277   0.716   0.922 -1.0469  1.3571 -2.4138
10836TIP3    H254000   2.389   0.617   0.898 -1.0934  0.0745  1.9458
10837TIP3   OH254001   0.486   0.447  15.010  0.1205 -0.5304  0.4258
10837TIP3    H154002   0.451   0.376  15.063 -1.3882  0.4461  0.8036
10837TIP3    H254003   0.472   0.419  14.919  0.2598 -1.0475  0.5652
10838TIP3   OH254004   3.969   4.953  12.766 -0.1724 -0.2008  0.0114
10838TIP3    H154005   3.954   5.044  12.741  1.1876  0.8907  2.7471
10838TIP3    H254006   3.908   4.937  12.839  0.1915 -1.2137  0.1172
10839TIP3   OH254007   5.905   0.358   6.011  0.5947  0.0464  0.0458
10839TIP3    H154008   5.829   0.299   6.011  1.5908 -1.5280  3.7478
10839TIP3    H254009   5.978   0.302   5.987  1.0419  0.8087 -0.4090
10840TIP3   OH254010   4.286   6.834   2.882 -0.3276  0.7260 -0.1390
10840TIP3    H154011   4.221   6.788   2.935  0.4077 -0.2077 -0.0140
10840TIP3    H254012   4.235   6.887   2.821 -1.1923  0.4297  0.3174
10841TIP3   OH254013   1.038   5.714   4.620  0.0937 -0.5598  0.2129
10841TIP3    H154014   0.974   5.779   4.649  0.8828 -0.7575  2.6641
10841TIP3    H254015   0.995   5.630   4.635  0.3005 -0.6616  0.2360
10842TIP3   OH254016   4.282   4.546   1.659  0.1616 -0.7807 -0.0532
10842TIP3    H154017   4.203   4.600   1.657 -0.3611 -1.4334  1.2853
10842TIP3    H254018   4.327   4.565   1.577 -0.5211  0.9081 -0.0708
10843TIP3   OH254019   6.766   0.581   4.554 -0.2196  0.4608  0.7214
10843TIP3    H154020   6.828   0.646   4.519 -2.6654  2.0253 -1.0512
10843TIP3    H254021   6.794   0.498   4.515  1.0070  1.0076  0.3676
10844TIP3   OH254022   3.249   1.959   2.340 -0.0329  0.2365 -0.3223
10844TIP3    H154023   3.209   2.043   2.319  0.7510  0.7012 -0.0177
10844TIP3    H254024   3.227   1.943   2.431  0.0951  0.2735 -0.2846
10845TIP3   OH254025   3.058   3.341   1.658  0.2401  0.1814 -0.0939
10845TIP3    H154026   3.005   3.268   1.691  0.6939 -0.6717 -1.2005
10845TIP3    H254027   3.131   3.347   1.719 -1.3581  1.7667  1.8198
10846TIP3   OH254028   2.144   6.409   4.827  0.3252  0.0443  0.1494
10846TIP3    H154029   2.066   6.447   4.786  0.0690  0.8296  1.3188
10846TIP3    H254030   2.212   6.475   4.817  1.3696 -1.2362 -2.2427
10847TIP3   OH254031   3.476   6.205   0.370 -0.2446 -0.2407 -0.2290
10847TIP3    H154032   3.547   6.148   0.342  0.5393  1.1966 -1.3758
10847TIP3    H254033   3.517   6.270   0.427 -0.9079 -0.1997  0.2224
10848TIP3   OH254034   1.527   6.453  15.596  0.3421  0.1850 -0.1954
10848TIP3    H154035   1.554   6.545  15.599 -0.3590  0.3734  0.7358
10848TIP3    H254036   1.434   6.457  15.573  0.0542 -0.2322  0.8491
10849TIP3   OH254037   4.479   4.621   0.070  0.2263  0.4718  0.1740
10849TIP3    H154038   4.459   4.550   0.009  1.1447 -1.6119  2.1721
10849TIP3    H254039   4.425   4.694   0.039  0.5405 -0.4814 -3.0061
10850TIP3   OH254040   3.158   4.087  12.126  0.4421 -0.6653  0.1782
10850TIP3    H154041   3.229   4.128  12.076 -1.7323  2.1477 -0.8351
10850TIP3    H254042   3.182   4.102  12.217  0.8635  0.8593 -0.1517
10851TIP3   OH254043   3.807   4.241   1.985  0.5509  0.4040  0.8092
10851TIP3    H154044   3.879   4.247   1.923 -0.1172  0.8322  0.0546
10851TIP3    H254045   3.798   4.329   2.021 -0.8471  0.8815 -0.5784
10852TIP3   OH254046   4.561   5.227   0.655 -0.7149  0.5000 -0.4091
10852TIP3    H154047   4.583   5.319   0.668 -2.5802  0.8920  0.2308
10852TIP3    H254048   4.479   5.215   0.702 -0.2905 -1.6089 -0.1028
10853TIP3   OH254049   0.375   1.689   1.167  0.3947  0.0090 -0.8494
10853TIP3    H154050   0.324   1.616   1.204  0.1830  0.1343 -0.8948
10853TIP3    H254051   0.387   1.665   1.075  0.2020  0.1002 -0.8985
10854TIP3   OH254052   4.765   3.504  15.534  0.1334  0.3246 -1.0079
10854TIP3    H154053   4.797   3.488  15.445 -0.7750 -0.1852 -1.2536
10854TIP3    H254054   4.753   3.416  15.571 -0.4943  0.5167 -0.7470
10855TIP3   OH254055   3.431   1.437  12.670  0.6675  0.6100  0.3886
10855TIP3    H154056   3.476   1.451  12.586 -1.0917  0.5029 -0.6221
10855TIP3    H254057   3.349   1.485  12.662  0.2424  0.1936  1.8776
10856TIP3   OH254058   4.995   6.667  14.352 -0.3184  0.0084  0.3279
10856TIP3    H154059   4.917   6.617  14.376 -0.4508  1.1564  2.6723
10856TIP3    H254060   5.054   6.657  14.427  1.2173  0.3191 -0.7786
10857TIP3   OH254061   5.584   6.446   0.490  0.5552 -0.1703 -0.3283
10857TIP3    H154062   5.598   6.535   0.523  2.7680 -0.0518 -1.4102
10857TIP3    H254063   5.654   6.433   0.426  0.2107 -2.6606 -0.2907
10858TIP3   OH254064   3.073   4.872   4.684  0.4473  0.3582 -0.1758
10858TIP3    H154065   2.987   4.832   4.699  0.4430  0.8465  1.2928
10858TIP3    H254066   3.131   4.798   4.667 -0.2550  0.0199 -1.1636
10859TIP3   OH254067   4.360   6.853   2.399  0.0650  0.5232  0.0147
10859TIP3    H154068   4.417   6.795   2.349 -0.2282 -0.0416  0.3255
10859TIP3    H254069   4.274   6.811   2.397  0.0669  0.4328  1.0555
10860TIP3   OH254070   3.642   1.227  13.583 -0.2334  0.7704 -0.1049
10860TIP3    H154071   3.628   1.241  13.489  1.1521 -0.4173 -0.5212
10860TIP3    H254072   3.554   1.232  13.621 -0.9167  0.4978 -1.5683
10861TIP3   OH254073   6.195   4.352  10.880  0.1990  0.3253  0.1475
10861TIP3    H154074   6.274   4.321  10.835  0.1968 -0.9823  0.9770
10861TIP3    H254075   6.149   4.405  10.815  0.9898 -0.2024 -0.8661
10862TIP3   OH254076   5.077   3.388  12.957  0.7329  0.2409  0.1064
10862TIP3    H154077   5.054   3.432  13.039 -1.3989  1.8919 -1.2834
10862TIP3    H254078   5.124   3.455  12.907  0.4460 -0.1581 -0.7112
10863TIP3   OH254079   4.400   3.038  16.429  0.6389 -0.1181 -1.2041
10863TIP3    H154080   4.395   3.018  16.523 -2.3251  0.0361 -1.2352
10863TIP3    H254081   4.437   2.959  16.390 -0.6681 -1.3285 -0.1429
10864TIP3   OH254082   5.151   0.728  12.799 -0.1169  0.3356 -0.2285
10864TIP3    H154083   5.120   0.795  12.861 -0.1487  0.8315 -0.7673
10864TIP3    H254084   5.164   0.650  12.852  2.9441  1.5548  1.0812
10865TIP3   OH254085   3.996   4.289   2.251 -0.2349  0.0102 -0.4133
10865TIP3    H154086   4.002   4.196   2.227 -3.4824 -0.8016  1.3088
10865TIP3    H254087   4.072   4.303   2.307  1.1817 -1.1090 -1.9261
10866TIP3   OH254088   1.009   2.836   2.522  0.1622  0.2380  0.2063
10866TIP3    H154089   1.059   2.845   2.603 -1.6258  0.3155  1.3489
10866TIP3    H254090   1.075   2.845   2.452  2.0534 -1.6193  1.6087
10867TIP3   OH254091   1.682   3.937  11.520  0.8088  0.1515 -0.0447
10867TIP3    H154092   1.739   3.960  11.447  1.1073  0.8290  0.3950
10867TIP3    H254093   1.691   3.842  11.528  1.8401  0.2480 -0.0117
10868TIP3   OH254094   0.891   4.571   5.414  0.0102 -0.0619 -0.0957
10868TIP3    H154095   0.880   4.501   5.350 -0.9213  2.4841 -2.9828
10868TIP3    H254096   0.986   4.578   5.425  0.1926 -0.5919 -1.2047
10869TIP3   OH254097   4.806   1.590  15.427  0.7168  0.0120 -0.3563
10869TIP3    H154098   4.826   1.647  15.352 -0.3521  0.3903 -0.3796
10869TIP3    H254099   4.854   1.629  15.500 -1.7090  2.3849  0.1651
10870TIP3   OH254100   4.066   6.730   4.244 -0.2391 -0.4180  0.2996
10870TIP3    H154101   4.121   6.666   4.291 -1.1265 -2.0862 -0.8391
10870TIP3    H254102   3.978   6.712   4.275 -0.3935  1.0274  0.7591
10871TIP3   OH254103   6.322   3.295  11.257  0.1035  0.4121  0.1143
10871TIP3    H154104   6.382   3.234  11.213  0.4805 -0.2524  1.4924
10871TIP3    H254105   6.274   3.337  11.186  2.9759  1.8146 -1.1585
10872TIP3   OH254106   3.447   3.151  13.722 -0.1257 -0.0153 -0.0893
10872TIP3    H154107   3.487   3.237  13.726  0.3475 -0.2431  0.2328
10872TIP3    H254108   3.467   3.118  13.635  1.3914 -0.5880  0.4373
10873TIP3   OH254109   2.218   5.209  15.927 -0.1078  0.1442 -0.0852
10873TIP3    H154110   2.127   5.230  15.946 -0.0700  1.3071 -1.0478
10873TIP3    H254111   2.214   5.131  15.872 -0.4921 -0.0729  0.2451
10874TIP3   OH254112   3.509   0.432  12.953 -0.1110 -0.1316  0.4058
10874TIP3    H154113   3.482   0.498  13.017  2.2486  3.1486 -1.6822
10874TIP3    H254114   3.456   0.451  12.876 -0.1732 -1.4746  0.0937
10875TIP3   OH254115   6.015   6.060   3.811  0.3868  0.1721  0.5677
10875TIP3    H154116   6.014   6.128   3.878 -1.9710  0.6701  0.1242
10875TIP3    H254117   5.996   6.106   3.729 -1.3359 -0.9481  0.2727
10876TIP3   OH254118   1.967   3.647   2.529 -0.2134  0.7665  0.2358
10876TIP3    H154119   2.017   3.708   2.476 -1.7754  1.2281 -0.7853
10876TIP3    H254120   1.925   3.702   2.596 -1.3466  0.7993 -0.4729
10877TIP3   OH254121   2.968   1.880  14.032 -0.4680 -0.0704  0.0808
10877TIP3    H154122   3.057   1.902  14.003 -0.9940  1.7352 -0.2595
10877TIP3    H254123   2.969   1.784  14.039  1.2047 -0.1698 -0.8636
10878TIP3   OH254124   0.514   0.725   4.643 -0.0156 -0.3517  0.3216
10878TIP3    H154125   0.473   0.651   4.597 -1.1672  0.3203  0.2256
10878TIP3    H254126   0.571   0.684   4.708 -1.0743 -1.3561  0.6632
10879TIP3   OH254127   1.030   5.731  14.879  0.1269  0.6643  0.4031
10879TIP3    H154128   1.092   5.799  14.852 -0.0135  0.4093 -0.5911
10879TIP3    H254129   0.978   5.772  14.949  1.4030  0.8741  1.2536
10880TIP3   OH254130   3.009   0.040  16.044  0.3083 -0.4018 -0.3276
10880TIP3    H154131   2.976   0.037  15.955  0.2010 -0.5562 -0.2848
10880TIP3    H254132   3.044   0.128  16.055 -0.3385 -0.1519 -0.2823
10881TIP3   OH254133   5.699   2.059  12.020  0.3801 -0.6720 -0.0400
10881TIP3    H154134   5.605   2.074  12.023  0.7136  2.2063 -0.6017
10881TIP3    H254135   5.716   2.035  11.929  0.4527  1.9634 -0.8110
10882TIP3   OH254136   5.348   6.339  16.859 -0.1020  0.5373  0.1291
10882TIP3    H154137   5.285   6.388  16.912 -2.1493 -1.7438  0.0147
10882TIP3    H254138   5.405   6.297  16.923 -2.0780 -1.5777  0.6398
10883TIP3   OH254139   5.789   5.552   4.144  0.3875  0.3454  0.0033
10883TIP3    H154140   5.850   5.554   4.218  1.1135 -1.3215 -0.4892
10883TIP3    H254141   5.844   5.529   4.069 -0.6988 -0.2579 -0.6255
10884TIP3   OH254142   5.715   5.297  15.662  0.2615 -0.3526 -1.3477
10884TIP3    H154143   5.732   5.339  15.577 -0.3685  0.3548 -1.1364
10884TIP3    H254144   5.769   5.218  15.660  1.8349  0.6648 -1.5902
10885TIP3   OH254145   1.765   4.784  12.819  0.1871 -0.5737  0.4492
10885TIP3    H154146   1.748   4.845  12.747  0.8978  0.7924  1.3769
10885TIP3    H254147   1.779   4.700  12.777 -1.8276 -0.3326 -0.8167
10886TIP3   OH254148   3.880   0.529   4.854 -0.1045 -0.5875 -0.0059
10886TIP3    H154149   3.897   0.560   4.943 -0.6736  0.3277 -0.1990
10886TIP3    H254150   3.966   0.518   4.815  0.1644 -1.4640  0.8032
10887TIP3   OH254151   4.035   2.861   3.425  0.7363  0.3037 -0.0313
10887TIP3    H154152   4.011   2.908   3.505  0.5127 -0.7808  0.5430
10887TIP3    H254153   4.048   2.931   3.360  1.5227  1.2381  1.0916
10888TIP3   OH254154   6.343   0.629   0.969 -0.0677  0.2398 -0.6576
10888TIP3    H154155   6.391   0.574   0.908 -2.1007 -2.3150 -0.1311
10888TIP3    H254156   6.366   0.597   1.056 -0.4862  0.9369 -0.2714
10889TIP3   OH254157   0.701   4.482  15.502  0.0270 -0.1876  0.4128
10889TIP3    H154158   0.623   4.451  15.455 -1.5201 -0.1684  2.7366
10889TIP3    H254159   0.746   4.401  15.528  1.4292 -0.1861 -1.8066
10890TIP3   OH254160   0.584   3.441   2.260  0.0972 -0.0225  0.1537
10890TIP3    H154161   0.621   3.421   2.346 -1.6019 -1.1425  0.6680
10890TIP3    H254162   0.601   3.363   2.208 -0.6200 -0.1525  0.0989
10891TIP3   OH254163   2.778   6.470   5.533  0.3862 -0.5119 -0.0135
10891TIP3    H154164   2.744   6.436   5.616 -1.1969  0.7025 -0.1169
10891TIP3    H254165   2.706   6.462   5.471  0.6027  1.1251 -0.5372
10892TIP3   OH254166   5.677   3.721  13.197  0.3642 -0.4513  0.8547
10892TIP3    H154167   5.653   3.640  13.242 -2.4996  0.3268  0.9439
10892TIP3    H254168   5.656   3.706  13.105 -2.9373  0.9608  1.2350
10893TIP3   OH254169   5.234   6.014   1.969  0.0460 -0.0400 -0.2042
10893TIP3    H154170   5.143   6.043   1.970 -0.0834  0.1270 -3.8065
10893TIP3    H254171   5.285   6.095   1.971 -0.0220  0.0429 -1.3154
10894TIP3   OH254172   3.949   4.095  16.759  0.7397  0.2165  0.3523
10894TIP3    H154173   4.041   4.075  16.774  0.8650 -1.3191 -1.9596
10894TIP3    H254174   3.902   4.024  16.802  0.5504  1.2738  1.9753
10895TIP3   OH254175   5.315   6.306   4.214 -0.3975 -0.4495 -0.4302
10895TIP3    H154176   5.290   6.391   4.251  2.5782  0.2247  0.3067
10895TIP3    H254177   5.310   6.319   4.119  1.1824  1.0316 -0.3655
10896TIP3   OH254178   6.308   2.184  13.443 -0.1473 -0.1540 -0.5579
10896TIP3    H154179   6.357   2.266  13.443  0.5209 -0.5332 -1.3535
10896TIP3    H254180   6.221   2.208  13.475  1.2066  0.0825  3.4685
10897TIP3   OH254181   0.086   0.769   5.456  0.1629 -0.3654 -0.0326
10897TIP3    H154182   0.001   0.750   5.495 -0.2275  0.7615 -0.3181
10897TIP3    H254183   0.145   0.776   5.532 -0.0903 -0.6486  0.1958
10898TIP3   OH254184   0.685   4.618  11.823 -0.7537 -0.5360  1.0195
10898TIP3    H154185   0.760   4.567  11.852 -1.1442 -1.1371  0.9947
10898TIP3    H254186   0.673   4.684  11.892  0.1046 -0.0988  0.7653
10899TIP3   OH254187   2.093   4.224   5.005 -0.5352  0.3379 -0.4324
10899TIP3    H154188   2.138   4.165   4.944 -0.7552  0.8177 -1.0618
10899TIP3    H254189   2.103   4.311   4.967 -0.2372  0.7150  0.4814
10900TIP3   OH254190   2.015   2.418   4.433  0.3213  0.2467 -0.1168
10900TIP3    H154191   2.104   2.393   4.459  0.1954  1.2964  1.4879
10900TIP3    H254192   1.966   2.420   4.516 -1.0280  0.3680 -0.8894
10901TIP3   OH254193   4.414   1.559   2.914  0.1252  0.0203  0.4768
10901TIP3    H154194   4.446   1.505   2.841 -0.3034  2.5546 -1.7335
10901TIP3    H254195   4.399   1.645   2.876  0.1334  1.5901  3.6824
10902TIP3   OH254196   5.451   0.027  12.040  0.0276 -0.6086  0.4906
10902TIP3    H154197   5.510   0.021  11.964 -2.3469  0.2173 -1.5590
10902TIP3    H254198   5.507   0.058  12.111  2.3660 -1.3718 -0.8915
10903TIP3   OH254199   2.752   0.296  11.728 -0.4179 -0.2034  0.0107
10903TIP3    H154200   2.697   0.371  11.708  0.4336  0.1545 -1.0779
10903TIP3    H254201   2.823   0.300  11.663  0.5368 -1.0048  0.9671
10904TIP3   OH254202   0.166   6.632   0.403  0.0422  0.0511  0.1343
10904TIP3    H154203   0.187   6.719   0.369  0.0666  0.2543  0.6515
10904TIP3    H254204   0.153   6.578   0.326 -2.6303  1.1153 -0.2400
10905TIP3   OH254205   4.642   1.152   2.226 -0.4759 -0.0948 -0.2627
10905TIP3    H154206   4.731   1.157   2.261 -0.2854 -2.2300 -0.3484
10905TIP3    H254207   4.652   1.112   2.140 -1.4277  0.6857 -0.7492
10906TIP3   OH254208   3.727   2.889   1.078 -0.2578  0.2015  0.2957
10906TIP3    H154209   3.762   2.915   1.163  0.0847 -1.3482  0.6466
10906TIP3    H254210   3.692   2.801   1.091 -2.1347  0.7372 -0.6591
10907TIP3   OH254211   3.731   0.369   2.452 -0.1888 -0.0031  0.1027
10907TIP3    H154212   3.808   0.342   2.502 -0.2450  0.0648  0.2284
10907TIP3    H254213   3.702   0.290   2.406  1.4988  0.5279 -2.0518
10908TIP3   OH254214   0.392   1.947   2.254  0.2567 -0.3533 -0.1697
10908TIP3    H154215   0.313   1.967   2.305  0.0885  0.6915 -0.7949
10908TIP3    H254216   0.461   1.997   2.297 -0.0321  1.1487 -1.3495
10909TIP3   OH254217   1.984   2.953   6.391 -0.4733 -0.1629 -0.6212
10909TIP3    H154218   2.076   2.982   6.390 -0.4869  0.1153  1.4780
10909TIP3    H254219   1.980   2.883   6.327  0.9658  0.4969 -1.4850
10910TIP3   OH254220   1.983   2.643   3.952 -0.3676  0.2526 -0.4650
10910TIP3    H154221   2.004   2.555   3.920  0.9737  0.7062 -0.9190
10910TIP3    H254222   1.959   2.630   4.044 -2.3665 -0.8330 -1.0808
10911TIP3   OH254223   0.555   1.888  10.342 -0.1017 -0.5849 -0.0674
10911TIP3    H154224   0.464   1.895  10.369 -0.6420 -1.6311 -1.4829
10911TIP3    H254225   0.560   1.804  10.296  0.6936  1.0358 -3.2194
10912TIP3   OH254226   4.209   3.658   2.176  0.0930  0.3138  0.7914
10912TIP3    H154227   4.230   3.590   2.240  2.0829  0.6867  0.6174
10912TIP3    H254228   4.211   3.613   2.091 -0.9562  0.1375  0.8505
10913TIP3   OH254229   6.544   2.285  16.550 -0.5615  0.1737 -0.6689
10913TIP3    H154230   6.480   2.247  16.610 -0.2261  0.1805 -0.3015
10913TIP3    H254231   6.623   2.234  16.564 -0.5597  0.0007 -1.3103
10914TIP3   OH254232   3.089   0.932  12.507  0.0150 -0.1612  0.1468
10914TIP3    H154233   3.111   0.930  12.414 -0.3770  1.3123  0.0004
10914TIP3    H254234   2.997   0.906  12.511 -0.1584  0.4229  0.0437
10915TIP3   OH254235   4.709   5.090  11.827 -0.4174  0.0604  1.2901
10915TIP3    H154236   4.627   5.139  11.836 -0.4923  0.0381  0.7607
10915TIP3    H254237   4.773   5.155  11.800 -0.1470  0.1651  2.1312
10916TIP3   OH254238   5.728   6.479   5.720  0.4003 -0.0347  0.4286
10916TIP3    H154239   5.639   6.460   5.690  1.2405  1.1937 -3.2198
10916TIP3    H254240   5.715   6.528   5.802 -2.2533  0.1136  0.0187
10917TIP3   OH254241   1.959   0.612   4.860  0.1540 -0.4965  0.2338
10917TIP3    H154242   1.911   0.689   4.891  0.6689 -1.0249  2.5001
10917TIP3    H254243   2.051   0.640   4.860  0.6411 -1.7066  3.3937
10918TIP3   OH254244   3.103   4.142  12.608  0.7487 -0.3541  0.3094
10918TIP3    H154245   3.128   4.156  12.700  0.9160  2.2631 -0.0857
10918TIP3    H254246   3.156   4.204  12.559  0.4013 -1.4765 -1.5591
10919TIP3   OH254247   0.299   4.012   2.187  0.5489 -0.1197  0.0585
10919TIP3    H154248   0.389   3.993   2.212  0.3359 -1.8026 -0.3544
10919TIP3    H254249   0.255   3.927   2.187 -0.8569  0.5718 -0.4869
10920TIP3   OH254250   4.611   5.673   2.751 -0.1977  0.0281 -0.0788
10920TIP3    H154251   4.675   5.705   2.686 -0.9241  1.9262  0.0704
10920TIP3    H254252   4.539   5.640   2.698  0.0875 -0.3479 -0.2391
10921TIP3   OH254253   4.051   5.159   5.549 -0.2753 -0.3810  0.1090
10921TIP3    H154254   4.106   5.154   5.471 -1.2503 -1.2703 -0.5571
10921TIP3    H254255   4.112   5.175   5.621  0.7924 -0.9036 -0.6547
10922TIP3   OH254256   5.964   6.187   3.577 -0.6782 -0.2091  0.0127
10922TIP3    H154257   6.046   6.174   3.530 -0.7137 -1.4424  0.2649
10922TIP3    H254258   5.896   6.163   3.514 -0.9067  1.4050 -0.4038
10923TIP3   OH254259   3.856   6.405  15.237 -0.1443 -0.1628 -0.5638
10923TIP3    H154260   3.846   6.314  15.209 -1.3625 -0.2646  0.1567
10923TIP3    H254261   3.948   6.412  15.262  0.1759 -0.9498 -1.4404
10924TIP3   OH254262   3.022   6.582   4.071  0.4378  0.4691  0.0248
10924TIP3    H154263   3.063   6.502   4.105 -0.3973 -0.2357 -0.5924
10924TIP3    H254264   3.089   6.621   4.015  0.2295 -0.7758 -1.1469
10925TIP3   OH254265   2.999   3.893  12.741 -0.3565  0.3051 -0.2394
10925TIP3    H154266   3.041   3.828  12.685 -0.0496 -0.4781  0.8649
10925TIP3    H254267   2.966   3.959  12.681 -0.3075 -0.6638 -1.3693
10926TIP3   OH254268   1.727   0.092  12.755 -0.9255 -0.4269 -0.5045
10926TIP3    H154269   1.721   0.184  12.781 -1.2100 -0.7361  0.5866
10926TIP3    H254270   1.739   0.045  12.838  0.2545 -1.2894 -1.1428
10927TIP3   OH254271   1.451   5.203   4.356 -0.3274 -0.6402 -0.1219
10927TIP3    H154272   1.481   5.213   4.265  0.3051 -1.9438 -0.0684
10927TIP3    H254273   1.465   5.111   4.376 -2.6722 -0.9258  0.5327
10928TIP3   OH254274   6.016   1.031   1.820 -0.0623  0.3267  0.0367
10928TIP3    H154275   6.054   0.961   1.873  1.5395 -0.5934 -2.1769
10928TIP3    H254276   6.030   1.110   1.872  0.4597 -0.6389  1.4434
10929TIP3   OH254277   4.889   2.876  13.918  0.8491 -0.5396 -0.0108
10929TIP3    H154278   4.810   2.826  13.900  0.4006  0.2302 -0.2441
10929TIP3    H254279   4.960   2.824  13.880  0.4155 -1.0718 -0.0955
10930TIP3   OH254280   4.133   0.882  13.765 -0.0546 -0.0204 -0.0408
10930TIP3    H154281   4.198   0.928  13.819  0.4663 -1.5431  0.6655
10930TIP3    H254282   4.066   0.854  13.827  0.1317 -1.0744 -0.3109
10931TIP3   OH254283   0.135   3.613  15.355  0.1228 -0.4775  0.0510
10931TIP3    H154284   0.053   3.571  15.382  0.8923 -1.5542  0.7806
10931TIP3    H254285   0.119   3.706  15.367 -1.5026 -0.5547 -1.2516
10932TIP3   OH254286   6.702   5.008  12.881 -0.0670  0.4770  0.5777
10932TIP3    H154287   6.793   4.982  12.865  0.5869  1.2330  2.7367
10932TIP3    H254288   6.655   4.925  12.890  0.8137  0.0562  1.4386
10933TIP3   OH254289   4.186   3.195  16.338 -0.1360  0.7525 -0.1424
10933TIP3    H154290   4.273   3.154  16.338 -0.4523  0.0659 -0.5982
10933TIP3    H254291   4.197   3.273  16.284  0.0982  0.4446 -0.5468
10934TIP3   OH254292   4.758   3.103  16.834 -0.2457 -0.5775  0.1721
10934TIP3    H154293   4.791   3.015  16.814 -0.3183 -0.2328 -1.6952
10934TIP3    H254294   4.836   3.154  16.857 -0.0441 -0.8415  0.0806
10935TIP3   OH254295   6.215   1.983  10.396  0.1379  0.4576  0.6232
10935TIP3    H154296   6.226   2.026  10.311  0.0343  0.0851  0.4199
10935TIP3    H254297   6.297   1.999  10.443  1.0696 -1.1781 -0.3670
10936TIP3   OH254298   5.795   1.576   3.650  0.4184 -0.5663  0.5028
10936TIP3    H154299   5.880   1.566   3.693 -0.2124 -0.7980  1.7385
10936TIP3    H254300   5.737   1.608   3.718 -0.4054  0.0001 -0.4386
10937TIP3   OH254301   1.561   3.913   2.675 -0.2715  0.0948  0.4546
10937TIP3    H154302   1.547   4.006   2.693  0.3755  0.1302  0.7926
10937TIP3    H254303   1.656   3.902   2.674 -0.2871 -0.2309 -1.3219
10938TIP3   OH254304   6.457   6.772  15.507 -0.3859  0.2166  0.1525
10938TIP3    H154305   6.405   6.853  15.507 -1.2683 -0.2962  2.2736
10938TIP3    H254306   6.475   6.755  15.600  1.3058 -1.0842 -0.3680
10939TIP3   OH254307   2.986   5.532   0.809 -0.5268  0.2055 -0.5371
10939TIP3    H154308   3.036   5.613   0.807  0.3052 -0.1986  1.5561
10939TIP3    H254309   3.028   5.476   0.744  1.5625  0.0179  0.8859
10940TIP3   OH254310   4.751   0.724   1.912  0.2202  0.0554 -0.4353
10940TIP3    H154311   4.782   0.691   1.996 -1.3006 -1.1785 -0.3250
10940TIP3    H254312   4.830   0.756   1.868  1.0684  0.5721  1.3662
10941TIP3   OH254313   4.141   6.544  14.913  0.0426 -0.7707 -0.1722
10941TIP3    H154314   4.050   6.555  14.886 -0.0304 -0.6108  0.1328
10941TIP3    H254315   4.164   6.627  14.955  0.5001 -0.6126 -0.7294
10942TIP3   OH254316   4.907   3.992  12.936 -0.2764  0.1242  0.1305
10942TIP3    H154317   4.897   4.040  13.018  1.5220 -0.8582  0.9673
10942TIP3    H254318   4.962   4.048  12.881  1.0662 -0.5133  0.7721
10943TIP3   OH254319   5.835   6.226   0.057  0.1705 -0.1049 -0.6583
10943TIP3    H154320   5.792   6.286  -0.004  2.6327  1.4000 -1.0509
10943TIP3    H254321   5.924   6.260   0.065  1.0586 -2.5331  0.7789
10944TIP3   OH254322   6.824   2.313  11.812  0.1288  0.4567 -0.2541
10944TIP3    H154323   6.768   2.346  11.883 -0.6272 -0.6503 -0.3126
10944TIP3    H254324   6.765   2.308  11.736 -0.2857 -2.5307  0.1391
10945TIP3   OH254325   3.753   0.371  16.542  0.1607 -0.4446 -0.2801
10945TIP3    H154326   3.784   0.457  16.570 -0.7434 -0.5162  1.0913
10945TIP3    H254327   3.734   0.381  16.449  0.8199  0.6034 -0.3199
10946TIP3   OH254328   0.669   6.149  10.328  0.1819  0.0576  0.2878
10946TIP3    H154329   0.634   6.195  10.404 -0.0939 -0.8894  0.7441
10946TIP3    H254330   0.683   6.059  10.358  1.9586  0.1267 -0.2065
10947TIP3   OH254331   0.746   2.115   2.893  0.5382  0.4438 -0.1281
10947TIP3    H154332   0.696   2.184   2.936  2.6556  1.0371  1.5238
10947TIP3    H254333   0.686   2.081   2.827 -2.0786  1.0083  1.7828
10948TIP3   OH254334   6.260   3.825   4.149  0.0249  0.5726 -0.3155
10948TIP3    H154335   6.165   3.838   4.148 -0.4700 -2.2151 -2.1685
10948TIP3    H254336   6.288   3.850   4.062  0.9256  0.9185  0.0686
10949TIP3   OH254337   1.213   4.679   0.832 -0.3833  0.4390 -0.0717
10949TIP3    H154338   1.302   4.679   0.797 -0.5516 -1.4951 -0.6333
10949TIP3    H254339   1.222   4.643   0.920  0.0453  5.3145  2.1989
10950TIP3   OH254340   1.758   1.231  16.241 -0.0479  0.3794  0.0631
10950TIP3    H154341   1.708   1.168  16.190  1.6414  0.3793 -1.7226
10950TIP3    H254342   1.768   1.307  16.184 -0.9603  1.8055  1.6982
10951TIP3   OH254343   3.163   4.466  12.326  0.0560  0.0393 -0.4160
10951TIP3    H154344   3.084   4.417  12.302  0.7739 -0.7715 -1.2143
10951TIP3    H254345   3.145   4.555  12.296 -1.3528  0.3655  1.2507
10952TIP3   OH254346   0.411   1.305   3.988  0.0043 -0.3642 -0.0757
10952TIP3    H154347   0.432   1.254   3.910  1.0041  0.0983 -0.1175
10952TIP3    H254348   0.490   1.356   4.006  0.2981 -1.4605  2.0313
10953TIP3   OH254349   6.650   3.224   1.577  0.2039  0.7929  0.9250
10953TIP3    H154350   6.737   3.193   1.604 -0.1167  0.8291  2.0196
10953TIP3    H254351   6.667   3.304   1.529  0.9889 -0.5452 -1.1927
10954TIP3   OH254352   1.320   4.014   2.105 -0.2643 -0.1114  0.7054
10954TIP3    H154353   1.328   4.014   2.200  0.2298 -0.0258  0.6697
10954TIP3    H254354   1.256   4.083   2.086  1.0404  1.2133  0.8849
10955TIP3   OH254355   3.300   3.324   4.826  0.4087 -0.3456 -0.6666
10955TIP3    H154356   3.381   3.357   4.863  0.3280  1.7903 -2.1945
10955TIP3    H254357   3.303   3.349   4.734 -1.2292 -1.7465 -1.1713
10956TIP3   OH254358   1.507   1.731  11.786 -0.1589  0.2857 -0.1386
10956TIP3    H154359   1.565   1.804  11.767 -0.7704  0.4889 -1.3514
10956TIP3    H254360   1.565   1.660  11.813  0.3978  1.3622  1.5950
10957TIP3   OH254361   6.282   2.212  15.112  0.1557 -0.1838 -0.0569
10957TIP3    H154362   6.276   2.282  15.047 -0.6473 -0.6916 -0.5518
10957TIP3    H254363   6.304   2.257  15.194 -1.7106  0.8651 -0.0564
10958TIP3   OH254364   3.985   6.255   5.909 -0.6156  0.2950  0.2878
10958TIP3    H154365   3.925   6.259   5.835 -0.3048 -2.7131 -0.2407
10958TIP3    H254366   4.072   6.246   5.870 -0.1878  0.9367  1.0501
10959TIP3   OH254367   6.189   3.878  10.640 -0.8875  0.2904  0.4552
10959TIP3    H154368   6.265   3.924  10.604 -0.6044 -0.7455 -0.3315
10959TIP3    H254369   6.115   3.914  10.592 -1.0909  2.2066  2.0955
10960TIP3   OH254370   3.411   3.819  15.129  0.0656 -0.1415  0.0679
10960TIP3    H154371   3.406   3.890  15.193 -0.2602  2.1596 -2.3513
10960TIP3    H254372   3.484   3.842  15.072 -0.3111 -1.5210 -1.0364
10961TIP3   OH254373   5.039   1.322   0.637  0.3471  0.0183  0.3553
10961TIP3    H154374   5.095   1.399   0.628 -1.1608  1.2363  0.9102
10961TIP3    H254375   4.972   1.349   0.700 -1.7384 -0.8421 -1.3849
10962TIP3   OH254376   4.987   4.731  13.255 -0.0545  0.4478  0.7924
10962TIP3    H154377   4.894   4.733  13.278 -0.3825  1.3781 -0.4912
10962TIP3    H254378   4.988   4.736  13.160  1.3215  0.1401  0.7675
10963TIP3   OH254379   0.815   4.321  13.260  0.1139  0.7969 -0.8154
10963TIP3    H154380   0.897   4.273  13.272 -1.3857 -1.3471  1.9718
10963TIP3    H254381   0.759   4.261  13.212 -0.7776  0.9631 -0.0109
10964TIP3   OH254382   6.148   0.524   4.654  0.2572  0.0782  0.3182
10964TIP3    H154383   6.231   0.516   4.702  1.2975 -2.2225 -1.6444
10964TIP3    H254384   6.081   0.516   4.721  1.4924  3.1514  2.1376
10965TIP3   OH254385   6.037   4.716  12.821  0.0235 -0.2668 -0.0036
10965TIP3    H154386   5.987   4.654  12.768  1.4287 -1.6426  0.1962
10965TIP3    H254387   6.014   4.694  12.911  0.0905 -0.1345  0.0448
10966TIP3   OH254388   5.846   4.053   4.716 -0.3258 -0.2918 -0.3274
10966TIP3    H154389   5.826   4.026   4.626 -1.0801  0.2039 -0.3243
10966TIP3    H254390   5.934   4.019   4.733 -0.9696 -2.1406 -0.5326
10967TIP3   OH254391   0.949   4.084  16.630 -0.3289 -0.1058  0.4283
10967TIP3    H154392   1.021   4.068  16.690 -0.3284 -0.6102  0.3030
10967TIP3    H254393   0.870   4.079  16.685 -0.3888 -1.4450  0.2510
10968TIP3   OH254394   5.665   5.730   1.178  0.1116  0.7181 -0.5037
10968TIP3    H154395   5.746   5.773   1.204  0.1240  0.2530  0.2588
10968TIP3    H254396   5.609   5.801   1.147 -0.0537  1.3890  1.1953
10969TIP3   OH254397   1.496   6.217   3.373 -0.6346 -0.4021  0.0053
10969TIP3    H154398   1.520   6.252   3.287 -0.8312 -0.1416  0.0568
10969TIP3    H254399   1.419   6.267   3.399 -0.5052 -0.3990  0.3850
10970TIP3   OH254400   1.773   5.675   5.784  0.8250 -0.3338 -0.3229
10970TIP3    H154401   1.773   5.667   5.880  0.4189 -0.5366 -0.3374
10970TIP3    H254402   1.720   5.601   5.754  0.7684 -0.1447 -0.6955
10971TIP3   OH254403   6.099   3.022  11.020 -0.1851  0.0725 -0.2035
10971TIP3    H154404   6.075   3.029  10.927  1.3599 -0.2784 -0.6695
10971TIP3    H254405   6.182   2.974  11.019 -1.1051 -1.7012  1.5120
10972TIP3   OH254406   0.989   0.867   0.441 -0.2334 -0.2512  0.6345
10972TIP3    H154407   1.020   0.957   0.438 -1.6737  0.2789  0.7617
10972TIP3    H254408   0.962   0.848   0.351  1.4568 -1.1110  0.2639
10973TIP3   OH254409   2.853   1.283   1.005  0.1116  0.9042  0.3077
10973TIP3    H154410   2.758   1.280   1.005  0.1245 -0.7867 -0.4093
10973TIP3    H254411   2.880   1.209   1.060  1.0145  1.5334  0.7346
10974TIP3   OH254412   6.278   4.407   2.037 -0.2500 -0.1560  0.2208
10974TIP3    H154413   6.263   4.444   1.950 -0.0575 -2.3743 -0.8247
10974TIP3    H254414   6.208   4.343   2.049  1.3059 -1.9078  0.4550
10975TIP3   OH254415   0.743   0.001   3.929 -0.0169  0.0108  0.3819
10975TIP3    H154416   0.771  -0.078   3.884 -1.5880 -0.7241  0.6310
10975TIP3    H254417   0.745   0.069   3.861  1.1350 -0.2575  0.1213
10976TIP3   OH254418   4.735   0.723   5.480  0.0711  0.3856  0.7510
10976TIP3    H154419   4.706   0.814   5.473  0.5528  0.6308  1.7228
10976TIP3    H254420   4.657   0.675   5.509 -0.2534  0.4328 -0.0206
10977TIP3   OH254421   3.917   0.491   0.837  0.3613 -0.2200  0.4184
10977TIP3    H154422   3.875   0.545   0.904  1.1021  1.8851 -0.7314
10977TIP3    H254423   3.907   0.541   0.756  1.7579 -1.4740 -0.5843
10978TIP3   OH254424   5.594   1.621  15.772 -0.1869  0.2270  0.5249
10978TIP3    H154425   5.672   1.568  15.757 -1.4822 -1.1201 -2.2623
10978TIP3    H254426   5.604   1.696  15.712 -0.8600  0.2214  0.3966
10979TIP3   OH254427   1.915   2.559   2.792 -0.0477  0.7245 -0.4421
10979TIP3    H154428   1.997   2.545   2.745  0.4861 -0.9306  0.8447
10979TIP3    H254429   1.860   2.485   2.767 -0.3048  0.6266  0.3602
10980TIP3   OH254430   5.366   3.295  12.444 -0.0478 -0.4429  0.4150
10980TIP3    H154431   5.449   3.302  12.492  0.0876 -0.4555  0.1851
10980TIP3    H254432   5.299   3.291  12.513  0.2144 -1.4607  0.6342
10981TIP3   OH254433   6.058   0.554  14.939 -0.4537 -0.4382 -0.4141
10981TIP3    H154434   6.104   0.615  14.881 -1.1706 -0.0237 -0.5614
10981TIP3    H254435   5.995   0.608  14.986  0.1977 -0.7558  0.8539
10982TIP3   OH254436   4.449   1.152   3.741  0.3327  0.0820 -0.0093
10982TIP3    H154437   4.369   1.122   3.700 -0.4648  1.5329  0.4123
10982TIP3    H254438   4.495   1.072   3.767 -2.1418 -0.7777  2.0036
10983TIP3   OH254439   0.640   5.377  12.513  0.4166 -0.5102  0.3093
10983TIP3    H154440   0.706   5.386  12.583 -0.1244  0.8952  0.6686
10983TIP3    H254441   0.556   5.379  12.559  0.0815 -0.5395 -0.2961
10984TIP3   OH254442   6.737   2.082  13.526 -0.1881  0.4391 -0.0364
10984TIP3    H154443   6.700   2.001  13.489 -0.2151  0.0604  0.7812
10984TIP3    H254444   6.767   2.056  13.613  1.3695  0.9114 -0.4067
10985TIP3   OH254445   5.937   5.668   2.901  0.2969 -0.3116  0.3200
10985TIP3    H154446   6.026   5.649   2.870  0.2209 -0.2537  0.0639
10985TIP3    H254447   5.944   5.753   2.943  0.4321 -0.4563  0.5882
10986TIP3   OH254448   2.014   2.264  16.050 -0.1119  0.2323 -0.4106
10986TIP3    H154449   1.973   2.275  16.136 -1.2767  0.9814 -1.0301
10986TIP3    H254450   1.970   2.189  16.011  0.2340  0.0489 -0.4470
10987TIP3   OH254451   4.336   3.799   4.669  0.4898 -0.5027 -0.4878
10987TIP3    H154452   4.263   3.786   4.729 -0.8667  1.0439 -1.7279
10987TIP3    H254453   4.357   3.712   4.637 -0.0770 -1.0956  0.6861
10988TIP3   OH254454   2.007   2.604   1.704  0.0535 -0.2217  0.5575
10988TIP3    H154455   2.056   2.675   1.661 -2.8602  2.0435  0.6278
10988TIP3    H254456   2.021   2.618   1.797 -1.4600  1.0812  0.6188
10989TIP3   OH254457   5.111   5.326   0.045  0.0963 -0.1488  0.0030
10989TIP3    H154458   5.156   5.383   0.108  0.6179 -1.8441  1.2674
10989TIP3    H254459   5.181   5.273   0.007 -0.5692 -1.4891  0.5599
10990TIP3   OH254460   0.652   6.025   5.478 -0.0857 -0.1382 -0.2591
10990TIP3    H154461   0.578   5.985   5.432  1.6996 -1.6544 -2.0234
10990TIP3    H254462   0.630   6.118   5.483 -2.3629 -0.6331 -0.1509
10991TIP3   OH254463   3.763   5.547   4.374 -0.2731  0.0493 -0.4892
10991TIP3    H154464   3.775   5.514   4.463  0.1419  2.0148  0.2327
10991TIP3    H254465   3.672   5.526   4.353 -0.5625  0.1269  0.6459
10992TIP3   OH254466   4.902   6.552  14.103  0.6720 -0.8662  0.3037
10992TIP3    H154467   4.887   6.622  14.168  2.4723 -1.1078  1.0277
10992TIP3    H254468   4.987   6.516  14.126  2.1908  0.1175 -3.2142
10993TIP3   OH254469   1.399   5.220   0.996 -0.2714 -0.6580 -0.3065
10993TIP3    H154470   1.434   5.246   1.081  0.7948 -0.7132 -0.7047
10993TIP3    H254471   1.395   5.301   0.946 -0.2431 -0.7279 -0.4223
10994TIP3   OH254472   0.908   5.825   2.303 -0.1924 -0.4562  0.2125
10994TIP3    H154473   0.854   5.897   2.336  0.0880  0.0941 -0.4998
10994TIP3    H254474   0.938   5.855   2.217 -0.5093 -1.6493 -0.3377
10995TIP3   OH254475   1.634   6.645   2.371  0.5734 -0.6460  0.3154
10995TIP3    H154476   1.655   6.648   2.464  3.2402  2.2616 -0.2159
10995TIP3    H254477   1.689   6.713   2.332 -0.5802 -1.6234 -3.3858
10996TIP3   OH254478   0.436   3.746   1.703  0.1256  0.6429  0.1148
10996TIP3    H154479   0.477   3.739   1.617  0.2707  0.4961  0.1936
10996TIP3    H254480   0.390   3.830   1.702  0.6277  0.9183  0.1087
10997TIP3   OH254481   1.548   0.170   3.395  0.2869  0.3970 -0.3164
10997TIP3    H154482   1.524   0.145   3.306  2.5621  2.5396 -1.6546
10997TIP3    H254483   1.524   0.262   3.402 -0.2620  0.1547  1.4852
10998TIP3   OH254484   5.098   2.604  16.855  0.3861 -0.4280 -0.1594
10998TIP3    H154485   5.179   2.588  16.903  0.1195  0.5946  0.6607
10998TIP3    H254486   5.043   2.528  16.874  0.1845  0.0687  1.4070
10999TIP3   OH254487   5.838   3.340  15.117 -0.5125 -0.0698 -0.7582
10999TIP3    H154488   5.914   3.313  15.169 -1.9047 -3.4011 -0.2176
10999TIP3    H254489   5.876   3.379  15.038  1.6619  1.9739  1.1285
11000TIP3   OH254490   5.763   5.401  13.646  0.4957 -0.2947 -0.2970
11000TIP3    H154491   5.802   5.332  13.698 -2.3035 -1.7207  0.0889
11000TIP3    H254492   5.725   5.461  13.710  1.6394  0.8758 -0.6661
11001TIP3   OH254493   0.044   2.693   1.200  0.4959 -0.2778 -0.2957
11001TIP3    H154494   0.045   2.728   1.289 -4.0189  1.4336 -0.6860
11001TIP3    H254495   0.115   2.740   1.155  1.9449 -0.1600  1.9611
11002TIP3   OH254496   4.967   0.707  14.746 -0.4535 -0.3235  0.2837
11002TIP3    H154497   5.021   0.748  14.678 -1.5016 -1.3731 -1.2697
11002TIP3    H254498   4.934   0.627  14.704 -1.3106 -0.8959  1.9809
11003TIP3   OH254499   5.901   3.070   5.066 -0.5460 -0.0023 -0.6527
11003TIP3    H154500   5.921   2.980   5.093  2.2094  0.5385 -0.6011
11003TIP3    H254501   5.864   3.111   5.144  2.3334  0.0631  0.7961
11004TIP3   OH254502   6.352   3.743   3.079  0.1632 -0.1869  0.2285
11004TIP3    H154503   6.429   3.745   3.021 -0.6883  0.8834 -0.9333
11004TIP3    H254504   6.358   3.659   3.124  0.3462 -1.5418 -2.1755
11005TIP3   OH254505   0.242   0.359  12.476  0.0829  0.3448 -0.1695
11005TIP3    H154506   0.321   0.410  12.460 -0.8482  1.7264 -0.5159
11005TIP3    H254507   0.193   0.409  12.541 -0.8458 -0.1184 -0.4922
11006TIP3   OH254508   6.799   2.830   4.555 -0.2777  0.2528 -0.8811
11006TIP3    H154509   6.722   2.872   4.592 -1.2363 -0.1642 -2.3551
11006TIP3    H254510   6.774   2.804   4.467  1.3883 -0.3435 -1.2302
11007TIP3   OH254511   1.620   1.397  16.071 -0.1579 -0.3595 -0.4329
11007TIP3    H154512   1.544   1.407  16.128  1.0196 -0.8873  1.3194
11007TIP3    H254513   1.593   1.330  16.008 -1.0412 -0.7696  0.3524
11008TIP3   OH254514   3.805   1.289  12.630 -0.0207  0.1845 -0.0231
11008TIP3    H154515   3.890   1.261  12.596 -0.6156 -2.2526  0.3009
11008TIP3    H254516   3.741   1.249  12.571 -0.9756  0.4237  0.8288
11009TIP3   OH254517   2.403   0.045   3.477  0.3171  0.3256  0.0374
11009TIP3    H154518   2.318   0.054   3.520 -0.7222 -1.6067 -1.4701
11009TIP3    H254519   2.429   0.135   3.457 -1.6220  0.9311  0.0628
11010TIP3   OH254520   1.299   4.318   2.062 -0.7215 -0.1587  0.3774
11010TIP3    H154521   1.391   4.333   2.037 -0.9774 -0.0968 -0.5707
11010TIP3    H254522   1.302   4.303   2.157  0.6146 -2.8836  0.0013
11011TIP3   OH254523   4.134   2.378  15.714 -0.0906  0.2410 -0.7601
11011TIP3    H154524   4.091   2.455  15.750 -0.8259 -0.3340 -0.3557
11011TIP3    H254525   4.218   2.409  15.682  0.7836  0.7453  1.8086
11012TIP3   OH254526   4.493   0.903   3.572  0.1424  1.1733  0.3789
11012TIP3    H154527   4.516   0.830   3.516 -0.2572  0.8511  0.6252
11012TIP3    H254528   4.412   0.939   3.534 -0.5205  0.5173  1.1318
11013TIP3   OH254529   6.013   4.169   5.005 -0.1099 -0.6058 -0.0342
11013TIP3    H154530   5.985   4.193   4.916  1.4103  0.3195 -0.3079
11013TIP3    H254531   6.043   4.251   5.044  1.6677 -1.3946  0.3825
11014TIP3   OH254532   0.307   4.825  14.865 -0.0672 -0.3386  0.4501
11014TIP3    H154533   0.311   4.738  14.827  1.8016  0.1382 -0.5722
11014TIP3    H254534   0.213   4.844  14.872 -0.5389 -2.6637  1.3556
11015TIP3   OH254535   0.054   4.726  15.413  0.2976 -0.4666  0.1994
11015TIP3    H154536   0.108   4.803  15.395  0.3376 -0.6994 -0.7391
11015TIP3    H254537  -0.035   4.761  15.417  0.4893 -0.0957  1.6671
11016TIP3   OH254538   6.412   2.263  11.734  0.4152  0.1040  0.2590
11016TIP3    H154539   6.390   2.300  11.820  1.3822  1.7936 -0.1844
11016TIP3    H254540   6.418   2.168  11.750  4.0322  0.5696  2.8932
11017TIP3   OH254541   3.225   4.446  15.363 -0.2943 -0.1981 -0.3207
11017TIP3    H154542   3.217   4.405  15.277 -1.9209  0.3108 -0.4403
11017TIP3    H254543   3.229   4.540  15.344  2.0684 -0.1592  0.0328
11018TIP3   OH254544   3.799   2.596   1.447 -0.2817 -0.5808 -0.5238
11018TIP3    H154545   3.780   2.676   1.397 -0.2358 -0.3599 -0.1923
11018TIP3    H254546   3.801   2.526   1.381  2.2497  0.0570 -1.2469
11019TIP3   OH254547   5.760   5.180   2.342 -0.5453  0.2475 -0.2200
11019TIP3    H154548   5.786   5.257   2.393 -1.9018  0.3537  0.3706
11019TIP3    H254549   5.730   5.215   2.259  2.8184 -0.0170 -1.6748
11020TIP3   OH254550   5.585   3.738  10.067  0.2898  0.3290  0.3583
11020TIP3    H154551   5.505   3.753  10.117 -0.4499  1.1209 -0.9891
11020TIP3    H254552   5.555   3.696   9.986  0.9502  2.2558 -0.9732
11021TIP3   OH254553   4.282   2.283  14.246 -0.5147  0.0993  0.0086
11021TIP3    H154554   4.250   2.299  14.157 -1.9092 -0.4764  0.3775
11021TIP3    H254555   4.203   2.273  14.298  0.2102  2.7831  1.8173
11022TIP3   OH254556   2.169   5.209   1.892 -0.0197 -0.0073 -0.6330
11022TIP3    H154557   2.134   5.121   1.880 -0.7542  0.3594 -1.2433
11022TIP3    H254558   2.137   5.236   1.978  1.0879 -0.7246  0.0304
11023TIP3   OH254559   1.703   2.506   3.137  0.3513 -0.3323  0.2787
11023TIP3    H154560   1.793   2.487   3.165  1.0244  0.2767 -1.3501
11023TIP3    H254561   1.649   2.477   3.210  2.0459  2.9001  3.1743
11024TIP3   OH254562   2.507   2.849   5.889  0.5602 -1.0631  1.1233
11024TIP3    H154563   2.433   2.867   5.947  0.4719  1.5350  0.3273
11024TIP3    H254564   2.470   2.847   5.801  1.2938 -0.6531  0.7923
11025TIP3   OH254565   1.936   4.587   1.631 -0.4367  0.0968  1.2760
11025TIP3    H154566   1.938   4.500   1.670  0.8143  0.1059  1.2700
11025TIP3    H254567   2.012   4.589   1.572 -1.9842  0.2553 -0.7971
11026TIP3   OH254568   5.616   1.802  11.639  0.2593 -0.3605  0.8187
11026TIP3    H154569   5.704   1.833  11.658 -0.3004 -0.1427  3.3780
11026TIP3    H254570   5.628   1.711  11.611  1.2506 -0.6885  2.1933
11027TIP3   OH254571   5.603   4.172  13.364  0.0415  0.8399  0.0286
11027TIP3    H154572   5.677   4.230  13.378  0.6678 -0.1367  0.9100
11027TIP3    H254573   5.554   4.212  13.292  0.1116  2.7644  0.9907
11028TIP3   OH254574   5.736   0.991  11.112  1.1658 -0.5094 -0.2791
11028TIP3    H154575   5.735   0.899  11.087 -0.5902 -0.0923 -1.9787
11028TIP3    H254576   5.644   1.019  11.106  1.6848  1.4069 -0.0797
11029TIP3   OH254577   6.812   4.438   3.138 -0.0770  0.0535  0.5669
11029TIP3    H154578   6.768   4.457   3.054 -1.0315 -1.3611  0.6983
11029TIP3    H254579   6.748   4.464   3.204  1.0607  2.0824  0.9239
11030TIP3   OH254580   6.271   3.302   0.974  0.3970  0.1743 -0.2605
11030TIP3    H154581   6.259   3.246   0.898  1.3260  1.6310 -1.5475
11030TIP3    H254582   6.208   3.374   0.961 -0.5451 -0.3518  1.1778
11031TIP3   OH254583   1.156   2.078   4.383  0.1050 -0.2227  0.0719
11031TIP3    H154584   1.232   2.081   4.441  0.5228  0.0998 -0.4809
11031TIP3    H254585   1.158   1.990   4.345  0.7210  0.0733 -0.6102
11032TIP3   OH254586   3.700   2.347  15.648 -0.5484  0.0405  0.9554
11032TIP3    H154587   3.717   2.331  15.740  0.4446  1.5642  1.0721
11032TIP3    H254588   3.634   2.417  15.647 -1.3707 -0.7257  0.4990
11033TIP3   OH254589   1.120   6.628   1.229  0.0531 -0.1189  0.1746
11033TIP3    H154590   1.169   6.564   1.179 -1.8903 -1.3307 -0.3024
11033TIP3    H254591   1.031   6.624   1.192 -0.4880  1.7715  1.1402
11034TIP3   OH254592   0.756   4.550  13.439  0.1679  0.2835 -0.8444
11034TIP3    H154593   0.669   4.586  13.461 -0.9301 -2.7804  0.3651
11034TIP3    H254594   0.739   4.491  13.365  1.1437 -0.5073 -0.4548
11035TIP3   OH254595   1.017   2.975   6.403  0.2585  0.2165 -0.2101
11035TIP3    H154596   1.057   3.029   6.335  0.2829  2.0260  1.1602
11035TIP3    H254597   1.084   2.909   6.423  0.7737  0.4788 -1.0259
11036TIP3   OH254598   2.594   1.151  14.790 -0.1662 -0.2852  0.7368
11036TIP3    H154599   2.540   1.120  14.863  0.2075 -1.3957  0.5526
11036TIP3    H254600   2.639   1.073  14.758 -1.4627 -0.1421 -1.6568
11037TIP3   OH254601   4.100   5.289  13.826 -0.1610 -0.2682 -0.1785
11037TIP3    H154602   4.006   5.278  13.813 -0.1287  0.8482 -1.4920
11037TIP3    H254603   4.131   5.202  13.852 -1.8184 -0.2356  2.1653
11038TIP3   OH254604   5.854   4.266   3.059  0.4498  0.6976 -0.6033
11038TIP3    H154605   5.837   4.359   3.073  0.5365  0.6357 -0.0927
11038TIP3    H254606   5.779   4.222   3.099  0.2365  0.5547 -1.1393
11039TIP3   OH254607   5.026   0.819  14.498 -0.3242 -0.1419 -0.0495
11039TIP3    H154608   5.116   0.843  14.478 -0.5301  0.4550 -0.2852
11039TIP3    H254609   5.025   0.723  14.492  0.5419 -0.2392  1.0454
11040TIP3   OH254610   1.755   3.673   1.363  0.6626  0.4205  0.0582
11040TIP3    H154611   1.706   3.721   1.431  0.5055 -1.4599  1.3460
11040TIP3    H254612   1.745   3.581   1.387  1.9403 -0.2128 -1.6598
11041TIP3   OH254613   6.183   0.773   2.116  0.3944 -0.2848  0.6870
11041TIP3    H154614   6.165   0.796   2.207 -1.3387 -1.5754  0.7294
11041TIP3    H254615   6.218   0.684   2.120 -1.3948 -1.0633  0.0203
11042TIP3   OH254616   6.214   3.791   5.363 -0.1785  0.1770  0.2184
11042TIP3    H154617   6.199   3.838   5.281 -2.8482  1.8820  1.5454
11042TIP3    H254618   6.305   3.811   5.385 -0.4602  2.7598 -0.5499
11043TIP3   OH254619   5.587   4.114  14.402 -0.2953  0.1028  0.5300
11043TIP3    H154620   5.543   4.132  14.485  0.7238  0.9484  0.9221
11043TIP3    H254621   5.541   4.168  14.338 -0.8052 -0.2084  0.6365
11044TIP3   OH254622   0.512   3.793  12.126 -0.4293 -0.3500 -0.0762
11044TIP3    H154623   0.478   3.727  12.185 -1.1737  0.7037  0.7081
11044TIP3    H254624   0.448   3.797  12.055 -1.6329  1.1215  1.0362
11045TIP3   OH254625   6.536   0.500  13.686 -0.8620 -0.0505 -0.0225
11045TIP3    H154626   6.573   0.586  13.665 -2.3828  0.1739 -2.0752
11045TIP3    H254627   6.551   0.491  13.780  0.4834  1.8749  0.0264
11046TIP3   OH254628   1.429   3.208  12.433 -0.2326  0.1167 -0.4269
11046TIP3    H154629   1.474   3.180  12.513 -1.5792 -2.8437 -0.5773
11046TIP3    H254630   1.489   3.184  12.362 -0.2049  0.2092 -0.4347
11047TIP3   OH254631   1.116   5.422  16.530 -0.0416 -0.0098  0.4820
11047TIP3    H154632   1.033   5.463  16.556  0.4771  0.8932  0.7665
11047TIP3    H254633   1.114   5.421  16.435 -0.4233 -0.0878  0.4891
11048TIP3   OH254634   2.254   1.424   1.745  0.2225  0.1174  0.1435
11048TIP3    H154635   2.267   1.393   1.655  0.7955 -1.3315  0.6965
11048TIP3    H254636   2.159   1.433   1.753 -0.0187 -1.9174  0.0398
11049TIP3   OH254637   3.697   6.371  12.457 -0.3288 -0.2098 -0.0465
11049TIP3    H154638   3.705   6.391  12.364  3.1649  0.1039  0.1802
11049TIP3    H254639   3.603   6.368  12.473 -1.0558 -0.2459 -3.5456
11050TIP3   OH254640   5.043   1.004  11.122 -0.2518 -0.0343  0.2831
11050TIP3    H154641   5.037   1.097  11.142 -1.2985  0.1854 -0.8939
11050TIP3    H254642   5.072   0.963  11.203 -0.7899  1.1958  1.1199
11051TIP3   OH254643   2.686   3.386   1.770 -0.0603 -0.0915  0.5784
11051TIP3    H154644   2.684   3.460   1.710  0.4460 -0.1198  0.5162
11051TIP3    H254645   2.744   3.323   1.727  1.4526  0.4506  1.7089
11052TIP3   OH254646   2.666   4.144  13.372  0.3715 -0.2558 -0.1298
11052TIP3    H154647   2.666   4.198  13.293  0.5134 -0.5518 -0.3359
11052TIP3    H254648   2.726   4.072  13.352 -0.1092 -0.7002 -0.0084
11053TIP3   OH254649   2.918   5.371   1.091  0.1945 -0.3285  0.1499
11053TIP3    H154650   2.955   5.289   1.060 -0.1728 -0.1972 -0.6482
11053TIP3    H254651   2.989   5.434   1.082  0.5485 -0.5985  0.9781
11054TIP3   OH254652   5.393   1.463  16.310 -0.0310 -0.6917  0.6043
11054TIP3    H154653   5.318   1.474  16.251  0.2145 -3.0479 -0.2705
11054TIP3    H254654   5.449   1.538  16.293 -1.3570  0.1833 -0.0258
11055TIP3   OH254655   1.822   6.414   0.439 -0.1783 -0.3282  0.2443
11055TIP3    H154656   1.794   6.322   0.440  2.2942 -1.3222 -2.8475
11055TIP3    H254657   1.852   6.431   0.528  0.1538 -2.8320  0.6873
11056TIP3   OH254658   1.691   3.537  13.184  0.2186  0.2247 -0.8945
11056TIP3    H154659   1.762   3.529  13.121  0.1956 -2.0019 -0.7111
11056TIP3    H254660   1.642   3.455  13.177 -0.2080  0.1803  1.4995
11057TIP3   OH254661   1.833   3.116   3.337 -0.5000 -0.1905  0.5486
11057TIP3    H154662   1.819   3.025   3.311 -1.7768 -0.5068  2.1641
11057TIP3    H254663   1.928   3.124   3.345 -0.4176 -2.6742  4.4796
11058TIP3   OH254664   4.431   5.830   2.547  0.2004  0.3610  0.3800
11058TIP3    H154665   4.405   5.753   2.496 -0.6630  1.4148 -0.8398
11058TIP3    H254666   4.353   5.854   2.596  0.0486  1.2169 -0.2574
11059TIP3   OH254667   0.359   5.629   6.815  0.2228  0.2080  0.0524
11059TIP3    H154668   0.435   5.572   6.825 -0.0362  0.0710  1.5506
11059TIP3    H254669   0.388   5.713   6.851  0.4556  0.9308 -1.7227
11060TIP3   OH254670   2.821   6.785   4.112 -0.1232  0.2790 -0.4990
11060TIP3    H154671   2.894   6.723   4.112  0.6327  1.1242 -1.6655
11060TIP3    H254672   2.746   6.733   4.084  0.3314 -0.3055 -0.6537
11061TIP3   OH254673   4.475   0.773  13.064  0.1655  0.1562 -0.5693
11061TIP3    H154674   4.406   0.712  13.091 -0.6757  1.3658  0.1347
11061TIP3    H254675   4.464   0.781  12.970 -0.3290 -0.0575 -0.5350
11062TIP3   OH254676   5.562   3.332  15.034 -0.3583 -0.3051 -0.4681
11062TIP3    H154677   5.581   3.417  14.994 -1.5504  0.9267  1.4533
11062TIP3    H254678   5.644   3.306  15.076 -0.5753  1.0474  0.8767
11063TIP3   OH254679   3.492   1.168   2.041  0.0406  0.5173 -0.2713
11063TIP3    H154680   3.540   1.248   2.065 -0.9067  2.3185 -3.7675
11063TIP3    H254681   3.553   1.118   1.988 -0.1719  0.0585 -0.0899
11064TIP3   OH254682   1.472   6.008  13.253  0.2083  0.4558 -0.1670
11064TIP3    H154683   1.475   5.916  13.229 -2.9397  0.1614  0.1532
11064TIP3    H254684   1.517   6.012  13.338 -2.8328 -1.6187  1.7468
11065TIP3   OH254685   5.811   3.308   3.433 -0.3093 -0.1946 -0.2102
11065TIP3    H154686   5.754   3.292   3.509 -1.2197  0.9291 -0.6215
11065TIP3    H254687   5.753   3.300   3.358  0.5963 -1.3377 -0.8122
11066TIP3   OH254688   4.590   3.405  14.425  0.1289 -0.1106  0.4230
11066TIP3    H154689   4.540   3.351  14.487  0.9058 -0.7088  0.5395
11066TIP3    H254690   4.544   3.489  14.426 -0.8582 -0.6298  0.5458
11067TIP3   OH254691   3.226   6.144  13.596  0.0390 -0.2466  0.0358
11067TIP3    H154692   3.260   6.224  13.634 -2.0689  0.7117  0.0422
11067TIP3    H254693   3.285   6.125  13.523  0.8968  0.9746  0.3855
11068TIP3   OH254694   0.802   1.004  13.358 -0.0941  0.2498 -0.5337
11068TIP3    H154695   0.794   0.914  13.328 -0.7747  0.3177 -0.5871
11068TIP3    H254696   0.722   1.047  13.326  0.9739  1.2942 -1.9126
11069TIP3   OH254697   1.704   3.382  15.829 -0.2527  0.6713  0.1368
11069TIP3    H154698   1.740   3.464  15.794  2.3583 -0.1129  0.7372
11069TIP3    H254699   1.681   3.403  15.920 -0.6965  1.0143 -0.0521
11070TIP3   OH254700   0.219   2.876   4.532 -0.3532  0.4318 -0.5861
11070TIP3    H154701   0.234   2.952   4.588 -0.6959 -0.0503  0.1760
11070TIP3    H254702   0.124   2.863   4.533 -0.2797 -0.1373 -0.5217
11071TIP3   OH254703   5.618   4.085   4.278  0.5531  0.1999  0.0925
11071TIP3    H154704   5.713   4.088   4.275  0.5571  0.2903  0.2733
11071TIP3    H254705   5.591   4.071   4.187  0.7389  0.1647  0.0431
11072TIP3   OH254706   5.761   1.595   2.110  0.6743 -0.2147  0.0872
11072TIP3    H154707   5.735   1.615   2.199 -1.5984 -0.0246 -0.5543
11072TIP3    H254708   5.835   1.653   2.092 -0.7359  1.9275  0.8819
11073TIP3   OH254709   2.733   4.187  14.709  0.0517  0.0587 -0.2064
11073TIP3    H154710   2.716   4.248  14.781  0.4823 -0.5466  0.4235
11073TIP3    H254711   2.752   4.243  14.634  2.0980  0.7356  0.7350
11074TIP3   OH254712   5.549   1.394   1.806 -0.5647 -0.6423  0.1197
11074TIP3    H154713   5.643   1.376   1.799 -0.6739 -2.0641  1.6341
11074TIP3    H254714   5.507   1.319   1.764 -1.0063 -1.0917  1.3018
11075TIP3   OH254715   6.775   3.033   0.992 -0.1155  0.5827 -0.3764
11075TIP3    H154716   6.796   3.028   1.085 -0.2422 -0.4039 -0.3943
11075TIP3    H254717   6.859   3.017   0.948 -0.3258 -0.4377 -0.4303
11076TIP3   OH254718   2.078   5.710  11.062 -0.2708 -0.2088 -0.0690
11076TIP3    H154719   2.095   5.804  11.055 -0.6402  0.0392  1.7722
11076TIP3    H254720   2.165   5.670  11.057  0.2367  0.4874  1.8728
11077TIP3   OH254721   2.990   0.260  12.250 -0.4926 -0.1345  0.3129
11077TIP3    H154722   3.067   0.277  12.305  1.4657 -1.4412 -1.8388
11077TIP3    H254723   2.932   0.208  12.305  0.3189  0.5464  1.8761
11078TIP3   OH254724   6.066   0.128   4.535 -0.4488  0.1635 -0.1421
11078TIP3    H154725   6.038   0.202   4.589  0.2073  0.3559 -0.0602
11078TIP3    H254726   6.027   0.144   4.449 -1.8045 -0.3206  0.3361
11079TIP3   OH254727   5.019   3.189  16.059  0.3236 -0.0038 -0.0772
11079TIP3    H154728   4.937   3.236  16.051 -0.2189 -0.6427  1.4116
11079TIP3    H254729   4.994   3.102  16.088  1.3609 -1.0394 -2.0705
11080TIP3   OH254730   3.426   4.388  14.631  0.0196  0.4475 -0.1122
11080TIP3    H154731   3.512   4.399  14.672  0.4290  0.0864 -0.8550
11080TIP3    H254732   3.430   4.442  14.552 -0.4137  0.3774 -0.1861
11081TIP3   OH254733   4.318   5.976  16.985  0.1135 -0.0947 -0.0549
11081TIP3    H154734   4.405   5.962  16.947  0.8056 -0.2422  1.5168
11081TIP3    H254735   4.335   6.000  17.076 -1.4813  0.5132  0.1200
11082TIP3   OH254736   5.344   0.274  11.422 -0.4875  0.2426 -0.3070
11082TIP3    H154737   5.288   0.317  11.486 -1.6441 -1.8636  0.1674
11082TIP3    H254738   5.422   0.247  11.471  0.2310  1.6785 -0.6012
11083TIP3   OH254739   6.142   6.316  16.188  0.0997 -0.0803  0.0836
11083TIP3    H154740   6.050   6.289  16.193  0.0697  0.1465  0.8963
11083TIP3    H254741   6.191   6.234  16.181 -0.0861 -0.2838  1.0145
11084TIP3   OH254742   6.334   2.723  11.720  0.1276 -0.0549 -0.0356
11084TIP3    H154743   6.387   2.787  11.673 -1.3474  0.4312 -1.0918
11084TIP3    H254744   6.251   2.721  11.673  0.3816 -3.3994 -0.5657
11085TIP3   OH254745   2.381   0.423  12.806 -0.3564 -0.0344  0.4554
11085TIP3    H154746   2.338   0.360  12.863 -0.8982  1.4145  1.7212
11085TIP3    H254747   2.315   0.444  12.739  0.2407 -1.6465 -0.7142
11086TIP3   OH254748   5.684   2.797  13.416 -0.3837 -0.0557 -0.9132
11086TIP3    H154749   5.653   2.887  13.428 -1.3127 -0.3040 -1.3390
11086TIP3    H254750   5.697   2.789  13.322  0.4538 -0.1386 -0.7989
11087TIP3   OH254751   5.694   2.845   1.219 -0.0901  0.2512  0.1808
11087TIP3    H154752   5.725   2.775   1.162  1.3454 -0.9497  2.3038
11087TIP3    H254753   5.730   2.824   1.305  0.4675  3.6413  0.9320
11088TIP3   OH254754   1.412   2.692  14.105 -0.1376 -0.2756 -0.3490
11088TIP3    H154755   1.490   2.637  14.097  1.7936  1.9451  1.5409
11088TIP3    H254756   1.394   2.720  14.015  1.0303 -1.1035 -0.8830
11089TIP3   OH254757   1.977   5.176   3.251 -0.1518 -0.4433 -0.0537
11089TIP3    H154758   1.886   5.156   3.227 -1.0997 -0.9431  3.3950
11089TIP3    H254759   2.011   5.094   3.286 -0.0137  0.7884  2.9971
11090TIP3   OH254760   3.086   1.649   2.321 -0.5272  0.1959  0.3744
11090TIP3    H154761   3.050   1.641   2.233  0.3710 -1.6112  0.1268
11090TIP3    H254762   3.181   1.651   2.307 -0.2656 -2.3394  1.3819
11091TIP3   OH254763   2.268   0.645   4.342 -0.6655  0.4381 -0.5137
11091TIP3    H154764   2.303   0.717   4.290  1.4402  1.6472  2.3194
11091TIP3    H254765   2.190   0.682   4.384  0.3908  1.1544  0.9073
11092TIP3   OH254766   2.991   4.717   0.547  0.2176  0.0970  0.0089
11092TIP3    H154767   2.973   4.808   0.526  0.7648  0.1449 -0.2763
11092TIP3    H254768   3.026   4.718   0.636  0.5341  0.1991 -0.1183
11093TIP3   OH254769   1.434   0.826  14.079 -0.1114  0.6165  0.5148
11093TIP3    H154770   1.521   0.854  14.107 -0.0030  1.1351 -0.3123
11093TIP3    H254771   1.428   0.735  14.109  0.5004  0.7411  1.0536
11094TIP3   OH254772   6.376   2.777   3.651  0.2521  0.3083  0.0249
11094TIP3    H154773   6.370   2.783   3.746 -0.8625  0.0425 -0.0127
11094TIP3    H254774   6.411   2.690   3.634  1.9846  0.9441  0.2149
11095TIP3   OH254775   4.078   1.940   3.811  0.1669 -0.3833 -0.2858
11095TIP3    H154776   4.111   1.900   3.730 -1.2683 -1.9011 -0.1768
11095TIP3    H254777   4.102   2.032   3.803  1.7791 -0.8480 -1.5222
11096TIP3   OH254778   4.101   0.014  16.569  0.1024  0.0396  0.1603
11096TIP3    H154779   4.101  -0.081  16.578 -1.7650 -0.0648 -0.4376
11096TIP3    H254780   4.166   0.045  16.633  0.5842 -1.6009  0.5096
11097TIP3   OH254781   2.226   0.429  14.177 -0.0228  0.2402 -0.1636
11097TIP3    H154782   2.249   0.463  14.263 -1.2891  1.2111 -0.1823
11097TIP3    H254783   2.194   0.505  14.129 -0.3877 -0.4951 -1.1169
11098TIP3   OH254784   4.357   0.936   4.586 -0.6273 -0.4098 -0.0968
11098TIP3    H154785   4.319   1.020   4.562  0.4703  0.0676 -0.2115
11098TIP3    H254786   4.282   0.879   4.603 -1.3914  0.2981 -1.0280
11099TIP3   OH254787   1.171   3.130   4.057 -0.3500 -0.0426  0.3656
11099TIP3    H154788   1.206   3.143   4.145 -0.2963 -0.3671  0.3956
11099TIP3    H254789   1.248   3.111   4.003 -0.1252  2.1965 -0.1864
11100TIP3   OH254790   4.550   5.819   0.454 -1.0817 -0.5754  0.0606
11100TIP3    H154791   4.512   5.860   0.532  0.5591 -0.0624  0.6311
11100TIP3    H254792   4.614   5.882   0.422 -0.1764 -1.6856 -0.4069
11101TIP3   OH254793   1.077   6.177  15.803 -0.1193 -0.1854  0.6241
11101TIP3    H154794   1.040   6.178  15.715  3.4005 -0.0317 -1.0390
11101TIP3    H254795   1.059   6.089  15.835 -1.0628 -0.4015 -0.4351
11102TIP3   OH254796   1.813   4.528   2.541 -0.0881 -0.8816 -0.0581
11102TIP3    H154797   1.738   4.511   2.598  1.7721  1.3449  3.4124
11102TIP3    H254798   1.787   4.604   2.489 -0.1519  0.1831  1.4728
11103TIP3   OH254799   4.713   1.474   1.045 -0.1130 -0.1009  0.5540
11103TIP3    H154800   4.680   1.384   1.042  1.4263 -0.6806 -0.1658
11103TIP3    H254801   4.635   1.528   1.052 -0.9893 -1.5813  5.3506
11104TIP3   OH254802   1.669   4.782   0.251  0.1845  1.0539  1.3552
11104TIP3    H154803   1.691   4.691   0.233 -1.5951  0.5846  1.3416
11104TIP3    H254804   1.753   4.827   0.251  1.1119 -0.5780  1.3653
11105TIP3   OH254805   2.619   1.224  14.521 -0.2440  0.3434 -0.4712
11105TIP3    H154806   2.567   1.234  14.601  1.0140 -0.5210  0.4911
11105TIP3    H254807   2.567   1.267  14.453 -1.6027  0.6167  0.6978
11106TIP3   OH254808   4.798   4.218  11.827 -0.1986  0.3476  0.7420
11106TIP3    H154809   4.765   4.217  11.737 -0.4731  2.0403  0.8011
11106TIP3    H254810   4.868   4.153  11.827  0.3689  0.9061 -0.9385
11107TIP3   OH254811   6.704   4.068  16.856 -0.1637  0.3961  0.6475
11107TIP3    H154812   6.786   4.103  16.889  0.3950 -0.0071 -0.2620
11107TIP3    H254813   6.713   3.973  16.864  0.2124  0.2492 -1.0884
11108TIP3   OH254814   0.623   1.188  14.342 -0.0441 -0.2898 -0.8077
11108TIP3    H154815   0.612   1.100  14.376  0.0868 -0.4418 -1.1518
11108TIP3    H254816   0.547   1.236  14.373 -0.1121 -0.5245 -0.6166
11109TIP3   OH254817   3.111   0.547  15.411 -0.0637  0.2905 -0.3806
11109TIP3    H154818   3.114   0.471  15.469  1.0691 -0.1665 -1.0009
11109TIP3    H254819   3.019   0.571  15.407 -0.6190 -1.7532 -1.0497
11110TIP3   OH254820   5.234   3.810  11.813 -0.0501 -0.1949 -0.0746
11110TIP3    H154821   5.270   3.879  11.869 -1.8355  0.3960  0.4010
11110TIP3    H254822   5.193   3.748  11.873 -3.8378  1.4879 -0.6140
11111TIP3   OH254823   4.228   6.186   3.697  0.7068  0.2362 -0.0372
11111TIP3    H154824   4.273   6.206   3.779  2.9310  0.0790 -1.1339
11111TIP3    H254825   4.284   6.120   3.654 -0.3679  0.3304 -1.6902
11112TIP3   OH254826   2.681   1.629   4.907 -0.2187 -0.2595 -0.4896
11112TIP3    H154827   2.710   1.715   4.935 -0.9746 -0.1165 -0.1347
11112TIP3    H254828   2.695   1.573   4.983  1.0541 -0.6546 -0.9755
11113TIP3   OH254829   5.672   4.280  12.950  0.1854  0.3890 -0.0241
11113TIP3    H154830   5.667   4.221  12.874  1.0468 -1.4149  1.2566
11113TIP3    H254831   5.660   4.223  13.026  1.3406  1.8122  1.2948
11114TIP3   OH254832   3.958   5.513  15.658  0.6191  0.5289 -0.4046
11114TIP3    H154833   3.883   5.454  15.650 -0.2891  1.5556  0.1725
11114TIP3    H254834   4.028   5.458  15.692 -0.4632 -0.0649  0.9943
11115TIP3   OH254835   5.605   0.785   3.347  0.1201 -0.1336  0.0168
11115TIP3    H154836   5.513   0.778   3.323 -0.3884  4.0940 -0.0263
11115TIP3    H254837   5.647   0.824   3.271  1.3054  0.7862  1.0931
11116TIP3   OH254838   6.198   2.143   1.601  0.6468 -0.6084 -0.2182
11116TIP3    H154839   6.176   2.135   1.694 -2.2044  0.3802 -0.7033
11116TIP3    H254840   6.294   2.133   1.598  0.7658 -1.2916  2.7083
11117TIP3   OH254841   0.372   4.037  14.578  0.2365 -0.0528 -0.6356
11117TIP3    H154842   0.329   3.985  14.510  0.2874 -0.5476 -0.2920
11117TIP3    H254843   0.380   4.125  14.540  1.1150 -0.5469 -1.6506
11118TIP3   OH254844   6.603   3.442   1.376  0.0091 -0.1460 -0.1724
11118TIP3    H154845   6.559   3.526   1.368 -0.6394 -0.3774  0.8657
11118TIP3    H254846   6.642   3.427   1.289 -2.5400 -0.2533 -1.3839
11119TIP3   OH254847   6.020   0.497   5.489 -0.5050  0.4018 -0.4670
11119TIP3    H154848   6.108   0.460   5.500 -0.6531 -0.6033 -2.3168
11119TIP3    H254849   5.961   0.426   5.515 -0.7978  0.8391  0.0953
11120TIP3   OH254850   4.722   1.146   0.028 -0.1981  0.3221 -0.1451
11120TIP3    H154851   4.769   1.063   0.026 -1.4587 -0.4249  0.6829
11120TIP3    H254852   4.662   1.139   0.101 -0.6907  1.7780 -0.3666
11121TIP3   OH254853   4.462   0.260  13.463 -0.7092  0.3971 -0.8060
11121TIP3    H154854   4.489   0.270  13.554  0.0262  0.7895 -1.0623
11121TIP3    H254855   4.509   0.329  13.416  0.8490 -1.3160 -1.8738
11122TIP3   OH254856   1.575   6.377  16.779 -0.4515  1.0234  0.3927
11122TIP3    H154857   1.515   6.327  16.724 -0.7949  0.5096  1.2207
11122TIP3    H254858   1.519   6.437  16.828 -0.3882  0.0597  1.6838
11123TIP3   OH254859   2.712   1.276  12.793  0.0630  0.5311  0.0348
11123TIP3    H154860   2.638   1.233  12.836  0.5203 -0.1174  0.1958
11123TIP3    H254861   2.672   1.337  12.731 -0.6122 -0.5955 -0.6709
11124TIP3   OH254862   6.211   5.601   0.352  0.4721 -0.0310  0.1915
11124TIP3    H154863   6.210   5.694   0.377  0.6723 -0.0680  0.3369
11124TIP3    H254864   6.215   5.554   0.435  0.8175 -0.1611  0.1024
11125TIP3   OH254865   4.383   6.523  11.776 -0.1906 -0.6223 -0.1586
11125TIP3    H154866   4.308   6.467  11.755  0.2614 -0.7345 -1.5444
11125TIP3    H254867   4.344   6.607  11.802 -0.8674 -1.4746  1.7593
11126TIP3   OH254868   3.074   2.099  16.221 -0.5963 -0.4699  0.0054
11126TIP3    H154869   2.995   2.049  16.243 -0.5428 -1.7443 -2.3320
11126TIP3    H254870   3.146   2.051  16.263 -0.9888  0.6720  2.1072
11127TIP3   OH254871   1.800   3.931  13.453  0.7138 -0.0009  0.1548
11127TIP3    H154872   1.862   3.977  13.510  0.6480 -1.8828  1.8640
11127TIP3    H254873   1.847   3.853  13.424  0.2869  0.2753 -1.3843
11128TIP3   OH254874   0.558   5.197  16.706  0.3830  0.4013  0.7015
11128TIP3    H154875   0.616   5.255  16.756  0.2220  2.4590 -1.3480
11128TIP3    H254876   0.498   5.256  16.661 -0.1382 -1.3927 -1.0975
11129TIP3   OH254877   1.034   4.149   4.283 -0.3317  0.1352 -0.3652
11129TIP3    H154878   1.043   4.060   4.316  1.8132  1.4982  3.2780
11129TIP3    H254879   1.105   4.159   4.220  0.7902 -0.1845  0.7953
11130TIP3   OH254880   5.111   6.535   4.974 -0.0583  0.1149 -0.1965
11130TIP3    H154881   5.024   6.567   4.999 -0.4012 -1.3034  0.5520
11130TIP3    H254882   5.148   6.605   4.920 -1.7847  0.6303 -0.7856
11131TIP3   OH254883   3.713   3.250  12.782 -0.1450  0.0331 -0.3531
11131TIP3    H154884   3.637   3.192  12.783  0.1382 -0.3715  1.4782
11131TIP3    H254885   3.723   3.278  12.873  3.2189 -1.7160 -0.0112
11132TIP3   OH254886   3.615   1.953   3.136 -0.2341 -0.3768  0.0753
11132TIP3    H154887   3.536   1.900   3.139  0.0198 -0.7441  0.3289
11132TIP3    H254888   3.603   2.010   3.060 -0.7331 -0.4374  0.1048
11133TIP3   OH254889   6.328   1.600  13.361 -0.3996  0.0391  0.0198
11133TIP3    H154890   6.326   1.627  13.269 -1.1302  1.4317  0.4163
11133TIP3    H254891   6.240   1.620  13.394 -0.2056 -0.6159  0.9823
11134TIP3   OH254892   3.408   2.451   3.317 -0.6425  0.1104  0.4977
11134TIP3    H154893   3.412   2.419   3.407 -0.4911 -0.4950  0.2799
11134TIP3    H254894   3.316   2.469   3.302 -0.7845 -0.6208  0.4864
11135TIP3   OH254895   5.543   3.294  10.503 -0.2444 -0.0030  0.3732
11135TIP3    H154896   5.456   3.326  10.478  0.1486  1.3253  0.6271
11135TIP3    H254897   5.526   3.231  10.572 -1.1118 -1.1472 -0.8250
11136TIP3   OH254898   3.522   0.878   4.709 -0.0200  0.1876 -0.1882
11136TIP3    H154899   3.430   0.900   4.698  0.1195 -0.5133 -4.5075
11136TIP3    H254900   3.548   0.839   4.626  3.3963 -2.7828  1.9609
11137TIP3   OH254901   3.479   6.232  14.328  0.0120  0.0130 -0.3703
11137TIP3    H154902   3.482   6.288  14.251  2.2669  1.1652  0.4655
11137TIP3    H254903   3.570   6.228  14.359 -0.7484 -0.6853  2.0276
11138TIP3   OH254904   3.207   3.238  13.987 -0.1285 -0.5782 -0.2259
11138TIP3    H154905   3.201   3.206  14.077  1.9906 -1.1771 -0.2546
11138TIP3    H254906   3.301   3.251  13.972 -0.4465 -0.4006 -2.3290
11139TIP3   OH254907   6.499   3.980   4.209 -0.1329 -0.2336 -0.0545
11139TIP3    H154908   6.407   3.956   4.222  0.5176 -2.6210  0.5704
11139TIP3    H254909   6.520   4.036   4.283 -0.8228 -0.4637  0.3242
11140TIP3   OH254910   1.438   5.237  11.842 -0.2392 -0.1935 -0.1441
11140TIP3    H154911   1.486   5.242  11.925  1.5727 -1.0319 -1.0873
11140TIP3    H254912   1.434   5.144  11.822  0.3806  0.0713 -1.5670
11141TIP3   OH254913   0.049   6.112  16.939  0.6913  0.1780 -0.0625
11141TIP3    H154914   0.048   6.199  16.899 -1.8854 -0.5907 -2.0000
11141TIP3    H254915   0.069   6.053  16.866 -1.2486 -1.0663  0.3306
11142TIP3   OH254916   1.848   4.100   5.005  0.0314 -0.1125  0.2521
11142TIP3    H154917   1.831   4.103   4.911 -0.5237 -4.8017 -0.0186
11142TIP3    H254918   1.941   4.122   5.013  0.0486  0.5359 -1.3451
11143TIP3   OH254919   3.806   0.085   1.717 -0.0804 -0.2170 -0.4664
11143TIP3    H154920   3.722   0.108   1.678  0.1130  1.2971 -0.0640
11143TIP3    H254921   3.865   0.072   1.643 -0.2173  0.5702 -0.7155
11144TIP3   OH254922   2.331   1.247   3.205  0.0561 -0.0576  0.4543
11144TIP3    H154923   2.424   1.253   3.185 -0.1398 -1.8887 -1.4152
11144TIP3    H254924   2.303   1.164   3.164 -2.5654  0.8736  0.1495
11145TIP3   OH254925   3.868   3.061  14.677 -0.1843 -0.2578  0.4452
11145TIP3    H154926   3.879   3.123  14.749 -1.2822 -0.1905  0.5626
11145TIP3    H254927   3.841   3.115  14.602 -0.0734 -0.4633  0.2540
11146TIP3   OH254928   1.017   2.493   5.298 -0.3151 -0.0022  0.1607
11146TIP3    H154929   0.966   2.567   5.265 -1.2548  0.1473  1.8320
11146TIP3    H254930   0.983   2.478   5.386  1.8280 -0.5851  0.9525
11147TIP3   OH254931   0.903   5.420   2.820 -0.1637 -0.0302  0.3543
11147TIP3    H154932   0.819   5.440   2.862 -0.3037 -1.9120  1.0409
11147TIP3    H254933   0.881   5.404   2.729 -0.1266  2.1764 -0.0958
11148TIP3   OH254934   6.342   2.845  13.426  0.3369  0.1791  0.2168
11148TIP3    H154935   6.283   2.772  13.408  0.5822 -0.3169  1.3572
11148TIP3    H254936   6.287   2.910  13.471  0.4395  0.1060  0.4497
11149TIP3   OH254937   1.827   1.603  15.764  0.7492  0.7399  0.5805
11149TIP3    H154938   1.739   1.631  15.790  1.3188  1.3040  1.9822
11149TIP3    H254939   1.842   1.523  15.813 -0.0165 -0.9691 -1.7757
11150TIP3   OH254940   6.162   3.572   4.397 -0.1574  0.2134  0.4049
11150TIP3    H154941   6.238   3.593   4.450  0.5365 -3.2303  1.0339
11150TIP3    H254942   6.198   3.532   4.318 -1.2956  0.3923 -0.2338
11151TIP3   OH254943   1.702   0.458  12.729  0.6195  0.1026  0.1752
11151TIP3    H154944   1.761   0.472  12.803 -0.6617  1.5737  0.9598
11151TIP3    H254945   1.749   0.496  12.654  0.9763  0.6466  0.6634
11152TIP3   OH254946   1.079   6.811  11.698 -0.2331  0.1921  0.2534
11152TIP3    H154947   1.130   6.875  11.748  0.5587  0.4850 -0.8812
11152TIP3    H254948   1.145   6.757  11.655 -0.8847 -1.5582  1.3602
11153TIP3   OH254949   0.277   0.844  11.283 -0.1734 -0.0023 -0.0157
11153TIP3    H154950   0.347   0.782  11.302 -1.1825 -1.3132 -0.4807
11153TIP3    H254951   0.321   0.930  11.284  1.0530 -0.6066  1.5394
11154TIP3   OH254952   1.511   2.580   1.277 -0.0937 -0.1968  0.3065
11154TIP3    H154953   1.435   2.567   1.334  0.0775 -2.5709  0.1041
11154TIP3    H254954   1.557   2.496   1.280  1.1928  0.3940 -1.5107
11155TIP3   OH254955   4.828   0.716   2.182  0.3898  0.1191 -0.2313
11155TIP3    H154956   4.916   0.737   2.152  0.5808  0.1512  0.3351
11155TIP3    H254957   4.819   0.763   2.266 -1.0566  2.1826 -1.4467
11156TIP3   OH254958   1.330   2.954   2.082 -0.4643 -0.0107 -0.1305
11156TIP3    H154959   1.275   3.026   2.052  1.0727  1.2379 -0.0629
11156TIP3    H254960   1.414   2.994   2.101  0.4307 -1.8303 -0.0400
11157TIP3   OH254961   3.540   0.330  11.766 -0.1211 -0.3633  0.0696
11157TIP3    H154962   3.483   0.355  11.839 -0.9312 -0.0826 -0.6427
11157TIP3    H254963   3.628   0.355  11.795 -0.6757  1.8426  0.0734
11158TIP3   OH254964   5.272   2.814  14.261 -0.2221 -0.3290 -0.4088
11158TIP3    H154965   5.291   2.857  14.344  1.6534 -1.9716  0.1014
11158TIP3    H254966   5.232   2.882  14.207 -1.7375  0.7182  1.8927
11159TIP3   OH254967   3.783   5.017   3.628  0.3238  0.2810  0.1699
11159TIP3    H154968   3.873   5.013   3.595  0.0166  0.6395 -0.7456
11159TIP3    H254969   3.728   5.020   3.549 -0.4187  1.5658  0.7046
11160TIP3   OH254970   5.687   3.055   5.643 -0.0596 -0.2079 -0.4264
11160TIP3    H154971   5.661   3.145   5.665 -1.3741 -1.1783  2.3769
11160TIP3    H254972   5.615   3.021   5.591 -1.8457 -1.0315  2.4216
11161TIP3   OH254973   3.774   5.154   4.290 -0.3547 -0.1462 -0.2480
11161TIP3    H154974   3.759   5.221   4.357 -0.2056  1.2066 -1.5189
11161TIP3    H254975   3.868   5.156   4.274 -0.0283 -2.0680  1.0639
11162TIP3   OH254976   5.523   6.426  14.616 -0.6318 -0.0761  0.0969
11162TIP3    H154977   5.597   6.368  14.634 -0.6773 -0.5956 -1.2462
11162TIP3    H254978   5.487   6.393  14.534 -0.5020  1.9846 -0.8560
11163TIP3   OH254979   1.433   4.343  11.756  0.4655 -0.0277 -0.0747
11163TIP3    H154980   1.343   4.356  11.785 -0.0283  0.8333 -1.8263
11163TIP3    H254981   1.445   4.248  11.758  0.0933 -0.0594  1.7330
11164TIP3   OH254982   2.813   5.927  12.823  0.7248  0.2534 -0.1626
11164TIP3    H154983   2.754   5.917  12.748 -0.1545 -0.3509  0.5950
11164TIP3    H254984   2.885   5.868  12.805  0.9932  0.8165 -0.9809
11165TIP3   OH254985   1.794   5.849   5.466 -0.1205  0.3734  0.3816
11165TIP3    H154986   1.817   5.861   5.374  0.9875  0.3380  0.6419
11165TIP3    H254987   1.824   5.930   5.509  2.0854 -0.7838  1.1771
11166TIP3   OH254988   6.562   5.066   3.379 -0.4489 -0.1451 -0.2237
11166TIP3    H154989   6.616   5.010   3.323 -0.1224  1.1323 -1.2581
11166TIP3    H254990   6.624   5.104   3.441 -0.7265 -1.1627  0.7036
11167TIP3   OH254991   6.306   3.007  15.499  0.1037 -0.0430 -0.1554
11167TIP3    H154992   6.349   2.960  15.570 -0.1016 -1.2528 -0.8103
11167TIP3    H254993   6.218   3.025  15.531  0.2293  0.0258  0.1507
11168TIP3   OH254994   3.378   1.998   0.979  0.1008  0.7112 -0.3759
11168TIP3    H154995   3.463   1.973   1.013 -0.7142 -1.2020  0.4133
11168TIP3    H254996   3.349   1.921   0.929 -1.0099  1.4645 -0.9357
11169TIP3   OH254997   6.840   3.154  15.060  0.2616 -0.2937  0.1034
11169TIP3    H154998   6.891   3.165  15.140 -0.1471 -2.0237  0.6538
11169TIP3    H254999   6.777   3.085  15.081 -1.2679  0.6725 -1.0513
11170TIP3   OH255000   5.253   6.238  15.535  0.0432 -0.4374 -0.5774
11170TIP3    H155001   5.248   6.281  15.450  0.6659 -2.3061 -1.6329
11170TIP3    H255002   5.162   6.222  15.560 -0.1385 -0.0295 -0.9747
11171TIP3   OH255003   1.718   6.717   3.701 -0.2068 -0.1848 -0.2693
11171TIP3    H155004   1.714   6.665   3.621  2.1080 -0.9485  0.0354
11171TIP3    H255005   1.672   6.798   3.680  0.6906 -0.1944 -2.4981
11172TIP3   OH255006   3.533   5.192   0.581  0.8787 -0.7600  0.3770
11172TIP3    H155007   3.604   5.189   0.517  0.2427 -0.0865 -0.3757
11172TIP3    H255008   3.569   5.148   0.658  3.1856  2.0814  1.0959
11173TIP3   OH255009   2.724   0.156   4.609  0.3814  0.4673 -0.5192
11173TIP3    H155010   2.807   0.172   4.654  0.3317 -0.2560 -0.1477
11173TIP3    H255011   2.657   0.184   4.671  0.2395 -2.3362  0.7423
11174TIP3   OH255012   5.098   6.844  14.559  0.3763 -0.7359 -0.1423
11174TIP3    H155013   5.082   6.827  14.652 -1.1446  1.6367  0.1030
11174TIP3    H255014   5.013   6.872  14.525  0.8878 -1.6119 -2.2923
11175TIP3   OH255015   4.858   1.806   4.615  0.2424  0.1062  1.1146
11175TIP3    H155016   4.827   1.809   4.706 -0.1200  0.9550  0.9795
11175TIP3    H255017   4.836   1.893   4.580 -0.6036 -0.5636 -0.1048
11176TIP3   OH255018   0.385   6.163  16.534 -0.5086  0.1790  0.3513
11176TIP3    H155019   0.404   6.246  16.579  0.7851  0.7533 -1.1320
11176TIP3    H255020   0.430   6.171  16.450  0.5566 -2.4649  0.5649
11177TIP3   OH255021   5.965   4.766   5.020 -0.0444  0.3555 -0.3636
11177TIP3    H155022   5.929   4.849   5.053  0.4154  0.6126 -0.4987
11177TIP3    H255023   5.930   4.699   5.079 -1.1718  0.5295 -0.7986
11178TIP3   OH255024   1.848   4.310   1.642  0.2608  0.2159 -0.3953
11178TIP3    H155025   1.831   4.220   1.615 -0.0762  0.5795 -1.4305
11178TIP3    H255026   1.843   4.361   1.561 -3.8076  1.8104  0.5840
11179TIP3   OH255027   4.912   2.032  12.678  0.5328  0.4732  0.1807
11179TIP3    H155028   5.002   2.024  12.710  0.0765 -3.1039  0.9619
11179TIP3    H255029   4.903   1.963  12.613 -1.8253  0.2552  0.6494
11180TIP3   OH255030   6.628   6.716   4.107 -0.0463 -0.0005 -0.0844
11180TIP3    H155031   6.722   6.701   4.096 -0.5276 -2.0591 -2.5848
11180TIP3    H255032   6.621   6.804   4.144  2.8520 -0.2675  1.3714
11181TIP3   OH255033   5.706   3.235   1.750 -0.9850  0.5029 -0.4961
11181TIP3    H155034   5.685   3.153   1.706 -1.8275  0.6708 -0.4275
11181TIP3    H255035   5.640   3.243   1.819 -0.5153  0.9197 -0.0783
11182TIP3   OH255036   1.398   3.909  12.059 -0.3792  0.1126  0.2644
11182TIP3    H155037   1.302   3.909  12.064 -0.3921 -0.8607  0.1315
11182TIP3    H255038   1.425   3.974  12.125 -1.1519  1.2957 -0.5574
11183TIP3   OH255039   4.095   4.268   0.630  0.3557 -0.0256  0.1518
11183TIP3    H155040   4.112   4.275   0.536  0.1636 -1.9170 -0.0740
11183TIP3    H255041   4.029   4.199   0.638  0.0235  0.4198  1.6496
11184TIP3   OH255042   1.780   2.761  11.070 -0.0207 -0.2840 -0.1788
11184TIP3    H155043   1.705   2.817  11.049  1.5751  1.3613 -1.7593
11184TIP3    H255044   1.756   2.676  11.032 -0.4486  0.6568 -2.1687
11185TIP3   OH255045   3.155   2.121  12.679 -0.1998  0.2794 -0.6854
11185TIP3    H155046   3.176   2.149  12.590 -0.3292 -0.4968 -0.9622
11185TIP3    H255047   3.240   2.119  12.724  0.0920 -0.9443 -1.2599
11186TIP3   OH255048   5.005   6.351   4.451 -0.1757 -0.3380 -0.5162
11186TIP3    H155049   4.910   6.352   4.464 -0.4646  0.8472 -2.4462
11186TIP3    H255050   5.041   6.364   4.539 -1.8059 -0.3707  0.1855
11187TIP3   OH255051   6.194   4.288   2.367  0.1423 -0.2313  0.3077
11187TIP3    H155052   6.279   4.326   2.344 -0.7425  1.9851  0.4764
11187TIP3    H255053   6.174   4.325   2.453 -1.2137 -0.3425  0.0587
11188TIP3   OH255054   5.548   2.489   1.742  0.0604 -0.0224  0.0035
11188TIP3    H155055   5.629   2.518   1.784  0.1208 -0.3308  0.1013
11188TIP3    H255056   5.481   2.504   1.808  0.1854 -0.7009  0.2957
11189TIP3   OH255057   2.994   1.335  12.297  0.2799  0.1258 -0.4640
11189TIP3    H155058   2.929   1.289  12.349 -0.1642  1.8513  0.5687
11189TIP3    H255059   2.948   1.358  12.216 -0.1599  0.6807 -0.0560
11190TIP3   OH255060   1.790   4.870  16.042 -0.4324 -0.4456 -0.1843
11190TIP3    H155061   1.832   4.805  15.985  1.1554 -1.1375  1.6798
11190TIP3    H255062   1.768   4.822  16.122  2.5633  1.5603  2.0775
11191TIP3   OH255063   2.859   6.445   1.019  0.3206  0.9153  0.0673
11191TIP3    H155064   2.945   6.404   1.023 -0.0382  0.2406  2.2966
11191TIP3    H255065   2.797   6.371   1.015 -0.3044  1.1068  3.4310
11192TIP3   OH255066   0.354   5.932   0.696 -0.0066  0.2033 -0.1157
11192TIP3    H155067   0.393   6.019   0.695 -0.9138  0.6172 -0.5688
11192TIP3    H255068   0.333   5.916   0.788 -0.4380  0.7466 -0.1157
11193TIP3   OH255069   5.940   4.409  12.337 -0.3025  0.3799  0.1161
11193TIP3    H155070   5.850   4.427  12.363 -1.1621 -0.7187 -1.8478
11193TIP3    H255071   5.935   4.393  12.243  1.6359 -1.5169  0.2389
11194TIP3   OH255072   6.466   0.222   4.745 -0.3778  0.1103 -0.4032
11194TIP3    H155073   6.470   0.127   4.752 -0.1826  0.2066  1.1790
11194TIP3    H255074   6.464   0.253   4.836  2.3511  1.7092 -0.7622
11195TIP3   OH255075   1.972   3.139   1.777  0.5101 -0.4614  0.6992
11195TIP3    H155076   1.924   3.099   1.705 -0.8200  0.4355  1.0478
11195TIP3    H255077   2.049   3.179   1.736 -0.5978  0.6797 -0.3805
11196TIP3   OH255078   0.522   2.557  15.818 -0.7098  1.2680  0.2892
11196TIP3    H155079   0.502   2.549  15.724  0.3193 -0.1942  0.1716
11196TIP3    H255080   0.438   2.580  15.858 -0.7518  4.3415 -1.2170
11197TIP3   OH255081   5.577   5.048   4.984 -0.1898  0.5641 -0.1166
11197TIP3    H155082   5.592   5.104   4.908 -0.0833 -0.6577 -1.0140
11197TIP3    H255083   5.606   4.961   4.957 -1.7634 -0.2651  0.7131
11198TIP3   OH255084   4.200   4.834  15.733 -0.1793  0.6488  0.2297
11198TIP3    H155085   4.280   4.862  15.688  0.2278  0.2542  0.7016
11198TIP3    H255086   4.148   4.915  15.743  0.4110  1.0056  0.4376
11199TIP3   OH255087   3.256   2.135  12.403  0.0101  0.0697 -0.5351
11199TIP3    H155088   3.252   2.093  12.317 -0.4842 -1.0668  0.0183
11199TIP3    H255089   3.335   2.098  12.444 -0.0947  0.1295 -0.2731
11200TIP3   OH255090   1.445   3.472  15.764  0.1420 -0.3010 -0.1862
11200TIP3    H155091   1.533   3.439  15.750 -0.3062 -1.9810  0.7262
11200TIP3    H255092   1.389   3.394  15.764 -1.3387  0.7152 -0.6632
11201TIP3   OH255093   1.982   6.476  16.806  0.6812  0.1796 -0.1762
11201TIP3    H155094   1.930   6.541  16.854 -1.0777 -0.9539 -0.4615
11201TIP3    H255095   1.935   6.464  16.723  1.3912 -0.8864 -0.4457
11202TIP3   OH255096   5.072   0.113   3.288  0.2821  0.2193  0.0527
11202TIP3    H155097   5.091   0.165   3.210  0.2100  1.2083  0.6799
11202TIP3    H255098   5.136   0.143   3.353  0.0281 -0.2429  0.5228
11203TIP3   OH255099   4.730   4.496   3.293  0.4541 -0.2118  0.2690
11203TIP3    H155100   4.796   4.549   3.249  1.6715  1.1250  3.4059
11203TIP3    H255101   4.757   4.405   3.277  1.2504  0.2269 -1.0181
11204TIP3   OH255102   1.000   4.915   5.888 -0.8100 -0.4506  0.3853
11204TIP3    H155103   0.928   4.976   5.878  0.4197  0.9717 -0.1813
11204TIP3    H255104   0.988   4.851   5.818  0.1837  1.6037 -1.7821
11205TIP3   OH255105   0.454   6.194   3.115 -0.3268 -0.0327  0.3098
11205TIP3    H155106   0.531   6.240   3.150  0.3652 -0.7447 -0.2420
11205TIP3    H255107   0.399   6.178   3.192  0.9046 -1.0797  1.0099
11206TIP3   OH255108   0.499   3.858  16.656  0.0615 -0.0091  0.4928
11206TIP3    H155109   0.417   3.866  16.704 -0.8246 -1.1332 -0.7616
11206TIP3    H255110   0.491   3.921  16.583  0.2217 -0.2653  0.2490
11207TIP3   OH255111   6.395   5.329   2.159 -0.4463  0.4411  0.2152
11207TIP3    H155112   6.384   5.424   2.150  1.3972  0.6471 -0.1531
11207TIP3    H255113   6.385   5.296   2.070  2.8353  0.7966 -0.4087
11208TIP3   OH255114   5.652   4.156  10.261 -0.7276  0.4885 -0.7478
11208TIP3    H155115   5.633   4.189  10.173 -1.1829 -0.0776 -0.8720
11208TIP3    H255116   5.736   4.110  10.251 -1.3076 -0.5211 -1.1535
11209TIP3   OH255117   3.691   2.924   4.603 -0.0581  0.3349  0.3412
11209TIP3    H155118   3.667   2.841   4.646 -1.3967 -0.7564 -2.2779
11209TIP3    H255119   3.786   2.931   4.615  0.0204 -1.3760  0.9830
11210TIP3   OH255120   6.306   1.737  14.724 -0.0818 -0.0232 -0.1412
11210TIP3    H155121   6.221   1.780  14.733  0.1034  0.1093  1.3234
11210TIP3    H255122   6.347   1.779  14.649 -1.3506 -0.1764 -0.9521
11211TIP3   OH255123   4.721   4.059   3.442  0.0155 -1.0194 -0.2950
11211TIP3    H155124   4.807   4.045   3.481  0.5500  0.8198 -0.7214
11211TIP3    H255125   4.660   4.048   3.515  0.6646 -1.5933  0.1725
11212TIP3   OH255126   5.748   0.206  14.588  0.3410  0.7818 -0.1155
11212TIP3    H155127   5.749   0.124  14.638 -0.2761 -0.5788 -2.2036
11212TIP3    H255128   5.656   0.224  14.573  0.5076  0.1606 -2.2218
11213TIP3   OH255129   0.544   2.838   6.129  0.0548  0.0291 -0.0275
11213TIP3    H155130   0.555   2.744   6.114  0.1041  0.2381 -1.4297
11213TIP3    H255131   0.495   2.868   6.053 -1.1044  0.9267  1.0427
11214TIP3   OH255132   2.839   1.962   4.724 -0.0859  0.0136  0.5410
11214TIP3    H155133   2.890   1.881   4.737  0.3107  0.0051 -0.8887
11214TIP3    H255134   2.901   2.022   4.683 -0.0425  1.4793  2.5779
11215TIP3   OH255135   3.814   4.737   4.199  0.6256 -0.1561 -0.3901
11215TIP3    H155136   3.903   4.741   4.163  0.7609  1.7616  0.0493
11215TIP3    H255137   3.814   4.801   4.270 -0.6239 -1.3856  0.7904
11216TIP3   OH255138   6.629   3.047   3.018  0.4309 -0.2156 -0.0619
11216TIP3    H155139   6.683   3.093   3.083 -0.5317  2.1576 -0.8582
11216TIP3    H255140   6.556   3.012   3.069 -0.2134  1.4506  0.2156
11217TIP3   OH255141   1.579   2.093   4.877  0.3048 -0.1494 -0.1548
11217TIP3    H155142   1.634   2.104   4.955  1.1691  2.6749 -1.0338
11217TIP3    H255143   1.535   2.177   4.868 -0.1862 -0.5946 -2.4240
11218TIP3   OH255144   4.151   5.087  14.427 -0.7074  0.3205 -0.1695
11218TIP3    H155145   4.131   5.036  14.505 -2.0274  2.4875  1.0034
11218TIP3    H255146   4.071   5.083  14.374 -1.1178  1.7041  0.2973
11219TIP3   OH255147   3.592   3.141   3.347  0.2009 -0.2820  0.2924
11219TIP3    H155148   3.558   3.099   3.268 -0.0473 -0.2670  0.3927
11219TIP3    H255149   3.532   3.213   3.364 -0.5822 -1.1473  1.3280
11220TIP3   OH255150   0.834   6.381   4.705  0.0728 -0.3339  0.5869
11220TIP3    H155151   0.827   6.432   4.786 -1.7981 -0.0331  0.2726
11220TIP3    H255152   0.800   6.295   4.729 -1.8771  0.1689 -0.1841
11221TIP3   OH255153   2.825   0.115   3.813  0.1270 -0.2549 -0.5272
11221TIP3    H155154   2.855   0.205   3.800  0.3399 -0.3287 -0.5546
11221TIP3    H255155   2.739   0.124   3.854 -0.4727 -0.0233 -1.7816
11222TIP3   OH255156   0.768   2.694   5.943  0.4057 -0.7153  0.1184
11222TIP3    H155157   0.683   2.652   5.942 -0.3453  0.7539  0.0678
11222TIP3    H255158   0.803   2.676   6.031 -0.6571  0.0049  0.7050
11223TIP3   OH255159   3.820   4.507  14.265  0.5253 -0.1439  0.3952
11223TIP3    H155160   3.726   4.517  14.254  0.4179 -0.3756  1.0706
11223TIP3    H255161   3.853   4.491  14.176 -0.1124 -0.3872  0.1972
11224TIP3   OH255162   5.827   0.450   3.720  1.0711  0.1963 -0.1397
11224TIP3    H155163   5.766   0.477   3.652  2.9864 -0.4512 -2.2227
11224TIP3    H255164   5.816   0.515   3.790 -2.1599 -0.0721 -0.2353
11225TIP3   OH255165   0.602   2.583   1.584  0.2683  0.7777 -0.5082
11225TIP3    H155166   0.675   2.525   1.608 -0.1561  0.2345 -0.5245
11225TIP3    H255167   0.598   2.578   1.488 -2.1477 -2.1806 -0.4116
11226TIP3   OH255168   1.573   1.490  17.057  0.0187 -0.5753  0.4727
11226TIP3    H155169   1.605   1.401  17.049  0.5645 -0.2008 -2.4000
11226TIP3    H255170   1.479   1.484  17.042 -0.1711 -0.7877  1.6393
11227TIP3   OH255171   6.488   0.638   3.774  0.3404 -0.2807  0.0607
11227TIP3    H155172   6.543   0.561   3.763 -0.7309 -1.0088 -0.3094
11227TIP3    H255173   6.455   0.658   3.687 -0.5701 -0.3140  0.3794
11228TIP3   OH255174   1.537   5.916   5.599 -0.4464  0.6288 -0.1711
11228TIP3    H155175   1.621   5.929   5.554  0.0944  2.9380  1.3159
11228TIP3    H255176   1.515   5.825   5.583  2.4760 -0.1295 -0.4241
11229TIP3   OH255177   2.719   5.009  16.792 -0.4844  0.3262 -0.5722
11229TIP3    H155178   2.638   5.040  16.835 -0.2018  1.2513 -0.6848
11229TIP3    H255179   2.701   5.017  16.699  0.1560  1.7182 -0.6007
11230TIP3   OH255180   5.204   5.308  10.334 -0.3481  0.4022 -0.9689
11230TIP3    H155181   5.228   5.258  10.255 -1.4963 -0.1315 -0.9950
11230TIP3    H255182   5.164   5.388  10.300  0.2973  0.7499 -0.9216
11231TIP3   OH255183   5.728   4.868  11.778 -0.0647 -0.4111  0.0271
11231TIP3    H155184   5.704   4.939  11.837  0.1669  0.0953 -0.4839
11231TIP3    H255185   5.644   4.834  11.746 -0.1876  1.3897 -1.7905
11232TIP3   OH255186   4.486   1.233   3.158  0.2651  0.4559 -0.0894
11232TIP3    H155187   4.572   1.193   3.169  0.5917  1.6112  1.9924
11232TIP3    H255188   4.504   1.325   3.140 -0.5400  0.7686  0.6688
11233TIP3   OH255189   3.960   4.458  13.724  0.2854 -0.2187 -0.1912
11233TIP3    H155190   4.035   4.517  13.726 -0.7232  1.0913  0.0773
11233TIP3    H255191   3.994   4.379  13.681  1.5570  0.6911 -0.9439
11234TIP3   OH255192   3.407   6.640   5.117 -0.2294 -0.5546  0.4373
11234TIP3    H155193   3.346   6.566   5.116 -0.2042 -0.5778  0.6059
11234TIP3    H255194   3.463   6.626   5.041 -0.3200 -0.6290  0.3844
11235TIP3   OH255195   4.435   3.580  15.987 -0.3233 -0.0298 -0.1379
11235TIP3    H155196   4.488   3.514  15.942  0.8598  0.1212  0.9479
11235TIP3    H255197   4.496   3.621  16.048 -1.3866  1.1099  0.2006
11236TIP3   OH255198   4.526   5.981  12.692 -0.4280  0.4409 -0.0553
11236TIP3    H155199   4.440   6.022  12.683 -0.4635  1.0798  2.3513
11236TIP3    H255200   4.582   6.050  12.727  0.6131 -0.4260  0.0526
11237TIP3   OH255201   6.656   1.031  11.548 -0.1229  0.0275  0.0981
11237TIP3    H155202   6.583   0.969  11.545 -0.8597  0.8778 -2.7669
11237TIP3    H255203   6.722   0.987  11.602 -1.2578 -2.5161 -0.4356
11238TIP3   OH255204   5.993   2.866  11.784  0.1401 -0.2596 -0.0218
11238TIP3    H155205   6.048   2.821  11.849 -2.8316 -1.5590  1.8101
11238TIP3    H255206   5.968   2.948  11.827  2.6033  1.6697 -1.9233
11239TIP3   OH255207   0.750   5.095  14.863 -1.0624 -0.0017  0.4836
11239TIP3    H155208   0.823   5.036  14.879  0.3614  1.1812 -1.3470
11239TIP3    H255209   0.672   5.041  14.879  0.1755 -1.7956  0.7543
11240TIP3   OH255210   5.494   4.376   3.313  0.0545  0.0908 -0.4204
11240TIP3    H155211   5.534   4.340   3.233  1.5835  3.0414 -1.1280
11240TIP3    H255212   5.411   4.329   3.321 -0.9664  0.7247 -4.7159
11241TIP3   OH255213   5.334   6.364  16.307 -0.2909 -0.9338  0.0147
11241TIP3    H155214   5.330   6.447  16.260  0.3578 -1.9378 -1.8967
11241TIP3    H255215   5.333   6.389  16.400  0.7335  1.2547 -0.4970
11242TIP3   OH255216   1.814   4.615  10.653 -0.2759  0.3576 -0.1001
11242TIP3    H155217   1.908   4.598  10.646 -0.5063 -2.0715  1.4697
11242TIP3    H255218   1.795   4.675  10.581  2.4015  0.6122 -0.6923
11243TIP3   OH255219   1.238   2.311   0.171 -0.0406 -0.1822 -0.4317
11243TIP3    H155220   1.246   2.255   0.094 -0.6194  1.0180 -1.4041
11243TIP3    H255221   1.307   2.377   0.160  0.6274 -0.6507  0.6936
11244TIP3   OH255222   0.410   6.172   5.078 -0.1958  0.6679  0.6034
11244TIP3    H155223   0.500   6.165   5.046 -0.6879  2.0761 -1.2741
11244TIP3    H255224   0.367   6.094   5.044  0.6156 -0.8537  2.8492
11245TIP3   OH255225   6.710   3.088   4.696 -0.2076  0.2857 -0.5944
11245TIP3    H155226   6.685   3.150   4.765  0.1168 -0.2013 -0.0261
11245TIP3    H255227   6.648   3.016   4.706  0.3804 -0.1760 -0.2510
11246TIP3   OH255228   0.705   4.153   3.387 -0.1287  0.0972  0.1412
11246TIP3    H155229   0.750   4.141   3.471  1.3142 -0.7867 -0.7166
11246TIP3    H255230   0.637   4.084   3.386 -0.9269  0.8379  1.0391
11247TIP3   OH255231   2.959   3.098   1.089 -0.3498 -0.2186  0.3882
11247TIP3    H155232   2.898   3.166   1.060 -0.7513 -0.3576  0.8942
11247TIP3    H255233   2.940   3.024   1.032 -0.6180 -0.2448  0.5116
11248TIP3   OH255234   0.686   0.858  15.532  0.0264 -0.1509  0.2606
11248TIP3    H155235   0.592   0.871  15.519  0.2220  1.3724  0.2625
11248TIP3    H255236   0.711   0.797  15.463 -0.9274 -0.4513  0.1622
11249TIP3   OH255237   6.605   5.260  11.930  0.0105 -0.4423 -0.4036
11249TIP3    H155238   6.644   5.343  11.905  0.4989 -0.5332  0.0238
11249TIP3    H255239   6.647   5.238  12.014 -0.7251 -0.7038 -0.0909
11250TIP3   OH255240   0.814   1.670  17.000 -0.4525  0.1626 -0.1465
11250TIP3    H155241   0.872   1.650  17.073 -0.1624 -0.9862 -0.6643
11250TIP3    H255242   0.727   1.674  17.039 -0.3414 -0.7753  0.2196
11251TIP3   OH255243   3.860   6.485  16.072  0.4310 -0.4697 -0.2387
11251TIP3    H155244   3.817   6.523  16.148  0.7160 -1.1910  0.2858
11251TIP3    H255245   3.840   6.392  16.076  1.7050 -0.7614 -0.1832
11252TIP3   OH255246   1.585   2.514  12.542  0.1482  0.1300  0.6819
11252TIP3    H155247   1.639   2.564  12.604  0.6441 -0.6125  0.8720
11252TIP3    H255248   1.506   2.567  12.530 -0.0571  0.2017  2.1187
11253TIP3   OH255249   3.219   5.385  11.445  0.3863 -0.7288  0.0272
11253TIP3    H155250   3.278   5.400  11.520  2.1593 -2.8523 -0.8369
11253TIP3    H255251   3.277   5.372  11.371 -1.2206 -1.9672 -1.0805
11254TIP3   OH255252   3.354   4.840  16.783 -0.3501 -0.0177  0.1314
11254TIP3    H155253   3.430   4.895  16.761 -0.9673  1.1754  0.8763
11254TIP3    H255254   3.280   4.899  16.780 -1.1826 -1.0427  0.0218
11255TIP3   OH255255   5.330   2.841   2.232  0.0317 -0.3515  0.0307
11255TIP3    H155256   5.346   2.771   2.169  0.9124 -0.8484  0.7802
11255TIP3    H255257   5.417   2.877   2.249 -0.1084 -0.6282  1.4017
11256TIP3   OH255258   2.729   1.307   0.404  0.1524 -0.3459 -0.0083
11256TIP3    H155259   2.700   1.293   0.494 -0.2804 -0.5720 -0.1808
11256TIP3    H255260   2.740   1.402   0.397 -2.3153 -0.0269 -0.4590
11257TIP3   OH255261   4.780   2.378  13.264  0.0082 -0.1434  0.6465
11257TIP3    H155262   4.809   2.304  13.211  0.1196 -0.3974  1.0664
11257TIP3    H255263   4.852   2.442  13.256 -1.6775  1.6322 -2.9646
11258TIP3   OH255264   5.704   1.996  15.320  0.9346  0.4190  0.1326
11258TIP3    H155265   5.726   2.088  15.332 -0.4608  0.7191  0.5401
11258TIP3    H255266   5.786   1.956  15.291  1.1546  2.0971 -1.8286
11259TIP3   OH255267   1.581   2.896   4.701 -0.0743 -0.5928  0.2935
11259TIP3    H155268   1.609   2.826   4.643 -0.5790 -0.5571  0.0037
11259TIP3    H255269   1.645   2.895   4.773  1.7562  0.6224 -1.2037
11260TIP3   OH255270   5.295   3.970   1.795 -0.0976  0.4823  0.2094
11260TIP3    H155271   5.229   3.997   1.731 -0.6966 -2.0609 -0.3621
11260TIP3    H255272   5.244   3.931   1.866  0.7278 -1.2216 -0.0917
11261TIP3   OH255273   1.113   0.054  11.420 -0.2333 -0.2824  0.0240
11261TIP3    H155274   1.161  -0.012  11.371 -1.1972  0.1812 -1.6360
11261TIP3    H255275   1.166   0.070  11.498  1.3513 -1.0855 -0.8442
11262TIP3   OH255276   4.560   6.730   5.690 -0.6561  0.0606  0.4039
11262TIP3    H155277   4.518   6.701   5.609 -1.2451  0.2182  0.6420
11262TIP3    H255278   4.594   6.817   5.669 -1.3014  0.3358  0.4856
11263TIP3   OH255279   4.006   2.724  11.178 -0.3329 -0.1638  0.1101
11263TIP3    H155280   4.079   2.785  11.182 -0.0851 -0.1199 -2.9384
11263TIP3    H255281   4.045   2.640  11.156 -0.9604 -0.8062  1.3347
11264TIP3   OH255282   1.489   0.231   4.132 -0.1838 -0.5939 -0.0911
11264TIP3    H155283   1.549   0.293   4.091  0.1017  0.3126  1.5958
11264TIP3    H255284   1.416   0.224   4.070  1.7248 -1.9967 -2.3607
11265TIP3   OH255285   2.400   4.760   0.215  0.4684  0.1457 -0.1392
11265TIP3    H155286   2.440   4.704   0.149 -2.3343 -0.8627 -1.1024
11265TIP3    H255287   2.350   4.701   0.271  0.1739  1.3520  0.9392
11266TIP3   OH255288   1.609   0.181   1.600  0.8757  0.1096  0.1246
11266TIP3    H155289   1.641   0.142   1.681  1.7351 -1.5781 -0.9819
11266TIP3    H255290   1.609   0.109   1.537 -0.8032  1.1209 -1.1127
11267TIP3   OH255291   2.206   3.862  15.524 -0.0245  0.1190  0.6497
11267TIP3    H155292   2.235   3.781  15.567 -0.3714  0.8272  2.2727
11267TIP3    H255293   2.246   3.932  15.576 -0.3835  1.0114 -0.2541
11268TIP3   OH255294   6.686   4.033  12.156 -0.4447  0.2273 -0.3361
11268TIP3    H155295   6.770   4.060  12.195  0.3891 -1.7806 -0.6460
11268TIP3    H255296   6.688   4.071  12.068 -0.3898  1.1182  0.0305
11269TIP3   OH255297   6.579   4.803  12.161  0.3959  0.1953  0.0414
11269TIP3    H155298   6.582   4.870  12.092  4.3676  0.1127 -0.1229
11269TIP3    H255299   6.584   4.720  12.114 -1.1116 -0.1039  0.3644
11270TIP3   OH255300   4.241   2.438   3.806  0.8464  0.1410 -0.0089
11270TIP3    H155301   4.223   2.358   3.757  1.5355  1.7902 -3.2178
11270TIP3    H255302   4.336   2.450   3.799  0.6664  1.6394 -0.3516
11271TIP3   OH255303   6.153   6.677  10.622  0.2826  0.0177  0.0159
11271TIP3    H155304   6.186   6.724  10.546  0.0703 -0.0997 -0.1478
11271TIP3    H255305   6.228   6.673  10.682 -0.1006  1.8684  0.6608
11272TIP3   OH255306   5.092   3.287  14.063  0.2485 -0.0415 -0.1599
11272TIP3    H155307   5.008   3.279  14.109  0.6224 -1.6086  0.3214
11272TIP3    H255308   5.151   3.323  14.129 -0.3936  2.7918 -1.0092
11273TIP3   OH255309   2.984   6.620   5.585 -0.1470  0.8087 -0.1519
11273TIP3    H155310   2.911   6.561   5.565  0.1944  0.5714 -0.7467
11273TIP3    H255311   3.060   6.562   5.591  0.3381  1.2665 -1.5796
11274TIP3   OH255312   5.473   1.507  16.861  0.3305  0.0656 -0.5086
11274TIP3    H155313   5.407   1.495  16.793 -3.3478  2.7853  2.1871
11274TIP3    H255314   5.470   1.426  16.912  0.3973 -0.4880 -1.3451
11275TIP3   OH255315   4.714   0.208   3.516  0.7109  0.0931 -0.3195
11275TIP3    H155316   4.674   0.133   3.561  1.3973 -0.5487 -0.7592
11275TIP3    H255317   4.756   0.258   3.586 -0.6829  0.6887  0.1329
11276TIP3   OH255318   4.643   5.385  15.681  0.0861  0.1181 -0.6117
11276TIP3    H155319   4.599   5.317  15.731 -0.7529 -0.1386 -1.6508
11276TIP3    H255320   4.683   5.339  15.608  3.5044  0.1017  1.0719
11277TIP3   OH255321   2.301   6.194   2.653 -0.4245 -0.3805  0.2642
11277TIP3    H155322   2.333   6.260   2.715 -0.2583  0.6182 -0.8584
11277TIP3    H255323   2.218   6.230   2.621 -0.4139 -0.8035 -0.2449
11278TIP3   OH255324   5.345   4.365  12.646  0.1949 -0.4888 -0.4196
11278TIP3    H155325   5.438   4.354  12.625  0.1206  1.5052 -2.1532
11278TIP3    H255326   5.309   4.410  12.570 -2.2238 -1.2137  0.2141
11279TIP3   OH255327   5.987   5.419  10.995 -0.3662  0.0245  0.5365
11279TIP3    H155328   5.929   5.383  10.928 -0.7711  0.8108  0.4605
11279TIP3    H255329   5.936   5.489  11.037  0.5269  0.7375  0.4624
11280TIP3   OH255330   5.138   1.945  12.396  0.5729  0.4490  0.2198
11280TIP3    H155331   5.198   2.012  12.363 -0.1587  0.3808 -1.3092
11280TIP3    H255332   5.054   1.966  12.356 -0.1927 -0.0943  1.4832
11281TIP3   OH255333   1.423   2.982  11.708  0.1978 -0.6961  0.2848
11281TIP3    H155334   1.328   2.979  11.714  0.1843 -2.1097 -0.2504
11281TIP3    H255335   1.442   3.068  11.672 -0.6674  0.8669  3.2815
11282TIP3   OH255336   4.075   0.193  12.631  0.3766 -0.7972 -0.2123
11282TIP3    H155337   4.037   0.267  12.678  2.3335 -0.8315  1.5472
11282TIP3    H255338   3.999   0.143  12.601 -0.9732  1.2761 -0.4827
11283TIP3   OH255339   6.025   2.995  16.616  0.0530  0.9551  0.0827
11283TIP3    H155340   6.040   3.041  16.533  2.5872  1.3022  0.6558
11283TIP3    H255341   5.941   3.029  16.647 -0.6396  1.2962 -2.0080
11284TIP3   OH255342   4.746   5.304   0.234 -1.1111  0.3627 -0.2281
11284TIP3    H155343   4.795   5.334   0.157 -0.4888  0.9228  0.3666
11284TIP3    H255344   4.774   5.363   0.304 -0.5578 -1.0304  0.7819
11285TIP3   OH255345   1.184   2.376   4.042 -0.2773 -0.9832  0.1048
11285TIP3    H155346   1.248   2.447   4.048 -1.2072  0.0351 -1.2310
11285TIP3    H255347   1.168   2.349   4.133  0.5363  0.1164  0.5927
11286TIP3   OH255348   5.043   0.390   2.622 -0.1481 -0.3312 -0.1056
11286TIP3    H155349   4.980   0.324   2.594 -0.4893 -0.5608  1.1290
11286TIP3    H255350   5.107   0.342   2.675  0.7690 -0.0079 -0.8896
11287TIP3   OH255351   5.812   3.540  16.115  0.3911  0.1077  0.0773
11287TIP3    H155352   5.776   3.545  16.204 -0.4702  1.8252 -0.3153
11287TIP3    H255353   5.884   3.478  16.122 -0.7926 -1.2009  1.5655
11288TIP3   OH255354   3.673   5.051   2.990 -0.0878 -0.2388 -0.2928
11288TIP3    H155355   3.667   5.121   3.055 -2.2621 -1.4093  0.8547
11288TIP3    H255356   3.715   4.979   3.037 -0.4521 -0.6505 -0.5978
11289TIP3   OH255357   2.140   2.425  14.534  0.4667 -0.1346 -0.0532
11289TIP3    H155358   2.188   2.427  14.451 -0.2437 -0.3752 -0.4810
11289TIP3    H255359   2.049   2.444  14.509 -0.0417 -1.7485  0.4415
11290TIP3   OH255360   6.467   0.716  13.449  0.2550  0.3388 -0.4936
11290TIP3    H155361   6.475   0.811  13.436  2.5475  0.0279 -1.8187
11290TIP3    H255362   6.450   0.706  13.542 -1.8349  2.0912 -0.6050
11291TIP3   OH255363   4.248   0.313   0.083  0.3989 -0.0660 -0.7604
11291TIP3    H155364   4.198   0.234   0.103 -1.8337  0.8589 -2.3019
11291TIP3    H255365   4.263   0.309  -0.011 -2.2552  2.5731 -1.4569
11292TIP3   OH255366   5.397   0.609  10.700  0.2241  0.1236 -0.2926
11292TIP3    H155367   5.426   0.699  10.714 -0.4618  0.2120  0.6761
11292TIP3    H255368   5.363   0.608  10.611  0.2276  0.8238 -0.3074
11293TIP3   OH255369   4.161   0.258  11.588 -0.0541  0.1423  0.7940
11293TIP3    H155370   4.165   0.292  11.499 -0.1197 -1.2378  0.2341
11293TIP3    H255371   4.067   0.253  11.608 -0.0954 -0.8054  0.4142
11294TIP3   OH255372   6.743   6.177  14.424  0.7467  0.2253  0.3497
11294TIP3    H155373   6.760   6.103  14.366  0.6310  0.1133  0.4594
11294TIP3    H255374   6.828   6.201  14.459  0.4332 -1.8243  2.7505
11295TIP3   OH255375   4.494   5.892  13.761  0.5270 -0.1748 -0.0518
11295TIP3    H155376   4.551   5.826  13.801  0.8753  0.9961  1.4608
11295TIP3    H255377   4.406   5.865  13.786  0.4393 -1.4132 -1.5331
11296TIP3   OH255378   1.069   1.257  11.969  0.8451 -0.4784 -0.7297
11296TIP3    H155379   1.141   1.203  12.003  0.8180 -0.3843 -0.5274
11296TIP3    H255380   1.113   1.319  11.910  0.8828 -0.6854 -0.9212
11297TIP3   OH255381   0.765   4.955  12.293  0.4135  0.1721 -0.8112
11297TIP3    H155382   0.857   4.953  12.267  0.3579 -0.9818 -0.9379
11297TIP3    H255383   0.762   4.909  12.377  0.0989  1.1052 -0.2927
11298TIP3   OH255384   1.554   2.878   4.152 -0.3360 -0.3658  0.2751
11298TIP3    H155385   1.617   2.920   4.094 -2.1478 -0.2198 -1.6951
11298TIP3    H255386   1.592   2.887   4.239  1.4981  1.2486 -0.6201
11299TIP3   OH255387   2.415   3.288  15.995 -0.0888  0.3911  0.0401
11299TIP3    H155388   2.346   3.227  15.971  0.8250 -1.6508  2.2018
11299TIP3    H255389   2.468   3.297  15.915 -1.5510  0.2107 -0.9822
11300TIP3   OH255390   6.128   0.072   3.381  0.0910  0.1382  0.0655
11300TIP3    H155391   6.087   0.122   3.311 -0.0667  1.1040  0.8229
11300TIP3    H255392   6.136  -0.017   3.346  2.0911  1.0410 -2.0247
11301TIP3   OH255393   5.442   0.943   3.893  0.3606  0.4586 -0.2826
11301TIP3    H155394   5.481   0.943   3.805 -1.0903 -0.9821 -0.9630
11301TIP3    H255395   5.384   0.867   3.894 -1.7597  2.0033  0.9960
11302TIP3   OH255396   6.311   3.496   5.147 -0.5126  0.0326 -0.1099
11302TIP3    H155397   6.298   3.409   5.108 -0.7659  0.4395 -0.9484
11302TIP3    H255398   6.237   3.506   5.207 -0.6076 -0.2357 -0.1773
11303TIP3   OH255399   2.556   3.773   1.299  0.5239  0.7386  0.3677
11303TIP3    H155400   2.554   3.818   1.215  2.2522  2.2253  1.0405
11303TIP3    H255401   2.482   3.714   1.297  0.0480  1.3286 -1.8701
11304TIP3   OH255402   4.290   3.636  11.058 -0.2969  0.0277 -0.1274
11304TIP3    H155403   4.288   3.727  11.028 -0.9055 -0.4071 -1.4981
11304TIP3    H255404   4.378   3.623  11.091 -0.2569  1.1621  0.2365
11305TIP3   OH255405   5.752   5.095  12.887  0.0184 -0.3160  0.3756
11305TIP3    H155406   5.670   5.056  12.914  0.7844 -2.7245 -0.5277
11305TIP3    H255407   5.779   5.149  12.961 -2.9701  1.6843  0.1843
11306TIP3   OH255408   5.226   2.194  12.308  0.4765  0.0441  0.4712
11306TIP3    H155409   5.194   2.212  12.396  0.3137  0.9004  0.2427
11306TIP3    H255410   5.184   2.260  12.252  0.7715 -0.3284 -0.2093
11307TIP3   OH255411   4.340   5.938   3.890 -0.2128 -0.3500 -0.3763
11307TIP3    H155412   4.299   5.853   3.903 -1.5620  0.3637  0.2809
11307TIP3    H255413   4.348   5.946   3.795  0.7893 -1.5712 -0.4192
11308TIP3   OH255414   6.851   5.097   5.447  0.1153 -0.7820  0.2828
11308TIP3    H155415   6.768   5.052   5.461 -0.0420 -0.3854  0.6378
11308TIP3    H255416   6.899   5.041   5.386 -0.2681 -1.1898  0.3548
11309TIP3   OH255417   2.953   6.613   3.466  0.1718  0.0373 -0.6032
11309TIP3    H155418   2.973   6.706   3.453  3.5946 -0.4102  0.5785
11309TIP3    H255419   2.934   6.606   3.560 -0.3888 -0.4088 -0.7496
11310TIP3   OH255420   0.287   4.512   0.351 -0.1035  0.4099  0.5845
11310TIP3    H155421   0.312   4.595   0.392 -0.0868  0.9508 -0.4923
11310TIP3    H255422   0.220   4.536   0.287  2.1857  0.1296 -2.0923
11311TIP3   OH255423   5.697   5.098  14.119 -0.1522  0.5288  0.2805
11311TIP3    H155424   5.718   5.014  14.159  2.1635  0.1079 -1.6054
11311TIP3    H255425   5.618   5.080  14.067 -0.2670 -0.2075  0.6915
11312TIP3   OH255426   6.566   2.396  13.887 -0.5729 -0.7001  0.0416
11312TIP3    H155427   6.568   2.490  13.905 -0.5514 -0.7921  0.5555
11312TIP3    H255428   6.657   2.367  13.899 -0.7198 -0.9197  0.6857
11313TIP3   OH255429   0.337   3.510   4.124  0.2657 -0.2105 -0.1296
11313TIP3    H155430   0.425   3.486   4.093 -0.7344 -2.9108 -1.1730
11313TIP3    H255431   0.311   3.437   4.181 -0.5939  1.4709  1.7426
11314TIP3   OH255432   3.087   3.850   6.015  0.2536  0.2270 -0.0111
11314TIP3    H155433   3.137   3.872   5.937  0.3432  1.7036  0.4388
11314TIP3    H255434   3.148   3.802   6.070  0.5111  0.1226 -0.3799
11315TIP3   OH255435   2.402   5.387   0.383  0.2696 -0.2441 -1.1285
11315TIP3    H155436   2.497   5.393   0.369  0.2179  0.7609 -1.0889
11315TIP3    H255437   2.372   5.326   0.315  1.3018 -2.8544  0.6038
11316TIP3   OH255438   6.685   5.167   1.503 -0.7877  0.1749 -0.0535
11316TIP3    H155439   6.710   5.133   1.417  2.5961  2.1938 -0.0645
11316TIP3    H255440   6.750   5.131   1.563 -2.8756 -0.9110  1.6854
11317TIP3   OH255441   3.520   2.801   2.085 -0.5051  0.5569  0.6706
11317TIP3    H155442   3.562   2.802   2.171 -0.0602  0.8458  0.4552
11317TIP3    H255443   3.457   2.730   2.090  1.6749 -1.5331  0.1948
11318TIP3   OH255444   5.809   0.167  13.633  0.5171 -0.2005 -0.3027
11318TIP3    H155445   5.871   0.237  13.613 -1.2115  0.4614 -4.3060
11318TIP3    H255446   5.740   0.210  13.683  0.2121  0.6417 -1.4129
11319TIP3   OH255447   4.744   4.871  12.017 -0.2837 -0.2212 -0.3089
11319TIP3    H155448   4.757   4.953  11.969 -0.8677  0.9052  1.3743
11319TIP3    H255449   4.706   4.812  11.952 -0.2871  0.9696 -1.4479
11320TIP3   OH255450   4.407   3.253   2.831  0.1363  0.4246  0.5530
11320TIP3    H155451   4.389   3.199   2.908 -0.5724 -1.1153 -0.6559
11320TIP3    H255452   4.329   3.245   2.776  1.1854  0.2985 -0.9935
11321TIP3   OH255453   4.193   1.616  16.687 -0.6507  0.4028 -0.5462
11321TIP3    H155454   4.134   1.688  16.710  0.8593  1.2065  1.0850
11321TIP3    H255455   4.223   1.637  16.599 -0.5600  1.5765 -0.2527
11322TIP3   OH255456   0.574   4.156  10.892  0.4967  0.0195 -0.2458
11322TIP3    H155457   0.527   4.080  10.925  0.1438  1.1237  1.9747
11322TIP3    H255458   0.662   4.125  10.874  0.6322 -0.7218  1.5709
11323TIP3   OH255459   0.214   5.816  13.568  0.3733 -0.0562 -0.1733
11323TIP3    H155460   0.191   5.727  13.596 -2.7637  1.4463  2.7520
11323TIP3    H255461   0.148   5.839  13.502  0.9436  0.2675 -0.6431
11324TIP3   OH255462   0.313   5.132   4.822 -0.3482 -0.6773 -0.0456
11324TIP3    H155463   0.319   5.201   4.888  0.6033  0.1740 -0.9813
11324TIP3    H255464   0.223   5.137   4.790 -0.9729 -1.4361  1.4986
11325TIP3   OH255465   2.973   2.375  13.965 -0.0795  0.8605  0.7196
11325TIP3    H155466   2.921   2.297  13.982 -0.2872  0.8708  0.1234
11325TIP3    H255467   2.930   2.419  13.893 -0.7003  2.2130  1.8576
11326TIP3   OH255468   6.203   4.494   1.746 -0.6709 -0.0293  0.3727
11326TIP3    H155469   6.139   4.564   1.737  0.8088  1.2184 -0.9978
11326TIP3    H255470   6.174   4.427   1.683 -1.9161 -0.5689  1.4701
11327TIP3   OH255471   2.921   0.831   5.140 -0.0051 -0.4197 -0.0566
11327TIP3    H155472   2.969   0.898   5.190  1.8627 -1.2621 -0.6237
11327TIP3    H255473   2.899   0.874   5.057  0.5197 -0.2815 -0.1263
11328TIP3   OH255474   0.568   3.030   5.179 -0.1693  0.5097 -0.2351
11328TIP3    H155475   0.555   3.125   5.179 -1.1529  0.4417  2.4469
11328TIP3    H255476   0.485   2.995   5.148 -0.7438  0.4918  1.2673
11329TIP3   OH255477   6.723   2.505   1.557 -0.1470  0.4642  0.2220
11329TIP3    H155478   6.712   2.593   1.594 -2.7291 -0.3438  1.6254
11329TIP3    H255479   6.778   2.460   1.621 -0.6917  0.4513  0.7013
11330TIP3   OH255480   2.092   5.957   0.886 -0.7191  0.1463 -0.1753
11330TIP3    H155481   2.039   5.984   0.961 -0.7549 -1.0673  0.2560
11330TIP3    H255482   2.178   5.938   0.923 -0.7313 -0.4397 -0.4302
11331TIP3   OH255483   0.549   1.620  15.546  0.7189 -0.4501  0.1972
11331TIP3    H155484   0.464   1.589  15.578  1.0200  0.6464  2.2248
11331TIP3    H255485   0.552   1.712  15.571  0.4142  1.0132 -4.4224
11332TIP3   OH255486   2.028   1.049   2.856 -0.0724  0.3517 -0.1532
11332TIP3    H155487   1.975   1.107   2.911  0.8629  0.6555  0.4601
11332TIP3    H255488   2.011   1.079   2.767  0.3213  1.5170  0.1476
11333TIP3   OH255489   4.143   5.389  12.728  0.6219  0.4093  0.5666
11333TIP3    H155490   4.071   5.327  12.728  1.7900 -0.9821  0.2082
11333TIP3    H255491   4.186   5.377  12.813  0.2039  1.5358  0.9589
11334TIP3   OH255492   4.500   5.523   1.363 -0.4191 -0.1778  0.1718
11334TIP3    H155493   4.536   5.559   1.281 -1.3825 -1.3523 -0.8021
11334TIP3    H255494   4.551   5.443   1.378 -0.8482 -0.4405  0.2300
11335TIP3   OH255495   3.861   1.803   3.661  0.0948  0.1570  0.6031
11335TIP3    H155496   3.898   1.850   3.736 -0.3926  0.6527  0.5383
11335TIP3    H255497   3.882   1.858   3.586 -1.1184  0.6508  0.6123
11336TIP3   OH255498   2.368   3.771  16.567  0.0172  0.0447  0.3821
11336TIP3    H155499   2.332   3.695  16.520  2.4527 -1.1205  0.2304
11336TIP3    H255500   2.366   3.746  16.659 -1.2506  0.7643  0.5675
11337TIP3   OH255501   6.247   0.011   5.002  0.2671 -0.0276  0.7212
11337TIP3    H155502   6.189   0.065   4.948 -1.3413 -2.3483 -0.0275
11337TIP3    H255503   6.283  -0.053   4.941  1.3943 -0.3993  1.7409
11338TIP3   OH255504   6.345   3.432  14.710  0.2529  0.0096 -0.1805
11338TIP3    H155505   6.308   3.508  14.755 -0.4942  0.2687 -1.1856
11338TIP3    H255506   6.421   3.467  14.664  0.5847 -0.0997  0.2806
11339TIP3   OH255507   2.497   1.082   4.367 -0.5225  0.0634 -0.3312
11339TIP3    H155508   2.452   1.039   4.440  0.3980  1.8809  1.4170
11339TIP3    H255509   2.562   1.018   4.338 -0.3527 -0.4232  1.0208
11340TIP3   OH255510   0.597   5.401  15.936 -0.1725 -0.1994 -0.1556
11340TIP3    H155511   0.638   5.482  15.966  0.4043  0.1874 -1.8711
11340TIP3    H255512   0.505   5.423  15.926 -0.3471 -0.2920  1.1045
11341TIP3   OH255513   5.723   3.866   4.885 -0.0648  0.4566  0.0495
11341TIP3    H155514   5.768   3.935   4.837  0.9224  0.6154  1.1507
11341TIP3    H255515   5.634   3.901   4.899  0.5247  1.7051  0.9235
11342TIP3   OH255516   3.934   2.565   0.681  0.0993 -1.0668 -0.1583
11342TIP3    H155517   4.001   2.511   0.723  0.3214 -1.1897 -0.6577
11342TIP3    H255518   3.872   2.503   0.643 -0.6319 -0.9474  0.8173
11343TIP3   OH255519   1.277   0.590   1.427  0.1377  0.0758 -0.0311
11343TIP3    H155520   1.363   0.550   1.411 -1.0713 -2.3335 -0.8355
11343TIP3    H255521   1.237   0.535   1.494 -0.3851  1.8850  1.2345
11344TIP3   OH255522   0.436   3.536  12.244 -0.4546 -0.3228  0.1409
11344TIP3    H155523   0.373   3.571  12.307 -0.5810 -1.6020  0.7617
11344TIP3    H255524   0.467   3.455  12.284  0.1021 -0.7261 -1.0621
11345TIP3   OH255525   3.813   3.995  13.657  0.0428 -0.3240  0.0057
11345TIP3    H155526   3.759   4.027  13.585 -1.1913 -0.7101  0.7243
11345TIP3    H255527   3.844   4.074  13.702 -2.9765 -0.0137  1.7723
11346TIP3   OH255528   5.335   4.277  13.020  0.1375  0.6028 -0.4139
11346TIP3    H155529   5.424   4.275  13.056 -0.2641 -0.8648  0.6126
11346TIP3    H255530   5.344   4.236  12.934  0.7005  1.9328 -1.0137
11347TIP3   OH255531   1.450   5.590  15.444  0.1357  0.2259 -0.2523
11347TIP3    H155532   1.538   5.611  15.472  0.0975 -1.4978  1.3622
11347TIP3    H255533   1.462   5.539  15.363  0.4484  1.9979 -1.3674
11348TIP3   OH255534   0.513   4.462  13.745 -0.3402  0.1215  0.5862
11348TIP3    H155535   0.447   4.402  13.708 -1.6374  0.6572  1.9493
11348TIP3    H255536   0.595   4.433  13.706 -1.2046 -1.3342 -0.2642
11349TIP3   OH255537   6.164   6.693   4.646  0.9925  0.4749 -0.0224
11349TIP3    H155538   6.101   6.753   4.686 -1.2581 -1.0930 -0.9759
11349TIP3    H255539   6.224   6.670   4.717 -0.1760  1.1864  1.2476
11350TIP3   OH255540   2.688   4.981   3.987 -0.8016  0.2795 -0.7999
11350TIP3    H155541   2.780   4.978   4.013 -0.5343  0.8012 -1.6207
11350TIP3    H255542   2.681   4.914   3.919 -1.1022  0.0423 -0.5382
11351TIP3   OH255543   4.396   6.275   1.600  0.3190 -0.2765  0.0593
11351TIP3    H155544   4.395   6.209   1.669 -1.5568 -0.4721 -0.1011
11351TIP3    H255545   4.489   6.287   1.580  0.9643  0.0694  2.8486
11352TIP3   OH255546   0.367   1.545   0.269 -0.5113  0.6057 -0.5281
11352TIP3    H155547   0.355   1.539   0.363  1.6217 -2.4628 -0.3047
11352TIP3    H255548   0.282   1.520   0.232 -1.3503  1.8030  0.5305
11353TIP3   OH255549   3.462   2.576   5.289  0.1263  0.0885  0.4916
11353TIP3    H155550   3.439   2.501   5.234 -0.3303  0.3716  0.2951
11353TIP3    H255551   3.554   2.594   5.268  0.4183 -0.7846  0.9748
11354TIP3   OH255552   0.899   2.234   3.695 -0.0566 -0.3365 -0.1259
11354TIP3    H155553   0.925   2.314   3.740 -2.4334 -0.8274  2.3384
11354TIP3    H255554   0.810   2.252   3.663 -0.5360 -1.8890  0.2488
11355TIP3   OH255555   2.830   6.179  12.626  0.2278 -0.1162  0.0914
11355TIP3    H155556   2.917   6.195  12.664 -0.4014  0.7639  1.2340
11355TIP3    H255557   2.823   6.084  12.622  1.1439 -0.2004  0.2362
11356TIP3   OH255558   2.983   3.508  12.843  0.1057 -0.0010  0.1824
11356TIP3    H155559   2.928   3.526  12.767 -0.9623 -1.1920  0.6341
11356TIP3    H255560   2.956   3.573  12.908  0.3417  0.4100 -0.1286
11357TIP3   OH255561   0.951   1.916   0.917  0.3225  0.4876 -0.1422
11357TIP3    H155562   0.989   1.910   1.005 -1.9081 -2.1333  0.7656
11357TIP3    H255563   0.869   1.964   0.930  0.2879  0.6564 -0.9426
11358TIP3   OH255564   2.237   2.688  16.189  0.0247 -0.5075 -0.7869
11358TIP3    H155565   2.329   2.662  16.194  0.4754  1.1078  0.4003
11358TIP3    H255566   2.234   2.772  16.235 -2.3651 -1.3552  0.7631
11359TIP3   OH255567   4.415   3.944   0.562  0.3224 -0.2275 -0.3326
11359TIP3    H155568   4.339   3.999   0.579  1.7895  3.2822 -3.5019
11359TIP3    H255569   4.479   3.971   0.628  0.3822  0.4447 -0.6591
11360TIP3   OH255570   6.567   3.892   1.878  0.1038 -0.1496  0.3589
11360TIP3    H155571   6.556   3.981   1.846  2.1972 -0.2723 -0.8884
11360TIP3    H255572   6.554   3.899   1.973  0.8256  1.5979  0.3665
11361TIP3   OH255573   1.152   5.007   4.308 -0.5256  0.1100 -0.2125
11361TIP3    H155574   1.069   4.971   4.338  0.1957 -0.0304  1.7181
11361TIP3    H255575   1.137   5.102   4.302 -0.5920  0.1981  1.0561
11362TIP3   OH255576   5.224   6.754   5.542 -0.7905  0.2794  0.0274
11362TIP3    H155577   5.283   6.728   5.472  0.5835  0.0751  1.2303
11362TIP3    H255578   5.208   6.847   5.526 -1.6988 -0.0853 -1.3885
11363TIP3   OH255579   6.291   4.448  15.939  0.6156  0.0631  0.0186
11363TIP3    H155580   6.243   4.369  15.914  0.9673  0.5482 -2.4789
11363TIP3    H255581   6.258   4.470  16.026 -0.7974 -1.8032  0.0173
11364TIP3   OH255582   6.780   3.695  13.434 -0.4784 -0.0005  0.2522
11364TIP3    H155583   6.696   3.736  13.414  0.2706  0.5659 -2.1487
11364TIP3    H255584   6.760   3.602  13.443 -1.2893  0.0151 -1.0738
11365TIP3   OH255585   4.605   3.735   5.418 -0.2162  0.4012  0.0445
11365TIP3    H155586   4.679   3.696   5.372  0.2433  0.8144  0.4131
11365TIP3    H255587   4.630   3.827   5.429  0.6199 -0.0524  2.8408
11366TIP3   OH255588   1.759   1.957   2.396 -0.5050 -0.3982 -0.0224
11366TIP3    H155589   1.675   1.988   2.430 -0.9726 -0.8887 -0.7245
11366TIP3    H255590   1.740   1.872   2.357  0.0253  0.1380 -1.4942
11367TIP3   OH255591   3.584   6.605  13.643 -0.3302 -0.4870 -0.3494
11367TIP3    H155592   3.671   6.577  13.615  0.0658  1.3920 -1.2008
11367TIP3    H255593   3.597   6.695  13.673 -1.8795 -0.3859  0.1027
11368TIP3   OH255594   5.341   2.514   4.638  0.0602  0.3045 -0.6931
11368TIP3    H155595   5.407   2.529   4.706  0.2140  2.6100 -1.2689
11368TIP3    H255596   5.386   2.462   4.571  1.2195  1.6081 -0.9471
11369TIP3   OH255597   5.837   1.926   2.965  0.1168 -0.1029 -0.0148
11369TIP3    H155598   5.841   1.862   3.036  1.0245 -0.2286 -0.1708
11369TIP3    H255599   5.771   1.892   2.905  0.2728 -0.6585  0.1265
11370TIP3   OH255600   1.120   2.619   0.161 -0.8097  0.1383 -1.0547
11370TIP3    H155601   1.204   2.577   0.181 -1.1376 -0.7641 -1.5447
11370TIP3    H255602   1.061   2.547   0.138 -2.1340  0.6215  0.6558
11371TIP3   OH255603   5.680   1.082  15.372  0.8513  0.0850  0.1585
11371TIP3    H155604   5.633   1.008  15.410  1.2447  0.1326  0.7470
11371TIP3    H255605   5.771   1.070  15.399  1.0941  0.2682 -0.5464
11372TIP3   OH255606   0.202   1.837   1.579  0.2380 -0.6618 -0.0121
11372TIP3    H155607   0.161   1.883   1.653  2.3455  2.6806 -0.7115
11372TIP3    H255608   0.151   1.865   1.503  0.8804 -0.3369 -0.3295
11373TIP3   OH255609   6.730   3.560  15.419  0.5843 -0.3836  0.1634
11373TIP3    H155610   6.726   3.482  15.475  1.0236 -1.1772 -0.8812
11373TIP3    H255611   6.710   3.633  15.478  1.7225 -1.1139  1.5103
11374TIP3   OH255612   3.540   4.923   6.222 -0.0915  0.2972  0.2344
11374TIP3    H155613   3.603   4.946   6.290 -1.0635  0.2971  1.1457
11374TIP3    H255614   3.455   4.925   6.265 -0.8558  1.3187 -1.2253
11375TIP3   OH255615   0.701   3.596  12.013  0.0849  0.1596  0.0449
11375TIP3    H155616   0.657   3.664  12.064 -0.6544 -0.3909  0.1540
11375TIP3    H255617   0.785   3.583  12.057 -1.0497 -1.2155  1.9409
11376TIP3   OH255618   5.726   5.424   5.953 -0.3487 -0.2045 -0.4079
11376TIP3    H155619   5.780   5.383   6.021 -0.1800 -2.4636 -1.7917
11376TIP3    H255620   5.640   5.435   5.994  0.0779 -0.3832  0.5516
11377TIP3   OH255621   4.925   5.644   4.343  0.7919  0.2483 -0.0016
11377TIP3    H155622   4.997   5.704   4.363 -0.9552  1.9918  1.4244
11377TIP3    H255623   4.932   5.575   4.409  1.0135  0.5507  0.2963
11378TIP3   OH255624   6.787   0.946  15.857  0.4734 -0.5788  0.2182
11378TIP3    H155625   6.835   0.913  15.781  2.7063 -0.3602  1.4514
11378TIP3    H255626   6.834   1.025  15.883 -0.9554  0.0055  1.1504
11379TIP3   OH255627   3.594   1.110   1.258 -0.0044  0.0860  0.3092
11379TIP3    H155628   3.580   1.201   1.231 -0.4789 -1.2091 -4.7792
11379TIP3    H255629   3.506   1.072   1.261  0.2653 -0.4861  1.3407
11380TIP3   OH255630   4.350   1.253  15.336  0.0874  0.5932  0.3894
11380TIP3    H155631   4.401   1.330  15.314  2.9253 -0.7182  1.9040
11380TIP3    H255632   4.322   1.218  15.251  3.8890  0.0261 -0.7889
11381TIP3   OH255633   1.989   5.421   3.341  0.1900  0.2621 -0.0505
11381TIP3    H155634   1.989   5.370   3.421 -2.6324 -1.0081 -0.7321
11381TIP3    H255635   1.993   5.356   3.271  1.8859  1.3044 -0.9939
11382TIP3   OH255636   5.877   4.054   4.277 -0.1662  0.1087 -0.4083
11382TIP3    H155637   5.893   4.103   4.197 -2.3745 -1.4425 -1.9145
11382TIP3    H255638   5.964   4.028   4.307  0.7085  0.1506 -2.7117
11383TIP3   OH255639   1.030   6.838   4.343  0.0537  0.3329  0.0903
11383TIP3    H155640   0.944   6.840   4.386 -0.1910 -0.7325 -0.3116
11383TIP3    H255641   1.021   6.769   4.277  0.9881  0.7259 -0.4599
11384TIP3   OH255642   4.185   2.411   5.255 -0.4141 -0.0106 -0.4529
11384TIP3    H155643   4.101   2.398   5.211 -0.2933  0.6384 -0.8869
11384TIP3    H255644   4.248   2.362   5.202 -0.6163 -1.0604  0.2529
11385TIP3   OH255645   2.208   5.711  16.692 -0.6081 -0.4216  0.2192
11385TIP3    H155646   2.194   5.637  16.632 -1.0037 -0.7626  0.7249
11385TIP3    H255647   2.193   5.674  16.779  1.6549 -0.3594  0.6862
11386TIP3   OH255648   5.211   1.611  13.078  0.1861 -0.2547 -0.1200
11386TIP3    H155649   5.196   1.522  13.047 -1.3215 -0.3182  0.6808
11386TIP3    H255650   5.279   1.646  13.021 -0.7600 -1.1698 -1.8669
11387TIP3   OH255651   5.380   1.907   5.053  0.2584  0.8353  0.2128
11387TIP3    H155652   5.326   1.986   5.048 -1.6481 -0.4364 -0.3964
11387TIP3    H255653   5.345   1.858   5.127 -2.0065 -1.7166 -2.3301
11388TIP3   OH255654   1.678   3.132   2.785 -0.7358 -0.2181  0.0010
11388TIP3    H155655   1.702   3.159   2.696  0.5279  0.4188  0.5138
11388TIP3    H255656   1.727   3.052   2.800  1.3409  1.1764  1.1139
11389TIP3   OH255657   3.700   2.538  13.111  0.4331  0.0277 -0.2809
11389TIP3    H155658   3.791   2.552  13.084  0.3835  0.9544 -0.0119
11389TIP3    H255659   3.663   2.627  13.114 -0.3521 -0.3097  0.0488
11390TIP3   OH255660   6.711   0.663  14.210 -0.3581 -0.2852 -0.1751
11390TIP3    H155661   6.765   0.706  14.143  0.8909 -0.6000  0.5863
11390TIP3    H255662   6.663   0.735  14.252 -0.7018 -0.0216 -1.0114
11391TIP3   OH255663   5.760   5.970   4.934 -0.8602  0.0092  0.4537
11391TIP3    H155664   5.711   5.888   4.924 -1.8375  0.6634 -0.3441
11391TIP3    H255665   5.825   5.951   5.001 -1.2931 -1.3179  0.5311
11392TIP3   OH255666   4.410   0.914   3.006 -0.4111  0.4402  0.3739
11392TIP3    H155667   4.397   0.995   2.956  0.2649 -0.5228 -1.4600
11392TIP3    H255668   4.484   0.871   2.963 -2.0997 -2.1855 -0.1664
11393TIP3   OH255669   0.562   1.306  15.293  0.4494 -0.0865 -0.4954
11393TIP3    H155670   0.557   1.260  15.209  0.3600  0.2359 -0.6686
11393TIP3    H255671   0.537   1.241  15.358 -1.0271  0.0818 -0.8678
11394TIP3   OH255672   6.031   4.125   1.206  0.5178 -0.1971 -0.1958
11394TIP3    H155673   6.114   4.082   1.189  1.0640  0.8562 -0.2569
11394TIP3    H255674   5.976   4.057   1.247  2.0134 -0.4157  1.5815
11395TIP3   OH255675   5.491   4.247   4.507  0.0480 -0.3301  0.1679
11395TIP3    H155676   5.525   4.188   4.440 -1.7804 -3.0384  1.4165
11395TIP3    H255677   5.569   4.289   4.544  1.7185 -3.1842  0.2209
11396TIP3   OH255678   3.685   0.882  14.831  0.3050 -0.5771 -0.5944
11396TIP3    H155679   3.601   0.918  14.804  0.4016 -1.7924 -2.7566
11396TIP3    H255680   3.666   0.834  14.912 -0.4893  1.3369  0.4058
11397TIP3   OH255681   0.367   5.192   1.347 -0.0648  0.3006  0.3218
11397TIP3    H155682   0.304   5.126   1.318 -1.0196  1.6193 -0.7548
11397TIP3    H255683   0.451   5.163   1.312 -0.6319  0.0905 -0.9332
11398TIP3   OH255684   6.794   6.405  14.051  0.7186  0.4420 -0.2001
11398TIP3    H155685   6.705   6.370  14.061  0.5062 -0.9015 -4.5612
11398TIP3    H255686   6.848   6.349  14.107 -0.8069 -0.8168  0.0872
11399TIP3   OH255687   1.617   5.408   2.940  0.2364  0.5935 -0.5004
11399TIP3    H155688   1.644   5.447   3.023  0.1232 -0.1937 -0.0934
11399TIP3    H255689   1.672   5.330   2.931 -0.6623 -0.0527 -0.5165
11400TIP3   OH255690   3.702   3.888   4.412 -0.2114 -0.3147 -0.1260
11400TIP3    H155691   3.737   3.974   4.435 -0.4674  0.0221 -0.9705
11400TIP3    H255692   3.779   3.835   4.395 -0.0494 -0.2676  0.4205
11401TIP3   OH255693   3.648   4.317  15.854 -0.1468  0.2442  0.2316
11401TIP3    H155694   3.596   4.293  15.930 -1.3564  1.4906 -0.1706
11401TIP3    H255695   3.660   4.412  15.862  0.0952  0.3177 -0.8836
11402TIP3   OH255696   1.229   2.685   4.263 -0.5234 -0.2736  0.2016
11402TIP3    H155697   1.294   2.744   4.301 -1.1093 -0.3094  1.2986
11402TIP3    H255698   1.279   2.608   4.237  0.0414  0.1493 -0.0004
11403TIP3   OH255699   4.167   2.768  12.080 -0.1397  0.1328  0.0504
11403TIP3    H155700   4.152   2.850  12.127 -1.5940 -0.1216  0.0913
11403TIP3    H255701   4.079   2.738  12.055  0.5141 -0.1026 -2.2222
11404TIP3   OH255702   1.636   2.287  14.549  0.1633 -0.2621 -0.6565
11404TIP3    H155703   1.627   2.196  14.523 -0.4858 -0.6533  0.8562
11404TIP3    H255704   1.605   2.290  14.640  0.6951  1.3543 -0.4915
11405TIP3   OH255705   4.499   1.139  16.233  0.0284 -0.0168  0.0931
11405TIP3    H155706   4.403   1.137  16.231 -0.0370 -1.6663 -3.3717
11405TIP3    H255707   4.525   1.047  16.237  1.2830  0.1187 -2.5160
11406TIP3   OH255708   2.346   3.893  13.701  0.0213 -0.1187 -0.0128
11406TIP3    H155709   2.411   3.867  13.635  0.8078  1.5824  0.0283
11406TIP3    H255710   2.340   3.818  13.759  1.7783 -0.4370 -0.1756
11407TIP3   OH255711   0.953   6.623  14.469  0.5123 -0.0111 -0.2257
11407TIP3    H155712   0.875   6.677  14.457 -0.5473 -1.2659  0.6449
11407TIP3    H255713   1.026   6.683  14.458 -0.5913  1.3380 -0.4684
11408TIP3   OH255714   1.139   4.963   4.976  0.5030 -0.0289 -0.1956
11408TIP3    H155715   1.185   4.879   4.969  0.7168 -0.0652  1.4087
11408TIP3    H255716   1.206   5.026   5.000  0.0473  0.2664  0.3284
11409TIP3   OH255717   2.852   1.542   5.951  0.0033 -0.0077  0.2716
11409TIP3    H155718   2.870   1.575   6.039  0.5296 -0.5000  0.3545
11409TIP3    H255719   2.928   1.568   5.899 -0.6475  0.9359 -0.2257
11410TIP3   OH255720   4.055   4.780   6.039  0.7125  0.0929  0.4179
11410TIP3    H155721   3.966   4.809   6.020  0.1419 -0.6978  1.7184
11410TIP3    H255722   4.051   4.684   6.034  1.0365 -0.0532  2.1299
11411TIP3   OH255723   6.613   1.258  16.730 -0.4510 -0.4050  0.8157
11411TIP3    H155724   6.631   1.221  16.815  1.7750  0.0554  0.5998
11411TIP3    H255725   6.624   1.353  16.742 -0.0545 -0.3396  0.0105
11412TIP3   OH255726   0.757   4.731   2.661 -0.0184 -0.0444 -0.2703
11412TIP3    H155727   0.739   4.791   2.733  1.0184 -0.3181  0.2359
11412TIP3    H255728   0.728   4.646   2.693 -3.6813  0.4177 -1.8331
11413TIP3   OH255729   2.797   3.309  16.270  0.4161  0.6585 -0.2399
11413TIP3    H155730   2.798   3.237  16.332 -0.5527 -0.4833 -1.4871
11413TIP3    H255731   2.738   3.374  16.309 -0.8316 -0.3952 -0.3139
11414TIP3   OH255732   5.416   6.573   5.015 -0.5625 -0.1783  0.2153
11414TIP3    H155733   5.372   6.647   4.976  0.2095 -0.0805 -0.5146
11414TIP3    H255734   5.509   6.596   5.013 -0.2967 -1.1847 -0.1140
11415TIP3   OH255735   3.164   4.226  15.785 -0.0792  0.4014  0.2704
11415TIP3    H155736   3.069   4.232  15.773  0.0632  1.0818 -0.6059
11415TIP3    H255737   3.189   4.148  15.734 -0.1182  0.4519  0.1732
11416TIP3   OH255738   6.756   0.896   3.355 -0.0967  0.8526  0.4852
11416TIP3    H155739   6.790   0.815   3.317 -1.6718  0.2312  0.3363
11416TIP3    H255740   6.800   0.903   3.440  1.1017  0.6065 -0.0876
11417TIP3   OH255741   4.618   2.809   3.725 -0.1435  0.5166 -0.9789
11417TIP3    H155742   4.572   2.815   3.809 -1.7017 -1.5605 -1.6025
11417TIP3    H255743   4.711   2.813   3.748 -0.4970 -1.0188  0.9786
11418TIP3   OH255744   4.039   2.697   1.140 -0.7159  0.3695  0.4812
11418TIP3    H155745   4.015   2.605   1.145 -0.9493  0.4420  0.7093
11418TIP3    H255746   4.060   2.722   1.230  0.3071  0.2895  0.2815
11419TIP3   OH255747   5.280   3.200   2.267  0.2117 -0.5290  0.2656
11419TIP3    H155748   5.243   3.286   2.287  2.1231  0.9925 -2.0737
11419TIP3    H255749   5.336   3.180   2.342  0.4375  0.7395  0.4678
11420TIP3   OH255750   0.601   6.448   4.845  0.5669 -0.4691  0.2103
11420TIP3    H155751   0.523   6.410   4.804  1.6209 -1.6836 -0.7795
11420TIP3    H255752   0.612   6.397   4.926  0.3559 -0.3088  0.3420
11421TIP3   OH255753   6.595   3.785  11.009  0.3388 -0.3966 -0.2235
11421TIP3    H155754   6.603   3.722  11.081  0.2502  0.1531  0.2678
11421TIP3    H255755   6.681   3.825  11.002  0.1093  0.1633  0.1396
11422TIP3   OH255756   3.981   2.181  15.907 -0.1049  0.4794  0.1327
11422TIP3    H155757   4.024   2.230  15.977 -1.3134  1.4968  0.1955
11422TIP3    H255758   4.006   2.226  15.826  2.0160 -1.2219 -0.2379
11423TIP3   OH255759   4.530   0.796  14.694 -0.2885  0.0771 -0.1213
11423TIP3    H155760   4.579   0.843  14.626 -0.1917  1.5500  0.9386
11423TIP3    H255761   4.590   0.792  14.768 -1.5199  1.3980  0.9940
11424TIP3   OH255762   2.878   1.691  12.175  0.5191  0.3418 -0.0419
11424TIP3    H155763   2.962   1.662  12.211 -0.4398 -0.6816  1.5018
11424TIP3    H255764   2.864   1.635  12.099  0.2184 -1.0446  1.0060
11425TIP3   OH255765   0.294   6.759  13.696 -0.1797  0.0879  0.2823
11425TIP3    H155766   0.352   6.748  13.771  1.0115  0.0739 -0.6074
11425TIP3    H255767   0.327   6.838  13.652  0.2643 -0.8656 -1.1733
11426TIP3   OH255768   2.879   6.737   0.364 -0.4314 -0.2789  0.0246
11426TIP3    H155769   2.926   6.721   0.445 -1.4226 -1.3057  0.4086
11426TIP3    H255770   2.839   6.823   0.376  1.4469  0.7148 -0.3883
11427TIP3   OH255771   6.683   1.989  14.707 -0.4541  0.0414 -0.0425
11427TIP3    H155772   6.672   2.084  14.694  1.0754  0.0722 -1.3716
11427TIP3    H255773   6.715   1.981  14.797 -0.5039  0.7897  0.0517
11428TIP3   OH255774   6.808   0.194  12.983 -0.0632  0.2629  0.5330
11428TIP3    H155775   6.854   0.116  13.013 -1.7639 -1.6878 -1.6105
11428TIP3    H255776   6.715   0.171  12.990 -0.5844  1.4357 -1.7217
11429TIP3   OH255777   5.806   0.855  12.167 -0.3073  0.0489  0.2997
11429TIP3    H155778   5.812   0.761  12.149  0.4410  0.0664  0.4054
11429TIP3    H255779   5.882   0.893  12.123  0.1586  0.4143  1.3855
11430TIP3   OH255780   4.282   2.146  13.687  0.3318  0.4286  0.2042
11430TIP3    H155781   4.336   2.212  13.644 -0.2835 -0.4224 -1.9584
11430TIP3    H255782   4.344   2.080  13.717  0.6221  0.0021 -1.2712
11431TIP3   OH255783   1.263   3.148   4.315 -0.1541 -0.1815  0.0482
11431TIP3    H155784   1.344   3.108   4.348 -0.5874 -0.6862  0.5320
11431TIP3    H255785   1.197   3.079   4.325 -0.6841  0.2854 -0.1691
11432TIP3   OH255786   4.186   4.948  16.544  0.3800 -0.1701 -0.4596
11432TIP3    H155787   4.189   5.002  16.465 -1.1911 -0.2008 -0.5660
11432TIP3    H255788   4.094   4.922  16.552  0.5064 -0.1275  1.4062
11433TIP3   OH255789   0.755   3.049  13.045  0.3151  0.4927 -0.0823
11433TIP3    H155790   0.720   2.963  13.070 -0.0309  0.3808 -0.9100
11433TIP3    H255791   0.682   3.109  13.058  0.9237  0.9171  1.7408
11434TIP3   OH255792   3.730   1.762   0.201  0.0113  0.1611  0.7314
11434TIP3    H155793   3.678   1.738   0.124  1.2697 -0.0552 -0.0781
11434TIP3    H255794   3.799   1.818   0.167 -1.0329  2.4426  2.1371
11435TIP3   OH255795   3.463   3.246   3.789  0.0252  0.1526  0.1528
11435TIP3    H155796   3.427   3.187   3.855 -1.8049 -0.6118 -1.4212
11435TIP3    H255797   3.455   3.198   3.707  0.6153  1.7241 -0.8836
11436TIP3   OH255798   3.755   6.595   2.079 -0.5431  0.1580 -0.5544
11436TIP3    H155799   3.680   6.585   2.021 -1.1575 -1.0276  0.3914
11436TIP3    H255800   3.718   6.633   2.159 -0.0975 -0.2051 -0.1696
11437TIP3   OH255801   4.525   4.303   3.452 -0.4669  0.4163  0.1042
11437TIP3    H155802   4.452   4.285   3.391 -0.5486  0.8366  0.0801
11437TIP3    H255803   4.603   4.295   3.398 -0.3326 -1.9398  0.5071
11438TIP3   OH255804   4.578   3.978  14.102  0.0246 -0.5966  0.4480
11438TIP3    H155805   4.668   3.985  14.133  0.5713  1.5940 -1.3435
11438TIP3    H255806   4.585   3.930  14.019 -0.3789  0.0440  0.0387
11439TIP3   OH255807   0.197   6.480  11.782 -0.5772  0.2909  0.0094
11439TIP3    H155808   0.112   6.493  11.739  0.7267  0.2038 -2.7762
11439TIP3    H255809   0.213   6.386  11.775  0.0170  0.3927  0.0094
11440TIP3   OH255810   2.403   5.008   2.624 -0.7763  0.2176 -0.3552
11440TIP3    H155811   2.358   4.947   2.564 -0.0776 -0.8395  0.1595
11440TIP3    H255812   2.393   5.093   2.582 -2.4295 -0.1113 -0.7400
11441TIP3   OH255813   1.227   3.451  12.598  0.0872  0.0530 -0.0681
11441TIP3    H155814   1.134   3.461  12.617 -0.1457 -0.1717 -1.0050
11441TIP3    H255815   1.260   3.391  12.665 -0.4574  0.0937  0.2348
11442TIP3   OH255816   4.972   1.888  14.089  0.3285 -0.8629 -0.3935
11442TIP3    H155817   4.986   1.793  14.097  0.6332 -0.7111  1.3084
11442TIP3    H255818   5.060   1.923  14.074  0.2846 -0.7982 -0.5016
11443TIP3   OH255819   1.401   4.675  13.871  0.1220  0.4712 -0.6757
11443TIP3    H155820   1.319   4.722  13.855 -0.2985 -0.2019 -0.5523
11443TIP3    H255821   1.390   4.592  13.825 -0.0465 -0.4213  0.9046
11444TIP3   OH255822   1.556   3.161   4.146 -0.3577  0.3703 -0.3979
11444TIP3    H155823   1.499   3.090   4.117  1.3236 -2.0064  1.6274
11444TIP3    H255824   1.601   3.190   4.067 -0.6546 -1.2687 -1.2199
11445TIP3   OH255825   6.204   1.121  16.939 -0.2248 -0.2053  0.1317
11445TIP3    H155826   6.209   1.121  16.843 -2.6821  2.9447 -0.1630
11445TIP3    H255827   6.130   1.064  16.959  0.6945 -1.3933  0.2776
11446TIP3   OH255828   1.088   6.053   6.278 -0.0510  0.0372 -0.4538
11446TIP3    H155829   1.001   6.015   6.270  0.2725 -1.0141  0.7128
11446TIP3    H255830   1.136   5.993   6.336  1.6776  0.2081 -1.6174
11447TIP3   OH255831   3.491   2.767   3.646 -0.4619 -0.0468  0.2406
11447TIP3    H155832   3.544   2.828   3.697  0.6191  1.3694 -2.3844
11447TIP3    H255833   3.555   2.710   3.603 -1.1627  0.2481 -1.2526
11448TIP3   OH255834   6.437   1.444   0.297 -0.5812  0.1376 -0.1788
11448TIP3    H155835   6.370   1.433   0.228 -0.9156  1.2367 -0.0529
11448TIP3    H255836   6.396   1.408   0.376 -0.2608 -0.9728 -0.4934
11449TIP3   OH255837   1.198   1.902  11.041  0.2595  0.7039  0.4957
11449TIP3    H155838   1.114   1.930  11.077 -0.5401 -0.7934 -0.0875
11449TIP3    H255839   1.194   1.927  10.948 -0.7370 -1.6997 -0.1930
11450TIP3   OH255840   0.388   2.408   1.395  0.6131  0.4222  0.1966
11450TIP3    H155841   0.320   2.369   1.340  0.1585  2.5280 -0.8243
11450TIP3    H255842   0.406   2.341   1.462 -0.5195 -1.2510 -1.0863
11451TIP3   OH255843   2.417   2.892   1.884  0.1756 -0.2936 -0.2645
11451TIP3    H155844   2.443   2.801   1.871 -2.2210 -1.3633  1.7100
11451TIP3    H255845   2.324   2.894   1.862 -0.0986  1.4073  0.8999
11452TIP3   OH255846   4.799   2.443  12.447 -0.0625 -0.2340  0.0926
11452TIP3    H155847   4.831   2.468  12.533 -0.2504 -1.6112  0.5784
11452TIP3    H255848   4.850   2.498  12.386 -1.1308  2.0003  1.1088
11453TIP3   OH255849   3.337   5.121   0.400  0.8364  0.7190  0.5129
11453TIP3    H155850   3.248   5.149   0.381 -0.3862 -1.6392  2.2717
11453TIP3    H255851   3.369   5.186   0.463  0.4100  1.6350 -0.1986
11454TIP3   OH255852   6.017   2.900  13.211  0.0147  0.7728 -0.1160
11454TIP3    H155853   5.948   2.843  13.179 -0.3712  1.3474 -0.3120
11454TIP3    H255854   5.993   2.920  13.301 -0.5599  1.7106 -0.4704
11455TIP3   OH255855   5.920   5.009  16.004  0.0814  0.6161  0.2981
11455TIP3    H155856   5.858   5.075  15.972  0.3968  0.4879 -0.6194
11455TIP3    H255857   6.006   5.047  15.986  0.2948 -0.6686 -1.7192
11456TIP3   OH255858   2.321   0.224   1.004  0.1985  0.0632 -0.1197
11456TIP3    H155859   2.387   0.199   1.068  0.4318  0.0074 -0.3778
11456TIP3    H255860   2.342   0.315   0.982 -0.4395  0.3815  0.5636
11457TIP3   OH255861   5.182   0.283   1.990  0.2026  0.0673 -0.2658
11457TIP3    H155862   5.215   0.349   1.929  0.4377  0.3441  0.1641
11457TIP3    H255863   5.250   0.274   2.057  0.3675 -0.9144 -0.5392
11458TIP3   OH255864   5.823   6.558   4.903  0.1627 -0.2780 -0.0273
11458TIP3    H155865   5.890   6.489   4.907 -0.1140 -0.5072  0.6315
11458TIP3    H255866   5.753   6.520   4.851  0.3794 -0.1711 -0.4058
11459TIP3   OH255867   4.202   4.020   0.145  0.2179  0.4727  0.5930
11459TIP3    H155868   4.264   3.975   0.202 -1.6445 -0.8470  1.6635
11459TIP3    H255869   4.216   3.980   0.059 -0.1345 -0.8890  1.1407
11460TIP3   OH255870   1.668   1.375   5.285  0.0934  0.3389  0.7021
11460TIP3    H155871   1.629   1.317   5.350  0.5123 -1.0576 -0.2374
11460TIP3    H255872   1.601   1.440   5.267 -1.5935 -1.5911 -0.3741
11461TIP3   OH255873   4.849   3.988  14.117 -0.2639  0.3862  0.1506
11461TIP3    H155874   4.940   3.981  14.148  0.2630  0.7998 -1.2084
11461TIP3    H255875   4.853   3.960  14.026 -1.7798 -0.9387  0.4607
11462TIP3   OH255876   1.462   2.725  15.467 -0.8234 -0.2826  0.0871
11462TIP3    H155877   1.551   2.760  15.469 -0.3854 -1.3685  0.3385
11462TIP3    H255878   1.407   2.800  15.489  0.0758  0.2660  0.5565
11463TIP3   OH255879   2.093   2.882   5.165  0.4077 -0.0002  0.3392
11463TIP3    H155880   2.052   2.874   5.251 -2.7957 -1.8884 -1.1695
11463TIP3    H255881   2.095   2.792   5.132 -0.2845  0.8587 -2.2671
11464TIP3   OH255882   0.692   5.163  15.156  0.3313  0.3649  0.1562
11464TIP3    H155883   0.708   5.077  15.196 -2.2395 -0.4699 -0.3958
11464TIP3    H255884   0.724   5.154  15.067  0.7409  0.2187  0.3180
11465TIP3   OH255885   4.594   5.318  10.522 -0.0120 -1.2520  0.1350
11465TIP3    H155886   4.523   5.355  10.575  0.1784 -1.4804  0.5578
11465TIP3    H255887   4.561   5.232  10.496 -0.0751 -1.1700 -0.0597
11466TIP3   OH255888   2.211   4.672   5.090  0.1923 -0.5209 -0.1430
11466TIP3    H155889   2.175   4.600   5.037  0.3446 -1.4284  0.9633
11466TIP3    H255890   2.233   4.632   5.174  1.3570  0.5823  0.1115
11467TIP3   OH255891   6.607   1.056   0.218 -0.8957 -0.3463  0.2534
11467TIP3    H155892   6.667   1.046   0.144 -0.7526 -0.1879  0.3475
11467TIP3    H255893   6.527   1.091   0.180 -0.1650  1.6932  0.4392
11468TIP3   OH255894   1.448   4.960   0.477 -0.5567 -0.1946 -0.0651
11468TIP3    H155895   1.507   4.912   0.534  0.4630  0.0078 -0.9304
11468TIP3    H255896   1.418   5.034   0.530  1.8756  1.0865 -0.3447
11469TIP3   OH255897   0.967   4.710   5.718  0.3255  0.4414  0.2308
11469TIP3    H155898   1.010   4.653   5.655  0.6861 -0.2804  1.1148
11469TIP3    H255899   0.873   4.701   5.698  0.3758 -0.5051  0.3890
11470TIP3   OH255900   3.458   0.297  12.491 -0.6210 -0.0744  0.3791
11470TIP3    H155901   3.547   0.327  12.506 -1.1139  1.0176  1.2285
11470TIP3    H255902   3.453   0.213  12.536  0.1336 -0.4080 -0.1478
11471TIP3   OH255903   2.324   3.472  12.179 -0.4379 -0.3649  0.3176
11471TIP3    H155904   2.305   3.421  12.258 -1.7411  1.3176  1.1398
11471TIP3    H255905   2.238   3.486  12.138 -0.0922  0.9260 -0.0148
11472TIP3   OH255906   1.775   5.095   3.982  0.0286  0.0479  0.4571
11472TIP3    H155907   1.732   5.011   3.967  0.3625  0.0500 -0.6007
11472TIP3    H255908   1.846   5.097   3.918 -1.2442  2.0323 -1.0303
11473TIP3   OH255909   1.857   5.928   5.221 -0.3015 -0.4604  0.0420
11473TIP3    H155910   1.908   5.885   5.153  0.1262 -0.2283  0.2149
11473TIP3    H255911   1.784   5.969   5.175  0.1000 -0.1295 -0.2991
11474TIP3   OH255912   1.678   2.271   2.935  0.8256  0.1219  0.0628
11474TIP3    H155913   1.690   2.199   2.997  3.1063  0.5318  0.1675
11474TIP3    H255914   1.713   2.348   2.979  0.3556  0.8920 -0.8649
11475TIP3   OH255915   3.869   2.906  12.992 -1.4356  0.1989  0.4008
11475TIP3    H155916   3.942   2.879  12.937 -0.6867  0.2119  1.3747
11475TIP3    H255917   3.791   2.890  12.938 -0.7202  0.2409 -0.6617
11476TIP3   OH255918   5.280   3.185   3.716  0.2826 -0.8695 -0.5640
11476TIP3    H155919   5.307   3.191   3.808  0.8393  0.2944 -0.7822
11476TIP3    H255920   5.186   3.173   3.719  0.2766 -0.6792  0.1599
11477TIP3   OH255921   0.870   6.633  15.609 -0.3489 -0.1867  0.0632
11477TIP3    H155922   0.914   6.683  15.541 -1.0454 -1.1987 -1.1656
11477TIP3    H255923   0.785   6.610  15.571 -0.7704 -0.7426  1.2876
11478TIP3   OH255924   5.000   4.679  15.697 -0.3494 -0.0099 -0.7553
11478TIP3    H155925   5.051   4.612  15.653 -0.0989 -0.2379 -0.1328
11478TIP3    H255926   4.914   4.640  15.711  0.0082 -0.4782  0.2409
11479TIP3   OH255927   5.808   1.536   5.976  0.1950 -0.3896  0.5347
11479TIP3    H155928   5.768   1.602   5.919  0.7649 -0.3274  0.1924
11479TIP3    H255929   5.789   1.566   6.065  0.6714  0.3799  0.3861
11480TIP3   OH255930   0.759   6.209   1.138 -0.5700  0.4657 -0.2220
11480TIP3    H155931   0.682   6.265   1.148  1.0187  3.5160 -3.1512
11480TIP3    H255932   0.827   6.251   1.190 -0.1808 -0.7929  0.3325
11481TIP3   OH255933   2.170   1.612  15.881 -0.0918 -0.4227 -0.2426
11481TIP3    H155934   2.203   1.590  15.968  1.0784 -2.5444 -1.1366
11481TIP3    H255935   2.170   1.528  15.834 -2.8653  0.2275 -1.6306
11482TIP3   OH255936   2.202   0.875   2.374  0.2481  0.2060 -0.1614
11482TIP3    H155937   2.154   0.845   2.297 -1.6851 -0.5180  1.2426
11482TIP3    H255938   2.294   0.877   2.346  0.2990 -4.6096 -1.2056
11483TIP3   OH255939   6.432   6.614   0.520  0.9316  0.2010  0.2751
11483TIP3    H155940   6.497   6.557   0.560  1.3674 -0.1998 -0.9548
11483TIP3    H255941   6.473   6.700   0.516  2.2317 -0.4428 -2.2711
11484TIP3   OH255942   2.197   4.297   2.157  0.1015 -0.0221 -0.1666
11484TIP3    H155943   2.215   4.388   2.134 -1.8213 -0.1842 -2.6956
11484TIP3    H255944   2.251   4.246   2.097 -1.6896 -0.4784 -1.4665
11485TIP3   OH255945   1.333   2.735  16.001  0.0372  0.0728  0.3598
11485TIP3    H155946   1.330   2.660  16.060  1.7593 -0.5313 -0.2311
11485TIP3    H255947   1.315   2.811  16.057  2.3235 -0.4019  1.8801
11486TIP3   OH255948   4.398   5.510  11.358 -0.3791  0.3101 -0.3172
11486TIP3    H155949   4.313   5.553  11.372 -1.0369 -1.0959  0.1486
11486TIP3    H255950   4.405   5.446  11.428  1.2390  0.6123 -0.1595
11487TIP3   OH255951   6.252   6.232  11.419  0.3077  0.6342  0.2665
11487TIP3    H155952   6.225   6.258  11.331 -1.5690 -1.4017  0.1724
11487TIP3    H255953   6.209   6.295  11.477 -0.7096  0.3275 -0.1424
11488TIP3   OH255954   4.444   3.080   0.202 -0.1863  0.2542 -0.3132
11488TIP3    H155955   4.496   3.143   0.252  0.6721  0.5633 -1.5519
11488TIP3    H255956   4.492   3.069   0.120 -0.4476 -1.8463 -0.2334
11489TIP3   OH255957   6.607   6.187   0.309 -0.1800  0.4125  0.2787
11489TIP3    H155958   6.674   6.144   0.255  0.1667 -1.6143  2.2026
11489TIP3    H255959   6.605   6.277   0.276  0.6514 -0.4623 -2.4625
11490TIP3   OH255960   6.438   4.463  10.546 -0.6015 -0.5722 -0.8350
11490TIP3    H155961   6.370   4.417  10.596 -0.9259  0.5678 -0.1882
11490TIP3    H255962   6.408   4.459  10.455 -1.2264 -0.6226 -0.6311
11491TIP3   OH255963   5.476   0.063   2.664 -0.1848  0.6565  0.6917
11491TIP3    H155964   5.418  -0.013   2.665 -0.7104  0.8857 -2.3122
11491TIP3    H255965   5.564   0.026   2.654 -0.4437  0.3740 -0.7988
11492TIP3   OH255966   5.733   6.563   3.437  0.1919  0.3071  0.1492
11492TIP3    H155967   5.795   6.630   3.410 -0.1686  0.0139 -1.5221
11492TIP3    H255968   5.762   6.537   3.524  1.3481  1.4150  0.1211
11493TIP3   OH255969   1.805   1.342   4.336 -0.2912  0.2766 -0.3035
11493TIP3    H155970   1.861   1.294   4.276  2.4580  0.2233  2.1018
11493TIP3    H255971   1.797   1.429   4.297 -0.4091 -0.3720 -1.7814
11494TIP3   OH255972   4.753   5.157  16.603 -0.3955 -0.4596 -0.0154
11494TIP3    H155973   4.843   5.134  16.578 -0.4542 -0.6539 -0.0438
11494TIP3    H255974   4.708   5.073  16.613 -0.5223 -0.3670  0.1903
11495TIP3   OH255975   2.577   5.289   4.901  0.4512  0.1013  0.0282
11495TIP3    H155976   2.663   5.253   4.877 -0.0456 -0.6535 -0.6861
11495TIP3    H255977   2.521   5.269   4.826 -0.7601 -0.9222  1.1480
11496TIP3   OH255978   6.668   4.045   2.572  0.7133 -0.1543 -0.4883
11496TIP3    H155979   6.613   4.052   2.494  0.5046  1.7249 -0.2400
11496TIP3    H255980   6.607   4.061   2.645  0.7196 -2.7724  0.1785
11497TIP3   OH255981   6.334   5.834  13.941  0.2083  0.1889  0.0567
11497TIP3    H155982   6.337   5.785  14.023 -2.5894 -0.3720 -0.0847
11497TIP3    H255983   6.416   5.811  13.897 -0.1744 -3.0621  0.7563
11498TIP3   OH255984   1.744   3.441  11.645  0.6121  0.1466 -0.6746
11498TIP3    H155985   1.677   3.398  11.698 -0.4306  1.1691 -1.1220
11498TIP3    H255986   1.785   3.503  11.705 -0.2947  1.0171 -0.9272
11499TIP3   OH255987   3.643   5.600  16.586  0.4920  0.4353 -0.5148
11499TIP3    H155988   3.701   5.657  16.535 -1.0567  2.3549 -0.2241
11499TIP3    H255989   3.589   5.660  16.638 -0.6827 -1.3381  0.4195
11500TIP3   OH255990   1.728   5.961   4.002  0.1336 -0.3394  0.2793
11500TIP3    H155991   1.712   5.971   4.096 -0.5315  0.2199  0.1082
11500TIP3    H255992   1.787   6.032   3.980 -1.7614  1.1549 -0.2224
11501TIP3   OH255993   3.109   0.275  11.997 -0.0814 -0.1884 -0.2730
11501TIP3    H155994   3.054   0.207  11.957  1.1235 -1.5006  0.1911
11501TIP3    H255995   3.070   0.289  12.084  1.2895 -2.5122  0.8361
11502TIP3   OH255996   0.057   0.770  14.027 -0.7552  0.6935 -0.2161
11502TIP3    H155997   0.126   0.829  14.056  0.4478 -1.2215  1.0734
11502TIP3    H255998   0.100   0.684  14.020 -2.3686 -0.0267 -2.1920
11503TIP3   OH255999   4.015   1.728   2.887 -0.5116 -0.5655 -0.4635
11503TIP3    H156000   3.929   1.769   2.897 -1.1309 -2.1545  1.2094
11503TIP3    H256001   4.061   1.785   2.826 -2.6017  0.5518 -1.1030
11504TIP3   OH256002   4.163   2.063   6.172  0.0359  0.1166  0.3429
11504TIP3    H156003   4.200   1.978   6.193 -0.6373 -0.3174 -0.1844
11504TIP3    H256004   4.194   2.121   6.241  0.0666 -0.6702  0.9945
11505TIP3   OH256005   1.225   4.898  11.970 -0.4166 -0.1173 -1.1835
11505TIP3    H156006   1.195   4.975  11.921 -1.6906 -0.0104 -0.2697
11505TIP3    H256007   1.280   4.935  12.039 -1.9686  0.1216 -0.0230
11506TIP3   OH256008   1.510   5.440  12.590  0.0455  0.5575  0.5440
11506TIP3    H156009   1.570   5.467  12.659  1.4801 -3.3444  1.1048
11506TIP3    H256010   1.564   5.436  12.511 -0.5286  0.9340  0.1246
11507TIP3   OH256011   4.091   0.923  11.181  0.2372  0.3879 -0.7595
11507TIP3    H156012   4.163   0.873  11.143 -0.1455 -1.9319  1.2987
11507TIP3    H256013   4.132   1.001  11.217  2.2758 -1.8222  2.2410
11508TIP3   OH256014   1.985   3.776   4.959 -0.1138  0.1189 -0.5879
11508TIP3    H156015   1.912   3.721   4.987  0.4295 -0.2637  0.1365
11508TIP3    H256016   2.010   3.825   5.037 -0.2114  0.9669 -1.0794
11509TIP3   OH256017   5.479   0.442  11.825  0.6204  0.1369  0.0934
11509TIP3    H156018   5.385   0.462  11.823  0.7415  0.6670 -0.4329
11509TIP3    H256019   5.496   0.418  11.917 -0.3506 -1.6179 -0.1487
11510TIP3   OH256020   5.435   3.124  16.528 -0.2142 -0.8992  0.3184
11510TIP3    H156021   5.488   3.168  16.461  0.0324  0.0463  1.1123
11510TIP3    H256022   5.345   3.146  16.506 -0.0309  2.7629  2.4454
11511TIP3   OH256023   2.636   0.326   1.484  0.1956 -0.3252  0.1552
11511TIP3    H156024   2.691   0.264   1.436  0.3850  0.1212 -0.2132
11511TIP3    H256025   2.657   0.411   1.445  0.8865  0.1536  1.5072
11512TIP3   OH256026   3.566   3.632   2.866 -0.2126  0.0098 -0.1219
11512TIP3    H156027   3.649   3.679   2.877  0.1347 -0.3341 -1.0869
11512TIP3    H256028   3.567   3.604   2.774 -1.6073  0.3731 -0.2719
11513TIP3   OH256029   4.456   1.375  14.929 -0.0609  0.1820  0.4800
11513TIP3    H156030   4.404   1.383  14.849 -0.1873  0.3264  0.5755
11513TIP3    H256031   4.411   1.306  14.979 -1.6190  1.9375  1.6581
11514TIP3   OH256032   4.260   6.650   5.653 -0.3950 -0.1331  0.2083
11514TIP3    H156033   4.190   6.619   5.596 -2.0498  1.6339  1.1624
11514TIP3    H256034   4.219   6.662   5.738  1.6738 -1.3235  1.4867
11515TIP3   OH256035   4.912   5.136   1.957 -0.2664  0.3405 -0.5884
11515TIP3    H156036   4.926   5.192   2.033 -0.5190 -0.4854  0.0801
11515TIP3    H256037   4.852   5.185   1.902 -0.2218  0.8716 -0.1787
11516TIP3   OH256038   5.653   6.800  12.792  0.4151  0.2753 -0.4131
11516TIP3    H156039   5.595   6.870  12.761  1.9029  1.2978 -0.9469
11516TIP3    H256040   5.595   6.742  12.842 -0.7809  2.1097  0.4276
11517TIP3   OH256041   3.020   6.203   5.504 -0.2202  0.1020 -0.4065
11517TIP3    H156042   3.052   6.223   5.592 -0.4339  0.0400 -0.3138
11517TIP3    H256043   3.072   6.257   5.446  2.2716 -2.2340 -0.5509
11518TIP3   OH256044   0.340   1.171  13.441  0.1629 -0.7337  0.0987
11518TIP3    H156045   0.347   1.123  13.523  2.7075 -0.2586  0.2226
11518TIP3    H256046   0.371   1.110  13.374 -0.3867 -0.5807 -0.3037
11519TIP3   OH256047   5.059   5.537  15.568  0.2013  0.6816  0.1625
11519TIP3    H156048   5.134   5.593  15.550  0.9110 -0.1384  0.5011
11519TIP3    H256049   5.050   5.484  15.488 -0.4765  1.2750 -0.1641
11520TIP3   OH256050   4.769   3.346  10.457  0.1136 -0.1542  0.0970
11520TIP3    H156051   4.831   3.408  10.419  0.2935  0.5798  1.4955
11520TIP3    H256052   4.711   3.401  10.510 -0.5924 -1.0406  0.2697
11521TIP3   OH256053   5.984   4.765  13.821 -0.6121 -0.0004 -0.0778
11521TIP3    H156054   6.014   4.820  13.748  0.9827 -0.3421  0.2881
11521TIP3    H256055   5.996   4.675  13.791  1.0806 -0.1705  0.9292
11522TIP3   OH256056   2.508   1.308  15.651 -0.0101 -0.0882 -0.2169
11522TIP3    H156057   2.558   1.291  15.731 -0.4554  2.0468  0.5909
11522TIP3    H256058   2.416   1.303  15.678 -0.1612  1.0341 -0.4573
11523TIP3   OH256059   2.852   4.679   5.353 -0.6409 -0.0635 -0.3871
11523TIP3    H156060   2.831   4.610   5.290 -1.5713  0.3491 -0.5445
11523TIP3    H256061   2.840   4.761   5.305  0.1173  0.2352 -0.1004
11524TIP3   OH256062   0.096   4.689  16.699  0.3576 -0.4706  0.3143
11524TIP3    H156063   0.149   4.673  16.776  0.1685 -2.7185  0.0234
11524TIP3    H256064   0.008   4.660  16.723  0.1342 -0.4847 -0.4895
11525TIP3   OH256065   3.511   6.838  11.143 -0.6079  0.0356  0.0108
11525TIP3    H156066   3.597   6.799  11.157 -1.3309 -2.0226 -0.7838
11525TIP3    H256067   3.526   6.908  11.080  0.2291 -1.9000 -2.1012
11526TIP3   OH256068   4.981   3.752  15.454 -0.9767 -0.3904 -0.0191
11526TIP3    H156069   4.992   3.847  15.442 -1.4042 -0.2891  0.3526
11526TIP3    H256070   4.894   3.734  15.417 -0.3351 -0.8798 -1.3561
11527TIP3   OH256071   1.896   6.167  15.987  0.0463  0.4923 -0.0191
11527TIP3    H156072   1.834   6.190  16.056 -0.3066 -1.0367  0.2183
11527TIP3    H256073   1.972   6.132  16.034  0.0422 -0.0149 -0.3836
11528TIP3   OH256074   5.481   5.357   2.123 -0.8488  0.2871 -0.8979
11528TIP3    H156075   5.464   5.451   2.114  0.1743  0.3431 -2.6922
11528TIP3    H256076   5.575   5.348   2.110 -0.7950 -0.9146  0.1387
11529TIP3   OH256077   0.362   4.178   4.132 -0.2162  0.3552  0.3083
11529TIP3    H156078   0.401   4.155   4.216 -0.3809  1.6267  0.7498
11529TIP3    H256079   0.273   4.205   4.154 -0.1071  1.1671 -0.2053
11530TIP3   OH256080   1.772   1.664  13.224  0.3481  0.1255  0.0761
11530TIP3    H156081   1.780   1.630  13.313 -0.8166 -0.9502 -0.1940
11530TIP3    H256082   1.860   1.657  13.187  0.7168  0.0507  0.9548
11531TIP3   OH256083   3.816   5.018  10.293  0.1487 -0.2655 -0.5632
11531TIP3    H156084   3.903   4.979  10.292  0.7213  0.9311  0.5679
11531TIP3    H256085   3.829   5.107  10.325 -1.4440  0.0529 -0.7104
11532TIP3   OH256086   2.785   2.620  15.168 -0.4367  0.3518  0.2808
11532TIP3    H156087   2.859   2.602  15.109  0.4539  1.1867  1.1051
11532TIP3    H256088   2.708   2.607  15.113  0.3777  2.2271 -1.4691
11533TIP3   OH256089   0.968   4.049   2.734  0.0485  0.8323  0.1574
11533TIP3    H156090   1.036   4.082   2.675  0.2310  0.6408  0.2618
11533TIP3    H256091   1.014   3.988   2.792 -0.1939  0.7757  0.2890
11534TIP3   OH256092   5.742   6.182  12.687  0.1908  0.9852  0.6763
11534TIP3    H156093   5.830   6.219  12.676  0.6591 -0.7288 -2.9893
11534TIP3    H256094   5.757   6.087  12.687 -1.6659  0.6372 -0.9344
11535TIP3   OH256095   0.390   5.475  14.689  0.3967  0.0853 -0.5246
11535TIP3    H156096   0.336   5.409  14.646  0.8184  0.8375 -2.2735
11535TIP3    H256097   0.471   5.430  14.710 -0.6062 -0.8816  1.5557
11536TIP3   OH256098   6.107   4.725  14.679  0.6351  0.4303 -0.1148
11536TIP3    H156099   6.115   4.716  14.585 -0.9715 -3.0694 -0.0599
11536TIP3    H256100   6.121   4.637  14.714  0.4211  1.4487  2.8584
11537TIP3   OH256101   5.208   6.804   2.241  0.8651  0.1058 -0.4344
11537TIP3    H156102   5.283   6.842   2.286  1.1719 -1.8404  0.8441
11537TIP3    H256103   5.226   6.818   2.149  1.4389  2.0728 -0.0596
11538TIP3   OH256104   0.583   4.262  10.388  0.2389 -0.2056  0.2662
11538TIP3    H156105   0.516   4.280  10.322 -0.4992  0.0673  1.0602
11538TIP3    H256106   0.642   4.200  10.347 -1.1940 -1.4216 -0.0444
11539TIP3   OH256107   1.836   5.049   5.135  0.1092 -0.5956  0.3394
11539TIP3    H156108   1.930   5.030   5.140 -0.1605 -1.6639  2.2262
11539TIP3    H256109   1.794   4.964   5.141 -0.9992 -0.2014 -1.2710
11540TIP3   OH256110   3.525   2.299   3.867 -0.1111 -0.2305 -0.2909
11540TIP3    H156111   3.492   2.320   3.779  1.3740  1.1958 -0.5713
11540TIP3    H256112   3.566   2.213   3.857  0.0068 -0.1012 -0.9992
11541TIP3   OH256113   3.193   2.353  14.622  0.4191  0.0055 -0.0470
11541TIP3    H156114   3.159   2.315  14.541  1.2018  1.2277 -0.9611
11541TIP3    H256115   3.116   2.390  14.665 -0.0712 -1.0388  0.0205
11542TIP3   OH256116   2.133   1.512   1.202  0.0300 -0.6060  0.2301
11542TIP3    H156117   2.102   1.461   1.277 -0.0454  1.3890  1.6206
11542TIP3    H256118   2.167   1.446   1.142 -1.0090 -2.3722  1.4676
11543TIP3   OH256119   2.460   1.392  15.351 -0.2345  0.1992 -0.4702
11543TIP3    H156120   2.550   1.426  15.354 -0.6615  1.3357  0.2193
11543TIP3    H256121   2.446   1.354  15.437 -0.9373  1.5101  0.0314
11544TIP3   OH256122   6.055   0.988  14.936 -0.6142 -0.0397 -0.0044
11544TIP3    H156123   6.095   0.976  15.022  0.6617 -3.2483 -0.8814
11544TIP3    H256124   5.967   0.950  14.946  0.0266 -1.7229 -0.3778
11545TIP3   OH256125   0.443   0.754   1.131  0.7983 -0.5905  0.2216
11545TIP3    H156126   0.440   0.751   1.035 -1.5585  0.3254  0.1994
11545TIP3    H256127   0.470   0.666   1.156  1.1583 -0.9467 -1.2709
11546TIP3   OH256128   3.707   2.327  16.980 -0.3037  0.6110 -0.0376
11546TIP3    H156129   3.768   2.391  17.018  1.8519  0.2308 -2.6063
11546TIP3    H256130   3.662   2.375  16.910 -1.2782  0.2340  0.3064
11547TIP3   OH256131   6.073   3.609  11.822  0.0867  0.1639  0.3144
11547TIP3    H156132   6.027   3.526  11.810 -0.0231  0.0987  1.1070
11547TIP3    H256133   6.166   3.587  11.810  0.0294 -0.0002  0.1669
11548TIP3   OH256134   1.365   0.770   2.255 -0.4106  0.2643  0.2922
11548TIP3    H156135   1.370   0.798   2.346 -0.3381 -0.6936  0.5971
11548TIP3    H256136   1.451   0.729   2.238 -0.9700 -0.9510  0.2870
11549TIP3   OH256137   0.951   6.179  13.285 -0.0442 -0.4188  0.2137
11549TIP3    H156138   0.879   6.195  13.346  1.1093 -1.4989  1.9598
11549TIP3    H256139   0.940   6.088  13.257  1.1335 -0.9320  1.2904
11550TIP3   OH256140   5.568   1.547  12.256 -0.2548  0.4986 -0.0093
11550TIP3    H156141   5.539   1.457  12.237  1.9396 -0.2657 -0.0148
11550TIP3    H256142   5.488   1.599  12.251 -1.2033 -0.9843 -2.8908
11551TIP3   OH256143   3.865   3.411   0.083  0.1340  0.8046 -0.0841
11551TIP3    H156144   3.835   3.326   0.117  0.7710  1.4828  2.4369
11551TIP3    H256145   3.919   3.389   0.007 -0.3663 -0.9886  0.0259
11552TIP3   OH256146   5.824   6.660  12.625 -0.2304  0.5122 -0.1754
11552TIP3    H156147   5.787   6.713  12.696 -0.0929  0.3039  0.0501
11552TIP3    H256148   5.862   6.725  12.565 -2.4664  0.8741 -1.3130
11553TIP3   OH256149   4.858   1.815   0.466  0.0902  0.0101 -0.3852
11553TIP3    H156150   4.783   1.874   0.457  0.6594  0.7059 -0.6877
11553TIP3    H256151   4.930   1.862   0.425  0.9012 -0.2507  0.7075
11554TIP3   OH256152   0.090   4.309  14.064 -0.0205 -0.6018 -0.4508
11554TIP3    H156153   0.098   4.252  13.987 -1.8450 -0.0425 -1.1189
11554TIP3    H256154   0.014   4.276  14.111  0.0586  0.1117  0.2052
11555TIP3   OH256155   0.018   5.956   2.412 -0.9796  0.0832  0.3876
11555TIP3    H156156  -0.041   5.943   2.338 -0.7622  0.6273  0.1116
11555TIP3    H256157   0.068   5.875   2.418  0.7279  0.9031 -1.6329
11556TIP3   OH256158   0.834   6.602   1.174 -0.5408  0.4967  0.0992
11556TIP3    H156159   0.749   6.565   1.199 -0.2125 -0.0088  0.5161
11556TIP3    H256160   0.820   6.641   1.088 -1.0709 -0.0260 -0.0578
11557TIP3   OH256161   4.789   2.271  15.545 -0.1498 -0.1650  0.2870
11557TIP3    H156162   4.845   2.224  15.607 -0.0883  0.5061  0.7484
11557TIP3    H256163   4.709   2.290  15.595 -0.4257 -0.3156 -0.0912
11558TIP3   OH256164   1.467   5.158  14.159 -0.6660  0.1198 -0.0168
11558TIP3    H156165   1.541   5.105  14.128 -1.0629  0.6685 -2.0320
11558TIP3    H256166   1.466   5.143  14.253  2.2866  0.4178  0.1820
11559TIP3   OH256167   2.504   6.759  15.668  0.6095 -0.0208  1.1838
11559TIP3    H156168   2.509   6.667  15.645 -0.1057  0.2487 -0.1666
11559TIP3    H256169   2.415   6.772  15.699  0.1325  0.5463 -0.3248
11560TIP3   OH256170   3.750   4.798  11.774 -0.5155 -0.5698 -0.1884
11560TIP3    H156171   3.833   4.826  11.812 -0.8903 -0.4260  0.5264
11560TIP3    H256172   3.771   4.781  11.682  0.0317  0.6930 -0.3176
11561TIP3   OH256173   6.635   2.355  13.555  0.1847 -0.1008 -0.8275
11561TIP3    H156174   6.678   2.372  13.639 -1.9368  0.8898  0.1348
11561TIP3    H256175   6.678   2.277  13.522  0.9659 -0.6347  1.2750
11562TIP3   OH256176   3.286   0.369   0.159 -0.2929 -0.2523 -0.2683
11562TIP3    H156177   3.364   0.400   0.204 -0.2902  1.9940 -1.6436
11562TIP3    H256178   3.317   0.306   0.095  0.6378  1.4819 -1.6115
11563TIP3   OH256179   3.139   4.041  13.525  0.0598  0.1192 -0.3154
11563TIP3    H156180   3.211   3.980  13.508  1.2965  1.3982  0.0774
11563TIP3    H256181   3.082   3.995  13.587  1.0676 -0.5677  0.1261
11564TIP3   OH256182   3.551   0.848  10.730  0.7197 -0.3588  0.2114
11564TIP3    H156183   3.622   0.823  10.671  1.0919  1.5724 -0.2395
11564TIP3    H256184   3.554   0.944  10.732  0.2280 -0.3242  2.8087
11565TIP3   OH256185   3.929   5.915   4.316 -0.3262 -0.9146 -0.3669
11565TIP3    H156186   3.963   5.838   4.271  0.0266 -1.4935  0.8631
11565TIP3    H256187   3.986   5.927   4.391 -0.2494  0.6922 -0.6361
11566TIP3   OH256188   1.039   4.606   0.624 -0.0924 -0.2326 -0.3392
11566TIP3    H156189   1.101   4.653   0.680 -0.8264  2.6730 -1.7533
11566TIP3    H256190   1.074   4.617   0.536 -1.8611  0.3201 -1.0155
11567TIP3   OH256191   5.268   2.201  13.117 -0.3147 -0.6000 -0.0208
11567TIP3    H156192   5.354   2.224  13.153 -0.9640  0.7006  0.7862
11567TIP3    H256193   5.250   2.113  13.150 -0.1403 -0.1062  1.4492
11568TIP3   OH256194   1.025   0.540   4.217  0.5027  0.5072 -0.4446
11568TIP3    H156195   1.098   0.522   4.157  0.3327  1.5033 -0.9892
11568TIP3    H256196   1.061   0.603   4.279  1.0142 -1.3660  1.2487
11569TIP3   OH256197   6.131   3.278  12.643  0.1562 -0.3497 -0.0900
11569TIP3    H156198   6.128   3.238  12.729 -1.5135  1.0856  0.5986
11569TIP3    H256199   6.208   3.334  12.645 -0.0802 -0.0381  0.6342
11570TIP3   OH256200   5.146   5.193   5.766 -0.3965 -0.5830  0.3258
11570TIP3    H156201   5.224   5.224   5.719 -1.3299  0.3494 -0.6759
11570TIP3    H256202   5.124   5.264   5.826 -0.6170 -0.7297  0.4218
11571TIP3   OH256203   2.159   1.029  15.492  0.2912 -0.4226 -0.3070
11571TIP3    H156204   2.176   1.123  15.491 -0.0072 -0.3684 -0.5307
11571TIP3    H256205   2.133   1.010  15.582  0.8134 -0.3784 -0.1454
11572TIP3   OH256206   1.257   4.515   4.192 -0.1208 -0.7424 -0.2398
11572TIP3    H156207   1.180   4.566   4.216  0.0209 -1.0131  0.8282
11572TIP3    H256208   1.304   4.570   4.129 -0.0036  0.4060  0.8218
11573TIP3   OH256209   2.807   1.134  16.607 -0.2226 -0.0361 -0.3972
11573TIP3    H156210   2.820   1.059  16.549 -1.4927  0.5776 -1.5179
11573TIP3    H256211   2.870   1.200  16.577 -0.5809  0.1216 -0.8060
11574TIP3   OH256212   1.842   0.406   4.740  0.1704 -0.2993  0.3879
11574TIP3    H156213   1.888   0.470   4.795 -2.0239  1.3584  0.4250
11574TIP3    H256214   1.882   0.415   4.654  1.0511 -0.1457  0.7981
11575TIP3   OH256215   2.544   5.987   1.083  0.3652  0.4593  0.3104
11575TIP3    H156216   2.463   6.023   1.117 -0.7572 -1.2960 -0.3388
11575TIP3    H256217   2.549   5.899   1.121  0.9625 -0.1759 -1.1538
11576TIP3   OH256218   1.687   1.939   4.656 -0.5392  0.8451 -0.4304
11576TIP3    H156219   1.612   1.886   4.629 -0.7016  0.8323  0.0389
11576TIP3    H256220   1.653   1.996   4.726  0.0078  0.4857  0.1396
11577TIP3   OH256221   3.762   3.582  15.737  0.0052  0.2258  0.3325
11577TIP3    H156222   3.802   3.499  15.711 -0.5820  0.5555 -1.8908
11577TIP3    H256223   3.823   3.621  15.799  1.0928 -1.1253  0.1511
11578TIP3   OH256224   1.905   4.290  14.327 -0.2471 -0.1072 -0.3894
11578TIP3    H156225   1.849   4.302  14.250 -1.0977 -0.4614  0.1560
11578TIP3    H256226   1.862   4.342  14.396  0.6134  0.3734 -0.1970
11579TIP3   OH256227   6.556   1.636  12.084 -0.3694  0.7971 -0.2119
11579TIP3    H156228   6.533   1.544  12.101  0.0111  0.0493 -3.2203
11579TIP3    H256229   6.590   1.668  12.167  1.9772 -2.5812  0.2955
11580TIP3   OH256230   5.990   6.058  14.426 -0.4830 -0.3342 -0.2244
11580TIP3    H156231   6.063   6.074  14.485 -1.4795  0.6617  0.7982
11580TIP3    H256232   5.986   5.963  14.417  0.5496 -0.4234  0.1847
11581TIP3   OH256233   5.005   3.730   3.826 -0.2758 -0.2068  0.0575
11581TIP3    H156234   4.959   3.814   3.827  0.6339  0.3670 -1.6179
11581TIP3    H256235   5.091   3.749   3.863  0.7056  0.1650 -2.2403
11582TIP3   OH256236   1.866   1.138  14.128  0.3296  0.7818 -0.2035
11582TIP3    H156237   1.811   1.162  14.053 -1.2267 -0.4409  0.4876
11582TIP3    H256238   1.944   1.099  14.088  0.0924  1.2862 -1.2044
11583TIP3   OH256239   3.030   2.197  13.109  0.2099  0.3383 -0.4014
11583TIP3    H156240   2.963   2.263  13.089  0.8519  0.8331 -0.9310
11583TIP3    H256241   2.998   2.117  13.067 -0.5607  0.2998  0.2243
11584TIP3   OH256242   0.904   3.075  16.888  0.4129  0.0339 -0.6019
11584TIP3    H156243   0.864   3.161  16.901  1.0276  0.3464 -0.7732
11584TIP3    H256244   0.844   3.030  16.828 -2.3899 -1.3682  2.8810
11585TIP3   OH256245   5.165   2.241  15.811 -0.2596  0.4865 -0.0555
11585TIP3    H156246   5.234   2.302  15.785 -0.9173  0.9204 -0.8254
11585TIP3    H256247   5.143   2.267  15.900  0.0384  0.8399 -0.0815
11586TIP3   OH256248   4.410   6.749  15.551 -0.1973 -0.0900  0.1167
11586TIP3    H156249   4.375   6.695  15.622  1.2650  1.1645  1.8818
11586TIP3    H256250   4.351   6.824  15.546 -0.1012 -0.0036  0.2644
11587TIP3   OH256251   3.673   3.101   5.545  0.8315 -0.1496 -0.4635
11587TIP3    H156252   3.586   3.138   5.561  1.0683  0.5477 -0.7639
11587TIP3    H256253   3.724   3.122   5.623  1.3969  1.4801 -1.2407
11588TIP3   OH256254   1.580   6.257   0.717  0.0207  0.1052  0.4752
11588TIP3    H156255   1.641   6.291   0.652  0.8620 -1.2389  0.5287
11588TIP3    H256256   1.533   6.334   0.749  0.4514  0.9375 -0.8315
11589TIP3   OH256257   0.448   5.725  11.970  0.7945 -0.0148 -0.0861
11589TIP3    H156258   0.478   5.635  11.982 -1.0189 -0.8788 -1.4543
11589TIP3    H256259   0.476   5.747  11.881  1.9295  1.1076  0.5216
11590TIP3   OH256260   4.878   4.892  11.722 -0.2674  0.0429 -0.0795
11590TIP3    H156261   4.848   4.911  11.633  3.6834  0.4107 -1.4927
11590TIP3    H256262   4.834   4.958  11.776  1.2439  3.4481 -2.6172
11591TIP3   OH256263   4.395   6.493  15.675 -0.3069  0.0045  0.9146
11591TIP3    H156264   4.423   6.459  15.760 -0.6950  0.8289  1.3860
11591TIP3    H256265   4.303   6.466  15.667  0.4120 -2.3179 -0.4347
11592TIP3   OH256266   3.961   1.104   5.204  0.0156  0.3139 -0.2031
11592TIP3    H156267   3.902   1.069   5.272 -0.1310  0.2064 -0.3861
11592TIP3    H256268   3.904   1.151   5.144  0.3409  1.8601  0.6503
11593TIP3   OH256269   1.200   4.093   5.955  0.4134 -0.0242 -0.4599
11593TIP3    H156270   1.204   4.027   6.023  1.0353  0.6679  0.1983
11593TIP3    H256271   1.207   4.044   5.873 -3.3394 -1.2027 -0.2549
11594TIP3   OH256272   3.532   3.871  11.298  0.1703  0.2743 -0.3548
11594TIP3    H156273   3.437   3.878  11.304  0.0808  2.2906 -2.4061
11594TIP3    H256274   3.563   3.961  11.313  1.9334 -0.6185  1.8659
11595TIP3   OH256275   2.415   1.733  12.524  0.7888  0.0503  0.0381
11595TIP3    H156276   2.477   1.805  12.536 -0.6107  1.4638 -0.7754
11595TIP3    H256277   2.330   1.776  12.517 -0.0010 -1.6160 -1.5020
11596TIP3   OH256278   3.024   6.681   3.111 -0.0685 -0.1073 -0.5532
11596TIP3    H156279   3.027   6.729   3.194  2.9351 -0.9934 -0.0379
11596TIP3    H256280   2.990   6.595   3.135 -3.3035  0.8714 -1.1006
11597TIP3   OH256281   0.674   3.586   5.353  0.2370  0.2279  0.0184
11597TIP3    H156282   0.630   3.645   5.291  1.0348  0.9413  0.1107
11597TIP3    H256283   0.603   3.548   5.404 -0.4555 -0.4520 -1.3848
11598TIP3   OH256284   0.560   2.431  11.512  0.2979  0.1053  0.4012
11598TIP3    H156285   0.639   2.425  11.566 -0.2139  1.6234  1.4084
11598TIP3    H256286   0.581   2.383  11.432  2.2927  0.5550  0.5999
11599TIP3   OH256287   6.740   3.736  13.077  0.6158  0.1575  0.7167
11599TIP3    H156288   6.687   3.791  13.020 -0.1120 -0.1015  1.1345
11599TIP3    H256289   6.720   3.767  13.165  0.1036 -0.8527  0.9613
11600TIP3   OH256290   3.804   0.286  15.358  0.1038  0.3701 -0.0667
11600TIP3    H156291   3.727   0.343  15.354  0.9347  1.4895 -0.7809
11600TIP3    H256292   3.823   0.265  15.267  1.4148  1.1985 -0.0101
11601TIP3   OH256293   2.434   0.180   4.746  0.4246  0.2231  0.1910
11601TIP3    H156294   2.379   0.258   4.746  0.0838 -0.0041  0.8894
11601TIP3    H256295   2.404   0.130   4.822  2.0899  0.4341  1.0171
11602TIP3   OH256296   4.466   2.135   3.725 -0.2688 -0.1389 -0.1460
11602TIP3    H156297   4.468   2.209   3.663 -0.5550 -1.1335 -1.3939
11602TIP3    H256298   4.474   2.057   3.669 -0.6501 -1.0821  1.0754
11603TIP3   OH256299   5.806   0.749  11.016  0.0664 -0.2350 -0.0463
11603TIP3    H156300   5.760   0.692  10.954 -0.5331 -0.2162  0.3681
11603TIP3    H256301   5.829   0.691  11.089  2.6401 -0.7451 -1.1622
11604TIP3   OH256302   1.885   0.570  12.902 -0.1591 -0.0573  0.0219
11604TIP3    H156303   1.948   0.518  12.853 -1.4329 -1.0076 -0.6752
11604TIP3    H256304   1.938   0.624  12.960  1.2538 -1.2641 -0.0953
11605TIP3   OH256305   4.423   0.732   0.961 -0.0399  0.5224  0.0878
11605TIP3    H156306   4.351   0.751   1.021  0.6632  0.4534  0.9650
11605TIP3    H256307   4.381   0.726   0.875 -1.0344  0.7903  0.5392
11606TIP3   OH256308   1.216   2.875   5.455 -0.8721 -0.0280  0.0409
11606TIP3    H156309   1.124   2.862   5.433 -0.3395 -1.0313 -1.7750
11606TIP3    H256310   1.231   2.817   5.529 -1.8219  0.6081  0.7642
11607TIP3   OH256311   0.293   3.784  11.117  0.1366  0.7251 -0.1392
11607TIP3    H156312   0.217   3.842  11.119 -0.4012  0.0392  2.0534
11607TIP3    H256313   0.339   3.803  11.199  0.6930 -0.9824 -0.0292
11608TIP3   OH256314   6.121   6.265  10.803 -0.0866  0.2558 -0.1347
11608TIP3    H156315   6.214   6.268  10.781 -0.0055 -1.5196 -0.1505
11608TIP3    H256316   6.111   6.187  10.858 -1.8419 -0.6510 -1.6278
11609TIP3   OH256317   1.794   3.094   0.997  0.1611 -0.2531 -0.3658
11609TIP3    H156318   1.749   3.022   0.953 -0.9331  1.5173 -2.3726
11609TIP3    H256319   1.805   3.160   0.928 -0.2995  2.1086  1.6936
11610TIP3   OH256320   1.417   0.920  13.627  0.3552 -0.3505 -0.0807
11610TIP3    H156321   1.369   0.982  13.682 -1.9403 -1.8993 -0.1887
11610TIP3    H256322   1.429   0.843  13.682  1.3983 -0.5477 -0.5658
11611TIP3   OH256323   3.481   1.314   1.093  0.4373 -0.4166  0.4018
11611TIP3    H156324   3.430   1.244   1.053  0.2230 -0.1851  0.2698
11611TIP3    H256325   3.522   1.360   1.020  0.9284 -0.6729  0.5136
11612TIP3   OH256326   2.323   2.496  14.302 -0.2398  0.3839 -0.4076
11612TIP3    H156327   2.355   2.470  14.216 -0.3693  0.5006 -0.4915
11612TIP3    H256328   2.377   2.572  14.326  0.7928 -0.5247  0.2574
11613TIP3   OH256329   4.926   5.226   3.784 -0.0401  0.2889 -0.6994
11613TIP3    H156330   5.007   5.256   3.742 -0.8269  0.1443 -2.4355
11613TIP3    H256331   4.881   5.306   3.810  0.4276  0.3900 -0.2052
11614TIP3   OH256332   3.019   3.401   0.747  0.2638 -0.1682  0.1629
11614TIP3    H156333   2.945   3.341   0.740  1.0555 -1.2503  0.6691
11614TIP3    H256334   3.029   3.439   0.660 -2.3005  1.8077  0.6107
11615TIP3   OH256335   2.465   4.187  12.072  0.3720 -0.3029  0.9326
11615TIP3    H156336   2.408   4.183  12.149 -0.7348 -0.6849  0.1233
11615TIP3    H256337   2.410   4.227  12.004  0.5583 -1.9970 -0.2790
11616TIP3   OH256338   3.807   0.215   4.544 -0.2187  0.1546 -0.5176
11616TIP3    H156339   3.764   0.136   4.513 -0.6274  0.8615 -1.8361
11616TIP3    H256340   3.854   0.249   4.467  3.0573 -0.7392  0.8878
11617TIP3   OH256341   1.219   5.120   1.260 -0.4215  0.4847 -0.5774
11617TIP3    H156342   1.158   5.135   1.332  0.6744  3.2264 -0.0891
11617TIP3    H256343   1.263   5.204   1.248  0.8648 -0.4378 -3.1492
11618TIP3   OH256344   1.843   3.774  14.148  0.2280  0.4763  0.4241
11618TIP3    H156345   1.825   3.862  14.115  1.5560  0.6507  0.0936
11618TIP3    H256346   1.757   3.735  14.162 -0.4964  0.3148 -3.4360
11619TIP3   OH256347   3.452   2.429  11.771 -0.4544  0.1687  0.1974
11619TIP3    H156348   3.385   2.454  11.707 -1.5909  0.4857  1.4501
11619TIP3    H256349   3.470   2.510  11.819  0.4938 -0.0257  0.1825
11620TIP3   OH256350   5.746   2.072  11.200  0.5347 -0.8949  0.0028
11620TIP3    H156351   5.775   2.127  11.273 -0.2647 -2.8289  1.8998
11620TIP3    H256352   5.820   2.072  11.139  0.7999  1.6919  0.1809
11621TIP3   OH256353   0.211   3.992  15.667  0.1121  0.4416 -0.1280
11621TIP3    H156354   0.280   4.059  15.669 -0.6918  1.4072 -1.8198
11621TIP3    H256355   0.140   4.033  15.616 -0.9739 -1.1970 -0.0007
11622TIP3   OH256356   0.658   0.073  15.237  0.1393 -0.2592 -0.0509
11622TIP3    H156357   0.628   0.161  15.260  2.1731  0.3978  0.2763
11622TIP3    H256358   0.593   0.014  15.275 -0.7256  1.0680  0.5698
11623TIP3   OH256359   2.607   2.706   4.196  0.2132  0.2771  0.3489
11623TIP3    H156360   2.539   2.763   4.162  0.4543  0.6189  0.4387
11623TIP3    H256361   2.658   2.681   4.118 -1.8700 -2.5444 -0.2564
11624TIP3   OH256362   2.044   6.508   4.123 -0.1428 -0.5064 -0.5261
11624TIP3    H156363   2.015   6.484   4.211 -2.2428 -0.1274 -1.0540
11624TIP3    H256364   1.964   6.508   4.071  0.8196  0.7905 -2.1027
11625TIP3   OH256365   0.737   3.010  11.327 -0.1616 -0.7540  0.2644
11625TIP3    H156366   0.814   2.952  11.333  0.7474  0.4598  0.8464
11625TIP3    H256367   0.717   3.032  11.418 -0.4179 -0.0571  0.0424
11626TIP3   OH256368   3.858   2.027   0.389  0.3052 -0.0187  0.1485
11626TIP3    H156369   3.808   1.986   0.459  0.4835  1.3465  1.0936
11626TIP3    H256370   3.928   1.964   0.370  2.3579  0.9858  3.5918
11627TIP3   OH256371   0.207   2.057  12.635  0.5937  0.1676  0.2400
11627TIP3    H156372   0.176   1.992  12.572  1.8349  0.2171 -0.4492
11627TIP3    H256373   0.226   2.005  12.714  0.3753 -0.1080  0.1141
11628TIP3   OH256374   6.122   2.713   5.071  0.0865  0.3091  0.4213
11628TIP3    H156375   6.110   2.650   5.142  1.2671  0.8736  1.1476
11628TIP3    H256376   6.033   2.741   5.048 -0.6097 -2.4913 -0.7783
11629TIP3   OH256377   6.368   5.399   5.996  0.0435 -0.1156  0.3248
11629TIP3    H156378   6.429   5.423   6.067 -0.1651  0.1108  0.4289
11629TIP3    H256379   6.414   5.330   5.948  0.8814  0.8227 -0.2755
11630TIP3   OH256380   6.187   5.387   3.418 -0.0453  0.2221 -0.6134
11630TIP3    H156381   6.250   5.452   3.387  2.0477 -1.9825 -1.2194
11630TIP3    H256382   6.161   5.338   3.340 -0.0893 -0.9206  0.0931
11631TIP3   OH256383   4.569   0.715   2.450  0.4810 -0.2150  0.1529
11631TIP3    H156384   4.615   0.637   2.481  0.0384 -0.2021  0.8412
11631TIP3    H256385   4.629   0.787   2.466 -0.0702 -0.0904  1.7793
11632TIP3   OH256386   3.369   5.434  15.810 -0.0374  0.1326  0.8233
11632TIP3    H156387   3.291   5.386  15.838  0.3391  0.3834  2.3770
11632TIP3    H256388   3.335   5.505  15.756 -0.7405 -0.7273  0.0931
11633TIP3   OH256389   2.093   5.988   3.705 -0.1205  0.2574 -0.0480
11633TIP3    H156390   2.092   6.077   3.740  1.0192 -0.4543  1.9589
11633TIP3    H256391   2.185   5.971   3.687 -0.6789  1.0086 -4.8694
11634TIP3   OH256392   1.226   3.943  14.046  0.6373 -0.2758 -0.2232
11634TIP3    H156393   1.143   3.971  14.008 -0.7587  1.3370  3.5297
11634TIP3    H256394   1.291   4.002  14.008 -0.9675  2.5819  1.1698
11635TIP3   OH256395   1.541   0.616   0.062  0.1073 -0.0615 -0.5924
11635TIP3    H156396   1.622   0.665   0.050  0.7031 -0.2809  2.0080
11635TIP3    H256397   1.476   0.682   0.083  0.2973 -0.1155  0.2043
11636TIP3   OH256398   5.109   0.739   6.261 -0.2779 -0.6530 -0.2809
11636TIP3    H156399   5.046   0.754   6.332  1.7273 -0.4101  1.5515
11636TIP3    H256400   5.087   0.805   6.195 -0.4900  1.0214  1.3767
11637TIP3   OH256401   0.250   0.276   2.167  0.2590  0.0842 -0.4448
11637TIP3    H156402   0.233   0.340   2.237  1.3822  1.1342 -1.0904
11637TIP3    H256403   0.329   0.309   2.124  0.7663 -1.6599 -0.9170
11638TIP3   OH256404   3.145   5.541   1.068 -0.0782 -0.3467 -0.1287
11638TIP3    H156405   3.169   5.568   0.979  0.4292  1.2290  0.4501
11638TIP3    H256406   3.228   5.538   1.116 -0.4770  0.2501  0.6335
11639TIP3   OH256407   2.794   6.239   6.072  0.1289 -0.0019  0.3594
11639TIP3    H156408   2.739   6.313   6.046 -0.1832 -0.4585 -0.2964
11639TIP3    H256409   2.739   6.186   6.130 -1.6405 -2.5566 -3.2819
11640TIP3   OH256410   1.414   3.624  16.169  0.0476 -0.0970  0.2036
11640TIP3    H156411   1.461   3.659  16.094 -0.4913 -0.6902 -0.4203
11640TIP3    H256412   1.323   3.647  16.153 -0.2609 -1.4205 -0.0203
11641TIP3   OH256413   5.093   6.300   5.342 -0.0050  0.7517 -0.2840
11641TIP3    H156414   5.020   6.321   5.283 -2.4742 -4.0552  0.5443
11641TIP3    H256415   5.171   6.312   5.289 -1.8876 -0.1612 -3.5606
11642TIP3   OH256416   3.134   5.880  11.617 -0.1737 -0.6581  0.2269
11642TIP3    H156417   3.167   5.921  11.696 -1.4641  0.0413  0.4334
11642TIP3    H256418   3.212   5.863  11.564  0.5972 -0.1098  1.1552
11643TIP3   OH256419   4.320   0.632   2.773 -0.1752 -0.3759  0.0151
11643TIP3    H156420   4.385   0.700   2.757 -1.1348  0.9380  1.3709
11643TIP3    H256421   4.243   0.680   2.805 -2.0755 -1.7927 -2.1710
11644TIP3   OH256422   1.433   5.646   3.173 -0.1207 -0.1323 -0.3709
11644TIP3    H156423   1.433   5.736   3.205  0.1982  0.8244 -2.8224
11644TIP3    H256424   1.341   5.625   3.160 -0.1616  0.2365 -0.7242
11645TIP3   OH256425   4.221   2.885  14.545 -0.7609 -0.4042  0.1645
11645TIP3    H156426   4.300   2.842  14.578 -1.9438 -1.5188  1.6906
11645TIP3    H256427   4.151   2.856  14.604 -2.1609  1.2877 -0.5677
11646TIP3   OH256428   6.029   2.326   5.360 -0.0434  0.2387 -0.0237
11646TIP3    H156429   6.115   2.325   5.400  0.7409  0.1544 -1.6212
11646TIP3    H256430   5.995   2.237   5.375  0.8139 -0.2223 -0.7091
11647TIP3   OH256431   6.748   3.989  11.280 -0.6599  0.1854 -0.5235
11647TIP3    H156432   6.718   3.921  11.220 -0.2622 -0.1439 -0.3504
11647TIP3    H256433   6.675   4.000  11.341 -0.5372 -0.4248 -0.2651
11648TIP3   OH256434   3.239   2.583   1.757  0.0424  0.2685  0.3328
11648TIP3    H156435   3.298   2.593   1.682  0.3988  0.9683  0.6928
11648TIP3    H256436   3.191   2.666   1.761 -1.1025 -0.3660 -0.0640
11649TIP3   OH256437   5.148   5.838   1.781  0.0633 -0.3673  0.2271
11649TIP3    H156438   5.204   5.865   1.708 -0.5444  0.2135 -0.0346
11649TIP3    H256439   5.181   5.886   1.856 -1.0570  1.2178 -0.2482
11650TIP3   OH256440   4.860   2.991   4.069  0.1809 -0.6768 -0.3956
11650TIP3    H156441   4.934   3.047   4.045 -1.8078  2.2758 -0.1707
11650TIP3    H256442   4.814   2.977   3.986 -2.2332  2.7269  0.1495
11651TIP3   OH256443   3.992   1.072   3.347 -0.0984 -0.2301 -0.6856
11651TIP3    H156444   4.087   1.081   3.335 -0.1810  1.7195 -0.1892
11651TIP3    H256445   3.955   1.089   3.260  0.0000 -0.9383 -0.8680
11652TIP3   OH256446   6.142   5.878  10.189 -0.0260 -0.1799  0.0485
11652TIP3    H156447   6.109   5.942  10.252 -1.0052  1.6796 -2.2088
11652TIP3    H256448   6.076   5.809  10.188  0.4257 -0.6858  1.6028
11653TIP3   OH256449   2.486   6.785  14.271 -0.0402 -0.1980 -0.0080
11653TIP3    H156450   2.435   6.866  14.272  1.3240  0.6949 -0.5293
11653TIP3    H256451   2.450   6.733  14.342 -0.6957  1.0195  0.5755
11654TIP3   OH256452   6.796   1.806   0.616  0.3615  0.2799 -0.6241
11654TIP3    H156453   6.743   1.855   0.553  1.5091  1.8865 -0.4139
11654TIP3    H256454   6.863   1.764   0.563  0.0761 -0.1085 -0.6813
11655TIP3   OH256455   2.565   5.339   4.211  0.3816  0.0489  0.1879
11655TIP3    H156456   2.573   5.432   4.234 -2.3442  0.0487  1.5057
11655TIP3    H256457   2.474   5.317   4.230  0.5420 -2.5600 -1.5033
11656TIP3   OH256458   2.423   3.031  14.309 -0.3204 -0.3318 -0.0467
11656TIP3    H156459   2.426   3.125  14.326 -0.6467 -0.6445  2.0170
11656TIP3    H256460   2.413   2.991  14.396 -0.5271 -2.2572 -0.8978
11657TIP3   OH256461   5.282   4.722   4.623  0.2668  0.0389  0.2325
11657TIP3    H156462   5.324   4.691   4.704 -0.1595  2.2543  1.3917
11657TIP3    H256463   5.289   4.817   4.628 -1.8966  0.3339 -1.1787
11658TIP3   OH256464   3.132   4.060  14.898 -0.7031 -0.0674 -0.5423
11658TIP3    H156465   3.225   4.082  14.891 -0.1168 -2.4301 -1.1188
11658TIP3    H256466   3.124   4.017  14.983 -1.0096 -0.9096 -0.9900
11659TIP3   OH256467   1.770   6.485  11.046  0.1092 -0.3949  0.4166
11659TIP3    H156468   1.836   6.418  11.064  0.8340  0.3349  0.5021
11659TIP3    H256469   1.820   6.562  11.020 -0.7243  0.0751  0.1794
11660TIP3   OH256470   5.265   2.753   5.098  0.4416  0.1853  0.0013
11660TIP3    H156471   5.308   2.776   5.015 -2.6725 -1.4169 -2.3043
11660TIP3    H256472   5.197   2.820   5.109 -1.3110 -1.3795 -0.6539
11661TIP3   OH256473   5.895   1.397   3.301  0.5503  0.8758 -0.5555
11661TIP3    H156474   5.881   1.346   3.221  1.4013  1.3147 -0.9969
11661TIP3    H256475   5.969   1.355   3.344  1.7220  2.1121 -1.2773
11662TIP3   OH256476   0.615   4.996   6.230 -0.4227  0.1000  0.0011
11662TIP3    H156477   0.536   5.040   6.259 -1.5935 -2.6773  1.4676
11662TIP3    H256478   0.586   4.908   6.206  2.1756 -0.9519  0.3886
11663TIP3   OH256479   6.193   0.904   0.559 -0.5235  0.0329 -0.3173
11663TIP3    H156480   6.248   0.943   0.490  0.0778  0.2171  0.2556
11663TIP3    H256481   6.256   0.864   0.620 -0.6843  3.3755  2.3252
11664TIP3   OH256482   4.577   5.090   4.050  0.2194  0.2405 -0.2182
11664TIP3    H156483   4.494   5.062   4.089  0.2362 -0.4086 -0.6200
11664TIP3    H256484   4.614   5.009   4.014  1.3674  0.4043  0.5654
11665TIP3   OH256485   6.509   0.580  15.763  0.3733  0.4492 -0.1228
11665TIP3    H156486   6.473   0.571  15.674  2.5004  0.3576 -1.0320
11665TIP3    H256487   6.464   0.512  15.813 -0.8252  0.4537 -1.1337
11666TIP3   OH256488   4.326   3.711   4.114  0.1399  0.0029 -0.6928
11666TIP3    H156489   4.325   3.762   4.195  0.5530  2.3766 -2.0875
11666TIP3    H256490   4.418   3.685   4.103  0.2865  0.5852 -0.9011
11667TIP3   OH256491   4.619   3.377   1.331  0.0197  0.3491 -0.0358
11667TIP3    H156492   4.551   3.361   1.396  0.5146  0.2649  0.4701
11667TIP3    H256493   4.581   3.348   1.248 -0.4695  0.0850  0.2779
11668TIP3   OH256494   0.354   4.244  16.646  0.6926 -0.4206 -0.5907
11668TIP3    H156495   0.402   4.188  16.708  1.9267  0.3335 -0.8343
11668TIP3    H256496   0.307   4.306  16.702  2.0331  0.4433 -0.3882
11669TIP3   OH256497   4.158   0.350   1.724  0.7324 -0.3284 -0.4331
11669TIP3    H156498   4.183   0.279   1.666  0.7049 -0.5781 -0.1389
11669TIP3    H256499   4.198   0.328   1.809 -0.4100 -0.7054  0.0342
11670TIP3   OH256500   4.970   6.238   4.960  0.3320 -0.1999  0.0357
11670TIP3    H156501   5.060   6.209   4.972  0.9502  0.8997 -1.5071
11670TIP3    H256502   4.924   6.162   4.924  1.0232 -0.3664 -0.5217
11671TIP3   OH256503   1.113   4.857   1.960 -0.2058 -0.0440  0.2177
11671TIP3    H156504   1.126   4.767   1.991 -0.1473  0.1114  0.6410
11671TIP3    H256505   1.023   4.878   1.985 -0.4994 -0.2693 -0.6053
11672TIP3   OH256506   0.353   0.264  13.972 -0.1762 -0.0542  0.2782
11672TIP3    H156507   0.425   0.234  13.917  0.6269 -1.4318  1.9866
11672TIP3    H256508   0.281   0.279  13.911  0.0537 -3.3991 -1.0215
11673TIP3   OH256509   1.044   4.615  15.546  0.1830 -0.4614  0.2597
11673TIP3    H156510   1.124   4.593  15.595  0.0144  0.9611  1.2486
11673TIP3    H256511   1.064   4.590  15.456  2.8920  2.3514 -0.1095
11674TIP3   OH256512   2.801   3.101   4.911 -1.1405  0.7010  0.2132
11674TIP3    H156513   2.720   3.139   4.877 -0.8563  1.5475  0.4679
11674TIP3    H256514   2.869   3.164   4.888 -0.3030 -0.6600 -1.2873
11675TIP3   OH256515   5.876   3.989   2.911  0.9950  0.5861  0.8047
11675TIP3    H156516   5.942   3.945   2.964 -0.6596 -1.7090  1.0701
11675TIP3    H256517   5.808   3.924   2.897  0.0521  1.9710 -1.8350
11676TIP3   OH256518   2.903   3.873  15.790  0.3248  0.1785  0.7390
11676TIP3    H156519   2.928   3.963  15.809  2.4550 -0.5837  1.7651
11676TIP3    H256520   2.984   3.824  15.794 -0.8539 -1.8826  0.6192
11677TIP3   OH256521   1.140   4.094  14.756  0.1115  0.0961 -0.5202
11677TIP3    H156522   1.182   4.032  14.696  0.3214  0.0598 -0.3380
11677TIP3    H256523   1.212   4.150  14.786 -0.0314  0.2530 -0.4716
11678TIP3   OH256524   1.713   4.762  12.337 -0.0397  1.1468  0.1935
11678TIP3    H156525   1.663   4.683  12.318 -1.7898  1.8908  1.4800
11678TIP3    H256526   1.784   4.761  12.272 -0.9616 -0.6109 -0.8696
11679TIP3   OH256527   4.559   4.859   2.906 -0.0375 -0.7762  0.1482
11679TIP3    H156528   4.574   4.809   2.986 -0.0214 -0.9513  0.0370
11679TIP3    H256529   4.602   4.943   2.921  0.9794 -1.2357 -0.1241
11680TIP3   OH256530   5.363   1.730  12.248  0.1042 -0.0694 -0.1910
11680TIP3    H156531   5.272   1.731  12.279  0.1148 -1.5763 -0.0442
11680TIP3    H256532   5.406   1.798  12.300 -1.0049  0.9328 -0.5287
11681TIP3   OH256533   0.738   4.583  13.972  0.2097  0.6734 -0.2884
11681TIP3    H156534   0.801   4.635  13.922  0.8492 -0.0340 -0.2415
11681TIP3    H256535   0.779   4.571  14.057  0.4565 -0.5952 -0.5667
11682TIP3   OH256536   4.328   6.796  14.279  0.1015  0.5575  0.5195
11682TIP3    H156537   4.321   6.811  14.373  1.1109 -1.0311  0.8856
11682TIP3    H256538   4.339   6.701  14.270  1.0079  0.7728 -1.1237
11683TIP3   OH256539   1.603   0.096  15.530 -0.0049  0.0759  0.1037
11683TIP3    H156540   1.635   0.137  15.450  0.0598  0.3134  0.2483
11683TIP3    H256541   1.622   0.161  15.599 -1.1875  0.4123  0.1348
11684TIP3   OH256542   0.690   5.695  13.622 -0.1043 -0.7791  0.5733
11684TIP3    H156543   0.762   5.709  13.560 -0.8577 -1.1781 -0.4146
11684TIP3    H256544   0.726   5.721  13.706  0.9776 -0.3040 -0.0132
11685TIP3   OH256545   5.614   3.380  11.359 -0.8620 -0.4280 -0.0281
11685TIP3    H156546   5.696   3.425  11.375 -0.4502 -1.3755  0.5812
11685TIP3    H256547   5.547   3.438  11.395 -0.5316  0.5720 -0.9440
11686TIP3   OH256548   5.815   2.848   3.038 -0.3805  0.3619 -0.4632
11686TIP3    H156549   5.756   2.917   3.069 -1.0143 -1.0639  1.7909
11686TIP3    H256550   5.896   2.863   3.088 -0.4636 -0.4052 -0.0931
11687TIP3   OH256551   1.414   3.190  16.206 -0.0443 -0.2730 -0.4776
11687TIP3    H156552   1.439   3.101  16.232 -0.9919 -0.7357 -1.1131
11687TIP3    H256553   1.382   3.180  16.117 -0.1483  0.7177 -0.5538
11688TIP3   OH256554   6.254   2.592   4.846  0.3808 -0.4044  0.2191
11688TIP3    H156555   6.306   2.671   4.832 -2.2109  1.2907 -0.5578
11688TIP3    H256556   6.245   2.586   4.941  1.9110 -0.7117  0.3629
11689TIP3   OH256557   5.345   4.056   2.844 -0.7130 -0.5738  0.5532
11689TIP3    H156558   5.346   4.031   2.936 -2.4513 -1.2062  0.4305
11689TIP3    H256559   5.394   3.987   2.799  0.7965  0.1251  1.0462
11690TIP3   OH256560   1.173   6.028  14.554  0.2424  0.0363  0.2702
11690TIP3    H156561   1.198   6.076  14.476 -0.4160 -0.9073 -0.5404
11690TIP3    H256562   1.086   5.993  14.535  0.8162 -1.7413  0.6738
11691TIP3   OH256563   6.808   1.334  12.287  0.5028  0.0418  0.2033
11691TIP3    H156564   6.895   1.324  12.325  0.1095  1.0417  1.4362
11691TIP3    H256565   6.808   1.423  12.250  0.5198 -0.5300 -1.2276
11692TIP3   OH256566   1.791   2.253  16.857 -0.3668  0.0099 -0.2890
11692TIP3    H156567   1.813   2.256  16.950 -0.5186  0.8994 -0.2756
11692TIP3    H256568   1.751   2.167  16.845 -1.9081  0.5168  0.8272
11693TIP3   OH256569   0.125   2.925  15.581 -0.2991 -0.5798 -0.0661
11693TIP3    H156570   0.220   2.933  15.585 -0.4112  0.5753  1.2061
11693TIP3    H256571   0.094   3.016  15.574 -1.2920 -1.0050 -1.7344
11694TIP3   OH256572   1.525   3.209   4.951 -0.2260 -0.0362  0.7240
11694TIP3    H156573   1.522   3.119   4.982  0.0897 -0.1151  0.5322
11694TIP3    H256574   1.435   3.241   4.960 -0.1250 -0.0235  1.8176
11695TIP3   OH256575   0.805   3.182   5.584  0.8854  0.3399  0.1914
11695TIP3    H156576   0.782   3.273   5.568 -0.4937  0.1760  1.0929
11695TIP3    H256577   0.723   3.140   5.609  1.7337 -0.8596  1.0842
11696TIP3   OH256578   4.401   2.888  15.743  0.3411 -0.3557 -0.1349
11696TIP3    H156579   4.427   2.974  15.777 -1.1100 -0.2993  0.9066
11696TIP3    H256580   4.345   2.908  15.668  1.3104 -0.4485 -0.9118
11697TIP3   OH256581   0.848   6.636  11.944  0.1316 -0.3827 -0.1606
11697TIP3    H156582   0.903   6.694  11.996 -0.0784  0.1967 -0.5673
11697TIP3    H256583   0.771   6.620  11.998  0.7491 -1.3131  0.4719
11698TIP3   OH256584   5.882   0.012   1.205  0.2048  0.2689 -0.3253
11698TIP3    H156585   5.839   0.096   1.219  0.4929  0.3635 -0.0020
11698TIP3    H256586   5.939   0.001   1.281  1.1362  0.3868 -0.9803
11699TIP3   OH256587   1.303   4.574  12.390 -0.5084  0.3493  0.3808
11699TIP3    H156588   1.398   4.588  12.393 -0.8202  3.0336  0.4216
11699TIP3    H256589   1.274   4.627  12.316 -1.9393 -1.0985 -0.1487
11700TIP3   OH256590   4.907   6.519   4.181 -0.0455  0.5481 -0.1115
11700TIP3    H156591   4.929   6.433   4.217  1.2279  1.1451  0.5995
11700TIP3    H256592   4.872   6.500   4.094  2.6706 -0.5689 -1.0708
11701TIP3   OH256593   5.434   1.989  11.718 -0.0757 -0.5884  0.2081
11701TIP3    H156594   5.487   1.917  11.684 -0.1756  1.3288 -4.8795
11701TIP3    H256595   5.498   2.058  11.739 -0.2207  0.4382 -2.4322
11702TIP3   OH256596   4.694   1.465  15.026 -0.2220 -0.2701  0.1189
11702TIP3    H156597   4.613   1.415  15.018  0.1829 -1.0440  0.7393
11702TIP3    H256598   4.728   1.443  15.113 -0.7090  2.1178  1.0096
11703TIP3   OH256599   6.224   0.486  12.309  0.4179  0.1201  0.8330
11703TIP3    H156600   6.189   0.412  12.259 -0.6047  1.1962 -0.1328
11703TIP3    H256601   6.209   0.463  12.401 -1.2820 -0.2540  0.5064
11704TIP3   OH256602   6.742   5.016   4.304  0.0903  0.3753 -0.0860
11704TIP3    H156603   6.833   4.989   4.318 -0.6487 -1.3567  1.9666
11704TIP3    H256604   6.748   5.092   4.246  2.8269  0.3470  0.0284
11705TIP3   OH256605   0.923   2.707  12.055  0.4441 -0.4193 -0.0660
11705TIP3    H156606   0.986   2.690  12.125  2.0515  0.7244 -1.1496
11705TIP3    H256607   0.910   2.802  12.057  0.5534 -0.3586 -1.3145
11706TIP3   OH256608   6.620   5.837  13.864 -0.0847  0.1546  0.1978
11706TIP3    H156609   6.686   5.787  13.913 -2.3286 -1.0103  2.2326
11706TIP3    H256610   6.613   5.791  13.780  3.3244  1.7641 -1.1545
11707TIP3   OH256611   1.280   4.346   1.681 -0.1532 -1.0025 -0.0354
11707TIP3    H156612   1.366   4.306   1.696 -0.5665 -2.0242 -0.2811
11707TIP3    H256613   1.300   4.435   1.652  0.7679 -0.5476  1.8398
11708TIP3   OH256614   5.837   2.460  16.207 -0.0659  0.2733 -0.1579
11708TIP3    H156615   5.903   2.406  16.165  0.0256  1.5276 -1.6778
11708TIP3    H256616   5.753   2.422  16.179 -0.0096 -0.2005  0.2961
11709TIP3   OH256617   5.039   2.936   0.919 -0.5483  0.6382  0.4246
11709TIP3    H156618   5.013   3.006   0.979 -0.5422  0.5110  0.5752
11709TIP3    H256619   5.089   2.875   0.973  2.9401  2.4504 -0.4561
11710TIP3   OH256620   0.730   0.846  11.867  0.1768 -0.7416 -0.1274
11710TIP3    H156621   0.822   0.870  11.864  0.0049 -0.0105  0.1693
11710TIP3    H256622   0.701   0.846  11.776  0.4979 -1.1016 -0.2310
11711TIP3   OH256623   6.087   2.875   0.219 -0.7785 -0.6867 -0.0437
11711TIP3    H156624   6.174   2.840   0.200 -0.0228  0.9970  0.1382
11711TIP3    H256625   6.059   2.918   0.138 -0.7259  0.1669  0.3737
11712TIP3   OH256626   5.112   1.812   4.882  0.3624  0.4378 -0.0111
11712TIP3    H156627   5.159   1.895   4.892  1.2732 -0.1492  0.7668
11712TIP3    H256628   5.020   1.835   4.894  0.5098  1.4769 -0.7238
11713TIP3   OH256629   4.812   6.388  17.089 -0.0690  0.0923  0.5345
11713TIP3    H156630   4.755   6.403  17.165  0.2222  1.5511  0.4791
11713TIP3    H256631   4.818   6.473  17.046  0.2265 -0.5929 -0.8250
11714TIP3   OH256632   3.853   5.791   6.165 -0.1536 -0.2330  0.0741
11714TIP3    H156633   3.776   5.847   6.162  0.2856  0.3995  0.4105
11714TIP3    H256634   3.878   5.780   6.074 -0.7799 -0.6423 -0.0553
11715TIP3   OH256635   1.694   3.371  16.504 -0.2059 -0.1310 -0.2091
11715TIP3    H156636   1.693   3.365  16.408 -0.0090 -0.6690 -0.1804
11715TIP3    H256637   1.604   3.353  16.530 -0.0697 -0.9161 -0.2477
11716TIP3   OH256638   1.190   5.870  13.219  0.3029  0.0684  0.2344
11716TIP3    H156639   1.232   5.833  13.141  0.9055  0.9334  0.1419
11716TIP3    H256640   1.111   5.912  13.186 -0.0924 -0.6251  0.2667
11717TIP3   OH256641   6.763   4.827   3.232  0.5781  0.4368  0.0480
11717TIP3    H156642   6.790   4.782   3.312  1.0904  0.3309 -0.1783
11717TIP3    H256643   6.844   4.861   3.195  0.4052  0.1038 -0.6548
11718TIP3   OH256644   6.596   4.170   0.170  0.4648  0.1682  0.7392
11718TIP3    H156645   6.685   4.202   0.155  0.3593  0.1542  0.0384
11718TIP3    H256646   6.566   4.141   0.084 -0.3660  0.5459  0.8896
11719TIP3   OH256647   4.488   2.417   0.543 -0.3032  0.1322 -0.1055
11719TIP3    H156648   4.509   2.452   0.629 -0.3499 -0.9849  0.3818
11719TIP3    H256649   4.504   2.490   0.482 -1.1576  1.2068  0.9319
11720TIP3   OH256650   2.517   1.028  15.522 -0.6318  0.5832 -0.2089
11720TIP3    H156651   2.439   1.016  15.576  0.3160  1.4917  1.4431
11720TIP3    H256652   2.590   1.003  15.578  0.4127  1.7101 -0.9949
11721TIP3   OH256653   2.583   1.798  14.604 -0.6688 -0.1745 -0.9557
11721TIP3    H156654   2.505   1.825  14.556 -1.0562 -0.8372 -0.7218
11721TIP3    H256655   2.555   1.720  14.653 -0.3209  0.5252  0.4195
11722TIP3   OH256656   3.965   1.475  14.669  0.2699 -0.1512  0.1937
11722TIP3    H156657   3.913   1.436  14.598 -0.3122 -1.2803  1.2100
11722TIP3    H256658   3.971   1.568  14.645 -1.9638 -0.0140 -0.1400
11723TIP3   OH256659   4.861   0.845  12.483 -0.6198 -0.0280 -0.3846
11723TIP3    H156660   4.893   0.784  12.416 -1.8020 -0.1000 -0.8957
11723TIP3    H256661   4.775   0.871  12.452  0.4830  3.2415 -1.0728
11724TIP3   OH256662   3.317   3.693  12.784  0.2486 -0.1892  0.3285
11724TIP3    H156663   3.270   3.725  12.706  0.4457 -1.5331 -0.3774
11724TIP3    H256664   3.253   3.701  12.855  0.9747  3.8141  0.7377
11725TIP3   OH256665   1.572   1.958   2.817  0.1531  0.0366  0.1727
11725TIP3    H156666   1.495   2.004   2.784  0.6789  1.0219  0.2936
11725TIP3    H256667   1.557   1.866   2.794 -1.4658  0.0737  0.9699
11726TIP3   OH256668   4.964   3.505  13.515  0.5066 -0.1087  0.7017
11726TIP3    H156669   4.935   3.418  13.542 -0.2520  0.1394  0.6973
11726TIP3    H256670   4.986   3.550  13.596 -1.3808  0.4975  0.9149
11727TIP3   OH256671   4.432   4.998   0.362 -0.6077 -0.3244 -0.2668
11727TIP3    H156672   4.382   5.075   0.335 -1.2778 -0.6663 -0.0201
11727TIP3    H256673   4.523   5.020   0.340 -0.7854  0.5324 -0.2009
11728TIP3   OH256674   6.717   1.816  15.238  0.1817 -0.3046 -0.3233
11728TIP3    H156675   6.767   1.804  15.156 -0.2851  2.7979 -1.1598
11728TIP3    H256676   6.772   1.775  15.305  0.9031 -2.3552 -2.0289
11729TIP3   OH256677   6.559   4.826  16.035  0.2099 -0.2916 -0.4865
11729TIP3    H156678   6.551   4.774  15.955 -1.5375  0.3212 -0.7511
11729TIP3    H256679   6.515   4.772  16.102 -1.4848  0.7062 -0.7325
11730TIP3   OH256680   3.854   1.221   0.937 -0.5197  0.0665  0.2797
11730TIP3    H156681   3.777   1.245   0.886 -0.7801 -0.3034  0.4896
11730TIP3    H256682   3.904   1.162   0.880 -0.6188 -0.0484  0.3123
11731TIP3   OH256683   5.464   0.278   0.597 -0.0007  0.1623 -0.3896
11731TIP3    H156684   5.394   0.298   0.534 -1.1007 -0.5162  0.5775
11731TIP3    H256685   5.454   0.343   0.666 -1.1547 -1.2794  0.8658
11732TIP3   OH256686   1.349   6.550  11.245  0.3649  0.3421 -0.0062
11732TIP3    H156687   1.389   6.632  11.272  0.5978 -0.1056  1.0648
11732TIP3    H256688   1.257   6.571  11.230  0.3056  0.6759  0.8115
11733TIP3   OH256689   3.047   0.085  16.440 -0.7362  0.5729  1.1266
11733TIP3    H156690   3.065  -0.002  16.403 -0.7625  0.2402  1.8675
11733TIP3    H256691   2.987   0.068  16.513 -0.9680  1.2505  1.1031
11734TIP3   OH256692   1.968   1.158  11.738 -0.3233 -0.0418 -0.3009
11734TIP3    H156693   1.931   1.244  11.723  0.3198 -0.1309 -2.9569
11734TIP3    H256694   1.962   1.114  11.653 -0.6894 -2.6584  0.9708
11735TIP3   OH256695   1.761   4.604   3.724  0.3242 -0.1584  0.4572
11735TIP3    H156696   1.727   4.514   3.733 -0.1718 -0.5358 -3.4525
11735TIP3    H256697   1.856   4.593   3.719  0.2880 -0.4462  0.3400
11736TIP3   OH256698   3.564   3.114   4.790 -0.1680 -0.1128  0.1967
11736TIP3    H156699   3.620   3.068   4.729 -1.1457 -0.4406 -0.4806
11736TIP3    H256700   3.598   3.204   4.792 -0.4264  0.0302 -1.2260
11737TIP3   OH256701   5.678   3.757   2.456 -0.1462  0.1287  0.0287
11737TIP3    H156702   5.584   3.740   2.455 -0.0461 -0.6866  1.2370
11737TIP3    H256703   5.695   3.783   2.547  0.8379 -0.0715 -0.0942
11738TIP3   OH256704   5.383   1.322  16.042 -0.1387  0.2934  0.1798
11738TIP3    H156705   5.332   1.392  16.001  0.9649  1.1961  0.3165
11738TIP3    H256706   5.322   1.282  16.104 -0.7366  1.2734  0.2493
11739TIP3   OH256707   2.482   2.539  13.245  0.1143  0.0870  0.4913
11739TIP3    H156708   2.512   2.567  13.331  0.2215  1.8310 -0.0722
11739TIP3    H256709   2.466   2.445  13.254  1.4374 -0.0244  2.0196
11740TIP3   OH256710   2.847   6.038   5.037  0.1874 -0.7157 -0.2046
11740TIP3    H156711   2.858   5.946   5.060 -1.3140 -0.5227  1.5717
11740TIP3    H256712   2.785   6.038   4.965 -0.5167 -1.0715  0.3942
11741TIP3   OH256713   0.643   4.799  14.624 -0.3037 -0.0956  0.6982
11741TIP3    H156714   0.712   4.766  14.681  1.2598  1.3848 -0.2522
11741TIP3    H256715   0.689   4.829  14.546 -2.2809 -1.2381 -1.0107
11742TIP3   OH256716   5.130   1.545   1.086  0.1797  0.7746 -0.1801
11742TIP3    H156717   5.065   1.543   1.016 -1.5428  0.5239  1.3694
11742TIP3    H256718   5.214   1.535   1.040 -0.9438 -0.6585 -2.0933
11743TIP3   OH256719   2.866   3.491  12.405 -0.3625 -0.2112  0.0355
11743TIP3    H156720   2.798   3.483  12.339  0.2651 -1.7867 -0.4659
11743TIP3    H256721   2.925   3.558  12.371 -0.7374 -0.0811 -0.3629
11744TIP3   OH256722   4.596   4.021  16.418  0.2748  0.0613 -0.1041
11744TIP3    H156723   4.645   4.103  16.418 -1.0387  0.8640 -0.4121
11744TIP3    H256724   4.645   3.965  16.358  2.1948 -0.0466  1.4561
11745TIP3   OH256725   0.520   1.320  12.781 -0.3646  0.0384  0.2500
11745TIP3    H156726   0.515   1.250  12.845  0.8991 -0.8838 -0.6073
11745TIP3    H256727   0.502   1.400  12.830  0.2592 -0.6715  1.6715
11746TIP3   OH256728   2.658   4.408  16.978 -0.0207 -0.1958  0.5319
11746TIP3    H156729   2.660   4.407  16.882 -1.4132 -1.1224  0.4797
11746TIP3    H256730   2.646   4.316  17.002 -0.1871  0.0908  1.5715
11747TIP3   OH256731   0.453   4.884  16.604  0.0574 -0.9648 -0.6333
11747TIP3    H156732   0.460   4.974  16.572  0.2620 -1.0173 -0.7411
11747TIP3    H256733   0.459   4.893  16.699  3.3943 -1.0880 -0.6847
11748TIP3   OH256734   2.833   4.766  15.932 -0.1290 -0.3691  0.3992
11748TIP3    H156735   2.749   4.792  15.892 -0.3981 -0.2568  1.0234
11748TIP3    H256736   2.876   4.713  15.865 -0.3888  0.1585 -0.2016
11749TIP3   OH256737   2.891   1.640   3.880  0.0192  0.2594 -0.5449
11749TIP3    H156738   2.969   1.686   3.911  0.1784 -0.1118 -0.3922
11749TIP3    H256739   2.859   1.592   3.956  0.6780 -1.0239 -1.0389
11750TIP3   OH256740   0.956   0.742  17.033  0.5630 -0.1402 -0.3308
11750TIP3    H156741   0.945   0.653  17.067  3.3113 -0.7040 -0.6751
11750TIP3    H256742   0.991   0.730  16.945 -1.4041  1.3404 -1.4168
11751TIP3   OH256743   1.927   6.082  15.130  0.4487 -0.5327 -0.1623
11751TIP3    H156744   2.015   6.102  15.098  0.5983 -0.5048  0.2602
11751TIP3    H256745   1.926   6.115  15.220 -0.3959  0.5903 -0.5596
11752TIP3   OH256746   1.892   4.754  13.072 -0.7606 -0.2771 -0.0310
11752TIP3    H156747   1.898   4.806  12.992  2.6370  1.6743  1.2462
11752TIP3    H256748   1.980   4.717  13.082 -1.3355 -1.1518  2.3482
11753TIP3   OH256749   1.573   2.750  13.666 -0.3075  0.3194  0.8164
11753TIP3    H156750   1.601   2.659  13.667 -0.0525  0.2115 -2.7344
11753TIP3    H256751   1.484   2.748  13.701 -0.7131 -1.5237 -0.1721
11754TIP3   OH256752   5.836   6.445   2.907 -0.8734  0.6702 -0.2848
11754TIP3    H156753   5.846   6.530   2.950 -1.0489  1.7794 -2.2840
11754TIP3    H256754   5.742   6.428   2.910 -0.7673  0.1794  0.7151
11755TIP3   OH256755   5.224   2.428  13.792 -0.3974  0.0472 -0.3542
11755TIP3    H156756   5.262   2.381  13.718  0.7700 -1.0384  0.8858
11755TIP3    H256757   5.286   2.499  13.809 -0.4208  0.0175 -0.1414
11756TIP3   OH256758   5.631   3.563  15.750  0.3127 -0.0897  0.1722
11756TIP3    H156759   5.564   3.605  15.803 -0.6321 -1.0701 -0.1933
11756TIP3    H256760   5.597   3.475  15.733  1.7035 -0.6276 -0.0161
11757TIP3   OH256761   3.265   0.498  16.112  0.5166  0.2193 -0.2437
11757TIP3    H156762   3.337   0.525  16.170 -0.0865  1.3099  0.0285
11757TIP3    H256763   3.221   0.429  16.161  1.4891 -0.6288 -0.5117
11758TIP3   OH256764   1.362   2.098   2.704 -0.3243 -0.0678 -0.4603
11758TIP3    H156765   1.274   2.072   2.676  0.0260 -0.9337 -0.7870
11758TIP3    H256766   1.347   2.170   2.766 -1.2636 -0.2477 -0.4615
11759TIP3   OH256767   5.123   0.901   3.629  0.2565 -0.5830  0.0991
11759TIP3    H156768   5.204   0.854   3.607  1.4504  1.2598  0.2907
11759TIP3    H256769   5.131   0.919   3.722  0.6767  1.3952 -0.2666
11760TIP3   OH256770   5.417   5.556  13.902  0.4021 -0.1141  0.8666
11760TIP3    H156771   5.371   5.541  13.985 -1.9522  0.3513 -0.2557
11760TIP3    H256772   5.347   5.554  13.836  2.0580  0.5588 -0.9892
11761TIP3   OH256773   2.608   6.699   5.660 -0.7246  0.1484 -0.0885
11761TIP3    H156774   2.678   6.646   5.622 -1.2258 -0.6590  0.0881
11761TIP3    H256775   2.628   6.703   5.753  0.9220  2.7585 -0.4235
11762TIP3   OH256776   5.834   6.852  11.824 -0.6369 -0.0024 -0.5227
11762TIP3    H156777   5.771   6.784  11.802  0.2092 -1.2359  0.7011
11762TIP3    H256778   5.816   6.873  11.916  0.4656 -0.0862 -0.2743
11763TIP3   OH256779   6.123   6.179   3.085 -0.1429  0.1892  0.0675
11763TIP3    H156780   6.177   6.130   3.023 -1.4160 -0.1765 -0.7849
11763TIP3    H256781   6.129   6.129   3.167 -0.9961 -1.1418 -0.6458
11764TIP3   OH256782   6.695   5.307  14.276 -0.6339 -0.0528 -0.0728
11764TIP3    H156783   6.703   5.212  14.270 -0.8727 -0.0935  0.2376
11764TIP3    H256784   6.616   5.322  14.329 -0.7896  0.3199 -0.3994
11765TIP3   OH256785   4.597   4.949  16.615  0.1897 -0.0870  0.4115
11765TIP3    H156786   4.521   4.906  16.575  0.8544 -0.6907 -0.2439
11765TIP3    H256787   4.613   4.899  16.695 -0.2817  0.2242  0.6992
11766TIP3   OH256788   4.040   1.855  13.634  0.3728  0.6262 -0.1645
11766TIP3    H156789   4.032   1.883  13.543 -1.9082 -0.9319 -0.5155
11766TIP3    H256790   4.122   1.894  13.664  2.5470 -0.8507 -3.6068
11767TIP3   OH256791   6.820   6.751  11.412 -0.4344  0.0572 -0.3240
11767TIP3    H156792   6.847   6.776  11.324 -1.4783  0.4962 -0.5373
11767TIP3    H256793   6.750   6.687  11.398 -0.1694 -0.3611  0.2017
11768TIP3   OH256794   1.209   5.330  10.254 -0.1161 -0.1882 -0.4156
11768TIP3    H156795   1.228   5.313  10.347 -0.2015  1.7068 -0.0190
11768TIP3    H256796   1.187   5.244  10.219 -1.1456 -0.8141  1.5799
11769TIP3   OH256797   0.903   3.689  16.156  0.1329 -0.5911  0.6907
11769TIP3    H156798   0.813   3.678  16.185 -0.7196 -1.0205 -1.8290
11769TIP3    H256799   0.915   3.621  16.089  0.8869  2.0023 -2.0232
11770TIP3   OH256800   0.003   2.362   4.078 -0.3734  0.5599  0.2137
11770TIP3    H156801   0.045   2.415   4.010 -0.8385  1.0894  0.3349
11770TIP3    H256802  -0.042   2.425   4.133  0.0145  0.1436  1.0360
11771TIP3   OH256803   2.591   3.944  14.959  0.7711 -0.2522  0.2160
11771TIP3    H156804   2.678   3.907  14.966  0.7104 -0.7699 -1.3130
11771TIP3    H256805   2.600   4.034  14.990  1.6151 -0.5842  0.9662
11772TIP3   OH256806   5.909   6.091  16.616  0.0429 -0.7658 -0.4988
11772TIP3    H156807   5.865   6.051  16.540  0.0188 -1.6352 -0.0434
11772TIP3    H256808   5.837   6.124  16.670  0.0532 -0.2753 -0.7843
11773TIP3   OH256809   1.282   0.773   4.665  0.0700 -0.1659  0.4388
11773TIP3    H156810   1.311   0.683   4.653  2.8872  0.5145  1.4312
11773TIP3    H256811   1.295   0.814   4.580  1.3072 -0.0846  0.6531
11774TIP3   OH256812   4.162   5.923   5.844 -0.3729  0.0703  0.3927
11774TIP3    H156813   4.162   5.828   5.857 -0.0047 -0.0129 -0.1507
11774TIP3    H256814   4.074   5.943   5.811 -1.0429  0.1778  2.1308
11775TIP3   OH256815   1.733   5.696   2.768  0.2246 -0.1807  0.5743
11775TIP3    H156816   1.815   5.720   2.725 -0.3141 -1.5422 -1.3037
11775TIP3    H256817   1.719   5.766   2.832 -0.1533  3.3931 -3.0308
11776TIP3   OH256818   4.099   5.795   2.255 -0.1332  0.0602  0.3081
11776TIP3    H156819   4.152   5.764   2.328  1.3021 -0.8383 -1.0631
11776TIP3    H256820   4.059   5.716   2.219  1.7035  0.0106 -1.7865
11777TIP3   OH256821   2.460   1.125   0.467  0.5774  0.3125  0.9118
11777TIP3    H156822   2.371   1.159   0.461  1.1470  1.8281  0.6560
11777TIP3    H256823   2.510   1.195   0.508  2.4216  1.0593 -2.3401
11778TIP3   OH256824   0.164   6.256   0.664  0.3872 -0.1116  0.2656
11778TIP3    H156825   0.103   6.185   0.685  2.0235 -1.9540 -0.7796
11778TIP3    H256826   0.152   6.271   0.570  3.3203 -2.5469 -0.6873
11779TIP3   OH256827   2.738   4.374   3.011  0.0625 -0.1160  0.1551
11779TIP3    H156828   2.656   4.400   2.969  0.5809  0.0309 -0.7893
11779TIP3    H256829   2.751   4.283   2.984  1.8935  0.8251 -2.5412
11780TIP3   OH256830   1.169   6.471   2.925 -0.4008  0.5237  0.2406
11780TIP3    H156831   1.182   6.465   3.020  0.7266 -0.1590  0.0712
11780TIP3    H256832   1.211   6.392   2.891 -1.4468  0.3898 -0.7734
11781TIP3   OH256833   5.113   2.246   2.759  0.1155 -0.0964 -0.1857
11781TIP3    H156834   5.136   2.291   2.841  2.4033 -1.9705  0.3195
11781TIP3    H256835   5.122   2.314   2.692 -0.9000  1.2522  0.9784
11782TIP3   OH256836   6.230   4.414  13.296  0.6657  0.5340  0.3374
11782TIP3    H156837   6.313   4.414  13.344  0.7346 -2.1092  0.3880
11782TIP3    H256838   6.236   4.488  13.236  2.9944  0.5172  0.4655
11783TIP3   OH256839   5.984   6.686   0.095  0.5747 -0.4110  0.2558
11783TIP3    H156840   6.025   6.601   0.111 -0.9344 -1.8615 -2.6518
11783TIP3    H256841   5.919   6.696   0.164 -1.5379 -3.3450 -1.1266
11784TIP3   OH256842   3.464   6.000  14.997 -0.1830  0.1792  0.0996
11784TIP3    H156843   3.476   6.076  15.055  0.3896 -0.2731  0.5865
11784TIP3    H256844   3.425   6.036  14.918  0.2140  1.0082  0.2730
11785TIP3   OH256845   5.130   3.805   5.080  0.4775 -0.1356 -0.0386
11785TIP3    H156846   5.203   3.866   5.074 -0.0705  0.4426 -1.4375
11785TIP3    H256847   5.164   3.731   5.130  1.5039  0.8198  0.7155
11786TIP3   OH256848   1.818   5.067  16.910  0.0274 -0.5137 -0.1323
11786TIP3    H156849   1.830   5.013  16.989 -1.1421 -0.5822  0.0081
11786TIP3    H256850   1.851   5.012  16.839  1.9571 -0.0973  0.3884
11787TIP3   OH256851   4.042   5.934  12.691  0.6023  0.7442 -0.5859
11787TIP3    H156852   3.983   5.995  12.735  0.4469 -0.4795  1.0129
11787TIP3    H256853   3.985   5.878  12.638 -0.2442 -2.2713  3.0966
11788TIP3   OH256854   2.004   5.194   4.153  0.0556 -0.0343 -0.3951
11788TIP3    H156855   1.921   5.189   4.105 -1.8286  0.0517  2.5280
11788TIP3    H256856   2.023   5.103   4.176  2.0201 -0.3171 -2.8082
11789TIP3   OH256857   0.387   5.125  15.773  0.5112  0.2847  0.1674
11789TIP3    H156858   0.324   5.194  15.791  1.0704  0.5197  1.2890
11789TIP3    H256859   0.352   5.048  15.819 -0.1316 -0.2221 -1.1090
11790TIP3   OH256860   3.440   2.262   0.861  0.2606 -0.8875 -0.5748
11790TIP3    H156861   3.353   2.224   0.852 -0.9664  1.9721 -2.0448
11790TIP3    H256862   3.495   2.211   0.801 -0.4382 -2.4875  0.1046
11791TIP3   OH256863   4.854   2.538  14.994  0.1714 -0.9555 -0.4589
11791TIP3    H156864   4.896   2.621  15.018 -0.8294 -0.4125 -0.5584
11791TIP3    H256865   4.774   2.536  15.046  0.4963 -2.1776  0.0331
11792TIP3   OH256866   4.807   5.724  16.412 -0.1105  0.4719  0.0837
11792TIP3    H156867   4.786   5.780  16.487  0.0661  0.1826  0.3516
11792TIP3    H256868   4.725   5.678  16.393  0.2096 -0.5199  1.0096
11793TIP3   OH256869   0.897   2.576   1.775  0.5445 -0.0334  0.2815
11793TIP3    H156870   0.926   2.525   1.699 -0.2981 -1.6066  0.9706
11793TIP3    H256871   0.866   2.510   1.837 -2.5656  1.3897  0.4083
11794TIP3   OH256872   3.662   3.639  12.775 -0.0087  0.3862 -0.1630
11794TIP3    H156873   3.748   3.646  12.735 -0.1765  0.8103 -0.4676
11794TIP3    H256874   3.639   3.729  12.798 -0.6626  0.3818 -0.7355
11795TIP3   OH256875   2.902   3.058   2.655  0.2446  0.4597  0.0211
11795TIP3    H156876   2.869   3.139   2.695 -0.7955  0.6075 -1.0804
11795TIP3    H256877   2.851   2.988   2.698 -1.7406  0.6955 -1.7683
11796TIP3   OH256878   3.204   0.054   3.526  0.4461  0.6783 -0.1102
11796TIP3    H156879   3.287   0.079   3.567  0.2715 -1.8586  2.0127
11796TIP3    H256880   3.146   0.034   3.599 -0.8706 -1.1362 -1.5654
11797TIP3   OH256881   4.650   0.399   0.305  0.4735 -0.4876  0.5993
11797TIP3    H156882   4.675   0.358   0.388 -0.8735 -1.0452  0.7497
11797TIP3    H256883   4.610   0.329   0.254  0.6882  0.0082 -0.2699
11798TIP3   OH256884   0.125   1.104   5.509  0.0084  0.0314  0.1161
11798TIP3    H156885   0.110   1.011   5.492  0.4197 -0.0561  0.2259
11798TIP3    H256886   0.176   1.106   5.590 -0.9030  0.3998  0.6927
11799TIP3   OH256887   3.786   6.799   1.045  0.6695 -0.0212  0.5382
11799TIP3    H156888   3.694   6.783   1.022  0.0807  0.1803  2.5772
11799TIP3    H256889   3.803   6.888   1.014  0.7362 -0.6408 -1.3542
11800TIP3   OH256890   6.409   6.778   5.507  0.4174  0.1655 -0.1020
11800TIP3    H156891   6.330   6.737   5.471  1.6788 -1.8441 -0.7635
11800TIP3    H256892   6.438   6.838   5.437 -0.4028  0.7849  0.0757
11801TIP3   OH256893   4.170   2.533  11.052 -0.5849  0.4243 -0.6003
11801TIP3    H156894   4.141   2.453  11.007 -0.3002  0.1546 -0.3133
11801TIP3    H256895   4.192   2.593  10.981  1.0869 -0.4387 -0.8830
11802TIP3   OH256896   3.685   4.291  15.574 -0.4771  0.1915 -0.1957
11802TIP3    H156897   3.671   4.303  15.668 -1.8358 -1.5342 -0.1294
11802TIP3    H256898   3.616   4.343  15.532  1.2368  2.4788 -0.3745
11803TIP3   OH256899   0.509   1.322  15.955 -0.1916  0.6833 -0.7965
11803TIP3    H156900   0.588   1.362  15.990  2.0448 -2.4035 -1.9505
11803TIP3    H256901   0.462   1.289  16.032  1.4764 -0.4946 -0.2300
11804TIP3   OH256902   5.866   1.504   4.508 -0.4213 -0.1914  0.4263
11804TIP3    H156903   5.937   1.441   4.524  1.8143  1.6967 -1.2751
11804TIP3    H256904   5.813   1.463   4.440  0.2252 -0.7874  0.2661
11805TIP3   OH256905   1.015   0.571  11.724  0.1322  0.2224 -0.2660
11805TIP3    H156906   1.032   0.478  11.736 -0.0524  0.3254  0.9354
11805TIP3    H256907   1.094   0.615  11.756  0.3471  0.4792 -1.1203
11806TIP3   OH256908   2.254   0.872   2.838 -0.2275 -0.0583  0.5751
11806TIP3    H156909   2.182   0.935   2.836  0.1013  0.3090 -0.5842
11806TIP3    H256910   2.213   0.787   2.824 -0.4554  0.1355  0.0594
11807TIP3   OH256911   0.861   5.041  11.183  0.0378  0.0959  0.3215
11807TIP3    H156912   0.801   4.970  11.209 -0.0183  0.1692  0.3926
11807TIP3    H256913   0.805   5.106  11.142 -0.0335  0.4613  0.9790
11808TIP3   OH256914   2.947   2.632  11.794  0.3574  0.1822 -0.2553
11808TIP3    H156915   2.961   2.562  11.730  0.5170  1.5704 -1.7987
11808TIP3    H256916   2.865   2.608  11.838  0.3998 -0.9649 -0.7695
11809TIP3   OH256917   0.050   4.212   4.294  0.2704  0.2567  0.3645
11809TIP3    H156918   0.093   4.276   4.351 -0.4637  0.3519  0.8152
11809TIP3    H256919   0.068   4.244   4.205  2.6198 -0.6355  0.4254
11810TIP3   OH256920   2.211   1.541   0.922 -0.0797  0.5426  0.5273
11810TIP3    H156921   2.276   1.612   0.922 -1.8305  2.2733 -1.6095
11810TIP3    H256922   2.147   1.567   0.989  0.7620 -0.6189  1.8565
11811TIP3   OH256923   6.088   4.270  16.054  0.1283 -0.0851 -0.2422
11811TIP3    H156924   6.064   4.357  16.025 -1.0867 -0.0440  0.8094
11811TIP3    H256925   6.018   4.213  16.022  0.6720 -0.6080 -0.5232
11812TIP3   OH256926   1.793   2.689   5.349 -0.7147  0.1785 -0.6443
11812TIP3    H156927   1.777   2.773   5.307  0.3680  0.2873 -0.8848
11812TIP3    H256928   1.837   2.712   5.431 -0.2560 -0.1569 -0.7936
11813TIP3   OH256929   5.585   4.073   2.528 -0.1673  0.4077 -0.4189
11813TIP3    H156930   5.552   3.992   2.566  1.6120  0.2817  1.0016
11813TIP3    H256931   5.514   4.104   2.471 -1.7015 -1.0451  0.6125
11814TIP3   OH256932   4.062   0.962  10.742  0.3583 -0.5727  0.2629
11814TIP3    H156933   4.029   0.874  10.728  0.2814 -0.2169 -2.2407
11814TIP3    H256934   3.985   1.014  10.765 -0.0703 -0.6778 -0.8696
11815TIP3   OH256935   1.218   5.611  14.683 -0.1182 -0.6219  0.5290
11815TIP3    H156936   1.216   5.517  14.666 -0.1646 -0.4073 -0.7843
11815TIP3    H256937   1.159   5.623  14.757 -0.2502 -1.6067  0.6015
11816TIP3   OH256938   3.328   1.592   2.951 -0.3568  0.0473  0.2850
11816TIP3    H156939   3.343   1.552   3.036  2.7298  0.4275  0.0295
11816TIP3    H256940   3.348   1.685   2.964  1.6711 -0.1345 -1.1267
11817TIP3   OH256941   3.767   4.232  13.831  0.0320  0.9771 -0.1990
11817TIP3    H156942   3.749   4.173  13.904  0.2917  0.1214 -0.8097
11817TIP3    H256943   3.801   4.311  13.872  0.1802  0.5037  0.6104
11818TIP3   OH256944   4.156   2.184   6.416 -0.3786  0.1912 -0.6958
11818TIP3    H156945   4.244   2.147   6.417 -0.3496  0.2532 -0.9343
11818TIP3    H256946   4.150   2.236   6.496 -0.1471  0.3108 -0.7568
11819TIP3   OH256947   4.675   2.700   3.232 -0.0586 -0.4537  0.8707
11819TIP3    H156948   4.703   2.706   3.324 -2.2690  2.2253  1.5182
11819TIP3    H256949   4.716   2.775   3.190 -1.5419  0.1827  0.4950
11820TIP3   OH256950   1.450   3.754  15.176  0.9025  0.2531  0.3586
11820TIP3    H156951   1.419   3.814  15.108 -0.0152 -0.9316 -0.2989
11820TIP3    H256952   1.522   3.801  15.218  0.1449  1.8632 -0.0486
11821TIP3   OH256953   2.554   3.939  14.651 -0.4937  1.0483  0.3084
11821TIP3    H156954   2.489   4.006  14.631  1.9702  3.3812 -0.4924
11821TIP3    H256955   2.613   3.981  14.713  1.8434  0.1076 -1.1344
11822TIP3   OH256956   5.078   3.140   1.585 -0.1464  0.3471  0.8380
11822TIP3    H156957   5.016   3.156   1.513  0.2537 -2.8964 -0.3899
11822TIP3    H256958   5.023   3.111   1.657 -0.4389  2.5625  1.5984
11823TIP3   OH256959   4.575   1.858   3.251  0.2631  0.3107 -0.0537
11823TIP3    H156960   4.585   1.934   3.308 -1.2770  1.4993 -1.2788
11823TIP3    H256961   4.662   1.844   3.214  1.0048  0.2665  1.6028
11824TIP3   OH256962   2.772   4.890   6.553 -0.0273 -0.8720  0.2819
11824TIP3    H156963   2.773   4.919   6.461 -1.9449  0.7179  0.6807
11824TIP3    H256964   2.771   4.971   6.603  0.1962 -1.7193  1.7016
11825TIP3   OH256965   1.007   2.201  14.010 -0.2190  0.8077 -0.2930
11825TIP3    H156966   0.958   2.119  14.008 -1.0530  1.3125 -1.7821
11825TIP3    H256967   0.985   2.240  14.095  0.3982 -0.5872  0.5566
11826TIP3   OH256968   3.217   3.077   1.059 -0.6491  0.1517  0.2956
11826TIP3    H156969   3.241   3.158   1.013  0.4684  0.3693  1.2315
11826TIP3    H256970   3.125   3.089   1.081 -0.2542  1.6047  1.2872
11827TIP3   OH256971   3.975   2.544   2.619  0.3927 -0.6308  0.4634
11827TIP3    H156972   4.032   2.468   2.628  0.9377 -0.2428  0.3551
11827TIP3    H256973   4.002   2.603   2.690 -1.0549 -1.1623  1.5178
11828TIP3   OH256974   3.573   3.363   2.945  0.6821  0.2148  0.0540
11828TIP3    H156975   3.559   3.455   2.922  1.3705  0.6675  1.3557
11828TIP3    H256976   3.631   3.330   2.877  1.0860  0.9732  0.0204
11829TIP3   OH256977   1.103   1.101  15.600  0.1489 -0.1246 -0.2041
11829TIP3    H156978   1.054   1.182  15.590 -0.8916 -0.5690  1.0362
11829TIP3    H256979   1.037   1.035  15.619  1.1514 -0.8514  0.9537
11830TIP3   OH256980   2.072   3.507  12.097  0.5061  1.3226  0.0667
11830TIP3    H156981   2.068   3.602  12.088  1.5044  1.4019  0.2598
11830TIP3    H256982   2.002   3.474  12.041 -1.1106  2.2296  1.4830
11831TIP3   OH256983   0.001   4.586   6.071  0.4562  0.0943  0.1578
11831TIP3    H156984   0.003   4.511   6.012  1.9133 -0.1838  0.5268
11831TIP3    H256985   0.077   4.638   6.047 -1.3698  2.3558 -1.1687
11832TIP3   OH256986   3.109   6.775  12.976  0.3858  0.0380  0.1843
11832TIP3    H156987   3.102   6.727  13.058  0.7112 -0.1368  0.1131
11832TIP3    H256988   3.132   6.864  13.002  0.2737  0.0344  0.2941
11833TIP3   OH256989   1.566   2.347  10.765  0.0200 -0.0884  0.5009
11833TIP3    H156990   1.636   2.343  10.830 -0.4445 -1.4479  0.9493
11833TIP3    H256991   1.522   2.262  10.771  0.3269 -0.5141 -2.0214
11834TIP3   OH256992   4.137   6.423   2.084  0.2382  0.1358  0.1495
11834TIP3    H156993   4.149   6.464   2.170 -2.0621 -0.1516  0.6703
11834TIP3    H256994   4.081   6.347   2.101  1.2657 -1.0350 -1.3657
11835TIP3   OH256995   3.370   5.509   6.053  0.1847  0.4287 -0.1772
11835TIP3    H156996   3.322   5.588   6.028 -1.4169 -0.8370 -1.4001
11835TIP3    H256997   3.420   5.485   5.975 -0.7963 -0.7245 -0.4989
11836TIP3   OH256998   3.507   4.926   0.969 -0.1000  0.2116 -0.5170
11836TIP3    H156999   3.539   5.012   0.996  1.4870 -0.6600  0.5732
11836TIP3    H257000   3.463   4.892   1.047  0.2631 -0.4083 -0.5813
11837TIP3   OH257001   6.408   4.956  16.517  0.1006  0.0506 -0.7133
11837TIP3    H157002   6.500   4.958  16.491  0.0844  0.1012 -0.7673
11837TIP3    H257003   6.381   5.048  16.515 -0.0560 -0.0033 -1.0735
11838TIP3   OH257004   2.634   3.753  15.369  0.0875  0.1092 -0.2498
11838TIP3    H157005   2.719   3.710  15.358 -0.7783 -1.6076 -0.6158
11838TIP3    H257006   2.572   3.681  15.381 -1.2757  1.3341  0.4084
11839TIP3   OH257007   4.329   5.532  16.720 -0.0768  0.6536 -0.0050
11839TIP3    H157008   4.263   5.536  16.790 -0.9106  1.1894 -0.7911
11839TIP3    H257009   4.383   5.457  16.742 -1.1627 -0.0094  0.4861
11840TIP3   OH257010   5.332   0.988   4.815 -0.5922  0.3217 -0.3021
11840TIP3    H157011   5.357   1.005   4.725  1.6019 -0.8854  0.0153
11840TIP3    H257012   5.361   1.065   4.863  0.8448 -0.2330 -0.2391
11841TIP3   OH257013   4.746   3.780  11.439 -0.4360 -0.4549 -0.4381
11841TIP3    H157014   4.796   3.727  11.502  0.1098 -0.7266 -1.0938
11841TIP3    H257015   4.683   3.719  11.401 -0.0140 -0.5537 -0.9715
11842TIP3   OH257016   6.242   5.499  12.808 -0.2633  0.5472  0.4155
11842TIP3    H157017   6.150   5.522  12.822 -0.4753 -0.0995  0.1230
11842TIP3    H257018   6.240   5.437  12.735  0.3159 -0.1311  0.9601
11843TIP3   OH257019   5.005   6.056  14.372 -0.1284  0.0518 -0.2904
11843TIP3    H157020   4.990   5.962  14.386 -0.4090  0.3054  1.2682
11843TIP3    H257021   5.097   6.069  14.392 -0.2109  0.1894  0.0065
11844TIP3   OH257022   0.093   5.131   5.856 -0.3488  0.0914  0.1948
11844TIP3    H157023   0.008   5.163   5.827 -0.7597 -0.3256  0.9351
11844TIP3    H257024   0.139   5.109   5.775 -1.5727 -1.3012 -0.1438
11845TIP3   OH257025   5.394   2.886   3.792  0.2261  0.2624 -0.2133
11845TIP3    H157026   5.485   2.861   3.806  0.2115  0.3539  0.0311
11845TIP3    H257027   5.395   2.936   3.710  0.4838  0.7792  0.1065
11846TIP3   OH257028   4.295   4.509   4.279 -0.0985  0.0755 -0.1390
11846TIP3    H157029   4.360   4.496   4.348 -0.7240  2.3242  0.9844
11846TIP3    H257030   4.305   4.601   4.253 -2.2167  0.2552 -0.5347
11847TIP3   OH257031   6.358   2.196  16.743  0.2708 -0.2300 -0.9906
11847TIP3    H157032   6.318   2.260  16.802 -0.2431  0.1707 -1.7697
11847TIP3    H257033   6.302   2.118  16.751  2.1230 -1.4456  1.6526
11848TIP3   OH257034   1.720   3.501   0.950 -0.1583 -0.1454 -0.4083
11848TIP3    H157035   1.798   3.471   0.903  0.0739 -0.3548  0.0977
11848TIP3    H257036   1.754   3.547   1.026 -0.5244  0.7850 -0.7952
11849TIP3   OH257037   5.121   3.829  10.303 -0.0994 -0.4287 -0.6386
11849TIP3    H157038   5.164   3.831  10.389  0.6109  0.3176 -1.0065
11849TIP3    H257039   5.030   3.855  10.321 -0.1867 -1.1255  0.0013
11850TIP3   OH257040   6.541   3.372  17.060 -0.0891 -0.3699 -0.1880
11850TIP3    H157041   6.487   3.339  17.133 -2.5601 -0.4798 -1.9237
11850TIP3    H257042   6.602   3.301  17.042  0.0242 -0.6696  1.2339
11851TIP3   OH257043   4.295   0.390  16.889  0.1131 -0.0644 -0.0560
11851TIP3    H157044   4.273   0.352  16.804 -0.5189  3.0111 -1.3891
11851TIP3    H257045   4.390   0.393  16.890  0.1151  0.2518 -0.8411
11852TIP3   OH257046   1.143   4.941   0.863  0.1864  0.5011 -0.9330
11852TIP3    H157047   1.169   4.849   0.849  0.8751  0.5536 -0.0932
11852TIP3    H257048   1.120   4.973   0.776 -2.5527 -1.1802 -0.9421
11853TIP3   OH257049   4.122   2.818   3.744 -0.1311 -0.3272 -0.1756
11853TIP3    H157050   4.139   2.907   3.715 -0.3180 -0.3374 -0.3224
11853TIP3    H257051   4.101   2.771   3.663  0.6254 -0.6614 -0.1885
11854TIP3   OH257052   3.713   0.592  13.681 -0.3560 -0.3567  0.3435
11854TIP3    H157053   3.724   0.500  13.704 -1.0152 -0.1348  1.6152
11854TIP3    H257054   3.717   0.593  13.585  0.8073 -1.5375  0.3536
11855TIP3   OH257055   0.047   4.829  14.198  0.5235  0.1637 -0.4887
11855TIP3    H157056   0.053   4.751  14.252 -0.3678 -0.0916 -0.7335
11855TIP3    H257057   0.055   4.797  14.108 -2.4375 -0.0591 -0.7697
11856TIP3   OH257058   3.587   1.708  17.090  0.0215  0.0093  0.0630
11856TIP3    H157059   3.554   1.618  17.099  1.1587 -0.4984 -0.5984
11856TIP3    H257060   3.553   1.737  17.005 -1.2151  0.6111  0.7350
11857TIP3   OH257061   4.807   5.727  15.308 -0.1728 -0.9964  0.1848
11857TIP3    H157062   4.896   5.698  15.288  0.5038  1.1307 -0.1043
11857TIP3    H257063   4.755   5.694  15.235  0.7043 -0.7837 -0.5599
11858TIP3   OH257064   6.736   1.274   2.487 -0.2177 -0.1024  0.2036
11858TIP3    H157065   6.776   1.324   2.416 -2.0590  0.7501 -0.3100
11858TIP3    H257066   6.658   1.234   2.448  0.1880 -1.8570  1.0938
11859TIP3   OH257067   5.003   1.476  13.275  0.2159  0.2237 -0.0668
11859TIP3    H157068   5.078   1.444  13.224  0.1948  0.1759 -0.0675
11859TIP3    H257069   5.018   1.571  13.282 -0.1789  0.3546 -0.8221
11860TIP3   OH257070   3.018   2.764  13.245  0.1709 -0.2208 -0.5099
11860TIP3    H157071   2.984   2.740  13.159  0.1452  0.7885 -0.7951
11860TIP3    H257072   3.109   2.733  13.245  0.6911  1.1811 -1.5402
11861TIP3   OH257073   6.422   2.859   5.119 -0.2688 -0.2010  0.2895
11861TIP3    H157074   6.445   2.766   5.112 -0.2170 -0.1037 -1.2396
11861TIP3    H257075   6.346   2.861   5.177  0.1268 -1.1217  0.8665
11862TIP3   OH257076   2.329   2.663   1.337 -0.2415  0.7443 -0.1349
11862TIP3    H157077   2.298   2.701   1.255  0.3445  0.7814 -0.3482
11862TIP3    H257078   2.334   2.569   1.320  0.2609  0.7932 -0.2773
11863TIP3   OH257079   6.290   5.350  13.370  0.4275 -0.2773 -0.0912
11863TIP3    H157080   6.303   5.369  13.463  0.6330 -0.0605 -0.1630
11863TIP3    H257081   6.232   5.274  13.369  1.0749 -0.7820  0.2261
11864TIP3   OH257082   0.693   1.086  15.015  0.1131 -0.1960  0.1907
11864TIP3    H157083   0.695   1.022  15.086 -1.3649  0.3661  0.7704
11864TIP3    H257084   0.601   1.110  15.006  0.5551  1.4661 -0.3687
11865TIP3   OH257085   1.053   1.948   5.384  0.1354  0.2870  0.4475
11865TIP3    H157086   1.103   1.951   5.465 -0.5843  0.4741  0.8895
11865TIP3    H257087   0.989   2.019   5.392 -1.7664 -1.3903  0.9183
11866TIP3   OH257088   5.756   1.312   2.708 -0.2904 -0.3349 -0.1747
11866TIP3    H157089   5.761   1.386   2.769 -3.3794 -0.2081  0.0746
11866TIP3    H257090   5.677   1.329   2.657 -0.2967 -2.7828 -1.0865
11867TIP3   OH257091   4.951   2.121  11.443  0.0680 -0.0713  0.4555
11867TIP3    H157092   4.882   2.188  11.451 -1.2992 -1.5054  1.0963
11867TIP3    H257093   5.024   2.168  11.403  0.0436  2.4617  2.9752
11868TIP3   OH257094   6.506   2.155  10.233 -0.3944 -0.2591 -0.2757
11868TIP3    H157095   6.537   2.201  10.310 -0.6628  0.4811 -0.5999
11868TIP3    H257096   6.581   2.103  10.203  0.5085  1.3702 -0.9606
11869TIP3   OH257097   5.536   3.163   5.006 -0.4792  0.0807  0.2995
11869TIP3    H157098   5.507   3.081   4.967  0.4445 -0.7630  1.3240
11869TIP3    H257099   5.623   3.178   4.970 -0.4456  0.3552  0.4873
11870TIP3   OH257100   6.477   1.886   5.807 -0.0900 -0.1913 -0.2173
11870TIP3    H157101   6.486   1.933   5.724 -0.2837 -2.6994 -1.7644
11870TIP3    H257102   6.384   1.867   5.815 -0.0741  0.0438  0.5782
11871TIP3   OH257103   1.757   2.815   3.597 -0.1825  0.4626  0.1240
11871TIP3    H157104   1.742   2.726   3.565 -3.8859  0.7244  0.6801
11871TIP3    H257105   1.799   2.860   3.524  0.8057 -1.4332 -0.5519
11872TIP3   OH257106   4.353   4.887  13.105  0.1473  0.4583  0.4721
11872TIP3    H157107   4.262   4.916  13.111 -0.2012 -0.5684  0.3769
11872TIP3    H257108   4.388   4.898  13.193 -0.6365 -0.9133  0.9674
11873TIP3   OH257109   5.295   0.156   4.082 -0.5881  0.3218  0.4912
11873TIP3    H157110   5.299   0.128   3.991  0.7318  1.5386  0.1391
11873TIP3    H257111   5.215   0.115   4.117  0.1463 -2.1424 -0.5137
11874TIP3   OH257112   6.519   4.466  17.053  0.4404 -0.5136 -0.1431
11874TIP3    H157113   6.498   4.560  17.045  1.4128 -0.2017  0.7845
11874TIP3    H257114   6.539   4.439  16.963  0.3356  0.2113 -0.3980
11875TIP3   OH257115   4.854   0.033   3.984  0.2976  0.0750  0.3667
11875TIP3    H157116   4.766   0.066   3.967 -0.6645 -1.4341  2.0267
11875TIP3    H257117   4.892   0.097   4.044 -0.6941 -0.5743  1.7467
11876TIP3   OH257118   1.666   6.419  14.286 -0.2167  0.2352 -0.0277
11876TIP3    H157119   1.600   6.426  14.355 -0.8838 -0.5856 -0.5611
11876TIP3    H257120   1.671   6.325  14.266 -0.4974  0.5073 -1.5187
11877TIP3   OH257121   3.279   0.765  15.450 -0.0047  0.1348 -0.1865
11877TIP3    H157122   3.223   0.687  15.462 -1.4440  1.1651  0.0917
11877TIP3    H257123   3.308   0.759  15.359  0.8368 -1.2865  0.1323
11878TIP3   OH257124   0.272   0.829   1.879  0.0936 -0.3742 -0.1386
11878TIP3    H157125   0.336   0.900   1.878 -1.0276  0.6935 -0.0969
11878TIP3    H257126   0.278   0.792   1.967  1.5371 -1.1693 -0.5450
11879TIP3   OH257127   2.514   2.387   2.596 -0.0086  0.2529  0.2871
11879TIP3    H157128   2.478   2.473   2.571 -1.0147 -0.3587 -0.4697
11879TIP3    H257129   2.450   2.351   2.657  1.3073  0.7664  2.0236
11880TIP3   OH257130   4.800   0.256  10.593  0.8987 -0.3427 -0.6125
11880TIP3    H157131   4.866   0.311  10.635 -1.7135  0.7432  2.5286
11880TIP3    H257132   4.846   0.176  10.568  3.5056  0.6437  0.7323
11881TIP3   OH257133   1.850   6.566   0.675  0.8766 -0.0474 -0.1311
11881TIP3    H157134   1.758   6.593   0.676  0.9939  0.3889 -0.6316
11881TIP3    H257135   1.899   6.647   0.660  1.2133 -0.5642 -2.0815
11882TIP3   OH257136   0.116   0.777   4.262  0.0961 -0.6124 -0.5461
11882TIP3    H157137   0.135   0.816   4.176 -1.0782 -0.4532 -0.7449
11882TIP3    H257138   0.064   0.843   4.307 -0.2322 -1.1568 -0.1302
11883TIP3   OH257139   2.311   3.663  15.654  0.4998  0.0003 -0.3666
11883TIP3    H157140   2.404   3.664  15.679  0.6674 -1.2688 -0.8979
11883TIP3    H257141   2.294   3.573  15.626 -1.3404 -0.2264  1.3258
11884TIP3   OH257142   6.496   4.871   5.959  0.0117  0.4031  0.4327
11884TIP3    H157143   6.536   4.819   6.028  1.8834 -0.0687 -0.9214
11884TIP3    H257144   6.403   4.874   5.981 -0.3657 -4.0802  0.2888
11885TIP3   OH257145   6.690   0.424  16.626 -0.3415  0.9889  0.3308
11885TIP3    H157146   6.613   0.415  16.569  1.4585  1.3791 -2.3558
11885TIP3    H257147   6.704   0.519  16.631  1.3132  0.8802 -1.2826
11886TIP3   OH257148   2.270   5.354   3.531  0.1843  0.0606 -0.3302
11886TIP3    H157149   2.255   5.360   3.437 -0.1072  1.4815 -0.2107
11886TIP3    H257150   2.244   5.439   3.566  0.6025 -0.3211  1.0015
11887TIP3   OH257151   6.026   0.753  13.795 -0.9289  0.0481  0.4819
11887TIP3    H157152   5.933   0.758  13.773 -0.7990  1.4165  0.2058
11887TIP3    H257153   6.041   0.825  13.857  0.2835  0.9290 -0.7774
11888TIP3   OH257154   5.239   0.436  13.657  0.3193 -0.2451  0.0523
11888TIP3    H157155   5.161   0.486  13.635 -0.9545 -1.2472  1.9812
11888TIP3    H257156   5.302   0.457  13.589 -2.6508 -1.8237 -3.5039
11889TIP3   OH257157   5.293   1.042  15.534  0.6974  0.2690  0.2344
11889TIP3    H157158   5.365   1.086  15.579 -1.5878  2.2976  2.1938
11889TIP3    H257159   5.226   1.110  15.523 -1.0004 -1.5247 -1.3642
11890TIP3   OH257160   2.044   5.911  14.584 -0.1376 -0.2529 -0.4507
11890TIP3    H157161   2.109   5.932  14.517  1.6957 -1.0389  0.9888
11890TIP3    H257162   1.991   5.990  14.592 -0.1415  0.0055 -2.4746
11891TIP3   OH257163   6.585   0.247  16.990 -0.0288  0.1062  0.0270
11891TIP3    H157164   6.642   0.191  17.042 -1.1655 -0.1328  1.0655
11891TIP3    H257165   6.504   0.196  16.981 -0.7230  1.1719  0.1443
11892TIP3   OH257166   2.173   3.249   0.452  0.1321  0.6553 -0.0823
11892TIP3    H157167   2.141   3.202   0.529  1.2476 -0.4882 -0.2877
11892TIP3    H257168   2.195   3.336   0.484  3.1200 -0.5631  1.5836
11893TIP3   OH257169   1.245   3.513   0.133  0.1064  0.1940 -0.1800
11893TIP3    H157170   1.198   3.582   0.086  0.2131  0.3538 -0.0531
11893TIP3    H257171   1.233   3.535   0.226 -0.1587 -0.1568 -0.1277
11894TIP3   OH257172   0.892   5.990   2.856 -0.0262  0.4342 -0.0863
11894TIP3    H157173   0.983   5.966   2.841  0.3079 -2.6416  4.8981
11894TIP3    H257174   0.841   5.924   2.809  0.4869 -0.6817  0.9058
11895TIP3   OH257175   3.303   0.181   3.041 -0.1819 -0.3011  0.6098
11895TIP3    H157176   3.225   0.187   2.985  1.3402  0.7830 -1.5668
11895TIP3    H257177   3.341   0.269   3.037  1.1548 -0.8118  1.5955
11896TIP3   OH257178   6.689   0.199  13.377  0.0019  0.5102  0.1038
11896TIP3    H157179   6.708   0.209  13.470 -0.3208 -0.9597  0.3546
11896TIP3    H257180   6.755   0.251  13.333  1.4832 -0.4408  1.1048
11897TIP3   OH257181   6.765   2.525   0.162 -0.3841 -0.2703  0.3999
11897TIP3    H157182   6.711   2.448   0.182 -1.4738  0.3586 -0.0752
11897TIP3    H257183   6.763   2.532   0.067 -1.0750  0.8885  0.4866
11898TIP3   OH257184   2.445   0.253   0.512  0.4747  0.1311 -0.0386
11898TIP3    H157185   2.469   0.342   0.536  0.5604  0.3092 -0.7602
11898TIP3    H257186   2.412   0.214   0.593 -1.9839  1.6100 -0.2207
11899TIP3   OH257187   3.142   6.414  15.254 -0.6754 -0.7123  0.5109
11899TIP3    H157188   3.224   6.461  15.242 -1.2985  0.3919  0.5011
11899TIP3    H257189   3.089   6.438  15.178 -1.1103 -1.2204  0.6469
11900TIP3   OH257190   2.893   1.474  11.684 -0.0128  0.3948 -0.3742
11900TIP3    H157191   2.973   1.521  11.660 -0.1992  0.4830 -0.8402
11900TIP3    H257192   2.923   1.388  11.713  0.2384  0.3454 -0.7748
11901TIP3   OH257193   3.205   5.078   0.925 -0.0631 -0.2501 -0.3774
11901TIP3    H157194   3.257   5.155   0.948  2.5821 -2.0409  0.1555
11901TIP3    H257195   3.205   5.077   0.829 -1.0402  0.9267 -0.4163
11902TIP3   OH257196   3.882   0.216   0.171 -0.0141 -0.2606  0.5094
11902TIP3    H157197   3.952   0.210   0.235  0.4669 -0.7161 -0.0441
11902TIP3    H257198   3.863   0.310   0.164  1.8343  0.0864 -0.6845
11903TIP3   OH257199   4.814   1.051   1.802  0.6953 -0.0128 -0.2683
11903TIP3    H157200   4.864   1.056   1.883  0.3504  3.1644 -0.0980
11903TIP3    H257201   4.722   1.052   1.830  0.5760  0.3878 -0.6479
11904TIP3   OH257202   1.295   0.382  11.515 -0.3045  0.0438 -0.2391
11904TIP3    H157203   1.334   0.326  11.448 -0.4269  0.2460 -0.4845
11904TIP3    H257204   1.349   0.461  11.516 -1.8191  1.2020 -2.0088
11905TIP3   OH257205   4.790   2.009   3.694  0.4655 -0.3651  0.0732
11905TIP3    H157206   4.734   2.011   3.616 -0.0159  0.0611  0.4261
11905TIP3    H257207   4.877   2.032   3.662 -0.0892  1.7526 -0.0507
11906TIP3   OH257208   3.332   3.586   0.080 -0.3051 -0.2664 -0.1054
11906TIP3    H157209   3.286   3.556   0.001 -2.5145  1.1535  0.5421
11906TIP3    H257210   3.266   3.637   0.128  2.3457  3.2853  0.1858
11907TIP3   OH257211   3.656   0.751  11.889 -0.4281 -0.0109  0.0783
11907TIP3    H157212   3.690   0.703  11.814  0.1211  1.2456 -0.5205
11907TIP3    H257213   3.632   0.837  11.853 -0.4817  0.4926  1.2694
11908TIP3   OH257214   1.058   2.855  15.846 -0.4091 -0.2233  0.5423
11908TIP3    H157215   1.102   2.840  15.930 -1.2064 -2.9299  0.5644
11908TIP3    H257216   0.966   2.839  15.864 -0.6556 -0.3585 -0.7523
11909TIP3   OH257217   4.462   4.533   2.634  0.2491 -0.6983  0.0551
11909TIP3    H157218   4.532   4.593   2.661 -1.4771  1.0611  0.7910
11909TIP3    H257219   4.436   4.489   2.714 -0.4552 -0.2892  0.0533
11910TIP3   OH257220   6.800   4.391  15.320  0.3634  0.4081  0.0155
11910TIP3    H157221   6.704   4.395  15.326  0.3651 -1.2321  2.1319
11910TIP3    H257222   6.817   4.319  15.259  0.2296 -0.2759  0.7772
11911TIP3   OH257223   0.838   3.480   4.486  0.0973 -0.2988 -0.1612
11911TIP3    H157224   0.885   3.406   4.524 -1.4229 -1.0599  0.3126
11911TIP3    H257225   0.839   3.547   4.555  1.8709  0.3466 -0.7567
11912TIP3   OH257226   3.041   2.134   1.222  0.1507 -0.3188  0.0323
11912TIP3    H157227   3.135   2.123   1.205  0.4669  1.8202  0.0997
11912TIP3    H257228   3.007   2.175   1.143 -0.6350 -0.6141  0.2090
11913TIP3   OH257229   3.177   1.455  16.483 -0.0518 -0.0727  0.2203
11913TIP3    H157230   3.193   1.405  16.562 -0.8007 -0.1405  0.3349
11913TIP3    H257231   3.260   1.501  16.466  0.3342 -0.6074  0.6347
11914TIP3   OH257232   0.690   4.804   1.840 -0.1375  0.2457 -0.0296
11914TIP3    H157233   0.679   4.765   1.753 -2.9502  1.4724 -0.3468
11914TIP3    H257234   0.749   4.878   1.826 -0.3616  0.2787 -0.8635
11915TIP3   OH257235   3.738   1.860  11.927 -0.3798 -0.7299  0.1696
11915TIP3    H157236   3.725   1.945  11.969 -2.4110 -1.0277  0.2406
11915TIP3    H257237   3.798   1.878  11.855  0.5939  0.4159  1.2319
11916TIP3   OH257238   3.733   4.068  11.802  0.0693 -0.6167 -0.4013
11916TIP3    H157239   3.678   3.994  11.825  0.0826 -0.1449  1.3168
11916TIP3    H257240   3.790   4.080  11.879  1.5240 -0.1449 -1.4989
11917TIP3   OH257241   4.479   6.509  12.857  0.4139 -0.5813 -0.1162
11917TIP3    H157242   4.564   6.487  12.819  0.5311 -2.0835  0.8883
11917TIP3    H257243   4.501   6.553  12.940  0.1988 -0.0552 -0.3368
11918TIP3   OH257244   0.576   3.508   4.747  0.6729 -0.5182  0.1102
11918TIP3    H157245   0.485   3.482   4.731  0.5341 -0.3314  0.5909
11918TIP3    H257246   0.628   3.436   4.710  0.3875  0.1768 -1.7279
11919TIP3   OH257247   5.748   1.352  10.958 -0.1448 -0.2377 -0.2297
11919TIP3    H157248   5.687   1.283  10.934  0.3951 -1.2726  1.2602
11919TIP3    H257249   5.697   1.412  11.012 -0.5934  0.5276 -1.4613
11920TIP3   OH257250   1.151   3.126  11.314  0.3449 -0.5703  0.3240
11920TIP3    H157251   1.071   3.074  11.323  0.2801 -0.6341 -0.5893
11920TIP3    H257252   1.222   3.062  11.321  0.2525 -0.9103 -1.4928
11921TIP3   OH257253   1.299   3.854   3.176  0.0892 -0.5140  0.3204
11921TIP3    H157254   1.276   3.763   3.156 -1.9058 -0.0484  0.3250
11921TIP3    H257255   1.389   3.863   3.144  0.2743 -2.4285  0.1667
11922TIP3   OH257256   1.745   4.977   5.652 -0.5896  0.4344  0.6245
11922TIP3    H157257   1.718   5.002   5.563  0.3086 -2.4879 -0.6213
11922TIP3    H257258   1.666   4.940   5.692 -0.5169 -0.2526  0.1675
11923TIP3   OH257259   0.163   5.007   1.250  0.2529 -0.1265 -0.7697
11923TIP3    H157260   0.111   5.071   1.201  0.8728  0.3136 -0.8606
11923TIP3    H257261   0.171   4.932   1.191  0.3042  0.0780 -1.0228
11924TIP3   OH257262   6.313   1.483  12.086 -0.1508 -0.2500 -0.0179
11924TIP3    H157263   6.300   1.525  12.001 -0.1778 -2.3662 -1.1066
11924TIP3    H257264   6.383   1.419  12.071  1.5028  0.8986  2.1615
11925TIP3   OH257265   2.110   2.629   5.032  0.1993 -0.4487  0.2479
11925TIP3    H157266   2.204   2.628   5.015 -0.0479  0.6947 -1.4098
11925TIP3    H257267   2.099   2.571   5.108  1.9823 -2.2554 -0.7525
11926TIP3   OH257268   3.730   2.316  12.624  0.4112 -0.0619  0.9487
11926TIP3    H157269   3.781   2.240  12.595 -0.3715  0.0865 -0.9823
11926TIP3    H257270   3.765   2.337  12.710  0.3514 -2.8761  1.7615
11927TIP3   OH257271   4.056   1.925  15.879 -0.4508 -0.8084  0.3283
11927TIP3    H157272   4.086   1.916  15.969 -2.0929  0.5736  1.0815
11927TIP3    H257273   4.019   2.013  15.875 -2.5392 -1.6539 -1.0116
11928TIP3   OH257274   0.481   5.962  15.466  0.3976 -0.2988  0.5321
11928TIP3    H157275   0.421   5.967  15.541  0.3727  1.0567  0.4433
11928TIP3    H257276   0.438   5.902  15.405 -1.0312  0.8266  0.3676
11929TIP3   OH257277   1.996   2.786   4.851  0.2005  0.1710  0.4357
11929TIP3    H157278   2.062   2.775   4.782 -0.6276 -1.2756 -0.1784
11929TIP3    H257279   2.035   2.747   4.929 -0.0533 -1.0753 -0.0334
11930TIP3   OH257280   0.089   2.096   1.547 -0.0674  0.0093 -0.3243
11930TIP3    H157281   0.135   2.106   1.463 -0.8756  1.9234 -0.5842
11930TIP3    H257282   0.124   2.166   1.602 -0.9028 -0.0418  0.2879
11931TIP3   OH257283   5.046   5.497   3.039 -0.7756 -0.6786  0.1961
11931TIP3    H157284   5.113   5.548   2.994 -1.7861  0.3330 -0.2184
11931TIP3    H257285   4.967   5.511   2.988 -1.2442 -2.1097  0.4929
11932TIP3   OH257286   1.406   6.302  15.271 -0.9286  0.4389  0.0546
11932TIP3    H157287   1.462   6.370  15.234 -0.5633  0.4512  0.6210
11932TIP3    H257288   1.330   6.350  15.304  0.3378  0.9158  2.5239
11933TIP3   OH257289   1.141   1.298   0.674  0.6830 -0.5772 -0.3005
11933TIP3    H157290   1.202   1.371   0.668 -0.1902  0.2491  0.4788
11933TIP3    H257291   1.156   1.260   0.760  0.3101 -0.5534 -0.2214
11934TIP3   OH257292   6.302   6.049  12.382 -0.6224 -0.0396 -0.0668
11934TIP3    H157293   6.348   5.993  12.320  0.4949  0.2104  0.5132
11934TIP3    H257294   6.328   6.138  12.358 -1.3938  0.1566 -0.1965
11935TIP3   OH257295   0.887   1.481  10.754  0.4657  0.3979  0.2024
11935TIP3    H157296   0.811   1.434  10.790  1.1126  0.6610  2.0593
11935TIP3    H257297   0.871   1.573  10.777  0.6206  0.6817 -0.7831
11936TIP3   OH257298   6.657   5.038   0.270 -0.3731 -0.1854  0.2306
11936TIP3    H157299   6.691   5.125   0.291 -0.0286 -0.1946 -0.2953
11936TIP3    H257300   6.638   4.999   0.356 -2.0676  1.0133  0.4474
11937TIP3   OH257301   6.558   4.027   5.662  0.0798 -0.6055 -0.0625
11937TIP3    H157302   6.548   3.998   5.572  0.3974 -0.0369 -0.2817
11937TIP3    H257303   6.650   4.052   5.670  0.0910 -0.7813  0.4621
11938TIP3   OH257304   4.064   2.502  14.285 -0.3455 -0.3154  0.2710
11938TIP3    H157305   4.047   2.562  14.358 -2.8458 -1.6476  0.9092
11938TIP3    H257306   4.095   2.422  14.327  0.6904 -0.2688 -0.3797
11939TIP3   OH257307   0.567   2.208  15.481 -0.1483  0.4144 -0.0853
11939TIP3    H157308   0.626   2.203  15.557  1.9055 -0.9822 -1.6347
11939TIP3    H257309   0.626   2.206  15.405 -2.0153  3.3511 -1.7772
11940TIP3   OH257310   4.405   3.069  12.457 -0.1323 -0.3808 -0.5305
11940TIP3    H157311   4.411   3.154  12.414  1.2363 -0.6777 -0.9692
11940TIP3    H257312   4.363   3.087  12.540  1.3740  0.9731 -0.0099
11941TIP3   OH257313   4.082   5.660  16.621  0.8197  0.1242  0.1863
11941TIP3    H157314   4.148   5.617  16.676  0.6887 -0.2649  0.0370
11941TIP3    H257315   4.024   5.703  16.684  0.7277 -0.2371  0.3516
11942TIP3   OH257316   4.950   5.090   5.309 -0.4308  0.3950  1.0009
11942TIP3    H157317   5.019   5.067   5.370 -0.0098  0.8000  0.6760
11942TIP3    H257318   4.899   5.009   5.300 -0.2115  0.1957  1.5042
11943TIP3   OH257319   0.058   6.177  13.570 -0.2805  0.1529 -0.1129
11943TIP3    H157320   0.096   6.235  13.636 -0.5026 -1.1348  1.1999
11943TIP3    H257321   0.012   6.110  13.620 -0.5365 -0.8274 -1.5782
11944TIP3   OH257322   1.768   5.573  12.593  0.3157 -0.6249  0.2771
11944TIP3    H157323   1.853   5.616  12.596  1.3456 -2.5410 -0.1225
11944TIP3    H257324   1.734   5.592  12.506  0.6072 -0.3643  0.2187
11945TIP3   OH257325   2.675   4.809  10.950  0.0558  0.0534 -0.0331
11945TIP3    H157326   2.644   4.859  11.025 -0.4590  0.1061 -0.2811
11945TIP3    H257327   2.627   4.843  10.875 -0.4496 -0.9294 -0.1784
11946TIP3   OH257328   6.566   6.632   3.218  0.1899  0.4794  0.4698
11946TIP3    H157329   6.596   6.707   3.167 -2.7031  1.3921 -0.0917
11946TIP3    H257330   6.588   6.556   3.165  1.2106  1.0693  0.0124
11947TIP3   OH257331   4.737   4.586  12.555  0.3948 -0.1541  0.5285
11947TIP3    H157332   4.672   4.533  12.601  0.1286 -1.7195 -1.4782
11947TIP3    H257333   4.807   4.524  12.534  1.0510  0.7728 -0.0753
11948TIP3   OH257334   2.149   6.668   0.456 -0.4694  0.0667  0.5958
11948TIP3    H157335   2.164   6.598   0.520  1.4298  0.9396  1.1798
11948TIP3    H257336   2.193   6.637   0.376 -1.2181 -0.1876  0.2685
11949TIP3   OH257337   1.376   4.979   5.495  0.2519  0.1137 -0.1558
11949TIP3    H157338   1.400   4.973   5.587  3.2314  0.3953 -0.8275
11949TIP3    H257339   1.299   5.037   5.493 -0.5627 -0.7816  2.1875
11950TIP3   OH257340   0.486   2.628   2.777  0.2925  0.0331  0.2588
11950TIP3    H157341   0.481   2.684   2.854  2.1814  0.1237  0.3599
11950TIP3    H257342   0.503   2.540   2.812 -0.0474 -0.1402 -0.0085
11951TIP3   OH257343   3.318   0.295  11.450  0.2955 -0.3086  0.1727
11951TIP3    H157344   3.357   0.208  11.438  2.6095  0.7199 -0.4768
11951TIP3    H257345   3.266   0.309  11.371  1.2330 -0.5008 -0.5047
11952TIP3   OH257346   5.780   5.556  14.455 -0.2475  0.6542  0.0708
11952TIP3    H157347   5.714   5.616  14.420  0.2250  0.5067 -1.1202
11952TIP3    H257348   5.743   5.525  14.538 -1.8712  0.2439 -0.7702
11953TIP3   OH257349   0.902   1.350  12.192  0.1197 -0.2788 -0.2065
11953TIP3    H157350   0.909   1.444  12.175 -1.3182 -0.5946 -3.1589
11953TIP3    H257351   0.966   1.311  12.132  1.0950 -1.2088  1.3896
11954TIP3   OH257352   5.370   5.998   0.959 -0.4364  0.5370  0.0296
11954TIP3    H157353   5.412   6.050   0.890 -1.6532  0.1443 -1.0589
11954TIP3    H257354   5.381   5.907   0.931 -0.8700  0.3680  0.3863
11955TIP3   OH257355   2.076   5.104   0.046  0.3287 -0.0069  0.3575
11955TIP3    H157356   2.004   5.156   0.011  0.8267 -0.7269 -1.9043
11955TIP3    H257357   2.056   5.095   0.139 -1.1657  1.9063  0.2837
11956TIP3   OH257358   6.298   2.194  16.194  0.1705  0.5169 -0.5500
11956TIP3    H157359   6.285   2.282  16.228 -0.8916 -0.2766  1.2451
11956TIP3    H257360   6.217   2.148  16.214  0.6259 -0.8363 -1.6395
11957TIP3   OH257361   4.403   4.863   4.671  0.3679  0.3315 -0.4943
11957TIP3    H157362   4.448   4.823   4.746  0.4253 -0.3249 -0.8757
11957TIP3    H257363   4.310   4.863   4.695  0.5043  1.2561  0.0927
11958TIP3   OH257364   1.682   3.212   3.898 -0.4204 -0.4100 -0.3190
11958TIP3    H157365   1.774   3.191   3.881 -0.4615 -0.5361 -0.3834
11958TIP3    H257366   1.680   3.307   3.906  0.1955 -0.5334  2.3596
11959TIP3   OH257367   1.914   4.347  13.367  0.6664 -0.1695  0.1666
11959TIP3    H157368   1.984   4.331  13.305 -0.4737  2.4944 -2.0089
11959TIP3    H257369   1.852   4.275  13.352  1.4674 -0.8186 -0.1024
11960TIP3   OH257370   6.160   3.716   3.500  0.1717  0.4050 -0.2607
11960TIP3    H157371   6.212   3.793   3.479 -0.1079  0.2174 -1.7431
11960TIP3    H257372   6.117   3.738   3.583  1.5236  1.0903  0.2920
11961TIP3   OH257373   1.987   1.116  16.352 -0.4848  0.1736  0.3126
11961TIP3    H157374   1.901   1.108  16.312 -0.1413 -1.1317 -0.2224
11961TIP3    H257375   2.048   1.090  16.283  0.5132  2.7545  0.0876
11962TIP3   OH257376   3.500   2.705  12.802  0.4247 -0.0423 -0.4719
11962TIP3    H157377   3.595   2.716  12.792  0.0265  1.5490 -3.5001
11962TIP3    H257378   3.479   2.630  12.746 -0.2679  0.6258 -1.1285
11963TIP3   OH257379   3.052   2.664   0.156  0.2067  0.2996  0.1467
11963TIP3    H157380   3.077   2.666   0.064  0.0292  0.4087  0.1013
11963TIP3    H257381   2.979   2.725   0.163  0.2823  0.3681  0.3780
11964TIP3   OH257382   2.285   2.239   2.251  0.3949 -0.5434 -0.0265
11964TIP3    H157383   2.301   2.219   2.343  0.7194 -0.4845 -0.0710
11964TIP3    H257384   2.339   2.177   2.203  0.2662 -0.5385 -0.1787
11965TIP3   OH257385   2.120   5.516  15.065  0.4469 -0.0740 -0.3479
11965TIP3    H157386   2.108   5.422  15.054  0.6335 -0.0644 -0.6298
11965TIP3    H257387   2.189   5.523  15.131  0.9766 -0.1402 -0.8876
11966TIP3   OH257388   2.086   4.040   3.048  0.4605  0.6345  0.4030
11966TIP3    H157389   2.172   4.057   3.088  0.3000  0.6340  0.7469
11966TIP3    H257390   2.086   4.095   2.969  0.7157  0.7501  0.4802
11967TIP3   OH257391   2.547   4.484  14.056  0.1368  0.1943 -0.4846
11967TIP3    H157392   2.540   4.506  13.964  0.5312 -1.6066 -0.9867
11967TIP3    H257393   2.528   4.390  14.060 -4.5482  0.9115  1.8543
11968TIP3   OH257394   3.941   1.290  14.871 -0.0022 -0.4589 -0.0424
11968TIP3    H157395   3.938   1.350  14.796  2.3028  0.6363  0.6281
11968TIP3    H257396   4.021   1.238  14.856 -0.1687 -1.0522  1.0513
11969TIP3   OH257397   5.759   3.207  13.921  0.6469  0.2991  0.6356
11969TIP3    H157398   5.807   3.285  13.891  0.6457  0.0614 -0.0049
11969TIP3    H257399   5.826   3.147  13.952  0.6402  0.5933  1.2374
11970TIP3   OH257400   6.403   4.683   3.430  0.2401 -0.3998 -0.0757
11970TIP3    H157401   6.472   4.741   3.463 -0.4990  0.2019  0.4414
11970TIP3    H257402   6.418   4.680   3.335  0.2972  0.6467 -0.1098
11971TIP3   OH257403   3.116   2.779   1.392 -0.8206 -0.2045  0.4787
11971TIP3    H157404   3.065   2.711   1.435 -2.8560  1.5890  1.0765
11971TIP3    H257405   3.093   2.770   1.299 -1.8369  0.2208  0.6713
11972TIP3   OH257406   0.729   5.297  13.964 -0.6700  0.0847 -0.3476
11972TIP3    H157407   0.687   5.381  13.985  1.3034  1.3045 -0.9568
11972TIP3    H257408   0.712   5.242  14.040 -1.0729  1.4389  0.5805
11973TIP3   OH257409   1.843   4.554  12.705  0.2682 -0.2537  0.9840
11973TIP3    H157410   1.773   4.493  12.680  1.6511 -0.9475 -1.5056
11973TIP3    H257411   1.888   4.510  12.777 -0.6099 -0.7216  1.2749
11974TIP3   OH257412   2.233   2.716   2.968  0.3409  0.1968 -0.5051
11974TIP3    H157413   2.191   2.656   2.907  0.6202 -0.5695  0.0410
11974TIP3    H257414   2.237   2.799   2.921 -5.1820  1.4743  0.6067
11975TIP3   OH257415   5.079   3.368  16.682 -0.0539 -0.6179 -0.0659
11975TIP3    H157416   5.083   3.390  16.775  0.9253 -1.2043  0.0437
11975TIP3    H257417   5.120   3.281  16.676 -0.4399 -0.7462 -0.9914
11976TIP3   OH257418   6.646   5.835  16.624  0.2974  0.0765 -0.0697
11976TIP3    H157419   6.593   5.873  16.553 -0.4541  0.3457  0.6204
11976TIP3    H257420   6.619   5.882  16.702  0.8647 -0.4632  0.4636
11977TIP3   OH257421   0.442   5.440  11.938 -0.8232 -0.1509  0.2286
11977TIP3    H157422   0.350   5.464  11.949 -0.9288 -0.6659  0.5016
11977TIP3    H257423   0.449   5.353  11.976 -0.0993  0.1088  0.7154
11978TIP3   OH257424   6.373   3.067  11.835 -0.6691 -0.2221 -0.5280
11978TIP3    H157425   6.356   2.973  11.845 -0.9540 -0.0641  0.6216
11978TIP3    H257426   6.426   3.090  11.911 -0.2358  0.4699 -1.0300
11979TIP3   OH257427   5.981   5.581   1.803 -0.1404  0.1445 -0.1988
11979TIP3    H157428   6.033   5.652   1.766 -0.9114  0.8233 -0.0129
11979TIP3    H257429   5.898   5.585   1.756 -1.0537  0.8713  1.3827
11980TIP3   OH257430   5.171   0.326   0.581  0.8032  0.6682  0.2557
11980TIP3    H157431   5.153   0.339   0.488  0.2577  0.3828  0.3151
11980TIP3    H257432   5.110   0.257   0.607  2.9621 -1.4143  0.1367
11981TIP3   OH257433   2.815   0.239   0.676 -0.4557 -0.5171  0.2618
11981TIP3    H157434   2.897   0.192   0.691 -0.5897 -0.4912  1.1471
11981TIP3    H257435   2.769   0.186   0.611 -0.5482 -1.5769  1.1553
11982TIP3   OH257436   1.211   1.399   6.253  0.5905 -0.0818 -0.0352
11982TIP3    H157437   1.175   1.461   6.317 -0.5020 -1.1841  0.4706
11982TIP3    H257438   1.275   1.449   6.204 -0.4980  1.5322  0.1361
11983TIP3   OH257439   2.509   6.656  14.028 -0.3327  0.0715 -0.0906
11983TIP3    H157440   2.427   6.693  13.995 -0.2782 -0.1412 -0.4722
11983TIP3    H257441   2.523   6.700  14.112 -0.2414  0.9458 -0.5529
11984TIP3   OH257442   5.219   5.160   1.036 -0.7317 -0.7543 -0.3523
11984TIP3    H157443   5.158   5.101   1.079 -1.0208  0.3482  0.8355
11984TIP3    H257444   5.271   5.197   1.108 -0.2976  0.1106 -1.0882
11985TIP3   OH257445   2.518   4.753  16.227 -0.1765 -0.3303  0.0273
11985TIP3    H157446   2.563   4.831  16.261 -0.0673 -0.2235 -0.3551
11985TIP3    H257447   2.558   4.739  16.141  2.0675 -2.6522  1.3032
11986TIP3   OH257448   1.459   6.593   2.820  0.3814  0.7020  0.4261
11986TIP3    H157449   1.370   6.583   2.853  1.0427  0.7483  2.3832
11986TIP3    H257450   1.462   6.540   2.741 -0.9418 -0.6241  1.2229
11987TIP3   OH257451   6.044   0.026  13.576  0.1879  0.3156 -0.4491
11987TIP3    H157452   6.079   0.111  13.603  1.7550 -0.5337  0.3749
11987TIP3    H257453   5.958   0.021  13.618  0.1478  1.4219 -0.3669
11988TIP3   OH257454   0.146   6.135  14.521  0.6296  0.5731  0.1507
11988TIP3    H157455   0.164   6.074  14.593  1.1786  0.5263 -0.0200
11988TIP3    H257456   0.232   6.171  14.499  0.3638  1.0967 -0.0299
11989TIP3   OH257457   0.623   0.660   2.801 -0.0322  0.0541  0.0347
11989TIP3    H157458   0.661   0.740   2.839  0.2298  0.2521 -0.6286
11989TIP3    H257459   0.699   0.603   2.786 -0.2173 -0.3173  0.4860
11990TIP3   OH257460   5.815   4.932   2.468  0.4057  0.4273  0.2144
11990TIP3    H157461   5.891   4.918   2.411 -0.2594  1.2379 -0.9222
11990TIP3    H257462   5.790   5.023   2.451 -1.3231 -0.0689 -0.0691
11991TIP3   OH257463   5.265   3.838   3.998 -0.2057  0.1954  0.0418
11991TIP3    H157464   5.314   3.876   3.924 -0.9164 -0.9730 -1.0713
11991TIP3    H257465   5.331   3.817   4.063  0.3479  2.1027  0.1511
11992TIP3   OH257466   3.506   3.631   5.913 -0.6803  0.1723 -0.7574
11992TIP3    H157467   3.460   3.708   5.879  0.4233  0.5910 -1.3289
11992TIP3    H257468   3.599   3.649   5.898 -0.3373 -0.8222  0.0454
11993TIP3   OH257469   5.796   0.243   1.309 -0.3301  0.0926  0.6628
11993TIP3    H157470   5.768   0.209   1.394 -1.8717  2.1624  1.0718
11993TIP3    H257471   5.779   0.337   1.315 -1.5599  0.1513 -2.3269
11994TIP3   OH257472   0.608   0.478  13.962  0.0783 -0.4056 -0.4977
11994TIP3    H157473   0.640   0.503  14.049 -1.8639  1.2049 -0.1475
11994TIP3    H257474   0.686   0.460  13.911  1.5209  2.3697  0.5200
11995TIP3   OH257475   0.207   4.017  15.013  0.0190 -0.6087  0.6174
11995TIP3    H157476   0.216   4.003  14.919 -0.4614 -3.4365  0.9182
11995TIP3    H257477   0.272   3.959  15.053  0.0207  0.3241  2.0550
11996TIP3   OH257478   4.140   6.469   4.875 -0.3806  0.1854  0.1967
11996TIP3    H157479   4.057   6.454   4.829 -0.1270  2.2901 -1.0914
11996TIP3    H257480   4.174   6.381   4.893 -1.2881 -0.7451 -2.2270
11997TIP3   OH257481   0.459   4.162   4.663  0.6921  0.2183  0.1549
11997TIP3    H157482   0.513   4.230   4.703  0.7205 -0.3999  1.2065
11997TIP3    H257483   0.464   4.088   4.724 -1.5047  0.2105  0.4190
11998TIP3   OH257484   1.468   0.019   2.830  0.4247  0.0032  0.5988
11998TIP3    H157485   1.462  -0.076   2.824 -0.7390 -0.0942  2.5901
11998TIP3    H257486   1.546   0.035   2.883  2.4167  0.3389 -2.2216
11999TIP3   OH257487   6.501   0.072   2.757 -0.1149 -0.5251 -0.0023
11999TIP3    H157488   6.424   0.041   2.805 -0.3165  2.3965  1.7712
11999TIP3    H257489   6.465   0.121   2.683 -0.0318  1.2825  1.1180
12000TIP3   OH257490   4.787   2.718  14.762  0.3806 -0.4384  0.1491
12000TIP3    H157491   4.757   2.782  14.826 -0.6830 -0.4374 -0.3207
12000TIP3    H257492   4.834   2.652  14.813  4.2909  2.1874  0.3479
12001TIP3   OH257493   4.324   5.474  15.541 -0.2290 -0.5567 -0.0012
12001TIP3    H157494   4.394   5.531  15.507 -0.1003 -1.1601 -0.7785
12001TIP3    H257495   4.333   5.480  15.636 -0.5504  1.1191 -0.0484
12002TIP3   OH257496   0.592   5.961  12.779 -0.2475 -0.2015 -0.0476
12002TIP3    H157497   0.608   6.041  12.728  1.7727 -1.0843 -0.9397
12002TIP3    H257498   0.641   5.975  12.860 -0.4185 -0.2789  0.0685
12003TIP3   OH257499   4.064   4.083   3.160  0.1670  0.1308  0.4718
12003TIP3    H157500   4.090   3.996   3.130 -1.1487 -0.3624  0.7156
12003TIP3    H257501   3.973   4.074   3.186  0.3233  1.3218  1.5656
12004TIP3   OH257502   2.131   3.613   5.562 -0.3867 -0.2003 -0.1188
12004TIP3    H157503   2.221   3.582   5.552 -0.5752 -0.6040 -0.6057
12004TIP3    H257504   2.128   3.649   5.651  1.0325  2.4171 -1.0273
12005TIP3   OH257505   1.726   3.428   3.235  0.0106  0.1220 -0.4909
12005TIP3    H157506   1.789   3.467   3.175 -0.6416  0.5103 -0.9434
12005TIP3    H257507   1.728   3.335   3.215  0.7866  0.0642 -0.1632
12006TIP3   OH257508   1.051   3.195  11.646  1.0659  0.1963  0.2415
12006TIP3    H157509   1.074   3.271  11.699  1.9017 -0.8526  1.4518
12006TIP3    H257510   1.036   3.230  11.558 -2.2212  2.2814  1.4574
12007TIP3   OH257511   6.259   1.178  13.172  0.6234 -0.7163 -0.0118
12007TIP3    H157512   6.347   1.216  13.175  1.1984 -2.0341  0.2791
12007TIP3    H257513   6.265   1.107  13.108  0.1584 -1.7001  1.0000
12008TIP3   OH257514   2.061   0.648   2.987  0.5435  0.2124  0.4748
12008TIP3    H157515   1.995   0.589   3.024  1.3416 -1.3874 -0.5176
12008TIP3    H257516   2.051   0.729   3.037 -0.6718 -0.7188  1.8548
12009TIP3   OH257517   3.981   6.210   3.875 -0.1123  0.3311  0.7233
12009TIP3    H157518   4.023   6.249   3.799  0.3905 -1.7434 -0.1360
12009TIP3    H257519   4.052   6.163   3.920 -1.1070 -1.7773  0.2164
12010TIP3   OH257520   0.793   2.743   4.702 -0.4276  0.7021 -1.1747
12010TIP3    H157521   0.830   2.820   4.745  1.3135 -0.6610 -0.0476
12010TIP3    H257522   0.862   2.677   4.709 -2.4512 -1.4902 -0.5448
12011TIP3   OH257523   6.003   1.804   5.129  0.0330 -0.1386  0.0004
12011TIP3    H157524   5.977   1.719   5.166  1.2284 -0.2888  0.5555
12011TIP3    H257525   6.025   1.785   5.038  1.1408 -0.6132  0.3538
12012TIP3   OH257526   3.797   6.589  16.320 -0.4142 -0.5447  0.1228
12012TIP3    H157527   3.884   6.579  16.359 -0.4289 -0.1201  0.2718
12012TIP3    H257528   3.776   6.682  16.333 -0.5865 -0.4860 -0.5467
12013TIP3   OH257529   5.944   6.039  11.671 -1.0307 -0.0092 -0.9944
12013TIP3    H157530   5.972   6.063  11.759  0.3445  2.2558 -1.9451
12013TIP3    H257531   6.009   5.975  11.641 -0.9054 -0.0103 -0.7220
12014TIP3   OH257532   0.324   0.074  16.347 -0.0899  0.5492  0.3184
12014TIP3    H157533   0.345   0.154  16.395  1.6286  0.9279 -0.9429
12014TIP3    H257534   0.408   0.028  16.340 -1.1199 -1.6404  1.4073
12015TIP3   OH257535   5.753   1.947  16.065 -0.5421  0.2532 -0.3171
12015TIP3    H157536   5.722   1.985  15.983 -0.4677 -2.0044 -1.4702
12015TIP3    H257537   5.728   1.855  16.059 -0.1611 -0.0528  2.0368
12016TIP3   OH257538   4.825   6.650   2.372  0.1011 -0.2191  0.4177
12016TIP3    H157539   4.821   6.745   2.364  0.7338 -0.3321 -2.5068
12016TIP3    H257540   4.753   6.627   2.430 -0.2484  2.0013  0.9514
12017TIP3   OH257541   6.639   6.093   1.137 -0.6601  0.1194  0.2836
12017TIP3    H157542   6.585   6.022   1.103  0.5132 -0.5271 -0.2727
12017TIP3    H257543   6.642   6.078   1.232 -1.0260 -0.1335  0.2574
12018TIP3   OH257544   5.369   4.470  11.343 -0.3680 -0.6912 -0.1650
12018TIP3    H157545   5.444   4.526  11.321 -1.1786  0.5362  0.0813
12018TIP3    H257546   5.395   4.425  11.423  0.4175 -0.9195 -0.5354
12019TIP3   OH257547   0.330   5.675  11.689 -0.7522 -0.0910  0.3777
12019TIP3    H157548   0.311   5.584  11.710  0.6415 -0.7074 -0.9148
12019TIP3    H257549   0.426   5.681  11.691 -0.8083  1.2713  0.1187
12020TIP3   OH257550   1.324   3.957   2.395  0.1928 -0.4783  0.0880
12020TIP3    H157551   1.268   4.028   2.424  0.7063 -0.2439  0.5294
12020TIP3    H257552   1.413   3.987   2.416  0.2934 -2.4244  3.0054
12021TIP3   OH257553   5.029   1.554   5.537 -0.5732  0.2218  0.2818
12021TIP3    H157554   4.987   1.469   5.527 -0.3204  0.3483 -2.5125
12021TIP3    H257555   5.096   1.539   5.603 -2.2646 -1.0071  1.8369
12022TIP3   OH257556   3.521   3.129   1.033  0.5244  0.1588  0.3420
12022TIP3    H157557   3.610   3.095   1.043  0.5631  0.4802  1.2233
12022TIP3    H257558   3.468   3.053   1.011  1.4836  0.3952 -3.4551
12023TIP3   OH257559   0.483   2.233   4.546 -0.4505  0.4172 -0.1265
12023TIP3    H157560   0.565   2.282   4.552  0.4944 -1.0898 -0.2321
12023TIP3    H257561   0.483   2.177   4.623 -1.7257  0.8593  0.2229
12024TIP3   OH257562   5.417   6.039  14.721 -0.3083  0.2455 -0.0950
12024TIP3    H157563   5.499   6.088  14.719  0.4983 -1.0241  0.4612
12024TIP3    H257564   5.437   5.961  14.773 -1.6047 -0.5651 -0.7577
12025TIP3   OH257565   2.598   0.534   5.985 -0.3005  0.2216 -0.3872
12025TIP3    H157566   2.688   0.504   5.986 -0.2377  0.4027  0.2451
12025TIP3    H257567   2.595   0.604   6.051 -0.9917 -0.0710 -0.0977
12026TIP3   OH257568   0.250   1.692   3.322 -0.1830 -0.2695  0.3056
12026TIP3    H157569   0.161   1.727   3.328  0.1809  1.5053 -2.4678
12026TIP3    H257570   0.296   1.730   3.397 -1.7142 -1.1544  1.7281
12027TIP3   OH257571   5.654   0.752   0.019  0.2316  0.2451  0.0297
12027TIP3    H157572   5.673   0.814  -0.051 -1.1786  0.3582 -0.2721
12027TIP3    H257573   5.727   0.762   0.081  0.6673  1.2819 -0.6332
12028TIP3   OH257574   4.613   3.393   5.057 -0.1033  0.0417 -0.2499
12028TIP3    H157575   4.610   3.349   5.142  0.3562 -1.3747 -0.9330
12028TIP3    H257576   4.539   3.356   5.009 -0.7124  1.2660 -0.2957
12029TIP3   OH257577   1.993   5.240   6.659 -0.6464  0.3226  0.7139
12029TIP3    H157578   1.995   5.156   6.706 -0.0187  0.9115  1.7601
12029TIP3    H257579   2.005   5.216   6.567 -0.1990 -0.7162  1.0321
12030TIP3   OH257580   6.135   4.893   4.200  0.1538 -0.3830 -0.3450
12030TIP3    H157581   6.128   4.806   4.240  1.5542 -1.0253 -1.4284
12030TIP3    H257582   6.048   4.932   4.213  0.0928 -1.1232  1.9613
12031TIP3   OH257583   1.255   1.812   3.726 -0.1793  0.0402 -0.5558
12031TIP3    H157584   1.198   1.738   3.745  0.0979 -0.0214  0.0463
12031TIP3    H257585   1.281   1.799   3.635 -1.1060  0.0623 -0.8359
12032TIP3   OH257586   4.403   1.721  13.364 -0.3281 -0.5336  0.9003
12032TIP3    H157587   4.392   1.813  13.339 -1.1574 -0.6013  0.9860
12032TIP3    H257588   4.497   1.712  13.380 -0.2498  0.3303  1.0078
12033TIP3   OH257589   4.686   5.385  12.839  0.2003 -0.2468 -0.1286
12033TIP3    H157590   4.610   5.385  12.780 -0.2199 -0.2703  0.4006
12033TIP3    H257591   4.661   5.324  12.909  0.2922  0.4983  0.5703
12034TIP3   OH257592   4.921   6.800   0.285 -0.5135 -0.3808  0.1734
12034TIP3    H157593   4.895   6.889   0.310 -2.4881 -0.9728  0.3518
12034TIP3    H257594   4.907   6.749   0.365  1.6857 -0.7010  0.4206
12035TIP3   OH257595   3.658   1.775   4.388 -0.1312  0.7756 -0.3136
12035TIP3    H157596   3.749   1.745   4.393 -0.6257 -1.3303 -2.1958
12035TIP3    H257597   3.632   1.788   4.479  2.1933  2.0048  0.2521
12036TIP3   OH257598   6.103   6.040  10.941  0.0923 -0.1502 -0.5337
12036TIP3    H157599   6.016   6.000  10.943 -0.0980  0.2907  1.5005
12036TIP3    H257600   6.163   5.966  10.931 -0.4953 -0.4106 -2.6271
12037TIP3   OH257601   4.744   3.154   4.867 -0.3378  0.4227  0.0312
12037TIP3    H157602   4.788   3.191   4.943 -0.0891 -1.4822  0.8693
12037TIP3    H257603   4.792   3.073   4.848 -1.0955  0.2800 -1.4456
12038TIP3   OH257604   4.106   5.609  16.892  0.6424 -0.1168  0.1607
12038TIP3    H157605   4.039   5.672  16.919 -1.8169 -0.9670 -3.2149
12038TIP3    H257606   4.180   5.627  16.949 -0.9524  3.7833  1.3684
12039TIP3   OH257607   5.811   2.727  15.832  0.2399 -0.1997 -0.2772
12039TIP3    H157608   5.846   2.816  15.833 -0.0427 -0.0392  2.2044
12039TIP3    H257609   5.827   2.694  15.921 -4.0297 -0.8120  0.5028
12040TIP3   OH257610   1.989   3.433   5.375  0.2413  0.4629  0.2142
12040TIP3    H157611   1.961   3.349   5.411 -1.2943  0.7936 -0.1245
12040TIP3    H257612   2.012   3.486   5.452 -3.1082  1.2020  0.8809
12041TIP3   OH257613   1.525   5.760  14.901  0.4251  0.2551  0.0105
12041TIP3    H157614   1.489   5.848  14.897  2.2088  1.0000 -0.6945
12041TIP3    H257615   1.618   5.771  14.882  0.5979 -1.8422 -0.6411
12042TIP3   OH257616   3.611   6.411   2.329 -0.0490  0.5022  0.4733
12042TIP3    H157617   3.595   6.491   2.381 -1.4050  1.3968 -1.1842
12042TIP3    H257618   3.699   6.422   2.294  0.2486  0.6702  1.2576
12043TIP3   OH257619   1.971   4.912   4.215 -0.1697 -0.2560  0.3300
12043TIP3    H157620   2.032   4.893   4.287  0.9927  1.8179 -0.0316
12043TIP3    H257621   2.003   4.859   4.142  0.7942  0.2582  0.3598
12044TIP3   OH257622   3.807   6.132  11.533  0.0290  0.5783  0.6572
12044TIP3    H157623   3.798   6.040  11.510  0.9095 -0.2091  3.1308
12044TIP3    H257624   3.833   6.175  11.451 -1.7190 -1.0830 -0.8603
12045TIP3   OH257625   0.370   0.552   5.510 -0.0913  0.1068 -0.1286
12045TIP3    H157626   0.332   0.616   5.570  2.1422  0.8928  0.5322
12045TIP3    H257627   0.408   0.485   5.567  0.6005  0.0030 -0.6965
12046TIP3   OH257628   0.842   4.372   4.286 -0.2652 -0.1071 -0.1841
12046TIP3    H157629   0.928   4.332   4.279  0.1669  0.8830 -0.7017
12046TIP3    H257630   0.803   4.332   4.364  1.0109  0.0929  0.5722
12047TIP3   OH257631   0.541   6.776  16.231 -0.2000 -0.1230 -0.3693
12047TIP3    H157632   0.577   6.739  16.150  1.2572  1.9156 -0.7313
12047TIP3    H257633   0.526   6.700  16.287  3.8916 -1.3334 -0.5563
12048TIP3   OH257634   3.630   5.111  15.443  0.7174 -0.3405  0.4061
12048TIP3    H157635   3.698   5.043  15.448  0.6086 -0.4591  0.2757
12048TIP3    H257636   3.672   5.183  15.397 -0.0870 -1.4448 -2.2210
12049TIP3   OH257637   3.508   0.999   0.848  0.1544 -0.2348 -0.1301
12049TIP3    H157638   3.458   0.941   0.906 -0.2297 -0.0467 -0.2691
12049TIP3    H257639   3.442   1.055   0.808  0.3091 -1.0105 -1.5012
12050TIP3   OH257640   6.319   4.155  10.522  0.2926  0.8738 -0.2719
12050TIP3    H157641   6.319   4.086  10.456  0.7307 -0.7304  1.3339
12050TIP3    H257642   6.235   4.199  10.510 -0.0508  0.0036 -1.2669
12051TIP3   OH257643   2.541   1.999   1.685 -0.3460 -0.3675 -0.0148
12051TIP3    H157644   2.636   2.009   1.694 -0.3348  1.3538 -1.5516
12051TIP3    H257645   2.505   2.068   1.741 -0.6926 -0.6939  0.1665
12052TIP3   OH257646   5.699   3.479   2.506  0.1029 -0.2417  0.4974
12052TIP3    H157647   5.791   3.494   2.528  0.6143  0.7829 -2.0009
12052TIP3    H257648   5.687   3.524   2.423 -3.2982  1.6092  1.8111
12053TIP3   OH257649   5.315   2.573  16.635  0.0790  0.2458  0.2195
12053TIP3    H157650   5.353   2.636  16.696  0.0284  1.3405 -0.8273
12053TIP3    H257651   5.292   2.498  16.688  2.3223  0.1376  1.1465
12054TIP3   OH257652   3.178   3.485  14.244  0.6910 -0.1660 -0.2012
12054TIP3    H157653   3.229   3.409  14.273  0.5810 -0.1531  0.0257
12054TIP3    H257654   3.088   3.466  14.271  0.7366  0.2422  0.2470
12055TIP3   OH257655   6.432   0.248   2.537  0.2090 -0.5111 -0.4856
12055TIP3    H157656   6.472   0.331   2.565  2.0576 -1.3103 -0.6336
12055TIP3    H257657   6.391   0.269   2.453 -1.9466  0.9307  0.8326
12056TIP3   OH257658   3.859   4.663   6.397  0.4947  0.2069 -0.1177
12056TIP3    H157659   3.852   4.691   6.488  0.0724  1.3063 -0.4656
12056TIP3    H257660   3.771   4.632   6.375  0.8255 -0.9318  0.1043
12057TIP3   OH257661   0.222   6.179   5.858 -0.0165  0.3664 -0.1307
12057TIP3    H157662   0.228   6.097   5.908 -1.2372  0.2585 -0.1126
12057TIP3    H257663   0.199   6.245   5.924 -3.8040 -0.1450 -0.7139
12058TIP3   OH257664   2.601   4.045  15.361 -0.2678  0.0942  0.3311
12058TIP3    H157665   2.637   4.055  15.449 -1.8649 -1.3614  1.2188
12058TIP3    H257666   2.619   3.953  15.338 -2.3536 -0.3799  0.3753
12059TIP3   OH257667   1.164   6.670  15.050 -0.0001 -0.1729 -0.0836
12059TIP3    H157668   1.145   6.711  14.966 -0.4787  1.2718  0.6924
12059TIP3    H257669   1.167   6.576  15.031 -1.0074  0.0603 -1.5418
12060TIP3   OH257670   1.034   6.017  10.901  0.0132  0.3312  0.1051
12060TIP3    H157671   1.079   6.053  10.978  2.3321  1.2284 -1.5785
12060TIP3    H257672   0.980   6.090  10.869  0.1951  0.4291  0.0236
12061TIP3   OH257673   1.066   1.460  16.618 -0.2965 -0.4770 -0.7661
12061TIP3    H157674   1.012   1.538  16.630 -0.0989 -0.5281  0.6777
12061TIP3    H257675   1.015   1.404  16.560 -1.1193  0.1057 -0.6179
12062TIP3   OH257676   3.286   5.145  12.952 -0.7694  0.3005  0.2054
12062TIP3    H157677   3.260   5.076  12.891  1.6234 -0.0765 -0.5113
12062TIP3    H257678   3.272   5.107  13.039 -0.8218 -0.5460 -0.1646
12063TIP3   OH257679   5.004   3.261  11.500  0.1198 -0.3258 -0.9411
12063TIP3    H157680   5.019   3.179  11.547 -2.5437 -0.3744  0.0060
12063TIP3    H257681   4.990   3.234  11.409 -0.2618 -0.9025 -0.7195
12064TIP3   OH257682   0.350   0.011   4.647  0.0532  0.2707  0.3884
12064TIP3    H157683   0.261  -0.023   4.646  0.0086  0.3994 -0.1533
12064TIP3    H257684   0.399  -0.052   4.701 -0.0420 -0.6237 -0.5258
12065TIP3   OH257685   4.688   2.049   5.256  0.2982 -0.0442  0.6016
12065TIP3    H157686   4.594   2.047   5.275  0.3474 -0.2048  0.8292
12065TIP3    H257687   4.725   1.980   5.311  0.5869  0.1999  0.7152
12066TIP3   OH257688   6.681   4.841   1.004  0.3470 -0.3814  0.0785
12066TIP3    H157689   6.600   4.889   0.984 -1.2012 -2.7631  0.2067
12066TIP3    H257690   6.723   4.827   0.919  0.5688  0.7274 -0.0063
12067TIP3   OH257691   0.137   6.292   5.083  0.5540 -0.1959 -0.0886
12067TIP3    H157692   0.227   6.263   5.094  0.2970 -0.9566  0.1459
12067TIP3    H257693   0.092   6.258   5.161  0.2155  0.8220  0.1754
12068TIP3   OH257694   0.505   0.665  16.934  0.3863  0.1148  0.5933
12068TIP3    H157695   0.577   0.650  16.995  0.2004  0.5507  0.9228
12068TIP3    H257696   0.431   0.690  16.989  0.2104  0.4871  0.1949
12069TIP3   OH257697   1.172   3.430  13.655 -0.3109 -0.5613  0.2368
12069TIP3    H157698   1.187   3.455  13.746  1.5054  0.9611 -0.4134
12069TIP3    H257699   1.258   3.405  13.622 -0.5609  0.6759 -1.5262
12070TIP3   OH257700   1.321   0.455  16.233 -0.2256  0.1338 -0.2467
12070TIP3    H157701   1.343   0.505  16.155  0.3820 -2.2097 -1.6922
12070TIP3    H257702   1.406   0.434  16.273 -0.4009 -0.5073 -0.1982
12071TIP3   OH257703   5.158   0.903   5.508  0.3764  0.2564 -0.7138
12071TIP3    H157704   5.252   0.921   5.504  0.2653  1.3967  0.6491
12071TIP3    H257705   5.117   0.990   5.501 -0.4749  0.0007  0.6988
12072TIP3   OH257706   1.012   5.298  11.364 -0.3196 -0.0394 -0.8324
12072TIP3    H157707   0.947   5.360  11.330 -1.2064 -1.8080 -2.5676
12072TIP3    H257708   1.082   5.298  11.299  0.4800  0.3149 -0.0008
12073TIP3   OH257709   4.928   3.983  11.582  0.2337 -0.2560  0.0604
12073TIP3    H157710   4.867   3.969  11.654  1.1522  2.8503  1.6290
12073TIP3    H257711   4.872   3.984  11.504 -1.6090  1.0926  1.2792
12074TIP3   OH257712   3.701   2.881   3.142 -0.1450 -0.4700 -0.7418
12074TIP3    H157713   3.630   2.836   3.187  0.8975 -1.6864 -0.2131
12074TIP3    H257714   3.668   2.969   3.125 -0.0903  0.7110  3.9134
12075TIP3   OH257715   0.703   2.413   4.578  0.0855  0.4253  0.2520
12075TIP3    H157716   0.745   2.369   4.652  0.2732  2.4204  1.4100
12075TIP3    H257717   0.631   2.461   4.617 -0.2451  0.9775 -0.9928
12076TIP3   OH257718   2.215   4.853  17.095 -0.0877 -0.2527 -0.5395
12076TIP3    H157719   2.185   4.940  17.067 -0.7567 -0.2790  0.0877
12076TIP3    H257720   2.254   4.869  17.181  1.3680 -0.2859 -1.1565
12077TIP3   OH257721   2.411   4.678   2.578 -0.3289 -0.4164  0.0366
12077TIP3    H157722   2.497   4.686   2.536 -0.6875  0.5323 -0.5492
12077TIP3    H257723   2.354   4.736   2.527 -0.6126  1.4577  2.2764
12078TIP3   OH257724   3.907   2.480   4.478 -0.3177  0.1327  0.1298
12078TIP3    H157725   3.969   2.553   4.474  0.5449 -0.5269  0.9192
12078TIP3    H257726   3.916   2.446   4.567 -0.8009 -0.8481 -0.1823
12079TIP3   OH257727   0.028   3.321   3.673  0.2418 -0.1477  0.7516
12079TIP3    H157728   0.043   3.385   3.604 -1.3945 -0.9745 -0.4438
12079TIP3    H257729   0.110   3.319   3.722  1.4958  0.4230 -1.2110
12080TIP3   OH257730   3.894   1.101  10.500  0.1362 -0.1051  0.1310
12080TIP3    H157731   3.876   1.188  10.534  2.4030 -0.3079  2.0369
12080TIP3    H257732   3.980   1.107  10.460  0.9141 -1.7136  1.4265
12081TIP3   OH257733   3.961   6.088   0.764  0.2745  0.3708  0.3091
12081TIP3    H157734   3.870   6.061   0.752  0.1198  0.5241  1.1169
12081TIP3    H257735   3.974   6.158   0.700  0.8433 -1.8738 -2.2563
12082TIP3   OH257736   3.473   6.099   2.844  0.5769 -0.1844 -0.1470
12082TIP3    H157737   3.539   6.091   2.913  1.2473 -3.1974 -0.9802
12082TIP3    H257738   3.402   6.042   2.872 -1.2397  2.0938  0.1523
12083TIP3   OH257739   4.037   5.272   2.602  0.1558  0.4345  0.2747
12083TIP3    H157740   3.961   5.215   2.615  0.5763 -0.2149 -0.0678
12083TIP3    H257741   4.024   5.343   2.665 -0.8277  0.4349  0.0955
12084TIP3   OH257742   6.396   2.871  13.160 -0.2054 -0.4022 -0.3001
12084TIP3    H157743   6.336   2.945  13.150  1.3772  1.2097  1.3457
12084TIP3    H257744   6.398   2.854  13.254  3.4569  1.1104  0.0919
12085TIP3   OH257745   0.170   6.304   3.361 -0.7602 -0.2444  0.2339
12085TIP3    H157746   0.169   6.354   3.443  0.5695  0.9371 -0.4318
12085TIP3    H257747   0.092   6.334   3.314  0.5193  2.0610 -0.5877
12086TIP3   OH257748   6.234   3.880   1.891  0.2506  0.1679 -0.1841
12086TIP3    H157749   6.267   3.798   1.928 -0.4625 -0.0902 -0.0928
12086TIP3    H257750   6.279   3.949   1.941  1.1185 -0.1613 -0.5060
12087TIP3   OH257751   5.552   1.379   5.759  0.0844 -0.0591 -0.4997
12087TIP3    H157752   5.519   1.469   5.755 -0.3386 -0.2300 -1.0362
12087TIP3    H257753   5.513   1.344   5.840 -0.8055 -0.1509 -0.9503
12088TIP3   OH257754   2.363   5.462  15.954  0.0646  0.0231 -0.0476
12088TIP3    H157755   2.316   5.392  15.909 -0.3667  1.1910 -1.4889
12088TIP3    H257756   2.308   5.539  15.943  0.9607  0.8002  0.7201
12089TIP3   OH257757   4.049   4.292   5.272 -0.2687  0.1856  0.6971
12089TIP3    H157758   4.050   4.240   5.353 -2.3557 -0.3497  0.4428
12089TIP3    H257759   4.072   4.229   5.203  0.5029  0.4095  0.7378
12090TIP3   OH257760   4.455   6.562   0.673  0.2237 -0.6569 -0.0058
12090TIP3    H157761   4.436   6.555   0.580 -0.1578  1.6907 -0.1708
12090TIP3    H257762   4.372   6.590   0.713  0.8731  0.3197  0.7120
12091TIP3   OH257763   6.462   5.941   4.304  0.1642 -0.2391  0.1048
12091TIP3    H157764   6.429   6.023   4.267 -0.8180 -0.6460  0.0564
12091TIP3    H257765   6.462   5.880   4.231  0.9222 -0.2889  0.1357
12092TIP3   OH257766   0.866   4.279  15.601 -0.1998  0.9124 -0.0294
12092TIP3    H157767   0.814   4.291  15.680  0.1904  2.0460  0.0618
12092TIP3    H257768   0.952   4.253  15.633 -0.3371  0.3142 -0.1322
12093TIP3   OH257769   1.059   3.792  12.045  0.3652 -0.0299  0.0777
12093TIP3    H157770   1.018   3.706  12.048  0.1031  0.0584 -0.7631
12093TIP3    H257771   1.057   3.823  12.135  1.1509 -1.2245  0.5225
12094TIP3   OH257772   1.169   6.341   5.123  0.3394 -0.0496 -0.2662
12094TIP3    H157773   1.199   6.389   5.200  0.0109 -0.1822 -0.0537
12094TIP3    H257774   1.124   6.407   5.070 -0.3836 -0.1755  0.1728
12095TIP3   OH257775   4.616   3.036   3.580  0.3701 -0.2212  0.5248
12095TIP3    H157776   4.678   3.027   3.508  0.6690 -0.2514  0.7848
12095TIP3    H257777   4.614   2.950   3.621  1.8519  0.3490  1.8847
12096TIP3   OH257778   4.800   5.449   3.307  0.1809  0.0093  0.0361
12096TIP3    H157779   4.739   5.443   3.381 -0.1880 -0.2334 -0.2819
12096TIP3    H257780   4.884   5.470   3.347 -0.0582  0.0916  0.5073
12097TIP3   OH257781   1.027   0.590   3.598  0.2341 -0.3604 -0.2633
12097TIP3    H157782   1.034   0.641   3.517 -1.3261  1.0119  0.4115
12097TIP3    H257783   0.933   0.575   3.609  0.1567  1.4390  2.4220
12098TIP3   OH257784   6.035   2.495  11.226 -0.0516 -0.3520  0.2007
12098TIP3    H157785   6.119   2.489  11.272 -0.1317  2.1164  0.8362
12098TIP3    H257786   6.006   2.405  11.218  2.1999 -1.2124  0.8318
12099TIP3   OH257787   4.858   3.598  11.597 -0.2644  0.1077 -0.0238
12099TIP3    H157788   4.831   3.646  11.676  0.3066 -0.3961  0.4856
12099TIP3    H257789   4.785   3.538  11.579 -0.5721  0.5045 -0.1212
12100TIP3   OH257790   6.690   6.068   4.370  0.3121  0.7116  0.1910
12100TIP3    H157791   6.749   5.998   4.341  0.1154 -0.1201  1.7058
12100TIP3    H257792   6.605   6.045   4.334  0.2362  0.1267  0.7394
12101TIP3   OH257793   1.544   4.627   4.866 -0.4535  0.2552 -0.1684
12101TIP3    H157794   1.484   4.631   4.792 -0.2097 -0.7675 -0.4300
12101TIP3    H257795   1.552   4.534   4.886 -1.2548  0.5497  1.7606
12102TIP3   OH257796   0.476   6.578   6.306 -0.3037 -0.0298 -0.3622
12102TIP3    H157797   0.454   6.513   6.373 -1.3110  0.5497 -0.0963
12102TIP3    H257798   0.404   6.641   6.311  0.9312  1.4027 -0.2288
12103TIP3   OH257799   0.197   3.814   5.749  0.2185 -0.2938  0.5676
12103TIP3    H157800   0.139   3.789   5.821  0.0178 -1.8581 -0.0949
12103TIP3    H257801   0.285   3.804   5.785  0.1434 -2.1211  0.2986
12104TIP3   OH257802   6.185   4.605  14.964 -0.0813 -0.6234 -0.5862
12104TIP3    H157803   6.175   4.695  14.935  0.7314 -0.9269 -1.8906
12104TIP3    H257804   6.096   4.568  14.961 -0.1240 -0.4693 -2.1930
12105TIP3   OH257805   3.067   1.036   2.275 -0.6446  0.3099  0.2769
12105TIP3    H157806   3.122   1.113   2.260 -0.1770  0.1913  1.3514
12105TIP3    H257807   3.006   1.036   2.201  0.3000  0.8729 -0.5223
12106TIP3   OH257808   0.867   4.543  10.552  0.1570 -0.0134  0.2819
12106TIP3    H157809   0.957   4.574  10.558 -0.0567  0.6369  0.2235
12106TIP3    H257810   0.867   4.459  10.598  1.2032 -0.9466 -1.3284
12107TIP3   OH257811   0.066   5.977  16.463  0.6035  0.1756 -0.7877
12107TIP3    H157812   0.081   5.889  16.429 -1.1788  0.5541 -2.7502
12107TIP3    H257813  -0.024   5.976  16.495  0.6188  1.2352 -0.6747
12108TIP3   OH257814   0.959   3.623   0.512  0.0729 -0.7538 -0.2322
12108TIP3    H157815   0.967   3.531   0.537 -0.0331 -0.7462 -0.1693
12108TIP3    H257816   0.898   3.660   0.575 -0.1315 -0.7144 -0.4510
12109TIP3   OH257817   4.451   5.532   2.499  0.2152 -0.4373 -0.2053
12109TIP3    H157818   4.375   5.473   2.502  0.5820 -0.9116 -0.0381
12109TIP3    H257819   4.430   5.596   2.432 -0.1898 -0.7671 -0.3946
12110TIP3   OH257820   3.903   2.501  15.248  0.3945  0.1627  0.2933
12110TIP3    H157821   3.886   2.519  15.340  4.4081 -2.4405  1.7990
12110TIP3    H257822   3.984   2.547  15.229  0.4302 -0.5702 -1.4914
12111TIP3   OH257823   5.507   6.381   3.395 -0.2777  0.1236 -0.3840
12111TIP3    H157824   5.537   6.391   3.485 -0.8476  0.8751 -0.2601
12111TIP3    H257825   5.569   6.320   3.355  1.8208  2.1137 -0.3605
12112TIP3   OH257826   0.720   1.525  13.845  0.7635 -0.2635 -0.2617
12112TIP3    H157827   0.661   1.490  13.778 -1.2788  2.3842 -0.0245
12112TIP3    H257828   0.785   1.575  13.796  0.5834 -0.1454 -0.3830
12113TIP3   OH257829   4.723   1.925  15.813 -0.4688 -0.4364 -0.2078
12113TIP3    H157830   4.667   1.915  15.735  1.5427  4.8125 -2.8028
12113TIP3    H257831   4.793   1.861  15.800 -1.2899 -1.1362 -1.4723
12114TIP3   OH257832   0.219   0.799  15.856 -0.1028 -0.0926  0.0239
12114TIP3    H157833   0.215   0.828  15.947  0.9058 -0.8918  0.3517
12114TIP3    H257834   0.258   0.872  15.809  0.1471  0.0125  0.3892
12115TIP3   OH257835   3.314   3.403  10.823 -0.2061  0.1848  0.1261
12115TIP3    H157836   3.376   3.337  10.790 -0.8535 -0.3897  0.0497
12115TIP3    H257837   3.335   3.482  10.773  1.8993  0.6378  1.5710
12116TIP3   OH257838   1.069   3.075  13.852  0.1967  0.1088  0.3375
12116TIP3    H157839   1.159   3.092  13.824  0.2728 -1.0755 -0.1726
12116TIP3    H257840   1.032   3.023  13.781 -0.8940  0.5650  0.5585
12117TIP3   OH257841   1.194   6.187  14.323  0.5154 -0.7040  0.2379
12117TIP3    H157842   1.249   6.261  14.299  1.3190 -1.2143  0.4955
12117TIP3    H257843   1.112   6.227  14.352  0.4715  0.0255 -0.8518
12118TIP3   OH257844   2.834   6.299  13.089 -0.4532 -0.1316  0.6318
12118TIP3    H157845   2.909   6.349  13.055  0.4027 -0.4977  1.8891
12118TIP3    H257846   2.841   6.214  13.045  0.0710 -0.2687  0.9611
12119TIP3   OH257847   5.205   5.230   2.618  0.0073 -0.2498 -0.3932
12119TIP3    H157848   5.131   5.215   2.677 -1.2673 -1.1421 -2.1254
12119TIP3    H257849   5.282   5.203   2.669 -1.2250 -2.9650  0.1845
12120TIP3   OH257850   6.192   0.189  13.139 -0.0808 -0.2273  0.2163
12120TIP3    H157851   6.184   0.213  13.231 -1.3459  0.3838 -0.0365
12120TIP3    H257852   6.229   0.101  13.140  0.7240  0.1115  1.2785
12121TIP3   OH257853   5.072   6.287  13.864 -0.0649 -0.1775  0.0958
12121TIP3    H157854   5.120   6.265  13.944 -1.9243  0.3655  1.4273
12121TIP3    H257855   5.101   6.223  13.799  2.1088 -0.1139  0.9377
12122TIP3   OH257856   1.329   0.840   1.566  0.7493 -0.3508 -0.0902
12122TIP3    H157857   1.362   0.791   1.642  2.4542  0.1534 -0.4479
12122TIP3    H257858   1.296   0.773   1.506 -1.5069 -0.7102  1.4236
12123TIP3   OH257859   5.538   6.108   1.569  0.2949  0.5456 -0.2462
12123TIP3    H157860   5.495   6.190   1.546 -0.3589  0.1155 -0.5717
12123TIP3    H257861   5.629   6.133   1.589  0.5295  1.1297 -1.9223
12124TIP3   OH257862   2.501   2.610  12.984 -0.2902  0.4051 -0.2617
12124TIP3    H157863   2.489   2.530  12.933 -1.0657  0.4123 -0.0908
12124TIP3    H257864   2.486   2.584  13.074  0.5679  0.5086 -0.0765
12125TIP3   OH257865   1.659   5.022  14.051 -0.1080  0.5039  0.1338
12125TIP3    H157866   1.710   4.949  14.087  1.1930  1.8766  1.1948
12125TIP3    H257867   1.633   4.991  13.964  0.2859 -1.2595  0.5889
12126TIP3   OH257868   5.595   1.431   6.371  0.0926 -0.0100  0.1780
12126TIP3    H157869   5.624   1.491   6.302 -0.7975 -1.3402 -1.4261
12126TIP3    H257870   5.576   1.488   6.445 -1.9941  1.9428 -1.6752
12127TIP3   OH257871   1.126   3.066   5.076 -0.0003  0.4306  0.4285
12127TIP3    H157872   1.043   3.109   5.092  0.0401 -0.0792  2.1331
12127TIP3    H257873   1.102   2.979   5.042 -0.2883 -0.5031  2.8205
12128TIP3   OH257874   5.787   1.308  11.799  0.4138 -0.3121 -0.9444
12128TIP3    H157875   5.748   1.301  11.712  0.6304  1.3934 -1.2276
12128TIP3    H257876   5.750   1.389  11.835  1.4710 -0.1928 -0.0611
12129TIP3   OH257877   0.845   3.041  14.540 -0.8033 -0.4379  0.0811
12129TIP3    H157878   0.812   3.059  14.452 -0.6993  2.8560  0.6045
12129TIP3    H257879   0.769   3.007  14.587 -1.7330  0.7906 -0.4718
12130TIP3   OH257880   0.724   0.370   4.974 -0.2555  0.3626  0.0754
12130TIP3    H157881   0.707   0.277   4.986 -1.4650  0.3584 -1.3207
12130TIP3    H257882   0.782   0.375   4.898  0.1910  0.7390  0.4308
12131TIP3   OH257883   2.176   2.785   0.153  0.1752  0.1865  0.3412
12131TIP3    H157884   2.167   2.780   0.058 -0.4566  0.9591  0.3509
12131TIP3    H257885   2.191   2.878   0.170 -1.9483  0.4294  1.1673
12132TIP3   OH257886   4.195   1.617   3.081 -0.2195 -0.4284 -0.0448
12132TIP3    H157887   4.119   1.657   3.039  0.0847 -1.9059 -2.1972
12132TIP3    H257888   4.251   1.591   3.008  1.5825 -0.8702  1.4275
12133TIP3   OH257889   5.855   1.441  11.267  0.6608  0.2103  0.0395
12133TIP3    H157890   5.809   1.468  11.188  0.9475  0.5536 -0.0112
12133TIP3    H257891   5.823   1.353  11.285  0.7776  0.0389 -0.5946
12134TIP3   OH257892   1.976   5.707   2.644  0.6142 -0.5545  0.3881
12134TIP3    H157893   2.004   5.636   2.702 -2.3895 -0.6952  1.8711
12134TIP3    H257894   2.031   5.781   2.669  0.5173 -1.0640  2.3240
12135TIP3   OH257895   1.570   1.179  15.857 -0.1724 -0.1784 -0.3080
12135TIP3    H157896   1.500   1.193  15.794 -1.4779 -0.8160  0.9520
12135TIP3    H257897   1.642   1.142  15.806 -0.5092  1.0169 -1.7261
12136TIP3   OH257898   2.962   6.342  13.497 -0.0641  0.8387  0.2641
12136TIP3    H157899   2.939   6.430  13.470 -0.1256  0.7228 -0.0642
12136TIP3    H257900   2.984   6.350  13.590  1.4326  1.4681 -0.1289
12137TIP3   OH257901   2.804   3.545  17.043  0.1488  0.5878 -0.2012
12137TIP3    H157902   2.779   3.561  17.134  1.1256  3.5213 -0.3582
12137TIP3    H257903   2.722   3.550  16.995 -0.1487  0.8837  0.3244
12138TIP3   OH257904   5.212   2.799  14.763  0.0317 -0.3912 -0.1070
12138TIP3    H157905   5.168   2.715  14.754  0.1376 -0.4682  0.0858
12138TIP3    H257906   5.260   2.792  14.846 -0.9392  0.2929  0.5464
12139TIP3   OH257907   6.410   0.654   0.325  0.1833 -0.3326 -0.4961
12139TIP3    H157908   6.382   0.662   0.233  0.5702  0.4280 -0.5565
12139TIP3    H257909   6.484   0.715   0.333 -0.2134  0.0435  0.4648
12140TIP3   OH257910   3.553   2.237  15.318 -0.0861 -0.4524  0.8302
12140TIP3    H157911   3.600   2.166  15.360  1.7361  0.1551 -0.0688
12140TIP3    H257912   3.583   2.236  15.227 -1.2387  0.4629  0.4049
12141TIP3   OH257913   5.033   2.558  12.165 -0.3633  0.1364 -0.8042
12141TIP3    H157914   5.033   2.645  12.125 -2.1096 -0.2733 -1.7701
12141TIP3    H257915   5.018   2.574  12.258 -0.1625  0.8838 -0.8933
12142TIP3   OH257916   1.657   0.361  13.596  0.2328  0.4515  0.1363
12142TIP3    H157917   1.745   0.323  13.604 -0.5682 -1.2919  1.2962
12142TIP3    H257918   1.631   0.381  13.686 -0.3161  1.5943 -0.2585
12143TIP3   OH257919   0.636   4.815   0.825  0.2309 -0.0561 -0.0834
12143TIP3    H157920   0.591   4.893   0.791 -1.1607 -0.5562  0.5488
12143TIP3    H257921   0.712   4.851   0.872 -0.8956  1.0093  0.9988
12144TIP3   OH257922   6.263   3.312   2.116  0.4624  0.2011 -0.7806
12144TIP3    H157923   6.219   3.395   2.134  1.7114  0.8155 -0.4370
12144TIP3    H257924   6.192   3.251   2.097 -0.6561  0.7568  1.2735
12145TIP3   OH257925   0.253   4.617   3.516 -0.0248  0.1027 -0.1599
12145TIP3    H157926   0.181   4.589   3.459  0.4084 -0.8529 -0.2495
12145TIP3    H257927   0.292   4.535   3.547 -0.9859  0.5325  2.4539
12146TIP3   OH257928   6.461   2.966   3.452  0.2644 -1.1083  0.5810
12146TIP3    H157929   6.368   2.977   3.470  0.4740  0.0878  1.0768
12146TIP3    H257930   6.490   2.900   3.515 -0.3388 -1.8866  0.0612
12147TIP3   OH257931   4.980   0.732   0.523  0.4725  0.5219  0.0011
12147TIP3    H157932   5.007   0.678   0.597 -2.9671  0.3568  1.3154
12147TIP3    H257933   5.001   0.821   0.549 -0.3853  0.4307  1.0879
12148TIP3   OH257934   1.429   2.872   5.046 -0.1876  0.2667  0.2402
12148TIP3    H157935   1.424   2.836   5.134 -2.0026  1.4646  0.6859
12148TIP3    H257936   1.519   2.856   5.018 -0.2739 -2.4851  1.2613
12149TIP3   OH257937   5.053   5.390  12.372 -0.1872 -0.2046 -0.1667
12149TIP3    H157938   4.989   5.359  12.436 -1.6542  2.6419 -0.1086
12149TIP3    H257939   5.137   5.384  12.417 -1.1224  1.2518  1.9404
12150TIP3   OH257940   3.318   0.445   3.120 -0.4003 -0.0802 -0.3344
12150TIP3    H157941   3.256   0.519   3.118 -1.5806 -0.8382 -5.2577
12150TIP3    H257942   3.393   0.476   3.068  0.0495 -1.6238 -0.6400
12151TIP3   OH257943   4.716   5.937  11.302 -0.3484 -0.3072 -0.3916
12151TIP3    H157944   4.739   5.892  11.383 -1.3072  0.9970  0.6549
12151TIP3    H257945   4.627   5.909  11.283  0.2886 -1.5521 -1.7077
12152TIP3   OH257946   1.110   0.948  11.308 -0.0447 -0.0389 -0.1583
12152TIP3    H157947   1.038   0.901  11.266  1.3290 -1.2022 -1.3228
12152TIP3    H257948   1.180   0.884  11.315  1.0629  1.1894  0.4889
12153TIP3   OH257949   1.351   5.203  15.469 -0.0991 -0.1878  0.3526
12153TIP3    H157950   1.265   5.245  15.476  0.1531  0.6171 -0.9884
12153TIP3    H257951   1.347   5.130  15.531 -2.7267 -1.7383 -1.4164
12154TIP3   OH257952   0.737   1.371   0.970 -0.3324 -0.3003 -0.2472
12154TIP3    H157953   0.744   1.369   1.065 -0.2287 -2.3753 -0.2506
12154TIP3    H257954   0.793   1.444   0.943  0.2925 -0.2075  1.2325
12155TIP3   OH257955   4.503   0.565  16.618 -0.1696  0.3425 -0.6585
12155TIP3    H157956   4.447   0.628  16.664  1.5645  2.9655 -1.9291
12155TIP3    H257957   4.587   0.568  16.665  0.9743  1.5306 -2.6398
12156TIP3   OH257958   2.271   0.131   6.413 -0.2196 -0.5890 -0.0117
12156TIP3    H157959   2.194   0.143   6.468  0.5613  0.0192  0.9752
12156TIP3    H257960   2.303   0.220   6.397  0.9177 -0.8864  0.5359
12157TIP3   OH257961   0.653   5.265   4.085  0.3646  0.0112 -0.7771
12157TIP3    H157962   0.571   5.221   4.108  0.6584 -0.5565 -0.8008
12157TIP3    H257963   0.666   5.329   4.155  1.2800 -1.7458  0.7520
12158TIP3   OH257964   1.266   5.790   3.518  0.3859  0.0030 -0.0898
12158TIP3    H157965   1.361   5.782   3.516  0.3357 -0.4370 -1.3141
12158TIP3    H257966   1.247   5.825   3.605  1.6158 -0.4976  0.3956
12159TIP3   OH257967   2.251   4.011   0.839  0.2399 -0.3124 -0.0720
12159TIP3    H157968   2.188   4.070   0.880  0.1827 -0.9829  0.8262
12159TIP3    H257969   2.333   4.026   0.887  0.4274 -0.4025 -0.3584
12160TIP3   OH257970   3.492   3.364  16.302  0.3689  0.6922 -0.2248
12160TIP3    H157971   3.552   3.339  16.372 -0.2560 -0.2221  0.0083
12160TIP3    H257972   3.517   3.309  16.228 -1.4930 -1.3222  0.5153
12161TIP3   OH257973   0.691   5.836  15.939 -0.0249 -0.0325 -0.0847
12161TIP3    H157974   0.758   5.788  15.988  0.0366  0.3329  0.1908
12161TIP3    H257975   0.641   5.882  16.007 -0.8831 -0.7138 -0.2378
12162TIP3   OH257976   3.659   4.563   5.093 -0.3468 -0.2771 -0.3537
12162TIP3    H157977   3.752   4.541   5.100 -0.3352  0.0849  0.9872
12162TIP3    H257978   3.619   4.488   5.049  0.4447 -0.8187 -0.1564
12163TIP3   OH257979   3.577   4.081   5.666 -1.0515 -0.9238 -0.0643
12163TIP3    H157980   3.569   4.173   5.694 -0.5922 -0.9516  0.1732
12163TIP3    H257981   3.609   4.036   5.744  0.4736 -0.9680 -0.6777
12164TIP3   OH257982   0.496   3.901  13.210  0.1203 -0.1166  0.2698
12164TIP3    H157983   0.540   3.980  13.179  0.7738 -0.6322 -0.1301
12164TIP3    H257984   0.446   3.870  13.134 -0.0927 -0.1145  0.4100
12165TIP3   OH257985   6.215   4.723   2.926  0.1571  0.0996  0.1509
12165TIP3    H157986   6.243   4.782   2.997 -1.6160 -1.1675  2.0084
12165TIP3    H257987   6.170   4.651   2.971 -0.8480 -0.8771 -2.2627
12166TIP3   OH257988   1.907   4.221   0.046  0.2616 -0.3943 -0.0040
12166TIP3    H157989   1.938   4.194   0.132 -0.9498 -3.0195 -0.2828
12166TIP3    H257990   1.812   4.226   0.055  0.1169 -0.7216 -1.1734
12167TIP3   OH257991   5.016   4.381  14.343 -0.0173  1.1739 -0.3967
12167TIP3    H157992   4.977   4.314  14.286 -0.2953  1.2046 -0.2464
12167TIP3    H257993   4.944   4.443  14.358 -0.5003  0.2163  1.4784
12168TIP3   OH257994   4.167   0.758   4.630 -0.2442  0.5814  0.5675
12168TIP3    H157995   4.152   0.736   4.722  0.1429  0.8321  0.6979
12168TIP3    H257996   4.173   0.674   4.585 -0.8613  0.4665  0.7000
12169TIP3   OH257997   1.510   1.043  11.946  0.4485  0.1269  0.6535
12169TIP3    H157998   1.591   1.084  11.975  0.7463 -0.1596  0.2319
12169TIP3    H257999   1.522   1.028  11.852  0.8763 -2.1085  1.0112
12170TIP3   OH258000   3.477   5.672  15.966 -0.0254  0.2374 -0.0795
12170TIP3    H158001   3.449   5.580  15.959 -0.7180  0.5203 -1.2705
12170TIP3    H258002   3.489   5.686  16.060 -2.5573 -0.3326  0.4209
12171TIP3   OH258003   2.801   5.282  14.721 -0.4151 -0.0062  0.4400
12171TIP3    H158004   2.791   5.346  14.791 -2.6392 -0.4852  0.6448
12171TIP3    H258005   2.851   5.328  14.653  0.3633  1.0034  1.6651
12172TIP3   OH258006   5.774   0.327  15.608 -0.1305  0.7773 -0.5327
12172TIP3    H158007   5.771   0.412  15.652  1.0244  0.1106  0.9028
12172TIP3    H258008   5.710   0.335  15.537 -0.7776  2.4887  0.1815
12173TIP3   OH258009   5.429   6.684   0.324  0.4358  0.5692  0.3606
12173TIP3    H158010   5.428   6.751   0.393  1.2761  0.4129  0.5342
12173TIP3    H258011   5.337   6.660   0.313 -0.0849  2.8262 -0.7777
12174TIP3   OH258012   1.837   3.708   0.294 -0.5056 -0.3143 -0.6670
12174TIP3    H158013   1.811   3.770   0.225 -2.9582  0.9626  1.2270
12174TIP3    H258014   1.777   3.635   0.284 -1.7958  0.4822  0.8375
12175TIP3   OH258015   4.471   5.829  11.227  0.0754  0.7984  0.2292
12175TIP3    H158016   4.459   5.869  11.141  0.4495  0.7035  0.1278
12175TIP3    H258017   4.386   5.837  11.270 -0.2927  0.2731 -0.3854
12176TIP3   OH258018   3.123   4.983   5.322 -0.4776  0.1008  0.2482
12176TIP3    H158019   3.147   4.950   5.409 -0.4243  0.3445  0.3271
12176TIP3    H258020   3.182   5.057   5.307  1.7610 -1.8813 -1.3739
12177TIP3   OH258021   0.082   0.645  11.278  0.3784 -0.2844 -0.2635
12177TIP3    H158022   0.110   0.577  11.217  1.5387 -0.4325  0.4061
12177TIP3    H258023   0.138   0.720  11.257 -0.5031  0.2848 -0.6161
12178TIP3   OH258024   0.736   3.584  12.805  0.3638 -0.1655  0.0650
12178TIP3    H158025   0.745   3.625  12.891  0.9788 -1.9568  0.9063
12178TIP3    H258026   0.681   3.644  12.755  1.3794  1.7556  1.1358
12179TIP3   OH258027   1.827   0.550   6.110  0.1874 -0.0544 -0.2445
12179TIP3    H158028   1.791   0.608   6.177  1.0530  0.7474 -0.4441
12179TIP3    H258029   1.875   0.609   6.051 -1.4838 -0.5559 -2.2245
12180TIP3   OH258030   0.725   0.365  12.647  0.2550  0.8391 -0.3945
12180TIP3    H158031   0.707   0.459  12.644  0.5198  0.8732 -2.1706
12180TIP3    H258032   0.653   0.325  12.599  1.6509  0.4473 -2.3068
12181TIP3   OH258033   6.564   1.449  12.556 -0.0477 -0.6145  0.2480
12181TIP3    H158034   6.574   1.524  12.614  0.4113 -0.6154  0.1679
12181TIP3    H258035   6.520   1.383  12.611  1.3258 -0.9924  0.9297
12182TIP3   OH258036   6.288   1.490   3.204 -0.4821  0.0740 -0.5699
12182TIP3    H158037   6.199   1.504   3.237 -0.8723  0.5738 -1.7692
12182TIP3    H258038   6.279   1.421   3.138  0.0035  0.1947 -0.7689
12183TIP3   OH258039   3.769   5.328   1.993 -0.5765  0.0017  0.3176
12183TIP3    H158040   3.706   5.352   1.925 -0.6843 -0.2133  0.3406
12183TIP3    H258041   3.719   5.275   2.054 -0.2743 -0.4999  0.1294
12184TIP3   OH258042   1.000   2.563   0.417 -0.6077 -0.6545  0.1830
12184TIP3    H158043   1.006   2.641   0.471  0.1729 -0.1002 -0.6835
12184TIP3    H258044   1.068   2.573   0.350 -0.3596 -2.1637  0.1613
12185TIP3   OH258045   6.809   4.586  16.923 -0.1319  0.3693 -0.1981
12185TIP3    H158046   6.896   4.623  16.940 -0.3428  0.9297 -0.3035
12185TIP3    H258047   6.764   4.591  17.008 -0.4150  1.0619 -0.3812
12186TIP3   OH258048   2.512   4.601  13.217 -0.2521 -0.0813 -0.1135
12186TIP3    H158049   2.551   4.686  13.239 -0.4881  0.4512 -1.6438
12186TIP3    H258050   2.453   4.583  13.290  0.7017  0.4709  0.8314
12187TIP3   OH258051   3.923   3.493   4.595 -0.2103  0.7200  0.8536
12187TIP3    H158052   3.894   3.561   4.534 -0.7889  0.5279  0.9106
12187TIP3    H258053   4.015   3.478   4.572  0.2805  2.3389  1.5839
12188TIP3   OH258054   0.637   0.635  12.920 -0.6874 -0.2984 -0.8086
12188TIP3    H158055   0.651   0.637  12.825  2.1494  2.5147 -0.4796
12188TIP3    H258056   0.699   0.570  12.952  0.8285  1.1778 -0.6548
12189TIP3   OH258057   5.815   4.609  12.659  0.4643  0.2922  0.1604
12189TIP3    H158058   5.821   4.536  12.720 -0.6596  0.3344  0.3395
12189TIP3    H258059   5.760   4.576  12.588 -1.2907  1.4091  0.9441
12190TIP3   OH258060   5.630   3.265  16.336 -0.0120  0.0586 -0.1062
12190TIP3    H158061   5.708   3.225  16.374  0.2899 -0.1442 -0.9066
12190TIP3    H258062   5.636   3.357  16.358  0.7248  0.1336 -0.5791
12191TIP3   OH258063   3.786   0.860  14.467 -0.4822  0.2528  0.5445
12191TIP3    H158064   3.836   0.813  14.401  0.4365  1.9854 -0.0536
12191TIP3    H258065   3.813   0.820  14.550  0.1434 -0.3731  0.0491
12192TIP3   OH258066   4.156   0.751  15.719 -0.0988  0.6266 -0.8486
12192TIP3    H158067   4.142   0.822  15.782  2.3321  0.3811  0.0571
12192TIP3    H258068   4.251   0.747  15.708 -0.0018 -3.1714 -0.0464
12193TIP3   OH258069   4.687   3.090  14.859 -0.1696 -0.0847  0.0309
12193TIP3    H158070   4.654   3.175  14.891 -0.1120  0.3298 -0.9707
12193TIP3    H258071   4.637   3.075  14.779  1.0212 -0.1806 -0.7045
12194TIP3   OH258072   6.689   4.231  14.157 -0.3634  0.0250 -0.2777
12194TIP3    H158073   6.749   4.162  14.186 -0.6184 -0.4438 -0.8262
12194TIP3    H258074   6.637   4.189  14.088 -0.5446  0.7628 -0.5969
12195TIP3   OH258075   1.079   0.442  14.200  0.2640 -0.5401 -0.8257
12195TIP3    H158076   1.036   0.496  14.134  2.2211  3.4657  0.8828
12195TIP3    H258077   1.012   0.379  14.227 -2.5031  1.5025 -2.4531
12196TIP3   OH258078   2.791   5.596   1.407 -0.4607  0.8305  0.8409
12196TIP3    H158079   2.787   5.691   1.411  0.5647  0.8771  0.9299
12196TIP3    H258080   2.882   5.574   1.426 -0.3007 -0.0841 -0.7393
12197TIP3   OH258081   0.378   3.534  12.871 -0.1264  0.0702  0.2310
12197TIP3    H158082   0.474   3.538  12.862 -0.1173 -1.5102 -0.7809
12197TIP3    H258083   0.361   3.444  12.897 -1.3320  0.4732  0.8980
12198TIP3   OH258084   2.963   4.340   5.396  0.3260 -0.3454  0.7643
12198TIP3    H158085   3.056   4.357   5.380  0.0901 -1.0428 -1.9620
12198TIP3    H258086   2.920   4.424   5.381  0.5061 -0.0044  2.1044
12199TIP3   OH258087   4.968   5.367  10.904 -0.1828 -0.5650 -0.0204
12199TIP3    H158088   5.040   5.316  10.867 -1.5931 -3.0527  0.4206
12199TIP3    H258089   4.923   5.403  10.828  2.1694  2.1618 -0.2753
12200TIP3   OH258090   6.643   3.262  12.859  0.2713  0.1753  0.3408
12200TIP3    H158091   6.694   3.193  12.899  0.0996 -0.3186 -0.2807
12200TIP3    H258092   6.584   3.217  12.798 -0.9961  0.7036  1.1215
12201TIP3   OH258093   2.589   3.339  11.186 -0.3163  0.7659 -0.2379
12201TIP3    H158094   2.633   3.256  11.203 -0.7955  0.5816  0.0884
12201TIP3    H258095   2.520   3.344  11.251  0.1775  1.7713  0.2333
12202TIP3   OH258096   5.459   6.192   5.391 -0.1141  0.3320 -0.5304
12202TIP3    H158097   5.503   6.107   5.381 -2.0016 -0.7074 -0.4229
12202TIP3    H258098   5.427   6.193   5.481 -0.7578  0.8368 -0.7556
12203TIP3   OH258099   2.668   3.921   1.046  0.3830  0.1215 -0.5705
12203TIP3    H158100   2.693   3.848   0.990  1.2059 -0.6732  0.7955
12203TIP3    H258101   2.746   3.941   1.097 -0.7424 -0.1550  1.3488
12204TIP3   OH258102   5.175   4.005   1.096  0.1190  0.3146  0.4516
12204TIP3    H158103   5.138   4.033   1.179  0.2795  0.2686  0.5392
12204TIP3    H258104   5.168   3.910   1.096 -1.2204  0.3946 -0.2208
12205TIP3   OH258105   0.091   1.207  14.915 -0.3361 -0.3696  0.1043
12205TIP3    H158106   0.106   1.177  15.005  1.0563 -1.9868 -0.6174
12205TIP3    H258107   0.147   1.283  14.905 -2.1991  1.2621  1.2524
12206TIP3   OH258108   1.257   2.785  11.978  0.6188  0.0763  0.2021
12206TIP3    H158109   1.334   2.826  12.016  0.6077  0.5066 -0.2269
12206TIP3    H258110   1.221   2.852  11.919 -0.3350  0.0516  0.7300
12207TIP3   OH258111   5.314   0.506  16.238  0.4350  0.2360  0.0016
12207TIP3    H158112   5.366   0.544  16.310  0.3148 -0.4959  0.4909
12207TIP3    H258113   5.231   0.553  16.242  0.2230 -0.1720  0.7129
12208TIP3   OH258114   1.310   4.057  10.469  0.1152 -0.4665 -0.2233
12208TIP3    H158115   1.306   4.025  10.378 -1.4127 -0.8683 -0.0536
12208TIP3    H258116   1.391   4.106  10.474 -0.6558  1.1964 -2.3852
12209TIP3   OH258117   6.691   2.670  12.614  1.0056  0.0821 -0.1471
12209TIP3    H158118   6.672   2.750  12.663  1.3532 -0.1522  0.3869
12209TIP3    H258119   6.742   2.617  12.675  1.1932 -0.3428 -0.6683
12210TIP3   OH258120   1.053   5.473   6.488  0.3295 -0.1280 -0.0340
12210TIP3    H158121   1.005   5.395   6.464  0.3995 -0.4088  0.7123
12210TIP3    H258122   1.006   5.545   6.445  0.2292 -0.5668 -0.6656
12211TIP3   OH258123   5.597   2.707   4.256  0.9124  0.6640 -0.2533
12211TIP3    H158124   5.513   2.752   4.264 -0.1121 -0.9959 -1.1186
12211TIP3    H258125   5.585   2.647   4.183  2.9392  0.5056 -0.5197
12212TIP3   OH258126   0.672   6.564  12.151 -1.0970  0.3470 -0.9490
12212TIP3    H158127   0.639   6.476  12.170  0.5891 -0.4806 -1.6648
12212TIP3    H258128   0.607   6.623  12.190 -0.9369 -1.2081  1.9790
12213TIP3   OH258129   3.211   5.379   4.276  0.3192  0.2694 -0.0223
12213TIP3    H158130   3.144   5.414   4.335  0.0933 -1.4127  0.7889
12213TIP3    H258131   3.167   5.372   4.191 -1.0237 -1.9461  0.7577
12214TIP3   OH258132   0.807   3.469  11.100 -0.8510  0.0299 -0.0015
12214TIP3    H158133   0.812   3.375  11.120 -1.0848 -0.0339 -0.2367
12214TIP3    H258134   0.824   3.512  11.183 -0.5459 -0.2206  0.0691
12215TIP3   OH258135   5.160   5.049  11.068 -0.0139  0.3394  0.5273
12215TIP3    H158136   5.229   5.006  11.018 -0.2424  0.9641 -0.3479
12215TIP3    H258137   5.145   5.132  11.022 -4.0892 -1.3706 -1.7224
12216TIP3   OH258138   5.679   0.343  12.033 -0.2426  0.7040  0.2344
12216TIP3    H158139   5.664   0.369  12.124 -2.1862 -1.5885  0.6691
12216TIP3    H258140   5.749   0.278  12.037  0.9733  1.9222 -0.2103
12217TIP3   OH258141   5.253   2.727  12.512 -0.1944  0.7556 -0.3809
12217TIP3    H158142   5.280   2.693  12.426 -0.2250 -0.6694  0.1452
12217TIP3    H258143   5.196   2.659  12.548 -0.7439  1.6460  0.4922
12218TIP3   OH258144   2.233   6.847  14.858  0.0513  0.1451 -0.1537
12218TIP3    H158145   2.295   6.869  14.788 -0.2382  0.5856 -0.2734
12218TIP3    H258146   2.192   6.765  14.830  1.2748 -0.6892  0.3832
12219TIP3   OH258147   3.608   0.899  13.165  0.5929  0.4784  0.0220
12219TIP3    H158148   3.565   0.966  13.112 -2.0341 -0.5481  0.6968
12219TIP3    H258149   3.628   0.943  13.248  0.8059  0.9574 -0.2766
12220TIP3   OH258150   6.387   4.922   6.265 -0.0765  0.2512  0.0607
12220TIP3    H158151   6.319   4.885   6.321  0.7547 -0.5447  0.5672
12220TIP3    H258152   6.340   4.981   6.206 -0.9945  1.0094  1.4923
12221TIP3   OH258153   4.726   6.259   4.305 -0.1644  0.0050 -0.5506
12221TIP3    H158154   4.715   6.316   4.381 -0.8981  0.9268 -1.3230
12221TIP3    H258155   4.762   6.177   4.341  0.6772  0.8534  0.6087
12222TIP3   OH258156   2.559   2.211  13.955  0.2851  0.2615  0.2985
12222TIP3    H158157   2.651   2.184  13.951  0.5792  1.3076 -0.7070
12222TIP3    H258158   2.511   2.138  13.915  0.2395 -1.7472  3.5959
12223TIP3   OH258159   6.268   5.534   6.301  0.4913 -0.3837 -0.2975
12223TIP3    H158160   6.239   5.458   6.352  0.1062  1.4214  2.3793
12223TIP3    H258161   6.345   5.503   6.254 -0.3290 -2.7382 -0.2201
12224TIP3   OH258162   2.374   5.311   0.891  0.1312 -0.1782  0.0974
12224TIP3    H158163   2.464   5.307   0.856  0.0196 -0.7722 -0.1451
12224TIP3    H258164   2.319   5.321   0.813  0.0764  2.0234  0.3695
12225TIP3   OH258165   6.280   5.282  10.979 -0.4850  0.3969  0.1583
12225TIP3    H158166   6.195   5.270  11.021 -0.5438  1.1968  0.2746
12225TIP3    H258167   6.265   5.259  10.887 -0.4217 -1.0820  0.4856
12226TIP3   OH258168   0.805   2.257  16.666  0.1061  0.0943 -0.4737
12226TIP3    H158169   0.865   2.184  16.656 -0.8707 -0.4087 -4.1477
12226TIP3    H258170   0.861   2.335  16.667  1.0061 -0.5483  0.5420
12227TIP3   OH258171   1.794   6.597  14.125  0.2163  0.7051  0.4151
12227TIP3    H158172   1.859   6.628  14.189  1.1074  0.4797 -0.3570
12227TIP3    H258173   1.743   6.533  14.174  1.5271 -0.2093  0.6535
12228TIP3   OH258174   0.318   1.066   2.292 -0.2487 -0.0841  0.3592
12228TIP3    H158175   0.299   1.107   2.377  0.3578  0.1849  0.3750
12228TIP3    H258176   0.314   0.972   2.309 -0.6042 -0.0307  0.5750
12229TIP3   OH258177   6.375   4.936  10.033 -0.4582  0.0774 -0.1638
12229TIP3    H158178   6.362   4.867   9.969 -0.8977  0.5582 -0.6055
12229TIP3    H258179   6.356   5.017   9.986  0.6549  0.5526  0.1796
12230TIP3   OH258180   4.666   4.491   3.676 -0.8651 -0.9624 -0.1655
12230TIP3    H158181   4.676   4.453   3.588  2.1239 -1.6040  0.3385
12230TIP3    H258182   4.673   4.416   3.735  2.4764 -0.1037  0.7397
12231TIP3   OH258183   1.201   6.387  15.918  0.8452 -0.2367 -0.0757
12231TIP3    H158184   1.179   6.450  15.850  0.3989 -1.6317 -1.2839
12231TIP3    H258185   1.181   6.302  15.879  2.5907 -1.2240  1.0265
12232TIP3   OH258186   2.067   1.063  14.902  0.1327  0.5215 -0.0864
12232TIP3    H158187   1.972   1.049  14.902 -0.0711  1.6987 -1.0288
12232TIP3    H258188   2.104   0.979  14.873 -0.5093 -0.3799  1.5983
12233TIP3   OH258189   1.165   1.024  10.739 -0.1503  0.0615 -0.2034
12233TIP3    H158190   1.242   1.077  10.718  0.1020  0.4958  1.6157
12233TIP3    H258191   1.099   1.088  10.766  0.0951 -0.4711  1.8314
12234TIP3   OH258192   6.462   1.847  10.671  0.3515  0.2135  0.3360
12234TIP3    H158193   6.461   1.900  10.592 -1.3086 -0.4930 -0.1645
12234TIP3    H258194   6.378   1.800  10.670  0.7233 -0.5795  1.9911
12235TIP3   OH258195   2.678   4.084   1.275  0.1290 -0.6939  0.0817
12235TIP3    H158196   2.591   4.103   1.241  0.1417 -0.5939  0.1072
12235TIP3    H258197   2.722   4.169   1.280 -0.2300 -0.5629  1.3349
12236TIP3   OH258198   5.978   1.162   4.508 -0.0950 -0.3028  0.1460
12236TIP3    H158199   6.024   1.082   4.483  1.2453  0.3347  0.4955
12236TIP3    H258200   5.980   1.163   4.603  0.5915  0.5240  0.1355
12237TIP3   OH258201   0.468   1.736   5.925 -0.5582 -0.2297 -0.0564
12237TIP3    H158202   0.445   1.675   5.995  2.4342  0.0254  1.3121
12237TIP3    H258203   0.509   1.809   5.970  1.4223 -0.0211 -2.0281
12238TIP3   OH258204   3.385   5.301  13.606  0.2288  0.2930  0.2420
12238TIP3    H158205   3.305   5.306  13.659 -1.2885 -0.8484 -1.8208
12238TIP3    H258206   3.428   5.221  13.636 -0.2258  0.0596  0.2852
12239TIP3   OH258207   4.162   5.107   0.135 -0.5063  0.1752 -0.7203
12239TIP3    H158208   4.246   5.116   0.090 -0.7195 -1.3320 -1.4845
12239TIP3    H258209   4.097   5.135   0.071 -0.7605 -1.3471 -1.1797
12240TIP3   OH258210   1.923   1.774   2.079  0.1460 -0.0966  0.2204
12240TIP3    H158211   1.870   1.715   2.024 -1.7770  0.1215  1.7542
12240TIP3    H258212   1.898   1.862   2.051  0.2114  0.0121  0.5019
12241TIP3   OH258213   6.050   4.629   2.717 -0.1017  0.2147  0.1244
12241TIP3    H158214   6.118   4.643   2.783  1.7552  1.1734 -1.8236
12241TIP3    H258215   6.036   4.717   2.680 -0.2356 -0.4468 -1.4675
12242TIP3   OH258216   1.202   0.542   5.582 -0.2564  0.3231  0.0396
12242TIP3    H158217   1.165   0.598   5.515  1.0199  0.7256 -0.3684
12242TIP3    H258218   1.291   0.522   5.550  0.2538  0.2509  1.4332
12243TIP3   OH258219   4.212   4.186  13.244 -0.0413 -0.8967  0.5521
12243TIP3    H158220   4.283   4.156  13.187  1.5312 -0.5889  2.2479
12243TIP3    H258221   4.219   4.130  13.321  0.7137  1.4154  2.2717
12244TIP3   OH258222   5.363   5.727  13.279  0.1676 -0.1559  0.2147
12244TIP3    H158223   5.333   5.662  13.342 -0.4156  0.0915  0.1948
12244TIP3    H258224   5.416   5.788  13.330 -1.5372  0.9044  0.7841
12245TIP3   OH258225   0.448   3.526   0.615 -0.0381 -0.1294  0.1342
12245TIP3    H158226   0.354   3.522   0.633  0.1358  1.6189  1.7091
12245TIP3    H258227   0.459   3.607   0.565  0.7629  0.3410  1.0484
12246TIP3   OH258228   3.163   1.623  12.248  0.3101  0.2120  0.2405
12246TIP3    H158229   3.187   1.544  12.296 -0.3480  0.3517  0.8091
12246TIP3    H258230   3.186   1.603  12.157  1.1997 -0.2002  0.5436
12247TIP3   OH258231   0.278   3.107   1.623  0.0384 -0.5059 -0.6816
12247TIP3    H158232   0.189   3.089   1.654 -0.8955  0.1821 -2.7903
12247TIP3    H258233   0.299   3.193   1.660 -0.4376 -0.3701 -0.7196
12248TIP3   OH258234   3.452   6.800  15.851  0.1579  0.1212 -0.5125
12248TIP3    H158235   3.425   6.855  15.777 -1.0946 -0.7437 -0.7373
12248TIP3    H258236   3.373   6.751  15.875  0.7541 -0.2399  0.8647
12249TIP3   OH258237   1.608   2.533   1.767  0.0535 -0.5689  0.2129
12249TIP3    H158238   1.644   2.601   1.709 -1.5096  0.5020  0.4292
12249TIP3    H258239   1.577   2.582   1.843 -0.3683 -1.6457  0.7401
12250TIP3   OH258240   1.493   5.436  14.107 -0.3633 -0.6803 -0.3037
12250TIP3    H158241   1.404   5.445  14.139 -0.9900 -2.7270 -1.2942
12250TIP3    H258242   1.515   5.344  14.124  1.1698 -0.4815 -1.0482
12251TIP3   OH258243   1.486   6.367   6.543  0.0153 -0.7793 -0.8814
12251TIP3    H158244   1.577   6.361   6.573  0.3399 -0.6916 -1.8326
12251TIP3    H258245   1.434   6.352   6.623  0.8343  1.1563  0.0742
12252TIP3   OH258246   1.996   6.293   3.591  0.0987 -0.4838 -0.3166
12252TIP3    H158247   1.995   6.389   3.590  0.1874 -0.4731 -2.2091
12252TIP3    H258248   2.004   6.271   3.684  1.2051  1.3473  0.0807
12253TIP3   OH258249   3.963   3.390  11.673 -0.0825  0.8805  0.0191
12253TIP3    H158250   3.973   3.297  11.656 -1.6320  0.7655 -0.4359
12253TIP3    H258251   3.987   3.432  11.590  1.3243  0.9546  0.4453
12254TIP3   OH258252   6.705   6.121   6.001 -0.2461 -0.0656  0.4173
12254TIP3    H158253   6.769   6.166   6.055 -0.4705  1.2430 -0.3525
12254TIP3    H258254   6.665   6.056   6.059  0.1362  0.6927  1.5511
12255TIP3   OH258255   5.211   6.126   5.040  0.0447 -0.1841  0.4059
12255TIP3    H158256   5.225   6.212   5.080  1.3594 -0.1471 -0.0927
12255TIP3    H258257   5.293   6.107   4.994  0.4400 -2.4659  1.9120
12256TIP3   OH258258   5.602   6.632  11.235  0.0927 -0.4076 -0.9287
12256TIP3    H158259   5.508   6.634  11.247 -0.0351  0.1924 -1.9514
12256TIP3    H258260   5.629   6.548  11.274 -0.5898  0.2267  1.0269
12257TIP3   OH258261   2.085   2.826  14.580 -0.4766 -0.2362  0.1691
12257TIP3    H158262   2.000   2.865  14.601 -1.2599 -1.4573 -0.6305
12257TIP3    H258263   2.092   2.751  14.639 -0.1750 -0.4232 -0.1049
12258TIP3   OH258264   1.188   4.679  15.123 -0.4991  0.0422 -0.0676
12258TIP3    H158265   1.113   4.737  15.116 -0.5653  0.0048  0.3155
12258TIP3    H258266   1.225   4.676  15.034 -0.8239  0.2240 -0.2083
12259TIP3   OH258267   2.680   0.023  14.469  0.3948 -0.3468  0.2294
12259TIP3    H158268   2.739   0.096  14.449 -0.1845  0.1809  0.4079
12259TIP3    H258269   2.645  -0.004  14.384 -2.4015  2.1724  0.3710
12260TIP3   OH258270   2.884   1.163   5.295  0.2340  0.3334 -0.4576
12260TIP3    H158271   2.926   1.086   5.333  0.6363  0.7350 -0.0755
12260TIP3    H258272   2.888   1.229   5.364 -0.5892  0.5341 -0.5900
12261TIP3   OH258273   6.096   5.460  11.863 -0.2400 -0.5076 -0.0784
12261TIP3    H158274   6.067   5.539  11.817 -1.0636 -2.0697 -2.4617
12261TIP3    H258275   6.191   5.461  11.856 -0.3339 -0.5784 -1.6942
12262TIP3   OH258276   5.573   1.582  16.468  0.1679 -0.0753  0.0104
12262TIP3    H158277   5.597   1.629  16.548 -1.0404 -2.5396  1.9622
12262TIP3    H258278   5.481   1.558  16.481 -0.0277 -0.6761 -2.0952
12263TIP3   OH258279   1.183   1.827   3.236 -0.3748  0.9710 -0.2100
12263TIP3    H158280   1.266   1.822   3.189 -0.2023 -1.3097  0.1927
12263TIP3    H258281   1.128   1.760   3.194 -1.3913  1.2384  0.6427
12264TIP3   OH258282   0.250   1.118   0.448 -0.1351 -0.0270  0.7407
12264TIP3    H158283   0.181   1.060   0.417 -0.3314  0.9527 -0.7576
12264TIP3    H258284   0.331   1.079   0.414 -0.0213 -0.6601  1.7003
12265TIP3   OH258285   5.382   6.035   4.287 -0.2505  0.4028 -0.3898
12265TIP3    H158286   5.385   6.124   4.252 -0.3168 -0.3860 -2.5481
12265TIP3    H258287   5.338   6.045   4.372  0.1511  2.4625 -0.3598
12266TIP3   OH258288   5.517   1.367   5.120 -0.1623  0.3629 -0.3272
12266TIP3    H158289   5.523   1.462   5.116 -0.6777  0.3663 -1.3327
12266TIP3    H258290   5.460   1.349   5.194  0.5577  0.8059  0.3398
12267TIP3   OH258291   4.469   5.910  16.082  0.1722 -0.2505  0.4360
12267TIP3    H158292   4.552   5.909  16.033  0.1095 -0.3329  0.3300
12267TIP3    H258293   4.449   5.817  16.096 -0.3883 -0.2552 -0.3651
12268TIP3   OH258294   0.544   4.758   4.067 -0.6120  0.1030  0.5984
12268TIP3    H158295   0.600   4.681   4.079  1.3899  1.5468  1.0626
12268TIP3    H258296   0.501   4.770   4.152 -1.1553 -0.6450  0.4378
12269TIP3   OH258297   0.235   5.998   0.945 -0.1275 -0.2774  0.8674
12269TIP3    H158298   0.318   6.015   0.989  0.1901 -2.2347  1.0881
12269TIP3    H258299   0.169   6.014   1.013  0.0053  1.4209  0.6513
12270TIP3   OH258300   6.268   0.468  17.011 -0.5050  0.1665  0.0861
12270TIP3    H158301   6.290   0.436  16.924  1.0334  0.4591  0.3275
12270TIP3    H258302   6.220   0.549  16.996 -0.1314  0.2860 -0.4979
12271TIP3   OH258303   1.774   5.679   4.067  0.0483 -0.4987  0.4849
12271TIP3    H158304   1.855   5.673   4.017 -0.6311  0.4418 -0.7684
12271TIP3    H258305   1.751   5.772   4.064 -0.5174 -0.5723  1.7629
12272TIP3   OH258306   5.882   0.814  15.961  0.1710 -0.0991  0.0048
12272TIP3    H158307   5.899   0.841  15.871  1.8045 -1.2986 -0.1038
12272TIP3    H258308   5.924   0.881  16.015  0.2239 -0.0092 -0.1475
12273TIP3   OH258309   0.980   2.530   2.498  0.2445  0.1111  0.3422
12273TIP3    H158310   0.995   2.464   2.566  0.7386  0.6603  0.7796
12273TIP3    H258311   0.998   2.613   2.542  1.1799  0.4390 -0.6338
12274TIP3   OH258312   6.836   0.510   1.066  0.4132 -0.0409  0.1258
12274TIP3    H158313   6.806   0.423   1.040 -3.6294  1.0865  0.4240
12274TIP3    H258314   6.837   0.507   1.162  0.4268  0.2217  0.1329
12275TIP3   OH258315   5.167   6.712   1.078 -0.4698 -0.0961  0.0871
12275TIP3    H158316   5.214   6.720   0.996 -1.9839 -0.2991 -0.8418
12275TIP3    H258317   5.078   6.742   1.058 -1.4917 -2.2549  1.0306
12276TIP3   OH258318   0.272   0.312   5.053 -0.2818 -0.1063  0.1349
12276TIP3    H158319   0.335   0.371   5.094  0.7777 -1.4110  0.4209
12276TIP3    H258320   0.309   0.292   4.967 -1.0403  0.2705 -0.2934
12277TIP3   OH258321   2.262   0.830  15.020 -0.3948  0.7734 -0.1055
12277TIP3    H158322   2.208   0.887  15.074  1.1855 -1.0503  3.7148
12277TIP3    H258323   2.346   0.874  15.014  0.0677  0.0518  0.7663
12278TIP3   OH258324   4.275   5.629   0.914  0.1798 -0.5864  0.2791
12278TIP3    H158325   4.284   5.535   0.924  0.9829 -0.7433 -1.5938
12278TIP3    H258326   4.288   5.664   1.003  2.2280 -2.0732  0.6398
12279TIP3   OH258327   4.898   3.471  16.204  0.0155  0.0789  0.8040
12279TIP3    H158328   4.944   3.451  16.286  1.3914 -0.7994 -0.1389
12279TIP3    H258329   4.967   3.481  16.139 -1.1124 -0.9323 -0.6143
12280TIP3   OH258330   0.472   4.551   4.373 -0.1404  0.0721 -0.0645
12280TIP3    H158331   0.425   4.633   4.361  0.8760  0.4849 -1.5878
12280TIP3    H258332   0.501   4.552   4.464 -5.0528 -1.3594  1.8351
12281TIP3   OH258333   3.669   3.523   3.887 -0.0505 -0.3123  0.3677
12281TIP3    H158334   3.578   3.552   3.880 -0.0598 -0.5779 -1.0633
12281TIP3    H258335   3.681   3.465   3.811  1.1511 -0.7172  0.8461
12282TIP3   OH258336   4.806   2.411  14.106 -0.8266  0.1207  0.1888
12282TIP3    H158337   4.720   2.373  14.086 -1.0201  0.2029  0.8100
12282TIP3    H258338   4.788   2.471  14.179 -0.3915  0.8143 -0.2687
12283TIP3   OH258339   2.597   6.166  16.150 -0.7778 -0.0364 -0.5429
12283TIP3    H158340   2.681   6.209  16.164 -1.9142  2.0849  0.1791
12283TIP3    H258341   2.576   6.185  16.059 -2.0311  2.5004  0.2001
12284TIP3   OH258342   4.671   6.179   3.251 -0.6580 -1.0071  0.6707
12284TIP3    H158343   4.741   6.182   3.186 -0.7417  0.7846  0.6118
12284TIP3    H258344   4.716   6.170   3.334 -0.4724 -1.7488  0.4986
12285TIP3   OH258345   6.604   2.407  16.031  0.0173  0.1859  0.0424
12285TIP3    H158346   6.699   2.405  16.047 -0.0264  0.9077  0.4536
12285TIP3    H258347   6.596   2.427  15.937  0.2803  0.5188  0.0867
12286TIP3   OH258348   5.928   6.138  16.295  0.0093  0.0915  0.0550
12286TIP3    H158349   5.969   6.054  16.274 -0.0741  1.0549 -5.3397
12286TIP3    H258350   5.836   6.126  16.275 -0.1179  1.2510 -0.1328
12287TIP3   OH258351   1.033   3.010   5.842  0.1408  0.1152 -0.6214
12287TIP3    H158352   1.096   2.965   5.898 -1.8065  0.1339  1.7441
12287TIP3    H258353   1.020   3.095   5.884 -1.7558 -0.0545 -0.7840
12288TIP3   OH258354   0.579   4.553   4.621  0.3933 -0.4404  0.4407
12288TIP3    H158355   0.598   4.485   4.686  2.3107  0.6273  1.0936
12288TIP3    H258356   0.653   4.614   4.628 -0.1843  0.5955 -1.6018
12289TIP3   OH258357   2.925   5.912  14.727  1.0297  0.3273 -0.0704
12289TIP3    H158358   2.899   6.003  14.712  0.2264  0.6770  2.8529
12289TIP3    H258359   2.962   5.911  14.815 -0.6864 -2.4692  0.7652
12290TIP3   OH258360   2.647   2.587   5.389  0.2727 -0.1427 -0.4099
12290TIP3    H158361   2.628   2.553   5.477  2.2004  1.3093  0.6575
12290TIP3    H258362   2.566   2.630   5.362 -0.4816 -0.9575  0.4864
12291TIP3   OH258363   5.760   2.261   2.673  0.1955  0.0863 -0.5280
12291TIP3    H158364   5.739   2.210   2.595  1.0494 -0.1174 -0.6264
12291TIP3    H258365   5.820   2.206   2.723 -2.0675 -0.7967  1.4261
12292TIP3   OH258366   2.629   0.339   5.001  0.9396  0.1712 -0.4652
12292TIP3    H158367   2.569   0.375   4.936  1.8418  1.1214 -0.7952
12292TIP3    H258368   2.662   0.415   5.048 -0.1140 -0.5307  1.5277
12293TIP3   OH258369   2.024   5.549  13.645  0.9949  0.1798 -0.3741
12293TIP3    H158370   2.082   5.505  13.583 -0.1936 -0.2486 -1.2166
12293TIP3    H258371   1.960   5.594  13.590 -0.4349 -0.6876  0.5066
12294TIP3   OH258372   2.703   1.903  13.859 -0.0009  0.1842  0.0642
12294TIP3    H158373   2.740   1.940  13.779  0.6775  0.6221  0.5694
12294TIP3    H258374   2.762   1.933  13.929  0.3297 -1.4935  0.5489
12295TIP3   OH258375   1.222   6.763   4.657 -0.5411 -0.8928 -0.1467
12295TIP3    H158376   1.232   6.695   4.591  1.1385 -0.4115 -0.4354
12295TIP3    H258377   1.254   6.723   4.738  0.7058 -0.3910 -0.3733
12296TIP3   OH258378   5.647   4.512  12.092 -0.4769  0.5026 -0.4297
12296TIP3    H158379   5.736   4.547  12.085 -0.2702  0.3683  1.0400
12296TIP3    H258380   5.643   4.477  12.181 -1.9385  0.3023 -0.5522
12297TIP3   OH258381   0.051   4.080   3.792 -0.2978 -0.4648 -0.3787
12297TIP3    H158382  -0.029   4.031   3.772 -0.0062 -2.0702  1.9883
12297TIP3    H258383   0.100   4.081   3.709 -1.3346 -2.2483 -1.0687
12298TIP3   OH258384   1.956   5.884  13.572 -0.0602  0.5648  0.5660
12298TIP3    H158385   1.930   5.873  13.664 -0.2665 -1.2126  0.3386
12298TIP3    H258386   1.875   5.906  13.526 -0.1189  0.5911  0.6812
12299TIP3   OH258387   4.677   2.339   5.413  0.5721 -0.6845 -0.5682
12299TIP3    H158388   4.625   2.398   5.467 -1.6596 -3.2099  0.3036
12299TIP3    H258389   4.622   2.322   5.336  1.1005 -1.6524 -0.7512
12300TIP3   OH258390   5.070   2.648  15.518 -0.7556 -0.5413  0.6991
12300TIP3    H158391   4.994   2.673  15.466 -1.4525 -0.8185  1.5523
12300TIP3    H258392   5.121   2.590  15.461 -0.8848  0.1097 -0.0797
12301TIP3   OH258393   0.459   1.119  15.487  0.6082 -0.6547 -0.2217
12301TIP3    H158394   0.501   1.196  15.526  1.0569 -0.3909 -1.2059
12301TIP3    H258395   0.400   1.087  15.556 -0.6881  1.3919 -0.3068
12302TIP3   OH258396   3.425   2.438  15.730 -0.1660 -0.1096  0.3754
12302TIP3    H158397   3.349   2.470  15.682 -0.2873 -0.9833 -0.0472
12302TIP3    H258398   3.396   2.430  15.821 -0.4572 -0.0441  0.2874
12303TIP3   OH258399   6.597   0.234   0.213  0.5442  1.0734  0.2867
12303TIP3    H158400   6.524   0.192   0.259 -0.3081  2.4053  0.2097
12303TIP3    H258401   6.564   0.321   0.190  2.5553  2.1626  1.2602
12304TIP3   OH258402   1.557   2.865  12.580  0.6030  0.4159  0.7714
12304TIP3    H158403   1.533   2.836  12.668  1.7796 -0.1828  0.9115
12304TIP3    H258404   1.635   2.814  12.558 -0.4426 -0.4291 -1.1794
12305TIP3   OH258405   1.521   2.155  13.841 -0.2757 -0.1736 -0.7818
12305TIP3    H158406   1.612   2.166  13.812  0.0483 -1.1645 -0.1675
12305TIP3    H258407   1.524   2.086  13.907 -1.5115 -0.3691 -0.9006
12306TIP3   OH258408   2.211   2.940   2.635 -0.4880 -0.2813  0.0357
12306TIP3    H158409   2.128   2.907   2.601 -0.5499  0.6268 -0.7276
12306TIP3    H258410   2.196   2.950   2.729 -1.3538  0.2116 -0.1496
12307TIP3   OH258411   2.764   5.578  12.351 -0.3813  0.5391  0.3743
12307TIP3    H158412   2.680   5.540  12.327 -1.0439  0.7228  2.2495
12307TIP3    H258413   2.757   5.595  12.445  1.3568  1.5829  0.3598
12308TIP3   OH258414   3.214   0.169  13.022 -0.1214 -0.0189 -0.9385
12308TIP3    H158415   3.256   0.205  12.944  2.1353 -1.4616 -0.4649
12308TIP3    H258416   3.234   0.232  13.091  1.2610 -0.6696 -0.7297
12309TIP3   OH258417   6.485   4.327   2.221  0.2171 -0.6270 -0.4701
12309TIP3    H158418   6.415   4.377   2.178 -0.5569 -1.9099 -0.7725
12309TIP3    H258419   6.565   4.374   2.200 -0.6992  2.2027  1.7604
12310TIP3   OH258420   3.946   1.973   6.416 -0.0112  0.6605  0.0846
12310TIP3    H158421   3.965   1.895   6.466 -0.2647  0.2921 -0.3849
12310TIP3    H258422   4.015   2.035   6.440  0.9097 -0.1273 -0.4655
12311TIP3   OH258423   1.259   6.800   0.666 -0.3276  0.1698 -0.5992
12311TIP3    H158424   1.214   6.716   0.660 -0.2052  0.0208  0.3413
12311TIP3    H258425   1.351   6.779   0.654 -0.4468  0.4206 -2.1193
12312TIP3   OH258426   5.660   6.268  16.049  0.9594 -0.2345 -0.5850
12312TIP3    H158427   5.671   6.353  16.092  0.8044 -0.5870  0.1714
12312TIP3    H258428   5.598   6.221  16.105 -0.7297 -0.0250 -2.1961
12313TIP3   OH258429   6.714   5.216   1.927  0.1339 -0.4189 -0.3754
12313TIP3    H158430   6.770   5.160   1.874 -1.0874 -1.5860 -0.5185
12313TIP3    H258431   6.636   5.229   1.873 -0.9179 -1.2212  0.8879
12314TIP3   OH258432   3.166   3.335   3.149 -0.2587 -0.1888  0.7969
12314TIP3    H158433   3.230   3.363   3.214 -0.7247  1.0506  0.7442
12314TIP3    H258434   3.163   3.407   3.086 -0.8584 -0.7481  0.1752
12315TIP3   OH258435   6.630   2.127   1.310 -0.8158  0.5236 -0.1854
12315TIP3    H158436   6.689   2.131   1.386 -1.4684  0.2698  0.3407
12315TIP3    H258437   6.587   2.042   1.317 -0.7067  0.3953 -0.9776
12316TIP3   OH258438   4.759   2.211  16.199 -0.0708  0.7807  0.4483
12316TIP3    H158439   4.843   2.221  16.155  0.4136  0.0485  1.1730
12316TIP3    H258440   4.746   2.294  16.245  0.5703  0.6806  0.8288
12317TIP3   OH258441   4.354   2.321   3.226  0.5647  0.7897 -0.1649
12317TIP3    H158442   4.329   2.271   3.304  3.0337 -2.0711 -1.0355
12317TIP3    H258443   4.271   2.357   3.194 -1.0975 -1.1259  1.6439
12318TIP3   OH258444   2.909   3.043  12.083  0.5035  0.8693 -0.0913
12318TIP3    H158445   3.000   3.053  12.110 -0.0910  4.3214  1.1681
12318TIP3    H258446   2.862   3.021  12.163 -0.2127  3.1103  0.1654
12319TIP3   OH258447   6.685   1.167  14.615  0.1676 -0.0834  0.5700
12319TIP3    H158448   6.683   1.233  14.685  3.2063  0.6350  0.1078
12319TIP3    H258449   6.640   1.209  14.542  0.3578  0.6888  0.8829
12320TIP3   OH258450   0.475   1.544  15.031  0.1896 -0.5760  0.3595
12320TIP3    H158451   0.487   1.597  14.952  0.3944  0.3195  0.9770
12320TIP3    H258452   0.510   1.458  15.007 -0.1056 -0.4342 -0.6457
12321TIP3   OH258453   3.247   1.217   0.008 -0.9513  0.0981  0.2470
12321TIP3    H158454   3.205   1.252   0.086 -1.7050 -0.9344  0.3109
12321TIP3    H258455   3.277   1.130   0.033  1.1044  0.7235  0.1545
12322TIP3   OH258456   3.818   4.880  15.607  0.1790  0.0817  0.8131
12322TIP3    H158457   3.852   4.795  15.636 -1.2325 -0.3402  1.3563
12322TIP3    H258458   3.833   4.881  15.512  0.9195 -0.4205  0.9160
12323TIP3   OH258459   5.922   5.787  10.843 -0.0977 -0.2727 -0.3751
12323TIP3    H158460   5.829   5.776  10.825 -0.0659 -1.4074  0.0413
12323TIP3    H258461   5.929   5.778  10.938  0.5424 -1.1907 -0.4982
12324TIP3   OH258462   2.345   5.058  11.127 -0.2133 -0.1975  0.4122
12324TIP3    H158463   2.335   5.141  11.081  1.9851  0.0872  0.3266
12324TIP3    H258464   2.307   4.993  11.068 -1.6673  0.6679  0.3362
12325TIP3   OH258465   4.136   0.776   3.253  0.0821  0.0595  0.5382
12325TIP3    H158466   4.207   0.811   3.307  0.0665  1.2939 -0.2048
12325TIP3    H258467   4.063   0.765   3.314  0.5288 -0.0297  1.0667
12326TIP3   OH258468   2.450   1.890   5.091  0.5415 -0.1393 -0.5571
12326TIP3    H158469   2.534   1.922   5.057 -0.3547  1.5231 -1.3771
12326TIP3    H258470   2.386   1.917   5.025 -0.7531 -0.5156  0.4958
12327TIP3   OH258471   0.541   4.281  12.654  0.3497  0.2223 -0.3827
12327TIP3    H158472   0.566   4.257  12.565  0.5803  1.7425 -0.7549
12327TIP3    H258473   0.493   4.363  12.645 -0.2390  0.0457  0.8332
12328TIP3   OH258474   3.253   3.443   3.513 -1.2120 -0.0224 -0.4732
12328TIP3    H158475   3.257   3.347   3.505  0.7810  0.0498 -0.6033
12328TIP3    H258476   3.187   3.458   3.581 -2.5532 -1.4118 -1.3937
12329TIP3   OH258477   4.426   5.009   1.238 -0.4386  0.0363 -0.5670
12329TIP3    H158478   4.459   5.099   1.232  0.2187 -0.1855 -0.4287
12329TIP3    H258479   4.369   5.000   1.162  1.5392 -0.2354 -2.1028
12330TIP3   OH258480   2.775   2.243  16.678  0.2045  0.0041 -0.6200
12330TIP3    H158481   2.848   2.304  16.666 -1.5674  2.4181  0.0997
12330TIP3    H258482   2.699   2.299  16.692 -1.4621 -2.4107  0.7256
12331TIP3   OH258483   5.835   4.133  12.051  0.1122  0.0341  0.4500
12331TIP3    H158484   5.881   4.211  12.082 -1.2671  0.8128  0.6129
12331TIP3    H258485   5.878   4.060  12.096  1.3777  0.6966  0.3410
12332TIP3   OH258486   2.371   4.123   3.106  0.3256  0.3909 -0.2439
12332TIP3    H158487   2.398   4.210   3.135  2.0716  0.3200 -1.5216
12332TIP3    H258488   2.333   4.083   3.184  0.2780  1.9804  0.5950
12333TIP3   OH258489   6.369   0.194   0.418  0.1713 -0.5275 -0.0421
12333TIP3    H158490   6.285   0.152   0.401  0.6121 -1.7210  0.6304
12333TIP3    H258491   6.348   0.287   0.430 -0.9008 -0.6414 -0.9337
12334TIP3   OH258492   1.116   4.523   0.282  0.0349  0.4712 -0.3127
12334TIP3    H158493   1.166   4.564   0.353  1.1185  0.1668 -0.8745
12334TIP3    H258494   1.060   4.459   0.326  1.4539 -0.4667  0.2010
12335TIP3   OH258495   4.581   4.526  10.264  0.5903  0.1396  0.2594
12335TIP3    H158496   4.642   4.584  10.309 -0.5932  1.7861 -0.1396
12335TIP3    H258497   4.583   4.554  10.173  0.5591 -0.9907 -0.1116
12336TIP3   OH258498   5.120   1.475   4.373 -0.6825  0.3181  0.0764
12336TIP3    H158499   5.040   1.427   4.393 -0.3838  0.1330  0.8621
12336TIP3    H258500   5.117   1.489   4.278 -2.0855  1.1004  0.2013
12337TIP3   OH258501   5.823   1.343  14.666 -0.1362  1.0186  0.4321
12337TIP3    H158502   5.885   1.279  14.700  2.5230  1.0351 -3.7244
12337TIP3    H258503   5.855   1.427  14.697  0.1824  0.7931  0.7184
12338TIP3   OH258504   3.277   6.403   5.093 -0.7116  0.0357  0.1486
12338TIP3    H158505   3.355   6.351   5.075 -1.1282 -1.1206  1.4409
12338TIP3    H258506   3.204   6.347   5.065 -1.1806 -0.1867  1.7103
12339TIP3   OH258507   3.770   1.151   4.992  0.1096 -0.6327  0.1795
12339TIP3    H158508   3.737   1.063   4.972 -2.5222  0.6051 -1.3427
12339TIP3    H258509   3.799   1.186   4.908  0.6588  0.1542  0.6838
12340TIP3   OH258510   6.063   1.610   3.300  0.1250 -0.3061 -0.1129
12340TIP3    H158511   5.985   1.586   3.249  0.2672  1.1729 -1.0938
12340TIP3    H258512   6.038   1.691   3.343  1.0183  0.0105 -0.1866
12341TIP3   OH258513   4.334   0.693  14.093 -0.4921  0.1369  0.3554
12341TIP3    H158514   4.428   0.697  14.076 -0.3688  0.3707  1.0896
12341TIP3    H258515   4.297   0.664  14.010  0.4956 -2.8832  0.8144
12342TIP3   OH258516   2.972   0.017   2.703  0.6143 -0.4255  0.4087
12342TIP3    H158517   2.956   0.064   2.621 -0.1770 -1.0488  0.1875
12342TIP3    H258518   2.970  -0.076   2.678  0.9449 -0.6072  1.0368
12343TIP3   OH258519   4.552   2.078   2.000 -0.2489  0.5445  0.3708
12343TIP3    H158520   4.608   2.022   1.946  1.1857  2.6979 -0.5005
12343TIP3    H258521   4.544   2.031   2.083  2.1587 -0.2725  0.2117
12344TIP3   OH258522   5.209   1.596   5.351  0.2503 -0.2858  0.5473
12344TIP3    H158523   5.128   1.604   5.400  0.1930 -0.3888  0.4710
12344TIP3    H258524   5.183   1.607   5.259  0.7387  2.6728  0.6741
12345TIP3   OH258525   6.700   6.263   3.297  0.5451  0.0542 -0.5128
12345TIP3    H158526   6.684   6.349   3.259  0.3050  0.0154 -0.5051
12345TIP3    H258527   6.732   6.210   3.224  0.3821  0.0629 -0.5917
12346TIP3   OH258528   4.956   4.174  11.022  0.1323  0.7614  0.0182
12346TIP3    H158529   4.951   4.086  11.059 -1.8209  0.0258 -1.7471
12346TIP3    H258530   4.865   4.196  10.999  0.3923  3.6910  1.2950
12347TIP3   OH258531   2.811   0.305   3.515  0.0219  0.0294 -0.0840
12347TIP3    H158532   2.887   0.322   3.460  0.4639 -0.1002  0.4707
12347TIP3    H258533   2.832   0.348   3.598 -0.0790 -0.8302  0.3995
12348TIP3   OH258534   2.567   4.564  11.598  0.3050  0.0481 -0.6735
12348TIP3    H158535   2.578   4.660  11.600  0.9207 -0.0089 -0.9257
12348TIP3    H258536   2.656   4.531  11.586  0.0448 -0.5468 -0.9832
12349TIP3   OH258537   5.493   3.110  15.605  0.6582 -0.4348 -0.0466
12349TIP3    H158538   5.407   3.083  15.639 -0.3833  0.4057 -1.8786
12349TIP3    H258539   5.553   3.095  15.678 -1.0564 -0.9478  1.3327
12350TIP3   OH258540   2.112   6.848   5.123  1.0330  0.0032  0.7526
12350TIP3    H158541   2.084   6.925   5.073  1.5612  0.2736  0.8725
12350TIP3    H258542   2.034   6.822   5.172  0.5127 -0.2563 -0.1935
12351TIP3   OH258543   1.653   6.149  12.425  0.3925  0.3134 -0.4174
12351TIP3    H158544   1.746   6.174  12.422  0.6722 -0.3515  1.3854
12351TIP3    H258545   1.641   6.115  12.513 -1.3714 -0.4542 -0.9228
12352TIP3   OH258546   6.321   4.993  13.713 -0.4945 -0.0399 -0.3588
12352TIP3    H158547   6.286   4.948  13.636  0.3209  1.5220 -1.7198
12352TIP3    H258548   6.272   5.075  13.717 -0.7804 -0.2557  1.0296
12353TIP3   OH258549   2.136   0.110  13.208 -0.4822  0.1300  0.1751
12353TIP3    H158550   2.083   0.035  13.180 -1.6279  0.4259  1.4628
12353TIP3    H258551   2.087   0.148  13.281  0.2292  1.9575 -0.2505
12354TIP3   OH258552   1.115   4.614   2.068 -0.0633  0.5540 -0.1297
12354TIP3    H158553   1.054   4.580   2.133  1.1645  1.0267  1.3245
12354TIP3    H258554   1.176   4.542   2.052 -1.1961 -0.0925 -1.9472
12355TIP3   OH258555   0.792   3.771   1.039 -0.2811 -0.1398  0.4815
12355TIP3    H158556   0.874   3.780   0.991  0.3360  0.0041  1.5329
12355TIP3    H258557   0.724   3.793   0.975  0.5093  0.0117 -0.3241
12356TIP3   OH258558   2.094   0.651  12.341  0.3077 -0.3788  0.2135
12356TIP3    H158559   2.092   0.696  12.257  0.3710  0.9117  0.8774
12356TIP3    H258560   2.187   0.642  12.361  0.2910 -0.4352  0.2665
12357TIP3   OH258561   5.219   4.418  13.711  0.2097  0.1617 -0.1628
12357TIP3    H158562   5.231   4.356  13.783 -0.3412 -0.8129 -0.8934
12357TIP3    H258563   5.287   4.396  13.648 -1.1292 -0.9547 -1.2650
12358TIP3   OH258564   5.403   3.016  14.767  0.2517 -0.4569 -0.1381
12358TIP3    H158565   5.445   3.060  14.693  0.4875  0.5424  0.5831
12358TIP3    H258566   5.346   2.951  14.726 -0.0966  0.5015 -1.2313
12359TIP3   OH258567   6.105   5.605   1.443  0.5455  0.3827 -0.0142
12359TIP3    H158568   6.153   5.552   1.379 -0.9643 -1.8732  0.5992
12359TIP3    H258569   6.013   5.588   1.423  0.0457  0.5211  2.0106
12360TIP3   OH258570   1.808   4.217  14.844 -0.2823 -0.5939  0.3410
12360TIP3    H158571   1.849   4.186  14.763 -0.7527 -0.4794  0.0531
12360TIP3    H258572   1.879   4.256  14.893 -0.4669  2.2061 -1.3961
12361TIP3   OH258573   4.591   1.809  16.548  0.4696  0.5027  0.9325
12361TIP3    H158574   4.558   1.758  16.474 -0.2595  0.9180  0.9623
12361TIP3    H258575   4.597   1.899  16.515  1.2313  0.5036  1.0411
12362TIP3   OH258576   4.167   0.720   1.969 -0.3898  0.0355 -0.0602
12362TIP3    H158577   4.239   0.673   1.927 -1.1524 -1.5363  0.3084
12362TIP3    H258578   4.101   0.730   1.900  0.0092  1.1479 -0.3011
12363TIP3   OH258579   1.343   4.781   1.267 -0.2151  0.3476 -0.1664
12363TIP3    H158580   1.372   4.834   1.341 -0.5784  0.7202 -0.2885
12363TIP3    H258581   1.407   4.798   1.198 -1.3646  2.1264 -0.8549
12364TIP3   OH258582   1.965   4.124   1.294  0.1940 -0.3084  0.1716
12364TIP3    H158583   1.957   4.051   1.354  0.7277 -0.5616 -0.0549
12364TIP3    H258584   1.886   4.176   1.308  1.2564  0.7828  2.6038
12365TIP3   OH258585   3.772   3.098   4.393  0.4056  0.1453  0.1471
12365TIP3    H158586   3.754   3.004   4.405  0.7895  0.1648  0.9697
12365TIP3    H258587   3.815   3.103   4.308  1.1162 -0.5389  0.4464
12366TIP3   OH258588   1.553   2.332  17.013 -0.1331 -0.0190  0.1723
12366TIP3    H158589   1.528   2.242  16.992 -5.2281  1.2713 -0.6359
12366TIP3    H258590   1.533   2.341  17.106 -2.0766  0.8370 -0.2923
12367TIP3   OH258591   5.846   0.577  13.555  0.0007 -0.5366  0.2754
12367TIP3    H158592   5.833   0.584  13.460  0.0364  0.5537  0.3432
12367TIP3    H258593   5.760   0.598  13.592  0.1098 -0.4924  0.5037
12368TIP3   OH258594   2.070   3.447   4.448  0.1537  0.2442 -0.0053
12368TIP3    H158595   1.990   3.404   4.418  0.6841 -0.4224 -0.4741
12368TIP3    H258596   2.135   3.428   4.381  0.5876  1.2022  0.1163
12369TIP3   OH258597   1.989   0.908  11.084 -0.2726 -0.2579  0.1052
12369TIP3    H158598   2.012   0.816  11.069 -0.0158  0.0785 -1.8111
12369TIP3    H258599   1.895   0.913  11.065 -0.0405  0.0902 -1.0068
12370TIP3   OH258600   3.764   5.449  11.901  0.0186 -0.7317  0.3861
12370TIP3    H158601   3.769   5.450  11.805  4.4160 -2.2430  0.3715
12370TIP3    H258602   3.717   5.368  11.922  0.4850 -1.2637 -0.5604
12371TIP3   OH258603   4.297   4.063   3.348 -0.1490 -0.2223 -0.3563
12371TIP3    H158604   4.226   4.128   3.343  1.1588  1.3499  0.3940
12371TIP3    H258605   4.275   4.009   3.423 -2.4213 -2.2072 -2.2805
12372TIP3   OH258606   3.800   0.043   2.547  0.4274 -0.7983 -0.4692
12372TIP3    H158607   3.808  -0.052   2.547 -1.2785 -0.9777 -1.5218
12372TIP3    H258608   3.802   0.067   2.640 -0.2514 -1.9854 -0.1239
12373TIP3   OH258609   6.166   2.351  16.418 -0.3397  0.0106  0.2049
12373TIP3    H158610   6.100   2.403  16.465 -0.5216 -0.3789  0.3882
12373TIP3    H258611   6.250   2.392  16.442 -0.6414  3.1170 -3.2102
12374TIP3   OH258612   4.147   2.855   0.251  0.0979  0.1036 -0.4209
12374TIP3    H158613   4.116   2.943   0.229  1.1517  1.4947  2.8570
12374TIP3    H258614   4.072   2.798   0.237 -1.9068  2.2084  0.9143
12375TIP3   OH258615   0.992   3.333  11.414  0.5132  0.8011 -0.1110
12375TIP3    H158616   0.948   3.268  11.360  1.6700 -0.0623 -0.0514
12375TIP3    H258617   1.049   3.381  11.354  0.3099  1.1918 -0.0001
12376TIP3   OH258618   4.918   5.835  14.932  0.0414  0.0831  0.0093
12376TIP3    H158619   4.984   5.886  14.980  0.3723  1.3924 -1.7430
12376TIP3    H258620   4.965   5.759  14.900  0.4577  0.4967 -0.3706
12377TIP3   OH258621   1.510   3.431  16.802  0.0988  0.1748  0.3594
12377TIP3    H158622   1.572   3.442  16.873  0.7128 -1.1450  0.0527
12377TIP3    H258623   1.526   3.343  16.769 -0.2547  0.7050 -1.3314
12378TIP3   OH258624   3.987   2.141  11.371  0.7292  0.8076  0.1756
12378TIP3    H158625   3.953   2.121  11.284 -0.2352  1.0233  0.4876
12378TIP3    H258626   4.063   2.084  11.381  1.3324  1.3492 -1.1147
12379TIP3   OH258627   6.599   3.667   5.548 -0.7244 -0.1409 -0.1098
12379TIP3    H158628   6.585   3.577   5.578 -1.9919 -0.4773 -1.5657
12379TIP3    H258629   6.631   3.713   5.625 -0.5818 -1.7056  0.8177
12380TIP3   OH258630   4.522   2.559   5.517  0.2248 -0.0493 -0.3777
12380TIP3    H158631   4.582   2.601   5.456  1.9772 -1.3795  0.3286
12380TIP3    H258632   4.532   2.607   5.599 -1.0840  0.8592 -0.7152
12381TIP3   OH258633   6.395   2.121   1.076 -0.2667 -0.2280  0.6092
12381TIP3    H158634   6.451   2.066   1.132  2.5063  0.1295 -1.5728
12381TIP3    H258635   6.351   2.059   1.018  0.6075 -0.3527  0.0608
12382TIP3   OH258636   4.505   4.709   4.871  0.7370  0.4119  0.0029
12382TIP3    H158637   4.553   4.629   4.851  0.9286  0.3043  0.8528
12382TIP3    H258638   4.450   4.685   4.946  2.8957  1.8124  2.1676
12383TIP3   OH258639   4.393   0.888  15.679 -0.0836 -0.5883 -0.1896
12383TIP3    H158640   4.375   0.969  15.631  1.9115 -1.1427 -2.0466
12383TIP3    H258641   4.431   0.917  15.762 -0.2078  0.3883 -0.4618
12384TIP3   OH258642   6.296   5.561   1.266  0.1888  0.5400 -0.4966
12384TIP3    H158643   6.326   5.582   1.178 -0.1358 -0.2711 -0.8090
12384TIP3    H258644   6.373   5.525   1.311 -0.0445 -0.5453 -0.9586
12385TIP3   OH258645   0.318   2.811  10.897  0.5364  1.0705 -0.3303
12385TIP3    H158646   0.289   2.779  10.982 -1.1511 -0.3727 -1.3880
12385TIP3    H258647   0.341   2.903  10.912  0.2113  0.8634  1.6394
12386TIP3   OH258648   5.529   5.296   1.810 -0.6960  0.2315  0.2559
12386TIP3    H158649   5.525   5.206   1.777  0.6251  0.3290 -0.2399
12386TIP3    H258650   5.466   5.298   1.882 -0.1872 -1.2999  0.7710
12387TIP3   OH258651   5.298   3.474  12.636 -0.6255  0.2687 -0.2498
12387TIP3    H158652   5.287   3.518  12.721  0.4353 -0.6708  0.4075
12387TIP3    H258653   5.213   3.483  12.594 -0.9293  1.4882  0.5565
12388TIP3   OH258654   2.158   4.526  12.178 -0.3267 -0.3368 -0.0980
12388TIP3    H158655   2.158   4.483  12.263 -2.3314  0.5889  0.4300
12388TIP3    H258656   2.128   4.459  12.117  0.6932 -0.8762 -0.0268
12389TIP3   OH258657   0.938   3.880   3.383  0.0413  0.2293  1.1780
12389TIP3    H158658   0.984   3.957   3.418  1.9439 -0.3370  0.0967
12389TIP3    H258659   0.970   3.807   3.436  0.7616 -0.2369  0.1295
12390TIP3   OH258660   4.550   6.498   0.030 -0.0349  0.2598 -0.1124
12390TIP3    H158661   4.604   6.574   0.050  1.1961 -0.3123 -1.1104
12390TIP3    H258662   4.510   6.517  -0.054 -2.2930  1.1125  1.0643
12391TIP3   OH258663   0.037   3.824   6.333  0.2150 -0.8683 -0.2985
12391TIP3    H158664  -0.019   3.864   6.266 -1.3257 -1.2830  0.6909
12391TIP3    H258665  -0.024   3.779   6.391  1.5007 -0.4552  1.4395
12392TIP3   OH258666   5.166   3.395   4.490 -0.1706 -0.2930  0.6821
12392TIP3    H158667   5.240   3.454   4.474 -0.2293 -0.2511  0.5649
12392TIP3    H258668   5.118   3.394   4.407 -0.2139 -0.4428  0.7081
12393TIP3   OH258669   3.788   0.426  11.830 -0.5787 -0.1503 -0.5940
12393TIP3    H158670   3.862   0.377  11.793  0.5563  2.2271 -1.7261
12393TIP3    H258671   3.826   0.475  11.902 -1.2759  0.3938 -0.5935
12394TIP3   OH258672   5.600   0.101  11.374 -0.3449 -0.3324 -0.3713
12394TIP3    H158673   5.689   0.068  11.359 -0.3916 -0.5836 -0.1055
12394TIP3    H258674   5.589   0.096  11.468 -0.0974  1.1237 -0.2501
12395TIP3   OH258675   0.921   3.717  15.628 -0.2778 -0.2626 -0.1354
12395TIP3    H158676   0.862   3.642  15.621  0.1223 -0.5448 -0.5105
12395TIP3    H258677   0.864   3.793  15.617 -0.6472 -0.5153  0.0047
12396TIP3   OH258678   2.710   6.690  16.922 -0.0249  0.1781  0.0516
12396TIP3    H158679   2.782   6.753  16.930 -0.1289  0.5450 -1.5179
12396TIP3    H258680   2.632   6.739  16.948  0.0515  0.3628 -0.0627
12397TIP3   OH258681   3.437   2.456   0.096  0.5863  0.0003 -0.3165
12397TIP3    H158682   3.450   2.541   0.053 -0.1058  0.0946 -0.3459
12397TIP3    H258683   3.380   2.407   0.037 -0.6400  0.2481  0.6012
12398TIP3   OH258684   4.020   5.329  15.860 -0.1908 -0.1329 -0.1640
12398TIP3    H158685   4.099   5.334  15.915 -1.0721 -0.9369  1.2448
12398TIP3    H258686   4.037   5.256  15.801  1.0002  1.0889 -1.4091
12399TIP3   OH258687   0.233   6.665   4.335 -0.0777 -0.4739  0.1013
12399TIP3    H158688   0.187   6.585   4.310 -0.6740 -0.8070  2.1160
12399TIP3    H258689   0.317   6.636   4.370  0.6654 -0.0269 -1.2216
12400TIP3   OH258690   1.516   5.119   1.509  0.1480 -0.3523 -0.0097
12400TIP3    H158691   1.512   5.215   1.502  0.7661 -0.0988  2.3455
12400TIP3    H258692   1.603   5.102   1.544 -0.9116 -1.5404  2.2483
12401TIP3   OH258693   6.086   2.169   4.274  0.2172  0.9496 -0.2722
12401TIP3    H158694   6.087   2.224   4.196  3.4740 -1.2486 -1.9762
12401TIP3    H258695   6.138   2.218   4.338  1.4497  0.7912 -1.1139
12402TIP3   OH258696   4.504   0.344   1.819  0.5256 -0.0702 -0.3539
12402TIP3    H158697   4.596   0.329   1.840  0.1103 -0.7679  1.1208
12402TIP3    H258698   4.461   0.262   1.843 -0.4707  0.1961 -1.1551
12403TIP3   OH258699   2.354   4.357  15.880 -0.6998  0.6507  0.0201
12403TIP3    H158700   2.337   4.284  15.821  0.7326  1.5147 -1.5782
12403TIP3    H258701   2.322   4.434  15.832  0.5377  1.3812  0.3056
12404TIP3   OH258702   2.659   5.093  13.177 -0.3532  0.0450  0.2800
12404TIP3    H158703   2.573   5.134  13.165 -0.3710 -0.2052 -0.5331
12404TIP3    H258704   2.699   5.096  13.090 -0.8854 -2.7980 -0.1557
12405TIP3   OH258705   1.770   2.440  11.169  0.1028  1.0686 -0.7859
12405TIP3    H158706   1.861   2.414  11.183 -0.0797  0.6220 -0.4202
12405TIP3    H258707   1.743   2.394  11.090  0.0965  0.9659 -0.7229
12406TIP3   OH258708   2.894   5.514   4.150  0.0111  0.4795 -0.0949
12406TIP3    H158709   2.833   5.516   4.077  0.6653  2.3210 -0.6597
12406TIP3    H258710   2.962   5.578   4.127  0.4092  0.8904  1.9536
12407TIP3   OH258711   6.316   3.610  14.904  0.0993  0.5367  0.4678
12407TIP3    H158712   6.305   3.531  14.956  1.0050 -0.7971 -1.2600
12407TIP3    H258713   6.404   3.641  14.927 -0.8335  2.0111  2.3139
12408TIP3   OH258714   2.980   1.598   0.588 -0.2827  0.1745  0.0632
12408TIP3    H158715   2.911   1.591   0.522  0.0493 -1.3171 -0.1600
12408TIP3    H258716   3.026   1.679   0.565 -2.4204  1.6775  0.7195
12409TIP3   OH258717   3.023   4.789  13.243  0.1270 -0.1362 -0.3882
12409TIP3    H158718   3.106   4.833  13.223  0.3023 -0.7783 -1.1425
12409TIP3    H258719   3.049   4.700  13.268 -0.1600  0.3620  1.9042
12410TIP3   OH258720   3.112   6.256  11.448  0.9412  0.2570  0.2019
12410TIP3    H158721   3.041   6.257  11.384  0.8477  2.5558  0.2655
12410TIP3    H258722   3.159   6.175  11.430 -0.3161 -0.1749 -1.3778
12411TIP3   OH258723   5.568   2.534  11.802  0.3526 -0.2793 -0.7318
12411TIP3    H158724   5.569   2.503  11.893  0.8436 -0.1306 -0.6821
12411TIP3    H258725   5.652   2.579  11.791 -0.0762  0.4747 -0.9968
12412TIP3   OH258726   1.579   5.723   3.796  0.6370  0.1571  0.0077
12412TIP3    H158727   1.670   5.736   3.768 -0.4131  1.7302 -3.2232
12412TIP3    H258728   1.554   5.806   3.836  0.7969 -0.5760  1.7299
12413TIP3   OH258729   1.438   6.269  16.228  0.8835 -0.3499  0.4969
12413TIP3    H158730   1.393   6.218  16.161  0.6763 -0.0856  0.4304
12413TIP3    H258731   1.409   6.359  16.212  0.9866 -0.2597  0.8210
12414TIP3   OH258732   0.831   0.649   5.606  0.1816 -0.0557 -0.0206
12414TIP3    H158733   0.892   0.694   5.547  0.2585 -0.5979 -0.3583
12414TIP3    H258734   0.769   0.717   5.632  2.0635  1.0285  1.9142
12415TIP3   OH258735   2.859   4.580   6.472  0.8106  0.3180 -0.7145
12415TIP3    H158736   2.882   4.628   6.552  0.8733 -0.3173 -0.3437
12415TIP3    H258737   2.776   4.620   6.444 -0.1167 -0.5533  0.6247
12416TIP3   OH258738   5.028   4.315   4.125 -0.1030 -0.1443 -0.2645
12416TIP3    H158739   5.001   4.397   4.084 -1.8335 -0.9923 -0.9351
12416TIP3    H258740   4.947   4.278   4.161  0.5155 -1.8429 -0.4997
12417TIP3   OH258741   1.777   5.112   4.377  0.1365 -0.5491 -0.4158
12417TIP3    H158742   1.705   5.105   4.440 -1.0449  0.3221 -1.6241
12417TIP3    H258743   1.787   5.023   4.342  0.9718 -1.1007  1.1234
12418TIP3   OH258744   4.286   3.626  12.314 -0.9845 -0.0006  0.2735
12418TIP3    H158745   4.280   3.620  12.218 -1.7655 -0.6338  0.3514
12418TIP3    H258746   4.308   3.718  12.330  0.9891 -0.2808 -0.5719
12419TIP3   OH258747   3.719   0.698  17.028 -0.0096  0.0691 -0.2620
12419TIP3    H158748   3.691   0.757  17.098  0.8569 -0.4413  0.5468
12419TIP3    H258749   3.736   0.755  16.953 -1.4291  0.5703 -0.2258
12420TIP3   OH258750   2.814   6.581   2.370 -0.5345  1.0317  0.4116
12420TIP3    H158751   2.850   6.669   2.370 -1.1298  1.3199 -1.8175
12420TIP3    H258752   2.843   6.542   2.288  0.1053 -1.0511  1.5499
12421TIP3   OH258753   5.977   6.501  11.229 -0.2057  0.8360  0.3054
12421TIP3    H158754   5.943   6.514  11.140 -1.3835  0.8047  0.7394
12421TIP3    H258755   6.030   6.421  11.222 -1.0963  0.2652 -0.1659
12422TIP3   OH258756   3.542   0.218  15.704  0.0344  0.4380 -0.2028
12422TIP3    H158757   3.563   0.275  15.779 -0.0318 -0.3015  0.3868
12422TIP3    H258758   3.627   0.202  15.663  0.1217  0.5327 -0.0621
12423TIP3   OH258759   4.187   1.719  12.154  0.1597  0.2075 -0.2372
12423TIP3    H158760   4.119   1.696  12.089  0.7999 -1.7299 -0.2900
12423TIP3    H258761   4.195   1.641  12.209  0.0471  1.5985  1.8667
12424TIP3   OH258762   2.937   3.686  11.508 -0.4927  0.7408  0.2550
12424TIP3    H158763   3.013   3.645  11.467 -0.3807  0.5638  0.6386
12424TIP3    H258764   2.961   3.778  11.516 -0.7845  0.9132 -0.7017
12425TIP3   OH258765   5.382   1.433  14.718 -0.0690  0.1834  0.0846
12425TIP3    H158766   5.320   1.488  14.671  0.7134  0.0653 -1.1144
12425TIP3    H258767   5.463   1.484  14.720 -0.4323  0.8035  2.5676
12426TIP3   OH258768   3.610   6.853  12.986  0.1912 -0.2136  0.2130
12426TIP3    H158769   3.595   6.932  13.037  0.5880  0.8554 -1.2533
12426TIP3    H258770   3.699   6.826  13.007  0.2994  0.1325  0.1997
12427TIP3   OH258771   2.493   1.342  14.022 -0.1982 -1.1305  0.1862
12427TIP3    H158772   2.479   1.309  13.934  0.9807 -0.9598 -0.0739
12427TIP3    H258773   2.458   1.274  14.080 -2.2376 -0.6540 -0.4020
12428TIP3   OH258774   2.678   4.377  15.643 -0.4975 -0.5531 -0.1599
12428TIP3    H158775   2.617   4.450  15.633  0.1988 -0.0230 -0.6023
12428TIP3    H258776   2.663   4.346  15.732 -0.1171  0.7610  0.3860
12429TIP3   OH258777   2.194   6.392  15.931  0.7400  0.0013  0.1492
12429TIP3    H158778   2.256   6.460  15.956  1.0501 -0.1770 -0.1327
12429TIP3    H258779   2.222   6.314  15.980 -0.3102  0.3652  1.3817
12430TIP3   OH258780   2.722   2.812  11.128 -0.1924  0.1727 -0.3819
12430TIP3    H158781   2.751   2.758  11.056  0.6302  1.6151 -1.1891
12430TIP3    H258782   2.767   2.777  11.205  1.7642  0.7943 -1.1948
12431TIP3   OH258783   3.398   1.415   2.390  0.1599 -0.2491 -0.4095
12431TIP3    H158784   3.400   1.508   2.410  1.6453 -0.2353 -0.4967
12431TIP3    H258785   3.366   1.373   2.470 -0.2831  0.3076 -0.2924
12432TIP3   OH258786   1.468   0.758  16.558 -0.0506 -0.1922  0.9162
12432TIP3    H158787   1.537   0.694  16.575  0.7367  0.4019  0.0756
12432TIP3    H258788   1.413   0.756  16.636 -0.0260 -1.8557  0.9138
12433TIP3   OH258789   0.167   2.960   0.889 -0.3712 -0.4284 -0.1050
12433TIP3    H158790   0.249   3.005   0.907 -0.4086 -0.7402  0.9038
12433TIP3    H258791   0.184   2.868   0.911 -1.0831 -0.4373  0.4713
12434TIP3   OH258792   4.242   6.568  13.115  0.2295  0.3785 -1.2809
12434TIP3    H158793   4.221   6.488  13.162  0.0868  1.9265  1.5140
12434TIP3    H258794   4.180   6.571  13.043 -1.5323 -0.7306  0.1064
12435TIP3   OH258795   1.542   1.990  12.402  0.2576 -1.4025  0.1729
12435TIP3    H158796   1.491   1.916  12.434 -3.5309  0.5346 -0.8361
12435TIP3    H258797   1.515   2.064  12.456 -0.1460  0.2673 -2.1521
12436TIP3   OH258798   2.978   1.566   5.276 -0.0025 -0.0604 -0.1987
12436TIP3    H158799   2.921   1.606   5.342  0.2225 -0.3458  0.1731
12436TIP3    H258800   3.067   1.588   5.305  0.1400 -1.1361  0.2215
12437TIP3   OH258801   0.282   6.186  17.054 -0.6875 -0.2303  0.4625
12437TIP3    H158802   0.331   6.162  16.976  1.2850 -0.6631  1.7722
12437TIP3    H258803   0.190   6.168  17.032 -0.1051 -1.0098 -1.4769
12438TIP3   OH258804   0.545   2.293   3.884  0.3368  0.6302 -0.3295
12438TIP3    H158805   0.526   2.386   3.871 -0.2293  0.3877 -1.3549
12438TIP3    H258806   0.601   2.290   3.961 -0.4283  1.7463  0.2951
12439TIP3   OH258807   6.448   5.520  14.052  0.1192 -0.0447 -0.4431
12439TIP3    H158808   6.355   5.532  14.074 -0.1353  3.1677 -2.5846
12439TIP3    H258809   6.495   5.578  14.111  0.6711 -0.7107 -0.2133
12440TIP3   OH258810   6.223   4.967   5.030  0.0251 -0.2452  0.4023
12440TIP3    H158811   6.184   5.043   5.073  0.7996 -0.6322  1.8961
12440TIP3    H258812   6.158   4.898   5.039 -0.4425  0.0834 -0.4332
12441TIP3   OH258813   4.698   2.861  12.427 -0.2730 -0.5870  0.2890
12441TIP3    H158814   4.704   2.956  12.438 -0.0132 -0.4574 -0.8981
12441TIP3    H258815   4.607   2.846  12.401  0.4847 -0.2475 -2.9777
12442TIP3   OH258816   0.868   3.096  12.790 -0.1746 -0.4335 -0.1466
12442TIP3    H158817   0.789   3.092  12.736  0.5091 -1.7642 -1.1052
12442TIP3    H258818   0.835   3.096  12.880 -1.3044  0.8946 -0.5255
12443TIP3   OH258819   5.120   3.989   1.566  0.7047  0.0822  0.4474
12443TIP3    H158820   5.089   3.900   1.582  0.6689  0.0221  0.0419
12443TIP3    H258821   5.094   4.009   1.477 -1.1442  1.2770  1.1933
12444TIP3   OH258822   4.197   5.121   5.300 -0.8017 -0.2191 -0.3741
12444TIP3    H158823   4.281   5.119   5.254  0.2491  0.7355  1.3919
12444TIP3    H258824   4.131   5.114   5.230  0.7173 -1.0870 -1.7951
12445TIP3   OH258825   5.262   6.749  15.574 -0.5823 -0.2850  0.0684
12445TIP3    H158826   5.302   6.666  15.547  1.7580  1.0946 -1.0543
12445TIP3    H258827   5.246   6.795  15.492 -2.5225  0.1362  0.6436
12446TIP3   OH258828   3.116   0.190   3.786  0.3178 -0.3331  0.1143
12446TIP3    H158829   3.077   0.107   3.815  1.0713 -0.5721  0.4874
12446TIP3    H258830   3.152   0.229   3.866 -1.1684  1.0104  0.1741
12447TIP3   OH258831   2.991   1.361   0.780 -0.8152 -0.0558  0.0878
12447TIP3    H158832   3.004   1.441   0.730 -0.7950  0.2733  0.6177
12447TIP3    H258833   2.905   1.372   0.820 -0.4202  0.1100  0.9105
12448TIP3   OH258834   5.144   3.303   0.760 -0.1260 -0.1265 -0.2265
12448TIP3    H158835   5.126   3.361   0.834 -0.3583  1.6994 -1.6614
12448TIP3    H258836   5.240   3.296   0.757 -0.0193  1.2904 -0.8186
12449TIP3   OH258837   1.507   5.607  11.153 -0.1299  0.3360  0.2930
12449TIP3    H158838   1.484   5.631  11.064 -0.4001 -1.1114 -0.0482
12449TIP3    H258839   1.522   5.691  11.197  1.6320  1.0517 -1.5149
12450TIP3   OH258840   3.968   6.559   3.399  0.1011  0.0378  0.2880
12450TIP3    H158841   3.919   6.511   3.332  0.4918 -0.5226  0.3931
12450TIP3    H258842   4.060   6.544   3.377  0.2684  2.0101 -0.5654
12451TIP3   OH258843   2.088   1.464  12.552  0.0930  0.1053 -0.5986
12451TIP3    H158844   2.082   1.527  12.480 -1.1238  0.4496 -0.2122
12451TIP3    H258845   2.141   1.508  12.618 -1.1096  0.9098 -0.1547
12452TIP3   OH258846   2.934   2.440   5.645 -0.6848 -0.1335 -0.1952
12452TIP3    H158847   2.859   2.438   5.704 -0.4557  0.6680  0.1344
12452TIP3    H258848   2.985   2.515   5.673  0.1138 -0.5145 -0.5815
12453TIP3   OH258849   5.326   5.279  16.950 -0.2555  0.3659  0.5463
12453TIP3    H158850   5.325   5.366  16.910 -1.6584  0.1587  0.0482
12453TIP3    H258851   5.391   5.230  16.899 -0.1310  0.8655  0.2180
12454TIP3   OH258852   6.841   5.017  10.475 -0.2341  0.1784  0.1219
12454TIP3    H158853   6.825   5.056  10.560 -0.0615  1.8486 -0.5701
12454TIP3    H258854   6.869   4.927  10.494 -1.4773  0.0869  1.7380
12455TIP3   OH258855   3.124   5.461   5.788  0.2273  0.3062 -0.1418
12455TIP3    H158856   3.032   5.488   5.788  0.5663  1.5102  0.2856
12455TIP3    H258857   3.169   5.527   5.840  1.6810  0.9531 -2.1028
12456TIP3   OH258858   3.179   5.018  12.399  0.3359  0.6009 -0.0233
12456TIP3    H158859   3.249   4.954  12.388 -0.4034 -0.2260 -0.0406
12456TIP3    H258860   3.167   5.056  12.312  0.0563 -0.0158 -0.2606
12457TIP3   OH258861   5.451   3.108  15.327 -0.5753  0.4007  0.2769
12457TIP3    H158862   5.535   3.147  15.349 -1.3831  1.2381  2.0322
12457TIP3    H258863   5.416   3.076  15.410 -1.0425 -1.9603 -0.7393
12458TIP3   OH258864   5.212   3.932  12.421  0.1911  0.2538 -0.6222
12458TIP3    H158865   5.206   3.921  12.516 -2.0656 -1.8149 -0.9207
12458TIP3    H258866   5.292   3.885  12.396 -0.6348 -1.5960  0.0219
12459TIP3   OH258867   2.044   1.531  11.566 -0.4008 -0.6163  0.3883
12459TIP3    H158868   1.957   1.504  11.595  0.5775 -1.6396  2.5986
12459TIP3    H258869   2.072   1.462  11.506 -1.3767  0.1303 -0.9878
12460TIP3   OH258870   1.282   4.601  15.735 -0.2056 -0.0529 -0.2909
12460TIP3    H158871   1.337   4.678  15.724 -0.6775  0.3471  0.1141
12460TIP3    H258872   1.318   4.536  15.674  0.3779  0.3828 -0.4129
12461TIP3   OH258873   4.613   4.286   5.509  0.5434  0.2031  0.2307
12461TIP3    H158874   4.648   4.323   5.428 -0.1184 -0.6491 -0.4669
12461TIP3    H258875   4.689   4.278   5.567  1.1277  0.2914 -0.5114
12462TIP3   OH258876   4.751   3.767  15.279  0.8196 -0.2493 -0.3329
12462TIP3    H158877   4.691   3.703  15.317  2.5379 -0.8048  1.6529
12462TIP3    H258878   4.704   3.850  15.283 -0.3846 -0.9154 -0.2929
12463TIP3   OH258879   4.632   5.631  14.049 -0.2847 -0.3781  0.1743
12463TIP3    H158880   4.688   5.564  14.090 -0.9386 -0.9758  0.1123
12463TIP3    H258881   4.651   5.625  13.956  0.8604  0.6609  0.3194
12464TIP3   OH258882   1.990   4.370   1.856 -0.2027 -0.2095  0.0269
12464TIP3    H158883   2.058   4.308   1.879 -0.2405  0.1390  1.1226
12464TIP3    H258884   1.955   4.337   1.773  0.4041 -1.1174  0.1151
12465TIP3   OH258885   4.904   6.632  12.253 -0.3659  0.0165  0.0759
12465TIP3    H158886   4.903   6.634  12.157  2.0671 -2.0234 -0.0852
12465TIP3    H258887   4.910   6.724  12.278  2.6621  0.5176 -1.9295
12466TIP3   OH258888   0.306   2.377  12.125  0.3784 -0.1212  0.0518
12466TIP3    H158889   0.352   2.311  12.074 -1.1566 -0.5565 -0.8522
12466TIP3    H258890   0.213   2.361  12.107 -0.0569  2.2606 -0.2099
12467TIP3   OH258891   0.898   0.578  16.359 -0.2548  0.5515  0.2022
12467TIP3    H158892   0.896   0.506  16.296  1.0054 -0.8413  1.6501
12467TIP3    H258893   0.869   0.655  16.310 -0.7921 -0.7686 -1.6330
12468TIP3   OH258894   1.162   2.980  16.858  0.2029  0.8630  0.2996
12468TIP3    H158895   1.182   2.984  16.764  1.7995  2.1254  0.6357
12468TIP3    H258896   1.074   3.015  16.865 -0.8548 -1.3377 -0.9125
12469TIP3   OH258897   0.285   4.345  11.764  0.5257  0.0956  0.4628
12469TIP3    H158898   0.231   4.392  11.701 -0.1615  0.0137  0.9864
12469TIP3    H258899   0.357   4.405  11.784  0.4259  0.3535  0.0559
12470TIP3   OH258900   0.614   6.589   3.636 -0.1487 -0.0943  0.2329
12470TIP3    H158901   0.549   6.608   3.569 -0.8142  0.1094  0.9177
12470TIP3    H258902   0.563   6.550   3.708  0.4614  0.2176  0.8411
12471TIP3   OH258903   6.037   1.744  14.115 -0.0394 -0.2210  0.1637
12471TIP3    H158904   6.018   1.837  14.101 -0.7028 -0.5320 -1.1198
12471TIP3    H258905   6.085   1.717  14.036 -1.6631 -1.4422 -0.4749
12472TIP3   OH258906   6.022   3.484  10.211 -0.2530  0.4725 -0.3222
12472TIP3    H158907   6.005   3.450  10.298  1.9432  1.9085  0.7686
12472TIP3    H258908   5.977   3.569  10.208  1.0824  1.2271  0.1169
12473TIP3   OH258909   1.138   6.054  13.850 -0.3369 -0.1872 -0.5929
12473TIP3    H158910   1.166   5.965  13.826 -0.7442 -0.1389 -1.2667
12473TIP3    H258911   1.147   6.057  13.945  2.8970  0.1294 -0.7841
12474TIP3   OH258912   1.251   4.308   4.540 -0.3939  0.2355 -0.5262
12474TIP3    H158913   1.273   4.282   4.451  0.6881 -0.9013  0.0342
12474TIP3    H258914   1.158   4.329   4.537 -0.9315 -1.9793 -1.4787
12475TIP3   OH258915   0.958   1.753  12.777  0.3247 -0.5925 -0.3438
12475TIP3    H158916   0.878   1.717  12.740  0.2873 -1.2283  0.3316
12475TIP3    H258917   0.990   1.685  12.837  1.6133 -0.5323 -0.9292
12476TIP3   OH258918   5.181   4.190   0.712 -0.3928 -0.1781 -0.8017
12476TIP3    H158919   5.129   4.258   0.754  0.3574 -0.3977  0.5356
12476TIP3    H258920   5.128   4.160   0.639 -1.4533  0.6793 -0.3977
12477TIP3   OH258921   4.404   2.023   5.256 -0.5752  0.3697  0.5889
12477TIP3    H158922   4.386   1.944   5.206  0.0416  0.6421 -0.0876
12477TIP3    H258923   4.363   2.008   5.341 -1.6268 -0.1110  0.0150
12478TIP3   OH258924   6.813   0.656  14.557 -0.0693 -0.1897  0.3566
12478TIP3    H158925   6.788   0.563  14.552 -1.0792  0.0453  0.9565
12478TIP3    H258926   6.763   0.691  14.630  0.2644  0.8539  0.0991
12479TIP3   OH258927   4.723   0.563   3.593 -0.1352  0.5848  0.0158
12479TIP3    H158928   4.789   0.512   3.546 -1.8089 -0.2124 -1.6087
12479TIP3    H258929   4.639   0.532   3.558 -1.4145  1.3927  2.1395
12480TIP3   OH258930   1.864   5.799   3.748 -0.2580  0.0823 -0.0185
12480TIP3    H158931   1.921   5.870   3.717  0.8247 -0.5673  0.4277
12480TIP3    H258932   1.893   5.784   3.838 -0.0342 -1.3528 -0.3158
12481TIP3   OH258933   3.751   5.517  15.113 -0.0097 -0.2833 -0.1825
12481TIP3    H158934   3.711   5.586  15.165  0.9006  0.5424 -0.5393
12481TIP3    H258935   3.677   5.470  15.074 -0.6554  0.0074  0.6753
12482TIP3   OH258936   5.651   2.241   5.041  0.0743 -0.3126  0.1229
12482TIP3    H158937   5.623   2.317   5.092  1.1979  0.9938 -1.1149
12482TIP3    H258938   5.746   2.253   5.032  0.5813 -2.8143  1.3790
12483TIP3   OH258939   1.584   4.674  11.400  0.9622 -0.2108 -0.3209
12483TIP3    H158940   1.652   4.646  11.338  0.8475 -1.2441 -0.0061
12483TIP3    H258941   1.566   4.595  11.452 -0.6581 -0.0283 -0.5638
12484TIP3   OH258942   5.333   4.372  15.025  0.1444 -0.0479 -0.0833
12484TIP3    H158943   5.257   4.401  14.974  0.4949 -0.0252 -0.6010
12484TIP3    H258944   5.348   4.282  14.996 -0.2412 -0.3675  0.6880
12485TIP3   OH258945   2.701   4.851   2.187 -0.4086  0.1818 -0.4597
12485TIP3    H158946   2.732   4.917   2.125  1.5421 -1.0272 -0.8341
12485TIP3    H258947   2.679   4.775   2.134  0.1550 -0.4677  0.2101
12486TIP3   OH258948   2.217   0.039   0.318 -0.2407 -0.4239 -0.2576
12486TIP3    H158949   2.237  -0.039   0.371 -2.0941 -0.6908  0.1375
12486TIP3    H258950   2.126   0.060   0.341 -0.2072  1.0611 -1.3696
12487TIP3   OH258951   3.285   2.380  12.240  0.0616 -0.0398 -0.3278
12487TIP3    H158952   3.321   2.351  12.324 -2.5795 -1.9067  0.3131
12487TIP3    H258953   3.191   2.393  12.257 -0.2765  1.1866 -2.6264
12488TIP3   OH258954   0.744   0.032   3.459  0.0241 -0.1913 -0.2882
12488TIP3    H158955   0.775   0.071   3.540 -3.0854  0.0282  0.9022
12488TIP3    H258956   0.772   0.093   3.391  0.0827  1.2006  0.9444
12489TIP3   OH258957   5.394   0.910  10.360  0.2227 -0.2548  0.4652
12489TIP3    H158958   5.305   0.938  10.344  0.3706  0.3908  0.7511
12489TIP3    H258959   5.390   0.814  10.359 -0.4237 -0.2250  0.2435
12490TIP3   OH258960   3.899   6.495   0.146 -0.0484 -0.3638 -0.5426
12490TIP3    H158961   3.910   6.427   0.080 -1.8778 -2.0588  0.7607
12490TIP3    H258962   3.851   6.452   0.217  0.1623  1.8726  1.0776
12491TIP3   OH258963   0.177   5.916   6.022  0.2729  0.1315  0.3270
12491TIP3    H158964   0.255   5.920   6.077 -0.0956  1.2613  0.8083
12491TIP3    H258965   0.104   5.911   6.085 -0.0763 -0.1322 -0.0945
12492TIP3   OH258966   4.535   0.340   1.053  0.2643  0.3458  0.6954
12492TIP3    H158967   4.556   0.260   1.100 -0.0659  0.8425  1.7223
12492TIP3    H258968   4.447   0.326   1.018  0.3474  0.1269  0.5775
12493TIP3   OH258969   0.202   1.822   4.491 -0.0939 -0.0898  0.2404
12493TIP3    H158970   0.294   1.837   4.469 -0.2474  2.4962  1.0573
12493TIP3    H258971   0.153   1.871   4.424 -0.7807  0.6101  1.2362
12494TIP3   OH258972   1.025   5.048   2.229 -0.0978  0.1578 -0.0190
12494TIP3    H158973   1.067   5.132   2.210 -1.8958  1.1103 -0.0154
12494TIP3    H258974   0.954   5.042   2.166 -2.0152  0.2225  2.0161
12495TIP3   OH258975   0.093   1.959  11.064  0.0506  0.0582  0.3905
12495TIP3    H158976   0.168   1.994  11.016  0.8924 -0.6719  1.1315
12495TIP3    H258977   0.123   1.954  11.155  0.3104 -3.3059  0.2337
12496TIP3   OH258978   6.425   2.806  15.660 -0.3317 -0.2404 -0.0811
12496TIP3    H158979   6.357   2.739  15.652 -0.4108 -0.1741  0.0354
12496TIP3    H258980   6.411   2.843  15.747 -0.4146  0.0651 -0.2230
12497TIP3   OH258981   0.595   4.836   4.865 -0.0173 -0.8059  0.0578
12497TIP3    H158982   0.502   4.818   4.880 -0.5060 -0.1901 -1.8936
12497TIP3    H258983   0.639   4.753   4.886 -1.0783 -1.2951  0.4181
12498TIP3   OH258984   6.632   6.577  12.780  0.5818 -0.1078 -0.7031
12498TIP3    H158985   6.607   6.625  12.702 -1.8512 -1.6959 -0.9985
12498TIP3    H258986   6.563   6.596  12.844  0.3078 -2.0356 -0.3686
12499TIP3   OH258987   2.558   4.741   4.428 -0.3821 -0.3796  0.1014
12499TIP3    H158988   2.508   4.660   4.436 -0.5351 -0.2163  0.8837
12499TIP3    H258989   2.536   4.774   4.341 -1.0053 -0.7266  0.1206
12500TIP3   OH258990   4.961   0.098  11.920  0.2574 -0.0701  0.3785
12500TIP3    H158991   5.036   0.096  11.980  0.1523 -1.0382  0.4999
12500TIP3    H258992   4.918   0.182  11.936  1.4009  0.5695  0.1965
12501TIP3   OH258993   3.796   5.621  14.630  0.2930  0.0306 -0.3770
12501TIP3    H158994   3.769   5.712  14.624  1.8717  0.5142 -0.7824
12501TIP3    H258995   3.860   5.620  14.702 -0.2119 -0.8905  0.0738
12502TIP3   OH258996   6.043   3.207   2.495 -0.7069  0.3578  0.0307
12502TIP3    H158997   6.086   3.284   2.458 -0.7351  1.3498  1.9576
12502TIP3    H258998   6.113   3.159   2.539 -1.1849  0.9025  1.4259
12503TIP3   OH258999   5.583   1.193  16.849 -0.4840 -0.4372 -0.3611
12503TIP3    H159000   5.512   1.178  16.787 -1.5792  0.8682  0.5254
12503TIP3    H259001   5.652   1.233  16.797 -0.6669 -1.0180 -1.0794
12504TIP3   OH259002   2.629   3.221  12.770  0.1355 -0.3324 -0.5551
12504TIP3    H159003   2.590   3.306  12.791  0.7753 -0.4094  1.0615
12504TIP3    H259004   2.666   3.190  12.853  0.5487 -1.8631 -1.2769
12505TIP3   OH259005   1.361   6.079  10.696 -0.1808 -0.1354 -0.1283
12505TIP3    H159006   1.355   6.126  10.613 -1.3530 -0.9826 -0.5572
12505TIP3    H259007   1.455   6.069  10.712  0.0904  1.7916 -0.3178
12506TIP3   OH259008   0.597   4.405  11.625  0.4155 -0.8984  0.2369
12506TIP3    H159009   0.633   4.333  11.677  2.3598  0.6185  1.1278
12506TIP3    H259010   0.650   4.481  11.649 -2.1884  1.1147  0.1182
12507TIP3   OH259011   3.289   6.582   1.036  0.2907  0.1914 -0.1799
12507TIP3    H159012   3.267   6.675   1.033 -0.7029 -0.0546 -1.1856
12507TIP3    H259013   3.376   6.579   1.076  1.0571  1.6869 -1.6102
12508TIP3   OH259014   5.345   3.364  14.538 -0.1931 -0.4989 -0.0350
12508TIP3    H159015   5.364   3.430  14.605  0.5065 -0.5302 -0.1918
12508TIP3    H259016   5.406   3.293  14.556  0.8546 -0.0002 -1.4083
12509TIP3   OH259017   0.988   0.631   1.678 -0.0951  0.0443 -0.3405
12509TIP3    H159018   0.969   0.702   1.739 -0.8161 -0.0752 -0.4173
12509TIP3    H259019   0.984   0.551   1.731  2.2216  0.1308  0.0831
12510TIP3   OH259020   6.136   2.374   0.074  0.3098 -0.3578  0.8644
12510TIP3    H159021   6.094   2.459   0.085 -0.9559 -1.0318  1.5496
12510TIP3    H259022   6.170   2.352   0.161 -1.9098 -1.7863  1.4527
12511TIP3   OH259023   6.560   6.313   1.367 -0.1956 -1.1676  0.1588
12511TIP3    H159024   6.556   6.220   1.348 -0.6942 -0.8597 -1.3848
12511TIP3    H259025   6.591   6.353   1.286 -0.5951  0.0707  0.5935
12512TIP3   OH259026   6.316   4.593   5.165 -0.1122 -0.3500 -0.1026
12512TIP3    H159027   6.288   4.604   5.256  0.5393  1.7505 -0.1033
12512TIP3    H259028   6.368   4.671   5.146  1.3904 -1.6403 -1.6943
12513TIP3   OH259029   0.864   1.913  13.942 -0.2400 -0.1253  0.0594
12513TIP3    H159030   0.917   1.916  13.862  1.5304 -2.1233  1.0786
12513TIP3    H259031   0.775   1.932  13.912  0.7885  1.9450 -1.9255
12514TIP3   OH259032   0.617   2.857   2.617 -0.0842  0.1536  0.1413
12514TIP3    H159033   0.626   2.796   2.543 -3.1405  0.7197 -0.8533
12514TIP3    H259034   0.567   2.808   2.682 -2.5062  1.4385 -0.6323
12515TIP3   OH259035   2.760   6.432  10.889  0.1744 -0.2385 -0.1374
12515TIP3    H159036   2.791   6.420  10.799 -0.3951 -0.4969 -0.3073
12515TIP3    H259037   2.738   6.525  10.895  0.3707 -0.1864 -0.2128
12516TIP3   OH259038   1.931   0.191   5.786 -0.5091  0.1961 -0.3449
12516TIP3    H159039   1.988   0.247   5.735 -0.3540 -1.6837 -2.4141
12516TIP3    H259040   1.990   0.135   5.836 -0.6127  0.5387  0.1616
12517TIP3   OH259041   1.674   3.044  14.542 -0.3538 -0.7381  0.1477
12517TIP3    H159042   1.711   2.968  14.498 -1.1125 -1.7580  1.2114
12517TIP3    H259043   1.699   3.118  14.487 -1.0346 -1.9034 -1.8367
12518TIP3   OH259044   3.937   4.050   3.602 -0.4295 -0.4845 -0.2607
12518TIP3    H159045   3.941   4.093   3.688 -2.2043  1.4567 -1.0628
12518TIP3    H259046   3.983   4.110   3.544 -1.5270 -0.4577 -1.1219
12519TIP3   OH259047   1.619   5.064  11.964  0.5795 -0.4599  0.0855
12519TIP3    H159048   1.645   4.973  11.954  2.7399  0.0007  0.9062
12519TIP3    H259049   1.679   5.112  11.907  1.3195  0.6599  1.7377
12520TIP3   OH259050   6.017   5.992  14.052 -0.5479  0.3040  0.2681
12520TIP3    H159051   6.045   5.918  14.105 -0.8464  1.9804  2.9686
12520TIP3    H259052   5.923   5.978  14.040 -0.1163 -1.1974 -1.8281
12521TIP3   OH259053   4.548   1.880   6.224 -0.0515  0.3638  0.2426
12521TIP3    H159054   4.459   1.847   6.236 -1.0464  2.3831 -0.9648
12521TIP3    H259055   4.602   1.824   6.280 -2.3622  0.4756  2.8627
12522TIP3   OH259056   5.784   6.191  12.053  0.5498 -0.6123  0.4047
12522TIP3    H159057   5.817   6.113  12.008  0.0069  0.0406 -1.1857
12522TIP3    H259058   5.836   6.196  12.133  0.6408 -2.5606  0.5051
12523TIP3   OH259059   3.463   1.152   5.713  0.2270 -0.2840 -0.3037
12523TIP3    H159060   3.503   1.212   5.650 -2.3899  0.1284 -1.7335
12523TIP3    H259061   3.397   1.105   5.662  0.1220 -2.2167  1.4830
12524TIP3   OH259062   1.231   0.002  10.704 -0.4764 -0.2879  0.0643
12524TIP3    H159063   1.194   0.070  10.761 -0.6766 -0.0486 -0.3464
12524TIP3    H259064   1.321  -0.009  10.734 -0.3412  0.3978 -0.0822
12525TIP3   OH259065   2.353   0.678   3.943  0.2916  0.2952 -0.0288
12525TIP3    H159066   2.399   0.621   3.881 -0.2122 -0.1638  0.0180
12525TIP3    H259067   2.301   0.619   3.996 -1.0551  0.8795 -0.6534
12526TIP3   OH259068   0.753   5.074   1.156 -0.6473 -0.3277 -0.1463
12526TIP3    H159069   0.703   5.046   1.232 -0.3951 -2.7454 -0.7902
12526TIP3    H259070   0.692   5.128   1.105 -1.4530 -0.3524  0.7706
12527TIP3   OH259071   4.937   1.913   5.351  0.7224 -0.0375 -0.3550
12527TIP3    H159072   4.934   1.847   5.421 -2.2484  1.9275  1.6341
12527TIP3    H259073   4.999   1.979   5.383  0.3532  0.2286 -0.1768
12528TIP3   OH259074   0.741   3.651   3.366  0.4237  0.2985  0.2299
12528TIP3    H159075   0.751   3.737   3.326  0.8113  0.8114  1.3719
12528TIP3    H259076   0.687   3.601   3.305 -0.2320  1.5184 -0.2007
12529TIP3   OH259077   3.253   6.563   5.977 -0.1277  0.0666  0.0254
12529TIP3    H159078   3.160   6.563   5.998  0.0727  0.3059  0.9458
12529TIP3    H259079   3.287   6.644   6.014  0.7068 -0.6517  0.8913
12530TIP3   OH259080   4.689   4.590  16.542 -0.4431 -0.4968  0.1589
12530TIP3    H159081   4.757   4.548  16.596 -0.4318 -0.2465  0.3421
12530TIP3    H259082   4.639   4.643  16.604 -0.4589 -0.2423 -0.0727
12531TIP3   OH259083   5.909   2.985   2.411  0.0610 -0.4595 -0.3074
12531TIP3    H159084   5.953   3.063   2.444 -0.6790  0.6308 -1.7952
12531TIP3    H259085   5.975   2.943   2.355  0.1823 -0.4653 -0.1626
12532TIP3   OH259086   5.978   2.158   3.148  0.2611 -0.7231 -0.2213
12532TIP3    H159087   5.947   2.217   3.217 -0.2184  0.5664 -1.4766
12532TIP3    H259088   5.916   2.085   3.149 -1.2056  0.4653 -0.8617
12533TIP3   OH259089   6.507   3.527  13.837  0.2861  0.3686  0.1121
12533TIP3    H159090   6.476   3.552  13.924 -2.3260 -0.8525 -0.3606
12533TIP3    H259091   6.476   3.597  13.780  0.2141  0.1615 -0.1034
12534TIP3   OH259092   5.419   0.984   0.020 -0.2946  0.1405  0.1224
12534TIP3    H159093   5.382   1.065  -0.015 -1.7886 -0.8935 -0.7704
12534TIP3    H259094   5.503   0.975  -0.025 -0.2564  1.0202  0.0032
12535TIP3   OH259095   5.983   1.897  10.678 -0.1445  0.2621  0.0209
12535TIP3    H159096   5.906   1.866  10.631  0.1856  1.1960 -1.1733
12535TIP3    H259097   6.057   1.856  10.633  0.3165  2.7833 -1.7290
12536TIP3   OH259098   0.484   2.931   0.673  0.6656 -0.3819  0.2430
12536TIP3    H159099   0.571   2.947   0.636  0.4424  1.0723  0.2905
12536TIP3    H259100   0.437   3.013   0.660  0.2215 -0.1483  2.8100
12537TIP3   OH259101   0.605   1.585   0.563  0.2581 -0.6461 -0.1024
12537TIP3    H159102   0.624   1.677   0.581  0.6437 -0.8988  0.8536
12537TIP3    H259103   0.681   1.537   0.597 -0.4274 -1.3922  0.4451
12538TIP3   OH259104   0.621   0.073  11.924 -0.3485  0.0828  0.3207
12538TIP3    H159105   0.662   0.060  12.009 -0.0992  0.6263  0.2865
12538TIP3    H259106   0.534   0.106  11.944  0.4553  2.3482  0.3611
12539TIP3   OH259107   3.674   5.129   4.018 -0.5362 -0.2239 -0.1867
12539TIP3    H159108   3.692   5.132   4.112 -1.6070  0.0511  0.0187
12539TIP3    H259109   3.759   5.110   3.979  0.0410  0.2150  0.7969
12540TIP3   OH259110   3.727   0.489  16.303 -0.5822  0.0817 -0.7362
12540TIP3    H159111   3.704   0.558  16.240 -1.4328 -1.0788 -1.7420
12540TIP3    H259112   3.811   0.455  16.272 -1.7149 -1.5436 -2.2649
12541TIP3   OH259113   1.040   5.037   3.038 -0.3162 -0.0029  0.1765
12541TIP3    H159114   1.000   5.095   2.974 -1.1671  0.9090  1.4928
12541TIP3    H259115   1.134   5.046   3.023 -0.4866 -0.8157 -1.7712
12542TIP3   OH259116   1.258   0.908   3.676 -0.1798  0.3079 -0.1053
12542TIP3    H159117   1.167   0.917   3.650 -0.7934  0.6227  1.9942
12542TIP3    H259118   1.283   0.820   3.646 -0.9960  0.4155 -1.1417
12543TIP3   OH259119   3.162   1.617  13.901 -0.0735 -0.4655  0.1599
12543TIP3    H159120   3.104   1.673  13.849 -1.9473 -0.6371  1.9181
12543TIP3    H259121   3.128   1.529  13.889  0.2436 -0.6686  0.7026
12544TIP3   OH259122   2.105   3.880   0.326  0.5680  0.2853  0.0763
12544TIP3    H159123   2.115   3.897   0.420 -0.0356 -0.9930  0.3803
12544TIP3    H259124   2.017   3.846   0.316  1.5663 -2.3904 -0.5060
12545TIP3   OH259125   0.924   2.547   0.884  0.1009 -0.1850  0.1273
12545TIP3    H159126   0.931   2.501   0.968  0.2536 -0.0672  0.1802
12545TIP3    H259127   0.832   2.541   0.861  0.1369 -0.6013  0.0871
12546TIP3   OH259128   6.503   6.344   2.621  0.1538 -0.7363 -0.2183
12546TIP3    H159129   6.487   6.438   2.608  0.9746 -0.3394  1.3592
12546TIP3    H259130   6.554   6.317   2.545 -0.9094 -0.1506 -1.1768
12547TIP3   OH259131   2.270   2.213  13.581 -0.5518  0.4108  0.7130
12547TIP3    H159132   2.326   2.174  13.648 -1.9156  0.7380  2.1026
12547TIP3    H259133   2.331   2.251  13.518  0.8470 -2.7986 -0.0880
12548TIP3   OH259134   2.979   5.299  12.991  1.0041 -0.2987  0.2772
12548TIP3    H159135   2.971   5.205  12.979  0.9788 -0.1083 -1.4212
12548TIP3    H259136   3.051   5.325  12.934 -1.2980  1.1816 -2.2057
12549TIP3   OH259137   3.649   1.180  15.439 -0.2061  0.4001 -0.2312
12549TIP3    H159138   3.587   1.107  15.447  0.1844  0.1167  0.3588
12549TIP3    H259139   3.706   1.155  15.367  0.6919 -0.4919  0.7435
12550TIP3   OH259140   3.340   2.637   0.637  0.2726  1.0298 -0.4045
12550TIP3    H159141   3.416   2.692   0.658 -0.0940  1.2717  0.3285
12550TIP3    H259142   3.345   2.624   0.542  1.7428  0.2715 -0.2460
12551TIP3   OH259143   6.793   5.451   4.725 -0.0387  0.5513 -0.4699
12551TIP3    H159144   6.797   5.424   4.817 -0.2208 -2.2563 -1.2010
12551TIP3    H259145   6.712   5.413   4.692  0.8468  0.0637 -2.1830
12552TIP3   OH259146   3.896   5.979   5.891 -0.1328  0.5626  0.4599
12552TIP3    H159147   3.882   6.071   5.867  1.2724  1.0686  1.4447
12552TIP3    H259148   3.831   5.961   5.958  0.4005  1.2404  1.1718
12553TIP3   OH259149   3.183   3.874  15.455  0.1930 -0.3926 -0.1366
12553TIP3    H159150   3.165   3.784  15.428 -2.1129 -0.3889  1.1503
12553TIP3    H259151   3.178   3.873  15.550  1.0112  0.9381 -0.0527
12554TIP3   OH259152   4.843   1.145  14.161  0.5103  0.2617 -0.1694
12554TIP3    H159153   4.897   1.213  14.200 -0.1891  1.7148 -1.6520
12554TIP3    H259154   4.755   1.181  14.159 -0.3310 -1.5615  1.0009
12555TIP3   OH259155   2.554   1.027  14.336 -0.2143  0.0038 -0.1419
12555TIP3    H159156   2.611   0.950  14.345 -1.6276 -1.0198  0.4088
12555TIP3    H259157   2.577   1.083  14.410  0.9960  0.2540 -0.6785
12556TIP3   OH259158   2.483   5.390   3.848 -0.5482  0.0901 -0.1536
12556TIP3    H159159   2.501   5.321   3.911 -1.3185 -0.4698 -0.5207
12556TIP3    H259160   2.396   5.423   3.872  0.1327  1.5023  0.5114
12557TIP3   OH259161   0.863   1.277  14.283  0.0128 -0.0686 -0.0941
12557TIP3    H159162   0.776   1.250  14.311 -0.2500  1.6589  0.9125
12557TIP3    H259163   0.848   1.341  14.214  0.5144 -0.1028 -0.2441
12558TIP3   OH259164   1.695   5.573  15.571 -0.0972  0.0933 -0.2597
12558TIP3    H159165   1.656   5.499  15.525 -2.1893  0.8034  0.2641
12558TIP3    H259166   1.788   5.551  15.579 -0.2158 -1.3362 -2.2622
12559TIP3   OH259167   0.846   3.718  13.981  0.3562 -0.3853  0.5446
12559TIP3    H159168   0.870   3.808  13.956 -1.7491 -0.0722 -0.5793
12559TIP3    H259169   0.831   3.723  14.075 -1.0381  0.8269  0.3082
12560TIP3   OH259170   0.854   5.292   3.082 -0.3590 -0.0431  1.0966
12560TIP3    H159171   0.866   5.301   2.988 -0.5389 -1.4205  0.9204
12560TIP3    H259172   0.940   5.311   3.120 -0.3380  0.7145  0.6846
12561TIP3   OH259173   3.593   4.830  15.735  0.0973 -0.4732  0.2840
12561TIP3    H159174   3.556   4.887  15.803  0.5741 -0.5637  0.6304
12561TIP3    H259175   3.684   4.858  15.728 -0.5857  1.4936 -2.3868
12562TIP3   OH259176   4.850   5.328   4.722 -0.1590 -0.3905 -0.0927
12562TIP3    H159177   4.795   5.253   4.744  0.0683 -0.5745 -0.1420
12562TIP3    H259178   4.916   5.331   4.791 -0.7290  0.3398  0.4230
12563TIP3   OH259179   2.624   1.785  12.274 -1.0530  0.1873 -0.0407
12563TIP3    H159180   2.649   1.834  12.352 -2.2432 -3.6325  3.0293
12563TIP3    H259181   2.708   1.754  12.238 -0.5791  0.1231  1.0828
12564TIP3   OH259182   5.653   1.632  14.890 -0.7439 -0.9388  0.5757
12564TIP3    H159183   5.635   1.703  14.951 -0.2397 -0.3273  0.0339
12564TIP3    H259184   5.667   1.676  14.806 -1.9355 -1.8075 -0.1014
12565TIP3   OH259185   3.651   2.602   3.489 -0.0405  0.0487 -0.4868
12565TIP3    H159186   3.609   2.530   3.441 -2.4586  2.1103 -1.7143
12565TIP3    H259187   3.731   2.620   3.440 -1.1151  0.3355 -2.2348
12566TIP3   OH259188   6.762   1.134  13.438 -0.3650  0.1889  0.0617
12566TIP3    H159189   6.804   1.146  13.523 -1.8126  0.6748  0.7528
12566TIP3    H259190   6.789   1.047  13.409 -0.6676 -0.4100  1.5078
12567TIP3   OH259191   0.822   1.608   1.166  0.0669 -0.2245 -0.2289
12567TIP3    H159192   0.769   1.547   1.217 -1.1878 -1.0565 -2.3642
12567TIP3    H259193   0.765   1.683   1.151 -0.1772 -0.6642 -1.6532
12568TIP3   OH259194   0.931   1.699  14.421 -1.0791  0.0776 -0.0114
12568TIP3    H159195   0.951   1.666  14.509  0.4774  1.5955  0.2503
12568TIP3    H259196   0.995   1.655  14.364  0.7859  2.2126  0.2927
12569TIP3   OH259197   1.038   0.813   5.947 -0.4451 -0.5529  0.4331
12569TIP3    H159198   0.963   0.841   6.000 -0.4837  1.2700 -0.5180
12569TIP3    H259199   1.113   0.858   5.985 -0.0618 -1.2235  0.4822
12570TIP3   OH259200   6.342   5.085   1.974 -0.2214  0.3097  0.0041
12570TIP3    H159201   6.399   5.139   1.920  1.4740  0.3935  1.7511
12570TIP3    H259202   6.355   4.995   1.942 -3.2336  0.7573 -3.0706
12571TIP3   OH259203   2.194   2.316   3.778  0.0465 -0.1256 -0.2058
12571TIP3    H159204   2.273   2.261   3.782  0.6117  0.6027 -1.0224
12571TIP3    H259205   2.196   2.366   3.860 -0.7729 -1.6669  0.8202
12572TIP3   OH259206   5.806   3.924  14.542  0.1150  0.2836 -0.2849
12572TIP3    H159207   5.763   3.938  14.457 -1.6521  2.8576  0.8909
12572TIP3    H259208   5.848   4.008  14.561 -0.2633  0.0675  1.7353
12573TIP3   OH259209   6.199   0.654  12.817  0.2257  0.0114 -0.6632
12573TIP3    H159210   6.258   0.585  12.847 -1.4608 -0.8973  0.8201
12573TIP3    H259211   6.203   0.650  12.722  1.4854 -0.9331 -0.5962
12574TIP3   OH259212   2.718   1.460   3.429  0.0889 -0.0497 -0.0573
12574TIP3    H159213   2.765   1.509   3.362  0.7391 -1.0631 -0.3732
12574TIP3    H259214   2.716   1.518   3.505  2.6782 -0.2642  0.2707
12575TIP3   OH259215   4.800   1.153  16.703  0.1195  0.0726 -0.1263
12575TIP3    H159216   4.744   1.098  16.649  0.3979 -0.1457 -0.1958
12575TIP3    H259217   4.752   1.163  16.785 -0.6525  1.0132 -0.6627
12576TIP3   OH259218   1.549   4.570  14.790  0.2806  0.2515  0.3366
12576TIP3    H159219   1.553   4.629  14.865  0.1544  0.4767  0.1666
12576TIP3    H259220   1.492   4.614  14.727 -0.4410 -0.3906  0.5149
12577TIP3   OH259221   1.903   2.709   5.612 -0.1307 -0.2258 -0.2974
12577TIP3    H159222   1.882   2.742   5.699 -0.7155 -1.2097 -0.0526
12577TIP3    H259223   1.939   2.621   5.627  0.3162 -0.1757 -1.0123
12578TIP3   OH259224   3.087   3.102   2.141 -0.4057  0.6503  0.4290
12578TIP3    H159225   3.181   3.091   2.129 -0.6566 -0.3818 -0.8270
12578TIP3    H259226   3.073   3.082   2.233  0.4064 -0.9122  0.2514
12579TIP3   OH259227   0.416   5.839   5.852  0.1275 -0.5896 -0.0822
12579TIP3    H159228   0.327   5.858   5.880 -0.1506 -1.0782 -0.6009
12579TIP3    H259229   0.409   5.825   5.757  0.5586 -1.7112  0.0288
12580TIP3   OH259230   3.743   3.624  12.201 -0.5738  0.1626 -0.2787
12580TIP3    H159231   3.744   3.694  12.135  0.0295  1.4684  1.0606
12580TIP3    H259232   3.698   3.662  12.276 -2.7592 -1.8648 -0.4486
12581TIP3   OH259233   1.311   1.693  16.684 -0.2030  0.8274  0.8865
12581TIP3    H159234   1.330   1.787  16.693 -0.1978  0.8182  0.9757
12581TIP3    H259235   1.274   1.684  16.597 -0.9633  1.0360  1.1835
12582TIP3   OH259236   6.163   2.707  11.970 -0.0477  0.0126  0.2135
12582TIP3    H159237   6.229   2.703  11.902  0.1768  1.2520  0.3296
12582TIP3    H259238   6.152   2.617  11.999  2.1692 -0.1457  0.7436
12583TIP3   OH259239   4.695   5.373   6.453 -0.1091  0.2620 -0.3584
12583TIP3    H159240   4.619   5.371   6.394  0.7515 -0.9631 -1.4986
12583TIP3    H259241   4.685   5.454   6.502 -3.1698 -0.7025  0.9172
12584TIP3   OH259242   1.802   0.873  11.786  0.5730  0.5434  0.4146
12584TIP3    H159243   1.842   0.953  11.821  1.8765 -1.0539  2.8703
12584TIP3    H259244   1.718   0.902  11.751  1.7029  3.2310 -0.3388
12585TIP3   OH259245   5.668   6.172  14.694  0.7377  0.7028  0.0381
12585TIP3    H159246   5.732   6.117  14.738  1.3114 -0.0405 -1.6286
12585TIP3    H259247   5.709   6.196  14.611 -0.6984  1.1080 -0.5994
12586TIP3   OH259248   1.108   6.444   4.825 -0.1621 -0.1655 -0.6521
12586TIP3    H159249   1.027   6.468   4.870 -0.2407 -1.1104 -0.2536
12586TIP3    H259250   1.092   6.355   4.794  1.0978 -0.7862  0.3805
12587TIP3   OH259251   1.661   6.339   4.626  0.3182 -0.1522  0.4623
12587TIP3    H159252   1.595   6.381   4.681  0.7332 -1.9845  2.4885
12587TIP3    H259253   1.637   6.246   4.626  0.6439 -0.3307 -2.1235
12588TIP3   OH259254   3.354   3.672  12.347  0.5233 -0.2153 -0.2615
12588TIP3    H159255   3.355   3.608  12.418  0.5344  0.8399  0.7194
12588TIP3    H259256   3.441   3.713  12.349  0.1584  0.5781 -0.1678
12589TIP3   OH259257   4.748   5.672  11.962  0.4625  0.1268  0.5617
12589TIP3    H159258   4.718   5.628  12.041  1.3141 -2.4689 -0.4546
12589TIP3    H259259   4.723   5.764  11.974 -0.9515 -0.5083  3.0373
12590TIP3   OH259260   1.729   6.852  13.750  0.2330 -0.8530 -0.3046
12590TIP3    H159261   1.640   6.888  13.757 -0.3575 -1.5878 -2.9059
12590TIP3    H259262   1.716   6.764  13.714  2.0177 -1.1032 -0.4222
12591TIP3   OH259263   0.584   2.003   3.734 -0.1718  0.1057  0.4360
12591TIP3    H159264   0.567   2.079   3.789  0.3147  0.8140 -0.3575
12591TIP3    H259265   0.511   2.002   3.672 -1.0353 -1.0353  1.4263
12592TIP3   OH259266   3.294   0.849   4.108 -0.2747 -0.1093 -0.8368
12592TIP3    H159267   3.314   0.914   4.176  0.7390 -0.4479 -0.7976
12592TIP3    H259268   3.379   0.811   4.085 -0.6219 -0.1523 -2.1483
12593TIP3   OH259269   1.889   0.002   5.257 -0.4639  0.2163 -0.3698
12593TIP3    H159270   1.798  -0.026   5.248 -0.3008 -0.3301 -0.3478
12593TIP3    H259271   1.898   0.024   5.350  0.1528 -2.3946  0.2639
12594TIP3   OH259272   2.915   0.646  15.136  0.5471 -0.2099 -0.6380
12594TIP3    H159273   2.980   0.708  15.104  0.1062  0.9083  0.5405
12594TIP3    H259274   2.936   0.635  15.229 -1.4906  0.9250  0.0092
12595TIP3   OH259275   5.467   5.747  11.549 -0.0631 -0.1168  0.7639
12595TIP3    H159276   5.520   5.679  11.591 -0.4459 -0.0122  1.4239
12595TIP3    H259277   5.526   5.788  11.486  0.3981 -0.5527  0.9114
12596TIP3   OH259278   5.820   3.379   0.579 -0.3395  0.0757  0.2542
12596TIP3    H159279   5.876   3.446   0.541  0.9510 -0.3290  1.3658
12596TIP3    H259280   5.792   3.326   0.504  0.2369  0.6770 -0.3980
12597TIP3   OH259281   2.688   2.550  15.879  0.1169  0.1837  0.2931
12597TIP3    H159282   2.649   2.467  15.853  1.9771 -1.0559  1.2410
12597TIP3    H259283   2.694   2.600  15.798  0.9905 -1.5056 -0.7407
12598TIP3   OH259284   2.114   3.198   6.175 -0.6613 -0.0971  0.6269
12598TIP3    H159285   2.183   3.133   6.169 -0.3246  0.3878 -1.3366
12598TIP3    H259286   2.155   3.273   6.218  0.2735  0.4207 -1.0866
12599TIP3   OH259287   5.741   0.502  15.038 -0.0606 -0.0820 -0.2439
12599TIP3    H159288   5.825   0.456  15.032  0.3670  0.5945  0.3649
12599TIP3    H259289   5.763   0.587  15.077 -0.8503  0.6006 -1.2382
12600TIP3   OH259290   0.112   5.032  10.241 -0.0075 -0.2474  0.3646
12600TIP3    H159291   0.086   4.946  10.208 -1.5286 -0.4866  2.0047
12600TIP3    H259292   0.082   5.032  10.332  0.9883  1.6100  0.7400
12601TIP3   OH259293   1.358   5.417  11.512  0.4724  0.9143 -0.1786
12601TIP3    H159294   1.358   5.363  11.433 -1.7439 -0.4899  0.6917
12601TIP3    H259295   1.355   5.507  11.479  1.1598  0.4209 -1.6780
12602TIP3   OH259296   3.676   4.936  10.639  0.1360  0.4922  0.3357
12602TIP3    H159297   3.629   4.965  10.561  1.4130  1.2903 -0.1716
12602TIP3    H259298   3.638   4.850  10.659  0.0407  0.0869 -1.4008
12603TIP3   OH259299   2.451   5.248   4.658  0.1949  0.6631  0.6223
12603TIP3    H159300   2.471   5.180   4.594  0.9722  0.3527  1.1721
12603TIP3    H259301   2.436   5.327   4.606  0.0016  0.2366  0.0203
12604TIP3   OH259302   3.882   6.263  17.083 -0.3396 -0.0566 -0.1489
12604TIP3    H159303   3.828   6.225  17.014  0.6782 -0.9682 -0.4689
12604TIP3    H259304   3.929   6.188  17.121  2.1046  0.8730 -1.1265
12605TIP3   OH259305   0.633   5.329  14.226  0.2757  0.0403 -0.3267
12605TIP3    H159306   0.658   5.354  14.315  0.6447  0.2935 -0.5017
12605TIP3    H259307   0.562   5.390  14.204 -0.7943 -0.9337  0.3164
12606TIP3   OH259308   3.748   2.968   0.796  0.5931 -0.1393  0.5396
12606TIP3    H159309   3.775   3.058   0.815 -1.4264 -0.0176  3.5147
12606TIP3    H259310   3.750   2.924   0.881  0.2538 -2.5564 -0.6274
12607TIP3   OH259311   4.141   4.427  12.031 -0.2879 -0.1139  0.1009
12607TIP3    H159312   4.229   4.420  11.995 -1.0972 -0.1961 -1.9535
12607TIP3    H259313   4.135   4.516  12.065  0.5740 -0.1147  0.2624
12608TIP3   OH259314   5.024   1.263  11.133 -0.2383  0.3629 -0.3758
12608TIP3    H159315   5.058   1.352  11.130  0.6937  0.1482  1.6308
12608TIP3    H259316   4.939   1.271  11.177 -1.3515  0.5128 -2.4540
12609TIP3   OH259317   2.693   2.696   3.659  0.0051 -0.2753  0.6894
12609TIP3    H159318   2.740   2.668   3.580  0.5252 -1.6201  1.4352
12609TIP3    H259319   2.602   2.700   3.632  0.2229 -0.3271 -0.0877
12610TIP3   OH259320   0.530   0.243  12.473 -0.2917 -0.2258  0.1203
12610TIP3    H159321   0.450   0.234  12.421 -0.3013 -1.5217  0.3253
12610TIP3    H259322   0.526   0.172  12.536  0.8765 -0.1192  0.3418
12611TIP3   OH259323   4.995   1.791  15.892  0.0288 -0.4818 -0.4130
12611TIP3    H159324   5.042   1.851  15.949  1.0510  0.3198 -2.0376
12611TIP3    H259325   4.941   1.738  15.952  0.9849  0.3632  1.2565
12612TIP3   OH259326   2.188   5.583   0.760 -0.0882  0.1484  0.6048
12612TIP3    H159327   2.152   5.670   0.744 -1.6242 -0.9408 -2.8455
12612TIP3    H259328   2.119   5.537   0.808 -0.0012  0.3210  0.8966
12613TIP3   OH259329   6.332   0.983   0.326 -0.2523  0.1433 -0.2532
12613TIP3    H159330   6.321   0.920   0.255 -3.5460 -0.7730  0.8738
12613TIP3    H259331   6.425   0.978   0.348  0.8003  0.0832 -4.0280
12614TIP3   OH259332   0.272   2.929  15.148 -0.4287  0.0108  0.2308
12614TIP3    H159333   0.320   3.010  15.129  0.9006 -0.6827  0.5094
12614TIP3    H259334   0.261   2.888  15.062  0.3576 -0.2869  0.2613
12615TIP3   OH259335   3.823   2.680  14.848 -0.3163  0.8457  0.1452
12615TIP3    H159336   3.848   2.598  14.890  0.8494  0.5549 -1.0575
12615TIP3    H259337   3.743   2.706  14.894  0.4166  0.1202  1.9383
12616TIP3   OH259338   3.865   0.774   6.206  0.3418  0.7155 -0.1687
12616TIP3    H159339   3.852   0.840   6.138  3.1189  1.0415 -0.5218
12616TIP3    H259340   3.931   0.812   6.264  1.5387 -1.4178 -0.0191
12617TIP3   OH259341   2.653   4.642   2.425 -0.1036  0.2291 -0.1596
12617TIP3    H159342   2.735   4.616   2.469  0.3639  2.2242  0.2645
12617TIP3    H259343   2.682   4.676   2.340 -0.2918  2.1831  0.5116
12618TIP3   OH259344   2.523   6.511   1.627  0.2830  0.3919 -0.8486
12618TIP3    H159345   2.463   6.442   1.654  0.1550  0.2782 -1.4119
12618TIP3    H259346   2.493   6.589   1.675  0.4502  0.0531 -0.1876
12619TIP3   OH259347   6.212   0.362  12.545  0.7022  0.1340 -0.7018
12619TIP3    H159348   6.281   0.385  12.608 -0.9684  0.8916  0.9718
12619TIP3    H259349   6.171   0.284  12.582 -0.8242  1.0494 -0.3664
12620TIP3   OH259350   2.875   2.056   0.509  0.0025 -0.0132  0.4515
12620TIP3    H159351   2.941   1.991   0.485 -0.1725 -0.0642  0.0897
12620TIP3    H259352   2.829   2.019   0.583 -1.9738 -1.6249 -1.4485
12621TIP3   OH259353   0.263   1.768  16.400  0.5456 -0.1647 -0.1334
12621TIP3    H159354   0.287   1.782  16.491 -0.4820 -1.2012  0.3131
12621TIP3    H259355   0.187   1.824  16.386  0.4388 -0.3274 -0.2162
12622TIP3   OH259356   0.889   3.864   5.255  0.1070 -0.1579  0.2427
12622TIP3    H159357   0.840   3.845   5.176 -0.4472 -1.4916  0.8735
12622TIP3    H259358   0.827   3.907   5.313  0.2063 -0.1715  0.3606
12623TIP3   OH259359   1.738   4.727   2.381  0.0473 -0.0084  0.1988
12623TIP3    H159360   1.705   4.813   2.407  0.3570  0.4570 -0.9255
12623TIP3    H259361   1.810   4.745   2.321 -1.3733 -1.0190 -1.9608
12624TIP3   OH259362   4.964   5.334   2.134 -0.0297 -0.0648 -0.3414
12624TIP3    H159363   4.959   5.343   2.229 -0.8083  2.5886 -0.5497
12624TIP3    H259364   4.968   5.424   2.102  1.4551 -0.9056 -2.7927
12625TIP3   OH259365   5.819   4.804   6.110 -0.2800  0.3473  0.1703
12625TIP3    H159366   5.813   4.766   6.198 -1.3601 -0.7600 -0.3496
12625TIP3    H259367   5.900   4.768   6.075 -0.3082  0.0564  0.3930
12626TIP3   OH259368   4.066   0.041   3.798 -0.0063  0.1144  0.4512
12626TIP3    H159369   4.059  -0.003   3.714  2.6536  1.0954 -0.3654
12626TIP3    H259370   4.141   0.001   3.841  1.3385  2.4709  0.4763
12627TIP3   OH259371   1.666   1.247  12.183 -0.1596  0.2222  0.0033
12627TIP3    H159372   1.734   1.290  12.235 -0.0268  1.0098 -0.7945
12627TIP3    H259373   1.714   1.191  12.122 -0.3604 -2.0102  1.7749
12628TIP3   OH259374   4.475   5.205   0.108  0.3115 -0.2636  0.1086
12628TIP3    H159375   4.467   5.227   0.201 -1.4209  0.1112 -0.0863
12628TIP3    H259376   4.458   5.288   0.062  0.3569 -0.6083 -0.5498
12629TIP3   OH259377   0.653   3.270  16.824  0.4624 -0.4705  0.5429
12629TIP3    H159378   0.619   3.342  16.878  3.3445  0.5321  1.1675
12629TIP3    H259379   0.728   3.308  16.778 -0.4467 -1.9861 -2.3988
12630TIP3   OH259380   6.419   2.476   5.425  0.1734  0.1138  0.0245
12630TIP3    H159381   6.387   2.508   5.340 -0.8804  0.3253  0.4856
12630TIP3    H259382   6.404   2.382   5.422  1.4818 -0.1006 -0.5728
12631TIP3   OH259383   1.653   1.993  15.158  0.1717 -0.4089 -0.0878
12631TIP3    H159384   1.673   2.056  15.227 -1.1680  0.2405 -0.2680
12631TIP3    H259385   1.737   1.979  15.114  0.5282  1.1321  0.0382
12632TIP3   OH259386   6.739   4.200  10.619 -0.2414  0.0091 -0.1855
12632TIP3    H159387   6.722   4.269  10.555 -1.8509 -0.4280 -0.2769
12632TIP3    H259388   6.707   4.120  10.577  0.0516 -0.5260  0.5873
12633TIP3   OH259389   3.781   1.547   4.281 -0.2449 -0.3309  0.1209
12633TIP3    H159390   3.697   1.588   4.264 -0.3794 -0.4731  0.4220
12633TIP3    H259391   3.773   1.459   4.243 -0.3168 -0.4237  0.3447
12634TIP3   OH259392   5.432   3.227  13.287 -0.0456  0.1559  0.0204
12634TIP3    H159393   5.356   3.174  13.262 -0.6629 -0.2339  2.4457
12634TIP3    H259394   5.507   3.173  13.263 -0.6517 -1.8789  2.2333
12635TIP3   OH259395   2.884   4.148   1.530 -0.0532  0.0751 -0.1511
12635TIP3    H159396   2.849   4.180   1.613  1.4391  0.0740  0.4942
12635TIP3    H259397   2.929   4.223   1.492  0.5343 -0.3257 -0.2564
12636TIP3   OH259398   6.708   5.023  14.303  0.1852  0.1147  0.0253
12636TIP3    H159399   6.659   4.960  14.355 -1.0037  1.1323  0.1870
12636TIP3    H259400   6.781   4.973  14.266 -0.9185 -1.4251 -0.1462
12637TIP3   OH259401   0.061   5.562  17.036  0.1562  0.0689  0.8296
12637TIP3    H159402   0.088   5.470  17.036 -2.2653 -0.7029  1.0001
12637TIP3    H259403   0.124   5.606  16.978  1.3424 -1.6806  0.7374
12638TIP3   OH259404   6.372   6.469  13.764 -0.1533  0.0363 -1.0656
12638TIP3    H159405   6.351   6.561  13.747 -3.1555 -0.8552 -2.8450
12638TIP3    H259406   6.426   6.443  13.689  0.2132  0.1972 -0.8580
12639TIP3   OH259407   1.347   6.393  12.415  0.0309  0.2695  0.1998
12639TIP3    H159408   1.424   6.423  12.366 -0.7269  0.7682 -0.7058
12639TIP3    H259409   1.273   6.439  12.375 -1.0378 -1.9057 -0.4818
12640TIP3   OH259410   2.107   1.837   0.191 -0.0232 -0.3055  0.2114
12640TIP3    H159411   2.199   1.814   0.181  0.2473  0.6781  0.3346
12640TIP3    H259412   2.108   1.931   0.209 -1.1413  0.0448 -1.3538
12641TIP3   OH259413   2.484   1.389  12.706  0.3292 -0.2297  0.3284
12641TIP3    H159414   2.424   1.323  12.672  0.5280  0.9132 -2.5423
12641TIP3    H259415   2.442   1.423  12.785 -1.6776 -1.0274 -0.3470
12642TIP3   OH259416   2.870   3.495   1.217 -0.1244  0.0658 -0.3172
12642TIP3    H159417   2.946   3.464   1.266 -0.2674 -0.4890 -0.4407
12642TIP3    H259418   2.795   3.477   1.274 -0.1597  0.6683 -0.1693
12643TIP3   OH259419   0.371   2.010  11.682 -0.2809  0.0248 -0.5964
12643TIP3    H159420   0.371   2.106  11.677  0.3222 -0.0295 -2.5217
12643TIP3    H259421   0.354   1.982  11.592 -1.4554 -1.6966  0.1163
12644TIP3   OH259422   0.676   5.576   0.705  0.2101 -0.4266 -0.4800
12644TIP3    H159423   0.771   5.589   0.704  0.1498  1.6031  2.9996
12644TIP3    H259424   0.641   5.649   0.653  0.5412  0.7921  0.9413
12645TIP3   OH259425   6.006   0.461  12.834  0.3410 -0.1109 -0.6234
12645TIP3    H159426   6.101   0.450  12.835  0.3068 -0.4221  0.2388
12645TIP3    H259427   5.991   0.538  12.779  1.2552  1.2737  0.9433
12646TIP3   OH259428   2.727   4.470   5.163  0.0274  0.2968 -0.0209
12646TIP3    H159429   2.803   4.411   5.170  1.0834  1.4200 -1.4648
12646TIP3    H259430   2.675   4.433   5.092 -0.3118  0.0245  0.3705
12647TIP3   OH259431   5.447   6.261   2.366 -0.3732 -0.1230  0.0236
12647TIP3    H159432   5.538   6.236   2.354  0.6064  2.9734  0.1083
12647TIP3    H259433   5.412   6.268   2.277 -1.1411 -2.9497  0.0075
12648TIP3   OH259434   5.563   1.824  15.465  0.0374  0.0223  0.1674
12648TIP3    H159435   5.606   1.900  15.426 -1.1548  0.2235 -0.7853
12648TIP3    H259436   5.539   1.769  15.391 -0.9021 -0.3253  0.7214
12649TIP3   OH259437   4.167   0.137   1.560 -0.5576 -0.2050  0.5397
12649TIP3    H159438   4.080   0.160   1.526 -0.7191 -1.9389 -0.3171
12649TIP3    H259439   4.162   0.043   1.578  0.9512 -0.2052  1.0683
12650TIP3   OH259440   4.062   0.839   5.767  0.2581 -0.3834 -0.0610
12650TIP3    H159441   4.128   0.852   5.835  0.0247  0.7071 -0.0226
12650TIP3    H259442   4.006   0.769   5.801 -0.5051  0.8561  1.4127
12651TIP3   OH259443   3.330   5.241   6.095  0.3527  0.4944 -0.2018
12651TIP3    H159444   3.350   5.334   6.090  0.5521  0.3725 -2.0397
12651TIP3    H259445   3.411   5.200   6.123  0.0172  0.9280  1.5374
12652TIP3   OH259446   6.104   2.879  12.218 -0.5110  0.7190 -0.0535
12652TIP3    H159447   6.046   2.806  12.199 -2.0468  1.2175  2.3366
12652TIP3    H259448   6.058   2.956  12.186 -1.0016  1.0623  1.3996
12653TIP3   OH259449   1.602   4.074  10.789  0.6702 -0.7228 -0.2485
12653TIP3    H159450   1.513   4.088  10.757  0.0112 -1.3097  1.2395
12653TIP3    H259451   1.658   4.107  10.719 -0.7205  0.3585 -0.9023
12654TIP3   OH259452   6.801   5.427  15.700  0.1195  0.7399 -0.2001
12654TIP3    H159453   6.846   5.361  15.647  0.6677 -0.4804  1.6660
12654TIP3    H259454   6.824   5.405  15.790 -1.5380  2.1465  0.6334
12655TIP3   OH259455   6.168   2.947   6.069 -0.1886 -0.0092  0.0357
12655TIP3    H159456   6.241   2.972   6.013 -0.6525  0.4577 -0.3827
12655TIP3    H259457   6.092   2.989   6.028 -0.5682  0.1713  0.8988
12656TIP3   OH259458   6.472   5.285   1.807 -0.2835  0.1071  0.5138
12656TIP3    H159459   6.439   5.237   1.731 -0.2046  1.6805 -0.5589
12656TIP3    H259460   6.400   5.343   1.833  0.4097  1.0999  0.2895
12657TIP3   OH259461   1.731   1.111   3.903 -0.0266  0.1883  0.4853
12657TIP3    H159462   1.770   1.048   3.843  0.6342 -0.8428  1.9454
12657TIP3    H259463   1.637   1.110   3.882  0.2386  0.0682 -0.7104
12658TIP3   OH259464   2.343   2.944   3.428 -0.1732 -0.2238 -0.2880
12658TIP3    H159465   2.289   2.931   3.506 -1.7057  0.8871 -1.1081
12658TIP3    H259466   2.309   2.880   3.365  0.5221 -0.5782 -0.3035
12659TIP3   OH259467   5.060   0.425   2.272  0.0960 -0.0234  0.4349
12659TIP3    H159468   4.972   0.390   2.255  0.2349 -0.1328 -0.1093
12659TIP3    H259469   5.118   0.350   2.259  0.1728 -0.3207  2.2348
12660TIP3   OH259470   1.698   5.535  14.692 -0.1941  0.8466  0.0829
12660TIP3    H159471   1.768   5.500  14.747  1.0330  0.8726 -1.3729
12660TIP3    H259472   1.618   5.501  14.730  0.7318 -0.6147  0.8204
12661TIP3   OH259473   3.564   0.427   0.769 -0.1833 -0.0242 -0.1122
12661TIP3    H159474   3.607   0.513   0.770 -1.4006  0.6344 -1.0416
12661TIP3    H259475   3.475   0.445   0.738 -0.0488 -1.8058 -1.7161
12662TIP3   OH259476   0.090   2.268  16.471  0.5221 -0.0119  0.1281
12662TIP3    H159477   0.025   2.204  16.500  0.0804  0.5943  0.5022
12662TIP3    H259478   0.068   2.348  16.519  1.0393  0.4338 -0.3639
12663TIP3   OH259479   3.726   3.939  10.963 -0.1641  0.0830  0.2747
12663TIP3    H159480   3.696   3.973  10.878 -1.4446  0.0507  0.6947
12663TIP3    H259481   3.816   3.971  10.970 -0.0402  0.1269 -1.0750
12664TIP3   OH259482   3.707   1.919  16.144 -0.2328  0.4430 -0.6318
12664TIP3    H159483   3.640   1.986  16.160 -0.4513  0.6259 -2.1847
12664TIP3    H259484   3.788   1.969  16.134  0.1991  0.2169  1.3246
12665TIP3   OH259485   6.654   4.253  15.661 -0.2688 -0.1747  0.5292
12665TIP3    H159486   6.643   4.229  15.754  1.2473 -0.3280  0.6921
12665TIP3    H259487   6.712   4.329  15.662 -2.2898  1.4670 -0.1913
12666TIP3   OH259488   5.921   0.406   3.245  0.1374  0.5743  0.2656
12666TIP3    H159489   5.825   0.409   3.247 -0.0219 -2.1566  2.3362
12666TIP3    H259490   5.947   0.394   3.337  2.3317 -0.8684 -0.4652
12667TIP3   OH259491   2.529   6.429   5.431 -0.2465  0.2135 -0.4880
12667TIP3    H159492   2.469   6.391   5.495 -0.5366  1.2564 -0.1168
12667TIP3    H259493   2.480   6.431   5.349  0.6029 -2.4665 -1.1799
12668TIP3   OH259494   5.797   6.779   4.606 -0.0627  0.2574  0.1421
12668TIP3    H159495   5.870   6.798   4.665  0.7534 -2.7547  0.2616
12668TIP3    H259496   5.728   6.746   4.663  0.0280 -0.8333 -0.3521
12669TIP3   OH259497   3.738   3.607   5.592 -0.4725  0.0613  0.2540
12669TIP3    H159498   3.727   3.636   5.682 -0.0267 -1.1931  0.7407
12669TIP3    H259499   3.649   3.600   5.557 -0.5884  1.8535  0.1434
12670TIP3   OH259500   4.834   4.922  15.900  0.3363  0.4829 -0.6980
12670TIP3    H159501   4.813   5.011  15.928  0.4568  0.7891 -1.5658
12670TIP3    H259502   4.847   4.874  15.982 -0.1221  1.1618 -0.2184
12671TIP3   OH259503   2.135   5.263  14.950 -0.2641 -0.4844 -0.5690
12671TIP3    H159504   2.075   5.196  14.919  3.3768 -2.3650 -4.6479
12671TIP3    H259505   2.202   5.215  15.000  1.6027  0.1972 -2.2712
12672TIP3   OH259506   5.420   3.506   1.712 -0.3131 -0.0696  0.5509
12672TIP3    H159507   5.381   3.428   1.673 -1.4037  0.1382  1.1682
12672TIP3    H259508   5.470   3.473   1.786 -0.7919 -0.1996  0.8252
12673TIP3   OH259509   6.024   4.151   0.701 -0.1156 -0.3664  0.1040
12673TIP3    H159510   5.934   4.169   0.676 -0.5822 -0.3873  1.6452
12673TIP3    H259511   6.033   4.189   0.789  1.7438  0.7052 -0.4822
12674TIP3   OH259512   4.483   6.412   2.381  0.1706  0.3095 -0.0712
12674TIP3    H159513   4.557   6.451   2.427 -0.6296 -0.2111  1.7571
12674TIP3    H259514   4.477   6.323   2.416 -1.2828  0.3307 -0.2117
12675TIP3   OH259515   1.579   5.368   3.415 -0.4475  0.7388  0.1391
12675TIP3    H159516   1.484   5.375   3.418 -0.5190 -0.3610  0.5777
12675TIP3    H259517   1.610   5.459   3.423 -1.4505  1.0861  0.1358
12676TIP3   OH259518   3.404   5.082   6.421 -0.1402  0.1430  0.2812
12676TIP3    H159519   3.317   5.077   6.383 -0.0569  0.7604  0.0088
12676TIP3    H259520   3.395   5.140   6.497 -0.0190 -0.0057  0.4126
12677TIP3   OH259521   0.700   0.586   0.499  0.2686  0.5068 -0.0953
12677TIP3    H159522   0.765   0.517   0.492 -0.5745 -0.1829 -1.8128
12677TIP3    H259523   0.726   0.651   0.433  0.2618  1.1327  0.5094
12678TIP3   OH259524   4.033   0.650   2.206  0.6952 -0.1340  0.0737
12678TIP3    H159525   4.084   0.706   2.264 -1.8292  0.5398  1.7776
12678TIP3    H259526   4.099   0.594   2.164  2.7549 -0.1387  2.9733
12679TIP3   OH259527   1.824   6.776  14.802  0.5430  0.6936 -0.1367
12679TIP3    H159528   1.834   6.725  14.882  1.8696 -1.2963 -1.5037
12679TIP3    H259529   1.764   6.846  14.827  0.8653  0.1299  2.5728
12680TIP3   OH259530   5.505   1.197  11.032  0.7332 -0.1059  0.2018
12680TIP3    H159531   5.437   1.136  11.006  2.0154 -0.8489 -1.6223
12680TIP3    H259532   5.458   1.279  11.050 -0.5929 -0.2114 -2.2494
12681TIP3   OH259533   2.447   3.388  10.407  0.4711  0.4549  0.0349
12681TIP3    H159534   2.485   3.464  10.452  2.7637 -1.6566  2.0079
12681TIP3    H259535   2.356   3.412  10.391  0.9120  3.3048  1.2078
12682TIP3   OH259536   4.575   6.050  10.687  0.3357  0.0558  0.0711
12682TIP3    H159537   4.573   5.957  10.663  1.0368  0.1894 -0.5605
12682TIP3    H259538   4.642   6.087  10.629 -0.2639  1.0415  0.0027
12683TIP3   OH259539   2.648   6.266   1.037  0.0783 -0.2881 -0.1774
12683TIP3    H159540   2.559   6.295   1.020  0.5591  0.9149 -0.7160
12683TIP3    H259541   2.638   6.183   1.085 -1.3306  0.6568  1.2379
12684TIP3   OH259542   5.891   1.501   4.970 -0.6402  0.0872 -0.1751
12684TIP3    H159543   5.844   1.498   4.887 -1.1884  1.4683  0.0616
12684TIP3    H259544   5.983   1.502   4.947 -0.7529 -0.8036 -0.7093
12685TIP3   OH259545   2.398   4.710   5.585  0.2196  0.0103  0.7879
12685TIP3    H159546   2.369   4.655   5.511  0.3095  0.0696  0.7088
12685TIP3    H259547   2.464   4.657   5.630  0.9573  0.4013  0.1956
12686TIP3   OH259548   2.476   3.319   3.656  0.6186 -0.5201 -0.0725
12686TIP3    H159549   2.534   3.245   3.636  1.2488 -0.2939  0.8377
12686TIP3    H259550   2.439   3.343   3.571  2.5173 -0.1450 -0.8610
12687TIP3   OH259551   1.742   3.962   2.908  0.1866 -0.3688 -0.4602
12687TIP3    H159552   1.681   3.936   2.976 -0.9751 -1.1558 -1.7731
12687TIP3    H259553   1.777   3.880   2.874  0.0876 -0.0308 -1.4036
12688TIP3   OH259554   5.146   1.000  11.966  0.0663 -0.3362  0.0800
12688TIP3    H159555   5.153   1.046  11.883 -1.4293 -0.3776 -0.0885
12688TIP3    H259556   5.230   0.955  11.976  0.4492  0.0811 -1.1493
12689TIP3   OH259557   2.724   0.024  14.983 -0.2013 -0.3751 -0.3914
12689TIP3    H159558   2.715   0.002  14.891  1.4379  0.2339 -0.7302
12689TIP3    H259559   2.672  -0.042  15.029 -1.6584 -0.2345 -1.7715
12690TIP3   OH259560   3.352   5.855  16.569 -0.2755 -0.9158 -0.3389
12690TIP3    H159561   3.358   5.950  16.559 -1.2094 -0.8930 -0.8696
12690TIP3    H259562   3.259   5.835  16.552 -0.1581 -1.8827  0.0763
12691TIP3   OH259563   4.610   1.499   4.865  0.5132  0.6201 -0.7431
12691TIP3    H159564   4.550   1.490   4.939  0.1011  1.9807 -0.8823
12691TIP3    H259565   4.680   1.555   4.897  1.2144 -0.1434 -0.8933
12692TIP3   OH259566   6.615   4.627   2.460  0.3111  0.6217 -0.0904
12692TIP3    H159567   6.533   4.627   2.509 -0.1910 -0.1314 -0.9070
12692TIP3    H259568   6.590   4.602   2.371  1.6102 -1.0920 -0.0271
12693TIP3   OH259569   0.114   2.139   0.936  0.4409  0.5441 -0.3903
12693TIP3    H159570   0.191   2.183   0.902  0.5380  0.1362 -0.7069
12693TIP3    H259571   0.072   2.204   0.992  2.8898 -0.2865  2.7018
12694TIP3   OH259572   3.937   0.900   2.129 -0.1113  0.2079  0.2395
12694TIP3    H159573   3.977   0.816   2.110 -0.1750  0.4160 -0.9263
12694TIP3    H259574   3.985   0.962   2.074 -0.4114  0.8432  0.6830
12695TIP3   OH259575   5.156   1.009   3.960  0.0670 -0.5890  0.1171
12695TIP3    H159576   5.121   1.049   4.039  0.8230  1.1621 -0.3845
12695TIP3    H259577   5.220   0.945   3.992  1.1529  0.8561  0.9294
12696TIP3   OH259578   0.299   0.646   4.802 -0.1699 -0.0180 -0.1127
12696TIP3    H159579   0.386   0.676   4.777 -0.2127 -0.4871 -0.8447
12696TIP3    H259580   0.241   0.677   4.733 -0.3900 -0.7733 -0.2794
12697TIP3   OH259581   5.138   3.775  15.815 -0.2916  0.0342 -0.1551
12697TIP3    H159582   5.048   3.781  15.781 -0.7351 -0.9687  0.7767
12697TIP3    H259583   5.192   3.810  15.744 -1.3494 -0.1046 -1.0717
12698TIP3   OH259584   5.081   6.089   4.355 -0.2681 -0.2130  0.3867
12698TIP3    H159585   5.056   6.170   4.399 -0.3388  1.0247 -1.8016
12698TIP3    H259586   5.158   6.113   4.304 -1.0613 -1.1410 -1.3194
12699TIP3   OH259587   2.484   0.498   0.623  0.2773  0.8222 -0.2315
12699TIP3    H159588   2.418   0.560   0.592 -0.5171 -0.7665 -1.9159
12699TIP3    H259589   2.566   0.548   0.622 -0.6744  2.4797  0.7335
12700TIP3   OH259590   6.778   1.373  16.104 -0.0987  0.8142 -0.3458
12700TIP3    H159591   6.720   1.409  16.171 -0.0214  0.4491 -0.0839
12700TIP3    H259592   6.859   1.423  16.113  0.3381 -0.0439  0.6385
12701TIP3   OH259593   0.752   5.742   1.655 -0.3201  0.5189 -0.3188
12701TIP3    H159594   0.724   5.784   1.573 -3.7817  0.0644  0.4741
12701TIP3    H259595   0.686   5.769   1.719  0.9282 -1.0729  1.7484
12702TIP3   OH259596   6.435   4.978  13.990 -0.1314  0.2509 -0.2723
12702TIP3    H159597   6.371   5.046  14.013 -1.3087 -0.1259 -2.2334
12702TIP3    H259598   6.406   4.947  13.905  1.9657 -0.8493 -0.6176
12703TIP3   OH259599   3.563   5.443  12.958 -0.7374 -0.4421 -0.6056
12703TIP3    H159600   3.533   5.436  12.867 -0.5131 -2.7101 -0.5608
12703TIP3    H259601   3.646   5.491  12.952 -1.2958  0.4487 -1.4435
12704TIP3   OH259602   4.870   6.710  11.378 -0.1323  0.4240 -0.0439
12704TIP3    H159603   4.842   6.786  11.327 -0.1467 -0.7877 -1.9243
12704TIP3    H259604   4.789   6.662  11.396  0.0865 -0.1958 -0.6619
12705TIP3   OH259605   3.951   4.124  13.147  0.1728  0.7611  0.1185
12705TIP3    H159606   4.009   4.196  13.123  0.2292  0.0821 -1.9895
12705TIP3    H259607   3.974   4.103  13.238  1.0295  2.5389  0.3433
12706TIP3   OH259608   2.103   1.950  16.748 -0.7172 -0.1064 -0.5477
12706TIP3    H159609   2.066   1.929  16.834  1.6647  0.4749  0.6942
12706TIP3    H259610   2.070   2.037  16.728 -1.4444 -0.3249 -0.3349
12707TIP3   OH259611   5.811   2.814   0.287  0.2329  0.0057 -0.6092
12707TIP3    H159612   5.904   2.836   0.293  0.1264  0.1723  1.0524
12707TIP3    H259613   5.778   2.867   0.215  1.1285  1.0904 -0.2511
12708TIP3   OH259614   2.067   0.705   4.532 -0.1098 -0.0707 -0.1720
12708TIP3    H159615   2.099   0.617   4.550  0.4982 -0.1694 -1.6066
12708TIP3    H259616   2.042   0.740   4.618  1.1767 -1.0353  0.6260
12709TIP3   OH259617   2.235   3.888   3.602 -0.3461 -0.2585 -0.1304
12709TIP3    H159618   2.280   3.804   3.591  0.7986  0.5219 -1.9432
12709TIP3    H259619   2.303   3.947   3.635 -0.3893  0.5699 -1.4367
12710TIP3   OH259620   6.397   6.279  15.602  0.2868 -0.5863  0.1052
12710TIP3    H159621   6.476   6.256  15.553  0.7516  1.9285 -0.4946
12710TIP3    H259622   6.346   6.332  15.541  0.8172  2.5488  2.1320
12711TIP3   OH259623   3.878   4.192  15.792 -0.0765  0.2861 -0.1402
12711TIP3    H159624   3.845   4.105  15.767  0.4987  0.0846 -0.2012
12711TIP3    H259625   3.800   4.239  15.821 -0.6936  0.3442 -1.7717
12712TIP3   OH259626   5.139   2.211   0.356 -0.1470  0.1061  0.1879
12712TIP3    H159627   5.204   2.156   0.312  0.0847  0.9220 -0.5308
12712TIP3    H259628   5.163   2.207   0.449 -0.2437 -1.1231  0.1777
12713TIP3   OH259629   2.530   3.502  13.573 -0.2256 -0.3236 -0.1109
12713TIP3    H159630   2.493   3.417  13.598 -0.5306 -0.4492 -0.9557
12713TIP3    H259631   2.471   3.535  13.505  0.4357  0.1263 -0.4778
12714TIP3   OH259632   0.242   1.426  14.861 -0.4713  0.1067 -0.3741
12714TIP3    H159633   0.295   1.446  14.784 -1.6626  0.9487 -1.0160
12714TIP3    H259634   0.227   1.510  14.903  0.0109 -0.3206  0.6986
12715TIP3   OH259635   6.584   1.921  13.060 -0.2653 -0.2810  0.0824
12715TIP3    H159636   6.553   1.973  13.134  0.2254 -0.7089  0.6075
12715TIP3    H259637   6.520   1.936  12.991 -2.5412 -2.2787  1.5673
12716TIP3   OH259638   6.498   2.750  14.164  0.3025  0.3774  0.1053
12716TIP3    H159639   6.563   2.816  14.139 -0.9287  1.1483 -1.2337
12716TIP3    H259640   6.450   2.732  14.083 -2.7210  1.6180  1.4760
12717TIP3   OH259641   5.865   1.331  14.045  0.0985  0.7800 -0.4050
12717TIP3    H159642   5.862   1.340  13.950 -0.0469  0.0269 -0.4711
12717TIP3    H259643   5.928   1.262  14.061 -0.3892  0.4238  0.0163
12718TIP3   OH259644   1.041   0.063   5.583  0.1639  0.0731 -0.2718
12718TIP3    H159645   1.072   0.098   5.499 -0.2205 -1.3492 -1.0268
12718TIP3    H259646   1.032   0.141   5.639  1.4095  0.9316 -1.2091
12719TIP3   OH259647   2.339   1.399  12.374 -0.3001 -0.1603 -0.4466
12719TIP3    H159648   2.319   1.318  12.326 -1.1664  0.9435 -2.0403
12719TIP3    H259649   2.316   1.379  12.464 -0.6437 -1.6472 -0.8306
12720TIP3   OH259650   0.864   1.963   2.219  0.3272  0.1016  0.6213
12720TIP3    H159651   0.788   1.997   2.170  2.6996  4.6192 -0.5414
12720TIP3    H259652   0.920   1.925   2.152  1.2429  1.4252  0.6091
12721TIP3   OH259653   2.925   1.225  11.782  0.0515 -0.2487 -0.1144
12721TIP3    H159654   2.871   1.207  11.705  1.4918  0.8892 -1.4765
12721TIP3    H259655   2.935   1.140  11.825  1.0152 -1.4163 -2.4626
12722TIP3   OH259656   2.363   0.626   6.913  0.2571  0.0741 -0.2074
12722TIP3    H159657   2.389   0.541   6.950  0.5977  0.3872  0.2941
12722TIP3    H259658   2.286   0.652   6.964 -0.6724 -0.5542 -1.2661
12723TIP3   OH259659   2.731   4.199  14.993 -0.1088  0.2849 -0.0345
12723TIP3    H159660   2.762   4.140  14.924 -0.9420 -0.8321  0.5221
12723TIP3    H259661   2.800   4.197  15.059  0.6320  1.2576 -0.7460
12724TIP3   OH259662   4.945   4.948   5.020 -0.1047  0.0878  0.1900
12724TIP3    H159663   4.961   5.042   5.025 -0.8527  0.4530 -2.6033
12724TIP3    H259664   4.867   4.933   5.073 -0.8738  1.3169 -0.5619
12725TIP3   OH259665   3.029   4.153  15.461 -0.3484  0.2790  0.3064
12725TIP3    H159666   3.120   4.127  15.473 -0.0534 -0.2199 -2.2990
12725TIP3    H259667   2.978   4.080  15.496  0.2258  0.4857  1.6277
12726TIP3   OH259668   1.691   4.346  12.544 -0.1861 -0.3158 -0.1935
12726TIP3    H159669   1.599   4.338  12.521 -0.5300  1.8183  0.1883
12726TIP3    H259670   1.733   4.378  12.464  0.0902 -0.5398 -0.1418
12727TIP3   OH259671   5.843   2.539   0.710  0.3562  0.3496  0.7325
12727TIP3    H159672   5.768   2.590   0.741  0.3667  1.1759 -0.5272
12727TIP3    H259673   5.919   2.586   0.744  0.3266 -0.3228  1.7629
12728TIP3   OH259674   3.442   6.179   3.134 -0.0356 -0.2589  0.5747
12728TIP3    H159675   3.502   6.105   3.143 -0.8348 -1.0950 -0.6622
12728TIP3    H259676   3.356   6.139   3.123 -0.4824  0.8505 -0.1184
12729TIP3   OH259677   6.388   5.460   3.017 -0.4787  0.6436 -0.0840
12729TIP3    H159678   6.392   5.469   3.112  0.0661 -2.9115  0.3938
12729TIP3    H259679   6.427   5.540   2.983  1.7207  0.9481  2.7912
12730TIP3   OH259680   4.622   5.211  13.039 -0.6245 -0.5213  0.0899
12730TIP3    H159681   4.588   5.130  13.002  1.6388 -1.6340  0.3143
12730TIP3    H259682   4.672   5.184  13.116 -0.2309  1.1340  0.4624
12731TIP3   OH259683   1.602   6.386  11.268  0.3927  0.1183 -0.4853
12731TIP3    H159684   1.605   6.459  11.207  2.1478 -1.1903 -2.0557
12731TIP3    H259685   1.630   6.424  11.352  0.7622  1.3395 -1.1424
12732TIP3   OH259686   6.425   0.522   6.089  0.0782 -0.6997  0.0416
12732TIP3    H159687   6.509   0.566   6.104 -0.1077 -0.7250  1.2492
12732TIP3    H259688   6.363   0.572   6.142 -0.7699 -0.3834 -1.2297
12733TIP3   OH259689   4.183   5.249  15.447 -0.6347 -0.2344  0.3189
12733TIP3    H159690   4.121   5.285  15.383 -2.2426 -1.3818  1.1776
12733TIP3    H259691   4.209   5.324  15.500 -0.1978  0.5081 -0.8975
12734TIP3   OH259692   2.432   1.983  14.239 -0.4507 -0.3046  0.2862
12734TIP3    H159693   2.504   1.928  14.208  1.3157  3.0854 -2.2813
12734TIP3    H259694   2.475   2.058  14.281 -2.5967  0.4225  1.3595
12735TIP3   OH259695   1.381   3.309   2.798 -0.3982  0.0250  0.8336
12735TIP3    H159696   1.434   3.320   2.876 -2.2624 -0.1971  2.2085
12735TIP3    H259697   1.422   3.366   2.732  0.3556  1.3876  2.4147
12736TIP3   OH259698   2.873   6.341  16.096 -0.0022 -0.0524  0.3548
12736TIP3    H159699   2.892   6.430  16.067  0.8177  0.1913  1.5762
12736TIP3    H259700   2.896   6.286  16.021  4.0040  0.3659  1.0396
12737TIP3   OH259701   0.718   1.142   0.593 -0.5622 -0.3281  0.5986
12737TIP3    H159702   0.643   1.201   0.599 -0.4835 -0.2213  0.5445
12737TIP3    H259703   0.685   1.057   0.620 -1.6450 -1.1401 -2.8001
12738TIP3   OH259704   0.188   2.321  12.563 -0.1229 -0.2936 -0.1761
12738TIP3    H159705   0.201   2.238  12.609 -2.2973  0.0377  1.2140
12738TIP3    H259706   0.256   2.378  12.596  0.4718 -1.0893 -0.0085
12739TIP3   OH259707   3.809   3.685   5.179 -0.2846  0.3641  0.1576
12739TIP3    H159708   3.760   3.692   5.260  0.2431  0.2377  0.4948
12739TIP3    H259709   3.747   3.650   5.115 -0.1011 -1.8132  1.0824
12740TIP3   OH259710   3.854   1.457   2.179 -0.3548  0.5305 -0.1662
12740TIP3    H159711   3.885   1.506   2.255 -0.8183 -2.0989  1.9050
12740TIP3    H259712   3.928   1.456   2.119 -0.0253  2.8465  0.1069
12741TIP3   OH259713   3.475   4.205  13.037 -0.2225 -0.1041 -0.5651
12741TIP3    H159714   3.531   4.252  12.975 -0.7593  1.4227  0.0672
12741TIP3    H259715   3.535   4.167  13.101  0.1845  0.1246 -0.8116
12742TIP3   OH259716   1.004   4.928  12.167 -0.5983 -0.5747 -0.0314
12742TIP3    H159717   1.072   4.978  12.212 -2.6777  1.1219  1.3831
12742TIP3    H259718   1.049   4.891  12.090  2.0998 -0.2792  1.2895
12743TIP3   OH259719   2.909   1.372   5.494 -1.1661 -0.2764 -0.1407
12743TIP3    H159720   2.932   1.450   5.443 -2.9917 -1.3721 -2.9138
12743TIP3    H259721   2.824   1.392   5.532 -0.3373  0.0962  1.5754
12744TIP3   OH259722   2.788   3.688  10.374 -0.1156  0.4950  0.3418
12744TIP3    H159723   2.878   3.718  10.387 -0.0726  1.1491 -1.2294
12744TIP3    H259724   2.734   3.760  10.406 -0.0706  0.3996  0.6322
12745TIP3   OH259725   6.233   5.671  12.526  0.4623  0.1615  0.1570
12745TIP3    H159726   6.150   5.711  12.501  0.5907  0.9635  0.9608
12745TIP3    H259727   6.241   5.594  12.469 -0.0261  0.9905 -1.0701
12746TIP3   OH259728   6.695   0.633  13.288 -0.1222 -0.4807  0.1742
12746TIP3    H159729   6.621   0.667  13.338  0.1803  1.8348 -0.8367
12746TIP3    H259730   6.656   0.571  13.226 -1.2529  0.7269 -0.3746
12747TIP3   OH259731   4.752   0.708  10.638  0.0501  0.0580  0.0835
12747TIP3    H159732   4.741   0.776  10.705 -0.1589  1.8859 -1.6736
12747TIP3    H259733   4.674   0.717  10.583  0.1247 -1.5078 -0.3009
12748TIP3   OH259734   2.958   4.876   3.979  0.2823  0.1984  0.3396
12748TIP3    H159735   2.927   4.811   4.043 -1.2029  0.0154 -0.5189
12748TIP3    H259736   3.029   4.832   3.932  0.8055  0.0258  1.2638
12749TIP3   OH259737   5.032   2.553  13.957  0.7421  0.5249 -0.3524
12749TIP3    H159738   5.047   2.524  13.867 -1.5227  0.3317 -0.7085
12749TIP3    H259739   4.977   2.486  13.996  1.4673  0.7395  1.1310
12750TIP3   OH259740   6.443   3.066  11.158  0.4497  0.6573 -0.1034
12750TIP3    H159741   6.401   2.991  11.199 -1.5261  1.5673 -0.3480
12750TIP3    H259742   6.441   3.047  11.064  2.1633 -0.0345 -0.0345
12751TIP3   OH259743   2.678   2.045   4.455  1.1197  0.7942 -0.4646
12751TIP3    H159744   2.648   2.004   4.536 -1.6422  0.6583 -1.4513
12751TIP3    H259745   2.680   2.139   4.475  0.8923  0.7287 -0.1363
12752TIP3   OH259746   1.126   1.949  15.347  0.2077  0.1817  0.0702
12752TIP3    H159747   1.173   1.893  15.409 -0.0282 -0.9052 -0.6848
12752TIP3    H259748   1.182   1.952  15.270  0.0972  0.7960  0.0092
12753TIP3   OH259749   0.346   6.491   2.983  0.5921  0.4822  0.9574
12753TIP3    H159750   0.412   6.558   2.962 -0.8929  2.6223  2.6221
12753TIP3    H259751   0.393   6.408   2.975  2.5717  1.6817 -1.1151
12754TIP3   OH259752   3.859   5.622   4.124  0.3385 -0.5238  0.6648
12754TIP3    H159753   3.820   5.614   4.210 -0.5368  2.2743  0.6042
12754TIP3    H259754   3.842   5.537   4.082 -2.0257 -0.8342  2.0990
12755TIP3   OH259755   0.572   5.029  16.372  0.7309 -0.2140 -0.1222
12755TIP3    H159756   0.573   4.934  16.362 -0.9843 -0.2720 -0.1387
12755TIP3    H259757   0.528   5.060  16.292 -0.0020  0.4738  0.5397
12756TIP3   OH259758   2.550   3.034  14.065  0.1977  0.0510  0.6249
12756TIP3    H159759   2.495   3.022  14.143 -0.5088  0.8516  0.2628
12756TIP3    H259760   2.584   2.946  14.046 -1.3576 -0.5711  0.5783
12757TIP3   OH259761   2.776   0.400  12.079  0.0310  0.4334  0.0944
12757TIP3    H159762   2.853   0.433  12.125 -0.2043 -0.8570  1.4944
12757TIP3    H259763   2.733   0.343  12.142 -0.1919 -1.6427 -1.7829
12758TIP3   OH259764   4.374   4.281   3.141 -0.3497  0.1172 -0.3150
12758TIP3    H159765   4.324   4.320   3.213  1.8874 -0.7589  1.8641
12758TIP3    H259766   4.362   4.187   3.152  2.0651 -0.1617  0.6234
12759TIP3   OH259767   0.059   4.944  16.593 -0.2110 -0.4585  0.2819
12759TIP3    H159768   0.078   4.852  16.613 -0.7720 -0.5744  0.2998
12759TIP3    H259769   0.087   4.955  16.502 -1.6303 -1.0851 -0.2568
12760TIP3   OH259770   0.412   0.497   0.513  0.0549  0.5521 -0.2506
12760TIP3    H159771   0.499   0.536   0.509 -0.0396  1.0261  1.5596
12760TIP3    H259772   0.358   0.563   0.557 -0.5509 -0.8147  1.1471
12761TIP3   OH259773   0.541   3.037   3.694 -0.3990  0.3907 -0.8345
12761TIP3    H159774   0.467   2.993   3.651 -0.0224 -1.6320  0.4133
12761TIP3    H259775   0.605   2.967   3.706  0.0091  1.1067  1.8131
12762TIP3   OH259776   6.685   5.346  14.005  0.4602  0.0208 -0.7117
12762TIP3    H159777   6.602   5.393  14.017  0.9399  1.0670 -1.4055
12762TIP3    H259778   6.729   5.355  14.089  1.4532  2.6813 -1.4007
12763TIP3   OH259779   4.273   5.954   1.664  0.1187 -0.0024  0.0577
12763TIP3    H159780   4.306   5.864   1.655 -1.1955 -0.4524 -0.4357
12763TIP3    H259781   4.335   5.996   1.724  0.5351 -1.3519  0.6047
12764TIP3   OH259782   3.582   4.743   0.277  0.9373 -0.2801 -0.0998
12764TIP3    H159783   3.518   4.684   0.316 -0.4049  1.2550  0.0682
12764TIP3    H259784   3.592   4.711   0.187  1.5478 -1.7843  0.4653
12765TIP3   OH259785   6.054   6.016  10.419  0.3688 -0.4174 -0.0418
12765TIP3    H159786   6.062   5.969  10.502 -0.9290 -2.2872 -0.9230
12765TIP3    H259787   6.000   6.093  10.440 -1.3676 -1.7365  0.5605
12766TIP3   OH259788   5.139   3.881  10.785  0.0449  0.1640 -0.3324
12766TIP3    H159789   5.054   3.925  10.787  0.1324  0.3357  0.9899
12766TIP3    H259790   5.173   3.898  10.698  0.1243  2.8712  0.1239
12767TIP3   OH259791   0.314   2.826   0.341 -0.3077  0.1337  0.4412
12767TIP3    H159792   0.289   2.811   0.249 -0.2949 -4.1238  0.9077
12767TIP3    H259793   0.410   2.832   0.339 -0.1841 -1.3754  0.2083
12768TIP3   OH259794   1.575   3.151  15.888  0.0681 -0.2905 -0.1650
12768TIP3    H159795   1.502   3.145  15.826 -1.6646 -0.9740  1.8171
12768TIP3    H259796   1.624   3.228  15.859 -1.7078  0.4868 -1.3182
12769TIP3   OH259797   3.437   3.251  12.585 -0.0848  0.0274  0.2436
12769TIP3    H159798   3.364   3.298  12.625  1.3619  1.2966  1.4893
12769TIP3    H259799   3.455   3.179  12.646  0.3519  0.3230  0.4646
12770TIP3   OH259800   5.980   0.138   6.235  0.3610 -0.0576 -1.2741
12770TIP3    H159801   5.885   0.124   6.231  0.2652 -0.1509  0.5907
12770TIP3    H259802   6.017   0.052   6.253  0.5790  0.3783  0.4781
12771TIP3   OH259803   6.165   4.001   0.138 -0.1872  0.1061 -0.1620
12771TIP3    H159804   6.225   3.981   0.066  1.2001  0.8143  0.7473
12771TIP3    H259805   6.181   3.933   0.203  0.9521  1.2277  0.8135
12772TIP3   OH259806   1.745   2.166   4.508 -0.4983  0.3005 -0.0529
12772TIP3    H159807   1.700   2.114   4.575 -2.1061  0.6022 -0.8409
12772TIP3    H259808   1.740   2.256   4.539 -1.8801  0.5379 -0.8436
12773TIP3   OH259809   4.777   4.687   2.205  0.2213  0.1923  0.3427
12773TIP3    H159810   4.850   4.650   2.256  0.2763 -0.2866 -0.0732
12773TIP3    H259811   4.707   4.622   2.213 -0.1693  0.6533  0.7429
12774TIP3   OH259812   4.289   3.144  11.732  1.1154  0.3989 -0.5043
12774TIP3    H159813   4.377   3.114  11.710  0.8769 -1.1923  0.5018
12774TIP3    H259814   4.271   3.104  11.818 -1.9972 -2.6148 -2.2719
12775TIP3   OH259815   5.272   4.181   4.231 -0.2256  0.0626  0.0089
12775TIP3    H159816   5.192   4.233   4.221  0.7407  1.3757 -1.2151
12775TIP3    H259817   5.327   4.233   4.289  0.5214  0.1329 -0.7473
12776TIP3   OH259818   0.069   5.375   6.064 -0.1305 -0.9869  0.2496
12776TIP3    H159819   0.012   5.418   6.000  1.3432  0.6093 -0.0573
12776TIP3    H259820   0.017   5.373   6.144  0.2483  3.0909  0.8163
12777TIP3   OH259821   2.579   5.301  13.789  0.9695  0.7673 -0.4019
12777TIP3    H159822   2.579   5.241  13.714 -1.6720 -2.1486  1.6842
12777TIP3    H259823   2.517   5.369  13.765 -1.0088 -0.9454 -0.4299
12778TIP3   OH259824   5.473   3.235  13.681 -0.1572  0.1568  0.2298
12778TIP3    H159825   5.550   3.288  13.660 -0.1544  0.6930  1.5018
12778TIP3    H259826   5.436   3.277  13.758 -0.1206 -1.7520  1.3321
12779TIP3   OH259827   1.587   5.421  13.325  0.0330 -0.1137  0.3470
12779TIP3    H159828   1.537   5.408  13.245  0.3309  1.4181 -0.1211
12779TIP3    H259829   1.522   5.416  13.395 -0.4173 -0.3200 -0.0789
12780TIP3   OH259830   6.335   4.503   6.463  0.0274  0.5092  0.1353
12780TIP3    H159831   6.329   4.597   6.479  1.8296  0.6469  0.2041
12780TIP3    H259832   6.429   4.484   6.468  0.0113 -0.7829 -2.8146
12781TIP3   OH259833   5.136   3.836  11.565 -0.5550 -0.4476  0.1198
12781TIP3    H159834   5.172   3.813  11.651  2.7135  3.0706 -0.0703
12781TIP3    H259835   5.079   3.911  11.582 -1.3160 -0.8334 -0.6322
12782TIP3   OH259836   6.791   4.416  10.396  0.3158 -0.0512 -0.6635
12782TIP3    H159837   6.708   4.398  10.353  1.1278 -1.4302 -1.7410
12782TIP3    H259838   6.851   4.438  10.325  1.5682 -1.9091 -0.2778
12783TIP3   OH259839   0.153   1.793   4.992  0.4316  0.6925  0.2802
12783TIP3    H159840   0.077   1.744   5.024 -0.1024  2.3847  1.7391
12783TIP3    H259841   0.122   1.834   4.911  0.8945 -1.3098 -0.9749
12784TIP3   OH259842   0.557   1.139   0.955  0.2254  0.3154 -0.6255
12784TIP3    H159843   0.481   1.152   0.898 -0.9898  0.0320  0.8730
12784TIP3    H259844   0.603   1.223   0.953 -0.4201  0.6632 -1.1376
12785TIP3   OH259845   1.487   5.734  12.773  0.3955  0.7647 -0.6026
12785TIP3    H159846   1.445   5.816  12.801 -0.3837  0.4043 -0.6981
12785TIP3    H259847   1.555   5.762  12.711  1.7624  1.5272  1.1634
12786TIP3   OH259848   4.380   5.727  16.533 -0.5280 -0.1197 -0.1494
12786TIP3    H159849   4.441   5.687  16.471 -0.2895  0.9504 -0.6328
12786TIP3    H259850   4.336   5.653  16.576  0.0968 -0.8824 -0.8064
12787TIP3   OH259851   2.774   3.336   2.355 -0.2409  0.2210 -0.7211
12787TIP3    H159852   2.830   3.267   2.319  1.0266 -0.0252  1.5414
12787TIP3    H259853   2.721   3.291   2.421 -0.9644  1.0268 -0.7423
12788TIP3   OH259854   0.512   0.682  11.923 -0.1419 -0.3374  0.0178
12788TIP3    H159855   0.601   0.707  11.898  0.1315  0.1095  1.3480
12788TIP3    H259856   0.488   0.745  11.991 -1.2394 -0.8511  0.1249
12789TIP3   OH259857   1.754   1.621  11.310  0.1177  0.4210 -0.1441
12789TIP3    H159858   1.849   1.630  11.312 -0.0659  2.9916  0.6881
12789TIP3    H259859   1.721   1.711  11.315 -2.3641 -0.4312  0.3389
12790TIP3   OH259860   4.292   4.394  16.126  0.5062 -0.0805  0.1025
12790TIP3    H159861   4.314   4.475  16.171 -1.0535 -0.2409  1.2412
12790TIP3    H259862   4.373   4.343  16.126  1.0584  0.7776  0.8970
12791TIP3   OH259863   3.067   4.108   5.490  0.2222  0.0693 -0.4301
12791TIP3    H159864   3.047   4.048   5.418  0.7265  0.4480 -0.8905
12791TIP3    H259865   3.021   4.189   5.467  1.4765  0.6331 -1.0135
12792TIP3   OH259866   6.796   0.027   2.408  0.2913 -0.1891  0.1109
12792TIP3    H159867   6.710   0.065   2.424  0.0440 -0.5906 -0.2472
12792TIP3    H259868   6.791  -0.062   2.443  0.4213 -0.3584 -0.2860
12793TIP3   OH259869   0.801   0.174  11.762  0.3139  0.3826 -0.1049
12793TIP3    H159870   0.882   0.135  11.795  0.0694  0.4665  0.6153
12793TIP3    H259871   0.733   0.141  11.820  0.1507  2.2308  0.8258
12794TIP3   OH259872   4.945   1.151   3.099 -0.1686  0.3401  0.4307
12794TIP3    H159873   4.859   1.114   3.120  0.6005 -1.0666  1.2369
12794TIP3    H259874   4.961   1.215   3.168 -0.2536  0.0870  0.6864
12795TIP3   OH259875   3.664   1.684  14.143 -0.1709 -0.1259  0.4878
12795TIP3    H159876   3.593   1.632  14.106 -0.7325  0.5891  0.5361
12795TIP3    H259877   3.680   1.752  14.078 -0.4832  0.5421  1.0984
12796TIP3   OH259878   5.158   4.124   2.100  0.2986  0.0731 -0.7051
12796TIP3    H159879   5.224   4.178   2.145 -0.1877  1.1012 -1.1897
12796TIP3    H259880   5.191   4.034   2.109 -0.1473  0.1022  2.3678
12797TIP3   OH259881   3.705   3.502   2.057 -0.1639 -0.6022  0.5921
12797TIP3    H159882   3.744   3.586   2.031 -1.8603  1.1673  3.3198
12797TIP3    H259883   3.770   3.462   2.114 -0.1445 -0.2418  0.8211
12798TIP3   OH259884   3.650   6.369   0.538 -0.1697 -0.3840 -0.0091
12798TIP3    H159885   3.614   6.405   0.620 -1.4806  0.1616 -0.7906
12798TIP3    H259886   3.745   6.374   0.549 -0.3124  1.5051  0.7160
12799TIP3   OH259887   2.375   4.059  12.992  0.5496 -0.2358  0.0776
12799TIP3    H159888   2.463   4.035  13.022  0.9706  0.6836 -0.3709
12799TIP3    H259889   2.344   4.122  13.057  0.1392 -0.6977  0.3358
12800TIP3   OH259890   0.447   0.631  16.180 -0.0051 -0.1287  0.1449
12800TIP3    H159891   0.510   0.650  16.249 -0.7344  0.4016  0.6859
12800TIP3    H259892   0.363   0.624  16.225 -0.5182  0.3770 -0.7003
12801TIP3   OH259893   6.767   0.627   0.189  0.3265  0.0688  0.0739
12801TIP3    H159894   6.728   0.690   0.249  1.8345  1.1801 -0.0699
12801TIP3    H259895   6.710   0.629   0.112 -0.2998  0.3709  0.5399
12802TIP3   OH259896   0.963   4.272   3.856 -0.0899 -0.1578 -0.1686
12802TIP3    H159897   1.020   4.332   3.807 -0.4470  0.3471  0.0250
12802TIP3    H259898   0.874   4.300   3.834 -0.2863 -1.2734 -0.8800
12803TIP3   OH259899   0.039   4.904   5.259  0.3735 -0.1589 -0.0025
12803TIP3    H159900  -0.028   4.877   5.197  1.1697 -0.3052 -0.8135
12803TIP3    H259901   0.087   4.824   5.281 -0.4096 -0.2694  1.4621
12804TIP3   OH259902   3.761   5.559  12.774  0.4231  0.3233 -0.1544
12804TIP3    H159903   3.771   5.473  12.734 -2.2650 -0.6666  1.0891
12804TIP3    H259904   3.851   5.590  12.785  1.4141 -1.5115 -2.2314
12805TIP3   OH259905   1.001   6.782   5.232 -0.5303 -0.2071  0.0622
12805TIP3    H159906   1.018   6.849   5.298 -0.7881 -2.9277  3.1609
12805TIP3    H259907   1.079   6.781   5.177  0.4711  1.0290  1.3997
12806TIP3   OH259908   1.243   2.291   2.121 -0.2125  0.8312 -0.0130
12806TIP3    H159909   1.161   2.332   2.151  0.4195  2.2702 -0.1952
12806TIP3    H259910   1.312   2.347   2.156  0.7834 -1.1198  1.2907
12807TIP3   OH259911   1.413   4.737   5.965  0.6405 -0.5133 -0.0244
12807TIP3    H159912   1.457   4.715   6.047  0.7883  1.5430  0.4845
12807TIP3    H259913   1.351   4.665   5.952  0.4448 -0.7895  2.0105
12808TIP3   OH259914   5.273   6.630  12.284  0.8431  0.1884  0.0282
12808TIP3    H159915   5.360   6.630  12.325 -0.7768 -1.5903  3.9191
12808TIP3    H259916   5.227   6.703  12.327 -0.3966 -0.6101  0.1000
12809TIP3   OH259917   1.834   0.742  14.354  0.2126 -0.1831 -0.2029
12809TIP3    H159918   1.883   0.668  14.390 -0.5917  0.7510  3.1639
12809TIP3    H259919   1.779   0.771  14.426 -2.0937  1.5488 -2.5090
12810TIP3   OH259920   1.189   1.607   2.853 -0.2517 -0.3828  0.5197
12810TIP3    H159921   1.189   1.684   2.796  0.6323 -1.2855 -0.7545
12810TIP3    H259922   1.130   1.545   2.811  0.6301 -1.1705  0.3883
12811TIP3   OH259923   2.066   1.846   3.430  0.2285 -0.2210 -0.6457
12811TIP3    H159924   2.057   1.915   3.364 -1.3463  0.3450  0.1087
12811TIP3    H259925   1.993   1.787   3.412  2.0093 -2.1865 -1.7895
12812TIP3   OH259926   1.999   6.780  15.555  0.3492 -0.2646 -0.1360
12812TIP3    H159927   1.955   6.720  15.615 -1.1107 -0.6578 -1.5228
12812TIP3    H259928   2.049   6.724  15.497  0.4895  0.0036 -0.2758
12813TIP3   OH259929   6.338   4.491   3.212 -0.3374  0.3044  0.7342
12813TIP3    H159930   6.384   4.420   3.256  0.6652  0.9433  0.7391
12813TIP3    H259931   6.405   4.557   3.195 -1.0826  0.8975 -0.0261
12814TIP3   OH259932   2.451   0.779  14.725  0.0982  0.1861  0.4762
12814TIP3    H159933   2.403   0.858  14.702 -1.1647 -0.8900 -0.8717
12814TIP3    H259934   2.482   0.745  14.640  3.1650  0.7177  1.2586
12815TIP3   OH259935   0.287   2.186   3.855 -0.7006  0.4941 -0.1090
12815TIP3    H159936   0.241   2.186   3.940 -1.4417  0.3605 -0.4986
12815TIP3    H259937   0.368   2.233   3.872 -1.6512  2.0863  0.2597
12816TIP3   OH259938   2.276   4.819   0.992 -0.2026 -0.1502 -0.4990
12816TIP3    H159939   2.321   4.857   0.917  0.8799  0.4608  0.4329
12816TIP3    H259940   2.231   4.892   1.033  2.2418  0.3317  1.5528
12817TIP3   OH259941   3.281   4.115   3.943 -0.3431 -0.5094  0.1608
12817TIP3    H159942   3.367   4.114   3.901  0.5489  0.4756  1.8369
12817TIP3    H259943   3.237   4.191   3.905  0.0155 -0.2915  0.1680
12818TIP3   OH259944   2.700   2.225   5.744  0.3266 -0.0745 -0.0903
12818TIP3    H159945   2.733   2.239   5.832  1.8813 -2.2664 -0.2560
12818TIP3    H259946   2.770   2.178   5.699 -0.5455  0.6952 -2.4286
12819TIP3   OH259947   2.842   6.233  13.937  0.2524  0.1118  0.3830
12819TIP3    H159948   2.778   6.162  13.928  0.2618  0.1641 -0.1316
12819TIP3    H259949   2.827   6.268  14.024 -1.3465  0.9938 -0.2053
12820TIP3   OH259950   2.662   0.690   5.400 -0.7901  0.0769 -0.4062
12820TIP3    H159951   2.603   0.618   5.421  0.0444 -1.2130 -2.1998
12820TIP3    H259952   2.731   0.686   5.466 -1.7324  0.4567  0.6213
12821TIP3   OH259953   2.864   2.246  14.798 -0.0989 -0.1016 -0.7731
12821TIP3    H159954   2.884   2.265  14.890 -0.6486 -1.5916 -0.3194
12821TIP3    H259955   2.853   2.151  14.795  1.5481 -0.3048 -2.7036
12822TIP3   OH259956   1.427   0.762   1.132 -0.0573 -0.0854 -0.7249
12822TIP3    H159957   1.515   0.796   1.118 -0.7536  1.2171 -2.1829
12822TIP3    H259958   1.375   0.838   1.156 -1.0801 -0.5963 -1.2487
12823TIP3   OH259959   6.381   6.508   1.376  0.1923  0.0571  0.5729
12823TIP3    H159960   6.381   6.474   1.286 -0.3211 -0.0339  0.6072
12823TIP3    H259961   6.447   6.455   1.421 -0.0505 -0.3686  0.4290
12824TIP3   OH259962   0.310   0.185  14.996  0.0261  0.5370 -0.2201
12824TIP3    H159963   0.318   0.211  14.904  0.9180  1.8476  0.1973
12824TIP3    H259964   0.219   0.157  15.004  0.0324  0.0340 -1.5832
12825TIP3   OH259965   5.067   2.374  11.279  0.2156 -0.0349 -0.1277
12825TIP3    H159966   5.049   2.421  11.197 -3.4084 -0.0208  0.5078
12825TIP3    H259967   5.095   2.443  11.340 -2.5969  1.0142  0.1042
12826TIP3   OH259968   6.078   2.476  14.610  0.2818 -0.0496 -0.2379
12826TIP3    H159969   6.087   2.571  14.615 -0.3112 -0.0452  0.9866
12826TIP3    H259970   6.142   2.450  14.543  0.8356  1.1471 -0.2072
12827TIP3   OH259971   4.721   4.329   2.324  0.3085  0.3169  0.0567
12827TIP3    H159972   4.657   4.398   2.314  0.8760  0.8902  0.3166
12827TIP3    H259973   4.746   4.332   2.417 -0.0798 -0.6187  0.2100
12828TIP3   OH259974   1.574   6.820   0.856  0.2987  0.0029  0.2425
12828TIP3    H159975   1.541   6.751   0.914  1.6583 -1.1146 -0.2301
12828TIP3    H259976   1.584   6.777   0.771  0.7047  0.9297 -0.1934
12829TIP3   OH259977   0.425   6.805  15.489 -0.2819 -0.2087 -0.2419
12829TIP3    H159978   0.397   6.894  15.467 -1.1531 -0.1713  0.9292
12829TIP3    H259979   0.345   6.759  15.513  0.4301 -0.5507  1.6764
12830TIP3   OH259980   1.954   4.614   4.522 -0.2636  0.3286  0.6816
12830TIP3    H159981   1.947   4.519   4.534 -0.7660  0.3302  0.4226
12830TIP3    H259982   2.006   4.643   4.597 -0.1070 -0.1506  0.7655
12831TIP3   OH259983   3.131   6.088  13.133 -0.2209  0.1913 -0.1318
12831TIP3    H159984   3.103   6.066  13.222  3.2495 -0.3151  0.9973
12831TIP3    H259985   3.150   6.182  13.136  1.9352 -0.2079  0.3937
12832TIP3   OH259986   2.848   1.988  14.983  0.3564  0.1908  0.0304
12832TIP3    H159987   2.848   1.912  15.041 -0.1403 -0.4995 -0.8600
12832TIP3    H259988   2.756   2.014  14.976  0.7059  2.3745  2.2111
12833TIP3   OH259989   2.398   2.426  14.044  1.1195  0.3161 -0.1660
12833TIP3    H159990   2.447   2.486  13.988  1.2308 -0.1340 -0.5533
12833TIP3    H259991   2.454   2.348  14.050 -0.1536 -0.7689 -1.7620
12834TIP3   OH259992   5.290   5.373   4.971 -0.4720 -0.0875 -0.6298
12834TIP3    H159993   5.280   5.278   4.970  1.0980 -0.3983  2.2292
12834TIP3    H259994   5.336   5.393   4.889 -0.7803 -1.7527 -1.2549
12835TIP3   OH259995   2.795   2.619   1.217  0.1931  0.4680 -0.6917
12835TIP3    H159996   2.880   2.585   1.189  0.6705 -0.0493  1.2700
12835TIP3    H259997   2.734   2.589   1.149  0.8772 -2.8262 -0.0139
12836TIP3   OH259998   1.845   1.386   2.560 -0.8198 -0.4008  0.1549
12836TIP3    H159999   1.859   1.418   2.471 -0.4754 -2.3695 -0.5480
12836TIP3    H260000   1.840   1.466   2.614  2.0152  0.7865 -1.1371
12837TIP3   OH260001   6.358   5.103   1.081 -0.1144  0.0338  0.4056
12837TIP3    H160002   6.412   5.090   1.159 -0.3670 -1.3072  0.3685
12837TIP3    H260003   6.293   5.168   1.108  0.4530  0.3777  0.9789
12838TIP3   OH260004   3.285   4.170  16.620 -0.4556  0.0981 -0.0018
12838TIP3    H160005   3.264   4.232  16.551 -0.9434 -0.4008 -0.3215
12838TIP3    H260006   3.225   4.192  16.691 -0.9167 -0.2535 -0.2716
12839TIP3   OH260007   1.670   5.153  13.299  0.1908 -0.1495  0.4515
12839TIP3    H160008   1.719   5.199  13.231  0.5460  0.2290  0.9601
12839TIP3    H260009   1.620   5.221  13.343 -1.5710 -0.6408 -0.6681
12840TIP3   OH260010   6.123   1.706   5.640  0.4107  0.6511  0.8058
12840TIP3    H160011   6.036   1.707   5.600  1.1563  3.9485 -1.0794
12840TIP3    H260012   6.126   1.623   5.688 -1.9785 -1.8470 -2.8657
12841TIP3   OH260013   4.155   2.748   4.209  0.6453  0.2766 -0.1412
12841TIP3    H160014   4.218   2.775   4.142 -0.3059  1.3946 -0.6133
12841TIP3    H260015   4.098   2.686   4.164  0.6168  0.2536 -0.0733
12842TIP3   OH260016   2.866   4.210   6.252 -0.4588 -0.0173  0.3342
12842TIP3    H160017   2.816   4.132   6.228 -0.5025 -0.0162  0.4207
12842TIP3    H260018   2.864   4.265   6.173  1.4906 -1.0912 -0.5280
12843TIP3   OH260019   3.221   1.947  13.972  0.0778 -0.2503 -0.5967
12843TIP3    H160020   3.248   2.037  13.953 -1.5162  0.8058  1.6782
12843TIP3    H260021   3.284   1.917  14.038  0.2264 -0.6147 -0.8955
12844TIP3   OH260022   4.478   3.885   2.094  0.2764 -0.1220 -0.0491
12844TIP3    H160023   4.436   3.829   2.159  0.3158 -0.5626 -0.3958
12844TIP3    H260024   4.565   3.902   2.130 -0.2364  0.9344  0.7540
12845TIP3   OH260025   2.373   0.950  17.006  0.1100  0.2448 -0.1912
12845TIP3    H160026   2.298   0.892  17.022  0.2567  0.0858 -0.0889
12845TIP3    H260027   2.392   0.989  17.091  1.7644 -1.6369  0.3768
12846TIP3   OH260028   1.009   2.836  13.151 -0.0240 -0.3141  0.2704
12846TIP3    H160029   1.059   2.877  13.081  0.4853  0.4301  1.0476
12846TIP3    H260030   1.065   2.843  13.228  0.2621 -2.8680  0.3577
12847TIP3   OH260031   3.752   1.705   2.982 -0.3050  0.0449 -0.4463
12847TIP3    H160032   3.687   1.707   3.052 -0.2814  0.3988 -0.4325
12847TIP3    H260033   3.722   1.771   2.919 -0.7905 -0.8735 -1.1846
12848TIP3   OH260034   3.578   3.952  15.656  0.3283  0.4733  0.5951
12848TIP3    H160035   3.647   3.960  15.721  0.5109  0.6212  0.3847
12848TIP3    H260036   3.624   3.946  15.572  0.1145 -0.2533  0.5226
12849TIP3   OH260037   3.971   2.647   4.883  0.5984  0.2172  0.4414
12849TIP3    H160038   4.054   2.599   4.890 -0.1972 -1.0014  2.5278
12849TIP3    H260039   3.907   2.581   4.856  0.0590  0.8569  0.1282
12850TIP3   OH260040   6.369   5.960   3.833 -0.2209  0.1270  0.3031
12850TIP3    H160041   6.287   5.916   3.809 -0.5563  0.0720  1.5216
12850TIP3    H260042   6.382   6.025   3.764 -1.8445  0.8564  0.6444
12851TIP3   OH260043   4.429   5.122  14.831 -0.0085 -0.2731 -0.2626
12851TIP3    H160044   4.442   5.067  14.754  0.8310 -0.1116 -0.2386
12851TIP3    H260045   4.374   5.194  14.800  0.8750  0.1467 -0.8851
12852TIP3   OH260046   4.267   4.589   0.374 -0.3108 -0.1733 -0.3218
12852TIP3    H160047   4.197   4.612   0.314  0.4010 -1.1369 -1.5789
12852TIP3    H260048   4.318   4.523   0.327  0.4644 -0.7307  1.2198
12853TIP3   OH260049   1.311   5.683  11.679 -0.6185 -0.9064 -0.0694
12853TIP3    H160050   1.333   5.752  11.742  2.0549 -1.2077 -0.5449
12853TIP3    H260051   1.217   5.673  11.686 -0.7316  0.9028  1.9762
12854TIP3   OH260052   1.192   2.446  12.175 -0.0785 -0.3086  0.4522
12854TIP3    H160053   1.242   2.368  12.149 -1.6702 -0.7867 -1.5085
12854TIP3    H260054   1.103   2.427  12.146 -0.4923  2.3208 -0.2491
12855TIP3   OH260055   3.172   0.570  14.626  0.2960 -0.0011 -0.1211
12855TIP3    H160056   3.097   0.627  14.647 -1.0610 -1.9173  0.5226
12855TIP3    H260057   3.222   0.565  14.707  0.6903  0.6512 -0.3207
12856TIP3   OH260058   5.287   0.243  13.267  0.6814  0.4614 -0.5536
12856TIP3    H160059   5.318   0.173  13.210 -0.9511  1.0102 -2.1765
12856TIP3    H260060   5.339   0.319  13.242 -0.2217  0.7699 -1.5348
12857TIP3   OH260061   2.866   1.667   2.482  0.0707  0.0854 -0.8010
12857TIP3    H160062   2.802   1.603   2.452 -1.3772  0.8161  0.5663
12857TIP3    H260063   2.945   1.648   2.432 -0.2260 -2.8876 -0.3041
12858TIP3   OH260064   6.235   1.108   3.593 -0.2668 -0.2735 -0.5043
12858TIP3    H160065   6.324   1.094   3.561  0.5685  1.6907  0.8121
12858TIP3    H260066   6.212   1.026   3.638  2.4978  0.4857  2.6830
12859TIP3   OH260067   5.421   1.625   1.740  0.0684 -0.0692 -0.2939
12859TIP3    H160068   5.468   1.547   1.770  0.3457 -0.0479 -0.6650
12859TIP3    H260069   5.422   1.684   1.816  1.4324  0.2934 -0.5685
12860TIP3   OH260070   0.081   6.623  14.718 -0.3017 -0.1926 -0.3982
12860TIP3    H160071  -0.010   6.650  14.702 -0.6282 -0.4649  0.8840
12860TIP3    H260072   0.080   6.528  14.702 -0.2053 -0.1618 -0.5766
12861TIP3   OH260073   2.075   4.987  13.148  0.1639 -0.3785  0.2653
12861TIP3    H160074   2.093   4.977  13.054 -1.0929 -0.4711  0.0174
12861TIP3    H260075   2.050   4.899  13.177  0.1044 -0.2561  0.5855
12862TIP3   OH260076   2.875   3.780  16.927 -0.0741  0.2804 -0.1605
12862TIP3    H160077   2.862   3.692  16.962 -1.7669  0.2523 -0.7765
12862TIP3    H260078   2.904   3.832  17.003  0.9264 -0.7806  0.2059
12863TIP3   OH260079   6.530   0.516   5.818 -0.3503 -0.2202  0.1912
12863TIP3    H160080   6.559   0.427   5.801 -2.2360 -0.8341 -0.0199
12863TIP3    H260081   6.489   0.512   5.905 -0.7098  0.3744  0.0576
12864TIP3   OH260082   0.455   0.974   0.714 -0.3816  0.3160 -0.7883
12864TIP3    H160083   0.426   0.920   0.640  0.5396 -0.6728 -0.4464
12864TIP3    H260084   0.463   0.912   0.787 -1.8239  1.3721  0.3123
12865TIP3   OH260085   0.360   3.603   4.431  0.3533  0.3157 -0.2639
12865TIP3    H160086   0.452   3.590   4.406  0.2247 -0.8518 -0.2094
12865TIP3    H260087   0.351   3.553   4.512 -1.0011 -1.9679 -1.7263
12866TIP3   OH260088   0.866   3.716  16.524  0.0749  0.3794  0.3314
12866TIP3    H160089   0.915   3.650  16.573 -1.3469 -1.5911 -0.7490
12866TIP3    H260090   0.917   3.730  16.445 -0.7643 -1.2814 -0.5533
12867TIP3   OH260091   5.941   3.606  14.249 -0.2693  0.6804 -0.5737
12867TIP3    H160092   5.979   3.571  14.168  0.4138 -1.5987  0.6715
12867TIP3    H260093   6.012   3.601  14.313 -1.7249 -0.6842  0.9986
12868TIP3   OH260094   5.346   4.389  13.460  0.1339  0.1978  0.2227
12868TIP3    H160095   5.310   4.467  13.418  1.6007  0.1431 -1.2439
12868TIP3    H260096   5.440   4.393  13.441  0.2192 -2.0185 -0.0958
12869TIP3   OH260097   4.305   1.714  13.617 -0.1581  0.5916  0.0288
12869TIP3    H160098   4.315   1.711  13.521 -2.4031  1.4781 -0.2939
12869TIP3    H260099   4.266   1.629  13.639  1.5506 -0.1549  0.3966
12870TIP3   OH260100   1.395   3.601   3.721 -0.0080  0.4481  0.4381
12870TIP3    H160101   1.465   3.649   3.766  0.7106 -0.2244  0.0603
12870TIP3    H260102   1.319   3.611   3.778  0.5056  0.8225  1.0771
12871TIP3   OH260103   4.662   1.363  13.679  0.2523 -0.9234  0.2276
12871TIP3    H160104   4.738   1.305  13.674  0.3504 -0.7337 -3.9280
12871TIP3    H260105   4.602   1.329  13.612 -1.1026  1.8705 -0.0998
12872TIP3   OH260106   3.470   2.954  16.927 -0.4719 -0.0126 -0.3372
12872TIP3    H160107   3.544   3.008  16.899  0.1119  0.5491  2.0377
12872TIP3    H260108   3.394   3.012  16.918  0.2954  1.9048  3.3876
12873TIP3   OH260109   0.725   1.463  13.409 -1.0123 -0.3816 -0.0182
12873TIP3    H160110   0.630   1.475  13.415 -0.8697  0.1433  1.9038
12873TIP3    H260111   0.747   1.407  13.483  0.3377  0.6759  0.4249
12874TIP3   OH260112   0.657   3.906  10.330  1.0881  0.0986 -0.0869
12874TIP3    H160113   0.634   3.841  10.396  1.1578  0.0922 -0.0688
12874TIP3    H260114   0.587   3.900  10.265 -0.0136  1.4386  0.9245
12875TIP3   OH260115   1.880   1.416  13.828  0.1666 -0.1076 -0.7596
12875TIP3    H160116   1.812   1.478  13.801  1.0240  1.7629  1.0943
12875TIP3    H260117   1.868   1.408  13.923  1.9033 -0.5148 -0.5504
12876TIP3   OH260118   2.857   5.033  16.106  0.0136 -0.1372 -0.3277
12876TIP3    H160119   2.827   4.977  16.034  2.1317 -2.5520  0.5257
12876TIP3    H260120   2.803   5.008  16.180  0.0160 -0.0019 -0.2785
12877TIP3   OH260121   4.745   2.226  14.597 -0.1488  0.5415  0.3106
12877TIP3    H160122   4.795   2.270  14.529  0.1372 -0.9230 -0.4649
12877TIP3    H260123   4.670   2.187  14.551 -0.8415  0.9005  1.1095
12878TIP3   OH260124   4.299   0.742  16.071  0.5621  0.2021 -0.1073
12878TIP3    H160125   4.219   0.690  16.078  0.4285  0.5844  1.7566
12878TIP3    H260126   4.357   0.706  16.139  1.0231  1.5162  0.2167
12879TIP3   OH260127   0.993   5.622   1.180 -0.1072  0.1994  0.0821
12879TIP3    H160128   0.999   5.527   1.167 -0.0618  0.4000 -1.6617
12879TIP3    H260129   0.927   5.633   1.248  0.1559 -1.0820  0.5895
12880TIP3   OH260130   0.506   3.237   2.077  0.4277 -0.5574 -0.1660
12880TIP3    H160131   0.590   3.238   2.031  0.9104 -0.7169  0.7007
12880TIP3    H260132   0.508   3.156   2.128 -0.6201 -1.0032 -0.7912
12881TIP3   OH260133   6.849   4.874   4.652  0.4480 -0.3397 -0.4952
12881TIP3    H160134   6.905   4.797   4.645 -0.0482 -0.6763 -0.7955
12881TIP3    H260135   6.843   4.891   4.746  3.6691  1.6507 -0.4945
12882TIP3   OH260136   3.282   2.978  11.554 -0.4412 -0.1259  0.2451
12882TIP3    H160137   3.267   3.066  11.589 -1.1242 -0.3391  0.5028
12882TIP3    H260138   3.202   2.930  11.575 -0.6948 -0.3812 -1.2359
12883TIP3   OH260139   3.086   3.412  16.504 -0.1199  0.6766 -0.2001
12883TIP3    H160140   3.140   3.333  16.518 -2.4513 -1.0913 -0.4963
12883TIP3    H260141   3.077   3.419  16.409  1.6671  2.5420 -0.2928
12884TIP3   OH260142   2.070   6.300  13.042 -0.0186 -0.2387  0.5591
12884TIP3    H160143   2.153   6.278  13.001  0.3584  3.0092 -0.6521
12884TIP3    H260144   2.091   6.369  13.105 -1.5329 -0.7433  1.6783
12885TIP3   OH260145   0.493   5.970  13.635 -0.3045 -0.6629 -0.2063
12885TIP3    H160146   0.490   5.950  13.541 -2.7048 -0.1950 -0.2823
12885TIP3    H260147   0.415   5.929  13.671  0.4094 -0.5610  1.5567
12886TIP3   OH260148   6.749   4.462   5.612  0.0919  0.2217  0.0574
12886TIP3    H160149   6.682   4.400   5.641  0.4427  0.5160  1.5931
12886TIP3    H260150   6.700   4.534   5.574 -0.3572 -0.5602 -0.8892
12887TIP3   OH260151   4.915   4.701  14.499  0.3092  0.2344 -0.0993
12887TIP3    H160152   4.976   4.769  14.527 -1.3461  1.0662  1.8026
12887TIP3    H260153   4.832   4.747  14.488 -1.3247 -1.6134  3.0508
12888TIP3   OH260154   0.506   5.276  17.047  0.3688 -0.7657  0.3095
12888TIP3    H160155   0.510   5.183  17.022 -0.7145 -0.4602 -1.1904
12888TIP3    H260156   0.588   5.313  17.015  0.2671 -0.9763 -0.2126
12889TIP3   OH260157   2.941   5.309  16.424  0.0074 -0.2595  0.0759
12889TIP3    H160158   3.002   5.256  16.372  0.1598 -0.2927  0.2863
12889TIP3    H260159   2.855   5.289  16.387  0.0974 -0.4085 -0.0559
12890TIP3   OH260160   3.702   2.232   0.308 -0.1913  0.1246  0.3695
12890TIP3    H160161   3.773   2.176   0.340  1.0387  0.6093 -1.3518
12890TIP3    H260162   3.629   2.172   0.292 -0.2728 -0.3575  2.3495
12891TIP3   OH260163   4.945   1.999  14.613 -0.0189  0.5584  0.4614
12891TIP3    H160164   4.865   2.051  14.603 -0.7150 -0.2751  1.5151
12891TIP3    H260165   4.921   1.912  14.580  0.7410  0.5392 -0.0685
12892TIP3   OH260166   0.689   4.754   1.250  0.4672 -0.5791  0.6466
12892TIP3    H160167   0.615   4.806   1.218  1.1331 -1.5514 -2.9060
12892TIP3    H260168   0.649   4.681   1.298 -0.8259 -0.4486 -0.2035
12893TIP3   OH260169   2.706   3.587  12.915  0.3015  0.1975  0.9097
12893TIP3    H160170   2.790   3.610  12.953  0.0089  0.3770  1.4584
12893TIP3    H260171   2.720   3.591  12.821  0.0515  3.6252  0.8715
12894TIP3   OH260172   2.074   3.457   4.921  0.1409 -0.7855  0.3692
12894TIP3    H160173   2.165   3.455   4.950 -0.1391  1.2356  1.5640
12894TIP3    H260174   2.040   3.541   4.954 -1.7401 -0.8268 -1.2961
12895TIP3   OH260175   1.063   0.178  12.366  0.0462 -0.4047 -0.4357
12895TIP3    H160176   1.004   0.114  12.407 -0.1224 -0.0065 -0.0496
12895TIP3    H260177   1.149   0.159  12.404  0.7084 -2.5343 -2.7161
12896TIP3   OH260178   6.462   2.048   1.609  0.0407  0.2491  0.1256
12896TIP3    H160179   6.524   2.121   1.617 -0.3999  0.5048  1.4396
12896TIP3    H260180   6.517   1.969   1.610  0.4115  0.5055  0.2866
12897TIP3   OH260181   5.476   3.112   0.971  0.3420  0.4545 -0.0606
12897TIP3    H160182   5.522   3.119   0.887  1.2037 -0.8980  0.2646
12897TIP3    H260183   5.404   3.174   0.964 -0.2156 -0.3247 -2.2089
12898TIP3   OH260184   6.814   3.627   4.840 -0.3252 -0.3850  0.1695
12898TIP3    H160185   6.895   3.627   4.892 -0.3411 -0.2659  0.1933
12898TIP3    H260186   6.757   3.565   4.885  0.2408 -1.4938 -0.5901
12899TIP3   OH260187   4.528   3.734   3.585 -0.2669  0.2727 -0.0372
12899TIP3    H160188   4.494   3.708   3.671  1.9680 -1.9306  0.3127
12899TIP3    H260189   4.584   3.809   3.603  1.3485 -1.0664  0.7446
12900TIP3   OH260190   6.611   2.228  16.264  0.0268  0.1911 -0.0886
12900TIP3    H160191   6.544   2.287  16.229 -2.8691 -1.4086  2.3062
12900TIP3    H260192   6.597   2.229  16.359  2.7967 -1.0295  0.4331
12901TIP3   OH260193   1.712   4.085  12.433 -0.2120 -0.1448 -0.1659
12901TIP3    H160194   1.701   4.160  12.491  1.9588  0.5607 -0.5873
12901TIP3    H260195   1.708   4.009  12.491 -2.3586  0.2406  0.2716
12902TIP3   OH260196   5.122   0.698  16.289 -0.4497 -0.2090 -0.2160
12902TIP3    H160197   5.032   0.673  16.265  0.0160 -0.9622 -1.2584
12902TIP3    H260198   5.122   0.794  16.286 -1.7309 -0.0761  1.8254
12903TIP3   OH260199   1.862   0.382  16.744 -0.3663  0.0246  0.0045
12903TIP3    H160200   1.807   0.368  16.821 -1.1938 -0.7173 -0.7024
12903TIP3    H260201   1.896   0.295  16.723 -1.1910 -0.0312 -1.2222
12904TIP3   OH260202   2.359   5.982  14.706  0.3923  0.3132 -0.2253
12904TIP3    H160203   2.325   5.996  14.617  0.9842  4.1620 -0.0211
12904TIP3    H260204   2.446   5.944  14.693  0.8440  1.6443 -1.4041
12905TIP3   OH260205   2.990   5.385  15.335 -0.4168 -0.0874  0.0361
12905TIP3    H160206   3.082   5.407  15.319 -0.0217 -1.3842  0.4351
12905TIP3    H260207   2.964   5.442  15.407  0.4414 -0.5724  0.7402
12906TIP3   OH260208   6.066   5.594  10.711  0.1961  0.3294  0.1048
12906TIP3    H160209   6.006   5.640  10.770 -0.4954  0.9762 -1.0649
12906TIP3    H260210   6.148   5.589  10.759 -0.9945 -1.4035  2.1473
12907TIP3   OH260211   5.806   5.306  16.739  0.5055  0.1534 -0.0773
12907TIP3    H160212   5.762   5.271  16.661  1.8817 -0.4098 -0.6349
12907TIP3    H260213   5.896   5.321  16.711  0.8149  0.7605  1.1784
12908TIP3   OH260214   3.211   5.072  13.195 -0.2158  0.0831 -0.3492
12908TIP3    H160215   3.127   5.083  13.149  0.2256  0.8431 -0.9922
12908TIP3    H260216   3.209   5.138  13.265  0.6912  1.5578 -1.6487
12909TIP3   OH260217   1.166   2.466  15.508  0.3190  0.5020 -0.3432
12909TIP3    H160218   1.121   2.389  15.474 -1.8149  1.9315 -1.0468
12909TIP3    H260219   1.162   2.457  15.603  2.5687 -1.5117 -0.3658
12910TIP3   OH260220   5.658   1.053  12.319 -0.0094  0.5795  0.0370
12910TIP3    H160221   5.727   1.115  12.344  0.4182  0.0204  0.2697
12910TIP3    H260222   5.705   0.983  12.274 -0.3759 -0.0225  0.5848
12911TIP3   OH260223   1.068   0.321   6.009 -0.3044  0.1153  0.4053
12911TIP3    H160224   1.068   0.386   5.938 -0.2160 -0.9545 -0.5939
12911TIP3    H260225   1.156   0.284   6.007  0.1335  0.9807  1.9604
12912TIP3   OH260226   5.874   1.677   4.035  0.2142  0.3679  0.4352
12912TIP3    H160227   5.896   1.604   4.093  1.3107 -0.3832 -0.8841
12912TIP3    H260228   5.842   1.745   4.095 -0.3354 -0.9804  1.7441
12913TIP3   OH260229   6.762   5.092  17.082  0.2972 -0.2483  0.2088
12913TIP3    H160230   6.672   5.100  17.049 -0.2868  3.8207  2.2237
12913TIP3    H260231   6.751   5.079  17.176  1.8158  0.2097  0.4700
12914TIP3   OH260232   6.375   4.649   3.827 -0.6808 -0.4416 -0.5943
12914TIP3    H160233   6.285   4.679   3.838 -0.7351 -0.6613 -0.4381
12914TIP3    H260234   6.406   4.632   3.916 -1.1205 -2.2395 -0.7456
12915TIP3   OH260235   4.474   3.102  11.994 -0.1564 -0.0760 -0.4909
12915TIP3    H160236   4.546   3.067  11.941  0.2678 -0.5233  0.3599
12915TIP3    H260237   4.486   3.197  11.990  0.5478 -0.1481 -0.2873
12916TIP3   OH260238   3.166   2.921  12.672  0.2208  0.0025  0.7352
12916TIP3    H160239   3.100   2.857  12.694 -0.1161  0.3635  0.7883
12916TIP3    H260240   3.180   2.910  12.578  0.4835 -0.4422  0.8257
12917TIP3   OH260241   6.668   2.036  14.290  0.4097  0.1414  0.2058
12917TIP3    H160242   6.659   2.117  14.340  1.7192  1.1564 -1.1264
12917TIP3    H260243   6.611   1.974  14.335  0.4980  1.3765  2.1344
12918TIP3   OH260244   0.059   3.941   4.838 -0.7885  0.1627 -0.1552
12918TIP3    H160245   0.027   3.854   4.812  0.8056 -0.4567 -0.1790
12918TIP3    H260246   0.077   3.984   4.755 -0.1665 -0.0523 -0.1363
12919TIP3   OH260247   3.962   5.399  14.835 -0.6755  0.0288 -0.8132
12919TIP3    H160248   3.990   5.356  14.916  0.1930 -0.5403 -1.3997
12919TIP3    H260249   3.868   5.413  14.847 -0.5959 -0.2564  0.2018
12920TIP3   OH260250   2.700   3.752   4.414 -0.4565  0.4425 -0.1649
12920TIP3    H160251   2.739   3.714   4.493 -0.5136 -1.2418 -0.8913
12920TIP3    H260252   2.646   3.824   4.446 -0.2765 -0.0422  1.3102
12921TIP3   OH260253   4.876   4.344   1.699  0.0467 -0.2665 -0.3203
12921TIP3    H160254   4.860   4.306   1.612 -0.7909  0.4345 -0.4859
12921TIP3    H260255   4.921   4.275   1.748 -0.9683 -1.2709 -0.7726
12922TIP3   OH260256   2.299   4.676  12.008 -0.0485 -0.1021  0.5487
12922TIP3    H160257   2.361   4.731  12.055  2.5417 -1.4625 -1.0301
12922TIP3    H260258   2.263   4.617  12.074  1.0899  0.1060  1.3827
12923TIP3   OH260259   1.041   6.730  10.584 -0.1113 -0.2757  0.3897
12923TIP3    H160260   1.122   6.778  10.600  0.1695 -0.3536 -0.7105
12923TIP3    H260261   0.973   6.797  10.585  0.1756  0.0356 -0.3032
12924TIP3   OH260262   3.253   1.347  15.959  0.2747  0.0581  0.2100
12924TIP3    H160263   3.212   1.432  15.939  1.2725  0.7568  1.0276
12924TIP3    H260264   3.341   1.370  15.988  0.4194 -1.2446  0.8440
12925TIP3   OH260265   2.970   2.223  11.426 -0.0775 -0.1578 -0.2876
12925TIP3    H160266   2.967   2.267  11.341 -0.6159  0.4697  0.0398
12925TIP3    H260267   2.950   2.132  11.408 -0.3812  0.0131 -0.8122
12926TIP3   OH260268   6.376   4.409  15.054  0.4355  0.0039  0.2995
12926TIP3    H160269   6.321   4.331  15.060  0.8680 -0.2073  2.1240
12926TIP3    H260270   6.317   4.478  15.022 -0.7837 -0.3298  1.7431
12927TIP3   OH260271   2.953   6.594  11.379  0.0494 -0.7113 -0.2206
12927TIP3    H160272   2.866   6.619  11.345  0.7211  0.6445 -1.0334
12927TIP3    H260273   2.935   6.561  11.467 -1.2774 -0.1644 -0.2478
12928TIP3   OH260274   6.730   4.694   6.530 -0.0532  0.1931 -0.6247
12928TIP3    H160275   6.687   4.773   6.562  0.2146  1.0655 -2.3349
12928TIP3    H260276   6.821   4.702   6.560 -0.4620 -0.4747  0.9043
12929TIP3   OH260277   6.157   0.669   4.908  0.1895 -0.0043  0.7700
12929TIP3    H160278   6.179   0.581   4.938  0.1863 -1.5331 -3.1423
12929TIP3    H260279   6.061   0.670   4.906  0.0896 -1.5345 -2.7936
12930TIP3   OH260280   4.739   1.480   1.994  0.1979 -0.6627  0.6532
12930TIP3    H160281   4.782   1.565   2.005  0.1188 -0.6598  0.9427
12930TIP3    H260282   4.808   1.416   2.008  0.4610 -0.6441 -0.4287
12931TIP3   OH260283   6.388   1.591   0.875 -0.2790 -0.3915 -0.2600
12931TIP3    H160284   6.390   1.638   0.959  0.1074 -0.4421 -0.2351
12931TIP3    H260285   6.472   1.544   0.873 -1.2007 -2.1876  0.3445
12932TIP3   OH260286   5.195   6.792  13.843 -0.3168  0.4699 -0.2319
12932TIP3    H160287   5.210   6.702  13.813 -0.2575  0.2662  0.3929
12932TIP3    H260288   5.235   6.795  13.930 -0.7602  0.9552 -0.0404
12933TIP3   OH260289   3.720   1.346   1.405  0.2889  0.0014 -0.1720
12933TIP3    H160290   3.788   1.279   1.411  0.8143  0.4179 -1.3111
12933TIP3    H260291   3.645   1.308   1.450  0.0582 -2.0208 -2.1136
12934TIP3   OH260292   3.931   0.455   1.331 -1.0046  0.7127  0.3476
12934TIP3    H160293   4.026   0.459   1.332 -0.8173 -1.9007 -0.6077
12934TIP3    H260294   3.903   0.546   1.316  1.3499  1.3034 -0.8938
12935TIP3   OH260295   5.766   6.844  13.952 -0.3951  0.0774 -0.3589
12935TIP3    H160296   5.686   6.797  13.931 -0.9941 -0.5292  2.7440
12935TIP3    H260297   5.742   6.936  13.948 -0.7800 -0.0467 -0.9818
12936TIP3   OH260298   2.579   1.824   0.525  0.4898 -0.1838 -0.4547
12936TIP3    H160299   2.534   1.896   0.481 -0.0205 -1.1719 -1.6272
12936TIP3    H260300   2.641   1.866   0.585 -0.7170  1.2127 -0.1360
12937TIP3   OH260301   6.201   3.202   1.207 -0.2972 -0.0772 -0.0103
12937TIP3    H160302   6.226   3.268   1.272  1.2986 -0.6381 -0.0202
12937TIP3    H260303   6.218   3.245   1.123 -0.1054 -0.1847 -0.0265
12938TIP3   OH260304   1.129   1.961  14.296 -0.4226 -0.1504 -0.3435
12938TIP3    H160305   1.037   1.933  14.300 -0.5512  0.3099  0.0724
12938TIP3    H260306   1.175   1.900  14.353 -0.8441  0.9853  1.2812
12939TIP3   OH260307   6.355   0.791  11.037 -0.0559 -0.1260  0.3899
12939TIP3    H160308   6.418   0.819  11.102 -0.1963 -0.5669  0.7196
12939TIP3    H260309   6.295   0.733  11.084 -0.8716  0.4930  0.1477
12940TIP3   OH260310   1.138   4.106  16.833 -0.1338  0.7025  0.7844
12940TIP3    H160311   1.192   4.175  16.794 -0.5146  0.9014  0.5983
12940TIP3    H260312   1.150   4.117  16.927  2.6023 -1.2217  0.7720
12941TIP3   OH260313   1.062   0.110   6.652  0.2521 -0.4131 -0.1419
12941TIP3    H160314   0.973   0.101   6.618  0.0099 -0.0257  0.3668
12941TIP3    H260315   1.050   0.118   6.747  0.5925  2.3992 -0.2633
12942TIP3   OH260316   5.092   4.823   1.345 -0.2699  0.1512 -0.0004
12942TIP3    H160317   5.184   4.832   1.320 -0.4330 -0.7324 -0.9834
12942TIP3    H260318   5.085   4.734   1.379 -0.7268  0.2688  0.2133
12943TIP3   OH260319   5.470   2.998   4.434 -0.1870 -0.8883 -0.6086
12943TIP3    H160320   5.436   2.961   4.352 -0.0672  0.6104 -1.3703
12943TIP3    H260321   5.393   3.029   4.481 -0.1829 -0.8813 -0.6060
12944TIP3   OH260322   1.817   2.027  14.328  0.7033 -0.0803 -0.9844
12944TIP3    H160323   1.830   2.111  14.284 -0.1596  1.5471  1.6254
12944TIP3    H260324   1.883   1.970  14.290  3.0271  2.4929 -1.1593
12945TIP3   OH260325   3.408   3.942   0.943  0.1570 -0.2123  0.2681
12945TIP3    H160326   3.444   3.863   0.983 -0.3756 -0.6796 -0.1553
12945TIP3    H260327   3.371   3.912   0.860  0.2361  0.5408 -0.0435
12946TIP3   OH260328   1.116   2.153   4.690 -0.0307  0.8183 -0.0598
12946TIP3    H160329   1.062   2.143   4.611  0.0869 -1.2481  0.0707
12946TIP3    H260330   1.128   2.064   4.722  1.8657  1.4124  1.0169
12947TIP3   OH260331   0.485   3.622   1.199 -0.1825  0.3700 -0.2754
12947TIP3    H160332   0.480   3.587   1.110  0.6952 -2.1987  0.5925
12947TIP3    H260333   0.395   3.621   1.230 -0.1771 -1.4810 -0.2126
12948TIP3   OH260334   0.375   1.055  15.753  0.3464  0.7335  0.1067
12948TIP3    H160335   0.469   1.066  15.744  0.4642 -0.6959 -0.8726
12948TIP3    H260336   0.347   1.126  15.810  1.8798  1.6995 -0.2953
12949TIP3   OH260337   2.252   3.305  13.191  0.1251 -0.0089 -0.2283
12949TIP3    H160338   2.235   3.211  13.187 -1.5550  0.2778 -0.2836
12949TIP3    H260339   2.193   3.338  13.259  0.0467  1.1333 -0.8178
12950TIP3   OH260340   4.391   0.611   3.440  0.3513  0.8038  0.1714
12950TIP3    H160341   4.435   0.528   3.459 -0.5020  0.2707 -0.1443
12950TIP3    H260342   4.328   0.623   3.510  0.8287  1.4605  0.5032
12951TIP3   OH260343   6.251   0.183  16.464 -0.3015 -0.2398 -0.1376
12951TIP3    H160344   6.268   0.153  16.375 -0.0450 -1.5451  0.3360
12951TIP3    H260345   6.212   0.108  16.508  2.3360 -0.6694  1.6941
12952TIP3   OH260346   2.568   1.709   2.052  0.0803  0.1430 -0.2025
12952TIP3    H160347   2.554   1.622   2.090 -0.6532 -0.0762 -0.9611
12952TIP3    H260348   2.594   1.693   1.962 -0.6213  0.7191 -0.5200
12953TIP3   OH260349   4.921   0.846  12.022  0.5725 -0.3787  0.0099
12953TIP3    H160350   4.846   0.886  11.979  0.1753 -1.4115 -0.2869
12953TIP3    H260351   4.994   0.905  12.003 -0.0112  0.2502 -0.3122
12954TIP3   OH260352   4.137   3.859   2.992  0.1292  0.1810 -0.1290
12954TIP3    H160353   4.217   3.911   2.979 -0.9576  1.1915 -3.9696
12954TIP3    H260354   4.131   3.804   2.913 -3.6676  1.2184 -0.7372
12955TIP3   OH260355   0.827   2.421   4.324 -0.2704 -0.1870  0.3173
12955TIP3    H160356   0.770   2.406   4.400 -1.1364 -0.2277 -0.3259
12955TIP3    H260357   0.860   2.510   4.337 -0.8735  0.0258  0.4564
12956TIP3   OH260358   4.649   2.094   2.975  0.0415  0.1278  0.6728
12956TIP3    H160359   4.735   2.135   2.966 -0.6922  1.6059  0.1010
12956TIP3    H260360   4.623   2.113   3.066  0.0750  0.1820  0.6711
12957TIP3   OH260361   2.713   3.566   5.019 -0.1605 -0.2018  0.1202
12957TIP3    H160362   2.796   3.608   5.000 -0.2084 -0.3129 -0.3635
12957TIP3    H260363   2.647   3.632   4.997 -0.2036 -0.1799  0.3176
12958TIP3   OH260364   0.884   4.571  12.669  0.2563  0.3870 -0.3251
12958TIP3    H160365   0.913   4.482  12.689 -1.6290 -0.2649 -0.3188
12958TIP3    H260366   0.930   4.594  12.588 -1.5158 -1.8374 -2.1049
12959TIP3   OH260367   5.989   4.473   0.131  0.1001  0.6151  0.4157
12959TIP3    H160368   6.072   4.516   0.111  0.2425  0.0733 -0.1849
12959TIP3    H260369   5.924   4.543   0.128  0.5305  1.0418  0.8789
12960TIP3   OH260370   6.037   3.194   3.053 -0.5493 -0.1589  0.3339
12960TIP3    H160371   6.096   3.244   2.997  0.6007 -0.0401  1.5956
12960TIP3    H260372   6.072   3.205   3.142 -2.6773  0.2047  1.2017
12961TIP3   OH260373   1.718   6.453  13.878 -0.1512 -0.1350  0.3475
12961TIP3    H160374   1.630   6.450  13.916 -1.4870  1.0907 -2.3592
12961TIP3    H260375   1.769   6.506  13.939 -1.9757  1.1610  0.8295
12962TIP3   OH260376   5.246   2.764   1.823 -0.1069 -0.1465 -0.3533
12962TIP3    H160377   5.167   2.711   1.819  0.1422 -0.6845  1.2163
12962TIP3    H260378   5.317   2.703   1.802  0.2516 -0.6862  2.1431
12963TIP3   OH260379   1.154   2.301  11.660  0.3050 -0.1078  0.1864
12963TIP3    H160380   1.085   2.255  11.708 -0.6725  0.6224 -0.4611
12963TIP3    H260381   1.108   2.340  11.585  1.3223  0.8950  0.0663
12964TIP3   OH260382   4.868   1.568   0.580 -0.3758 -0.2013  0.4934
12964TIP3    H160383   4.833   1.499   0.524 -0.8739 -0.8520  1.5739
12964TIP3    H260384   4.884   1.641   0.520 -0.1303 -1.1327 -0.6184
12965TIP3   OH260385   0.568   6.325  16.675  0.5358 -0.5591  0.8120
12965TIP3    H160386   0.663   6.320  16.663  0.3766 -1.6823 -0.1817
12965TIP3    H260387   0.552   6.415  16.701  1.7940 -0.1109  0.1433
12966TIP3   OH260388   2.257   3.440   3.484  0.0986 -0.2212 -0.4728
12966TIP3    H160389   2.301   3.524   3.498  2.7373 -1.7081  1.0572
12966TIP3    H260390   2.233   3.410   3.572  0.0382 -1.4521 -0.8805
12967TIP3   OH260391   1.187   6.189  11.559  0.2952 -0.3027  0.2241
12967TIP3    H160392   1.167   6.268  11.509 -0.2088  0.0536  0.9716
12967TIP3    H260393   1.262   6.213  11.614  0.5265 -0.5344  0.0132
12968TIP3   OH260394   6.554   0.228  16.042 -1.0088  0.3135  0.0251
12968TIP3    H160395   6.598   0.160  15.990 -2.2574  0.2157 -0.9302
12968TIP3    H260396   6.626   0.273  16.087  0.0654  0.0340 -1.3337
12969TIP3   OH260397   2.912   2.310   0.636 -0.3269 -0.4893 -0.2451
12969TIP3    H160398   2.910   2.245   0.566  0.9197 -0.5649 -0.2374
12969TIP3    H260399   2.926   2.260   0.716 -2.1171 -0.4363  0.1403
12970TIP3   OH260400   0.671   6.444  11.434  0.4543 -0.0307  0.9774
12970TIP3    H160401   0.626   6.430  11.517 -0.6890  0.9447  0.5477
12970TIP3    H260402   0.679   6.539  11.427  0.6274 -0.1097  0.0152
12971TIP3   OH260403   1.982   1.644   3.785  0.1637 -0.0687 -0.0481
12971TIP3    H160404   2.062   1.599   3.756  0.1499 -0.3302  0.3194
12971TIP3    H260405   1.966   1.611   3.873  0.0954  0.5795  0.1883
12972TIP3   OH260406   3.920   4.033  15.170  0.2793  0.0761 -0.2461
12972TIP3    H160407   3.940   3.940  15.171 -0.9817 -0.3173 -2.8185
12972TIP3    H260408   3.866   4.047  15.248  0.9947 -1.1924  0.4989
12973TIP3   OH260409   0.550   1.898   1.977 -0.2526 -0.1441 -0.8328
12973TIP3    H160410   0.593   1.829   1.926 -1.3560 -0.0491 -1.9425
12973TIP3    H260411   0.494   1.851   2.038 -0.1768 -0.2329 -0.8303
12974TIP3   OH260412   4.182   4.589  13.805 -0.5482 -0.2102  0.2873
12974TIP3    H160413   4.247   4.633  13.859 -0.2844  0.9325 -0.9048
12974TIP3    H260414   4.214   4.499  13.797  2.3752  0.8569 -2.3280
12975TIP3   OH260415   0.476   2.515   0.408 -0.0288  0.1159 -0.0956
12975TIP3    H160416   0.413   2.532   0.337  0.0830 -1.3505 -0.5861
12975TIP3    H260417   0.562   2.524   0.367  0.0472 -0.0074  0.0350
12976TIP3   OH260418   4.233   6.396  13.868  0.3830  0.0580  0.5179
12976TIP3    H160419   4.324   6.366  13.871  0.3517 -0.0424  0.4843
12976TIP3    H260420   4.183   6.316  13.851  0.4427  0.3912 -1.3994
12977TIP3   OH260421   6.346   1.979   6.151 -0.2585 -0.0734  0.4386
12977TIP3    H160422   6.317   1.997   6.062 -0.6238 -0.1087  0.5477
12977TIP3    H260423   6.269   1.995   6.205 -0.4043 -1.3093  0.6164
12978TIP3   OH260424   3.480   2.562  13.520 -0.0535 -0.2515  0.6603
12978TIP3    H160425   3.458   2.619  13.594 -1.6266  0.1823 -0.1114
12978TIP3    H260426   3.570   2.535  13.537  1.1318  3.2186  0.6066
12979TIP3   OH260427   5.685   3.452  14.730 -0.1024 -0.0293  0.1806
12979TIP3    H160428   5.602   3.480  14.691 -1.1745 -1.5851  1.2612
12979TIP3    H260429   5.722   3.392  14.667  0.2901  0.7659 -0.3628
12980TIP3   OH260430   2.751   3.985  16.116 -0.4239 -0.1025 -0.0540
12980TIP3    H160431   2.699   3.923  16.166 -0.1060 -0.5374 -0.2559
12980TIP3    H260432   2.712   3.984  16.028 -1.0827  0.7781  0.2093
12981TIP3   OH260433   5.154   2.264  14.311 -0.0151 -0.9573 -0.0218
12981TIP3    H160434   5.198   2.349  14.317 -1.8813  0.0405  0.2523
12981TIP3    H260435   5.132   2.255  14.218 -0.1528 -0.9570  0.0106
12982TIP3   OH260436   2.408   2.136  16.535 -0.5701 -0.1354  0.0526
12982TIP3    H160437   2.369   2.137  16.447  2.0367 -2.5121 -1.3194
12982TIP3    H260438   2.442   2.225  16.547 -1.7914  0.5020 -0.9049
12983TIP3   OH260439   0.911   4.395   5.205  0.0284 -0.0105  0.0743
12983TIP3    H160440   0.993   4.405   5.255 -0.7159 -1.3798  1.6705
12983TIP3    H260441   0.905   4.475   5.154  1.7210  0.7128  0.9101
12984TIP3   OH260442   2.462   2.043   0.701  0.2120 -0.2247 -0.7548
12984TIP3    H160443   2.440   1.979   0.769  0.9380  0.4484  0.1399
12984TIP3    H260444   2.388   2.040   0.641 -0.1656 -1.2814 -0.2700
12985TIP3   OH260445   1.115   3.642   4.348 -0.3148 -0.4017 -0.3157
12985TIP3    H160446   1.185   3.641   4.414  0.9940 -0.5580 -1.6559
12985TIP3    H260447   1.055   3.710   4.377  0.6723  0.1083  0.5941
12986TIP3   OH260448   1.556   4.400   1.023 -0.1290 -0.6993 -0.1298
12986TIP3    H160449   1.477   4.444   1.053 -0.7146 -0.6195 -1.6934
12986TIP3    H260450   1.550   4.402   0.927  2.1149 -0.0145 -0.3228
12987TIP3   OH260451   0.660   3.270  16.503 -0.4213 -0.3614  0.1257
12987TIP3    H160452   0.605   3.337  16.545 -1.1739 -0.3599 -0.8369
12987TIP3    H260453   0.605   3.192  16.500  0.0850 -0.7311  0.2954
12988TIP3   OH260454   3.453   2.712  17.080  0.1101  0.3871 -0.1334
12988TIP3    H160455   3.467   2.781  17.015  0.9512 -0.2702 -0.6672
12988TIP3    H260456   3.399   2.754  17.148 -0.2974  1.2531 -0.9609
12989TIP3   OH260457   1.065   0.737  16.773  0.2068 -0.2199  0.0902
12989TIP3    H160458   1.033   0.647  16.765  0.8083 -0.6704  2.1979
12989TIP3    H260459   1.158   0.727  16.797  0.0582  0.9185  1.2510
12990TIP3   OH260460   0.711   0.575  15.119  0.0151 -0.1736  0.4949
12990TIP3    H160461   0.629   0.530  15.097  0.3014  0.2164 -1.4849
12990TIP3    H260462   0.770   0.555  15.047  0.7767  1.7734  0.5309
12991TIP3   OH260463   1.856   6.372   1.884  0.1205 -0.2299 -0.1573
12991TIP3    H160464   1.765   6.347   1.865 -0.2072 -1.3950  2.3804
12991TIP3    H260465   1.909   6.312   1.832 -0.6071 -0.6122 -0.4731
12992TIP3   OH260466   2.546   3.152   6.259 -0.0389 -0.4052  0.2065
12992TIP3    H160467   2.637   3.147   6.289 -0.2582  1.5455  1.4390
12992TIP3    H260468   2.523   3.245   6.270 -1.6860 -0.5438 -1.6000
12993TIP3   OH260469   5.730   2.122  11.717 -0.4701  0.3490 -0.1041
12993TIP3    H160470   5.751   2.075  11.636  0.4234 -2.0439  1.4004
12993TIP3    H260471   5.793   2.194  11.720  1.3224 -1.1431 -0.2697
12994TIP3   OH260472   1.428   0.795   3.900 -0.3542  0.8724  0.7034
12994TIP3    H160473   1.499   0.848   3.936  0.6276 -0.9912  1.6701
12994TIP3    H260474   1.393   0.847   3.828  3.3113  1.0516 -1.1790
12995TIP3   OH260475   1.509   3.288   1.237  0.4990  0.7016  0.2781
12995TIP3    H160476   1.415   3.268   1.231  0.3897  1.4976 -1.5972
12995TIP3    H260477   1.513   3.383   1.237  1.2817  0.6781  1.5678
12996TIP3   OH260478   5.813   2.887   4.180 -0.2210  0.0887 -0.4762
12996TIP3    H160479   5.792   2.954   4.245  0.4222  0.4528 -0.6320
12996TIP3    H260480   5.739   2.827   4.182  0.2740 -0.5386  1.4105
12997TIP3   OH260481   1.128   3.551  15.487 -0.2157  0.4849  0.0494
12997TIP3    H160482   1.216   3.586  15.498 -0.3270  0.8144 -0.1178
12997TIP3    H260483   1.097   3.536  15.576  0.7413 -1.4797  0.1141
12998TIP3   OH260484   0.244   4.360  16.871 -0.2449  0.7722  0.2488
12998TIP3    H160485   0.247   4.438  16.927  1.7028 -0.0192  1.3477
12998TIP3    H260486   0.208   4.291  16.926 -0.1176  0.4273 -0.0896
12999TIP3   OH260487   2.320   0.001  15.257  0.3274 -0.4381  0.3441
12999TIP3    H160488   2.276   0.067  15.204 -0.3201 -0.4808  0.8161
12999TIP3    H260489   2.336  -0.072  15.197 -3.4281 -1.9039  0.8543
13000TIP3   OH260490   3.972   4.784   3.374  0.8579  0.2730 -0.1972
13000TIP3    H160491   3.926   4.803   3.292  1.2807 -0.3835 -0.5909
13000TIP3    H260492   4.065   4.798   3.353  1.1700 -1.8307 -0.4137
13001TIP3   OH260493   2.915   3.062   3.792 -0.2965 -0.2686 -0.2806
13001TIP3    H160494   2.923   3.145   3.838  0.9163 -0.1850 -0.6173
13001TIP3    H260495   2.922   3.085   3.699 -0.8669 -0.6484 -0.4219
13002TIP3   OH260496   4.032   1.619   3.362 -0.1084  0.0573 -0.0250
13002TIP3    H160497   4.055   1.641   3.271 -0.8382  1.3945  0.0781
13002TIP3    H260498   4.111   1.582   3.399  0.7942  1.2686 -0.6707
13003TIP3   OH260499   4.049   2.255  14.413 -0.2043  0.4460  0.9448
13003TIP3    H160500   3.963   2.231  14.447 -0.8032  0.3138 -0.5788
13003TIP3    H260501   4.107   2.252  14.490 -1.7001  1.3914  2.1583
13004TIP3   OH260502   2.293   1.928   4.001  0.2487 -0.6758 -0.0479
13004TIP3    H160503   2.331   1.841   3.994  1.4354 -0.5081  2.9779
13004TIP3    H260504   2.202   1.913   4.028  0.4682 -0.9921  0.5231
13005TIP3   OH260505   2.646   3.618  11.777  0.6777  0.4182 -0.0058
13005TIP3    H160506   2.674   3.698  11.733 -3.4800  0.3477 -3.3033
13005TIP3    H260507   2.688   3.548  11.727 -0.0169  0.4492 -0.6411
13006TIP3   OH260508   4.642   1.022   4.469 -0.3468 -0.4947  0.4604
13006TIP3    H160509   4.569   0.978   4.512 -0.2543  0.7490  1.9630
13006TIP3    H260510   4.631   1.114   4.491  0.9828 -0.1204 -0.3243
13007TIP3   OH260511   2.535   4.789  15.931  0.1770  0.2452 -0.0666
13007TIP3    H160512   2.533   4.884  15.923  0.8248  0.1915 -1.0945
13007TIP3    H260513   2.443   4.763  15.934 -0.0046  0.9753  1.4022
13008TIP3   OH260514   6.361   5.505   0.123 -0.1551 -0.2843  0.6260
13008TIP3    H160515   6.333   5.560   0.197 -1.1211  1.9346 -1.2879
13008TIP3    H260516   6.280   5.468   0.089 -0.1546  1.1617 -1.1103
13009TIP3   OH260517   2.331   6.767   1.191  0.6661  0.1634 -0.0860
13009TIP3    H160518   2.400   6.712   1.155  1.5112  0.4645  1.0211
13009TIP3    H260519   2.369   6.806   1.269 -1.2072 -0.7823  1.3909
13010TIP3   OH260520   2.861   2.986   4.096  0.5237 -0.1894 -0.3455
13010TIP3    H160521   2.860   2.917   4.030 -0.7349  1.6293 -2.3347
13010TIP3    H260522   2.877   2.939   4.178  0.0918 -2.7919 -1.6248
13011TIP3   OH260523   6.684   1.559  16.846  0.8375 -0.3537 -0.3707
13011TIP3    H160524   6.658   1.587  16.934  1.4376  1.0184 -0.6085
13011TIP3    H260525   6.709   1.640  16.802  0.3123 -0.9954 -1.8943
13012TIP3   OH260526   0.709   6.614  13.659 -0.0459 -0.0098 -0.0464
13012TIP3    H160527   0.732   6.689  13.713 -0.3853  2.0368 -2.5214
13012TIP3    H260528   0.782   6.607  13.596 -0.6138 -0.9467 -0.6228
13013TIP3   OH260529   5.465   4.128   5.356  0.3065 -0.2331 -0.7255
13013TIP3    H160530   5.503   4.050   5.395  3.6561  0.9785 -1.2089
13013TIP3    H260531   5.413   4.167   5.427 -0.2652 -2.1006 -0.0507
13014TIP3   OH260532   0.492   6.093  16.815 -0.1448  0.0784 -0.5306
13014TIP3    H160533   0.478   6.028  16.747  3.6447 -1.5318 -0.0155
13014TIP3    H260534   0.540   6.164  16.772  0.0102  0.2531 -0.0826
13015TIP3   OH260535   1.023   4.053  11.958  0.1637  0.5248 -0.1552
13015TIP3    H160536   0.987   4.098  12.034  0.8033  1.7137 -0.5393
13015TIP3    H260537   1.025   3.961  11.985 -1.0754  0.7146  0.6723
13016TIP3   OH260538   3.296   5.194  10.725 -0.1947  0.7774  0.0580
13016TIP3    H160539   3.350   5.220  10.651  2.5347 -0.2807  1.5375
13016TIP3    H260540   3.230   5.263  10.733  0.1189  1.4734 -2.6050
13017TIP3   OH260541   6.307   2.851  11.369 -0.6578  0.2432 -0.3959
13017TIP3    H160542   6.375   2.816  11.311 -0.0414  0.5647  0.1172
13017TIP3    H260543   6.356   2.900  11.435 -1.3889  0.3691  0.0533
13018TIP3   OH260544   1.142   3.286  15.462  0.1570 -0.1135  0.1529
13018TIP3    H160545   1.157   3.380  15.476  0.4831 -0.2448  0.6995
13018TIP3    H260546   1.153   3.274  15.367 -2.5292  0.8626 -0.3415
13019TIP3   OH260547   5.417   6.820  15.069 -0.2378  0.2591 -1.0593
13019TIP3    H160548   5.426   6.820  15.164  0.1465  0.7867 -1.0918
13019TIP3    H260549   5.410   6.912  15.045  0.1096  0.1551 -1.5821
13020TIP3   OH260550   4.993   5.782  13.766 -0.4898  0.6331  0.4459
13020TIP3    H160551   4.958   5.799  13.679 -1.4217 -1.3666  0.3761
13020TIP3    H260552   5.070   5.727  13.751 -0.1070  1.0349  0.8615
13021TIP3   OH260553   6.503   1.263  16.038  0.1696  0.4769  0.1285
13021TIP3    H160554   6.575   1.230  16.091 -1.7715 -0.6876  2.1899
13021TIP3    H260555   6.524   1.235  15.949  1.9981 -0.2731  0.7621
13022TIP3   OH260556   5.380   2.751  16.389  0.4381 -0.4385  0.3565
13022TIP3    H160557   5.424   2.688  16.446 -0.7301 -0.3316  1.4279
13022TIP3    H260558   5.338   2.812  16.449  0.4498  0.6051 -0.6546
13023TIP3   OH260559   6.370   0.566  13.027 -0.4505 -0.4696 -0.2226
13023TIP3    H160560   6.441   0.512  13.062  0.5572  0.3037 -0.9993
13023TIP3    H260561   6.414   0.647  12.999 -1.6061 -0.0694 -0.9251
13024TIP3   OH260562   1.149   4.658  14.846 -0.0600 -0.1490 -0.7286
13024TIP3    H160563   1.116   4.568  14.855  0.1294 -0.0225  2.0078
13024TIP3    H260564   1.094   4.696  14.778 -1.8157 -1.6271 -0.2422
13025TIP3   OH260565   3.363   0.467  14.818  0.0554 -0.3807 -0.0035
13025TIP3    H160566   3.288   0.439  14.871  0.4420  0.6261  1.0949
13025TIP3    H260567   3.426   0.395  14.827 -0.4180 -0.8288 -0.2100
13026TIP3   OH260568   3.534   1.295  12.894  0.2241  0.0990 -0.0228
13026TIP3    H160569   3.593   1.330  12.960 -2.9429  4.3168  1.0356
13026TIP3    H260570   3.557   1.343  12.814 -0.4381  0.2581 -0.1249
13027TIP3   OH260571   1.649   4.840   4.139 -0.0993  0.0444  1.1524
13027TIP3    H160572   1.684   4.815   4.053 -1.6700 -1.5460  0.9161
13027TIP3    H260573   1.716   4.811   4.201  0.2818 -0.3676  0.5624
13028TIP3   OH260574   2.313   2.127   2.507  0.0359 -0.3175  0.0555
13028TIP3    H160575   2.320   2.036   2.535  1.7434 -0.5896 -1.0822
13028TIP3    H260576   2.258   2.169   2.573 -0.9622 -2.2037  0.4931
13029TIP3   OH260577   4.933   2.323  13.606 -0.5394  0.1737 -0.2373
13029TIP3    H160578   4.948   2.296  13.697  0.2857 -0.1621 -0.4552
13029TIP3    H260579   5.006   2.282  13.557 -0.0533  1.6612 -0.7990
13030TIP3   OH260580   5.189   1.183   0.855  0.1665  0.2179  0.1288
13030TIP3    H160581   5.168   1.214   0.767  2.4374 -1.5810 -1.1635
13030TIP3    H260582   5.107   1.143   0.885 -0.1742 -0.8512 -2.0010
13031TIP3   OH260583   4.386   1.353   4.614  0.0263 -0.3851  0.0188
13031TIP3    H160584   4.299   1.385   4.636  0.5783  1.5438 -0.3975
13031TIP3    H260585   4.390   1.359   4.519  1.4620  2.1195  0.1516
13032TIP3   OH260586   6.316   2.820  14.376  0.2598  0.2511  0.0076
13032TIP3    H160587   6.256   2.880  14.334 -0.3881 -1.3630 -1.5133
13032TIP3    H260588   6.385   2.806  14.312  1.0859  0.3332  0.8474
13033TIP3   OH260589   3.417   4.498   5.817  0.0594  0.3409  0.0135
13033TIP3    H160590   3.350   4.432   5.802 -0.3025  0.7464 -0.1901
13033TIP3    H260591   3.371   4.582   5.808  0.2510  0.6210  1.3948
13034TIP3   OH260592   3.277   3.683   0.596  0.2944 -0.0451  0.1422
13034TIP3    H160593   3.318   3.598   0.610  2.1386  0.8338  0.3100
13034TIP3    H260594   3.279   3.695   0.501  0.6200  0.0782  0.1630
13035TIP3   OH260595   1.199   5.046  11.058  0.2219 -0.9781  0.1432
13035TIP3    H160596   1.167   5.129  11.024 -0.6400 -1.8244 -1.2045
13035TIP3    H260597   1.294   5.058  11.067  0.3360 -0.3777 -1.6163
13036TIP3   OH260598   0.920   6.160   4.857  0.7012  0.2880 -0.4632
13036TIP3    H160599   0.982   6.104   4.903  0.1877  0.3678  0.3589
13036TIP3    H260600   0.902   6.115   4.775  1.4846  0.0357 -0.4979
13037TIP3   OH260601   5.872   4.726   0.105  0.8033 -0.1278 -0.1371
13037TIP3    H160602   5.830   4.806   0.136 -0.3720 -0.3892 -0.9841
13037TIP3    H260603   5.821   4.700   0.028  2.3560 -0.6303 -1.0423
13038TIP3   OH260604   2.092   2.273   2.635  0.3219 -0.1405  0.9175
13038TIP3    H160605   2.079   2.255   2.542  0.0916  0.9539  0.7295
13038TIP3    H260606   2.004   2.284   2.670  0.3605 -1.3121  1.4443
13039TIP3   OH260607   0.210   2.055  13.973  0.0108  0.3835  0.3042
13039TIP3    H160608   0.117   2.067  13.956  0.5111  3.2136 -1.0214
13039TIP3    H260609   0.217   1.965  14.007 -3.1442  0.0722  0.4263
13040TIP3   OH260610   3.954   0.719  14.309  0.7142  0.1318 -0.0882
13040TIP3    H160611   3.956   0.672  14.226  0.3212 -1.1141  0.5744
13040TIP3    H260612   4.045   0.745  14.324  1.2455 -1.7435  0.2174
13041TIP3   OH260613   5.518   1.185   3.983 -0.0791 -0.1129  0.3879
13041TIP3    H160614   5.432   1.218   4.011  1.3139  1.2615  3.5856
13041TIP3    H260615   5.503   1.093   3.962 -2.7113  0.6286 -1.3790
13042TIP3   OH260616   2.816   6.574   1.624  0.6388 -0.4663 -0.0086
13042TIP3    H160617   2.726   6.541   1.622  0.5270 -0.2236  0.8028
13042TIP3    H260618   2.809   6.664   1.592  0.6409 -0.5492 -0.2437
13043TIP3   OH260619   6.138   4.767   3.504 -0.1647 -0.1072 -0.1927
13043TIP3    H160620   6.218   4.729   3.469 -0.2115  0.2705 -0.7136
13043TIP3    H260621   6.146   4.756   3.599  0.3838 -0.2996 -0.2582
13044TIP3   OH260622   1.673   6.815  11.609  0.7277  0.0634  0.2908
13044TIP3    H160623   1.615   6.891  11.612  0.3819 -0.2228  1.0794
13044TIP3    H260624   1.650   6.765  11.687  1.2834 -0.6091  0.0252
13045TIP3   OH260625   6.414   3.064  14.709 -0.3679 -0.3265 -0.1519
13045TIP3    H160626   6.449   3.122  14.776 -0.5051  0.4970 -0.7811
13045TIP3    H260627   6.319   3.069  14.720 -0.3653 -1.8797  0.9828
13046TIP3   OH260628   6.644   1.622   5.816  0.2979 -0.0550 -0.0337
13046TIP3    H160629   6.593   1.568   5.756 -0.3765  0.2806  0.2344
13046TIP3    H260630   6.684   1.688   5.760  1.5437 -1.1110 -0.4436
13047TIP3   OH260631   4.534   3.598  11.806  0.4393  0.0531 -0.5023
13047TIP3    H160632   4.595   3.662  11.843  1.4028 -0.5772 -0.9552
13047TIP3    H260633   4.545   3.520  11.860  0.3324 -0.1953 -0.8331
13048TIP3   OH260634   2.700   3.561   5.559 -0.0068 -0.7012  0.5485
13048TIP3    H160635   2.728   3.645   5.596  1.4455 -0.5973 -0.6868
13048TIP3    H260636   2.639   3.585   5.489 -0.6005 -0.7650  1.0305
13049TIP3   OH260637   3.327   2.754  15.503  0.2231  0.1937  0.4504
13049TIP3    H160638   3.405   2.724  15.457 -0.3121  0.5494 -0.7275
13049TIP3    H260639   3.276   2.674  15.518 -1.3452  0.3614 -2.9575
13050TIP3   OH260640   1.555   5.098  17.037 -0.3383 -0.3128  0.1918
13050TIP3    H160641   1.646   5.071  17.033 -0.3289 -0.1720 -0.8645
13050TIP3    H260642   1.518   5.049  17.110  0.9485  0.8206  1.6759
13051TIP3   OH260643   6.154   0.865  12.553  0.9940  0.3920 -0.2821
13051TIP3    H160644   6.215   0.930  12.587  0.7802  0.7261 -0.5271
13051TIP3    H260645   6.188   0.842  12.467  1.1318  0.0899 -0.1497
13052TIP3   OH260646   0.664   5.268  11.453 -0.0915 -0.1026  0.8329
13052TIP3    H160647   0.609   5.191  11.437 -0.8177  0.5683 -0.0140
13052TIP3    H260648   0.696   5.256  11.543  0.0896 -1.5503  0.6039
13053TIP3   OH260649   3.758   1.370  11.118  0.7921 -0.1234 -0.1445
13053TIP3    H160650   3.777   1.281  11.149  0.6646 -0.0925  0.0181
13053TIP3    H260651   3.744   1.421  11.197 -0.4438 -0.2439 -0.2620
13054TIP3   OH260652   2.885   2.042   3.418  0.2037  0.4251 -0.7589
13054TIP3    H160653   2.825   1.968   3.404 -0.0082  0.2231  0.9060
13054TIP3    H260654   2.970   2.011   3.387 -0.3886  0.4439 -2.4630
13055TIP3   OH260655   5.786   5.947  16.989 -0.0711 -0.1096 -0.7284
13055TIP3    H160656   5.798   5.985  17.076  1.7567 -1.1634 -0.4643
13055TIP3    H260657   5.711   5.888  16.999 -2.0537  2.1869 -0.7987
13056TIP3   OH260658   4.736   5.364   3.059  0.8184  0.4769 -0.0654
13056TIP3    H160659   4.796   5.340   3.130  0.1892  0.5886  0.5094
13056TIP3    H260660   4.690   5.442   3.091  0.2691  0.3149 -0.4431
13057TIP3   OH260661   4.356   2.281  15.222  0.4034  0.2406 -0.2579
13057TIP3    H160662   4.450   2.273  15.234  0.1211 -1.0932  1.3782
13057TIP3    H260663   4.327   2.192  15.201 -0.3512  0.8795 -2.1629
13058TIP3   OH260664   2.723   1.444  16.854  0.5638  0.5326  0.0874
13058TIP3    H160665   2.750   1.449  16.946 -0.7444  1.5953  0.4363
13058TIP3    H260666   2.691   1.532  16.833 -1.6525 -0.3770 -0.5793
13059TIP3   OH260667   5.021   4.976   1.120  0.4108  0.3287 -0.0776
13059TIP3    H160668   4.934   5.005   1.146  0.1586 -0.0221 -0.5212
13059TIP3    H260669   5.044   4.909   1.183  0.2564  0.2482 -0.1069
13060TIP3   OH260670   4.746   5.847  16.671 -0.3475  0.0524  0.6511
13060TIP3    H160671   4.703   5.768  16.705  1.5085 -1.3569 -0.0528
13060TIP3    H260672   4.804   5.875  16.742  0.7392 -0.6530  0.0655
13061TIP3   OH260673   2.250   6.247   0.373 -0.2070 -0.2816  0.5378
13061TIP3    H160674   2.219   6.156   0.375 -0.3357 -0.2807 -0.7407
13061TIP3    H260675   2.320   6.249   0.438  1.2650 -1.8717 -0.8682
13062TIP3   OH260676   2.517   6.083   3.501 -0.2037  0.2783 -0.2035
13062TIP3    H160677   2.608   6.086   3.474 -0.7724  0.0922 -2.3593
13062TIP3    H260678   2.499   6.170   3.536  0.6750  0.4561 -0.1720
13063TIP3   OH260679   6.545   0.018   5.737  0.4366 -0.4302  0.1028
13063TIP3    H160680   6.491  -0.056   5.765  0.0814 -0.1646  0.1283
13063TIP3    H260681   6.582  -0.009   5.653 -1.1116  0.0496 -0.7707
13064TIP3   OH260682   1.025   2.711  11.781 -0.9211 -0.6600  0.2644
13064TIP3    H160683   0.952   2.710  11.842 -0.6398  0.7640  0.6655
13064TIP3    H260684   1.102   2.730  11.835 -0.9925  3.3635 -0.7032
13065TIP3   OH260685   1.454   5.605   0.323 -0.1112  0.2560  0.4786
13065TIP3    H160686   1.510   5.649   0.386  1.0123 -0.7755  0.2195
13065TIP3    H260687   1.461   5.658   0.243 -0.8134  1.0421  0.9239
13066TIP3   OH260688   3.885   5.633   5.892  0.2395 -0.1980  0.1996
13066TIP3    H160689   3.819   5.567   5.913 -0.0152  0.3349  1.1655
13066TIP3    H260690   3.843   5.690   5.828 -0.2068  0.0872  0.7448
13067TIP3   OH260691   4.451   6.659   5.926  0.3155  0.1291  0.0288
13067TIP3    H160692   4.356   6.651   5.929 -0.0275  3.1603  0.4230
13067TIP3    H260693   4.472   6.658   5.833 -0.4643  2.0050 -0.2064
13068TIP3   OH260694   6.678   4.114   2.171 -0.4897  0.1443 -0.6107
13068TIP3    H160695   6.608   4.164   2.212 -1.2417 -1.0702 -0.3880
13068TIP3    H260696   6.732   4.181   2.127 -1.9753  1.0701 -1.0961
13069TIP3   OH260697   0.974   4.497  16.027 -0.6048  0.5669 -0.8726
13069TIP3    H160698   0.982   4.410  16.065  1.2003  1.6727  1.5655
13069TIP3    H260699   0.957   4.482  15.934 -2.4901 -2.3421 -0.1785
13070TIP3   OH260700   6.180   1.340   3.739  0.0122 -0.1538  0.0391
13070TIP3    H160701   6.210   1.252   3.714 -0.1564 -0.2794  0.2743
13070TIP3    H260702   6.203   1.395   3.665  3.2818  0.3067  1.2012
13071TIP3   OH260703   0.167   0.105  10.565 -0.0751 -0.1025 -0.3755
13071TIP3    H160704   0.171   0.046  10.490  0.5020 -0.1268 -0.3272
13071TIP3    H260705   0.107   0.175  10.538 -0.7734 -0.7091 -0.4301
13072TIP3   OH260706   0.563   4.618   1.028 -0.3162 -0.5013 -0.0174
13072TIP3    H160707   0.613   4.585   1.104 -0.6288  0.0208  0.4226
13072TIP3    H260708   0.626   4.614   0.956  0.7653  1.2153  0.7595
13073TIP3   OH260709   2.091   2.353   1.713 -0.0762 -0.0355 -0.2943
13073TIP3    H160710   2.171   2.372   1.760 -0.0642  0.5613 -0.5416
13073TIP3    H260711   2.046   2.438   1.707 -0.0114 -0.0703 -1.4569
13074TIP3   OH260712   1.813   5.382  16.078  0.6755  0.2659 -0.3131
13074TIP3    H160713   1.891   5.422  16.117  1.5519  0.6729 -2.3623
13074TIP3    H260714   1.840   5.293  16.055 -0.3693 -0.5705  1.5230
13075TIP3   OH260715   5.743   0.199   4.193  0.1757  0.4466  0.2185
13075TIP3    H160716   5.808   0.165   4.254  0.9574  2.2990  0.4676
13075TIP3    H260717   5.779   0.178   4.106  1.2611  1.6249  0.3463
13076TIP3   OH260718   0.033   4.310   0.777  0.8506  0.4740  0.0063
13076TIP3    H160719   0.032   4.232   0.833 -0.1394  1.1879  1.0316
13076TIP3    H260720   0.083   4.284   0.700 -0.3769 -1.5220 -0.1710
13077TIP3   OH260721   3.354   5.945   4.107  0.2733 -0.1641  0.4801
13077TIP3    H160722   3.433   5.899   4.080 -0.2635 -0.6681 -0.2650
13077TIP3    H260723   3.282   5.899   4.064 -0.3099  1.1910 -0.0687
13078TIP3   OH260724   5.670   2.102  10.811 -0.0884 -0.4690 -0.0953
13078TIP3    H160725   5.636   2.083  10.723  2.0283 -0.7403 -0.9027
13078TIP3    H260726   5.698   2.194  10.807 -1.2862 -0.0391  0.7736
13079TIP3   OH260727   2.647   1.560  11.581 -0.1330 -0.1659 -0.3816
13079TIP3    H160728   2.717   1.510  11.623 -1.0340 -1.6484 -0.5729
13079TIP3    H260729   2.691   1.639  11.548  0.7717  0.6771  2.5153
13080TIP3   OH260730   2.900   5.241   4.124 -0.2571 -0.2456  0.6910
13080TIP3    H160731   2.825   5.236   4.064  1.4564  0.9230 -1.7386
13080TIP3    H260732   2.891   5.327   4.167 -0.8844 -0.5975  1.2833
13081TIP3   OH260733   0.381   4.512  11.995 -0.1492  0.1632  0.2526
13081TIP3    H160734   0.370   4.575  11.924 -2.7409 -0.4885 -0.0077
13081TIP3    H260735   0.442   4.555  12.055  1.0467  1.3136 -1.6568
13082TIP3   OH260736   1.454   5.861  13.810  0.3449 -0.2140  0.5880
13082TIP3    H160737   1.374   5.823  13.773  0.6214 -0.8040  0.5907
13082TIP3    H260738   1.432   5.878  13.901 -0.0981  0.5562  0.3508
13083TIP3   OH260739   3.561   1.970   0.315 -0.3166  0.0855 -0.0035
13083TIP3    H160740   3.623   1.897   0.309  0.0157  0.2929  0.7967
13083TIP3    H260741   3.525   1.977   0.227  1.8320  0.8464 -0.8996
13084TIP3   OH260742   5.286   5.648  11.194 -0.1292  0.1730 -0.1923
13084TIP3    H160743   5.236   5.611  11.267 -0.9963  2.2996  0.3627
13084TIP3    H260744   5.239   5.728  11.171  0.8359  0.1859 -2.2873
13085TIP3   OH260745   6.624   6.493   1.592  0.0661 -0.1151 -0.4211
13085TIP3    H160746   6.587   6.422   1.539 -0.9217 -0.4188  0.6525
13085TIP3    H260747   6.716   6.496   1.566  0.6957 -3.2003  0.9370
13086TIP3   OH260748   3.412   0.635  10.812 -0.1808 -0.7046  0.1005
13086TIP3    H160749   3.441   0.695  10.743  2.0885 -0.9593  0.7663
13086TIP3    H260750   3.371   0.691  10.877  0.4811 -0.0511 -0.0247
13087TIP3   OH260751   4.555   5.584  14.307  0.0231 -0.3382  0.2174
13087TIP3    H160752   4.561   5.620  14.219  3.2468 -1.7583 -0.3045
13087TIP3    H260753   4.481   5.629  14.347 -0.7171  1.3206 -2.7469
13088TIP3   OH260754   3.267   3.058   3.035 -0.3201 -0.5258  0.1023
13088TIP3    H160755   3.202   2.992   3.011 -1.8275  0.8874  0.1089
13088TIP3    H260756   3.218   3.123   3.084  1.3131  0.1416  0.9194
13089TIP3   OH260757   6.272   5.787   6.411 -0.0545  0.4040 -0.0243
13089TIP3    H160758   6.296   5.756   6.499 -1.5003 -1.6131 -0.2445
13089TIP3    H260759   6.269   5.707   6.358 -0.1969  1.4551 -1.6647
13090TIP3   OH260760   4.511   0.004   1.054  0.6290  0.0458  0.8351
13090TIP3    H160761   4.443   0.044   1.000 -0.2998 -0.2465  1.7455
13090TIP3    H260762   4.544  -0.069   1.002  0.3242  0.2598  0.3346
13091TIP3   OH260763   5.828   6.815  11.345  0.5004 -0.1916  0.3788
13091TIP3    H160764   5.780   6.751  11.293  1.1633 -0.4002  0.0149
13091TIP3    H260765   5.916   6.779  11.352  1.0554  0.9651 -0.3533
13092TIP3   OH260766   6.510   1.298   3.000  0.2158 -0.2383 -1.0270
13092TIP3    H160767   6.442   1.348   2.956 -1.4820 -2.2821 -0.8826
13092TIP3    H260768   6.504   1.210   2.962  1.7102 -0.8900  0.1173
13093TIP3   OH260769   3.566   3.749  14.878 -0.1022 -0.0222 -0.1167
13093TIP3    H160770   3.575   3.844  14.878 -0.5643  0.0421 -1.4366
13093TIP3    H260771   3.643   3.717  14.925  0.2762  0.9803 -0.0375
13094TIP3   OH260772   2.983   5.237  14.960  0.4798 -0.5527 -0.1467
13094TIP3    H160773   2.949   5.326  14.961 -0.3029 -0.8235 -1.1979
13094TIP3    H260774   2.929   5.191  14.896  2.5083 -1.1365 -1.5434
13095TIP3   OH260775   5.269   5.330   4.669 -0.0606  0.3813  0.1910
13095TIP3    H160776   5.282   5.333   4.574 -1.1669  2.9206  0.0536
13095TIP3    H260777   5.206   5.259   4.682  1.0765 -0.8634 -0.7995
13096TIP3   OH260778   0.305   1.491   5.320  0.0532 -0.1821  0.2684
13096TIP3    H160779   0.350   1.416   5.282 -0.2555 -1.2578  1.9361
13096TIP3    H260780   0.322   1.485   5.414 -2.4418  0.0986  0.8173
13097TIP3   OH260781   5.350   2.372  14.562 -0.3524  0.1771 -0.0006
13097TIP3    H160782   5.335   2.278  14.552  2.3441 -0.2521 -0.7432
13097TIP3    H260783   5.424   2.378  14.623 -0.9148  1.8771  0.5695
13098TIP3   OH260784   3.443   2.936   4.968 -0.5206 -0.1559  0.3763
13098TIP3    H160785   3.363   2.964   5.012 -0.3764 -1.2198  1.3585
13098TIP3    H260786   3.469   3.012   4.916 -1.4150  0.6945  1.1164
13099TIP3   OH260787   1.423   0.668  13.788 -0.3749  0.3096  0.3081
13099TIP3    H160788   1.518   0.676  13.796 -0.4967  1.9428  0.4030
13099TIP3    H260789   1.397   0.618  13.866  0.6238 -2.6594 -1.0825
13100TIP3   OH260790   2.046   3.818  13.594  0.4308  0.4713 -0.5368
13100TIP3    H160791   2.074   3.728  13.576 -0.0169 -0.0658  1.2259
13100TIP3    H260792   2.101   3.872  13.538  0.1727 -0.9333 -2.2142
13101TIP3   OH260793   2.127   0.600  13.951 -0.5319 -0.1897  0.3747
13101TIP3    H160794   2.222   0.605  13.966 -0.7460  2.2623  1.3643
13101TIP3    H260795   2.106   0.682  13.906 -2.0736 -1.1148 -0.6750
13102TIP3   OH260796   2.278   2.150   1.797  0.3186  0.2269 -0.1319
13102TIP3    H160797   2.212   2.209   1.832 -1.2874 -1.1408 -0.7039
13102TIP3    H260798   2.310   2.102   1.874 -0.3054 -0.0036 -0.0089
13103TIP3   OH260799   6.777   0.113  11.832  0.1819  0.3907 -0.2407
13103TIP3    H160800   6.715   0.040  11.829 -1.0785  1.4483 -0.4015
13103TIP3    H260801   6.807   0.115  11.923 -0.0548 -0.0865 -0.1465
13104TIP3   OH260802   6.481   1.727  14.990 -0.1230  0.2041  0.1040
13104TIP3    H160803   6.468   1.815  15.025 -0.9502 -0.0643  0.4881
13104TIP3    H260804   6.444   1.731  14.902  0.0089  0.2853  0.0514
13105TIP3   OH260805   5.310   3.883  15.624  0.2499  0.9003  0.1120
13105TIP3    H160806   5.363   3.962  15.615  3.1957 -0.9581  0.1329
13105TIP3    H260807   5.332   3.830  15.548 -2.1919  0.2770 -0.2667
13106TIP3   OH260808   0.108   2.574   3.920 -0.2724  0.2435 -0.4967
13106TIP3    H160809   0.070   2.661   3.907  0.3318  0.4969 -0.6083
13106TIP3    H260810   0.188   2.575   3.867 -0.4697 -0.5211 -0.8214
13107TIP3   OH260811   1.014   3.851  14.814  0.0727  0.1787  0.1347
13107TIP3    H160812   1.046   3.935  14.849 -0.2508  0.5492 -0.4525
13107TIP3    H260813   1.054   3.845  14.727 -0.3864  0.0071 -0.0626
13108TIP3   OH260814   0.102   1.844   0.237  0.2801 -0.1184  0.0908
13108TIP3    H160815   0.166   1.791   0.190  0.3134  0.7774 -0.9285
13108TIP3    H260816   0.022   1.837   0.185 -0.1113 -0.2982  0.7158
13109TIP3   OH260817   1.368   6.239  13.137  0.2294 -0.0452 -0.0900
13109TIP3    H160818   1.296   6.276  13.189  1.2916  2.1174 -0.0788
13109TIP3    H260819   1.383   6.152  13.176 -2.4221 -0.6333 -0.1919
13110TIP3   OH260820   0.471   6.555   4.398  0.3155  0.0142 -0.0468
13110TIP3    H160821   0.529   6.592   4.463 -0.4983 -2.2671  2.1399
13110TIP3    H260822   0.510   6.471   4.375 -1.6859 -1.3097  1.0443
13111TIP3   OH260823   3.159   6.640  12.474  0.4050 -0.2264 -0.6964
13111TIP3    H160824   3.073   6.626  12.515  0.5093 -0.3902 -0.5290
13111TIP3    H260825   3.164   6.734  12.460  0.3222 -0.1803 -0.4270
13112TIP3   OH260826   4.380   3.286  13.704 -0.2836  0.4661  0.0051
13112TIP3    H160827   4.474   3.297  13.719 -0.5985  0.0050  2.9246
13112TIP3    H260828   4.344   3.374  13.707 -0.0419  0.5797 -0.3817
13113TIP3   OH260829   5.400   5.357   1.458 -0.3128 -0.7028  0.0633
13113TIP3    H160830   5.404   5.405   1.376  0.2873 -1.0043 -0.0950
13113TIP3    H260831   5.311   5.370   1.490 -0.8343 -1.3229 -1.0853
13114TIP3   OH260832   3.739   4.588   2.759 -0.4760 -0.1608  0.3055
13114TIP3    H160833   3.674   4.658   2.763 -2.9702 -2.2733 -0.6893
13114TIP3    H260834   3.736   4.548   2.846  0.4607  0.5363  0.6650
13115TIP3   OH260835   3.780   5.640   1.073  0.4389  0.7002 -1.3219
13115TIP3    H160836   3.867   5.650   1.036  0.8997 -0.0213 -0.4715
13115TIP3    H260837   3.774   5.547   1.096 -0.5698  0.7305 -1.4044
13116TIP3   OH260838   2.146   0.135   3.895  0.3927 -0.6007  0.2280
13116TIP3    H160839   2.114   0.044   3.893 -0.8641 -0.2268  1.3291
13116TIP3    H260840   2.179   0.146   3.984 -0.1706  0.2233  0.3482
13117TIP3   OH260841   4.929   2.570   4.583 -0.3840  0.1622  0.4805
13117TIP3    H160842   4.980   2.600   4.508 -0.5239  2.4785  1.2308
13117TIP3    H260843   4.995   2.548   4.650 -0.3012 -0.6723  0.1413
13118TIP3   OH260844   0.594   3.453   3.229  0.5683  0.4670 -0.0677
13118TIP3    H160845   0.515   3.447   3.174  0.8910 -0.1799 -0.4740
13118TIP3    H260846   0.591   3.375   3.284  0.4352  0.9295  0.5982
13119TIP3   OH260847   5.813   1.701   0.522  0.1440  0.0798  0.2926
13119TIP3    H160848   5.876   1.766   0.554  0.6299  0.8828 -2.0731
13119TIP3    H260849   5.860   1.656   0.451 -2.2110  1.5201 -2.3941
13120TIP3   OH260850   1.108   1.964  13.269 -0.5757 -0.3020 -0.3981
13120TIP3    H160851   1.162   1.894  13.234 -1.3998 -1.3437  0.3400
13120TIP3    H260852   1.160   2.004  13.338  0.9668  1.6099 -2.4876
13121TIP3   OH260853   1.787   1.297   0.487 -0.8146  0.9689  0.0775
13121TIP3    H160854   1.730   1.328   0.558 -1.1980 -1.2420  0.8297
13121TIP3    H260855   1.860   1.254   0.532 -1.0553 -0.4463 -0.8219
13122TIP3   OH260856   2.196   6.210   1.857 -0.1447 -0.1324  0.4241
13122TIP3    H160857   2.248   6.237   1.782 -0.5329  1.2433  0.6293
13122TIP3    H260858   2.129   6.152   1.821 -0.2833  0.4618 -0.2710
13123TIP3   OH260859   4.512   6.529  16.597  0.4020 -0.7198  0.8233
13123TIP3    H160860   4.502   6.518  16.503  1.6780 -1.5199  0.7432
13123TIP3    H260861   4.552   6.446  16.626  1.1441 -0.0249  1.8640
13124TIP3   OH260862   2.862   5.025  12.154 -0.7725 -0.4332 -0.2410
13124TIP3    H160863   2.807   4.988  12.223 -0.5114 -3.2290 -1.3979
13124TIP3    H260864   2.808   5.093  12.114 -1.8020 -0.3347  1.2365
13125TIP3   OH260865   0.792   5.011  15.911 -0.1962  0.2177 -0.3561
13125TIP3    H160866   0.760   5.086  15.860 -0.1565 -0.1119 -0.8697
13125TIP3    H260867   0.736   5.011  15.989  1.1556  2.0485  0.7134
13126TIP3   OH260868   2.602   6.560   4.796 -0.1147  0.0378 -0.0565
13126TIP3    H160869   2.622   6.553   4.890 -0.6539  1.8609  0.2331
13126TIP3    H260870   2.582   6.471   4.769 -0.2730 -0.4812  1.6507
13127TIP3   OH260871   2.364   6.637  12.939  0.2129  1.0076  0.3206
13127TIP3    H160872   2.283   6.642  12.889 -0.7398 -0.2959  1.6607
13127TIP3    H260873   2.354   6.702  13.008 -1.0536 -1.0614  2.2498
13128TIP3   OH260874   3.191   0.082  12.405 -0.5093  0.4413  0.2081
13128TIP3    H160875   3.208   0.176  12.415 -0.1168  0.5393 -1.1981
13128TIP3    H260876   3.248   0.055  12.334 -1.8338 -0.5273 -0.5235
13129TIP3   OH260877   2.318   1.199   5.883  0.7061 -0.3908  0.2193
13129TIP3    H160878   2.296   1.282   5.925  1.6918  0.5689 -1.0814
13129TIP3    H260879   2.405   1.177   5.917  0.4779 -0.8772  0.5098
13130TIP3   OH260880   5.544   3.696   1.451 -0.0035  0.0719 -0.2600
13130TIP3    H160881   5.487   3.668   1.523  0.1221 -1.6651 -0.7961
13130TIP3    H260882   5.485   3.710   1.377 -0.2233  2.5631  0.3177
13131TIP3   OH260883   4.077   5.879  14.680 -0.3759  0.0976  0.2286
13131TIP3    H160884   4.111   5.920  14.759  1.3043  0.4072 -0.6261
13131TIP3    H260885   4.091   5.785  14.693  2.6063  0.2923 -0.8244
13132TIP3   OH260886   0.469   1.839  15.682  0.4189  0.3315 -0.2130
13132TIP3    H160887   0.480   1.915  15.739 -2.2293  1.0169 -0.4960
13132TIP3    H260888   0.378   1.844  15.652 -0.6713 -4.1295  1.5037
13133TIP3   OH260889   0.599   0.684   5.308  0.3735  0.2173 -0.1620
13133TIP3    H160890   0.603   0.741   5.384  0.4070 -0.7090  0.5414
13133TIP3    H260891   0.690   0.657   5.294  0.0981 -1.3314  0.8141
13134TIP3   OH260892   1.672   5.091   1.894 -0.1687 -0.8320 -0.2736
13134TIP3    H160893   1.717   5.077   1.977 -0.4288 -0.6216 -0.0943
13134TIP3    H260894   1.630   5.007   1.874 -1.0477 -0.5545  0.3826
13135TIP3   OH260895   1.368   4.843  14.131 -0.2305 -0.7204  0.6738
13135TIP3    H160896   1.356   4.920  14.186 -0.7040 -0.2777 -0.0351
13135TIP3    H260897   1.373   4.878  14.042 -2.3345 -1.6460  0.1434
13136TIP3   OH260898   5.841   5.044   1.231  0.4279  0.0339 -0.3468
13136TIP3    H160899   5.926   5.028   1.190  1.0803  0.1445  0.9119
13136TIP3    H260900   5.858   5.115   1.294 -0.4258 -0.4322  0.4351
13137TIP3   OH260901   4.146   4.844  16.182  1.2342  0.2688  0.1343
13137TIP3    H160902   4.127   4.823  16.091  1.6981 -1.1347  0.3525
13137TIP3    H260903   4.073   4.807  16.231  1.1374  0.7589  0.3670
13138TIP3   OH260904   1.154   3.099  12.909  0.4414 -0.2927 -0.3424
13138TIP3    H160905   1.105   3.062  12.835 -1.6370  2.3661 -0.5000
13138TIP3    H260906   1.206   3.169  12.869 -0.7540  1.2133  0.6233
13139TIP3   OH260907   5.348   4.886   1.252 -0.5957 -0.1692 -0.0669
13139TIP3    H160908   5.412   4.819   1.276 -0.0115  0.6369  0.6620
13139TIP3    H260909   5.379   4.919   1.167  0.0010  0.2672  0.3159
13140TIP3   OH260910   1.141   3.395   0.589 -0.5740 -0.1139 -0.2613
13140TIP3    H160911   1.179   3.377   0.675 -0.1068 -1.2788 -0.6913
13140TIP3    H260912   1.170   3.484   0.568 -0.5575  0.1170  0.7117
13141TIP3   OH260913   0.504   0.084  14.398  0.3389  0.3897 -0.2628
13141TIP3    H160914   0.527   0.160  14.345 -1.0271 -0.1560 -1.7156
13141TIP3    H260915   0.452   0.028  14.339 -0.8454 -0.4830  1.5152
13142TIP3   OH260916   1.695   1.338   5.019 -0.2390  0.2781 -0.8896
13142TIP3    H160917   1.713   1.340   5.113 -1.2623  1.2264 -0.6884
13142TIP3    H260918   1.626   1.403   5.006 -2.3198 -1.9807 -1.8535
13143TIP3   OH260919   2.533   4.243   2.706  0.1836 -0.6660 -0.6833
13143TIP3    H160920   2.495   4.318   2.751 -1.6957 -0.4974 -2.4059
13143TIP3    H260921   2.532   4.173   2.771  0.7147  0.4093  0.5359
13144TIP3   OH260922   4.013   4.263   3.827 -0.0753  0.3253  0.3487
13144TIP3    H160923   3.979   4.339   3.874 -0.2112  0.3130  0.2702
13144TIP3    H260924   4.100   4.290   3.798 -1.5470  1.9627 -3.1156
13145TIP3   OH260925   1.413   6.153   1.110 -0.4497  0.2105  0.0696
13145TIP3    H160926   1.349   6.159   1.038 -0.7849  0.6223  0.3954
13145TIP3    H260927   1.368   6.104   1.178 -0.3717  0.3895  0.2505
13146TIP3   OH260928   5.250   1.282  13.227 -0.1422  0.2420 -0.2990
13146TIP3    H160929   5.340   1.294  13.198 -0.2409  0.6206 -0.4534
13146TIP3    H260930   5.258   1.263  13.321  0.2254 -1.7996 -0.7048
13147TIP3   OH260931   5.686   6.515  16.131  0.2489 -0.0176 -0.3092
13147TIP3    H160932   5.649   6.540  16.046 -0.5885  2.2877  0.6379
13147TIP3    H260933   5.627   6.556  16.194 -0.0945 -3.0001  1.4764
13148TIP3   OH260934   5.623   2.409   3.069 -0.2453  0.3404  0.1763
13148TIP3    H160935   5.553   2.446   3.014  1.2293  1.1503 -1.2528
13148TIP3    H260936   5.701   2.461   3.047  0.8871 -0.7138  1.5016
13149TIP3   OH260937   6.434   3.990   6.188 -0.5509 -0.0371 -0.2846
13149TIP3    H160938   6.470   4.062   6.137  0.3511 -0.2840 -0.0048
13149TIP3    H260939   6.341   4.012   6.198 -0.7620  0.0280 -2.0073
13150TIP3   OH260940   0.772   6.176   0.356 -0.1910  0.9807  0.6032
13150TIP3    H160941   0.752   6.141   0.269  1.2237 -1.6744  1.2411
13150TIP3    H260942   0.688   6.173   0.402 -0.2300 -1.5349  0.5339
13151TIP3   OH260943   3.060   5.849  10.658  1.0248 -0.0046 -0.1239
13151TIP3    H160944   3.110   5.840  10.577  1.6486  0.7362  0.1723
13151TIP3    H260945   3.122   5.884  10.721  0.8993 -1.7658  1.0497
13152TIP3   OH260946   0.386   6.005  14.743  0.1277 -0.1125 -0.0907
13152TIP3    H160947   0.406   5.990  14.835 -0.2767 -0.9949 -0.1384
13152TIP3    H260948   0.439   5.941  14.696  1.3068  1.1732 -0.5721
13153TIP3   OH260949   3.069   5.012  14.777 -0.2113  0.2288 -0.6060
13153TIP3    H160950   3.042   5.008  14.685  2.0188  0.1078 -1.3093
13153TIP3    H260951   3.111   5.097  14.786  0.1374 -0.0147  0.1349
13154TIP3   OH260952   0.159   2.451   2.595 -0.1575  0.5702  0.5353
13154TIP3    H160953   0.172   2.543   2.621 -0.9709  1.6222 -2.4533
13154TIP3    H260954   0.071   2.430   2.627 -0.0294  0.8431  1.0983
13155TIP3   OH260955   2.904   2.881   5.940 -0.1505 -0.3909  0.3650
13155TIP3    H160956   2.880   2.907   6.029 -1.8648 -0.3862 -0.0708
13155TIP3    H260957   2.942   2.793   5.950  4.0282  1.3040  1.6175
13156TIP3   OH260958   3.157   3.802  17.026 -0.4638  0.1090 -0.0203
13156TIP3    H160959   3.208   3.882  17.015  2.1525 -1.5631 -0.9508
13156TIP3    H260960   3.090   3.806  16.958 -0.4670  1.5267  0.0388
13157TIP3   OH260961   6.539   1.126   2.409 -0.3614  0.6915  0.9904
13157TIP3    H160962   6.450   1.107   2.379 -0.1451  0.7032  0.3136
13157TIP3    H260963   6.583   1.042   2.411 -0.0887  0.8123  0.3013
13158TIP3   OH260964   2.604   5.844   2.531  0.2688  0.0048 -0.1100
13158TIP3    H160965   2.690   5.825   2.568  0.9019 -1.3258 -2.1017
13158TIP3    H260966   2.609   5.812   2.441 -2.1317  0.4350 -0.4617
13159TIP3   OH260967   2.337   5.805   4.069 -0.0568 -0.0690  0.8692
13159TIP3    H160968   2.402   5.793   4.138 -1.2311 -0.7691  1.8972
13159TIP3    H260969   2.315   5.898   4.072 -0.6702 -0.2338  2.0000
13160TIP3   OH260970   1.616   2.362  12.163 -0.0055  0.4100 -0.6696
13160TIP3    H160971   1.570   2.419  12.102 -0.5808 -0.2299 -0.8439
13160TIP3    H260972   1.583   2.274  12.144  1.2112 -0.0587 -0.7320
13161TIP3   OH260973   1.137   0.226  16.887  0.6113 -0.1014 -0.3495
13161TIP3    H160974   1.132   0.195  16.796  2.1160 -1.0858 -0.1376
13161TIP3    H260975   1.166   0.317  16.880 -1.2586  0.4972 -0.8954
13162TIP3   OH260976   1.962   3.169  14.778  0.1591  0.3781  0.0679
13162TIP3    H160977   2.031   3.132  14.834  1.9216  3.3413  0.0279
13162TIP3    H260978   1.988   3.145  14.690 -0.1100 -0.4021  0.1932
13163TIP3   OH260979   2.442   5.116  14.189  0.2091  0.6772 -0.0540
13163TIP3    H160980   2.422   5.183  14.123 -2.2529  0.0324 -0.0849
13163TIP3    H260981   2.401   5.036  14.155 -0.0677  0.0386  1.6712
13164TIP3   OH260982   2.397   0.149  15.526  0.3405  0.2866 -0.4018
13164TIP3    H160983   2.377   0.140  15.433 -3.6174  0.1884  0.2749
13164TIP3    H260984   2.412   0.060  15.557 -0.6409  0.0358 -0.5961
13165TIP3   OH260985   5.497   1.493   2.079  0.0907  0.4287 -0.1587
13165TIP3    H160986   5.506   1.434   2.004 -1.1833  1.6116 -1.3060
13165TIP3    H260987   5.584   1.531   2.090  0.4847 -0.3322 -0.5314
13166TIP3   OH260988   4.787   1.269   2.498 -0.5642  0.2419 -0.0572
13166TIP3    H160989   4.837   1.286   2.577 -0.7931 -0.2590  0.2034
13166TIP3    H260990   4.737   1.349   2.483 -0.4159  0.3897  0.2229
13167TIP3   OH260991   4.908   4.614   4.285  0.4312  0.0687  0.3970
13167TIP3    H160992   5.003   4.625   4.294  0.8522 -2.9082  0.5310
13167TIP3    H260993   4.871   4.665   4.357  1.9601  0.7556  0.7427
13168TIP3   OH260994   4.300   3.242  15.955 -0.6213 -0.0872  0.5247
13168TIP3    H160995   4.227   3.247  15.894  0.1554 -1.9602 -0.6575
13168TIP3    H260996   4.368   3.195  15.907  0.4388 -0.6330  2.4587
13169TIP3   OH260997   1.845   0.600  12.505 -0.1281 -0.0503  0.1233
13169TIP3    H160998   1.811   0.531  12.449  0.9614 -0.9379  0.5070
13169TIP3    H260999   1.927   0.627  12.463  0.1196  0.0755  0.6697
13170TIP3   OH261000   2.087   4.731  13.932  0.1739 -0.6410 -0.3791
13170TIP3    H161001   2.109   4.740  13.839 -0.3693 -2.1968 -0.6948
13170TIP3    H261002   2.038   4.649  13.937  1.1543 -1.1678  1.4490
13171TIP3   OH261003   3.201   5.862   1.674  0.0666 -0.7301  0.3578
13171TIP3    H161004   3.239   5.774   1.672  0.5248 -0.5174 -1.2982
13171TIP3    H261005   3.127   5.855   1.734  2.9941 -1.0246  4.3565
13172TIP3   OH261006   1.596   1.493   3.951  0.5467  0.0580  0.2086
13172TIP3    H161007   1.687   1.472   3.929  0.5393  0.7504 -0.5433
13172TIP3    H261008   1.567   1.549   3.879 -1.0671 -1.6856 -0.5936
13173TIP3   OH261009   0.804   0.851  15.945 -0.5498  0.0413 -0.3407
13173TIP3    H161010   0.870   0.846  15.876  1.2878  2.4640  1.0952
13173TIP3    H261011   0.736   0.907  15.909 -0.8621 -0.7788 -1.0679
13174TIP3   OH261012   2.468   6.006   3.080  0.0885  0.2000  0.5283
13174TIP3    H161013   2.382   5.966   3.063  0.1229 -0.0031  0.8310
13174TIP3    H261014   2.451   6.100   3.082 -0.1184  0.1622  0.5348
13175TIP3   OH261015   2.854   3.606   3.019 -0.0723  0.2985 -0.7158
13175TIP3    H161016   2.852   3.682   3.076 -0.8046 -1.4592  1.7634
13175TIP3    H261017   2.947   3.594   2.998  0.7013 -0.6252  2.6113
13176TIP3   OH261018   4.047   3.620  15.523 -0.1553 -0.6846 -0.0254
13176TIP3    H161019   4.076   3.676  15.594  1.7033 -0.1874 -1.1016
13176TIP3    H261020   4.016   3.540  15.566 -2.6307  0.9872  1.5178
13177TIP3   OH261021   4.359   0.837   5.147 -0.6009 -0.4335 -0.8235
13177TIP3    H161022   4.399   0.758   5.112 -0.4778 -1.2580  1.0639
13177TIP3    H261023   4.432   0.888   5.182 -0.9948 -1.6258  2.0026
13178TIP3   OH261024   1.598   1.896  14.392 -0.5895 -0.3280  0.4032
13178TIP3    H161025   1.682   1.938  14.370  0.3766 -1.9733  0.7936
13178TIP3    H261026   1.536   1.969  14.399  0.8542  0.9603  0.3495
13179TIP3   OH261027   2.683   6.559   2.708  0.4166 -0.2956  0.2131
13179TIP3    H161028   2.688   6.567   2.804 -2.2032 -3.1181  0.7359
13179TIP3    H261029   2.759   6.506   2.685  0.9324  0.1895  0.7559
13180TIP3   OH261030   6.219   2.124   2.884  0.4521 -0.0506  0.3403
13180TIP3    H161031   6.240   2.216   2.898  0.6383  0.0216 -0.3985
13180TIP3    H261032   6.135   2.125   2.838 -0.3221 -0.2960  1.6920
13181TIP3   OH261033   2.246   4.562   1.693  0.3200 -0.0387 -0.1734
13181TIP3    H161034   2.319   4.519   1.737  0.3473  0.9215  0.7627
13181TIP3    H261035   2.230   4.509   1.615  1.4312 -0.7664  0.0740
13182TIP3   OH261036   2.362   1.647   5.773 -0.6159  0.2906  0.6602
13182TIP3    H161037   2.339   1.571   5.719  0.5510  0.5450 -0.2188
13182TIP3    H261038   2.456   1.656   5.763 -0.3130  0.2482  2.8917
13183TIP3   OH261039   0.929   6.046  16.927  0.0144 -0.3384 -0.3048
13183TIP3    H161040   0.979   5.968  16.952  0.8567  0.2672 -0.0657
13183TIP3    H261041   0.916   6.037  16.833  0.5533 -0.5178 -0.3665
13184TIP3   OH261042   0.085   0.922  12.136  0.2069 -0.4960  0.2119
13184TIP3    H161043   0.052   0.834  12.154 -0.1077 -0.6053 -0.8167
13184TIP3    H261044   0.162   0.931  12.192 -1.5071 -0.2393  2.7044
13185TIP3   OH261045   4.739   6.178   1.538  0.7839 -0.5766 -0.3424
13185TIP3    H161046   4.824   6.181   1.494  0.7819 -1.8041 -0.4787
13185TIP3    H261047   4.732   6.088   1.569  0.1687 -0.0981  0.9608
13186TIP3   OH261048   1.186   3.730  11.805 -0.0256  0.2042 -0.6472
13186TIP3    H161049   1.110   3.718  11.747 -0.7220  0.6362  0.1530
13186TIP3    H261050   1.149   3.731  11.893  1.0173 -0.4044 -0.1835
13187TIP3   OH261051   3.169   6.703  13.274 -0.6260 -0.1027  0.6070
13187TIP3    H161052   3.187   6.787  13.317 -0.1624  0.0731  0.0772
13187TIP3    H261053   3.218   6.639  13.325  1.4039  0.3388 -0.6828
13188TIP3   OH261054   1.942   6.185   5.119  0.6557  0.0070  0.0411
13188TIP3    H161055   1.976   6.168   5.031 -0.9797  2.6444 -1.2181
13188TIP3    H261056   1.846   6.181   5.109  0.3371  2.8454  1.0229
13189TIP3   OH261057   5.075   3.750   0.755  0.3951 -0.2067  0.0417
13189TIP3    H161058   5.045   3.719   0.670  1.7294  1.8915 -1.2734
13189TIP3    H261059   5.167   3.725   0.759  0.6707  0.8225  0.3048
13190TIP3   OH261060   5.662   0.616   3.001 -0.3190 -0.1159  0.1153
13190TIP3    H161061   5.729   0.675   3.036 -1.4479 -0.2426  2.7802
13190TIP3    H261062   5.707   0.534   2.986  0.8327  0.7769 -1.6408
13191TIP3   OH261063   6.389   6.390   4.902 -0.3120 -0.7949  0.0253
13191TIP3    H161064   6.336   6.381   4.822 -0.0547 -0.9166 -0.1313
13191TIP3    H261065   6.422   6.302   4.920 -0.0759 -0.7005  0.0624
13192TIP3   OH261066   1.002   5.918   2.062 -0.2157  0.5566  0.8733
13192TIP3    H161067   1.014   5.893   1.971 -1.5193 -0.7446  1.0152
13192TIP3    H261068   1.014   6.013   2.063 -1.0552  0.7204 -0.8175
13193TIP3   OH261069   4.381   3.574  13.732 -0.2492  0.1478  0.2328
13193TIP3    H161070   4.443   3.646  13.743 -1.3364  0.8790  2.1046
13193TIP3    H261071   4.301   3.605  13.774 -2.1375 -0.5202 -2.5823
13194TIP3   OH261072   1.629   1.881   0.665 -0.8006  0.4662 -0.2891
13194TIP3    H161073   1.576   1.804   0.645  1.5805 -1.2619 -0.4871
13194TIP3    H261074   1.665   1.908   0.581  1.1710 -0.4688  0.1987
13195TIP3   OH261075   5.617   0.765   2.621 -0.0023 -0.2783 -0.4990
13195TIP3    H161076   5.647   0.831   2.683  0.4711  0.4122 -1.4400
13195TIP3    H261077   5.554   0.712   2.671  1.2269 -0.4896  0.9152
13196TIP3   OH261078   6.246   1.481  16.716  0.0936  0.3526  0.5293
13196TIP3    H161079   6.275   1.570  16.737 -2.1314  1.1551  0.4033
13196TIP3    H261080   6.206   1.449  16.797 -0.1751 -0.0755  0.2341
13197TIP3   OH261081   1.416   1.715   4.378  0.1844 -0.2552 -0.1805
13197TIP3    H161082   1.458   1.639   4.337 -0.4916 -0.7108 -0.0523
13197TIP3    H261083   1.478   1.786   4.365  0.6222 -0.7198 -0.7287
13198TIP3   OH261084   6.717   6.324  16.352 -0.0060 -0.0152  0.1572
13198TIP3    H161085   6.670   6.243  16.372 -0.6994  0.1914 -0.5365
13198TIP3    H261086   6.802   6.296  16.319 -0.9395 -0.5766 -1.9309
13199TIP3   OH261087   1.779   0.292   3.517  0.0672 -0.3096  0.1512
13199TIP3    H161088   1.701   0.238   3.507  0.1079 -0.2812 -0.3351
13199TIP3    H261089   1.814   0.269   3.603  0.3728 -1.4369 -0.2571
13200TIP3   OH261090   0.949   0.767   5.019 -0.1176  0.0280 -0.4759
13200TIP3    H161091   1.006   0.809   4.954 -0.2948  1.0883  0.0188
13200TIP3    H261092   0.908   0.841   5.064 -0.2133 -0.6965  0.6434
13201TIP3   OH261093   6.048   4.974   1.052  0.4228 -0.1852  0.2877
13201TIP3    H161094   6.020   5.032   0.981  1.9915 -0.5347 -0.6640
13201TIP3    H261095   6.143   4.980   1.053  0.4876 -0.8410  1.8325
13202TIP3   OH261096   2.578   1.784  11.175  0.3454 -0.0743  0.1253
13202TIP3    H161097   2.666   1.791  11.138  0.0779 -0.6392 -0.6580
13202TIP3    H261098   2.582   1.835  11.256  0.9743  1.1157 -0.6315
13203TIP3   OH261099   4.367   2.629   3.408  0.3956 -0.3894 -0.1250
13203TIP3    H161100   4.377   2.617   3.314  0.6370  0.1687 -0.1765
13203TIP3    H261101   4.367   2.724   3.420  0.5631 -0.4583  0.4551
13204TIP3   OH261102   3.361   4.306   0.028 -0.1435  0.3326  0.3491
13204TIP3    H161103   3.276   4.293   0.069  0.0132 -1.8616  0.0991
13204TIP3    H261104   3.424   4.272   0.093  0.4668  1.0567  0.1496
13205TIP3   OH261105   1.784   1.223   2.103 -0.2372 -0.2400  0.0248
13205TIP3    H161106   1.750   1.167   2.173  1.3172 -0.5740  0.5556
13205TIP3    H261107   1.869   1.253   2.135 -0.5513  1.5887 -0.7058
13206TIP3   OH261108   1.478   2.779   1.913  0.5750 -0.2989 -0.1556
13206TIP3    H161109   1.435   2.830   1.981 -0.2670 -1.5352  0.2671
13206TIP3    H261110   1.408   2.755   1.853  0.5402 -2.6687  0.7483
13207TIP3   OH261111   4.663   6.378   1.340  0.3805 -0.1133  0.2446
13207TIP3    H161112   4.677   6.306   1.402  1.3155  0.3402  0.5737
13207TIP3    H261113   4.747   6.424   1.337 -0.4571  1.5386  0.7665
13208TIP3   OH261114   5.192   1.675  16.785 -0.7961  0.0555 -0.8430
13208TIP3    H161115   5.190   1.766  16.817  0.8466 -0.2995  0.4310
13208TIP3    H261116   5.194   1.684  16.690  0.5635  1.4530 -0.7421
13209TIP3   OH261117   2.772   0.585  13.420 -0.0645  0.0802 -0.3378
13209TIP3    H161118   2.833   0.591  13.347 -0.0202 -0.3992 -0.3422
13209TIP3    H261119   2.715   0.662  13.411  0.7355  0.7142 -0.1490
13210TIP3   OH261120   4.895   2.975  11.427  0.8565  0.0796 -0.3993
13210TIP3    H161121   4.936   2.955  11.343  0.4334 -0.1296 -0.5559
13210TIP3    H261122   4.914   2.899  11.482 -0.0277 -0.3898 -0.7311
13211TIP3   OH261123   3.336   3.842  13.458 -0.0629  0.2921  0.2568
13211TIP3    H161124   3.423   3.803  13.464  0.5951  1.5975 -0.3852
13211TIP3    H261125   3.316   3.843  13.364  0.1409  1.8660  0.2009
13212TIP3   OH261126   4.457   2.904  16.092  0.3852 -0.0777 -0.1256
13212TIP3    H161127   4.361   2.902  16.093  0.2809  1.9497  1.3292
13212TIP3    H261128   4.483   2.867  16.177  0.7938  0.6871  0.0980
13213TIP3   OH261129   2.842   4.054   4.340  0.5521  0.1920  0.3899
13213TIP3    H161130   2.769   4.015   4.388 -1.8617  1.5296 -1.9468
13213TIP3    H261131   2.884   3.980   4.295 -0.8366 -0.3432 -0.0679
13214TIP3   OH261132   3.311   3.374   5.638  0.0978  0.1885  0.2773
13214TIP3    H161133   3.352   3.291   5.664 -1.0254 -0.7611 -0.8704
13214TIP3    H261134   3.271   3.407   5.719  0.1122 -0.6540  0.6381
13215TIP3   OH261135   0.478   6.709   4.838 -0.1517 -0.2386  0.0165
13215TIP3    H161136   0.547   6.642   4.832 -0.3534 -0.3699 -1.3154
13215TIP3    H261137   0.518   6.780   4.888  0.9375 -0.3575 -0.6307
13216TIP3   OH261138   5.939   2.068   4.706  0.6123 -0.8693 -0.2832
13216TIP3    H161139   5.956   1.976   4.683  0.4975 -0.6581 -1.2400
13216TIP3    H261140   5.850   2.067   4.742  1.2746 -1.4093  1.4589
13217TIP3   OH261141   1.673   1.723  12.188  0.1786 -0.1188 -0.1084
13217TIP3    H161142   1.646   1.631  12.193 -1.0205  0.2480  0.7553
13217TIP3    H261143   1.622   1.766  12.256 -0.0632  1.3731 -1.1788
13218TIP3   OH261144   5.041   3.291   4.720  0.6313 -0.3093  0.5999
13218TIP3    H161145   5.072   3.202   4.700  0.8873 -0.2590  0.7658
13218TIP3    H261146   5.089   3.347   4.659 -1.8071 -0.5503 -1.7302
13219TIP3   OH261147   4.164   4.278  16.582 -0.4253 -0.9471  0.6850
13219TIP3    H161148   4.157   4.252  16.491  0.2108  0.9685  0.0396
13219TIP3    H261149   4.189   4.198  16.628 -0.4483 -1.8735 -0.8550
13220TIP3   OH261150   1.583   2.468  11.502  0.3976 -0.3409 -0.0420
13220TIP3    H161151   1.597   2.552  11.545 -2.1583  0.3582 -0.4225
13220TIP3    H261152   1.647   2.466  11.431  1.2086  0.7727  0.6230
13221TIP3   OH261153   4.593   6.315  16.191  0.0454  0.3710 -0.2046
13221TIP3    H161154   4.549   6.385  16.143  0.8114  1.2992  0.3854
13221TIP3    H261155   4.683   6.347  16.203 -0.0412  0.0631  1.5648
13222TIP3   OH261156   4.099   1.688  11.392 -0.0215  0.0973 -0.2275
13222TIP3    H161157   4.032   1.680  11.325 -0.1390  1.2790 -0.2674
13222TIP3    H261158   4.119   1.598  11.417 -0.0312 -0.3614 -1.7783
13223TIP3   OH261159   2.485   5.227   6.140  0.5817 -0.4297 -0.0066
13223TIP3    H161160   2.507   5.207   6.231  0.0455 -1.4956 -0.0897
13223TIP3    H261161   2.467   5.141   6.101 -2.6747  0.2280 -0.2151
13224TIP3   OH261162   3.214   0.992  11.946  0.2767 -0.2431 -0.3527
13224TIP3    H161163   3.168   0.998  11.862 -1.2260  0.1045  0.4624
13224TIP3    H261164   3.222   1.082  11.976 -0.1331 -0.4352  0.3589
13225TIP3   OH261165   2.819   6.640   1.222  0.0035  0.2379 -0.3486
13225TIP3    H161166   2.791   6.579   1.291 -2.1078 -1.2385 -2.3557
13225TIP3    H261167   2.860   6.585   1.156 -1.1027  1.0990 -1.8045
13226TIP3   OH261168   1.011   2.083   3.913  0.0831 -0.6112  0.1370
13226TIP3    H161169   1.101   2.099   3.886 -0.0543  0.5268  0.3328
13226TIP3    H261170   0.958   2.128   3.847 -0.3350 -0.8736  0.2880
13227TIP3   OH261171   0.947   3.243   3.318 -0.3862  0.0911  0.1394
13227TIP3    H161172   0.924   3.262   3.409  0.5761 -1.7954  0.8201
13227TIP3    H261173   0.876   3.187   3.287  0.0116 -0.4381  0.1833
13228TIP3   OH261174   0.754   3.728   0.716 -0.2914 -0.5916  0.3880
13228TIP3    H161175   0.822   3.762   0.774 -1.0139 -1.2746  1.6670
13228TIP3    H261176   0.689   3.799   0.711  0.5738  0.1489 -1.0114
13229TIP3   OH261177   3.176   1.476   5.632  0.6247 -0.0582  0.3434
13229TIP3    H161178   3.133   1.412   5.576 -0.3321  1.1603 -0.3538
13229TIP3    H261179   3.240   1.520   5.575  0.1176  0.7238  0.3570
13230TIP3   OH261180   1.330   1.914   4.901 -0.2227  0.0704 -0.3173
13230TIP3    H161181   1.316   1.939   4.992  0.9832  0.9070 -0.3412
13230TIP3    H261182   1.425   1.916   4.890 -0.3596  0.1299 -1.6339
13231TIP3   OH261183   4.619   2.198   4.152  0.4464  0.7598  0.2482
13231TIP3    H161184   4.581   2.270   4.102 -0.2512 -0.0711 -0.4543
13231TIP3    H261185   4.641   2.132   4.086 -2.3794 -1.2482  1.1129
13232TIP3   OH261186   3.312   0.225  12.767 -0.1235 -0.0063 -0.3273
13232TIP3    H161187   3.354   0.161  12.710  0.1002 -1.8739  1.8033
13232TIP3    H261188   3.356   0.308  12.748  1.8905 -1.1458 -0.8539
13233TIP3   OH261189   4.959   4.901  14.009 -0.8730 -0.2886  0.4050
13233TIP3    H161190   4.992   4.965  13.946  0.5499 -0.4177  0.9743
13233TIP3    H261191   5.005   4.820  13.987 -1.5423 -0.7373  0.6262
13234TIP3   OH261192   4.218   5.850  11.435 -0.1065 -0.3561 -0.5000
13234TIP3    H161193   4.236   5.761  11.464 -0.1303 -0.1416  0.1961
13234TIP3    H261194   4.182   5.893  11.512  2.1205  0.9425 -0.1047
13235TIP3   OH261195   5.410   5.215  16.257 -0.2499  0.0322 -0.1765
13235TIP3    H161196   5.503   5.228  16.239  0.1318 -0.4172  1.3425
13235TIP3    H261197   5.388   5.132  16.215  0.6390 -1.0477  1.4078
13236TIP3   OH261198   0.156   0.835  11.044 -0.1172 -0.4872 -0.7102
13236TIP3    H161199   0.067   0.869  11.049  0.3108  0.7295 -1.1123
13236TIP3    H261200   0.189   0.842  11.134 -0.0663  0.0689 -0.7722
13237TIP3   OH261201   4.427   5.199   4.761 -0.1936 -0.2799  0.0740
13237TIP3    H161202   4.475   5.126   4.799  0.5246 -0.1163 -0.5055
13237TIP3    H261203   4.487   5.238   4.698 -0.1431  1.5281  1.1796
13238TIP3   OH261204   3.168   1.581   3.764 -0.1554  0.1499 -0.1990
13238TIP3    H161205   3.212   1.529   3.697  0.9796 -0.0101  0.6491
13238TIP3    H261206   3.115   1.517   3.813 -0.6980  0.2078 -0.7028
13239TIP3   OH261207   0.700   3.728   5.707 -0.2943  0.1976 -0.1104
13239TIP3    H161208   0.687   3.805   5.761 -1.7409 -1.8228  2.7162
13239TIP3    H261209   0.794   3.714   5.705 -0.1121  1.3372  0.3555
13240TIP3   OH261210   4.644   0.110   0.296 -0.1060  0.3119  0.1933
13240TIP3    H161211   4.729   0.133   0.331  0.0165  0.9812 -0.5033
13240TIP3    H261212   4.640   0.014   0.301  1.7066  0.0301 -1.9600
13241TIP3   OH261213   2.805   0.977   2.877 -0.1940 -0.2110  0.4215
13241TIP3    H161214   2.727   0.927   2.855 -0.9597  0.5720  1.2671
13241TIP3    H261215   2.863   0.968   2.801 -1.0631 -0.8814 -0.1693
13242TIP3   OH261216   6.714   0.643   2.374 -0.5191 -0.0157  0.1904
13242TIP3    H161217   6.764   0.610   2.449 -0.4177 -0.0781  0.0964
13242TIP3    H261218   6.677   0.726   2.404 -2.9631 -1.4204  1.3376
13243TIP3   OH261219   3.998   3.956  14.157  0.1469 -0.2907  0.3916
13243TIP3    H161220   4.007   3.967  14.252  0.1877 -0.4843  0.4114
13243TIP3    H261221   3.965   4.040  14.126 -1.3870 -0.7052  0.7814
13244TIP3   OH261222   1.657   5.923  16.298 -0.5295  0.0416  0.3381
13244TIP3    H161223   1.605   5.844  16.309 -0.5478 -0.0911 -0.6456
13244TIP3    H261224   1.747   5.896  16.319 -0.3911 -0.4749 -0.8263
13245TIP3   OH261225   2.769   4.013  11.186  0.1805 -0.5675  0.1030
13245TIP3    H161226   2.791   3.979  11.099 -0.0308  2.7207 -1.3757
13245TIP3    H261227   2.829   4.086  11.200 -1.3494  0.4856  1.6529
13246TIP3   OH261228   2.600   5.522   5.915  0.0781  0.7560  0.0495
13246TIP3    H161229   2.561   5.498   5.999  1.0664 -0.6976  0.1269
13246TIP3    H261230   2.684   5.562   5.937  0.2278  0.6037 -0.2303
13247TIP3   OH261231   3.878   2.984   2.712  0.1537 -0.1755 -0.6100
13247TIP3    H161232   3.947   2.963   2.649  0.4574 -1.9193  0.2349
13247TIP3    H261233   3.810   2.918   2.696  0.7545 -1.4372  1.6249
13248TIP3   OH261234   4.360   3.136   3.685 -0.2467  0.0330 -0.2883
13248TIP3    H161235   4.396   3.224   3.699  0.5171 -0.2766 -0.2643
13248TIP3    H261236   4.425   3.092   3.630 -0.7522 -0.4357 -0.5181
13249TIP3   OH261237   4.784   2.126   4.592  0.2748  0.0418  0.3715
13249TIP3    H161238   4.863   2.127   4.647 -0.7531 -0.7304  1.9380
13249TIP3    H261239   4.810   2.171   4.512  2.8886 -1.8755  0.0076
13250TIP3   OH261240   2.401   6.455   2.302  0.2226 -0.4637  0.0055
13250TIP3    H161241   2.462   6.419   2.238 -2.4714 -0.9547 -2.5183
13250TIP3    H261242   2.449   6.453   2.385  3.5029 -0.9255 -1.7235
13251TIP3   OH261243   0.623   6.703   4.116 -0.0879 -0.3123 -0.1620
13251TIP3    H161244   0.672   6.763   4.059  1.1054 -0.0654  1.0686
13251TIP3    H261245   0.547   6.677   4.064  1.7454 -1.3874 -2.4886
13252TIP3   OH261246   1.857   1.356  12.358  0.5061  0.0099  0.0616
13252TIP3    H161247   1.919   1.426  12.340 -0.3851  0.7426 -0.2287
13252TIP3    H261248   1.828   1.373  12.448 -0.0156  0.2587 -0.1516
13253TIP3   OH261249   2.039   4.998  10.483  0.7186  0.2943 -0.3220
13253TIP3    H161250   2.127   5.035  10.489  0.4870  0.7120  0.5921
13253TIP3    H261251   1.990   5.040  10.553 -0.0378 -0.4201 -0.4050
13254TIP3   OH261252   1.781   5.430  15.203 -0.0569  0.5039 -0.2193
13254TIP3    H161253   1.747   5.519  15.197 -2.0267 -0.2405 -1.0732
13254TIP3    H261254   1.732   5.391  15.276 -0.5829 -0.4185 -1.0539
13255TIP3   OH261255   2.756   2.196   2.424  0.5313  0.3093 -0.4865
13255TIP3    H161256   2.744   2.103   2.444  2.7343  0.2417  0.8867
13255TIP3    H261257   2.688   2.240   2.475  2.9637 -0.2540  3.7139
13256TIP3   OH261258   3.557   4.107   5.997  0.0691 -0.5665 -0.4858
13256TIP3    H161259   3.568   4.108   6.092  1.3447  0.7498 -0.6189
13256TIP3    H261260   3.613   4.036   5.966  2.4551  1.2134 -0.4999
13257TIP3   OH261261   5.539   4.926   2.661  0.2812  0.1056  0.0452
13257TIP3    H161262   5.533   4.929   2.756  1.3236 -1.0572  0.1624
13257TIP3    H261263   5.480   4.996   2.631  1.0718  1.4832  1.5600
13258TIP3   OH261264   2.241   4.033  16.142  0.2348 -0.1552  0.4770
13258TIP3    H161265   2.212   3.944  16.165 -0.2742  0.3691  2.0027
13258TIP3    H261266   2.336   4.031  16.153  0.4185 -0.9261 -1.0677
13259TIP3   OH261267   6.778   6.763   1.539  0.2858 -0.1592 -0.4191
13259TIP3    H161268   6.852   6.742   1.482 -0.0304 -0.4773 -0.7196
13259TIP3    H261269   6.727   6.828   1.490  0.2284 -0.1318 -0.3245
13260TIP3   OH261270   3.396   6.658   3.193  0.8133  0.0061 -0.0286
13260TIP3    H161271   3.399   6.730   3.131  1.9819  0.3257  0.3835
13260TIP3    H261272   3.459   6.594   3.159  1.5882  0.2581  0.9063
13261TIP3   OH261273   5.768   1.575  14.103  0.2521 -0.5579 -0.1619
13261TIP3    H161274   5.800   1.486  14.088  1.1256 -0.1602 -0.7530
13261TIP3    H261275   5.787   1.621  14.021 -1.1326 -0.0841 -0.2467
13262TIP3   OH261276   4.815   1.696  16.615 -0.1472  0.2183 -0.2230
13262TIP3    H161277   4.723   1.722  16.608  0.0220  0.9245  0.1230
13262TIP3    H261278   4.815   1.604  16.590 -0.9896  0.1396  0.0267
13263TIP3   OH261279   4.949   2.732  12.411 -0.2671 -0.6067 -0.3185
13263TIP3    H161280   4.955   2.682  12.493  0.7885  0.0554  0.0286
13263TIP3    H261281   4.858   2.758  12.406 -0.1568  0.2073  1.1940
13264TIP3   OH261282   5.769   4.175   3.972  0.1455 -0.3010  0.4539
13264TIP3    H161283   5.751   4.086   4.001 -0.1261 -0.0615  1.0256
13264TIP3    H261284   5.686   4.222   3.983 -0.1415 -0.3322 -1.2312
13265TIP3   OH261285   6.046   2.652   2.255 -0.0104  0.7935 -0.6416
13265TIP3    H161286   6.063   2.740   2.221 -0.8467  0.7722 -1.1486
13265TIP3    H261287   6.037   2.664   2.350 -0.0563  1.2394 -0.7006
13266TIP3   OH261288   2.100   2.100   3.311  0.2254  0.7037 -0.1737
13266TIP3    H161289   2.105   2.136   3.400  0.5579 -3.2362  1.6316
13266TIP3    H261290   2.009   2.111   3.286 -0.7662 -1.1604  2.2260
13267TIP3   OH261291   6.588   2.149  14.030  0.2171  0.3183 -0.4146
13267TIP3    H161292   6.568   2.196  14.110  2.0390  1.2265 -0.4440
13267TIP3    H261293   6.650   2.205  13.983  0.2313 -0.8018 -1.8288
13268TIP3   OH261294   5.658   3.013  15.815 -0.0433  0.0300 -0.1171
13268TIP3    H161295   5.650   2.945  15.882 -0.9732  3.0324  3.1284
13268TIP3    H261296   5.748   3.045  15.825 -0.1315  0.3710 -0.4035
13269TIP3   OH261297   6.712   5.710   1.011  0.6476  0.6178  0.5475
13269TIP3    H161298   6.660   5.651   0.957 -1.9307  1.8953  1.4995
13269TIP3    H261299   6.721   5.790   0.958  1.3430  0.5491  0.5488
13270TIP3   OH261300   5.214   3.356  15.747  0.2017  0.6366  0.0943
13270TIP3    H161301   5.309   3.361  15.761  0.1042  3.0868  0.3411
13270TIP3    H261302   5.194   3.428  15.687 -1.5267  0.2959  0.2001
13271TIP3   OH261303   1.547   3.268   5.258 -0.2215 -0.3291 -0.2994
13271TIP3    H161304   1.527   3.348   5.209  1.9056  0.1853 -0.4353
13271TIP3    H261305   1.476   3.207   5.235 -0.6994  0.7815 -1.9451
13272TIP3   OH261306   6.473   3.714  14.481 -0.7249 -0.1424  0.1558
13272TIP3    H161307   6.451   3.723  14.574 -0.4026 -0.1085  0.2272
13272TIP3    H261308   6.483   3.620  14.468  0.4213 -0.0684  0.4263
13273TIP3   OH261309   3.418   4.651  12.928  0.1067  0.2533  0.2984
13273TIP3    H161310   3.509   4.629  12.908  0.7046  0.6546  2.3371
13273TIP3    H261311   3.411   4.641  13.023 -1.7069  1.2375  0.3188
13274TIP3   OH261312   5.524   0.731   4.309 -0.0187 -0.2165  0.0617
13274TIP3    H161313   5.609   0.713   4.267 -0.3749  0.3946 -0.9770
13274TIP3    H261314   5.547   0.771   4.393  0.7830  2.0241 -1.1246
13275TIP3   OH261315   6.010   0.459   0.394  0.6301  0.1579 -0.2717
13275TIP3    H161316   5.917   0.441   0.382  0.3581  1.6262 -0.4722
13275TIP3    H261317   6.045   0.465   0.306  0.7342  0.5212 -0.2046
13276TIP3   OH261318   1.325   6.281   6.797  0.2659 -0.0907 -0.2996
13276TIP3    H161319   1.410   6.237   6.808 -0.2518 -0.6097  2.5009
13276TIP3    H261320   1.330   6.356   6.856 -1.0015  0.2251 -0.5656
13277TIP3   OH261321   4.537   1.403   2.743 -0.9958  0.4756 -0.2612
13277TIP3    H161322   4.598   1.335   2.769 -1.7183 -0.1213 -0.0944
13277TIP3    H261323   4.564   1.426   2.654 -1.7349 -1.2083 -0.9658
13278TIP3   OH261324   3.109   3.260   0.221 -0.0954 -0.4065  0.4535
13278TIP3    H161325   3.153   3.283   0.139 -0.2053  0.0963  0.5297
13278TIP3    H261326   3.062   3.179   0.202 -2.4964  1.1562 -0.8881
13279TIP3   OH261327   3.739   6.596  16.718  0.4810  0.3743 -0.6809
13279TIP3    H161328   3.649   6.592  16.750  0.8030  1.5833  0.4595
13279TIP3    H261329   3.787   6.537  16.775  0.8669  1.7450  0.4668
13280TIP3   OH261330   6.113   2.101   1.866 -0.3954 -0.4339 -0.0826
13280TIP3    H161331   6.198   2.062   1.885 -0.4985 -0.3986  0.4694
13280TIP3    H261332   6.057   2.026   1.842 -0.1512 -0.4302 -0.6766
13281TIP3   OH261333   4.276   0.101  16.757  0.0184  0.2311  0.3495
13281TIP3    H161334   4.325   0.111  16.839  0.5683  0.1138  0.0426
13281TIP3    H261335   4.343   0.078  16.692 -0.6845 -1.7258  0.2632
13282TIP3   OH261336   1.359   0.961   2.567  0.2659  0.3317 -0.7283
13282TIP3    H161337   1.420   1.028   2.538 -0.1464  0.4757 -1.2712
13282TIP3    H261338   1.414   0.883   2.582  0.6082  0.5208 -0.9988
13283TIP3   OH261339   6.706   1.985  10.200  0.8199  0.3662  0.4367
13283TIP3    H161340   6.712   1.894  10.171  1.4976 -0.0335  1.7586
13283TIP3    H261341   6.795   2.007  10.229  0.5638  1.3114  0.5528
13284TIP3   OH261342   6.405   5.800  17.086  0.8140  0.3656  0.5118
13284TIP3    H161343   6.472   5.749  17.040  1.6756  0.7397  1.3070
13284TIP3    H261344   6.424   5.784  17.179 -0.0776  0.6522  0.7494
13285TIP3   OH261345   5.923   3.272   6.134  0.2561 -0.2177 -0.2225
13285TIP3    H161346   6.008   3.290   6.173 -0.2841 -1.2616  1.5774
13285TIP3    H261347   5.863   3.333   6.177 -0.0961 -0.3033 -0.5804
13286TIP3   OH261348   3.288   5.650  12.771 -0.3755  0.0359 -0.0502
13286TIP3    H161349   3.381   5.672  12.765 -0.3314 -0.1370 -0.0109
13286TIP3    H261350   3.287   5.555  12.774 -0.5929  0.0207 -0.6783
13287TIP3   OH261351   2.590   1.322   0.642 -0.1682 -0.2316 -0.1675
13287TIP3    H161352   2.621   1.299   0.730  0.2454  1.2718  0.1152
13287TIP3    H261353   2.539   1.402   0.655  1.2974  0.9834 -1.4681
13288TIP3   OH261354   3.552   3.927  14.439  0.5315 -0.2486  0.0047
13288TIP3    H161355   3.636   3.938  14.483  1.2977 -0.8548 -1.2497
13288TIP3    H261356   3.509   3.856  14.486  1.1607 -0.6155  0.0335
13289TIP3   OH261357   0.422   2.003  11.422 -0.2395 -0.1536  0.4661
13289TIP3    H161358   0.513   2.027  11.441 -0.5358  0.0325  1.7467
13289TIP3    H261359   0.426   1.956  11.338  0.5154  3.4004 -1.6868
13290TIP3   OH261360   6.688   4.900  13.198  0.5106  0.6211 -0.4066
13290TIP3    H161361   6.609   4.850  13.177  1.8998 -1.4616 -0.9228
13290TIP3    H261362   6.667   4.990  13.170 -1.5719  0.0859 -0.7347
13291TIP3   OH261363   3.982   3.885  13.361 -0.2031 -0.1194  0.2779
13291TIP3    H161364   3.993   3.817  13.295  2.5827 -0.4829  0.9993
13291TIP3    H261365   3.891   3.878  13.388 -0.4552 -2.3579 -0.9475
13292TIP3   OH261366   6.289   4.739   1.056 -0.0595 -0.1174 -0.3197
13292TIP3    H161367   6.382   4.751   1.074  0.1470  1.4117 -2.0383
13292TIP3    H261368   6.286   4.716   0.963 -1.4448  1.7945 -0.8249
13293TIP3   OH261369   2.882   0.172   6.217  0.2453 -0.2222  0.2661
13293TIP3    H161370   2.865   0.108   6.285  0.7006 -0.4868  0.1356
13293TIP3    H261371   2.856   0.256   6.256  1.0810 -0.2860  0.9974
13294TIP3   OH261372   6.692   4.420  13.677 -0.3703 -0.3748  0.0005
13294TIP3    H161373   6.711   4.432  13.770 -2.0416 -0.0934  0.3439
13294TIP3    H261374   6.644   4.499  13.652 -0.8312 -0.8994 -0.8317
13295TIP3   OH261375   1.310   2.188   3.432  0.3614  0.5880  0.3227
13295TIP3    H161376   1.245   2.123   3.460  0.7040  0.1017 -0.0061
13295TIP3    H261377   1.303   2.258   3.497 -0.3119  0.4238  0.4389
13296TIP3   OH261378   1.181   5.238   2.148  0.3743  0.0260 -0.3701
13296TIP3    H161379   1.169   5.289   2.228  2.2325 -2.6166  1.7344
13296TIP3    H261380   1.268   5.264   2.116  0.7531 -0.7851 -0.0314
13297TIP3   OH261381   6.510   3.735  13.385  0.4455 -0.1568 -0.0796
13297TIP3    H161382   6.483   3.754  13.475  0.2849  0.5195 -0.2637
13297TIP3    H261383   6.432   3.752  13.332  0.3717 -1.1038 -0.2930
13298TIP3   OH261384   2.063   5.457   0.153 -0.1938  0.3109  0.3328
13298TIP3    H161385   2.036   5.546   0.131  2.7226  0.9151 -1.3554
13298TIP3    H261386   2.031   5.404   0.081  0.8196  0.5810 -0.3326
13299TIP3   OH261387   0.791   0.631  13.622  0.3511  0.1491 -0.0801
13299TIP3    H161388   0.844   0.705  13.595 -0.0006  0.1272 -0.8587
13299TIP3    H261389   0.831   0.555  13.578 -0.6194  0.2066 -1.1310
13300TIP3   OH261390   5.534   2.979   2.854  0.3604 -0.2237  0.3293
13300TIP3    H161391   5.619   2.959   2.814  1.3698  1.5142  1.4549
13300TIP3    H261392   5.525   3.074   2.843 -0.8244 -0.1952  1.3822
13301TIP3   OH261393   2.024   2.028  15.258  0.4534 -0.4062 -0.2775
13301TIP3    H161394   1.991   1.941  15.281 -0.3562 -0.2765 -0.9144
13301TIP3    H261395   1.972   2.089  15.311 -0.2720 -0.2057 -1.2105
13302TIP3   OH261396   2.776   6.473  12.219  0.0787 -0.2243 -0.0562
13302TIP3    H161397   2.853   6.511  12.178  0.3294  1.0139  1.4256
13302TIP3    H261398   2.759   6.530  12.295 -0.5960 -2.0908  1.2840
13303TIP3   OH261399   5.533   1.358  12.611  0.3317  0.2327  0.0016
13303TIP3    H161400   5.553   1.265  12.605  1.2331  0.4639 -0.8276
13303TIP3    H261401   5.453   1.369  12.560  0.1664 -0.1071  0.1894
13304TIP3   OH261402   2.409   5.556  15.620  0.2110 -0.1153 -0.6134
13304TIP3    H161403   2.468   5.600  15.680  0.8421 -0.8226 -0.6987
13304TIP3    H261404   2.366   5.626  15.571 -0.1650  0.4587  0.5140
13305TIP3   OH261405   6.363   3.447  12.890 -1.0365  0.4196  0.3574
13305TIP3    H161406   6.374   3.424  12.798 -0.2533  1.4604  0.1656
13305TIP3    H261407   6.442   3.415  12.932 -0.8657  0.9526  0.4501
13306TIP3   OH261408   4.038   1.039   2.884 -0.2774 -0.3311  0.2305
13306TIP3    H161409   4.109   1.089   2.844  0.7431 -1.3987  0.6515
13306TIP3    H261410   3.979   1.106   2.921  0.5592  0.5715 -0.0262
13307TIP3   OH261411   2.829   2.852   2.815  0.0094 -0.2675  0.1103
13307TIP3    H161412   2.815   2.832   2.908 -2.0727 -0.4411 -0.1980
13307TIP3    H261413   2.793   2.776   2.769  0.3442  0.1597 -0.8751
13308TIP3   OH261414   3.028   6.744   1.369 -0.2058 -0.8503  0.0052
13308TIP3    H161415   2.947   6.718   1.325  0.0115 -0.5715 -0.5688
13308TIP3    H261416   3.097   6.693   1.325  0.1612  0.2998 -0.8003
13309TIP3   OH261417   0.860   6.619  15.177 -0.0515  0.7992  0.3737
13309TIP3    H161418   0.787   6.630  15.238 -0.7570 -0.7699 -0.1333
13309TIP3    H261419   0.875   6.706  15.141 -1.7393  1.1409  0.4164
13310TIP3   OH261420   2.962   0.691   1.700 -0.3890  0.3984 -0.6001
13310TIP3    H161421   3.055   0.668   1.709 -0.1831  1.7643  1.7393
13310TIP3    H261422   2.915   0.609   1.716  0.4055 -0.1118 -0.8312
13311TIP3   OH261423   4.811   0.384  14.788 -0.4532  0.2225 -0.1956
13311TIP3    H161424   4.767   0.429  14.715 -1.8724  0.5209  0.8207
13311TIP3    H261425   4.767   0.300  14.795  1.9205 -1.3089 -1.8146
13312TIP3   OH261426   1.002   2.375   2.727 -0.2456 -0.3286  0.4033
13312TIP3    H161427   0.942   2.405   2.795 -0.2293 -0.6578  0.5646
13312TIP3    H261428   1.086   2.415   2.751 -0.2128 -0.5420  0.6435
13313TIP3   OH261429   5.341   1.921  10.282  1.1366 -0.1041 -0.5018
13313TIP3    H161430   5.317   2.011  10.261  0.2635 -0.6543 -2.1107
13313TIP3    H261431   5.417   1.928  10.339  0.1303  1.6586  0.7178
13314TIP3   OH261432   0.013   2.982   0.672  0.6337  0.2046 -0.0736
13314TIP3    H161433   0.023   2.919   0.600 -1.6729 -1.0885  0.6287
13314TIP3    H261434   0.078   2.955   0.737  0.6554 -0.5430 -0.3963
13315TIP3   OH261435   2.921   3.323  11.235 -0.3989 -0.2155 -0.3617
13315TIP3    H161436   2.851   3.271  11.195 -0.4660 -0.6255  0.2650
13315TIP3    H261437   2.986   3.333  11.166 -1.0111  0.0474 -0.9045
13316TIP3   OH261438   5.443   0.663  14.179  0.0175  0.7752  0.1771
13316TIP3    H161439   5.504   0.606  14.132 -0.7490 -0.7111  0.9053
13316TIP3    H261440   5.441   0.744  14.128  0.2743 -0.2595 -1.5594
13317TIP3   OH261441   5.329   2.734  11.227 -0.3047  0.1611  0.5761
13317TIP3    H161442   5.416   2.767  11.248  0.2487 -0.5380 -0.5637
13317TIP3    H261443   5.312   2.764  11.138 -0.8664 -0.4632  0.4658
13318TIP3   OH261444   2.329   3.516  16.453 -0.0692  0.6352 -0.6633
13318TIP3    H161445   2.316   3.535  16.360  3.6971 -0.4462 -1.5961
13318TIP3    H261446   2.282   3.434  16.468 -1.9839  1.5894 -1.1354
13319TIP3   OH261447   1.140   6.718   2.823 -0.1755  0.8449 -0.6524
13319TIP3    H161448   1.120   6.694   2.732  1.4708 -0.3911 -0.7454
13319TIP3    H261449   1.156   6.634   2.867 -2.1220  1.3199  1.1366
13320TIP3   OH261450   0.760   2.399   5.122  0.2850 -0.5890  0.4643
13320TIP3    H161451   0.666   2.386   5.123  0.0625  0.8233  0.4429
13320TIP3    H261452   0.795   2.333   5.181 -0.7430 -0.9652  0.6662
13321TIP3   OH261453   3.556   2.315   1.306  0.1409 -0.2989 -0.2517
13321TIP3    H161454   3.531   2.238   1.356  0.2663 -0.6577 -0.7294
13321TIP3    H261455   3.651   2.314   1.306  0.1436 -0.3834 -0.6107
13322TIP3   OH261456   5.239   6.660   1.324 -0.0530  1.1195 -0.1222
13322TIP3    H161457   5.182   6.666   1.247 -1.4765 -0.9424  0.6873
13322TIP3    H261458   5.328   6.664   1.288 -0.6462  3.0439 -1.5500
13323TIP3   OH261459   0.286   6.715  16.917  0.3884 -0.0395 -0.0197
13323TIP3    H161460   0.199   6.678  16.933  0.4455 -0.7088 -1.1390
13323TIP3    H261461   0.295   6.714  16.821  2.1749 -1.3233  0.1065
13324TIP3   OH261462   4.156   1.800   3.593  0.0943 -0.4489  0.1594
13324TIP3    H161463   4.100   1.746   3.538  0.2570 -1.0279  0.5523
13324TIP3    H261464   4.237   1.750   3.602  0.1709 -0.2367  0.6999
13325TIP3   OH261465   1.345   0.650  10.575  0.1826  0.1793 -0.3333
13325TIP3    H161466   1.384   0.575  10.620 -1.5390  0.0618  1.0624
13325TIP3    H261467   1.420   0.699  10.541  1.5926 -0.0469  2.1847
13326TIP3   OH261468   3.153   4.981   1.282 -0.2244 -0.2908  0.3483
13326TIP3    H161469   3.215   5.054   1.286  0.1997 -0.6869  1.2097
13326TIP3    H261470   3.204   4.908   1.247 -0.8756  0.0275 -1.3735
13327TIP3   OH261471   4.187   6.109   0.407 -0.3529  0.4875  0.0606
13327TIP3    H161472   4.102   6.085   0.369 -0.0707 -0.7964  0.2085
13327TIP3    H261473   4.234   6.026   0.414  0.9643  1.2047 -0.1214
13328TIP3   OH261474   4.755   3.136   1.040  0.0781 -0.2813 -1.0032
13328TIP3    H161475   4.677   3.184   1.069 -0.6024 -2.0557  0.2804
13328TIP3    H261476   4.792   3.191   0.971 -1.1417  1.6283 -0.2402
13329TIP3   OH261477   4.526   2.311  14.085 -0.5247  0.2178 -0.1830
13329TIP3    H161478   4.454   2.370  14.106 -1.8863 -1.2965 -0.3657
13329TIP3    H261479   4.536   2.256  14.163  1.4069  1.2555  0.3897
13330TIP3   OH261480   2.866   1.389   6.534 -0.0955  0.3035 -0.3176
13330TIP3    H161481   2.916   1.414   6.611 -1.3511  0.1975  0.5554
13330TIP3    H261482   2.839   1.472   6.495 -0.7561  0.3612  0.2408
13331TIP3   OH261483   1.153   2.989  11.823 -0.1689 -0.0674  0.0507
13331TIP3    H161484   1.127   3.058  11.762  1.2643  0.1899 -0.3148
13331TIP3    H261485   1.104   3.008  11.903  1.1288  2.2202  0.4197
13332TIP3   OH261486   2.544   3.363  10.912  0.1269  0.1631  0.4339
13332TIP3    H161487   2.574   3.324  10.995  0.3442  0.1064  0.3317
13332TIP3    H261488   2.451   3.342  10.908  0.0760  0.3185  0.7489
13333TIP3   OH261489   5.885   3.139   0.783  0.5088 -0.3699  0.5200
13333TIP3    H161490   5.865   3.051   0.752  0.1067 -0.3919  0.8424
13333TIP3    H261491   5.918   3.184   0.705 -0.3512 -0.4702  0.0891
13334TIP3   OH261492   4.317   1.153  12.463 -0.1172  0.0964  0.4701
13334TIP3    H161493   4.334   1.108  12.380  0.2229 -0.0357  0.6121
13334TIP3    H261494   4.259   1.225  12.439  1.6059  1.3114 -0.2363
13335TIP3   OH261495   1.805   3.802  12.561  1.0139  0.3991 -0.4860
13335TIP3    H161496   1.790   3.736  12.628 -1.0779  1.0183 -0.2732
13335TIP3    H261497   1.900   3.798  12.544  1.0313 -2.3418 -0.2244
13336TIP3   OH261498   2.040   3.061  11.781 -0.3574  0.1481 -0.4067
13336TIP3    H161499   2.058   2.974  11.817  0.3648  0.1993 -0.6253
13336TIP3    H261500   2.010   3.044  11.691 -1.0093  0.0886 -0.1870
13337TIP3   OH261501   3.369   4.187   0.670  0.3719 -0.0053  0.0365
13337TIP3    H161502   3.345   4.094   0.662 -0.3673  0.2095 -0.3565
13337TIP3    H261503   3.390   4.199   0.762 -2.3135  0.0690  0.7174
13338TIP3   OH261504   0.214   6.073   4.840 -0.5319  0.1124 -0.7557
13338TIP3    H161505   0.140   6.029   4.798 -0.6383 -0.6763  0.2212
13338TIP3    H261506   0.185   6.086   4.931  1.8507 -3.7511  0.8341
13339TIP3   OH261507   2.401   0.546   2.311 -0.1152  0.2972  0.0780
13339TIP3    H161508   2.367   0.507   2.231 -0.5559  1.0412 -0.1022
13339TIP3    H261509   2.477   0.491   2.334 -1.3927 -1.4060  0.4889
13340TIP3   OH261510   4.471   1.296   4.359 -0.3996 -0.3321 -0.2321
13340TIP3    H161511   4.460   1.272   4.267 -0.5881 -0.3865 -0.1961
13340TIP3    H261512   4.560   1.331   4.364 -0.4434 -0.1877 -0.4638
13341TIP3   OH261513   5.933   1.695  17.035  0.3373 -0.4004 -0.3068
13341TIP3    H161514   5.946   1.722  16.944 -1.6107 -2.7678 -1.4051
13341TIP3    H261515   5.853   1.643  17.033 -0.0409 -0.1404  2.8897
13342TIP3   OH261516   3.108   6.506  11.761  0.1371  0.3588  0.5689
13342TIP3    H161517   3.172   6.514  11.832  1.7128  2.5293 -0.9860
13342TIP3    H261518   3.150   6.546  11.685 -2.1976 -0.2240 -1.1533
13343TIP3   OH261519   2.366   5.233  13.974 -0.1334 -0.4751  0.2648
13343TIP3    H161520   2.310   5.236  13.897  0.3784  1.0563 -0.0779
13343TIP3    H261521   2.441   5.288  13.952  0.2347 -0.3534  1.6879
13344TIP3   OH261522   3.558   0.252  12.140 -0.3436 -1.1333  0.4318
13344TIP3    H161523   3.634   0.299  12.174 -0.1472 -0.7045 -0.5662
13344TIP3    H261524   3.496   0.321  12.115 -1.0558 -1.4749  1.1845
13345TIP3   OH261525   1.919   6.220  11.888  0.2304  0.1069  0.2859
13345TIP3    H161526   1.961   6.141  11.852 -1.4012 -1.0856  0.8878
13345TIP3    H261527   1.974   6.292  11.856  1.8999 -1.2597 -0.1150
13346TIP3   OH261528   2.834   5.806  11.033 -0.1530  0.6013  0.6698
13346TIP3    H161529   2.803   5.730  11.081  1.1823 -0.9397 -0.7730
13346TIP3    H261530   2.795   5.797  10.946 -0.6358  2.0384  0.7134
13347TIP3   OH261531   2.049   0.747  11.808 -0.0411 -0.4801 -0.5152
13347TIP3    H161532   2.112   0.819  11.797 -1.0215  0.7758  1.4327
13347TIP3    H261533   1.968   0.779  11.768 -0.9399  0.2494  1.7379
13348TIP3   OH261534   3.176   0.120   4.890  0.2035  1.1208  0.2824
13348TIP3    H161535   3.224   0.183   4.944  1.3076  0.2660  0.3332
13348TIP3    H261536   3.237   0.047   4.879 -1.1357 -0.0598  0.4533
13349TIP3   OH261537   2.979   5.438   5.308  0.0943 -0.2609  0.3382
13349TIP3    H161538   2.953   5.406   5.221  0.5121 -0.5836  0.3299
13349TIP3    H261539   3.052   5.497   5.290  0.2732 -0.4385  0.4818
13350TIP3   OH261540   5.127   1.581   4.132  0.4866 -0.3927  0.0393
13350TIP3    H161541   5.158   1.671   4.123 -1.2027  0.6641  3.2390
13350TIP3    H261542   5.044   1.588   4.178  1.4294 -3.6481  2.6573
13351TIP3   OH261543   4.396   5.090  15.166 -0.1226 -0.0292  0.0186
13351TIP3    H161544   4.470   5.147  15.184 -2.0193  2.4623  0.4442
13351TIP3    H261545   4.388   5.091  15.070  0.0274  0.1956  0.0065
13352TIP3   OH261546   2.185   4.040  14.652 -0.1553  0.1964  0.1678
13352TIP3    H161547   2.130   4.105  14.608  0.3355  0.5234  0.0303
13352TIP3    H261548   2.149   4.034  14.741  1.2450  2.4575  0.9718
13353TIP3   OH261549   1.088   1.332   5.323 -0.5498  0.0538  0.1992
13353TIP3    H161550   1.061   1.296   5.408  1.0368  0.5741  0.9631
13353TIP3    H261551   1.160   1.275   5.295 -0.5197  0.3812 -0.4002
13354TIP3   OH261552   4.306   2.790   0.010  0.1953  0.2721 -0.0150
13354TIP3    H161553   4.281   2.717   0.067  2.1334  0.7780  1.6230
13354TIP3    H261554   4.385   2.827   0.051  0.8866  1.5699 -2.2971
13355TIP3   OH261555   1.296   3.966  14.561 -0.1217  0.0504  0.1860
13355TIP3    H161556   1.291   4.027  14.488 -0.6308 -0.8065 -0.5180
13355TIP3    H261557   1.385   3.931  14.557  0.4679  1.3820  1.1416
13356TIP3   OH261558   2.174   1.781  12.020  0.1808  0.0602  0.1601
13356TIP3    H161559   2.147   1.755  11.932 -0.7709 -1.0108  0.7509
13356TIP3    H261560   2.093   1.786  12.070  0.6929  0.8283  0.9501
13357TIP3   OH261561   1.691   6.791  15.886 -0.7529  0.1453  0.2918
13357TIP3    H161562   1.784   6.808  15.900 -0.3784  2.5108 -3.5800
13357TIP3    H261563   1.646   6.845  15.951  0.6392  1.7633 -0.0322
13358TIP3   OH261564   4.296   0.205   3.174 -0.0949 -0.1502 -0.1293
13358TIP3    H161565   4.227   0.218   3.238 -0.3288 -2.2411  0.1094
13358TIP3    H261566   4.296   0.285   3.121 -1.1088  0.8425  1.3265
13359TIP3   OH261567   4.119   3.166  12.936 -0.0092  0.0522  0.5989
13359TIP3    H161568   4.039   3.142  12.983 -0.7479  1.4013  0.0763
13359TIP3    H261569   4.108   3.259  12.915  1.1075 -0.0721 -0.6629
13360TIP3   OH261570   3.591   3.149   2.547  0.8891 -0.0856  0.2461
13360TIP3    H161571   3.496   3.163   2.551  0.4349 -1.9579 -1.7380
13360TIP3    H261572   3.624   3.184   2.629 -1.2587  2.3451  0.2204
13361TIP3   OH261573   2.344   5.616  15.272  0.2087 -0.5205 -0.1494
13361TIP3    H161574   2.418   5.654  15.320  0.3278 -2.4198  1.2918
13361TIP3    H261575   2.284   5.689  15.258  1.1005  0.5115  1.1666
13362TIP3   OH261576   5.172   1.122  11.741  0.4372 -0.1948 -0.4479
13362TIP3    H161577   5.248   1.089  11.694  0.5513  0.0369 -0.4250
13362TIP3    H261578   5.157   1.209  11.704 -0.0820 -0.4143 -0.7648
13363TIP3   OH261579   5.807   2.654   1.055  0.1997 -0.7925  0.2218
13363TIP3    H161580   5.778   2.612   1.136 -0.3181 -2.4608 -0.7866
13363TIP3    H261581   5.848   2.584   1.005 -1.1973 -0.2502 -1.7843
13364TIP3   OH261582   3.769   2.079   1.515  0.4808  0.0621  0.4114
13364TIP3    H161583   3.767   2.136   1.592 -1.3290  1.8788 -0.8959
13364TIP3    H261584   3.681   2.042   1.510  1.2197 -1.8465  0.4281
13365TIP3   OH261585   1.825   6.321  12.898 -0.0962 -0.3892  0.1198
13365TIP3    H161586   1.906   6.304  12.945  0.0449 -0.7496 -0.2419
13365TIP3    H261587   1.758   6.326  12.966 -0.0983 -2.1112  0.2985
13366TIP3   OH261588   6.818   2.559   3.646  0.3562 -0.9249 -0.2933
13366TIP3    H161589   6.724   2.573   3.638  0.3967 -0.6726 -0.3620
13366TIP3    H261590   6.827   2.467   3.670  0.0807 -0.8938 -0.0606
13367TIP3   OH261591   0.566   3.645   2.049 -0.2587 -0.0812 -0.5131
13367TIP3    H161592   0.609   3.612   1.971  1.0828 -1.2030  0.6307
13367TIP3    H261593   0.573   3.573   2.112 -2.0877  0.4427  0.3734
13368TIP3   OH261594   0.275   1.351   1.031  0.5401  0.0904 -0.0604
13368TIP3    H161595   0.195   1.404   1.039  0.2575 -0.2795 -0.3992
13368TIP3    H261596   0.268   1.311   0.944  1.1550  0.1534 -0.1391
13369TIP3   OH261597   0.161   0.997  10.674 -0.5060  0.1530  0.0413
13369TIP3    H161598   0.212   1.022  10.597  1.8801 -2.2375  0.7353
13369TIP3    H261599   0.081   1.050  10.668  1.4840  3.2346 -1.7258
13370TIP3   OH261600   0.208   1.907   0.477  0.0837  0.2467 -0.1467
13370TIP3    H161601   0.175   1.897   0.388  0.7525  2.3528 -0.6970
13370TIP3    H261602   0.173   1.991   0.507  0.1097 -0.2844  1.4848
13371TIP3   OH261603   0.878   3.660  11.327 -0.2706  0.1390 -0.2887
13371TIP3    H161604   0.879   3.738  11.272 -1.3237  0.9933  0.8370
13371TIP3    H261605   0.966   3.655  11.364  0.0163  0.3854 -0.9268
13372TIP3   OH261606   5.176   6.501  13.721 -0.4347 -0.1989 -0.0656
13372TIP3    H161607   5.146   6.432  13.780 -0.5320  0.9810  1.3137
13372TIP3    H261608   5.251   6.463  13.676 -1.0533 -1.5194 -0.0345
13373TIP3   OH261609   6.643   3.999   0.927 -0.3737  0.1644  0.9308
13373TIP3    H161610   6.703   3.989   0.853 -0.3826  0.8197  0.8267
13373TIP3    H261611   6.643   3.914   0.970 -0.1426 -0.1367  0.3442
13374TIP3   OH261612   0.914   4.241   5.632 -0.2261  0.3702 -0.1023
13374TIP3    H161613   0.881   4.196   5.710 -0.3920  0.8844  0.1311
13374TIP3    H261614   0.836   4.278   5.592 -0.0347  0.8980  0.0012
13375TIP3   OH261615   4.482   3.106  13.920  0.3619 -0.2614 -0.1579
13375TIP3    H161616   4.546   3.040  13.944  1.1757  0.3887 -0.4723
13375TIP3    H261617   4.496   3.121  13.827  0.3867  0.5346 -0.0405
13376TIP3   OH261618   1.377   4.828  16.434  0.3162 -0.4644 -0.0074
13376TIP3    H161619   1.429   4.874  16.367  0.5234  0.6969  0.9077
13376TIP3    H261620   1.326   4.764  16.385  0.0159  0.7548 -1.3688
13377TIP3   OH261621   5.781   5.676   5.809 -0.1981 -0.5028 -0.4539
13377TIP3    H161622   5.768   5.668   5.714 -0.3399 -0.5666 -0.4283
13377TIP3    H261623   5.766   5.588   5.843 -1.0276 -0.2969 -0.2633
13378TIP3   OH261624   3.356   3.644   4.126 -0.2382 -0.3053 -0.6314
13378TIP3    H161625   3.359   3.594   4.045  0.5970 -1.8411  0.2959
13378TIP3    H261626   3.319   3.583   4.190  0.1045  0.5268  0.3859
13379TIP3   OH261627   6.815   5.295   4.236 -0.1139  0.1824 -0.0002
13379TIP3    H161628   6.798   5.282   4.142 -0.4900 -0.0734  0.0982
13379TIP3    H261629   6.911   5.296   4.243 -0.0640 -0.9610 -0.2459
13380TIP3   OH261630   6.038   3.770  16.004  0.3998  0.0173 -0.2417
13380TIP3    H161631   5.961   3.763  16.060  1.2493  1.3481  1.1583
13380TIP3    H261632   6.058   3.863  16.002  1.0395 -0.1200 -1.9047
13381TIP3   OH261633   4.305   0.010  11.590  0.5976  0.4084  0.7544
13381TIP3    H161634   4.255   0.091  11.604  0.6624  0.9333 -1.6106
13381TIP3    H261635   4.248  -0.044  11.536  0.6602 -1.0918  2.1063
13382TIP3   OH261636   6.151   4.951  12.353  0.1274  0.0836  0.1368
13382TIP3    H161637   6.064   4.927  12.322  0.1251 -0.7534  0.7549
13382TIP3    H261638   6.156   4.916  12.442  0.9562  0.4501  0.2501
13383TIP3   OH261639   3.271   2.235   1.768  0.1927  0.7600 -0.6999
13383TIP3    H161640   3.360   2.259   1.744  0.4858  0.6159  0.2052
13383TIP3    H261641   3.254   2.154   1.718  1.7401 -1.0057  1.4468
13384TIP3   OH261642   1.654   2.471  16.752  0.1721  0.6653 -0.3130
13384TIP3    H161643   1.728   2.478  16.691 -0.0196  0.9441 -0.5155
13384TIP3    H261644   1.666   2.387  16.794  0.3409  0.4943 -0.6964
13385TIP3   OH261645   2.771   5.685   6.331 -0.1005  0.2353 -0.0984
13385TIP3    H161646   2.834   5.729   6.388 -0.8198 -0.1265  1.0005
13385TIP3    H261647   2.701   5.750   6.318 -0.8140 -0.2945  0.9390
13386TIP3   OH261648   5.637   5.204   4.746  0.1305 -0.0201  0.4119
13386TIP3    H161649   5.708   5.242   4.693  0.6503 -1.3067  0.1374
13386TIP3    H261650   5.559   5.213   4.692  0.7128 -1.6358 -0.8067
13387TIP3   OH261651   6.549   1.120  11.928 -0.4494  0.5385 -0.4117
13387TIP3    H161652   6.463   1.094  11.960  0.2654 -0.6645  0.6781
13387TIP3    H261653   6.595   1.037  11.913  0.1900  1.1417 -1.9406
13388TIP3   OH261654   2.945   2.804  12.789  0.6535 -0.5210 -0.3931
13388TIP3    H161655   2.878   2.744  12.757  1.2381 -1.1387 -0.4997
13388TIP3    H261656   2.911   2.837  12.872 -0.1725 -0.1333 -0.8779
13389TIP3   OH261657   5.526   0.333  13.566  0.0210 -0.3420  0.6398
13389TIP3    H161658   5.513   0.272  13.639 -1.5574 -0.6650  0.1121
13389TIP3    H261659   5.568   0.281  13.498 -0.6938 -0.6762  0.4471
13390TIP3   OH261660   2.463   5.896  15.108  0.0814  0.3052  0.1556
13390TIP3    H161661   2.515   5.834  15.057  1.5408  0.0164  1.8836
13390TIP3    H261662   2.382   5.848  15.128  0.6465 -0.5824  0.3799
13391TIP3   OH261663   3.360   3.527   1.980  0.1704  0.1850 -0.0514
13391TIP3    H161664   3.389   3.584   2.051 -1.1571  0.0837  0.6128
13391TIP3    H261665   3.265   3.522   1.991  0.0044 -0.3466 -1.4597
13392TIP3   OH261666   6.509   2.096  13.278 -0.3833  0.3586  0.1910
13392TIP3    H161667   6.425   2.125  13.315 -0.5783 -0.6239  0.5512
13392TIP3    H261668   6.542   2.033  13.341 -0.7054 -1.3443 -1.2694
13393TIP3   OH261669   6.649   5.693   1.319 -0.0126 -0.3930 -0.2466
13393TIP3    H161670   6.673   5.691   1.226  3.6548  0.1343  0.5458
13393TIP3    H261671   6.652   5.785   1.343 -1.1614 -0.5001  0.4235
13394TIP3   OH261672   2.471   2.652   4.942  0.1887  0.6656  0.1924
13394TIP3    H161673   2.553   2.688   4.976 -0.6992  1.6975  1.3291
13394TIP3    H261674   2.459   2.570   4.989  0.2299  0.8414  0.5075
13395TIP3   OH261675   2.630   5.923  14.599 -0.2219  0.0631 -0.0685
13395TIP3    H161676   2.719   5.958  14.611  0.1202 -0.8463  0.1676
13395TIP3    H261677   2.623   5.908  14.504 -0.3367  0.6844 -0.1565
13396TIP3   OH261678   1.446   2.066  13.070 -0.2902  0.3263 -0.0861
13396TIP3    H161679   1.467   1.975  13.045 -0.7282  0.1569  0.1612
13396TIP3    H261680   1.457   2.068  13.165  1.1193  0.9059 -0.2341
13397TIP3   OH261681   2.122   4.828  12.339 -0.4750  0.5113  0.2118
13397TIP3    H161682   2.064   4.789  12.405  1.0036  0.4593  1.5258
13397TIP3    H261683   2.210   4.804  12.367  0.2035  0.2848 -1.9352
13398TIP3   OH261684   3.862   1.921   5.238 -0.4296 -0.5583 -0.0763
13398TIP3    H161685   3.783   1.940   5.187 -0.9988  2.6367  1.7724
13398TIP3    H261686   3.933   1.965   5.190 -0.4702 -0.0396  0.3328
13399TIP3   OH261687   4.498   5.641  12.894  0.5513 -0.2385  0.3446
13399TIP3    H161688   4.567   5.691  12.852  0.5697 -1.1402 -0.7534
13399TIP3    H261689   4.493   5.560  12.843 -1.4433 -0.1224  0.2656
13400TIP3   OH261690   2.683   6.124  11.466 -0.4299  0.1403  0.4197
13400TIP3    H161691   2.742   6.056  11.498  0.5098  0.8159  0.1820
13400TIP3    H261692   2.736   6.175  11.404 -1.6301  0.0401 -0.7268
13401TIP3   OH261693   6.305   3.060  16.453  0.2402  0.1482 -0.1881
13401TIP3    H161694   6.298   2.974  16.494 -1.0979 -0.4996 -1.7090
13401TIP3    H261695   6.399   3.079  16.454  0.3863 -0.4289  1.8982
13402TIP3   OH261696   0.091   0.190   4.046 -0.1221 -0.3104 -0.0537
13402TIP3    H161697   0.100   0.269   4.100  1.9842  0.0769 -0.8639
13402TIP3    H261698   0.096   0.118   4.109 -1.3774  0.1719  0.6240
13403TIP3   OH261699   5.770   3.453  16.830  0.4347 -0.4249 -0.1769
13403TIP3    H161700   5.694   3.396  16.821 -0.5156  0.8698 -0.7777
13403TIP3    H261701   5.734   3.542  16.824  2.0775  0.2175 -1.2885
13404TIP3   OH261702   0.660   4.091  14.245 -0.1247  0.4122 -0.3819
13404TIP3    H161703   0.701   4.033  14.180  1.4931  0.5768  0.4242
13404TIP3    H261704   0.724   4.161  14.258 -0.0714  0.0262  1.8482
13405TIP3   OH261705   1.717   5.089   1.075  0.3390 -0.3515  0.0058
13405TIP3    H161706   1.660   5.061   1.147  0.6937 -0.8957  0.0745
13405TIP3    H261707   1.720   5.185   1.084 -1.5114 -0.1830 -0.7178
13406TIP3   OH261708   6.595   5.376  11.112  0.1730  0.5403  0.1118
13406TIP3    H161709   6.583   5.285  11.085 -0.1667  0.5073  0.3687
13406TIP3    H261710   6.518   5.396  11.164 -0.3824  1.3884 -1.0132
13407TIP3   OH261711   1.320   4.713  14.494  0.1782 -0.2354  0.5001
13407TIP3    H161712   1.354   4.744  14.578 -0.6087 -0.6583  0.9904
13407TIP3    H261713   1.286   4.625  14.513  0.8497 -0.7242 -0.4770
13408TIP3   OH261714   1.943   4.295  10.762 -0.0628  0.4409 -0.3111
13408TIP3    H161715   1.918   4.311  10.853  1.6187 -1.9189  0.6701
13408TIP3    H261716   2.037   4.311  10.759 -0.1963  1.1246 -1.8346
13409TIP3   OH261717   2.941   4.027   3.822  0.0294 -0.1314  0.4376
13409TIP3    H161718   2.880   3.953   3.818  2.2036 -2.0012 -1.0868
13409TIP3    H261719   3.024   3.991   3.790  0.6902  3.5532 -2.7255
13410TIP3   OH261720   2.225   3.190  11.965 -0.0698 -0.5530  0.3252
13410TIP3    H161721   2.146   3.139  11.948  0.1370 -1.3593  1.6382
13410TIP3    H261722   2.211   3.273  11.918 -1.6061 -0.7474  0.3924
13411TIP3   OH261723   0.924   4.158  15.354  0.2855 -0.1990 -0.8626
13411TIP3    H161724   1.018   4.146  15.367  0.2162 -0.6476 -0.7529
13411TIP3    H261725   0.894   4.201  15.434  0.2713 -0.7421 -0.5756
13412TIP3   OH261726   1.870   6.701  15.050  0.1742  0.7131  0.3864
13412TIP3    H161727   1.954   6.671  15.084  0.0192 -0.3940 -0.1684
13412TIP3    H261728   1.806   6.643  15.091 -0.1242  0.2237 -0.7439
13413TIP3   OH261729   6.852   4.723  11.569 -0.2470 -0.5353  0.3012
13413TIP3    H161730   6.857   4.807  11.616  0.5355  0.9476 -2.1959
13413TIP3    H261731   6.784   4.737  11.504  0.1501 -1.7086 -0.3829
13414TIP3   OH261732   3.407   3.492   4.518 -0.5026  0.4826 -0.3803
13414TIP3    H161733   3.489   3.541   4.511  0.0398 -0.3291  0.0651
13414TIP3    H261734   3.341   3.558   4.538 -0.0909  1.2494 -1.4380
13415TIP3   OH261735   2.898   6.006  16.788  0.0215  0.7388 -0.1929
13415TIP3    H161736   2.930   6.069  16.725 -1.1751  0.7835 -0.7825
13415TIP3    H261737   2.977   5.967  16.826  0.7536  1.6204 -0.7878
13416TIP3   OH261738   4.306   0.007  10.472 -0.3746 -0.4635 -0.6572
13416TIP3    H161739   4.339  -0.079  10.446 -0.7291 -1.1296  0.9338
13416TIP3    H261740   4.384   0.058  10.492 -0.1889 -0.7054 -0.7658
13417TIP3   OH261741   3.861   1.175  13.764  0.2733 -0.1291  0.1876
13417TIP3    H161742   3.834   1.150  13.852  0.6317 -0.2578  0.2594
13417TIP3    H261743   3.778   1.188  13.716  0.0863 -0.4638  0.4239
13418TIP3   OH261744   0.850   5.451   2.266 -0.4711  0.1968 -0.2365
13418TIP3    H161745   0.820   5.375   2.316 -0.6786 -0.1855 -0.9282
13418TIP3    H261746   0.945   5.451   2.277 -0.5294  0.1978  0.2671
13419TIP3   OH261747   2.365   5.604   6.398  0.3722  0.1461  0.2017
13419TIP3    H161748   2.323   5.668   6.341 -0.0974 -0.4575 -0.1397
13419TIP3    H261749   2.299   5.536   6.410 -0.1130  0.9478  2.6758
13420TIP3   OH261750   6.501   6.082   1.654  0.9072 -0.1495 -0.1649
13420TIP3    H161751   6.417   6.122   1.676  1.5020  0.3199  1.3584
13420TIP3    H261752   6.545   6.071   1.738  2.2737 -0.6123 -0.9155
13421TIP3   OH261753   5.258   3.064   2.009  0.2029 -0.2652 -0.4006
13421TIP3    H161754   5.263   3.111   2.092  0.2546  0.2584 -0.6879
13421TIP3    H261755   5.251   2.972   2.032 -0.3906 -0.0760  0.1873
13422TIP3   OH261756   5.282   4.354   3.012  0.3578 -0.0970 -0.2928
13422TIP3    H161757   5.238   4.338   2.929  0.5986 -2.3049 -0.0706
13422TIP3    H261758   5.314   4.444   3.006 -0.1558 -0.0062 -2.3248
13423TIP3   OH261759   5.106   3.622  14.759 -0.0965 -0.2513  0.1475
13423TIP3    H161760   5.088   3.600  14.667 -0.2092 -2.5330  0.6461
13423TIP3    H261761   5.020   3.626  14.800  0.0170 -0.6504  0.4283
13424TIP3   OH261762   6.570   1.899   6.326  0.5357 -0.0921  0.3208
13424TIP3    H161763   6.588   1.875   6.235  0.2972  0.9925 -0.0294
13424TIP3    H261764   6.476   1.919   6.327  1.0072  2.5051  0.1442
13425TIP3   OH261765   2.007   0.734  13.336 -0.2370 -0.0938 -0.0707
13425TIP3    H161766   1.998   0.766  13.246 -0.5311  0.0889  0.0218
13425TIP3    H261767   1.920   0.701  13.358 -0.2739  0.2428  0.2941
13426TIP3   OH261768   3.548   5.580  10.497 -0.2343 -0.3192  0.8348
13426TIP3    H161769   3.643   5.576  10.500 -0.2331 -0.9680  0.1677
13426TIP3    H261770   3.519   5.546  10.582  0.1315  0.2930  1.2069
13427TIP3   OH261771   0.658   2.621   4.947 -0.0312 -0.0421 -0.3023
13427TIP3    H161772   0.692   2.644   4.861  0.2600 -1.3685 -0.5706
13427TIP3    H261773   0.734   2.590   4.996 -0.4126 -0.6032 -0.0421
13428TIP3   OH261774   2.308   1.419   0.451 -0.2293 -0.1204  0.0072
13428TIP3    H161775   2.289   1.402   0.543 -1.8968 -0.5230 -0.3680
13428TIP3    H261776   2.315   1.514   0.445 -1.5650  0.0200  0.3276
13429TIP3   OH261777   4.713   5.426  16.542  0.0847 -0.0988 -0.4148
13429TIP3    H161778   4.729   5.334  16.520  1.7091  0.0463  0.0727
13429TIP3    H261779   4.775   5.475  16.489 -1.7586  0.8773 -1.7852
13430TIP3   OH261780   1.626   0.241   1.273 -0.0945 -0.3736  0.0439
13430TIP3    H161781   1.541   0.206   1.245 -0.2494 -1.4016  1.6972
13430TIP3    H261782   1.605   0.320   1.321 -0.0003  0.0619 -0.6121
13431TIP3   OH261783   3.341   2.616   0.327 -0.0735 -0.9706 -0.1339
13431TIP3    H161784   3.344   2.553   0.255 -0.6768 -0.4160 -0.6545
13431TIP3    H261785   3.432   2.624   0.356  0.2723 -0.7287 -1.2477
13432TIP3   OH261786   2.386   6.171  16.307  0.5039  0.4183  0.0441
13432TIP3    H161787   2.356   6.260  16.329 -2.2825 -0.1683 -0.9431
13432TIP3    H261788   2.467   6.184  16.258  1.2405  2.2660  1.6187
13433TIP3   OH261789   2.347   6.331  11.678  0.2036  1.1000 -0.0533
13433TIP3    H161790   2.357   6.288  11.593  0.5550  0.4796  0.2947
13433TIP3    H261791   2.422   6.301  11.729 -1.0616 -0.1873  1.1677
13434TIP3   OH261792   0.492   1.236   1.757  0.0113  0.3667  0.1927
13434TIP3    H161793   0.402   1.266   1.771 -0.3974 -1.2193  1.3075
13434TIP3    H261794   0.536   1.310   1.716 -1.2256  2.0150  1.6585
13435TIP3   OH261795   4.456   3.538   4.678  0.2437  0.1624 -0.4100
13435TIP3    H161796   4.386   3.572   4.734 -0.0027 -2.0760  0.7589
13435TIP3    H261797   4.436   3.444   4.670  2.4340 -0.2899 -1.0641
13436TIP3   OH261798   0.766   4.995  11.719 -0.0976 -0.5847 -0.0380
13436TIP3    H161799   0.831   4.924  11.723  0.1458 -0.3360  0.4240
13436TIP3    H261800   0.708   4.969  11.648  0.4722 -0.8404 -0.4183
13437TIP3   OH261801   2.811   1.864  14.446  0.0442 -0.1822  0.1874
13437TIP3    H161802   2.722   1.849  14.477  1.2859 -1.2744  3.6867
13437TIP3    H261803   2.852   1.777  14.449  1.5788  0.4997 -0.1371
13438TIP3   OH261804   0.581   0.137   4.716  0.1702  0.2549 -0.0344
13438TIP3    H161805   0.586   0.129   4.811  1.0865 -2.1968 -0.2131
13438TIP3    H261806   0.491   0.113   4.694 -0.2601  1.5488  0.2238
13439TIP3   OH261807   0.870   3.487  15.948  0.3805 -0.5626 -0.1903
13439TIP3    H161808   0.877   3.394  15.971 -0.0075 -0.7749 -0.9151
13439TIP3    H261809   0.842   3.488  15.857 -1.0129  0.2490  0.2070
13440TIP3   OH261810   0.362   2.181  11.096 -0.0897  0.9365  0.6140
13440TIP3    H161811   0.338   2.200  11.187 -0.0235  0.6317  0.6936
13440TIP3    H261812   0.447   2.137  11.102 -0.7027 -0.2948  0.4946
13441TIP3   OH261813   6.647   2.274  14.755 -0.5912 -0.0887  0.2326
13441TIP3    H161814   6.576   2.312  14.704 -0.4812 -0.5642 -0.2955
13441TIP3    H261815   6.655   2.331  14.831  1.4816  2.7679 -1.8663
13442TIP3   OH261816   5.338   5.522   5.178  0.6862  0.0809 -0.0162
13442TIP3    H161817   5.431   5.536   5.162  0.3279  0.6504 -1.8232
13442TIP3    H261818   5.314   5.450   5.119 -0.2646  0.7893 -0.5275
13443TIP3   OH261819   6.473   4.310   4.887  0.2820  0.4066 -0.2215
13443TIP3    H161820   6.427   4.327   4.969  1.2555 -0.2264  0.4736
13443TIP3    H261821   6.501   4.218   4.894  1.6539  0.7726 -0.6026
13444TIP3   OH261822   2.265   2.212  12.701  0.5450 -0.0084  0.3654
13444TIP3    H161823   2.200   2.148  12.675  2.5650 -2.0383  0.0156
13444TIP3    H261824   2.214   2.288  12.730 -1.9121 -1.2976 -0.3264
13445TIP3   OH261825   3.494   1.720  16.840 -0.4030 -0.0187  0.5243
13445TIP3    H161826   3.444   1.643  16.814  1.6476 -0.2447 -3.6709
13445TIP3    H261827   3.447   1.793  16.799  0.5331  0.2241 -0.1492
13446TIP3   OH261828   2.799   4.951   4.462 -0.4127 -0.5940  0.0633
13446TIP3    H161829   2.853   4.907   4.528  1.8236  1.1159 -0.5040
13446TIP3    H261830   2.714   4.907   4.467  0.1383 -1.5296  2.9908
13447TIP3   OH261831   5.867   0.492   4.418 -0.2859 -0.6796  0.1230
13447TIP3    H161832   5.857   0.419   4.357  0.5614 -0.1597 -0.6697
13447TIP3    H261833   5.953   0.479   4.457  0.0182  0.0809 -0.2813
13448TIP3   OH261834   2.446   5.537   1.810  0.2825 -0.0705  0.0811
13448TIP3    H161835   2.432   5.632   1.806 -1.5387 -0.2853  0.5946
13448TIP3    H261836   2.360   5.499   1.795  0.8283 -1.6339  0.6794
13449TIP3   OH261837   5.473   5.153  15.622 -0.5181 -0.2924  0.1987
13449TIP3    H161838   5.424   5.164  15.703  0.6303  0.4794  0.8176
13449TIP3    H261839   5.550   5.209  15.632 -0.7222  0.4345 -1.7450
13450TIP3   OH261840   4.785   3.852   5.171  0.3683 -0.4437  0.3055
13450TIP3    H161841   4.714   3.914   5.189  0.1821 -0.4700 -0.3175
13450TIP3    H261842   4.794   3.853   5.076 -1.3760 -3.2427  0.0076
13451TIP3   OH261843   3.225   3.267   0.847  0.5186 -0.0962 -0.1419
13451TIP3    H161844   3.142   3.314   0.832 -1.0684 -2.6565  0.0644
13451TIP3    H261845   3.227   3.199   0.780  1.0523 -1.8164  1.5324
13452TIP3   OH261846   2.138   6.270  16.888  0.0994  0.0226 -0.7931
13452TIP3    H161847   2.090   6.351  16.871 -0.2909  0.1963  0.9437
13452TIP3    H261848   2.179   6.284  16.973 -0.3487 -1.7623 -0.2455
13453TIP3   OH261849   4.725   5.044  14.159 -0.0116 -0.0976  0.2860
13453TIP3    H161850   4.776   4.995  14.094 -0.2759 -0.6243  0.4666
13453TIP3    H261851   4.677   5.109  14.108 -0.3698 -0.6387 -0.0715
13454TIP3   OH261852   6.502   4.816  10.909 -0.0615  0.4622  0.0593
13454TIP3    H161853   6.495   4.884  10.842  0.2329  0.9997  0.5694
13454TIP3    H261854   6.593   4.789  10.907  0.7574  2.7374  2.3985
13455TIP3   OH261855   5.511   3.451   5.162  0.0282  0.0866 -0.0841
13455TIP3    H161856   5.419   3.477   5.158 -0.1824 -0.7460 -1.4001
13455TIP3    H261857   5.512   3.363   5.123  1.1220 -0.6631  1.5470
13456TIP3   OH261858   3.405   6.550   5.499 -0.5325  0.8807  0.3414
13456TIP3    H161859   3.484   6.498   5.512 -2.0990 -1.9289 -0.5598
13456TIP3    H261860   3.436   6.630   5.456  1.7857 -0.2491 -0.2361
13457TIP3   OH261861   2.843   4.107  11.742  0.8124  0.0095 -0.8800
13457TIP3    H161862   2.933   4.137  11.752  0.5111  1.0679 -1.2055
13457TIP3    H261863   2.791   4.187  11.733 -0.2709 -0.5512  0.0989
13458TIP3   OH261864   0.605   2.904  10.855 -0.3136 -0.1328 -0.3131
13458TIP3    H161865   0.530   2.857  10.817  1.2110 -0.6813 -2.8639
13458TIP3    H261866   0.650   2.838  10.909  0.3307 -0.8908 -1.7345
13459TIP3   OH261867   5.011   3.146  14.362 -0.5137  0.2090 -0.2548
13459TIP3    H161868   5.043   3.236  14.370 -5.4721  2.1985  0.8677
13459TIP3    H261869   5.056   3.099  14.431  3.0432  1.3685 -1.5487
13460TIP3   OH261870   3.745   3.228   2.312 -0.0689  0.5197  0.0058
13460TIP3    H161871   3.824   3.269   2.346  0.9768 -1.8925  0.7500
13460TIP3    H261872   3.710   3.179   2.387 -1.4734  0.4190 -0.6879
13461TIP3   OH261873   2.924   1.910  16.018  0.3411  0.0308  0.1736
13461TIP3    H161874   3.018   1.896  16.034  0.5905  1.2715 -0.1236
13461TIP3    H261875   2.886   1.916  16.105  0.8670  1.5198  0.3245
13462TIP3   OH261876   4.437   3.337   2.565  0.3588  0.0229  0.0405
13462TIP3    H161877   4.419   3.300   2.651 -0.3641  2.6577  1.1438
13462TIP3    H261878   4.527   3.311   2.545 -0.0881 -2.1630  0.6974
13463TIP3   OH261879   6.440   1.721   4.312  0.8259 -0.3209  0.4486
13463TIP3    H161880   6.415   1.636   4.349 -0.4992 -0.5584 -0.8885
13463TIP3    H261881   6.371   1.781   4.340  0.3487 -0.2881 -0.7248
13464TIP3   OH261882   4.795   4.710   1.253 -0.5204  0.1510 -0.1719
13464TIP3    H161883   4.861   4.712   1.321  1.1559 -1.5949 -1.6546
13464TIP3    H261884   4.739   4.635   1.274  0.5097 -0.9138 -1.1123
13465TIP3   OH261885   0.154   3.510  13.420  0.3553 -0.1154  0.3152
13465TIP3    H161886   0.205   3.443  13.374  0.3084 -0.6297  0.9988
13465TIP3    H261887   0.068   3.469  13.434  1.2604 -1.2190  3.5742
13466TIP3   OH261888   1.600   2.900  13.910 -0.1312 -0.2506  0.2166
13466TIP3    H161889   1.525   2.944  13.869 -1.2413 -1.4809  0.8251
13466TIP3    H261890   1.640   2.851  13.839 -1.2988 -1.3860  0.3004
13467TIP3   OH261891   0.369   3.807   2.954  0.3851 -0.2770 -0.0745
13467TIP3    H161892   0.343   3.719   2.929 -2.2107 -0.0664  1.5550
13467TIP3    H261893   0.352   3.812   3.048  1.2031  1.7309  0.0264
13468TIP3   OH261894   4.082   4.156   5.017  0.4163  0.3015 -0.2368
13468TIP3    H161895   4.141   4.162   4.942 -0.5101 -1.7198 -1.2010
13468TIP3    H261896   4.067   4.062   5.029 -0.2166  0.6146  1.9076
13469TIP3   OH261897   4.935   2.425  16.985 -0.9144  0.6021 -0.2419
13469TIP3    H161898   4.966   2.363  17.051  1.0788  0.5197 -1.1796
13469TIP3    H261899   4.846   2.396  16.965 -1.0457 -0.2067  1.3938
13470TIP3   OH261900   2.415   5.715   4.998 -0.0874 -0.2844 -0.3193
13470TIP3    H161901   2.482   5.781   5.016 -1.1998  0.6884  0.4153
13470TIP3    H261902   2.364   5.752   4.926  0.7281 -1.4700 -1.5591
13471TIP3   OH261903   2.646   5.899  16.695  0.0323 -0.2869 -0.6875
13471TIP3    H161904   2.700   5.944  16.759  0.7502 -3.1502  0.9005
13471TIP3    H261905   2.694   5.908  16.612  1.7542 -0.7254  0.2230
13472TIP3   OH261906   6.109   4.294  11.279  0.0034 -0.4829 -0.1050
13472TIP3    H161907   6.035   4.276  11.338 -0.4112 -1.8683 -1.0006
13472TIP3    H261908   6.109   4.221  11.218  1.6659 -0.1020 -0.6056
13473TIP3   OH261909   0.395   1.806   3.522 -0.0895  0.1069  0.2389
13473TIP3    H161910   0.469   1.746   3.535 -1.5542 -1.7595  0.3049
13473TIP3    H261911   0.352   1.810   3.607 -1.8788 -1.3895 -0.5374
13474TIP3   OH261912   3.468   2.570  14.019 -0.2388 -0.0045  0.8585
13474TIP3    H161913   3.405   2.628  13.977 -0.0973 -0.8965 -0.6411
13474TIP3    H261914   3.426   2.545  14.102 -1.9176 -0.6680 -0.1511
13475TIP3   OH261915   0.755   2.731   5.688  0.4937  0.3083 -0.0501
13475TIP3    H161916   0.765   2.744   5.782 -1.5813  0.1806  0.2406
13475TIP3    H261917   0.809   2.799   5.648  1.3658  0.4001  1.2173
13476TIP3   OH261918   4.985   5.845  16.224 -0.3512 -0.8047 -0.0446
13476TIP3    H161919   4.953   5.931  16.196  1.0212  0.0362  0.8434
13476TIP3    H261920   4.910   5.804  16.266 -1.1037 -0.1572 -0.7157
13477TIP3   OH261921   1.368   6.855  15.498 -0.2584 -0.2747  0.2410
13477TIP3    H161922   1.456   6.891  15.494  0.4526 -1.8650  0.5752
13477TIP3    H261923   1.331   6.871  15.410  0.2937  0.5206  0.1451
13478TIP3   OH261924   5.378   5.757   4.993 -0.7517  0.2246 -0.0187
13478TIP3    H161925   5.388   5.684   5.054 -2.5162 -0.2162 -0.2220
13478TIP3    H261926   5.465   5.767   4.953 -0.2628 -1.1839  0.6520
13479TIP3   OH261927   1.495   6.440   4.840 -0.3455  0.2770 -0.3718
13479TIP3    H161928   1.546   6.431   4.921 -0.4076 -0.1926 -0.3831
13479TIP3    H261929   1.413   6.394   4.859 -0.2697 -0.0261 -0.7785
13480TIP3   OH261930   2.751   0.527   1.334 -0.4071  0.1573  0.2194
13480TIP3    H161931   2.714   0.606   1.295 -0.9431 -0.4142 -0.4405
13480TIP3    H261932   2.840   0.552   1.358 -0.8400  1.2175  0.8204
13481TIP3   OH261933   0.508   5.737   4.936 -0.4265 -0.3975  0.2164
13481TIP3    H161934   0.597   5.712   4.909  0.3000  0.7441  1.4759
13481TIP3    H261935   0.521   5.801   5.005 -2.2468  0.8263 -0.5198
13482TIP3   OH261936   5.890   6.026  11.257  0.0740 -0.5667  0.4822
13482TIP3    H161937   5.827   6.001  11.190 -0.4218 -0.5309  0.9299
13482TIP3    H261938   5.968   5.975  11.237 -0.6775 -1.9508  0.9630
13483TIP3   OH261939   3.055   6.818   4.711  0.3346 -0.2327  0.1933
13483TIP3    H161940   2.970   6.784   4.738 -0.2923  0.5701 -0.7004
13483TIP3    H261941   3.084   6.872   4.785 -0.6859  0.7814 -0.1209
13484TIP3   OH261942   0.086   6.317   0.402 -0.1294 -0.1816  0.6152
13484TIP3    H161943   0.026   6.386   0.430 -2.1721 -1.9223  0.8403
13484TIP3    H261944   0.069   6.307   0.309  0.1924 -0.3074  0.5702
13485TIP3   OH261945   2.694   4.233   5.439 -0.2708 -0.4887  0.1507
13485TIP3    H161946   2.788   4.241   5.425 -0.0154 -2.3519  0.4511
13485TIP3    H261947   2.676   4.284   5.518  0.9604 -2.0767  1.5265
13486TIP3   OH261948   1.570   0.719   1.384 -0.7442  0.3434 -0.7519
13486TIP3    H161949   1.503   0.719   1.315 -1.0350  0.1038 -0.4766
13486TIP3    H261950   1.567   0.630   1.420 -1.1793  0.6852  0.1172
13487TIP3   OH261951   2.194   4.652  11.238  0.7119 -0.0081 -0.3354
13487TIP3    H161952   2.107   4.612  11.231  0.2623  0.9883 -0.7173
13487TIP3    H261953   2.212   4.652  11.332 -0.1529  0.6647 -0.1495
13488TIP3   OH261954   1.774   3.544  11.010  0.2610 -0.6104  0.0626
13488TIP3    H161955   1.707   3.612  11.002  0.0644 -0.8736 -0.5655
13488TIP3    H261956   1.786   3.511  10.921  0.1109 -1.6165  0.3973
13489TIP3   OH261957   0.296   1.550  16.963  0.4337  0.6687  0.3141
13489TIP3    H161958   0.380   1.517  16.932  0.0921  0.5505 -0.5005
13489TIP3    H261959   0.273   1.619  16.902  0.6831  1.7904  1.4529
13490TIP3   OH261960   0.158   3.530   0.220 -0.4694 -0.0376 -0.2172
13490TIP3    H161961   0.240   3.506   0.177  0.8741 -0.1525  2.2346
13490TIP3    H261962   0.170   3.622   0.245 -1.0821 -0.0527  0.1524
13491TIP3   OH261963   1.546   6.208  11.612 -0.2209  0.1870  0.2395
13491TIP3    H161964   1.622   6.266  11.607 -0.5903  0.6020 -1.2144
13491TIP3    H261965   1.562   6.141  11.546 -0.8662 -0.0203  0.2856
13492TIP3   OH261966   1.469   3.740   3.472  0.6299 -0.0581 -0.3530
13492TIP3    H161967   1.457   3.688   3.552 -3.9229  0.8685 -0.1799
13492TIP3    H261968   1.450   3.679   3.401 -0.3179  0.2615 -0.3891
13493TIP3   OH261969   2.117   0.467   1.268 -0.2408 -0.1743  0.2807
13493TIP3    H161970   2.069   0.388   1.244  1.0565 -0.6833 -0.7662
13493TIP3    H261971   2.140   0.454   1.360 -0.1757 -0.9578  0.1615
13494TIP3   OH261972   6.204   0.454   3.150  0.1761 -0.3418 -0.0655
13494TIP3    H161973   6.196   0.513   3.075  0.9158 -2.0742 -1.5690
13494TIP3    H261974   6.114   0.430   3.172 -0.0280 -0.0605 -0.5816
13495TIP3   OH261975   3.673   2.983  15.101 -0.9924 -0.1784 -0.1824
13495TIP3    H161976   3.731   2.919  15.143 -2.1559 -0.8437  0.4720
13495TIP3    H261977   3.667   2.955  15.010  0.3734  0.3964 -0.4663
13496TIP3   OH261978   2.698   5.203  16.353  0.2985  0.5553 -0.0031
13496TIP3    H161979   2.648   5.250  16.286  0.3145 -0.3556 -0.6774
13496TIP3    H261980   2.681   5.110  16.334  0.3115  0.2850  1.2583
13497TIP3   OH261981   1.913   0.250   3.775  0.0618  0.4176  0.0693
13497TIP3    H161982   1.995   0.211   3.806 -0.5907 -1.4481 -0.3721
13497TIP3    H261983   1.845   0.200   3.821 -0.8358  1.1743 -0.4197
13498TIP3   OH261984   4.243   0.095  14.554 -0.0501 -0.3104 -0.3409
13498TIP3    H161985   4.179   0.161  14.580  2.0432  0.8027  2.5461
13498TIP3    H261986   4.217   0.016  14.601  0.5212  0.0726  0.6375
13499TIP3   OH261987   1.027   6.265   4.573 -0.0993  0.0801 -0.1257
13499TIP3    H161988   1.056   6.325   4.504  1.9564  0.8615  1.3584
13499TIP3    H261989   0.950   6.307   4.611  0.1526  0.7928 -0.4024
13500TIP3   OH261990   1.617   5.455   3.954 -0.5489  0.2892 -0.1311
13500TIP3    H161991   1.585   5.522   3.893  1.0856 -0.3327 -1.7974
13500TIP3    H261992   1.674   5.502   4.014  2.0507  0.3154 -2.3908
13501TIP3   OH261993   1.226   0.792  16.436 -0.0217 -0.1331 -0.2203
13501TIP3    H161994   1.200   0.701  16.451  1.0517 -0.3697  0.3544
13501TIP3    H261995   1.315   0.798  16.473  0.5407  0.7439 -1.6158
13502TIP3   OH261996   4.975   1.434   2.693 -0.7656  0.0683  0.1297
13502TIP3    H161997   5.015   1.513   2.656  1.6667 -1.4692 -0.7843
13502TIP3    H261998   5.003   1.433   2.784 -2.5800  1.2912  0.7433
13503TIP3   OH261999   0.173   1.206   4.015 -0.1283  0.1965 -0.7651
13503TIP3    H162000   0.147   1.230   4.104 -1.3346  0.0061 -1.0439
13503TIP3    H262001   0.266   1.226   4.010 -0.2467  1.0381  0.2597
13504TIP3   OH262002   2.895   3.126  13.694  0.7627 -0.3713 -0.1567
13504TIP3    H162003   2.861   3.050  13.646  0.1805  0.0136 -0.3765
13504TIP3    H262004   2.818   3.161  13.738  0.8967  0.4586 -0.5720
13505TIP3   OH262005   6.435   6.280   0.002  0.4410 -0.1075  0.1955
13505TIP3    H162006   6.416   6.317  -0.084  0.9215 -0.2191  0.0401
13505TIP3    H262007   6.514   6.228  -0.011 -0.1596 -1.1139  0.4310
13506TIP3   OH262008   3.327   1.692  15.662  0.6479  0.5856 -0.2265
13506TIP3    H162009   3.359   1.640  15.736 -1.9997  1.8272  1.9758
13506TIP3    H262010   3.329   1.782  15.693 -1.4826  1.0497 -1.2192
13507TIP3   OH262011   4.982   2.860   4.485 -0.1236  0.0249 -0.9139
13507TIP3    H162012   5.003   2.779   4.439 -0.3273 -1.1286  0.8996
13507TIP3    H262013   4.887   2.858   4.496  0.0502 -0.6009  0.9441
13508TIP3   OH262014   6.756   3.437  15.999  0.6157  0.2575 -0.1660
13508TIP3    H162015   6.850   3.451  16.003  0.5841  0.1819  2.6548
13508TIP3    H262016   6.745   3.363  15.939  2.1993  1.1167 -1.5878
13509TIP3   OH262017   3.253   5.155   2.887 -0.1780 -0.0358  0.1250
13509TIP3    H162018   3.227   5.075   2.841 -1.1006 -0.6708  1.6684
13509TIP3    H262019   3.298   5.207   2.821  1.0920 -2.1312 -0.7639
13510TIP3   OH262020   1.971   0.879   0.754  0.2868  0.0803 -0.1819
13510TIP3    H162021   1.972   0.957   0.699 -0.1408  0.5615  0.4665
13510TIP3    H262022   1.969   0.913   0.843 -0.4113 -0.6646  0.0991
13511TIP3   OH262023   2.190   2.610   2.682  0.0567 -0.1628  0.1051
13511TIP3    H162024   2.136   2.593   2.605 -1.6134 -1.0269  1.3988
13511TIP3    H262025   2.276   2.633   2.647 -0.8787  0.3333 -2.0184
13512TIP3   OH262026   5.109   4.018   4.699  0.0992  0.1272 -0.0687
13512TIP3    H162027   5.165   4.094   4.681  1.9939 -1.3958 -0.9233
13512TIP3    H262028   5.134   3.954   4.633 -1.1371 -1.4252  0.9080
13513TIP3   OH262029   1.496   0.367   6.757  0.7743 -0.2783  0.2293
13513TIP3    H162030   1.412   0.413   6.751  0.7650 -0.5057 -1.8015
13513TIP3    H262031   1.545   0.416   6.824 -0.8144  0.0671  1.1943
13514TIP3   OH262032   0.143   5.152   5.152  0.2482  0.4083  0.1018
13514TIP3    H162033   0.172   5.191   5.234  1.3037 -0.4544  0.1701
13514TIP3    H262034   0.131   5.059   5.172 -1.1830  0.4716 -0.3070
13515TIP3   OH262035   3.441   3.074   0.386 -0.2181  0.3878 -0.3376
13515TIP3    H162036   3.506   3.005   0.374 -0.5094 -0.2799  1.6680
13515TIP3    H262037   3.458   3.109   0.473 -0.9706  1.9281 -0.7680
13516TIP3   OH262038   6.595   2.259   0.814  0.2059  0.3409 -0.0619
13516TIP3    H162039   6.578   2.318   0.888 -1.5984 -0.4338  0.2052
13516TIP3    H262040   6.609   2.174   0.855 -1.8676 -0.3177 -0.5743
13517TIP3   OH262041   1.452   0.999  16.294  0.3124 -0.5419  0.0534
13517TIP3    H162042   1.378   0.957  16.251 -0.8871  1.3659  0.1408
13517TIP3    H262043   1.506   1.033  16.222  1.2280 -2.0293 -0.0143
13518TIP3   OH262044   4.769   0.119   4.957  0.2953 -0.4163  0.0177
13518TIP3    H162045   4.857   0.082   4.970  0.7730  0.4676 -0.6420
13518TIP3    H262046   4.780   0.185   4.889 -0.1095  2.4303  2.5109
13519TIP3   OH262047   3.227   4.759  11.415 -0.0400 -0.1485  0.0582
13519TIP3    H162048   3.220   4.775  11.509 -1.1256 -0.6547  0.0805
13519TIP3    H262049   3.315   4.723  11.403 -0.6600 -2.1956  1.2168
13520TIP3   OH262050   5.879   0.665   1.940  0.0591  0.6205 -0.7021
13520TIP3    H162051   5.873   0.616   2.022 -0.3396 -0.6519 -1.4509
13520TIP3    H262052   5.790   0.663   1.905  0.6606 -0.8367 -2.2410
13521TIP3   OH262053   2.743   4.492  14.670 -0.1918  0.1197 -0.2151
13521TIP3    H162054   2.783   4.567  14.625  1.3239 -1.1155 -1.0575
13521TIP3    H262055   2.656   4.484  14.632 -0.6640  1.8907  0.4384
13522TIP3   OH262056   5.084   0.421   1.367  0.1627  0.1868 -0.0134
13522TIP3    H162057   5.143   0.408   1.441  2.3558  0.0057 -1.6752
13522TIP3    H262058   5.090   0.340   1.317 -1.1905  0.3431 -0.4716
13523TIP3   OH262059   2.544   0.982   3.759  0.3000  0.4731 -0.0398
13523TIP3    H162060   2.639   0.997   3.760  1.0704 -3.2822  0.9515
13523TIP3    H262061   2.527   0.941   3.674 -1.2492  4.2149 -1.7500
13524TIP3   OH262062   5.577   3.634   0.383  0.8504 -0.8650 -0.2173
13524TIP3    H162063   5.668   3.608   0.368  1.6998 -0.8874  3.7521
13524TIP3    H262064   5.577   3.729   0.375  0.8715 -0.9609 -1.5345
13525TIP3   OH262065   2.498   0.105   0.200  0.4164  0.7716 -1.0321
13525TIP3    H162066   2.424   0.073   0.252  2.7159 -2.9957  0.3439
13525TIP3    H262067   2.491   0.200   0.204 -2.7028  0.5939  1.4125
13526TIP3   OH262068   2.927   1.966  12.982 -0.1648  0.3476  0.1757
13526TIP3    H162069   2.863   1.906  13.020  0.6297  0.7241  2.2592
13526TIP3    H262070   2.994   1.910  12.943 -1.1456 -0.0470 -1.0215
13527TIP3   OH262071   2.650   5.341   3.029 -0.6750 -0.6709  0.2811
13527TIP3    H162072   2.709   5.412   3.053 -1.9272  0.4936  0.0327
13527TIP3    H262073   2.566   5.384   3.011 -0.7303 -1.8242 -2.8271
13528TIP3   OH262074   6.073   6.089   4.538  0.7341 -0.3873 -0.1290
13528TIP3    H162075   6.136   6.027   4.574  0.4203 -1.8804 -1.9753
13528TIP3    H262076   6.070   6.069   4.444 -1.1318  0.8691 -0.4072
13529TIP3   OH262077   0.340   4.937   5.367 -0.3087  0.1565  0.4226
13529TIP3    H162078   0.412   4.982   5.321  0.3311 -0.9974  0.2607
13529TIP3    H262079   0.352   4.845   5.346  0.0008 -0.4368  2.9021
13530TIP3   OH262080   4.603   3.137  13.384 -0.3472 -0.0278  0.0990
13530TIP3    H162081   4.554   3.216  13.361 -2.0240 -0.6550  1.2966
13530TIP3    H262082   4.693   3.157  13.360 -0.9352  1.7514 -0.8191
13531TIP3   OH262083   6.505   4.081  13.182 -0.6615  0.2550 -0.2343
13531TIP3    H162084   6.600   4.084  13.176 -0.7534  0.3543 -3.5816
13531TIP3    H262085   6.486   4.000  13.229  1.0360  0.2959  0.5866
13532TIP3   OH262086   2.981   5.133   4.679 -0.5556 -0.1743  0.0407
13532TIP3    H162087   2.885   5.126   4.676 -0.5729 -0.5992  1.0244
13532TIP3    H262088   3.012   5.043   4.671 -0.1764  0.0660 -1.4057
13533TIP3   OH262089   6.442   4.404   5.608 -0.7007  0.6109  0.0984
13533TIP3    H162090   6.448   4.490   5.649 -0.0025 -0.3223  2.0763
13533TIP3    H262091   6.355   4.372   5.632 -2.9284  2.3912 -4.3182
13534TIP3   OH262092   5.811   1.964  16.905  0.3186  0.5902 -0.3884
13534TIP3    H162093   5.733   2.012  16.934 -0.1548 -0.9906  1.1186
13534TIP3    H262094   5.883   2.025  16.918 -0.2019  0.7963  1.9015
13535TIP3   OH262095   6.406   5.245  12.392 -0.0370  0.1071  0.3003
13535TIP3    H162096   6.438   5.195  12.467 -0.0590  0.6656  0.6888
13535TIP3    H262097   6.413   5.185  12.318 -1.0925 -0.8402  0.9442
13536TIP3   OH262098   0.568   5.990   2.082 -0.1563  0.2835 -0.0906
13536TIP3    H162099   0.554   6.078   2.048 -1.1473  0.3700  0.4845
13536TIP3    H262100   0.626   6.002   2.157  1.9629  0.1008 -1.6291
13537TIP3   OH262101   5.149   4.596   4.877  0.3723 -0.2573  0.3744
13537TIP3    H162102   5.152   4.566   4.967  2.4387  0.2230  0.5049
13537TIP3    H262103   5.100   4.528   4.831 -1.9394  0.1775  2.0547
13538TIP3   OH262104   0.589   4.336   4.825 -0.1371 -0.3306  0.4705
13538TIP3    H162105   0.637   4.391   4.886  0.2907 -1.2776  1.0157
13538TIP3    H262106   0.512   4.307   4.875 -0.3594 -0.2280  0.1891
13539TIP3   OH262107   2.201   1.809   3.657 -0.1054 -0.1949 -0.1731
13539TIP3    H162108   2.133   1.781   3.718 -0.2360  1.6177  0.5720
13539TIP3    H262109   2.157   1.813   3.572 -0.6847  0.0424  0.1361
13540TIP3   OH262110   5.630   3.766   5.632  0.6171  0.1776  0.0536
13540TIP3    H162111   5.680   3.770   5.550 -1.0390 -1.3576 -1.0906
13540TIP3    H262112   5.551   3.817   5.614 -0.4059 -1.3193  0.1660
13541TIP3   OH262113   1.265   5.617  12.526  0.5942 -0.1741 -0.3024
13541TIP3    H162114   1.352   5.590  12.555  1.5459  2.8683  0.0181
13541TIP3    H262115   1.209   5.602  12.602  1.6120  1.0560  0.7494
13542TIP3   OH262116   3.904   0.235   4.277 -0.0854  0.2003 -0.2261
13542TIP3    H162117   3.909   0.307   4.214  1.3502 -1.6753 -2.4739
13542TIP3    H262118   3.893   0.157   4.222  1.2498 -1.5768  1.8506
13543TIP3   OH262119   5.304   2.313  13.532  1.5441  0.0662 -0.3088
13543TIP3    H162120   5.244   2.241  13.514  0.0179  0.7849  1.5982
13543TIP3    H262121   5.388   2.270  13.551  0.7779 -1.1996  0.3343
13544TIP3   OH262122   4.473   3.290   0.633  0.4111  0.5432  0.5966
13544TIP3    H162123   4.446   3.320   0.546  0.1508  1.1743  0.8865
13544TIP3    H262124   4.537   3.355   0.661  1.2297 -0.1945  0.4840
13545TIP3   OH262125   1.493   2.091   0.902 -0.6478 -0.5698  0.2878
13545TIP3    H162126   1.549   2.160   0.937 -2.2476  1.9822 -1.8121
13545TIP3    H262127   1.549   2.042   0.842  0.2353 -0.4435  0.9950
13546TIP3   OH262128   2.595   3.941   0.708 -0.0623 -0.2073  0.1724
13546TIP3    H162129   2.640   3.871   0.756 -1.2242 -0.9066  0.2620
13546TIP3    H262130   2.577   4.007   0.775 -1.5768 -1.1320  0.7244
13547TIP3   OH262131   3.820   5.798   0.798  0.9350  0.0156 -0.4126
13547TIP3    H162132   3.748   5.774   0.856  0.5831  1.1198 -0.3657
13547TIP3    H262133   3.892   5.740   0.824  0.5045 -0.1270  0.5058
13548TIP3   OH262134   0.287   6.194   1.447  0.0353 -0.0491  0.4561
13548TIP3    H162135   0.321   6.273   1.487 -2.3250  1.1391  0.2972
13548TIP3    H262136   0.193   6.209   1.440 -0.7052 -3.3509  1.4832
13549TIP3   OH262137   5.276   0.745  15.170 -0.2479 -0.0427  0.6738
13549TIP3    H162138   5.271   0.692  15.090  1.0349 -0.0162  0.5453
13549TIP3    H262139   5.230   0.826  15.148 -2.6525 -1.2317  1.0328
13550TIP3   OH262140   4.700   0.549   4.398  0.1610 -0.4008 -0.3449
13550TIP3    H162141   4.611   0.582   4.394 -0.3737 -1.4686  1.5314
13550TIP3    H262142   4.693   0.457   4.373  1.0400 -0.0841 -1.8817
13551TIP3   OH262143   2.504   6.344   3.578  0.0709 -0.3608  0.0948
13551TIP3    H162144   2.453   6.424   3.594 -0.2978 -0.9365  2.0321
13551TIP3    H262145   2.581   6.374   3.530  0.2611  1.2658  1.3461
13552TIP3   OH262146   3.168   4.996   1.617 -0.2135 -0.5602  0.5028
13552TIP3    H162147   3.248   4.962   1.578 -0.2898 -0.7603  0.5203
13552TIP3    H262148   3.135   4.924   1.671  0.2494 -0.0727  1.4702
13553TIP3   OH262149   3.891   2.962   1.274 -0.3966 -0.4921 -0.3946
13553TIP3    H162150   3.957   2.894   1.274  0.9102  0.7093 -1.8101
13553TIP3    H262151   3.925   3.029   1.215 -0.2100  2.7703  3.0332
13554TIP3   OH262152   3.848   4.799  13.190  0.0290 -0.0615 -0.3875
13554TIP3    H162153   3.825   4.727  13.249  0.1780  0.2865  0.1032
13554TIP3    H262154   3.852   4.876  13.247  1.2478  0.0930 -0.6673
13555TIP3   OH262155   3.088   2.810   0.391 -0.4224 -0.2211  0.1319
13555TIP3    H162156   3.102   2.754   0.314 -2.9270 -1.5955  0.5723
13555TIP3    H262157   3.059   2.750   0.460  0.6277  1.1456  1.8410
13556TIP3   OH262158   0.033   0.902   2.938  0.4486 -0.2093  0.1192
13556TIP3    H162159   0.040   0.874   2.846 -2.2992  2.1931 -0.9840
13556TIP3    H262160  -0.050   0.864   2.968 -0.5273  1.9486  0.3504
13557TIP3   OH262161   0.791   2.018  12.940 -0.5706  0.0943  0.3752
13557TIP3    H162162   0.745   2.102  12.936 -0.1667  0.4846  2.6119
13557TIP3    H262163   0.787   1.984  12.851 -2.0554  1.7779 -0.2512
13558TIP3   OH262164   3.816   5.298   0.873  0.5774  0.0145 -0.3804
13558TIP3    H162165   3.806   5.203   0.870  1.4617 -0.1156  0.3593
13558TIP3    H262166   3.885   5.313   0.938  0.6499  1.1486 -0.6971
13559TIP3   OH262167   2.807   6.270  14.855 -0.1314  0.1825  0.0105
13559TIP3    H162168   2.718   6.248  14.830 -0.3671 -1.6691  2.1607
13559TIP3    H262169   2.809   6.366  14.858 -2.4253  0.2518  1.0568
13560TIP3   OH262170   2.234   4.433   0.865  0.1526 -0.3814  0.0925
13560TIP3    H162171   2.262   4.424   0.956 -0.3712 -1.2593  0.1766
13560TIP3    H262172   2.299   4.491   0.826  1.4349 -1.4322  0.5818
13561TIP3   OH262173   4.295   1.117   1.127 -0.0795  0.5723  0.1088
13561TIP3    H162174   4.233   1.054   1.090  2.1978 -2.7481  1.5004
13561TIP3    H262175   4.319   1.173   1.053 -0.9357 -1.2837 -1.6769
13562TIP3   OH262176   0.121   4.126   0.931 -0.6826 -0.0726  0.2111
13562TIP3    H162177   0.178   4.073   0.876 -0.3646  1.1518 -0.6708
13562TIP3    H262178   0.179   4.161   0.999 -0.6742  0.0137  0.1594
13563TIP3   OH262179   6.513   3.647  15.188 -0.3385 -0.6791 -0.2131
13563TIP3    H162180   6.561   3.584  15.241 -0.1347 -0.7587 -0.4860
13563TIP3    H262181   6.546   3.632  15.099  0.0391  0.1219 -0.2150
13564TIP3   OH262182   1.517   5.062  11.333  0.3282 -0.0251 -0.0508
13564TIP3    H162183   1.608   5.092  11.327  0.3292 -0.0079  0.0374
13564TIP3    H262184   1.518   4.974  11.295  0.4717 -0.2019  0.3558
13565TIP3   OH262185   5.603   4.587  13.718  0.0093  0.2073 -0.1824
13565TIP3    H162186   5.634   4.499  13.739 -1.2217 -0.5717 -1.4363
13565TIP3    H262187   5.682   4.641  13.718  0.6900 -0.7417  1.3137
13566TIP3   OH262188   3.679   2.067  15.489 -0.1037  0.0309 -0.0181
13566TIP3    H162189   3.750   2.027  15.540  0.1881 -1.2334 -1.3535
13566TIP3    H262190   3.665   2.152  15.531  0.2334 -0.8531  2.0548
13567TIP3   OH262191   3.948   1.103  12.464 -0.1038 -0.0912  0.5081
13567TIP3    H162192   4.026   1.061  12.500  0.3177 -0.2652 -0.5576
13567TIP3    H262193   3.982   1.164  12.400 -0.8365 -3.3600 -3.4320
13568TIP3   OH262194   5.288   1.313  14.463 -0.7244  0.6235  0.0898
13568TIP3    H162195   5.245   1.314  14.549 -1.3238  3.0285 -0.1861
13568TIP3    H262196   5.286   1.220  14.437 -2.8203  0.1873  1.5314
13569TIP3   OH262197   1.463   1.074  16.946  0.0041  0.2432  0.2068
13569TIP3    H162198   1.408   1.134  16.996  0.1374  0.2751  0.3139
13569TIP3    H262199   1.410   0.995  16.938 -0.5423  0.6875 -0.7239
13570TIP3   OH262200   6.433   4.086   2.363  0.4355 -0.0648  0.1338
13570TIP3    H162201   6.452   4.172   2.401  0.4483  0.0161 -0.0561
13570TIP3    H262202   6.355   4.100   2.310 -0.3731 -0.4715  1.1873
13571TIP3   OH262203   2.735   4.307  16.328  0.1763  0.3230 -0.2645
13571TIP3    H162204   2.753   4.296  16.421 -3.2726 -0.2691  0.4607
13571TIP3    H262205   2.674   4.237  16.307  0.4604  0.7658 -2.8980
13572TIP3   OH262206   0.842   2.595   2.864 -0.5416  0.3404 -0.2143
13572TIP3    H162207   0.791   2.667   2.827 -0.9337  0.4611  0.5486
13572TIP3    H262208   0.813   2.589   2.955 -0.0777 -0.3923 -0.1069
13573TIP3   OH262209   5.836   3.254  14.618  0.5216 -0.2396  0.4069
13573TIP3    H162210   5.928   3.270  14.638  1.1009 -3.7114  1.1755
13573TIP3    H262211   5.830   3.159  14.606 -2.9676 -0.1521  0.3537
13574TIP3   OH262212   3.360   1.232   3.351 -0.0864  0.2735 -0.1922
13574TIP3    H162213   3.406   1.315   3.361  1.4301 -0.4940 -0.5120
13574TIP3    H262214   3.409   1.170   3.404 -1.7084 -0.2706  0.7512
13575TIP3   OH262215   0.588   6.160   2.889 -0.3932 -0.0257  0.0248
13575TIP3    H162216   0.545   6.173   2.974  0.4369  0.7974  0.3396
13575TIP3    H262217   0.659   6.099   2.908 -0.4104 -0.1005 -0.1498
13576TIP3   OH262218   1.244   4.738  11.234  0.3792 -0.3248  0.1385
13576TIP3    H162219   1.337   4.754  11.218  0.1071 -0.1031 -1.3618
13576TIP3    H262220   1.241   4.650  11.272  1.2782  0.1261  1.3021
13577TIP3   OH262221   2.808   2.860   2.021 -0.0108 -0.1268 -0.0491
13577TIP3    H162222   2.763   2.897   1.945  1.5434 -0.4962 -1.1891
13577TIP3    H262223   2.757   2.891   2.096 -1.0792  0.9751 -1.1836
13578TIP3   OH262224   5.481   4.460   1.438 -0.5695 -0.0716  0.2314
13578TIP3    H162225   5.515   4.376   1.405 -0.2355  0.0007  0.3895
13578TIP3    H262226   5.387   4.454   1.424 -0.6886 -0.9164  1.1981
13579TIP3   OH262227   4.164   0.391  11.973  0.0105 -0.8097  0.5431
13579TIP3    H162228   4.237   0.340  11.938  3.1904  3.0305  0.9446
13579TIP3    H262229   4.170   0.379  12.068  1.0063  0.4612  0.6658
13580TIP3   OH262230   2.060   3.034   2.037 -0.2598  0.2879 -0.6103
13580TIP3    H162231   2.143   3.081   2.049 -0.2482  0.5224 -1.5484
13580TIP3    H262232   2.017   3.079   1.965 -1.1714  0.1058 -0.1925
13581TIP3   OH262233   3.293   4.758   5.707  0.0521  0.1038  0.2594
13581TIP3    H162234   3.206   4.751   5.746 -0.2376  0.6232 -0.2713
13581TIP3    H262235   3.281   4.816   5.632  1.1553  1.4756  1.0832
13582TIP3   OH262236   5.228   5.403   2.333  0.1891  0.0149  0.5501
13582TIP3    H162237   5.258   5.317   2.302  0.2258  0.0510  0.4844
13582TIP3    H262238   5.265   5.465   2.269  1.6961  0.2568  1.6026
13583TIP3   OH262239   6.283   4.252  12.143  0.1566 -0.2114  0.2604
13583TIP3    H162240   6.299   4.194  12.217  0.6526 -0.4610 -0.0383
13583TIP3    H262241   6.319   4.205  12.068  2.1381  1.2015  0.2510
13584TIP3   OH262242   6.457   1.741  11.824 -0.3937  0.1433  0.3657
13584TIP3    H162243   6.519   1.720  11.894 -2.4422 -2.0936  1.6791
13584TIP3    H262244   6.400   1.664  11.819 -2.7481  1.8571 -1.1178
13585TIP3   OH262245   6.225   0.317  10.846  0.0035  0.2359 -0.1159
13585TIP3    H162246   6.255   0.240  10.798 -0.7583  0.3917 -0.8861
13585TIP3    H262247   6.242   0.390  10.786  1.5353  0.8079  0.9486
13586TIP3   OH262248   5.462   4.864  13.726 -0.2264 -0.2182 -0.3264
13586TIP3    H162249   5.515   4.808  13.668  0.1160 -0.8786  0.5937
13586TIP3    H262250   5.373   4.830  13.717  0.0071 -1.0517  0.3577
13587TIP3   OH262251   2.332   4.183  13.471 -0.6379 -0.2843  0.0611
13587TIP3    H162252   2.356   4.265  13.514 -0.4230 -1.1853  1.7253
13587TIP3    H262253   2.352   4.115  13.535 -2.5598 -1.5030 -0.5396
13588TIP3   OH262254   3.905   0.567   4.515  0.0874  0.3107 -0.1249
13588TIP3    H162255   3.824   0.571   4.566 -0.0408 -0.0287 -0.2994
13588TIP3    H262256   3.974   0.558   4.580 -0.0871 -0.2682 -0.0120
13589TIP3   OH262257   0.813   5.875  12.072  0.7586  0.2752 -0.1392
13589TIP3    H162258   0.755   5.822  12.127 -1.5284  2.2657 -0.5151
13589TIP3    H262259   0.895   5.881  12.123  0.1991 -1.4300  1.0595
13590TIP3   OH262260   1.191   3.123   6.196 -0.1899  0.0280  0.0358
13590TIP3    H162261   1.135   3.200   6.182 -0.2232  0.1834  0.9774
13590TIP3    H262262   1.173   3.067   6.121 -1.1788  0.3416  0.0243
13591TIP3   OH262263   1.861   5.201   0.827  0.7909 -0.1339 -0.4187
13591TIP3    H162264   1.864   5.108   0.848  1.2575 -0.5396 -2.1415
13591TIP3    H262265   1.792   5.209   0.761 -0.3527  1.0244  0.8475
13592TIP3   OH262266   6.210   2.105   0.701  0.2977  0.3200  0.5060
13592TIP3    H162267   6.155   2.159   0.645  0.8597  1.2327  0.8194
13592TIP3    H262268   6.278   2.071   0.643  1.3703  1.9324  0.7398
13593TIP3   OH262269   1.864   4.647   5.503  0.4130  0.1474 -0.3382
13593TIP3    H162270   1.905   4.671   5.419  0.8934 -0.9772 -0.4492
13593TIP3    H262271   1.900   4.709   5.566 -0.1082  1.1344 -0.9925
13594TIP3   OH262272   4.727   0.205  12.691 -0.1663 -0.2944  0.2327
13594TIP3    H162273   4.769   0.285  12.723 -1.6664  0.1787  1.1487
13594TIP3    H262274   4.778   0.134  12.728  1.0338  0.2261 -0.3797
13595TIP3   OH262275   4.674   5.702  14.886 -0.3278  0.8100  0.1953
13595TIP3    H162276   4.753   5.752  14.870  0.2240 -0.3094 -0.7080
13595TIP3    H262277   4.652   5.662  14.802  0.5030 -2.1812  1.2488
13596TIP3   OH262278   2.908   5.932   4.266 -0.3049 -0.7296  0.2368
13596TIP3    H162279   2.946   5.886   4.192 -1.3035  0.0481 -0.8009
13596TIP3    H262280   2.968   6.005   4.283 -0.7677 -0.1021 -0.7325
13597TIP3   OH262281   0.950   3.682  11.681 -0.4676  0.3115 -0.0483
13597TIP3    H162282   0.920   3.596  11.652 -0.2341  0.5974 -1.1862
13597TIP3    H262283   0.876   3.719  11.729 -0.6221 -0.4579  0.3087
13598TIP3   OH262284   6.149   5.162  15.969  0.1517 -0.0681 -0.2598
13598TIP3    H162285   6.224   5.121  16.012 -0.1211  1.7151  2.1425
13598TIP3    H262286   6.186   5.209  15.894  1.0389 -1.1706 -0.5388
13599TIP3   OH262287   0.371   2.058  13.604 -0.3867  0.1362  0.7093
13599TIP3    H162288   0.306   2.123  13.579 -0.8121 -0.2268  0.8536
13599TIP3    H262289   0.319   1.982  13.630  0.0998 -0.2109  0.6723
13600TIP3   OH262290   5.726   3.075   4.380 -0.0977 -0.4311 -0.2957
13600TIP3    H162291   5.638   3.054   4.412 -0.1748  0.8997  0.4497
13600TIP3    H262292   5.745   3.161   4.417  1.6598 -0.8271 -0.1970
13601TIP3   OH262293   2.598   1.950  12.584  0.5189 -0.1120  0.2165
13601TIP3    H162294   2.594   1.968  12.678  0.4889  0.5018  0.1015
13601TIP3    H262295   2.691   1.932  12.567  0.9269  1.9702 -0.0079
13602TIP3   OH262296   4.680   4.030   0.236 -0.3693 -0.0400  0.1689
13602TIP3    H162297   4.750   4.005   0.297 -0.9154 -1.0767  0.4020
13602TIP3    H262298   4.723   4.031   0.150  0.7395  2.8182  0.6702
13603TIP3   OH262299   1.447   4.449  15.302  0.2478  0.4380  0.5232
13603TIP3    H162300   1.399   4.494  15.233  0.6626  0.8883  0.5255
13603TIP3    H262301   1.471   4.364  15.264 -0.0681  0.4307  0.3354
13604TIP3   OH262302   5.980   6.552  16.128  0.1741  0.2339  0.3396
13604TIP3    H162303   5.891   6.517  16.118  0.5230 -0.3764 -0.8012
13604TIP3    H262304   6.036   6.474  16.126  0.9012  0.7745 -1.3511
13605TIP3   OH262305   2.816   3.755   1.797 -0.0592 -0.5932 -0.1154
13605TIP3    H162306   2.796   3.848   1.789  0.7445 -0.4197 -0.2599
13605TIP3    H262307   2.796   3.719   1.710  1.3239 -0.1947 -0.6350
13606TIP3   OH262308   3.703   1.163  14.982 -0.5194  0.0878 -0.6412
13606TIP3    H162309   3.752   1.217  14.919  0.5401  0.7083  0.6652
13606TIP3    H262310   3.675   1.087  14.931  2.2763 -0.5726 -1.3689
13607TIP3   OH262311   3.136   2.919  10.941  0.1525  0.0710 -0.4956
13607TIP3    H162312   3.161   2.827  10.931 -0.6984 -0.5571  2.1404
13607TIP3    H262313   3.040   2.919  10.933 -0.1972  0.0975  2.4629
13608TIP3   OH262314   6.263   4.557  13.631  0.0563 -0.5502 -0.1648
13608TIP3    H162315   6.357   4.562  13.612  0.3522 -1.3039  0.9920
13608TIP3    H262316   6.227   4.638  13.596  1.3910  0.4470  0.7120
13609TIP3   OH262317   1.885   2.402   3.812  0.4623 -0.2852  0.5700
13609TIP3    H162318   1.796   2.396   3.848  0.1966 -0.6323 -0.1246
13609TIP3    H262319   1.926   2.318   3.836  1.1521  0.4819  2.2605
13610TIP3   OH262320   5.602   5.160  11.658 -0.0382  0.0104 -0.1359
13610TIP3    H162321   5.631   5.144  11.747 -0.7232 -0.9880 -0.0748
13610TIP3    H262322   5.533   5.226  11.666 -0.0961 -0.0763  0.0731
13611TIP3   OH262323   5.541   2.227   0.195  0.1160  0.6008 -0.1618
13611TIP3    H162324   5.600   2.287   0.240 -2.6608  2.2978  1.5581
13611TIP3    H262325   5.481   2.284   0.145 -1.5301 -0.8028  0.0881
13612TIP3   OH262326   5.692   5.108   2.807  0.6786  0.1136  0.3566
13612TIP3    H162327   5.717   5.028   2.760  0.1011  1.3307 -2.2167
13612TIP3    H262328   5.707   5.179   2.743  2.8230  2.3441  3.0652
13613TIP3   OH262329   1.878   5.211  13.087 -0.0728  0.0172 -0.2813
13613TIP3    H162330   1.875   5.116  13.074 -0.4956  0.3516 -3.6127
13613TIP3    H262331   1.960   5.239  13.045  0.3985  1.0915  1.2720
13614TIP3   OH262332   5.353   0.064  11.237  0.2926 -0.7293  0.4504
13614TIP3    H162333   5.416   0.110  11.292  1.0795 -0.9897 -0.2160
13614TIP3    H262334   5.320  -0.008  11.291  0.7533 -0.7379  0.7185
13615TIP3   OH262335   5.010   0.974  16.623 -0.2294 -0.2099 -0.1167
13615TIP3    H162336   5.102   0.993  16.643 -0.3567 -0.3974  0.6905
13615TIP3    H262337   4.969   0.962  16.708 -1.5367  2.2269 -0.3084
13616TIP3   OH262338   3.706   5.674   2.161  0.1313  0.1240 -0.3323
13616TIP3    H162339   3.611   5.665   2.156  0.2381 -1.7248  0.2484
13616TIP3    H262340   3.723   5.763   2.133 -2.0140  1.4850  2.1963
13617TIP3   OH262341   1.652   3.184   6.526  0.3964  0.5928  0.1548
13617TIP3    H162342   1.616   3.238   6.456 -1.1023  1.2114  1.3327
13617TIP3    H262343   1.659   3.097   6.488 -1.7921  0.5845 -0.3797
13618TIP3   OH262344   1.154   3.544   2.068 -0.1764 -0.0866 -0.3696
13618TIP3    H162345   1.117   3.600   2.136 -0.6123 -0.8498  0.0354
13618TIP3    H262346   1.079   3.516   2.016  0.0882  0.0292 -0.8246
13619TIP3   OH262347   4.665   2.557   4.543  0.0832 -0.0410 -0.2197
13619TIP3    H162348   4.664   2.475   4.494 -0.4287 -0.4695  0.4827
13619TIP3    H262349   4.757   2.581   4.549  0.2372 -0.5669 -0.4289
13620TIP3   OH262350   3.551   5.422   3.289 -0.3196 -0.4665  0.2996
13620TIP3    H162351   3.622   5.437   3.351  0.1998 -0.4630 -0.2808
13620TIP3    H262352   3.499   5.502   3.293 -0.2731 -0.4552  0.7052
13621TIP3   OH262353   3.537   3.123   8.160  0.7544  0.0393  0.1699
13621TIP3    H162354   3.581   3.100   8.242  0.2543  0.9674  0.7085
13621TIP3    H262355   3.517   3.216   8.168  1.1675  0.2831 -1.2409
13622TIP3   OH262356   5.410   5.585  13.522 -0.1039 -0.1656 -0.4984
13622TIP3    H162357   5.378   5.662  13.569 -1.5007 -1.5638  0.9424
13622TIP3    H262358   5.500   5.608  13.498 -0.7146  2.2104 -0.8339
13623TIP3   OH262359   6.432   2.510  12.660 -0.4987 -0.0579  0.4295
13623TIP3    H162360   6.379   2.538  12.735 -0.6315 -1.9051  1.0787
13623TIP3    H262361   6.500   2.577  12.652 -1.2543  0.8565  1.3675
13624TIP3   OH262362   3.591   2.794   5.964 -0.2124 -0.7671  0.1561
13624TIP3    H162363   3.657   2.726   5.979  0.3334 -0.0834  1.0188
13624TIP3    H262364   3.528   2.783   6.036  0.8981  0.7783  1.4586
13625TIP3   OH262365   1.454   6.470  13.979  0.1711 -0.7004 -0.0149
13625TIP3    H162366   1.359   6.463  13.971  0.2513 -0.8681 -1.0241
13625TIP3    H262367   1.470   6.557  14.016 -0.3405 -0.0923 -1.1583
13626TIP3   OH262368   3.961   1.082  14.053 -0.2577  0.7952 -0.0722
13626TIP3    H162369   4.010   1.004  14.030  1.1921  1.5214  0.3914
13626TIP3    H262370   3.872   1.066  14.022  0.8196  0.4610 -3.2939
13627TIP3   OH262371   3.059   4.323  14.133 -0.1816  0.2562  0.3307
13627TIP3    H162372   3.109   4.244  14.115 -1.0607 -0.2709  0.1175
13627TIP3    H262373   3.077   4.342  14.225 -0.7190 -0.7655  0.6671
13628TIP3   OH262374   4.507   1.382  10.905 -0.4665  0.1662 -0.4655
13628TIP3    H162375   4.572   1.425  10.850  0.6692 -1.5280 -0.5124
13628TIP3    H262376   4.491   1.298  10.862 -1.7789  0.0357  0.2173
13629TIP3   OH262377   5.047   1.026   4.206  0.0271  0.1612  0.4652
13629TIP3    H162378   4.955   1.030   4.234  0.2022 -2.2377  1.6758
13629TIP3    H262379   5.096   1.057   4.283  0.3356 -2.5664  1.4754
13630TIP3   OH262380   2.353   4.264  13.205 -0.2096 -0.1197  0.1342
13630TIP3    H162381   2.357   4.239  13.297  1.0754  0.3254  0.2263
13630TIP3    H262382   2.444   4.258  13.175 -0.4503  0.7446 -0.8327
13631TIP3   OH262383   2.335   4.468  13.587  0.3002  0.3132 -0.0212
13631TIP3    H162384   2.398   4.527  13.545 -0.2415  2.8256  2.3507
13631TIP3    H262385   2.251   4.514  13.580 -0.1775 -0.1990  1.7838
13632TIP3   OH262386   5.244   4.989  10.783  0.3823  0.1270  1.1471
13632TIP3    H162387   5.188   4.936  10.726  0.4248  1.1655  0.0991
13632TIP3    H262388   5.331   4.982  10.744  0.0692  2.4182 -0.1599
13633TIP3   OH262389   0.806   3.869  14.982  0.5811 -0.5259 -0.2013
13633TIP3    H162390   0.718   3.892  14.951  0.6017  0.3766  0.3909
13633TIP3    H262391   0.862   3.881  14.906  0.7515  2.3761  0.2891
13634TIP3   OH262392   1.817   2.383   1.102 -0.4393 -0.0882 -0.6790
13634TIP3    H162393   1.776   2.466   1.125 -1.0106 -0.0029 -1.9614
13634TIP3    H262394   1.757   2.342   1.040  0.7946 -0.5393 -1.6110
13635TIP3   OH262395   4.480   2.542   0.149  0.0275  0.0115 -0.0862
13635TIP3    H162396   4.486   2.616   0.209 -3.5177 -0.7131  1.4430
13635TIP3    H262397   4.560   2.547   0.096  0.5818  4.0736  0.8080
13636TIP3   OH262398   1.420   4.863   1.874  0.3819 -0.2130 -0.6030
13636TIP3    H162399   1.353   4.919   1.835  1.1026  0.4697 -0.8789
13636TIP3    H262400   1.431   4.897   1.963  0.3470 -0.3463 -0.5467
13637TIP3   OH262401   5.571   0.708   2.133  0.7368  0.1269  0.0151
13637TIP3    H162402   5.647   0.746   2.088  0.5417 -0.1943 -0.5938
13637TIP3    H262403   5.522   0.664   2.064  0.8766 -1.1050  0.6759
13638TIP3   OH262404   2.361   4.932  14.897 -0.0619  0.5790 -0.1594
13638TIP3    H162405   2.419   4.865  14.932 -1.4986 -0.1805  0.8280
13638TIP3    H262406   2.380   5.010  14.950 -0.6266  0.0597  0.8244
13639TIP3   OH262407   4.694   1.578  14.266  0.1419  0.0039  0.4744
13639TIP3    H162408   4.765   1.563  14.204  0.1945 -2.5694  1.0171
13639TIP3    H262409   4.630   1.630  14.218  1.5048  0.6435 -0.7004
13640TIP3   OH262410   4.997   0.110   2.826  0.4139  0.3281 -0.7324
13640TIP3    H162411   5.001   0.187   2.884 -0.7763 -0.2254  0.1319
13640TIP3    H262412   4.918   0.124   2.773 -1.3027 -1.4052  1.1674
13641TIP3   OH262413   6.711   1.240   4.972  0.2656 -0.6986  0.0513
13641TIP3    H162414   6.764   1.302   5.023  0.9492 -0.1128 -1.3022
13641TIP3    H262415   6.624   1.245   5.011  0.6328  0.1394  0.8001
13642TIP3   OH262416   3.254   4.188   2.084  0.6780  0.2366 -0.4632
13642TIP3    H162417   3.348   4.177   2.067  0.9213  0.5438  0.6294
13642TIP3    H262418   3.236   4.278   2.057  0.6342  0.0881 -0.9356
13643TIP3   OH262419   6.034   3.957  16.344  0.5681  0.1883 -0.2570
13643TIP3    H162420   6.089   4.019  16.391  1.0358  0.0776 -0.6513
13643TIP3    H262421   6.095   3.906  16.291  0.2820 -1.2023  0.7144
13644TIP3   OH262422   1.808   4.611  11.254 -0.7225 -0.1369  0.0470
13644TIP3    H162423   1.861   4.681  11.215 -1.7049  1.5466  1.5629
13644TIP3    H262424   1.871   4.558  11.303 -0.3122  1.9636  2.0072
13645TIP3   OH262425   3.786   1.091   5.459 -0.1915  0.1871  0.0255
13645TIP3    H162426   3.780   1.085   5.554 -0.3358  0.0889  0.0104
13645TIP3    H262427   3.711   1.144   5.433  0.9635  1.9368  0.1401
13646TIP3   OH262428   4.497   6.813   4.177  0.0433 -1.0005  0.0210
13646TIP3    H162429   4.458   6.740   4.129  1.9145 -2.7471  1.0212
13646TIP3    H262430   4.558   6.772   4.238  1.3588  1.4338  0.4614
13647TIP3   OH262431   1.685   1.151  13.092 -0.4675 -0.0651 -0.2210
13647TIP3    H162432   1.642   1.210  13.153 -1.0251  0.5081 -1.1477
13647TIP3    H262433   1.614   1.114  13.040  0.1662  2.3120 -3.0600
13648TIP3   OH262434   3.348   1.413   3.891 -0.1325  0.4302  0.2804
13648TIP3    H162435   3.392   1.335   3.926 -0.5156 -0.5390 -1.2726
13648TIP3    H262436   3.413   1.483   3.899  0.3767 -0.1453  1.3215
13649TIP3   OH262437   0.085   6.732   1.992 -0.2790  0.2250 -0.0155
13649TIP3    H162438   0.055   6.774   2.072  0.3951  0.4265  0.1392
13649TIP3    H262439   0.018   6.753   1.927  0.4901  2.3691 -0.1973
13650TIP3   OH262440   5.334   4.699   3.943 -0.0300  0.0897  0.0726
13650TIP3    H162441   5.246   4.685   3.979 -0.7031 -0.6625 -1.7460
13650TIP3    H262442   5.393   4.677   4.015 -1.2850  1.7953  1.7623
13651TIP3   OH262443   5.308   2.413  12.784 -0.6046 -0.8560  0.1671
13651TIP3    H162444   5.274   2.323  12.791  0.1992 -1.2241 -0.4594
13651TIP3    H262445   5.230   2.466  12.768 -1.0655 -1.4782  0.2739
13652TIP3   OH262446   4.965   6.709  12.794  0.3041  0.0943 -0.2053
13652TIP3    H162447   4.971   6.674  12.706  0.6285 -0.5204  0.0620
13652TIP3    H262448   4.907   6.649  12.841 -0.1341  0.5966 -0.0794
13653TIP3   OH262449   1.873   6.047   0.275  0.1950  0.5516 -0.1630
13653TIP3    H162450   1.917   6.101   0.208  0.7778  0.1258 -0.1343
13653TIP3    H262451   1.886   5.957   0.245  0.0677  0.3816  0.2888
13654TIP3   OH262452   1.300   5.248  16.667  0.3472 -0.1433  0.0602
13654TIP3    H162453   1.220   5.285  16.631 -0.4189  0.2283  2.0137
13654TIP3    H262454   1.299   5.156  16.640 -1.5686 -0.5431  1.3125
13655TIP3   OH262455   2.501   1.218  13.692 -0.0035 -0.3227 -0.4193
13655TIP3    H162456   2.515   1.290  13.631  0.9659  0.0102  0.1781
13655TIP3    H262457   2.586   1.203  13.733 -0.0958 -2.0676 -0.7862
13656TIP3   OH262458   6.075   3.050   1.782  0.5347 -0.1121  0.0023
13656TIP3    H162459   6.076   3.105   1.704  1.0619  0.7148  0.5762
13656TIP3    H262460   6.076   2.961   1.748  0.4474  0.2331 -0.9388
13657TIP3   OH262461   0.577   4.268  11.978  0.0029  0.0391 -0.8780
13657TIP3    H162462   0.488   4.298  11.997  0.7197  0.5153  2.3727
13657TIP3    H262463   0.634   4.336  12.014  1.7286 -0.7327 -1.9731
13658TIP3   OH262464   5.147   3.910  16.613  0.0106  0.2438 -0.3041
13658TIP3    H162465   5.197   3.975  16.564 -0.4200  1.2549  0.5608
13658TIP3    H262466   5.139   3.836  16.553  1.0233  0.7463 -1.0905
13659TIP3   OH262467   1.647   2.405  16.203 -0.1618  0.1401 -0.1929
13659TIP3    H162468   1.569   2.393  16.257  0.0062  2.4329  0.6478
13659TIP3    H262469   1.615   2.404  16.113 -0.9607 -0.2475  0.0891
13660TIP3   OH262470   6.790   5.916   5.142  0.1957 -0.3794 -0.4587
13660TIP3    H162471   6.741   5.852   5.194  1.1150 -0.8740 -0.1864
13660TIP3    H262472   6.769   5.894   5.051 -0.1277 -0.5500 -0.3461
13661TIP3   OH262473   5.699   0.673  15.512 -0.3319  0.0877 -0.4803
13661TIP3    H162474   5.763   0.731  15.470  1.0685 -2.1622 -1.6214
13661TIP3    H262475   5.733   0.660  15.601 -2.4290  3.5163  1.0623
13662TIP3   OH262476   2.186   0.707   5.290  0.4422  0.6366  0.2471
13662TIP3    H162477   2.164   0.757   5.369 -1.3000  0.9094 -0.3612
13662TIP3    H262478   2.113   0.724   5.230  1.1729 -0.4644 -1.0017
13663TIP3   OH262479   3.544   6.545  14.201  0.1015 -0.1493  0.4430
13663TIP3    H162480   3.550   6.629  14.246  1.9131  1.0577 -1.8481
13663TIP3    H262481   3.457   6.545  14.160  0.3866  0.9891 -0.1941
13664TIP3   OH262482   1.016   3.021  14.120 -0.5582 -0.1123  0.4303
13664TIP3    H162483   1.038   3.040  14.029 -2.1642  1.3687  0.2954
13664TIP3    H262484   1.076   3.076  14.171 -0.7926  0.3639  0.2022
13665TIP3   OH262485   5.235   6.842   1.521 -0.1904  0.2450  0.4612
13665TIP3    H162486   5.193   6.800   1.446  1.3890 -2.2641  0.8648
13665TIP3    H262487   5.193   6.803   1.598  1.4108 -0.7934  0.8546
13666TIP3   OH262488   5.314   5.446  14.391 -0.8077 -0.1876  0.3201
13666TIP3    H162489   5.237   5.398  14.361 -2.2545  2.5196 -0.6434
13666TIP3    H262490   5.285   5.491  14.471  0.7624 -1.5063  1.7045
13667TIP3   OH262491   2.098   3.060  13.596  0.2470 -0.4011  0.0667
13667TIP3    H162492   2.114   3.018  13.511 -1.3601  1.4387 -1.2541
13667TIP3    H262493   2.014   3.025  13.624  0.0325  0.1481  0.1169
13668TIP3   OH262494   3.746   4.995   1.138 -0.0981 -0.3296 -0.0193
13668TIP3    H162495   3.691   5.062   1.097 -0.4121 -2.4249 -3.3864
13668TIP3    H262496   3.757   5.025   1.229 -0.6870  3.9107 -1.1399
13669TIP3   OH262497   0.729   0.223  15.978 -0.2424 -0.0797 -0.3278
13669TIP3    H162498   0.747   0.316  15.964 -1.2849  0.0799 -0.7263
13669TIP3    H262499   0.686   0.219  16.063  2.6829 -0.6089  1.2275
13670TIP3   OH262500   0.168   6.168  15.811  0.1232  0.7803  0.5364
13670TIP3    H162501   0.141   6.077  15.823  0.6001  0.3539 -1.2585
13670TIP3    H262502   0.126   6.215  15.882  0.5301 -0.9667  2.0205
13671TIP3   OH262503   3.277   3.584  13.949  0.1502  0.2713  0.3429
13671TIP3    H162504   3.240   3.583  14.037 -0.2368 -0.4565  0.1786
13671TIP3    H262505   3.361   3.628  13.959  0.3686 -0.3232  1.1765
13672TIP3   OH262506   3.899   4.674  12.931  0.2048 -0.0066  0.2028
13672TIP3    H162507   3.894   4.725  13.012 -0.8867 -0.9229  0.7525
13672TIP3    H262508   3.968   4.609  12.947 -0.2201 -0.3869  0.5421
13673TIP3   OH262509   0.811   4.838   3.094 -0.4698  0.1018 -0.7266
13673TIP3    H162510   0.896   4.880   3.104 -0.7416  0.9373 -1.8596
13673TIP3    H262511   0.823   4.751   3.134  0.2375  1.0053  1.1762
13674TIP3   OH262512   5.513   0.842  10.757  0.1951 -0.2920 -0.2174
13674TIP3    H162513   5.518   0.935  10.736 -0.7591 -0.2163 -0.1527
13674TIP3    H262514   5.532   0.837  10.850  1.0265 -0.2493 -0.3828
13675TIP3   OH262515   5.897   3.679  14.674  0.1715  0.5664  0.3695
13675TIP3    H162516   5.837   3.607  14.693 -0.0604  0.7834  0.4507
13675TIP3    H262517   5.859   3.722  14.597  1.0425 -0.2420 -0.5468
13676TIP3   OH262518   6.578   5.541   0.835  0.1275 -0.3978 -0.2297
13676TIP3    H162519   6.545   5.469   0.781  0.6055 -1.3285  0.6951
13676TIP3    H262520   6.646   5.582   0.781 -0.9815  0.1600 -1.2590
13677TIP3   OH262521   4.738   2.546  14.330  0.2695  0.3380 -0.1060
13677TIP3    H162522   4.696   2.599  14.397  2.0570  2.2750 -0.4043
13677TIP3    H262523   4.805   2.496  14.376  1.1090  1.2330 -0.3185
13678TIP3   OH262524   5.020   0.109  15.563 -0.5833  0.0800  0.0766
13678TIP3    H162525   5.077   0.083  15.491  0.4317  1.1033  0.4820
13678TIP3    H262526   5.042   0.049  15.634 -0.1151  0.3582  0.1742
13679TIP3   OH262527   1.789   4.182   5.834 -0.0250 -0.1917  0.0489
13679TIP3    H162528   1.834   4.220   5.759 -1.3920  1.0563 -0.1924
13679TIP3    H262529   1.759   4.096   5.803 -1.6971  0.8264 -1.3310
13680TIP3   OH262530   3.664   1.358  15.668 -0.2204  0.6906 -0.3128
13680TIP3    H162531   3.670   1.306  15.588  0.7562  0.0134  0.1898
13680TIP3    H262532   3.749   1.401  15.675  0.0298  0.0309  0.8438
13681TIP3   OH262533   0.854   4.371   1.373 -0.0973 -0.0855 -0.3020
13681TIP3    H162534   0.860   4.313   1.449  0.4475 -0.1049 -0.3545
13681TIP3    H262535   0.941   4.411   1.367  0.3511 -1.1698 -1.7653
13682TIP3   OH262536   4.537   1.405   0.782 -0.5520 -0.1699 -0.4637
13682TIP3    H162537   4.526   1.423   0.876  0.0455  0.8900 -0.5865
13682TIP3    H262538   4.605   1.338   0.778  1.3781  1.6750 -0.2216
13683TIP3   OH262539   5.071   1.671  11.662 -0.1845  0.4591 -0.1025
13683TIP3    H162540   5.137   1.724  11.705  0.6878  0.0364 -0.8801
13683TIP3    H262541   5.065   1.708  11.573  0.4584 -0.7160 -0.6638
13684TIP3   OH262542   6.271   4.082  15.983 -0.4237 -0.1621  0.3399
13684TIP3    H162543   6.198   4.132  16.020 -2.3411 -4.1883  2.6897
13684TIP3    H262544   6.348   4.119  16.025 -1.8239  0.4035  2.6191
13685TIP3   OH262545   4.460   3.537   5.546 -0.1476 -0.2954 -0.4548
13685TIP3    H162546   4.514   3.606   5.508  0.3417 -1.4136 -1.9087
13685TIP3    H262547   4.471   3.547   5.641 -0.8271  2.1496 -0.5595
13686TIP3   OH262548   0.850   5.757  13.396  0.3146 -0.3884 -0.3783
13686TIP3    H162549   0.848   5.852  13.385  1.8682 -0.4635 -1.5881
13686TIP3    H262550   0.800   5.723  13.323  0.3554 -0.5228 -0.3445
13687TIP3   OH262551   1.560   0.033   2.018 -0.1757 -0.0233  0.2966
13687TIP3    H162552   1.634   0.092   2.034 -0.3385 -0.2408  2.0150
13687TIP3    H262553   1.488   0.092   1.994 -0.8229  0.7844  3.6767
13688TIP3   OH262554   0.513   3.737   3.509  0.0108  0.3393  0.2076
13688TIP3    H162555   0.485   3.716   3.598  2.2577 -0.6139  0.7789
13688TIP3    H262556   0.584   3.675   3.491 -0.8285  0.0235 -2.5419
13689TIP3   OH262557   3.383   2.251  12.013  0.0889  0.4828 -0.0350
13689TIP3    H162558   3.344   2.315  12.073 -1.3110  1.8878 -2.2854
13689TIP3    H262559   3.388   2.296  11.929  3.2783 -0.9253 -0.7565
13690TIP3   OH262560   3.220   2.001  16.977  0.1769 -0.0838 -0.6680
13690TIP3    H162561   3.186   1.927  16.928  0.9393 -0.0105 -1.3236
13690TIP3    H262562   3.177   2.078  16.938 -1.2514 -0.2012  0.5507
13691TIP3   OH262563   6.223   1.440  13.931  0.1797  0.6738  0.0231
13691TIP3    H162564   6.177   1.388  13.997  1.4636  1.2871  1.4482
13691TIP3    H262565   6.237   1.380  13.858 -0.2590 -0.3545  0.7730
13692TIP3   OH262566   1.269   5.469  12.779 -0.0504 -0.4261 -0.3222
13692TIP3    H162567   1.363   5.487  12.780 -0.2868  0.9830 -0.7428
13692TIP3    H262568   1.262   5.377  12.755  1.1985 -0.3750 -0.9546
13693TIP3   OH262569   1.764   4.812   2.713  0.2464  0.0811  0.0415
13693TIP3    H162570   1.712   4.731   2.712  0.4754 -0.0827  0.6315
13693TIP3    H262571   1.700   4.881   2.729 -0.0171  0.0739 -0.9524
13694TIP3   OH262572   0.570   3.321  15.850 -0.6864 -0.0210 -0.0922
13694TIP3    H162573   0.607   3.409  15.836  1.0719 -0.8997 -1.3176
13694TIP3    H262574   0.534   3.296  15.765 -0.5781 -0.7458  0.0697
13695TIP3   OH262575   5.899   3.298  14.231  0.0937  0.1667 -0.6252
13695TIP3    H162576   5.940   3.384  14.246  0.2576 -0.0755  0.4162
13695TIP3    H262577   5.954   3.256  14.166  0.0922  0.8004 -1.0439
13696TIP3   OH262578   2.253   0.387  11.923 -0.1142  0.0472  0.2647
13696TIP3    H162579   2.251   0.305  11.972 -1.2446  0.4372  0.8961
13696TIP3    H262580   2.321   0.439  11.965 -0.1439 -0.1450  0.5480
13697TIP3   OH262581   3.804   3.462  12.983 -0.2367 -0.0942 -0.1616
13697TIP3    H162582   3.758   3.482  12.902  0.4582 -0.2604 -0.6109
13697TIP3    H262583   3.895   3.484  12.965  0.2434 -1.7972 -0.0513
13698TIP3   OH262584   5.294   2.038   5.998  0.1412 -0.4778  0.0013
13698TIP3    H162585   5.336   2.092   6.066 -1.8378 -1.3680  2.0792
13698TIP3    H262586   5.241   2.100   5.948  0.5251  0.0001  0.1713
13699TIP3   OH262587   3.591   4.466   4.663 -0.4753 -0.3505 -0.2068
13699TIP3    H162588   3.578   4.372   4.649 -2.9693 -0.0742 -0.1306
13699TIP3    H262589   3.611   4.501   4.576 -0.6900 -0.7893 -0.4349
13700TIP3   OH262590   4.558   0.864   4.758 -0.4836  0.1430  0.4925
13700TIP3    H162591   4.494   0.909   4.703  0.1779 -0.6005 -0.9612
13700TIP3    H262592   4.626   0.929   4.774 -0.2937  0.1479 -0.2779
13701TIP3   OH262593   0.764   4.832  12.571 -1.0213 -0.0173  0.0641
13701TIP3    H162594   0.829   4.846  12.640  0.6011  0.3219 -1.4507
13701TIP3    H262595   0.680   4.848  12.613  0.0255  2.4196  1.4256
13702TIP3   OH262596   3.023   0.618  13.737 -0.1142  0.0163 -0.3853
13702TIP3    H162597   2.987   0.552  13.679 -0.3444 -0.3201  0.1416
13702TIP3    H262598   2.947   0.664  13.773 -0.2437 -2.2108  2.5547
13703TIP3   OH262599   3.629   4.325  16.690 -0.0258 -0.3256  0.0514
13703TIP3    H162600   3.542   4.364  16.689 -0.0717 -0.4173 -1.0397
13703TIP3    H262601   3.636   4.282  16.775 -1.1330 -0.5116  0.0568
13704TIP3   OH262602   1.024   6.740  12.818  0.3481 -0.0262  0.5065
13704TIP3    H162603   0.978   6.824  12.822 -0.9931 -0.6374 -1.1573
13704TIP3    H262604   0.963   6.678  12.856  0.1345 -0.7127 -0.9293
13705TIP3   OH262605   6.018   4.359   1.582 -0.0074  0.8534  0.5390
13705TIP3    H162606   5.991   4.270   1.607  0.4791  0.8959  1.2323
13705TIP3    H262607   6.063   4.347   1.498 -0.3022  0.5020  0.4248
13706TIP3   OH262608   1.496   0.411   6.019  0.5945 -0.2788 -0.3185
13706TIP3    H162609   1.570   0.389   5.962  0.0407 -0.2294 -1.0744
13706TIP3    H262610   1.458   0.327   6.044  0.6015 -0.2912 -0.3494
13707TIP3   OH262611   4.751   1.436  16.483 -0.1076 -0.2060 -0.0120
13707TIP3    H162612   4.679   1.411  16.541  0.5893 -1.4457  0.3521
13707TIP3    H262613   4.803   1.357  16.474  0.5942  0.3688 -1.1912
13708TIP3   OH262614   5.521   4.036  15.244 -0.5426 -0.2689 -0.6094
13708TIP3    H162615   5.558   4.037  15.156 -1.4815  0.1762 -1.0046
13708TIP3    H262616   5.545   4.121  15.281  2.6184 -1.5934  0.7821
13709TIP3   OH262617   0.572   3.635  14.191 -0.3771  0.1886 -0.0627
13709TIP3    H162618   0.498   3.687  14.224  0.0472  0.4430  0.5231
13709TIP3    H262619   0.572   3.650  14.097 -0.4056  1.0894  0.0689
13710TIP3   OH262620   0.844   2.576  12.623 -0.1138  0.3946 -0.2407
13710TIP3    H162621   0.931   2.611  12.606 -0.1710  0.5010 -0.3183
13710TIP3    H262622   0.819   2.532  12.542  1.3309 -2.8139  0.8784
13711TIP3   OH262623   3.645   0.942  15.184 -0.0151 -0.0010 -0.4660
13711TIP3    H162624   3.692   0.949  15.267 -1.7690  0.9459  0.5006
13711TIP3    H262625   3.678   1.014  15.131 -0.2372  0.5508  0.1358
13712TIP3   OH262626   5.204   6.027  11.650  0.0975  0.4108 -0.0763
13712TIP3    H162627   5.245   5.958  11.702 -0.4518 -0.3209 -0.5997
13712TIP3    H262628   5.133   6.059  11.705  0.3444  0.5599  0.1604
13713TIP3   OH262629   5.101   2.805  12.080  0.7768 -0.8735 -0.3227
13713TIP3    H162630   5.175   2.851  12.040  1.1984 -1.1451  0.1358
13713TIP3    H262631   5.100   2.836  12.170  0.4284 -0.9916 -0.2869
13714TIP3   OH262632   5.253   5.909   2.378 -0.1723  0.3048  0.9443
13714TIP3    H162633   5.337   5.926   2.336 -0.0623  1.1505  1.4860
13714TIP3    H262634   5.210   5.994   2.381 -1.5265 -0.3004 -0.3118
13715TIP3   OH262635   1.235   3.889  10.246  0.1688  0.9276  0.0415
13715TIP3    H162636   1.154   3.912  10.201 -0.4891  0.3455  0.9006
13715TIP3    H262637   1.283   3.835  10.183 -0.6982  0.2093 -0.0172
13716TIP3   OH262638   2.756   5.913   6.470  0.1909  0.4095 -0.3837
13716TIP3    H162639   2.674   5.940   6.511  0.9390  2.2768 -0.0062
13716TIP3    H262640   2.823   5.938   6.534  1.1493  0.1089 -1.2512
13717TIP3   OH262641   5.264   0.354  12.319 -0.3720 -0.6202 -0.4995
13717TIP3    H162642   5.250   0.283  12.256 -2.0592  1.2126 -2.3146
13717TIP3    H262643   5.353   0.340  12.351 -0.7165 -3.6672 -0.5811
13718TIP3   OH262644   0.842   3.491   2.749  0.3059  0.5567 -0.1751
13718TIP3    H162645   0.795   3.572   2.728 -3.1659 -1.3757 -0.6611
13718TIP3    H262646   0.816   3.471   2.839  1.3112  0.0749  0.0176
13719TIP3   OH262647   5.586   0.853  14.500  0.0817  0.4967 -0.0240
13719TIP3    H162648   5.626   0.829  14.417 -0.1614 -0.5187  0.1429
13719TIP3    H262649   5.622   0.940  14.520 -0.2484  0.9729 -1.4237
13720TIP3   OH262650   1.948   5.237  12.743 -0.0184 -0.6004  0.8857
13720TIP3    H162651   1.925   5.249  12.651  0.1632  0.5432  0.9734
13720TIP3    H262652   2.038   5.270  12.749 -0.9025  1.8290  1.9671
13721TIP3   OH262653   1.974   6.057  16.941  0.7740  0.0266 -0.4955
13721TIP3    H162654   1.939   6.096  17.021  1.8652 -1.2217  0.6352
13721TIP3    H262655   2.034   6.124  16.907  0.7715  0.3192  0.0602
13722TIP3   OH262656   6.040   1.090  12.772 -0.0877  0.3267  0.4699
13722TIP3    H162657   5.946   1.102  12.778 -0.3201  0.1499 -2.0120
13722TIP3    H262658   6.075   1.177  12.752  0.4957  0.6829  2.7027
13723TIP3   OH262659   6.230   6.489   2.877  0.4020 -0.2466 -0.1356
13723TIP3    H162660   6.184   6.423   2.825 -2.1296  0.2244  1.3013
13723TIP3    H262661   6.240   6.564   2.818  0.9249 -0.9895 -1.0052
13724TIP3   OH262662   4.227   3.853  16.933 -0.1158 -0.0751  0.6737
13724TIP3    H162663   4.308   3.823  16.975 -0.2073 -1.5854 -0.1815
13724TIP3    H262664   4.160   3.793  16.964 -1.0945  1.5307  1.8618
13725TIP3   OH262665   5.869   1.390  15.849 -0.6570 -0.0450  0.3177
13725TIP3    H162666   5.919   1.381  15.768 -0.6443 -1.9103  0.4936
13725TIP3    H262667   5.904   1.469  15.890  0.4804  0.0102 -0.7035
13726TIP3   OH262668   4.518   1.266  13.904 -0.0613 -0.2585  0.2319
13726TIP3    H162669   4.594   1.288  13.850  0.2230  0.8067  1.0252
13726TIP3    H262670   4.448   1.322  13.870 -0.1143 -0.2183  0.4087
13727TIP3   OH262671   6.127   2.698  11.549 -0.7309  0.8931  0.4703
13727TIP3    H162672   6.141   2.744  11.466  2.2084 -2.8052 -1.3731
13727TIP3    H262673   6.032   2.680  11.550 -1.0098  1.9213 -1.5985
13728TIP3   OH262674   5.575   0.648  13.611 -0.2987 -0.5226  0.3477
13728TIP3    H162675   5.506   0.622  13.550  0.5484  1.8081 -1.8092
13728TIP3    H262676   5.560   0.742  13.624  1.8895 -0.1627  0.5779
13729TIP3   OH262677   1.077   1.364   1.901  0.0836  0.0195 -0.3138
13729TIP3    H162678   1.051   1.278   1.936  0.6937 -0.2810 -0.5842
13729TIP3    H262679   1.100   1.347   1.810 -1.2200  0.7540 -0.7933
13730TIP3   OH262680   3.359   0.686   0.208  0.3118 -0.3480  0.0408
13730TIP3    H162681   3.442   0.662   0.250  0.1866  0.1239  0.5627
13730TIP3    H262682   3.367   0.653   0.118  0.0600 -2.5817  0.7696
13731TIP3   OH262683   5.665   1.770   5.894  0.3636  0.0169 -0.5256
13731TIP3    H162684   5.607   1.821   5.838  0.3179  0.7564  0.1814
13731TIP3    H262685   5.683   1.827   5.969  0.6526 -0.8422  0.0756
13732TIP3   OH262686   1.205   1.731  15.085  0.0181  0.1447 -0.0781
13732TIP3    H162687   1.277   1.772  15.131  1.7733 -1.3913 -1.2885
13732TIP3    H262688   1.149   1.695  15.154  0.5854  1.0652  0.8765
13733TIP3   OH262689   5.017   5.523  10.203 -0.2794  0.4574  0.3256
13733TIP3    H162690   5.042   5.614  10.217 -1.2067  0.8501 -0.5049
13733TIP3    H262691   4.934   5.513  10.250  0.1248 -0.1357  0.9311
13734TIP3   OH262692   4.301   4.776  12.289 -0.1227  0.2118 -0.3465
13734TIP3    H162693   4.389   4.771  12.324  0.3409  1.8998 -1.1381
13734TIP3    H262694   4.272   4.685  12.282  1.0928 -0.3215  1.0032
13735TIP3   OH262695   6.035   0.345  16.555 -0.4407  0.3614 -0.2608
13735TIP3    H162696   5.952   0.299  16.566 -0.4413  0.0551 -1.3892
13735TIP3    H262697   6.093   0.281  16.514 -0.5146  1.3950 -2.1009
13736TIP3   OH262698   2.017   3.170  16.243  0.1660  0.0052  0.2232
13736TIP3    H162699   1.956   3.144  16.312 -0.6325 -2.7485 -1.3679
13736TIP3    H262700   1.969   3.234  16.191 -1.0320 -1.2864 -0.3407
13737TIP3   OH262701   0.428   4.384   3.585 -0.8285  0.2083  0.7171
13737TIP3    H162702   0.501   4.375   3.523  0.5596 -0.7689  2.3949
13737TIP3    H262703   0.367   4.315   3.559 -0.8596  0.6011 -0.2997
13738TIP3   OH262704   0.454   2.393   0.047  0.5480  0.9083  0.0425
13738TIP3    H162705   0.476   2.385  -0.046 -1.2850 -0.4270 -0.3437
13738TIP3    H262706   0.376   2.338   0.058  1.0137  0.5988  2.4947
13739TIP3   OH262707   2.360   1.382   5.608  0.2050 -0.9436  0.0152
13739TIP3    H162708   2.297   1.311   5.615  1.0457 -1.7800 -0.6434
13739TIP3    H262709   2.373   1.392   5.513 -1.6227  1.6667 -0.0848
13740TIP3   OH262710   5.690   5.606  16.655  0.7469  0.0280 -0.4351
13740TIP3    H162711   5.634   5.655  16.596  1.1285  0.5306 -0.3813
13740TIP3    H262712   5.640   5.527  16.675 -0.6377  1.1750  0.8710
13741TIP3   OH262713   3.819   3.292   3.756 -0.9093  0.0113  0.6121
13741TIP3    H162714   3.807   3.254   3.843  0.9288  1.1393  1.4173
13741TIP3    H262715   3.777   3.230   3.696 -4.1274  0.2309  2.4371
13742TIP3   OH262716   6.023   4.347  12.066  0.5139 -0.1221 -0.1562
13742TIP3    H162717   6.112   4.327  12.096 -0.3620  0.2532  3.0752
13742TIP3    H262718   6.029   4.436  12.030  1.4028 -0.0240  0.2136
13743TIP3   OH262719   0.900   5.625   0.387  0.7232  0.2169  0.1122
13743TIP3    H162720   0.819   5.669   0.362  1.8003  2.2936  0.1124
13743TIP3    H262721   0.871   5.553   0.443 -1.2531 -0.4602 -1.6398
13744TIP3   OH262722   0.088   4.282   4.018  1.0669 -0.5083 -0.0048
13744TIP3    H162723   0.106   4.360   3.965 -1.3202  0.5399  0.6016
13744TIP3    H262724   0.080   4.211   3.954  3.0296 -0.2661 -0.5892
13745TIP3   OH262725   1.505   3.618  13.405 -0.4848  0.1860 -0.0105
13745TIP3    H162726   1.571   3.548  13.404 -0.0292  0.5690  1.3237
13745TIP3    H262727   1.511   3.658  13.318 -2.3450 -2.8243 -1.7085
13746TIP3   OH262728   0.167   0.027  14.033  0.0784 -0.4443 -0.3427
13746TIP3    H162729   0.120  -0.041  13.986 -0.1707  0.1009 -0.8971
13746TIP3    H262730   0.156   0.105  13.979  1.9973 -0.3927 -0.7544
13747TIP3   OH262731   5.514   1.000   1.220 -0.0410  0.2488 -0.0298
13747TIP3    H162732   5.532   1.091   1.196  1.2383  0.2216  0.7202
13747TIP3    H262733   5.583   0.978   1.283 -2.0937 -0.2656  2.2176
13748TIP3   OH262734   5.696   3.468  10.366 -0.4795 -0.0480  0.3618
13748TIP3    H162735   5.647   3.394  10.402 -0.7589 -0.7008 -1.2872
13748TIP3    H262736   5.785   3.457  10.401 -0.4668 -1.2961 -0.0334
13749TIP3   OH262737   6.700   2.709  11.126  0.1000 -1.0994  0.1925
13749TIP3    H162738   6.769   2.773  11.108  0.0498 -1.0189  0.2823
13749TIP3    H262739   6.726   2.669  11.209 -1.2011  0.6571  1.5418
13750TIP3   OH262740   2.824   3.594   1.548  0.4143 -0.5320  0.5833
13750TIP3    H162741   2.789   3.521   1.497 -0.2704 -0.4675  0.9609
13750TIP3    H262742   2.881   3.552   1.613  1.5594 -0.5949 -0.4186
13751TIP3   OH262743   0.919   0.655   6.248  0.0855 -0.2408  0.3011
13751TIP3    H162744   0.942   0.745   6.272 -2.0666  0.7980 -1.2023
13751TIP3    H262745   0.846   0.633   6.306 -1.1355  0.0137 -1.1018
13752TIP3   OH262746   6.166   4.907   1.746 -0.3749  0.3926 -0.2291
13752TIP3    H162747   6.121   4.836   1.700 -2.4314  2.4357 -1.5661
13752TIP3    H262748   6.249   4.869   1.772 -1.2310 -2.3990 -1.1920
13753TIP3   OH262749   3.078   5.932  14.986  0.5163  0.0331 -0.3593
13753TIP3    H162750   3.160   5.889  14.962  0.2124 -0.7988  0.0391
13753TIP3    H262751   3.104   6.004  15.042  0.9951 -0.0957 -0.4118
13754TIP3   OH262752   2.594   0.789  15.326 -0.0227  0.2691  0.7031
13754TIP3    H162753   2.630   0.856  15.384  0.8278 -0.0462  0.5517
13754TIP3    H262754   2.509   0.824  15.300 -0.7227  0.1270  2.6410
13755TIP3   OH262755   3.302   5.854   5.865  0.2082  0.0913  0.0523
13755TIP3    H162756   3.394   5.830   5.878  0.2767  1.0281  1.4335
13755TIP3    H262757   3.291   5.935   5.914 -1.3925 -0.0456 -0.0329
13756TIP3   OH262758   1.740   1.573   4.614  0.0734 -0.3297  0.4842
13756TIP3    H162759   1.761   1.575   4.521  0.0492  0.4648  0.4861
13756TIP3    H262760   1.664   1.515   4.620 -1.8517  1.8891 -0.4323
13757TIP3   OH262761   0.368   0.313  12.779  0.3826 -0.1253  0.1025
13757TIP3    H162762   0.409   0.237  12.736  0.7120 -0.0456  0.2706
13757TIP3    H262763   0.291   0.332  12.725 -0.0056 -0.9075  0.3588
13758TIP3   OH262764   5.909   5.785  14.451 -0.1631  0.3048 -0.4885
13758TIP3    H162765   5.843   5.836  14.497 -0.7342 -1.2444  0.4793
13758TIP3    H262766   5.886   5.693  14.468  2.1373 -0.2995 -0.2182
13759TIP3   OH262767   5.091   5.681  12.376 -0.2752  0.2134 -0.3860
13759TIP3    H162768   5.078   5.586  12.371 -1.2000  0.4016 -4.0289
13759TIP3    H262769   5.015   5.718  12.331  1.0595  2.5747 -0.8425
13760TIP3   OH262770   6.245   4.888   5.611  0.5017 -0.3092 -0.1850
13760TIP3    H162771   6.243   4.968   5.664 -0.5754 -0.9393  0.7668
13760TIP3    H262772   6.153   4.861   5.604  0.9965 -2.8606  1.7200
13761TIP3   OH262773   5.163   2.417   1.188 -0.3367  0.2017  0.0943
13761TIP3    H162774   5.162   2.444   1.280 -0.1175 -0.3124  0.2550
13761TIP3    H262775   5.252   2.434   1.159 -0.4053  0.3614 -0.0225
13762TIP3   OH262776   2.076   5.718   2.163 -0.0041  0.5268 -0.2465
13762TIP3    H162777   2.067   5.669   2.082  2.3466 -0.3544 -0.0666
13762TIP3    H262778   2.168   5.744   2.165 -0.2004  1.2548  1.7165
13763TIP3   OH262779   4.480   5.694   4.491 -0.8755 -0.0278  0.4547
13763TIP3    H162780   4.517   5.764   4.544  3.0891 -0.6067 -1.1405
13763TIP3    H262781   4.525   5.702   4.406 -2.2184 -2.8995 -0.6714
13764TIP3   OH262782   4.607   0.462  10.941 -0.4306  0.0337  0.4269
13764TIP3    H162783   4.604   0.551  10.906  0.4396 -0.6328 -1.5124
13764TIP3    H262784   4.525   0.422  10.910  0.0430 -0.3669 -0.3433
13765TIP3   OH262785   5.599   2.327  16.145  0.0792  0.0600 -0.2298
13765TIP3    H162786   5.604   2.248  16.199  0.2913 -1.0922 -1.8805
13765TIP3    H262787   5.520   2.316  16.093 -0.1457  1.1854 -0.1640
13766TIP3   OH262788   0.534   0.451  14.597  0.3702 -0.4424 -0.2753
13766TIP3    H162789   0.509   0.371  14.643  0.6475 -1.6155 -2.0505
13766TIP3    H262790   0.481   0.451  14.517 -2.0732  2.8945  1.0855
13767TIP3   OH262791   2.173   5.885  12.995 -0.3591  0.4172  0.2534
13767TIP3    H162792   2.260   5.913  13.023 -0.4963  0.7173  0.3886
13767TIP3    H262793   2.150   5.947  12.925  0.0494 -0.4227 -0.6522
13768TIP3   OH262794   1.191   4.468  16.434 -0.2114 -0.0818  0.2345
13768TIP3    H162795   1.096   4.468  16.444 -0.3350 -0.2679 -0.7814
13768TIP3    H262796   1.207   4.516  16.352  0.5425 -0.3403  0.2175
13769TIP3   OH262797   0.358   1.085   5.668 -0.3742 -0.0953 -0.8299
13769TIP3    H162798   0.384   1.057   5.580  1.9310  0.2716 -0.3392
13769TIP3    H262799   0.437   1.125   5.704 -0.9794 -1.0088  1.7193
13770TIP3   OH262800   0.509   2.754   0.918 -0.2752  0.1266  0.2826
13770TIP3    H162801   0.491   2.829   0.861  0.3123  1.5206  1.8460
13770TIP3    H262802   0.589   2.715   0.883 -0.5578  0.2618 -0.5167
13771TIP3   OH262803   5.301   2.400   3.549  0.3750 -0.0519  0.1810
13771TIP3    H162804   5.241   2.446   3.607  0.3205 -1.2725  1.1550
13771TIP3    H262805   5.346   2.337   3.607  1.4130 -0.2676 -0.8267
13772TIP3   OH262806   5.897   3.748  11.518  0.4157  0.3743 -0.1796
13772TIP3    H162807   5.883   3.829  11.566  0.8044  0.1553  0.3083
13772TIP3    H262808   5.992   3.738  11.514  0.3833  0.1801 -0.6459
13773TIP3   OH262809   1.400   6.821   6.473 -0.3145  0.2900  0.2686
13773TIP3    H162810   1.370   6.895   6.421  0.4414 -0.4958 -1.3746
13773TIP3    H262811   1.483   6.795   6.433  1.1620  0.6204  2.8973
13774TIP3   OH262812   5.981   3.924  12.180  0.4198  0.0441  0.1183
13774TIP3    H162813   5.944   3.837  12.196  1.1029 -0.4361 -0.8198
13774TIP3    H262814   6.070   3.907  12.150  0.9933  1.1219  1.0903
13775TIP3   OH262815   5.555   2.878   5.468 -0.0765 -0.1253 -0.2915
13775TIP3    H162816   5.557   2.870   5.373  0.7800 -0.2140 -0.2758
13775TIP3    H262817   5.538   2.789   5.499  0.9215 -0.3470 -0.3402
13776TIP3   OH262818   1.948   4.659   4.869  0.2930 -0.1948  0.4297
13776TIP3    H162819   1.858   4.627   4.873  0.0769  0.3974  0.3179
13776TIP3    H262820   1.945   4.733   4.809  1.0440 -0.7973 -0.3837
13777TIP3   OH262821   6.533   4.643  13.688  0.4640  0.2850  0.2840
13777TIP3    H162822   6.569   4.725  13.720  1.1043 -1.3262  4.3941
13777TIP3    H262823   6.452   4.632  13.737  0.0407 -1.2288 -0.6846
13778TIP3   OH262824   6.366   5.472   0.692 -0.4405 -0.4081  0.2036
13778TIP3    H162825   6.300   5.540   0.704  0.0773 -0.2875  3.1062
13778TIP3    H262826   6.330   5.396   0.739  0.3175 -1.1968 -0.4677
13779TIP3   OH262827   3.114   1.781  16.785 -0.6742 -0.1639  0.7398
13779TIP3    H162828   3.032   1.809  16.745  0.7436  2.3564 -0.6997
13779TIP3    H262829   3.100   1.690  16.808 -4.6513  0.7027  2.7069
13780TIP3   OH262830   4.373   1.726  14.749 -0.8562 -0.2131  0.5480
13780TIP3    H162831   4.333   1.809  14.775 -1.0531  0.7956 -2.5006
13780TIP3    H262832   4.334   1.706  14.664  2.5185 -0.9778 -1.0199
13781TIP3   OH262833   0.806   6.186  10.829  0.3448  0.4794 -0.6888
13781TIP3    H162834   0.714   6.193  10.854  0.8391  1.3909  1.0134
13781TIP3    H262835   0.807   6.209  10.736 -1.1112  0.6185 -0.6962
13782TIP3   OH262836   2.415   2.877  10.865 -0.4977  0.3459 -0.1378
13782TIP3    H162837   2.500   2.899  10.827 -1.0924  0.1485 -1.6175
13782TIP3    H262838   2.374   2.818  10.802 -2.0674  1.0417  0.1813
13783TIP3   OH262839   3.770   1.340  16.042  0.0409  0.2343  0.0872
13783TIP3    H162840   3.840   1.369  16.100  0.2020  0.1911 -0.0856
13783TIP3    H262841   3.808   1.267  15.993  0.7424  1.8093 -1.8537
13784TIP3   OH262842   4.502   5.282  12.318 -0.2055 -0.1466  0.6697
13784TIP3    H162843   4.495   5.192  12.286  0.8368  0.3141 -0.9957
13784TIP3    H262844   4.418   5.298  12.362 -0.4226 -1.8949  0.9834
13785TIP3   OH262845   5.018   3.121  16.919  0.4376 -0.3775  0.2912
13785TIP3    H162846   5.042   3.031  16.898  0.6378 -0.4311  0.7474
13785TIP3    H262847   5.088   3.174  16.880 -0.0434 -0.3675 -0.5842
13786TIP3   OH262848   6.368   1.692  16.292 -0.2265 -0.1745  0.0573
13786TIP3    H162849   6.341   1.659  16.206 -0.4618 -0.9351  0.4116
13786TIP3    H262850   6.420   1.770  16.273 -1.6873  0.6561 -0.6971
13787TIP3   OH262851   5.433   5.185  13.141  0.3975 -0.2521  0.3835
13787TIP3    H162852   5.488   5.251  13.182  0.0829  0.0684  0.2913
13787TIP3    H262853   5.344   5.218  13.151  0.3681  0.2453 -1.2719
13788TIP3   OH262854   5.950   2.434   0.971  0.5115 -0.0788  0.3090
13788TIP3    H162855   6.032   2.455   1.017  1.1356  0.0458 -0.8117
13788TIP3    H262856   5.975   2.366   0.909 -0.5862 -1.1155  0.9801
13789TIP3   OH262857   5.241   1.341   2.763  0.8394 -0.4995  0.0830
13789TIP3    H162858   5.323   1.352   2.811  1.7852  0.8049 -1.7205
13789TIP3    H262859   5.245   1.252   2.728  1.8613 -0.2045 -0.5956
13790TIP3   OH262860   2.578   2.263  13.059  0.3994 -0.1507  0.2006
13790TIP3    H162861   2.503   2.300  13.013  1.1419 -0.8957 -1.7410
13790TIP3    H262862   2.549   2.177  13.088  0.2101 -0.0592  0.2788
13791TIP3   OH262863   4.852   6.646   5.127  0.3955 -0.1359  0.5378
13791TIP3    H162864   4.855   6.687   5.213 -3.3618 -0.5657  1.0401
13791TIP3    H262865   4.796   6.703   5.075 -0.6187 -1.8589 -0.3600
13792TIP3   OH262866   5.049   6.594  11.846  0.3886 -0.4124  0.2899
13792TIP3    H162867   5.125   6.594  11.904 -0.0849  0.0308  0.9130
13792TIP3    H262868   5.071   6.658  11.778  0.5821 -0.2910  0.4648
13793TIP3   OH262869   1.508   1.310  13.226  0.5176 -0.2385  0.3612
13793TIP3    H162870   1.430   1.362  13.211  0.0700 -1.0276 -0.0793
13793TIP3    H262871   1.476   1.222  13.247  1.2839 -0.6910 -0.2758
13794TIP3   OH262872   3.833   3.579   2.916  0.2065 -0.2127 -0.1589
13794TIP3    H162873   3.863   3.534   2.837  3.0526  1.1331  0.0414
13794TIP3    H262874   3.870   3.528   2.988  0.3643  0.3840  0.1872
13795TIP3   OH262875   5.321   0.845   1.321  0.2532 -0.5811 -0.2770
13795TIP3    H162876   5.352   0.929   1.288  1.1005 -0.4280  0.8554
13795TIP3    H262877   5.380   0.824   1.393 -1.5756 -0.8379  1.2262
13796TIP3   OH262878   2.365   6.403  14.030  0.4250 -0.3854 -0.1358
13796TIP3    H162879   2.430   6.473  14.044  1.1007 -0.9314 -0.5215
13796TIP3    H262880   2.417   6.324  14.017 -0.3125 -0.7540 -0.9125
13797TIP3   OH262881   3.452   3.097   0.693  0.3402 -0.3117 -0.0009
13797TIP3    H162882   3.357   3.084   0.685  0.1396  0.3349  1.0890
13797TIP3    H262883   3.484   3.015   0.730  0.0677 -0.2209  0.4489
13798TIP3   OH262884   5.839   5.629  14.801  0.2714  0.4564 -0.1537
13798TIP3    H162885   5.865   5.612  14.892  2.0737 -0.9499 -0.8769
13798TIP3    H262886   5.906   5.688  14.767 -0.0566  0.4936 -0.7530
13799TIP3   OH262887   1.259   1.199   4.527 -0.9988  0.9211 -0.1167
13799TIP3    H162888   1.305   1.193   4.611  1.0126 -0.1738 -1.2194
13799TIP3    H262889   1.190   1.133   4.533  0.4097 -0.6072 -0.0143
13800TIP3   OH262890   6.019   0.350   3.497  0.4108  0.2840  0.2550
13800TIP3    H162891   6.097   0.304   3.529  0.3270  0.7752  1.2040
13800TIP3    H262892   5.967   0.365   3.575  0.9817  3.0354  0.2166
13801TIP3   OH262893   4.305   0.193  16.331  0.0113  0.0848  0.5159
13801TIP3    H162894   4.312   0.258  16.262 -0.6067 -0.6604 -0.2717
13801TIP3    H262895   4.226   0.216  16.379  0.6619  0.8436  1.2475
13802TIP3   OH262896   5.411   6.781  15.957  0.1826 -0.0735 -0.0515
13802TIP3    H162897   5.458   6.831  16.023 -0.7785  1.4231 -0.4629
13802TIP3    H262898   5.460   6.796  15.876 -0.0096  0.0801 -0.1415
13803TIP3   OH262899   4.694   6.627  12.438  0.0912  0.1191 -0.2323
13803TIP3    H162900   4.740   6.632  12.354 -0.0135 -0.9900 -0.3601
13803TIP3    H262901   4.646   6.710  12.444 -0.5382 -0.1162 -1.6375
13804TIP3   OH262902   4.157   5.655   5.860  0.6637  0.1905  0.0250
13804TIP3    H162903   4.064   5.633   5.858  1.0418 -1.6732  0.7410
13804TIP3    H262904   4.192   5.622   5.777  1.1741 -1.8029  0.9677
13805TIP3   OH262905   2.538   2.249   1.897  0.2255 -0.1598 -0.1244
13805TIP3    H162906   2.478   2.190   1.941  0.7885  0.5785  1.7567
13805TIP3    H262907   2.482   2.304   1.842 -0.6401 -0.4878  0.4073
13806TIP3   OH262908   5.542   2.410  14.353 -0.3045  0.0719  0.3233
13806TIP3    H162909   5.615   2.471  14.367 -0.0062 -0.2794  0.3223
13806TIP3    H262910   5.469   2.449  14.400 -0.0497  0.3140  0.5233
13807TIP3   OH262911   3.293   0.596  15.769  0.3429 -0.3944 -0.5636
13807TIP3    H162912   3.341   0.552  15.698  2.4254 -0.0674  0.5879
13807TIP3    H262913   3.336   0.680  15.779  0.5654 -0.7255  1.5698
13808TIP3   OH262914   0.016   5.359   3.447 -0.0347 -0.3072  0.0863
13808TIP3    H162915   0.102   5.388   3.417 -0.0647  0.4640  0.7181
13808TIP3    H262916   0.011   5.268   3.418  1.1718 -0.5013  0.4051
13809TIP3   OH262917   1.815   4.746   1.138 -0.4046 -0.5752  0.3544
13809TIP3    H162918   1.738   4.694   1.161 -0.8916  0.3487  0.8533
13809TIP3    H262919   1.876   4.734   1.211  0.6994 -2.6938 -0.8010
13810TIP3   OH262920   5.693   6.413   4.701 -0.3545 -0.3199  0.3675
13810TIP3    H162921   5.745   6.346   4.745  0.9666  0.5126  0.1406
13810TIP3    H262922   5.737   6.426   4.617  0.1364  1.6246  0.8641
13811TIP3   OH262923   0.680   5.094  15.508 -0.2929  0.1550  0.3731
13811TIP3    H162924   0.682   5.140  15.592  1.0157  2.7997 -0.9862
13811TIP3    H262925   0.590   5.107  15.476 -0.4114  0.2959  0.7558
13812TIP3   OH262926   4.948   4.894  12.520 -0.0511  0.0859 -0.2956
13812TIP3    H162927   5.042   4.885  12.505 -0.2634 -0.6091 -1.2461
13812TIP3    H262928   4.906   4.855  12.443 -1.1986 -3.6563  1.9537
13813TIP3   OH262929   6.068   1.188   2.390  0.7253  0.0141  0.2632
13813TIP3    H162930   6.010   1.128   2.342  0.7863  0.8666 -0.9253
13813TIP3    H262931   6.145   1.136   2.410 -0.5170 -1.2465  2.1447
13814TIP3   OH262932   0.945   4.591  16.423  0.7863 -0.8575 -0.2957
13814TIP3    H162933   0.965   4.655  16.491 -0.1479  0.5920 -1.3015
13814TIP3    H262934   0.902   4.519  16.468  0.7471 -0.2146  0.7153
13815TIP3   OH262935   2.062   2.673  11.622  0.0941 -0.6369  0.0917
13815TIP3    H162936   2.052   2.737  11.693  0.4593  0.2990 -0.6677
13815TIP3    H262937   2.145   2.697  11.581 -0.7730 -0.2430 -1.5213
13816TIP3   OH262938   0.687   1.670  15.211  0.0481  0.1822  0.4280
13816TIP3    H162939   0.762   1.681  15.153  0.7051  0.3139  1.2840
13816TIP3    H262940   0.648   1.587  15.184  0.5258  0.0958 -0.0077
13817TIP3   OH262941   3.335   6.145  16.553 -0.4687 -0.2261 -0.6409
13817TIP3    H162942   3.278   6.204  16.604 -0.9190  1.1436 -2.6140
13817TIP3    H262943   3.386   6.203  16.498  1.0790 -1.5949 -0.7236
13818TIP3   OH262944   0.940   0.761  11.549 -0.4867  0.2876 -0.2478
13818TIP3    H162945   0.977   0.832  11.603 -0.5350 -0.4895  0.8414
13818TIP3    H262946   0.978   0.681  11.585 -2.0710 -0.4238 -0.0614
13819TIP3   OH262947   2.564   1.125   5.990  0.0417  0.2753 -0.2806
13819TIP3    H162948   2.576   1.100   6.081 -0.6963  1.3429  0.1292
13819TIP3    H262949   2.644   1.174   5.968  0.7760 -1.0399 -0.6032
13820TIP3   OH262950   2.673   6.153   3.768  0.5902 -0.0011 -0.1903
13820TIP3    H162951   2.640   6.227   3.718  1.1433  1.1203  1.0357
13820TIP3    H262952   2.733   6.192   3.832  1.4065 -1.5811  0.0605
13821TIP3   OH262953   5.764   1.632   1.491 -0.3073  0.5259 -0.0200
13821TIP3    H162954   5.819   1.701   1.528 -1.1980  1.1425  0.2015
13821TIP3    H262955   5.677   1.672   1.487 -0.6793 -0.3366 -0.6074
13822TIP3   OH262956   5.545   0.360  12.496  0.5379 -0.4026  0.3715
13822TIP3    H162957   5.541   0.274  12.454 -1.6505 -0.1096 -0.0948
13822TIP3    H262958   5.529   0.341  12.589 -0.9832 -0.4182  0.1211
13823TIP3   OH262959   2.379   3.352   3.893 -0.2293 -0.2713 -0.1759
13823TIP3    H162960   2.421   3.328   3.810  1.7337 -2.8541  1.4004
13823TIP3    H262961   2.450   3.390   3.945 -0.9681 -0.3595  0.9153
13824TIP3   OH262962   3.801   3.533   0.323 -0.2049  0.3784 -0.3041
13824TIP3    H162963   3.843   3.471   0.381 -2.4487 -0.8604  0.1208
13824TIP3    H262964   3.807   3.493   0.236 -1.3008 -0.3000 -0.0905
13825TIP3   OH262965   0.568   5.943  14.482 -0.0987 -0.1654 -0.2905
13825TIP3    H162966   0.476   5.936  14.458 -0.2962  2.0098 -0.2987
13825TIP3    H262967   0.614   5.897  14.412 -1.0939  0.0284 -1.1010
13826TIP3   OH262968   3.021   2.380  11.197 -0.2351  0.0821 -0.4956
13826TIP3    H162969   3.078   2.357  11.124 -1.2057 -0.3206 -1.1444
13826TIP3    H262970   2.993   2.470  11.179 -2.0934 -0.6962 -1.7298
13827TIP3   OH262971   4.207   0.481  14.467  0.3009  0.1314 -0.3641
13827TIP3    H162972   4.291   0.482  14.512  0.4621 -1.3668 -0.5776
13827TIP3    H262973   4.151   0.425  14.522 -0.6234  1.2419 -0.1315
13828TIP3   OH262974   4.409   3.625   5.166 -0.1615  0.3526 -0.0716
13828TIP3    H162975   4.377   3.541   5.200  2.5652 -1.3289 -1.2921
13828TIP3    H262976   4.459   3.662   5.239  0.4771 -0.2045 -0.2118
13829TIP3   OH262977   4.574   5.793  10.550  0.0344 -0.4285  0.5297
13829TIP3    H162978   4.526   5.724  10.597 -0.7102  0.3341  0.9179
13829TIP3    H262979   4.631   5.746  10.489 -1.5299 -1.3575 -0.2647
13830TIP3   OH262980   5.882   0.173   0.366  0.5011  0.2969  0.5806
13830TIP3    H162981   5.811   0.233   0.345 -0.3606 -1.0269 -0.4286
13830TIP3    H262982   5.866   0.148   0.457  0.4904  1.0652  0.7962
13831TIP3   OH262983   3.714   6.820  16.901 -0.6390  0.2440 -0.5380
13831TIP3    H162984   3.763   6.758  16.846  1.5882  1.1009  0.3742
13831TIP3    H262985   3.747   6.805  16.989  0.0982  2.7885 -0.3098
13832TIP3   OH262986   4.618   1.332   3.593 -0.1057  0.5114 -0.0027
13832TIP3    H162987   4.645   1.248   3.555 -1.0026  1.0346 -1.8689
13832TIP3    H262988   4.534   1.313   3.636  0.3182  0.1969  0.7160
13833TIP3   OH262989   5.024   1.907   5.750 -0.7874 -0.2131  0.2963
13833TIP3    H162990   5.060   1.976   5.693 -0.5131 -0.9880 -0.4892
13833TIP3    H262991   5.101   1.869   5.793 -0.6500 -1.6469 -1.1320
13834TIP3   OH262992   1.024   1.648  11.357  0.3502 -0.2739 -0.1701
13834TIP3    H162993   1.087   1.582  11.328  0.7156  0.5813 -1.3976
13834TIP3    H262994   0.972   1.668  11.278 -0.6034 -0.0207  0.5004
13835TIP3   OH262995   1.368   3.381  10.992  0.3805  0.3532 -0.4625
13835TIP3    H162996   1.442   3.437  10.968  0.8114 -0.5487 -1.3204
13835TIP3    H262997   1.403   3.321  11.058 -0.7658  2.7315  2.5664
13836TIP3   OH262998   3.608   3.100  15.962 -0.1754 -0.3528 -0.2802
13836TIP3    H162999   3.539   3.075  16.023 -1.5867  0.6528 -1.4047
13836TIP3    H263000   3.618   3.025  15.904 -1.6654  0.1406 -1.2424
13837TIP3   OH263001   3.468   3.624  10.969 -0.1749  0.1392  0.6307
13837TIP3    H163002   3.540   3.568  10.939 -0.1491  0.2488  0.4891
13837TIP3    H263003   3.412   3.633  10.892  0.4123  1.2530  0.3198
13838TIP3   OH263004   0.853   1.390   6.183  0.1482 -0.3974  0.3068
13838TIP3    H163005   0.912   1.453   6.142  1.3942 -1.4753  0.3725
13838TIP3    H263006   0.766   1.419   6.157  0.7749  0.3625 -1.0754
13839TIP3   OH263007   3.785   4.848  14.043  0.1033 -0.2154 -0.0414
13839TIP3    H163008   3.807   4.803  14.125  0.8273 -1.4893 -0.8948
13839TIP3    H263009   3.856   4.912  14.032 -0.7455  0.9429  1.0054
13840TIP3   OH263010   6.292   0.795  15.713 -0.1321 -0.2362  0.0049
13840TIP3    H163011   6.380   0.768  15.685 -0.5668  0.0752 -1.8305
13840TIP3    H263012   6.259   0.721  15.763  1.3505 -0.1552  1.1634
13841TIP3   OH263013   1.269   5.433   0.580  0.8250  0.1043 -0.0896
13841TIP3    H163014   1.252   5.523   0.554 -0.9427  0.0159  0.6595
13841TIP3    H263015   1.244   5.381   0.504  1.3644  0.1973 -0.3374
13842TIP3   OH263016   4.940   5.789  10.556 -0.6539 -0.3721 -0.3030
13842TIP3    H163017   4.932   5.816  10.648 -0.5321  0.6803 -0.5873
13842TIP3    H263018   4.968   5.868  10.510 -1.1899 -0.7533 -1.3290
13843TIP3   OH263019   3.462   6.354  16.855 -0.6599  0.2405 -0.3334
13843TIP3    H163020   3.413   6.344  16.773 -2.6395 -0.2352  0.8434
13843TIP3    H263021   3.492   6.266  16.876 -0.7716  0.2356 -0.1912
13844TIP3   OH263022   3.663   6.676   4.073  0.0971  0.1675 -0.0455
13844TIP3    H163023   3.715   6.595   4.076  1.1877  0.8577  0.3259
13844TIP3    H263024   3.603   6.663   4.000  1.4461 -0.2849 -1.1084
13845TIP3   OH263025   3.245   2.116   2.756  0.3855 -0.1771 -0.7888
13845TIP3    H163026   3.293   2.177   2.813 -0.5622  1.5537 -1.7459
13845TIP3    H263027   3.201   2.173   2.692 -1.8160 -1.7816 -0.7982
13846TIP3   OH263028   3.794   4.074  15.434  0.1071 -0.1530  0.1768
13846TIP3    H163029   3.747   4.145  15.477  2.1546  0.9966  0.6488
13846TIP3    H263030   3.885   4.087  15.459  0.6880 -2.3952 -0.5240
13847TIP3   OH263031   1.370   5.512   4.651  0.2821 -0.1961 -0.1365
13847TIP3    H163032   1.346   5.446   4.586  1.6884  1.0280 -1.9965
13847TIP3    H263033   1.460   5.491   4.674  0.0846 -0.0775  0.8062
13848TIP3   OH263034   0.806   5.433  11.271  0.1487 -0.7630  0.5458
13848TIP3    H163035   0.783   5.376  11.345  0.7601 -3.8617 -1.4779
13848TIP3    H263036   0.723   5.451  11.227  0.1038 -1.2298  0.4395
13849TIP3   OH263037   5.074   6.212   2.096  0.0661 -0.0837 -0.2965
13849TIP3    H163038   5.098   6.147   2.162 -0.8114 -0.9770 -0.8219
13849TIP3    H263039   5.010   6.268   2.140 -1.0237 -1.0847 -0.5631
13850TIP3   OH263040   4.532   3.944  17.043 -0.9107  0.0342  0.5186
13850TIP3    H163041   4.470   3.923  16.974 -0.8680 -1.1029  0.8023
13850TIP3    H263042   4.618   3.929  17.004 -0.6287  3.4577 -0.5010
13851TIP3   OH263043   2.005   1.839  14.206  0.0995 -0.1373  0.0855
13851TIP3    H163044   1.960   1.844  14.122 -0.6211  0.2484  0.4815
13851TIP3    H263045   2.058   1.759  14.201 -2.5921 -2.1170  0.5173
13852TIP3   OH263046   5.363   3.821  10.191 -0.3979  0.3274  0.4105
13852TIP3    H163047   5.367   3.910  10.158 -0.9896  0.7372  1.4287
13852TIP3    H263048   5.277   3.812  10.230 -0.5186 -0.8400 -0.0554
13853TIP3   OH263049   1.822   0.387   1.586 -0.2362 -0.1542 -0.3601
13853TIP3    H163050   1.886   0.329   1.546  0.5371  0.4813 -0.0692
13853TIP3    H263051   1.751   0.330   1.613  2.1564 -1.6450  3.5084
13854TIP3   OH263052   5.930   1.925   1.764 -0.2032  0.2705 -0.1483
13854TIP3    H163053   5.864   1.952   1.700  0.6917  0.9482 -0.8065
13854TIP3    H263054   5.973   1.850   1.723 -0.1333  0.2242  0.0087
13855TIP3   OH263055   6.295   3.858  13.270  0.1891  0.0071  0.0062
13855TIP3    H163056   6.298   3.915  13.347 -1.6462  1.1173 -0.6750
13855TIP3    H263057   6.201   3.844  13.254  0.5254 -0.2910 -1.9571
13856TIP3   OH263058   4.377   2.197   2.521 -0.2171  0.0454 -0.6117
13856TIP3    H163059   4.417   2.187   2.435  2.1483 -2.3109  0.5799
13856TIP3    H263060   4.448   2.232   2.576 -0.8723 -0.8599  0.8645
13857TIP3   OH263061   4.100   1.908   4.458  0.5693  0.3744  0.0901
13857TIP3    H163062   4.068   1.932   4.545  2.1557 -0.6511  1.0000
13857TIP3    H263063   4.073   1.817   4.447  1.2250  0.1906 -0.0556
13858TIP3   OH263064   2.148   6.661  15.379 -0.4848  0.0003 -0.3892
13858TIP3    H163065   2.098   6.615  15.311 -2.4507  0.4179  0.7274
13858TIP3    H263066   2.189   6.734  15.332  0.4501 -1.2562 -1.6318
13859TIP3   OH263067   3.787   6.830   0.065  0.4392 -0.0789 -0.3413
13859TIP3    H163068   3.831   6.870   0.140  0.9300  0.3197 -0.8359
13859TIP3    H263069   3.694   6.845   0.081  0.5659  0.3890 -0.0262
13860TIP3   OH263070   4.192   2.502   0.411 -0.1024  0.1405  0.0777
13860TIP3    H163071   4.206   2.427   0.469 -0.9375  0.4661  0.7070
13860TIP3    H263072   4.166   2.573   0.468  0.6772  0.9387 -0.5168
13861TIP3   OH263073   4.171   1.362   2.087 -0.4596  0.5470 -0.5296
13861TIP3    H163074   4.255   1.391   2.122 -0.4578 -0.5853  0.4807
13861TIP3    H263075   4.170   1.394   1.997  2.0057 -1.1549 -1.2917
13862TIP3   OH263076   6.825   4.362   5.235  0.0568  0.1916 -0.3993
13862TIP3    H163077   6.742   4.390   5.273  0.4660  0.3432  0.4135
13862TIP3    H263078   6.801   4.306   5.162 -0.7616  0.4824 -0.3628
13863TIP3   OH263079   0.229   1.672  12.044  0.2539  0.0214  0.1950
13863TIP3    H163080   0.237   1.737  12.113 -0.1859 -0.9041  1.1374
13863TIP3    H263081   0.138   1.643  12.048  0.0064  0.5228 -1.3009
13864TIP3   OH263082   5.571   1.533   4.142 -0.1249 -0.0884 -0.1772
13864TIP3    H163083   5.648   1.530   4.199 -0.9065 -0.5537  0.8931
13864TIP3    H263084   5.602   1.576   4.062  0.9265  0.8961  0.7164
13865TIP3   OH263085   5.044   5.645  15.217  0.0365 -0.3744  0.2479
13865TIP3    H163086   5.044   5.634  15.122 -1.2340  0.5873  0.1121
13865TIP3    H263087   5.056   5.557  15.251 -0.6453 -0.8964 -0.8086
13866TIP3   OH263088   1.200   4.314  12.843  0.2579  0.4438  0.1057
13866TIP3    H163089   1.247   4.363  12.912  0.2402  0.2509  0.2551
13866TIP3    H263090   1.196   4.375  12.769 -0.9726  1.1894  0.7500
13867TIP3   OH263091   4.839   2.195   5.090  0.3116  0.3041  0.0858
13867TIP3    H163092   4.910   2.231   5.144  1.8718 -1.4032 -0.7224
13867TIP3    H263093   4.792   2.136   5.149  0.7750 -0.0428  0.1093
13868TIP3   OH263094   2.717   4.502   6.164  0.0165 -0.2944 -0.8293
13868TIP3    H163095   2.683   4.552   6.238  0.8863  0.9924 -1.2601
13868TIP3    H263096   2.664   4.422   6.163  0.2227 -0.5195  1.3815
13869TIP3   OH263097   3.678   0.326  13.674 -0.5871  0.1293  0.7856
13869TIP3    H163098   3.661   0.284  13.589  3.3192 -0.8008  0.2664
13869TIP3    H263099   3.712   0.255  13.729  1.5196  1.5982  1.5046
13870TIP3   OH263100   4.018   1.846  14.232 -0.1572 -0.1629  0.6128
13870TIP3    H163101   4.031   1.915  14.167  1.0302 -1.4637 -0.6049
13870TIP3    H263102   4.045   1.885  14.315 -0.2766  1.0702  0.0913
13871TIP3   OH263103   0.477   5.421  15.655 -0.1988 -0.9899  0.1609
13871TIP3    H163104   0.533   5.347  15.680 -0.5866 -0.6165  2.2944
13871TIP3    H263105   0.424   5.438  15.732 -1.9795 -0.1304 -1.1838
13872TIP3   OH263106   0.927   5.505  12.212  0.0343 -0.5198 -0.1611
13872TIP3    H163107   0.947   5.562  12.137  0.4641  1.5987  1.4806
13872TIP3    H263108   0.928   5.417  12.175 -0.2132  0.4581 -2.7414
13873TIP3   OH263109   2.671   2.472   0.108  0.0581 -0.6318  0.3774
13873TIP3    H163110   2.736   2.467   0.178  0.3749 -1.0748  0.0538
13873TIP3    H263111   2.588   2.449   0.150 -0.0577  0.7906  0.9945
13874TIP3   OH263112   0.183   2.675  16.205  0.9570 -0.1624 -0.2053
13874TIP3    H163113   0.179   2.741  16.275 -1.0453  1.4183 -1.6973
13874TIP3    H263114   0.127   2.604  16.236  1.4144 -0.2340  0.4899
13875TIP3   OH263115   2.317   5.850   0.580  0.2023 -0.3052 -0.1280
13875TIP3    H163116   2.245   5.896   0.538 -1.3336 -0.3856  2.2106
13875TIP3    H263117   2.325   5.767   0.532 -0.5941  0.1295 -1.0333
13876TIP3   OH263118   4.687   5.500  15.068 -0.4723 -0.6766 -0.6596
13876TIP3    H163119   4.684   5.569  15.001 -0.8361 -0.7101 -0.6821
13876TIP3    H263120   4.685   5.419  15.018  2.5359 -0.7976 -0.8007
13877TIP3   OH263121   4.002   1.294   1.167 -0.3934 -0.3274 -0.2510
13877TIP3    H163122   3.952   1.280   1.086 -1.0221  0.7112 -0.0639
13877TIP3    H263123   3.973   1.380   1.198  1.0692  0.0383  0.1931
13878TIP3   OH263124   1.291   0.860  14.423  0.4754  0.3747  0.0979
13878TIP3    H163125   1.256   0.925  14.362  2.2894  0.6553 -0.7402
13878TIP3    H263126   1.243   0.780  14.405 -0.8399  1.1244  0.1767
13879TIP3   OH263127   6.642   0.256   5.861  0.6437  0.0770 -0.3907
13879TIP3    H163128   6.583   0.184   5.837 -0.2522  0.2601  1.0800
13879TIP3    H263129   6.728   0.227   5.834  0.1895 -1.2323 -0.5155
13880TIP3   OH263130   6.031   2.384  15.231 -0.0875  0.0191 -0.0200
13880TIP3    H163131   6.038   2.356  15.322  2.8860 -1.3302 -0.5538
13880TIP3    H263132   6.065   2.311  15.180 -0.0092  1.4191 -2.1069
13881TIP3   OH263133   5.806   2.187  12.261 -0.0837  0.0938 -0.0093
13881TIP3    H163134   5.713   2.165  12.261 -0.4401  1.3453  2.1997
13881TIP3    H263135   5.817   2.247  12.335  2.5426 -0.2231 -0.0406
13882TIP3   OH263136   1.231   2.718  14.810  0.3464  0.2339  0.3071
13882TIP3    H163137   1.257   2.725  14.902  1.0158  1.1373  0.0651
13882TIP3    H263138   1.294   2.773  14.764 -0.1153 -0.0482 -0.6691
13883TIP3   OH263139   2.841   2.759  16.940  0.8472  0.7032 -0.3750
13883TIP3    H163140   2.823   2.765  17.034 -0.5804  1.8433 -0.6739
13883TIP3    H263141   2.909   2.693  16.932 -1.0929 -1.6640  1.2394
13884TIP3   OH263142   0.404   4.189   5.396 -0.4104 -0.3167 -0.1820
13884TIP3    H163143   0.346   4.195   5.473  1.8632  1.3368  1.5736
13884TIP3    H263144   0.394   4.274   5.352  0.0445 -0.3224 -0.3082
13885TIP3   OH263145   6.582   0.376   3.730  0.0383  0.1172 -0.4473
13885TIP3    H163146   6.663   0.417   3.763 -0.0110  2.3820 -2.8518
13885TIP3    H263147   6.608   0.336   3.647 -1.3716  1.2619 -1.4755
13886TIP3   OH263148   0.493   3.052  12.523 -0.2351 -0.5368  0.0240
13886TIP3    H163149   0.568   2.994  12.536  1.0573  0.5652 -2.1742
13886TIP3    H263150   0.428   2.997  12.479  0.1604 -0.8722 -0.1479
13887TIP3   OH263151   1.202   6.641  12.592 -0.2356  0.1828  0.2382
13887TIP3    H163152   1.271   6.577  12.614 -2.8378 -2.7966  0.4027
13887TIP3    H263153   1.163   6.663  12.676 -1.4199 -0.5897 -0.0831
13888TIP3   OH263154   5.760   2.326  10.404 -0.1588 -0.1967 -0.4459
13888TIP3    H163155   5.744   2.385  10.477  1.1168 -1.9532  1.3593
13888TIP3    H263156   5.741   2.239  10.439  0.3583 -1.0788 -2.2435
13889TIP3   OH263157   1.931   0.383  15.432  0.0825 -0.5784  0.2979
13889TIP3    H163158   1.872   0.437  15.484  0.9644  1.5136 -0.7629
13889TIP3    H263159   1.996   0.351  15.495 -0.0054  0.2661  0.8310
13890TIP3   OH263160   2.593   1.631  16.694 -0.4583  0.2121  0.4062
13890TIP3    H163161   2.521   1.582  16.654  0.2262  0.1437 -0.7914
13890TIP3    H263162   2.585   1.720  16.658  0.3314  0.0765 -0.1404
13891TIP3   OH263163   1.442   5.345  13.102 -0.1852 -0.2059  0.0983
13891TIP3    H163164   1.471   5.261  13.067 -0.6465 -0.0981 -0.5589
13891TIP3    H263165   1.437   5.403  13.026 -0.3542  0.2751  0.4695
13892TIP3   OH263166   5.172   4.873   4.882 -0.2487  0.2421 -0.0464
13892TIP3    H163167   5.097   4.895   4.937 -0.0437 -0.5052  0.5568
13892TIP3    H263168   5.170   4.777   4.877  0.4186  0.2415 -0.3655
13893TIP3   OH263169   1.460   4.979  14.389  0.0427 -0.1302 -0.5036
13893TIP3    H163170   1.551   4.955  14.369 -0.5608 -2.2977 -0.8024
13893TIP3    H263171   1.421   4.900  14.424 -1.5857  0.9598  0.2496
13894TIP3   OH263172   4.592   0.095   2.557  0.2777 -0.5320 -0.0696
13894TIP3    H163173   4.522   0.042   2.594  1.5371 -0.9610  1.9026
13894TIP3    H263174   4.577   0.095   2.463 -0.8625 -2.7666  0.0698
13895TIP3   OH263175   1.734   1.727  13.792  0.1194  0.0020  0.0248
13895TIP3    H163176   1.717   1.779  13.713  0.9799 -0.4553 -0.4632
13895TIP3    H263177   1.828   1.736  13.808 -0.2329  1.1405  1.7524
13896TIP3   OH263178   0.237   0.624   3.506 -0.7907 -0.1954  0.1809
13896TIP3    H163179   0.148   0.615   3.472 -1.2617  0.9762  1.0557
13896TIP3    H263180   0.264   0.712   3.480 -1.0312  0.6048  2.4789
13897TIP3   OH263181   0.859   4.356   1.851 -0.0754  0.2595 -0.0050
13897TIP3    H163182   0.936   4.305   1.875 -0.7340 -0.1205  1.4010
13897TIP3    H263183   0.893   4.426   1.794  0.8219 -1.7816 -2.1504
13898TIP3   OH263184   4.150   6.279  15.025  0.7820 -0.0222  1.1717
13898TIP3    H163185   4.224   6.256  15.081  1.5759 -1.6414 -0.4517
13898TIP3    H263186   4.163   6.372  15.005  1.4421  0.1225  2.2162
13899TIP3   OH263187   6.700   3.407  15.625  0.1792 -0.1963 -0.3782
13899TIP3    H163188   6.677   3.498  15.642  1.2061 -0.0983  0.6685
13899TIP3    H263189   6.656   3.358  15.694  1.2875 -0.2398  0.3257
13900TIP3   OH263190   1.827   6.133  15.712 -0.2967 -0.2922  0.0526
13900TIP3    H163191   1.840   6.155  15.804 -0.0103 -0.0725 -0.0419
13900TIP3    H263192   1.752   6.073  15.713 -0.4160 -0.1406  0.4096
13901TIP3   OH263193   4.692   2.516   1.781 -0.6954 -0.2755  0.1482
13901TIP3    H163194   4.665   2.462   1.855  1.2943 -0.1429  1.0119
13901TIP3    H263195   4.624   2.502   1.715 -0.2652 -3.8303  0.3178
13902TIP3   OH263196   6.790   6.502  11.650 -0.7501  0.3277 -0.1643
13902TIP3    H163197   6.754   6.475  11.566 -0.7855 -1.5500  0.4102
13902TIP3    H263198   6.761   6.435  11.712  1.9692 -0.1552  0.7270
13903TIP3   OH263199   5.108   1.483   6.238 -0.1942 -0.0532  0.1489
13903TIP3    H163200   5.022   1.441   6.243 -0.5735  0.4168 -1.7310
13903TIP3    H263201   5.167   1.421   6.282 -1.3225 -0.8396  0.6186
13904TIP3   OH263202   6.451   4.094   2.744  0.2093 -0.3839  0.0870
13904TIP3    H163203   6.378   4.032   2.740 -1.4863  1.4126  1.3717
13904TIP3    H263204   6.413   4.178   2.716  1.9378  0.4862  0.2246
13905TIP3   OH263205   3.742   2.195  12.305  0.4015 -0.4598 -0.2803
13905TIP3    H163206   3.830   2.220  12.333  0.0003  0.2155  0.4169
13905TIP3    H263207   3.699   2.278  12.285 -0.1336 -0.7778 -0.4550
13906TIP3   OH263208   4.349   5.693  17.029  0.0931  0.1237  0.0163
13906TIP3    H163209   4.327   5.786  17.031 -1.6344 -0.2444  2.4980
13906TIP3    H263210   4.406   5.680  17.104  3.0326 -0.3555 -2.1142
13907TIP3   OH263211   0.838   3.208  11.173 -0.0974 -0.1006 -0.3408
13907TIP3    H163212   0.873   3.139  11.116 -1.3916  0.3922 -1.8114
13907TIP3    H263213   0.803   3.160  11.248  3.3163 -0.6254  1.0698
13908TIP3   OH263214   0.043   0.152   2.985 -0.3980  0.2149  0.2024
13908TIP3    H163215   0.104   0.173   3.056  0.9307 -1.1237 -0.4844
13908TIP3    H263216   0.033   0.235   2.938  2.8256  0.0568 -1.0536
13909TIP3   OH263217   1.005   2.549  13.191  0.4348  0.0699 -0.2730
13909TIP3    H163218   0.984   2.636  13.156 -1.2574 -0.7213 -1.3856
13909TIP3    H263219   1.036   2.500  13.114  3.0727  0.1280  0.6620
13910TIP3   OH263220   3.506   5.638  15.263  0.1200 -0.4162  0.6767
13910TIP3    H163221   3.500   5.554  15.218  1.5472  0.2132 -0.8047
13910TIP3    H263222   3.492   5.617  15.356  0.1207 -2.2210  0.3011
13911TIP3   OH263223   0.772   0.355   2.344 -0.0767 -0.0043  0.1938
13911TIP3    H163224   0.807   0.366   2.432  1.2485  2.6833 -0.5632
13911TIP3    H263225   0.702   0.290   2.353 -1.2743  1.5820  3.5599
13912TIP3   OH263226   5.342   2.224   5.250 -0.4563  0.6070  0.2235
13912TIP3    H163227   5.408   2.165   5.287 -0.3956  0.8201  0.4591
13912TIP3    H263228   5.349   2.304   5.303 -0.0556  1.0840 -0.5379
13913TIP3   OH263229   4.069   5.037   1.188  0.1771 -0.6321 -0.5315
13913TIP3    H163230   4.102   5.025   1.277 -2.7834 -0.5675  0.6895
13913TIP3    H263231   4.007   4.965   1.175 -0.6140  0.2450 -1.9125
13914TIP3   OH263232   0.670   6.763   3.171  0.3819  0.1393  0.2151
13914TIP3    H163233   0.650   6.705   3.244  1.5821 -0.6244 -0.0398
13914TIP3    H263234   0.631   6.847   3.196  0.9034 -0.0627  1.8010
13915TIP3   OH263235   6.434   2.813   6.037  0.6750  0.4002 -0.6628
13915TIP3    H163236   6.436   2.887   5.976 -1.9236  0.2566 -1.0350
13915TIP3    H263237   6.375   2.842   6.107  1.6325 -0.3936  0.5104
13916TIP3   OH263238   0.541   4.077   1.915 -0.1874  0.0655 -0.0161
13916TIP3    H163239   0.558   4.026   1.994  0.8594  0.7595  0.2374
13916TIP3    H263240   0.605   4.148   1.919  0.9850 -0.7408 -2.2495
13917TIP3   OH263241   5.347   1.256   1.413 -0.3797  0.5683 -0.2541
13917TIP3    H163242   5.358   1.245   1.318  0.8093 -0.6866  0.0089
13917TIP3    H263243   5.387   1.340   1.432  3.1584 -0.9374 -0.3277
13918TIP3   OH263244   4.286   2.870   0.806  0.5578  0.2393  0.3743
13918TIP3    H163245   4.380   2.854   0.797  0.6560 -0.7254  2.4479
13918TIP3    H263246   4.252   2.865   0.716  2.6366  2.0171 -0.5955
13919TIP3   OH263247   1.968   2.916   1.166 -0.3103  0.0107 -0.1670
13919TIP3    H163248   1.874   2.904   1.178  0.0821 -2.0055  1.2908
13919TIP3    H263249   1.976   2.962   1.082 -2.6407  1.7211  0.4497
13920TIP3   OH263250   3.285   1.122  11.250 -0.1029 -0.3765 -0.1742
13920TIP3    H163251   3.295   1.045  11.305  0.2452  1.2202  2.1352
13920TIP3    H263252   3.374   1.155  11.238 -0.3844  0.5805  0.2739
13921TIP3   OH263253   2.275   5.378   5.538  0.7694  0.3117  0.6504
13921TIP3    H163254   2.340   5.351   5.604  1.9217  1.6780  0.1334
13921TIP3    H263255   2.287   5.316   5.466 -1.3998 -2.0413  2.1162
13922TIP3   OH263256   6.664   3.427  16.647  0.2062  0.1854  0.0462
13922TIP3    H163257   6.641   3.335  16.660  1.6462 -0.1714  0.2475
13922TIP3    H263258   6.720   3.449  16.722 -0.3717  1.3288  0.1723
13923TIP3   OH263259   6.138   0.551   3.766 -0.0865 -0.1965  0.5581
13923TIP3    H163260   6.216   0.496   3.751 -1.2482 -1.4552 -1.2533
13923TIP3    H263261   6.071   0.489   3.795 -1.1614  0.4032 -0.5599
13924TIP3   OH263262   2.897   2.587   0.876  0.2246 -1.0135  0.3285
13924TIP3    H163263   2.982   2.559   0.841 -0.3306 -0.5942 -1.4868
13924TIP3    H263264   2.859   2.640   0.806 -0.6034  0.6766  1.9687
13925TIP3   OH263265   3.643   4.787   5.270 -0.3567 -0.2475 -0.0322
13925TIP3    H163266   3.561   4.787   5.320 -0.0654 -0.4428  0.4496
13925TIP3    H263267   3.630   4.717   5.205 -0.9042  0.2969 -0.5231
13926TIP3   OH263268   4.120   4.720   1.351 -0.0838  0.4407  0.2974
13926TIP3    H163269   4.136   4.751   1.262 -0.2116 -0.8527 -0.1996
13926TIP3    H263270   4.188   4.654   1.366 -1.0324 -0.5107  0.5510
13927TIP3   OH263271   5.298   4.366  14.360  0.4916  0.2433  0.6743
13927TIP3    H163272   5.314   4.431  14.429 -1.2383  0.4175  0.9716
13927TIP3    H263273   5.203   4.360  14.355  0.5282  0.7424 -2.2087
13928TIP3   OH263274   1.367   6.576   0.348  0.4367  0.0294 -0.3150
13928TIP3    H163275   1.410   6.587   0.433 -0.2563  0.6152 -0.0325
13928TIP3    H263276   1.394   6.652   0.297  0.1015  0.1692 -0.2893
13929TIP3   OH263277   0.173   5.589  16.781 -0.0175 -0.0263  0.4279
13929TIP3    H163278   0.229   5.535  16.837 -0.5358 -0.6824  0.3416
13929TIP3    H263279   0.218   5.591  16.696 -0.2215 -0.7366  0.2946
13930TIP3   OH263280   1.868   2.058  15.928 -0.1913 -0.3219 -0.1469
13930TIP3    H163281   1.916   1.976  15.942 -1.1827 -0.9352 -0.2761
13930TIP3    H263282   1.789   2.049  15.982 -0.9696 -0.0194 -1.2172
13931TIP3   OH263283   0.813   1.256   4.749  0.0952  0.2111 -0.3830
13931TIP3    H163284   0.799   1.343   4.712 -0.0936  0.2338 -0.2618
13931TIP3    H263285   0.819   1.198   4.674 -3.3323 -0.2296 -0.4731
13932TIP3   OH263286   3.676   4.535   0.976 -0.0739 -0.3327 -0.1290
13932TIP3    H163287   3.753   4.477   0.978 -0.8331 -1.4019 -0.9145
13932TIP3    H263288   3.678   4.573   0.888  0.5129  1.0014  0.4403
13933TIP3   OH263289   0.437   4.619  14.525  0.0894  0.2219  0.6395
13933TIP3    H163290   0.375   4.693  14.519  1.1912  1.1070 -0.1911
13933TIP3    H263291   0.510   4.654  14.576 -0.9170 -1.4494  3.4813
13934TIP3   OH263292   0.439   5.669  13.493  0.6102 -0.4832  0.3894
13934TIP3    H163293   0.523   5.703  13.524  0.0998 -0.1813  1.4779
13934TIP3    H263294   0.373   5.722  13.538 -0.1841 -1.6054  0.6021
13935TIP3   OH263295   0.601   1.099   3.345  0.2780  0.2568  0.4520
13935TIP3    H163296   0.678   1.068   3.298  1.2222 -0.8485  2.5678
13935TIP3    H263297   0.636   1.133   3.428 -1.5127 -1.2916  1.9603
13936TIP3   OH263298   2.481   5.029  12.863  0.2067 -0.2776  0.4993
13936TIP3    H163299   2.441   4.957  12.913  0.5107 -0.4441  0.5047
13936TIP3    H263300   2.407   5.082  12.834 -0.0693 -0.9408 -0.0376
13937TIP3   OH263301   4.808   3.703   4.502 -0.4347 -0.0219 -0.2480
13937TIP3    H163302   4.854   3.693   4.418 -0.3210 -1.3215 -0.0530
13937TIP3    H263303   4.842   3.632   4.556 -1.1249  0.2939  0.6179
13938TIP3   OH263304   1.605   3.820  10.841  0.3925  0.6471 -0.2174
13938TIP3    H163305   1.588   3.914  10.844 -1.8748  0.3066 -0.9483
13938TIP3    H263306   1.667   3.810  10.768  0.7939  1.5680 -0.0213
13939TIP3   OH263307   5.796   5.187  11.465 -0.0000 -0.6441  0.2860
13939TIP3    H163308   5.724   5.182  11.527  0.0444  0.3071  0.4197
13939TIP3    H263309   5.874   5.197  11.519  0.2041 -1.3003  0.1257
13940TIP3   OH263310   3.016   6.324   4.758 -0.2818 -0.1739 -0.2923
13940TIP3    H163311   3.003   6.232   4.738 -0.4059 -0.1791 -0.1852
13940TIP3    H263312   3.086   6.351   4.698 -1.7849  0.2452 -1.9650
13941TIP3   OH263313   6.019   4.088  16.699  0.2577  0.1561 -0.3061
13941TIP3    H163314   5.971   4.033  16.637  1.3189 -0.7102 -0.4081
13941TIP3    H263315   6.033   4.170  16.653 -0.6241  0.2145 -0.4806
13942TIP3   OH263316   4.941   5.929  15.798  0.3801  0.0778  0.1503
13942TIP3    H163317   5.011   5.909  15.861  0.7834 -2.0324 -0.8626
13942TIP3    H263318   4.922   5.845  15.756  0.4151  1.4196 -2.8168
13943TIP3   OH263319   4.438   2.199  11.814 -0.6169 -0.0939  0.0037
13943TIP3    H163320   4.508   2.159  11.762  0.2003  1.0971  0.1497
13943TIP3    H263321   4.451   2.165  11.902 -0.1535  0.2014  0.0516
13944TIP3   OH263322   3.346   4.120  15.566 -0.2348 -0.2108  0.4590
13944TIP3    H163323   3.428   4.083  15.597  0.5529  0.2117 -1.0528
13944TIP3    H263324   3.338   4.204  15.612 -0.3424 -0.6910  1.3462
13945TIP3   OH263325   5.937   5.228  16.999  0.3182  0.6805  0.2767
13945TIP3    H163326   5.961   5.137  17.017 -0.8262  0.7434  2.3384
13945TIP3    H263327   5.920   5.230  16.905 -0.5311 -1.4625  0.3384
13946TIP3   OH263328   0.505   2.386  13.215  0.4276  0.2331  0.0012
13946TIP3    H163329   0.570   2.412  13.279 -0.9465  0.7746  1.2301
13946TIP3    H263330   0.462   2.309  13.254 -0.1629  0.3339 -0.4268
13947TIP3   OH263331   3.290   1.664  13.001 -0.0334  0.0933 -0.0956
13947TIP3    H163332   3.240   1.585  13.022  0.4438  0.2072  1.5714
13947TIP3    H263333   3.364   1.663  13.062  0.5746  1.2766 -0.7759
13948TIP3   OH263334   5.823   4.837  16.232  0.3892  0.3331  0.2774
13948TIP3    H163335   5.845   4.895  16.160  1.4044 -0.6557 -0.2321
13948TIP3    H263336   5.900   4.839  16.290  1.1782 -1.7434 -0.5927
13949TIP3   OH263337   6.111   3.384  15.651  0.0726 -0.5662 -0.4748
13949TIP3    H163338   6.138   3.306  15.700 -0.1980  0.1199  0.7880
13949TIP3    H263339   6.040   3.422  15.702  2.2547  2.2995  0.7312
13950TIP3   OH263340   5.765   3.821  15.978 -0.2453 -0.1304 -0.2539
13950TIP3    H163341   5.803   3.872  15.907  1.3050 -1.1412 -0.1812
13950TIP3    H263342   5.778   3.730  15.953  2.1023 -0.5619  2.1483
13951TIP3   OH263343   1.022   2.052   3.240 -0.2014 -0.1854 -0.0672
13951TIP3    H163344   1.088   1.983   3.236 -0.9671 -0.9739  0.7161
13951TIP3    H263345   1.041   2.099   3.321  1.3577  1.6393 -1.3805
13952TIP3   OH263346   3.436   0.434  16.342  0.1202  0.3031  0.0564
13952TIP3    H163347   3.388   0.482  16.409  0.4304 -0.6028  0.9605
13952TIP3    H263348   3.522   0.476  16.339  0.6438 -0.5968  1.3656
13953TIP3   OH263349   0.735   4.620   5.641  0.6798  0.9002 -0.1036
13953TIP3    H163350   0.787   4.609   5.561  0.3337  1.5508 -0.4283
13953TIP3    H263351   0.645   4.602   5.613  0.3530  2.5733 -0.2166
13954TIP3   OH263352   1.516   2.337   5.037 -0.6999  0.2915  0.3687
13954TIP3    H163353   1.552   2.424   5.017  0.4460 -0.0833  0.7562
13954TIP3    H263354   1.448   2.324   4.971 -0.4812  1.2309 -0.0647
13955TIP3   OH263355   4.616   2.584  12.196 -0.0663  0.1611  0.1724
13955TIP3    H163356   4.548   2.531  12.239 -1.2620  0.2426 -1.5221
13955TIP3    H263357   4.569   2.662  12.167  1.2344  1.2071  0.7957
13956TIP3   OH263358   5.482   2.434  15.389 -0.1847 -0.3154 -0.2968
13956TIP3    H163359   5.524   2.520  15.381 -0.3281 -0.1883  0.3070
13956TIP3    H263360   5.555   2.372  15.389 -0.0593 -0.1689 -0.3292
13957TIP3   OH263361   6.052   1.473  12.659 -0.1128  0.0076 -0.2589
13957TIP3    H163362   6.014   1.533  12.723 -0.6526  0.3248 -0.8572
13957TIP3    H263363   5.976   1.429  12.620  0.1993 -0.1622 -0.6891
13958TIP3   OH263364   0.469   5.225   5.464  0.2238 -0.3475 -0.2052
13958TIP3    H163365   0.489   5.274   5.544 -1.3919  0.2076 -0.0859
13958TIP3    H263366   0.516   5.271   5.395 -0.5896  0.8929  0.0383
13959TIP3   OH263367   2.068   5.669  12.851 -0.3322  0.7022 -0.5958
13959TIP3    H163368   2.136   5.711  12.905  0.7223  0.4055 -1.6352
13959TIP3    H263369   2.003   5.738  12.838  0.4369  1.4370 -0.6820
13960TIP3   OH263370   5.932   4.246   2.768  0.4394 -0.3960  0.2519
13960TIP3    H163371   5.883   4.328   2.778  0.9573  0.0086 -0.4193
13960TIP3    H263372   5.893   4.187   2.832  0.8353  0.7299  1.5684
13961TIP3   OH263373   2.190   6.456   3.188  0.1352 -0.0419 -0.4144
13961TIP3    H163374   2.160   6.375   3.230 -1.3961 -0.1276 -1.6107
13961TIP3    H263375   2.225   6.508   3.260  1.2366 -1.7791  0.3759
13962TIP3   OH263376   4.875   1.254   0.847 -0.5848  0.7669  0.2259
13962TIP3    H163377   4.890   1.281   0.938 -1.2439 -0.9502  0.9017
13962TIP3    H263378   4.897   1.161   0.846 -0.0024  0.8898 -1.5483
13963TIP3   OH263379   1.507   0.705  14.481  0.1424  0.1655 -0.6110
13963TIP3    H163380   1.447   0.640  14.518 -0.1516  1.2554  0.9196
13963TIP3    H263381   1.450   0.771  14.442  0.4026  0.3585 -0.6647
13964TIP3   OH263382   2.551   4.455  12.296  0.1152  0.4581 -0.5375
13964TIP3    H163383   2.482   4.397  12.328 -0.7826  1.7527 -0.0726
13964TIP3    H263384   2.632   4.416  12.329  0.0377 -2.7650 -3.5051
13965TIP3   OH263385   2.392   0.997   2.577  0.0672  0.0807  0.1017
13965TIP3    H163386   2.363   1.058   2.645 -3.6364 -0.9848 -0.3080
13965TIP3    H263387   2.363   1.038   2.495 -1.8615 -1.8100 -0.2293
13966TIP3   OH263388   3.929   5.887  16.716 -0.6201 -0.0933  0.4946
13966TIP3    H163389   3.889   5.953  16.660 -0.5465  0.4601  1.0742
13966TIP3    H263390   3.855   5.847  16.763 -0.6270 -0.1248  0.4574
13967TIP3   OH263391   1.112   3.239   0.158  0.1544 -0.2351 -0.8847
13967TIP3    H163392   1.159   3.172   0.107  1.1778  0.1244 -0.4360
13967TIP3    H263393   1.144   3.322   0.124 -0.5891  0.0296 -0.9524
13968TIP3   OH263394   2.419   6.712  15.046  0.3408 -0.0896  0.1138
13968TIP3    H163395   2.465   6.648  14.992 -1.6620 -1.1583 -0.4158
13968TIP3    H263396   2.371   6.767  14.985 -1.7241 -1.1324  0.6968
13969TIP3   OH263397   4.809   4.828  12.286 -0.8120  0.7826  0.4257
13969TIP3    H163398   4.790   4.735  12.276  0.0088  0.4089  2.0583
13969TIP3    H263399   4.789   4.866  12.200 -2.2537 -0.6891  0.0675
13970TIP3   OH263400   4.977   2.600   5.423 -0.5048  0.4952  0.3839
13970TIP3    H163401   4.907   2.583   5.486 -0.1082 -3.4805  0.0145
13970TIP3    H263402   4.937   2.586   5.338  0.5453 -1.4240  0.1521
13971TIP3   OH263403   0.623   5.427   5.286 -0.2081  0.0703 -0.1752
13971TIP3    H163404   0.714   5.450   5.305  0.1925 -0.3956 -1.4439
13971TIP3    H263405   0.625   5.393   5.197 -1.3374 -1.6067  0.3973
13972TIP3   OH263406   0.781   1.213   2.641  0.2231  0.0544 -0.0616
13972TIP3    H163407   0.857   1.237   2.589 -0.2083  0.5782 -0.4658
13972TIP3    H263408   0.801   1.245   2.729  0.8582 -0.6319  0.0526
13973TIP3   OH263409   1.418   6.461   0.821 -0.3784  0.4696  0.3770
13973TIP3    H163410   1.441   6.515   0.746 -0.9917  0.4799  0.1909
13973TIP3    H263411   1.328   6.486   0.843 -0.6635 -0.4375  0.3043
13974TIP3   OH263412   3.687   0.288   4.090  0.0192  0.3798  0.0780
13974TIP3    H163413   3.734   0.356   4.042  3.1747 -1.3516  0.4728
13974TIP3    H263414   3.742   0.210   4.082 -3.2268 -2.0824  0.0085
13975TIP3   OH263415   2.010   0.181  13.447  0.1781  0.0530  0.1470
13975TIP3    H163416   1.955   0.199  13.524 -0.6709  2.4695 -0.8973
13975TIP3    H263417   2.072   0.254  13.445  0.7633 -0.4563 -0.9721
13976TIP3   OH263418   3.978   2.867   3.025  0.0851  0.4354 -0.2097
13976TIP3    H163419   3.892   2.880   3.065 -1.0346  0.1282 -2.3942
13976TIP3    H263420   3.993   2.945   2.973  0.7127  0.0677 -0.5973
13977TIP3   OH263421   3.491   1.420  16.088  0.6495  0.0594  0.3110
13977TIP3    H163422   3.577   1.379  16.085  0.4240 -0.4136 -2.1088
13977TIP3    H263423   3.504   1.506  16.047 -0.1366 -0.2960 -0.7222
13978TIP3   OH263424   6.656   4.755   2.028  0.1732  0.3179 -0.3402
13978TIP3    H163425   6.748   4.780   2.034  0.8694 -2.1988  0.4428
13978TIP3    H263426   6.620   4.813   1.961  2.1871  1.6501 -0.3673
13979TIP3   OH263427   3.166   3.047   0.625  0.6241  0.1464 -0.1563
13979TIP3    H163428   3.120   2.993   0.690 -0.7365  1.9346  0.4607
13979TIP3    H263429   3.137   3.012   0.540 -0.2834 -0.0439  0.2213
13980TIP3   OH263430   3.779   4.196  12.877  0.0716  0.2803 -0.1732
13980TIP3    H163431   3.856   4.185  12.932  0.6935  1.7860 -0.7059
13980TIP3    H263432   3.755   4.288  12.887 -1.8579 -0.2233  0.2213
13981TIP3   OH263433   4.947   4.587  15.001  0.4035 -0.0917  0.2152
13981TIP3    H163434   5.036   4.587  14.965 -0.2616 -3.5876 -1.8293
13981TIP3    H263435   4.924   4.495  15.009 -3.4084  0.6702 -0.2430
13982TIP3   OH263436   3.324   4.747   0.561  0.1899  0.3060  0.3093
13982TIP3    H163437   3.357   4.665   0.522 -1.1070  0.0309 -0.2732
13982TIP3    H263438   3.304   4.803   0.486 -1.2294  0.2213  0.5961
13983TIP3   OH263439   6.246   2.399   4.657  0.0955 -0.2820 -0.0517
13983TIP3    H163440   6.240   2.467   4.724  0.0394 -0.9846  0.6635
13983TIP3    H263441   6.212   2.441   4.578 -2.5282 -0.2768  0.9925
13984TIP3   OH263442   3.617   4.765  16.539 -0.4391 -0.4795 -1.0331
13984TIP3    H163443   3.625   4.860  16.532 -2.0883 -0.1768  0.3548
13984TIP3    H263444   3.677   4.741  16.610  0.7635 -0.6510 -2.0789
13985TIP3   OH263445   6.361   3.299   0.520 -0.2795 -0.0356 -0.9474
13985TIP3    H163446   6.434   3.326   0.577 -1.4303  1.6010 -0.1736
13985TIP3    H263447   6.370   3.204   0.514  1.6137  0.0581 -0.4645
13986TIP3   OH263448   4.505   2.753  12.797  0.3274 -0.0532  0.5953
13986TIP3    H163449   4.487   2.778  12.888 -2.2593  1.0488 -0.1402
13986TIP3    H263450   4.565   2.820  12.765  0.3529  0.1959  1.1455
13987TIP3   OH263451   1.693   3.250  14.718  0.7617  0.2912 -0.0249
13987TIP3    H163452   1.673   3.173  14.665 -0.5770  0.5820  0.0310
13987TIP3    H263453   1.773   3.227  14.765 -0.6011 -1.8255  1.4290
13988TIP3   OH263454   2.907   1.184  16.177  0.3525  0.6100  0.2928
13988TIP3    H163455   2.962   1.217  16.106  0.8236 -2.0258 -0.7107
13988TIP3    H263456   2.898   1.090  16.158  2.4439 -0.8273  4.8863
13989TIP3   OH263457   2.343   6.821   4.936  0.3444 -0.4137  0.6951
13989TIP3    H163458   2.406   6.786   4.998  1.4735  0.7644  0.2686
13989TIP3    H263459   2.260   6.822   4.983  1.2284  0.7638  2.3155
13990TIP3   OH263460   6.029   2.031  14.054  0.3888  0.1524  0.0175
13990TIP3    H163461   5.960   2.092  14.079  1.7663  1.7940  0.0093
13990TIP3    H263462   6.049   2.054  13.963 -1.9940 -3.2545 -1.5802
13991TIP3   OH263463   2.260   4.977  14.609  0.3686  0.2395  0.5346
13991TIP3    H163464   2.274   4.982  14.703  2.5917 -0.7096  0.3217
13991TIP3    H263465   2.299   5.057  14.574  2.7624 -0.9632  0.2061
13992TIP3   OH263466   0.960   3.754  15.366 -0.0303 -0.1763  0.1451
13992TIP3    H163467   1.040   3.780  15.320  0.5646  0.1087  1.3038
13992TIP3    H263468   0.991   3.716  15.448 -1.0825 -0.0751  0.6050
13993TIP3   OH263469   0.256   5.259  14.034  0.2354 -0.2195  0.1722
13993TIP3    H163470   0.291   5.172  14.054 -1.3938 -0.7809  0.7302
13993TIP3    H263471   0.262   5.307  14.116  1.4750  0.3585 -0.2236
13994TIP3   OH263472   0.404   2.048   4.743  0.1067  0.1047 -0.1991
13994TIP3    H163473   0.453   1.981   4.694  1.2755 -0.1708  1.2886
13994TIP3    H263474   0.315   2.013   4.746  0.2231 -0.3494 -1.2574
13995TIP3   OH263475   0.540   4.712  16.902 -0.1768 -0.6710  0.4835
13995TIP3    H163476   0.452   4.709  16.941 -1.7557 -0.1041 -2.6720
13995TIP3    H263477   0.551   4.804  16.877 -0.2637 -1.3162 -2.2136
13996TIP3   OH263478   5.878   1.988   6.638  0.3007 -0.6619 -0.2279
13996TIP3    H163479   5.800   2.043   6.647  0.6822 -0.3139  1.2589
13996TIP3    H263480   5.940   2.042   6.590  0.8200  0.4243  1.5701
13997TIP3   OH263481   0.270   2.081   5.018  0.0752 -0.7871 -0.3048
13997TIP3    H163482   0.186   2.111   5.052 -0.2096 -2.1867  0.3345
13997TIP3    H263483   0.254   1.990   4.994  1.5569 -1.2823  0.4572
13998TIP3   OH263484   4.127   3.847   3.752  0.3993 -0.6188 -0.2890
13998TIP3    H163485   4.162   3.898   3.825 -0.4189 -0.2613 -0.1337
13998TIP3    H263486   4.093   3.912   3.690 -0.1391 -0.9476 -0.3546
13999TIP3   OH263487   6.681   0.665   0.880 -0.4451 -0.2639  0.0089
13999TIP3    H163488   6.624   0.588   0.876  1.4580 -1.6950 -1.3582
13999TIP3    H263489   6.735   0.651   0.958  2.7245 -2.6161 -2.3109
14000TIP3   OH263490   4.789   1.611  11.318 -0.2723  0.2027 -0.1317
14000TIP3    H163491   4.768   1.552  11.246  1.7054  1.3908 -1.7791
14000TIP3    H263492   4.779   1.698  11.281  2.0351  0.8375  0.5946
14001TIP3   OH263493   2.199   1.864  12.838  0.1755  0.3942 -0.0902
14001TIP3    H163494   2.203   1.941  12.894 -4.1664  0.5489  0.3366
14001TIP3    H263495   2.148   1.892  12.762 -0.4322 -1.7034 -0.5336
14002TIP3   OH263496   0.048   4.104   1.306  0.1340  0.2727 -0.0574
14002TIP3    H163497   0.127   4.124   1.255 -0.7102  2.5877 -0.5346
14002TIP3    H263498   0.068   4.136   1.394 -0.2254  0.7469 -0.1486
14003TIP3   OH263499   4.534   4.188   3.694  0.0250  0.5379 -0.1566
14003TIP3    H163500   4.622   4.223   3.682  0.6387 -0.9625 -0.2478
14003TIP3    H263501   4.488   4.210   3.613  1.0989 -0.7965 -1.1876
14004TIP3   OH263502   1.706   1.797   4.911  0.0132  1.0115 -1.2987
14004TIP3    H163503   1.718   1.876   4.965  0.4672 -0.2295  0.5040
14004TIP3    H263504   1.772   1.805   4.842  2.3061  0.7251  0.7257
14005TIP3   OH263505   3.230   0.263   2.474  0.1787 -0.0477 -0.1982
14005TIP3    H163506   3.249   0.276   2.382 -0.7283  0.1019 -0.3770
14005TIP3    H263507   3.312   0.232   2.512  0.1261 -1.7977 -1.3848
14006TIP3   OH263508   5.801   4.273   1.322 -0.5538  0.3122 -0.1420
14006TIP3    H163509   5.832   4.197   1.272  0.1932 -0.1681  1.0060
14006TIP3    H263510   5.726   4.240   1.371 -0.6958  0.5182 -0.2209
14007TIP3   OH263511   6.756   5.954   0.245 -0.6367  0.1124 -0.1709
14007TIP3    H163512   6.815   5.928   0.174 -0.5913 -1.0128  0.2511
14007TIP3    H263513   6.808   5.947   0.324 -0.9827  0.3399  0.0827
14008TIP3   OH263514   0.608   5.076   4.760  0.3026  0.3124  0.2928
14008TIP3    H163515   0.535   5.124   4.799  0.2114 -0.0049  0.5200
14008TIP3    H263516   0.608   4.992   4.805  1.2800  0.5854  0.8437
14009TIP3   OH263517   5.209   5.604   2.545 -0.1312 -0.1382 -0.7450
14009TIP3    H163518   5.292   5.653   2.547  2.2102 -3.7352  0.6417
14009TIP3    H263519   5.225   5.532   2.485 -2.1605 -1.1162 -0.1965
14010TIP3   OH263520   0.860   1.120  14.641  0.1353  0.0040  0.0110
14010TIP3    H163521   0.888   1.034  14.610  1.4560  0.4072  0.0249
14010TIP3    H263522   0.910   1.182  14.588  0.7727  0.7346  1.4167
14011TIP3   OH263523   4.816   0.420  13.013  0.6316 -0.1141  0.7864
14011TIP3    H163524   4.855   0.343  13.055  2.8490  0.8042  0.5828
14011TIP3    H263525   4.845   0.415  12.922  1.0086  1.0531  0.8248
14012TIP3   OH263526   4.790   4.174   1.420  0.0377 -0.0864 -0.2033
14012TIP3    H163527   4.735   4.146   1.493  0.6715  1.2279  0.8135
14012TIP3    H263528   4.753   4.257   1.392  1.2887  0.6608  0.2924
14013TIP3   OH263529   3.623   2.542  16.769  0.8720  0.0937 -0.0288
14013TIP3    H163530   3.583   2.489  16.700  1.4068 -1.8645  1.0684
14013TIP3    H263531   3.717   2.538  16.751  1.0933 -1.1457  1.2179
14014TIP3   OH263532   0.745   5.177  16.515  0.3464 -0.6999  0.4032
14014TIP3    H163533   0.788   5.131  16.587 -1.4006 -1.1476  1.2102
14014TIP3    H263534   0.681   5.115  16.482  1.7003 -0.8390 -2.1906
14015TIP3   OH263535   0.344   0.365  16.114 -0.1793  0.7114  0.1867
14015TIP3    H163536   0.307   0.421  16.046 -0.2553 -1.4139 -1.6480
14015TIP3    H263537   0.278   0.366  16.184 -1.0916  1.3495 -0.6535
14016TIP3   OH263538   3.856   6.184   4.301  0.1692  0.1074  0.6720
14016TIP3    H163539   3.886   6.095   4.321  1.6258  0.7379  1.4349
14016TIP3    H263540   3.861   6.191   4.206  0.9929 -0.3106  0.6787
14017TIP3   OH263541   2.405   0.093  12.902 -0.0715  0.2519 -0.1864
14017TIP3    H163542   2.491   0.061  12.928  1.4533  1.3199 -3.4315
14017TIP3    H263543   2.378   0.151  12.973  2.5106  0.9350  0.3242
14018TIP3   OH263544   0.252   6.528  13.908 -0.2514  0.0367  0.5334
14018TIP3    H163545   0.302   6.608  13.888 -0.7249  0.2826  0.3224
14018TIP3    H263546   0.319   6.459  13.912  0.0526  0.2561 -0.3400
14019TIP3   OH263547   3.935   6.836  15.130  0.3685 -0.3309 -0.1752
14019TIP3    H163548   4.008   6.814  15.188  0.8316 -0.2153 -0.6955
14019TIP3    H263549   3.861   6.786  15.164  1.2114 -2.1788 -0.9125
14020TIP3   OH263550   0.654   4.350  15.916  0.4617  0.1032  0.1201
14020TIP3    H163551   0.700   4.433  15.927 -0.0525  0.1245  3.0306
14020TIP3    H263552   0.672   4.302  15.997 -1.4388 -1.5049 -0.3317
14021TIP3   OH263553   4.818   4.354  15.349 -0.2563  0.3868  0.5269
14021TIP3    H163554   4.874   4.281  15.321 -0.8169  0.3463 -0.5542
14021TIP3    H263555   4.737   4.313  15.378 -0.9764  0.5851 -1.0665
14022TIP3   OH263556   5.057   4.046  13.737 -0.5665 -0.0563 -0.6153
14022TIP3    H163557   5.130   4.083  13.787 -0.7773 -0.3354 -0.0958
14022TIP3    H263558   5.015   4.122  13.697 -1.1556  0.3262  0.6649
14023TIP3   OH263559   3.530   2.954  11.399  0.5011  0.2995  0.1727
14023TIP3    H163560   3.452   2.949  11.455  1.0364  0.6382  0.9725
14023TIP3    H263561   3.551   2.862  11.379  1.0498  0.0827  1.6218
14024TIP3   OH263562   3.106   1.860   0.483  0.2726  0.1605 -0.3489
14024TIP3    H163563   3.123   1.899   0.398  2.4443 -0.4293 -0.2346
14024TIP3    H263564   3.127   1.928   0.546 -1.3283  0.5962 -0.2376
14025TIP3   OH263565   0.270   6.844  14.273  0.2648 -1.0448  0.1394
14025TIP3    H163566   0.217   6.770  14.301  0.8098 -1.5656 -0.1657
14025TIP3    H263567   0.223   6.881  14.198 -1.6043  0.8400  2.1243
14026TIP3   OH263568   0.051   6.133   5.633  0.1767  0.3410  0.2893
14026TIP3    H163569   0.002   6.208   5.599  1.8048  1.9102  1.2199
14026TIP3    H263570   0.099   6.169   5.708  0.7389 -1.7377  0.9739
14027TIP3   OH263571   5.234   5.211   0.358  0.1187  0.1043  0.7495
14027TIP3    H163572   5.227   5.297   0.317 -1.6521 -0.4792 -0.2838
14027TIP3    H263573   5.172   5.215   0.431 -0.3397 -0.4343  0.3989
14028TIP3   OH263574   0.964   1.559  13.005  0.1255  0.2725  0.3779
14028TIP3    H163575   0.949   1.589  13.094 -0.1639 -1.1971  0.8453
14028TIP3    H263576   1.036   1.496  13.012 -0.0364 -0.0111 -0.4027
14029TIP3   OH263577   5.036   1.963  15.261  0.0153  0.3306 -0.1443
14029TIP3    H163578   4.969   1.958  15.193 -1.2929  0.3655  1.1062
14029TIP3    H263579   5.075   2.050  15.249  0.2570  0.0921 -1.2341
14030TIP3   OH263580   0.809   0.077   2.548 -0.0605  0.3576 -0.1385
14030TIP3    H163581   0.737   0.099   2.489 -0.0087  0.2791 -0.2331
14030TIP3    H263582   0.830   0.159   2.593  0.7136  0.7324 -1.1271
14031TIP3   OH263583   1.498   4.177  11.152 -0.0378 -0.4060  0.0111
14031TIP3    H163584   1.509   4.082  11.159 -0.6678 -0.5326 -0.5563
14031TIP3    H263585   1.433   4.188  11.082  0.0334  0.4433  0.0705
14032TIP3   OH263586   3.203   6.108   2.364  0.1781 -0.7045  0.0344
14032TIP3    H163587   3.151   6.144   2.292  1.3187  0.2433 -0.3409
14032TIP3    H263588   3.150   6.124   2.442  0.0942  0.7271 -0.2790
14033TIP3   OH263589   4.154   1.420   0.577 -0.3101  0.2115  0.0686
14033TIP3    H163590   4.167   1.515   0.573 -2.8730  0.6466 -0.2553
14033TIP3    H263591   4.151   1.400   0.670  0.2190  0.4644  0.1390
14034TIP3   OH263592   5.806   0.287   4.686  0.4122  0.2461  0.0076
14034TIP3    H163593   5.744   0.243   4.628  1.3569 -0.9195 -0.1428
14034TIP3    H263594   5.763   0.370   4.708 -0.8530 -0.1969 -0.7025
14035TIP3   OH263595   3.978   1.055   0.738  0.4532  0.0082  0.0744
14035TIP3    H163596   4.073   1.051   0.753  0.7039  2.3988 -0.5185
14035TIP3    H263597   3.969   1.060   0.643 -0.1543  1.3839  0.1856
14036TIP3   OH263598   4.721   1.657   4.423  0.0394  0.0604  0.8223
14036TIP3    H163599   4.687   1.728   4.369  0.8370 -1.2498 -1.5291
14036TIP3    H263600   4.752   1.700   4.503 -0.8703  2.1317  0.1024
14037TIP3   OH263601   2.261   3.231   5.561  0.0976  0.3678 -0.4005
14037TIP3    H163602   2.323   3.171   5.519 -0.7106 -1.1497  0.4714
14037TIP3    H263603   2.197   3.251   5.492 -0.1039 -0.4843 -0.4748
14038TIP3   OH263604   4.906   3.758  12.608 -0.0173  0.0549 -0.2867
14038TIP3    H163605   4.886   3.819  12.536 -0.2317  2.2026  1.4855
14038TIP3    H263606   4.822   3.717  12.629 -0.2730  0.5609 -0.2904
14039TIP3   OH263607   3.518   3.742   3.311  0.2832  0.3234  0.6561
14039TIP3    H163608   3.476   3.773   3.391 -0.0251 -1.1068  1.0757
14039TIP3    H263609   3.602   3.706   3.340  1.4663  2.3482 -0.0612
14040TIP3   OH263610   6.002   2.210  11.114  0.0107 -0.2137  0.4379
14040TIP3    H163611   6.009   2.143  11.046 -1.5089 -0.6240  0.6643
14040TIP3    H263612   5.945   2.277  11.077  1.4471  0.9487  0.2520
14041TIP3   OH263613   4.091   6.613  13.986 -1.0016  0.0359  0.1318
14041TIP3    H163614   4.131   6.681  14.040 -1.9080  1.0919 -0.4793
14041TIP3    H263615   4.163   6.557  13.960 -0.1619  0.9938  0.3372
14042TIP3   OH263616   0.761   1.643   4.406  0.6882  0.8510  0.3323
14042TIP3    H163617   0.688   1.685   4.361  1.2361 -0.9067 -2.4086
14042TIP3    H263618   0.822   1.715   4.425 -0.3497  1.8853 -0.1444
14043TIP3   OH263619   6.081   1.969   2.596  0.2573 -0.3548 -0.1965
14043TIP3    H163620   6.171   1.938   2.582  1.4964  0.7926  3.7252
14043TIP3    H263621   6.071   2.041   2.534  2.4647  0.1030 -0.1339
14044TIP3   OH263622   2.923   6.368  16.758  0.1296  0.2237 -0.2861
14044TIP3    H163623   2.864   6.321  16.699 -1.4390  1.1001  0.5170
14044TIP3    H263624   2.901   6.334  16.845  0.8440  0.5517  0.0311
14045TIP3   OH263625   6.370   3.844  11.819  0.1216  0.1673  0.0187
14045TIP3    H163626   6.316   3.859  11.741 -0.1226 -2.0161 -0.3130
14045TIP3    H263627   6.460   3.844  11.785  0.1941  1.5135  0.1686
14046TIP3   OH263628   6.094   4.748  16.025  0.4687 -0.2889 -0.2504
14046TIP3    H163629   6.057   4.784  15.945  1.5272 -0.3957 -0.8103
14046TIP3    H263630   6.108   4.824  16.082  2.2849  0.1972 -1.2579
14047TIP3   OH263631   3.924   3.766   0.468 -0.3428 -0.4153 -0.3334
14047TIP3    H163632   3.865   3.722   0.408 -0.2973  0.7388 -1.2529
14047TIP3    H263633   3.896   3.737   0.555 -0.3860 -2.1249 -0.8849
14048TIP3   OH263634   6.417   0.480  12.698 -0.1273  0.0871  0.2527
14048TIP3    H163635   6.504   0.441  12.689 -0.2377 -0.1928  0.3780
14048TIP3    H263636   6.433   0.573  12.715  0.2153 -0.3427  2.6293
14049TIP3   OH263637   1.223   3.720   3.902 -0.7555 -0.4831  0.1622
14049TIP3    H163638   1.147   3.671   3.932 -0.7070 -0.4649  0.3183
14049TIP3    H263639   1.202   3.812   3.921  0.0249 -0.6127  1.8612
14050TIP3   OH263640   4.801   0.283   3.175  0.0772  0.0196 -0.3744
14050TIP3    H163641   4.771   0.278   3.266  3.0486 -1.7798  0.6364
14050TIP3    H263642   4.744   0.223   3.128 -1.6411  1.1275  0.2018
14051TIP3   OH263643   2.189   0.159   3.610  0.4082  0.7220 -0.0308
14051TIP3    H163644   2.170   0.146   3.703  0.9299  0.1231 -0.0024
14051TIP3    H263645   2.190   0.254   3.599  0.7918  0.8061  0.6711
14052TIP3   OH263646   1.878   6.047   6.070  0.0126  0.3066 -0.1609
14052TIP3    H163647   1.867   6.006   5.984 -1.2837  2.1163 -0.9384
14052TIP3    H263648   1.883   5.974   6.131 -1.6498 -1.0434 -1.5067
14053TIP3   OH263649   2.182   6.620  10.858 -0.1209 -0.0492  0.0222
14053TIP3    H163650   2.155   6.531  10.837  1.3936 -0.5027 -0.1224
14053TIP3    H263651   2.274   6.612  10.882 -0.5776  1.1139  2.5057
14054TIP3   OH263652   1.555   3.847  14.532 -0.1812  0.1812  0.4584
14054TIP3    H163653   1.603   3.927  14.555 -0.3858 -0.0108  1.6174
14054TIP3    H263654   1.542   3.853  14.437  0.4977  1.1358  0.4107
14055TIP3   OH263655   4.503   5.372  15.237  0.1315 -0.2983 -0.3165
14055TIP3    H163656   4.559   5.400  15.164  0.5673  0.1079  0.1731
14055TIP3    H263657   4.534   5.421  15.312 -1.0898  0.1630 -0.0942
14056TIP3   OH263658   2.148   6.707  14.436 -0.0952 -0.1140  0.2313
14056TIP3    H163659   2.086   6.665  14.377  0.1153 -0.6339  0.3712
14056TIP3    H263660   2.093   6.749  14.503 -0.3218  0.2658 -0.1935
14057TIP3   OH263661   2.942   2.620  11.019 -0.0622  0.4999 -0.3933
14057TIP3    H163662   2.942   2.696  10.960  1.3263 -0.7227 -2.0670
14057TIP3    H263663   2.964   2.546  10.963 -0.5545 -1.0482  1.3490
14058TIP3   OH263664   0.892   2.102  14.576  0.0949 -0.0588  0.0271
14058TIP3    H163665   0.809   2.144  14.598  0.4103  0.1357  0.8916
14058TIP3    H263666   0.880   2.010  14.600 -0.0199 -0.1215 -0.2677
14059TIP3   OH263667   4.210   0.672   4.913  0.3631 -0.2254 -1.1332
14059TIP3    H163668   4.301   0.660   4.939  0.0854  1.0700  0.5809
14059TIP3    H263669   4.159   0.638   4.986 -0.4696  1.4468 -0.8849
14060TIP3   OH263670   0.111   0.721   0.948  0.1391 -0.2053 -0.5482
14060TIP3    H163671   0.040   0.785   0.943 -0.5138 -0.9634 -2.2122
14060TIP3    H263672   0.070   0.643   0.985 -0.4687 -1.2120 -3.0713
14061TIP3   OH263673   4.628   3.584   6.051  0.1156 -0.7692 -0.0739
14061TIP3    H163674   4.705   3.531   6.072  1.4169  0.1648 -2.1241
14061TIP3    H263675   4.663   3.672   6.039 -1.5426 -0.0105  0.4284
14062TIP3   OH263676   0.189   0.876   3.169  0.2015 -0.1035 -0.1676
14062TIP3    H163677   0.145   0.953   3.203 -1.9704 -1.5671  0.5768
14062TIP3    H263678   0.182   0.884   3.074 -0.5524  0.3347 -0.0810
14063TIP3   OH263679   2.181   2.264  14.987  0.5092  0.5533  0.1786
14063TIP3    H163680   2.172   2.180  15.031 -1.6749  0.0036 -1.1504
14063TIP3    H263681   2.272   2.267  14.957  0.8016 -1.0095  0.8402
14064TIP3   OH263682   5.356   5.001   4.663  0.1337 -0.3973 -0.3401
14064TIP3    H163683   5.324   5.063   4.728  2.1297 -1.0689  1.3905
14064TIP3    H263684   5.382   5.056   4.588 -0.4411  0.5845  0.1599
14065TIP3   OH263685   2.535   5.623   1.567 -0.1357 -0.3957  0.7185
14065TIP3    H163686   2.577   5.562   1.507  0.3612 -0.4926  1.1568
14065TIP3    H263687   2.522   5.573   1.647 -1.7385 -0.5774  0.3720
14066TIP3   OH263688   1.334   0.386  16.678  0.2145 -0.1686 -0.9029
14066TIP3    H163689   1.377   0.407  16.761 -1.2406 -1.6878  0.3078
14066TIP3    H263690   1.259   0.446  16.675  0.3869  0.0339 -1.2461
14067TIP3   OH263691   4.689   1.617   2.974  0.2340 -0.0397  0.2175
14067TIP3    H163692   4.605   1.570   2.977  0.9471 -1.2986  1.6504
14067TIP3    H263693   4.703   1.646   3.064  0.9410  0.9291 -0.1878
14068TIP3   OH263694   4.380   3.835   1.017  0.4189  0.2841 -0.5794
14068TIP3    H163695   4.392   3.790   0.934 -1.1485 -1.2563 -0.0381
14068TIP3    H263696   4.308   3.896   1.001 -1.6377 -1.8046  0.2174
14069TIP3   OH263697   3.932   2.390   5.161 -0.3630  0.8406  0.7896
14069TIP3    H163698   3.866   2.327   5.132  0.2064  0.8415 -0.5816
14069TIP3    H263699   3.886   2.473   5.167 -0.4029  0.9705 -0.7564
14070TIP3   OH263700   3.820   6.185  15.659 -0.7113  0.9391  0.1315
14070TIP3    H163701   3.787   6.257  15.607  0.4399  0.0641 -1.9181
14070TIP3    H263702   3.758   6.114  15.644 -0.1617  0.5614 -0.3952
14071TIP3   OH263703   0.265   2.546  15.987  0.2118  0.4754 -0.1241
14071TIP3    H163704   0.189   2.587  16.027  0.6931  0.5613  0.7438
14071TIP3    H263705   0.234   2.460  15.959 -0.7418  1.3019 -1.7396
14072TIP3   OH263706   0.798   1.093  15.541 -0.3923  0.3150 -0.1668
14072TIP3    H163707   0.826   1.114  15.452  0.0793  0.4508  0.0133
14072TIP3    H263708   0.786   0.998  15.540  1.6872  0.0039  0.1923
14073TIP3   OH263709   4.125   1.762  13.939 -0.5453 -0.3306 -0.4897
14073TIP3    H163710   4.070   1.794  13.867  1.7450 -0.1775 -2.2659
14073TIP3    H263711   4.192   1.829  13.950 -0.7137 -0.4612  1.7074
14074TIP3   OH263712   4.275   1.012   1.556 -0.5552  0.0431 -0.5387
14074TIP3    H163713   4.303   0.928   1.593  1.0156  0.7904  0.0408
14074TIP3    H263714   4.188   1.026   1.591  0.7144  0.5647  2.7537
14075TIP3   OH263715   6.828   2.785   1.714  0.3316  0.6367  0.2423
14075TIP3    H163716   6.860   2.705   1.756 -1.0011 -1.2934 -2.1659
14075TIP3    H263717   6.733   2.781   1.724  0.1801  1.4083 -0.7455
14076TIP3   OH263718   0.581   3.993   3.136 -0.0768 -0.1352  0.6407
14076TIP3    H163719   0.509   3.947   3.093 -0.5693  1.3911 -0.2437
14076TIP3    H263720   0.544   4.021   3.220 -0.2475 -0.0747  0.5464
14077TIP3   OH263721   5.984   2.603   0.122  0.1265 -0.3260 -0.6693
14077TIP3    H163722   5.939   2.673   0.074 -2.0657 -0.5521  0.9114
14077TIP3    H263723   6.032   2.649   0.191  1.7312 -0.1589 -1.8307
14078TIP3   OH263724   4.707   6.631   3.206  0.9087  0.6473  0.2957
14078TIP3    H163725   4.759   6.698   3.162  0.5927  0.6003 -0.1524
14078TIP3    H263726   4.633   6.615   3.147  0.0981  1.0802  1.1537
14079TIP3   OH263727   5.014   0.790  13.801 -0.1593 -0.1964  0.2560
14079TIP3    H163728   5.025   0.715  13.859 -0.7227  0.7959  1.7067
14079TIP3    H263729   5.057   0.764  13.719  2.5132 -0.8360  1.7705
14080TIP3   OH263730   3.278   5.023   0.675  0.2752  0.2505 -0.6784
14080TIP3    H163731   3.308   4.934   0.693 -1.0246 -0.3346 -1.2671
14080TIP3    H263732   3.343   5.059   0.615  0.0894 -0.8232 -1.5619
14081TIP3   OH263733   2.165   1.505  12.963  0.0209  0.2899  0.2929
14081TIP3    H163734   2.169   1.409  12.963  2.5058  0.2904  2.9865
14081TIP3    H263735   2.179   1.529  12.871  0.8752 -1.8826 -0.2083
14082TIP3   OH263736   1.530   1.376  15.470  0.2265  0.5462 -0.3273
14082TIP3    H163737   1.580   1.302  15.435 -0.3603  0.4677 -1.0131
14082TIP3    H263738   1.438   1.349  15.463  0.0343  1.0919 -0.0071
14083TIP3   OH263739   4.362   2.432  12.243  0.4747  0.4789 -0.0577
14083TIP3    H163740   4.348   2.422  12.149 -2.3015 -0.2754  0.3600
14083TIP3    H263741   4.299   2.498  12.270  2.5445  2.1436  1.0467
14084TIP3   OH263742   4.979   5.226  15.631  0.5108  0.0486 -1.3680
14084TIP3    H163743   4.982   5.140  15.673 -2.8426  0.3763 -0.1350
14084TIP3    H263744   4.979   5.288  15.703  2.0988  1.1310 -2.2237
14085TIP3   OH263745   4.846   4.450   2.876 -0.5519  0.1680 -0.4180
14085TIP3    H163746   4.782   4.509   2.837  0.0613  3.1689  2.6800
14085TIP3    H263747   4.793   4.392   2.931 -0.9215 -0.4191 -1.3611
14086TIP3   OH263748   1.982   2.666  13.729  0.1344 -0.3601 -0.1123
14086TIP3    H163749   2.078   2.662  13.729  0.1448 -0.1581  0.8177
14086TIP3    H263750   1.957   2.618  13.650  1.0841  2.1078 -2.0511
14087TIP3   OH263751   5.557   1.890  14.962 -0.0068  0.9746  0.0834
14087TIP3    H163752   5.502   1.903  14.884 -1.9711 -0.0661  1.2020
14087TIP3    H263753   5.509   1.935  15.032  0.7102  0.2414  1.0627
14088TIP3   OH263754   2.041   3.040  11.497  0.9613 -0.1465 -0.2485
14088TIP3    H163755   2.063   3.122  11.453  1.3050 -0.1281 -0.0401
14088TIP3    H263756   2.125   3.002  11.522  0.7617 -0.1299  0.4509
14089TIP3   OH263757   3.262   3.928   0.694 -0.2245 -0.1764 -0.3026
14089TIP3    H163758   3.167   3.944   0.691 -0.1392  0.5643  0.5545
14089TIP3    H263759   3.272   3.840   0.658 -1.2426 -0.2833 -0.3652
14090TIP3   OH263760   5.159   1.925  13.271 -0.3402  0.6180  0.1762
14090TIP3    H163761   5.082   1.950  13.220 -0.7813 -0.0754  0.4701
14090TIP3    H263762   5.139   1.836  13.301  0.2218  0.7383  0.9421
14091TIP3   OH263763   6.490   0.841   2.484  0.2123  0.0935 -0.4788
14091TIP3    H163764   6.537   0.855   2.566  1.8440 -0.3832 -1.2958
14091TIP3    H263765   6.410   0.893   2.493  0.5114  0.3085  1.2680
14092TIP3   OH263766   0.391   5.646   3.865  0.0258  0.4247  0.5428
14092TIP3    H163767   0.413   5.671   3.775 -0.6040  0.5444  0.4173
14092TIP3    H263768   0.390   5.550   3.863  2.6871  0.3228  1.0843
14093TIP3   OH263769   5.855   2.322  11.980 -0.0363 -0.3959  0.1444
14093TIP3    H163770   5.819   2.238  12.009  0.6997 -0.8394 -0.1910
14093TIP3    H263771   5.943   2.324  12.018  0.2661 -0.1721 -0.5628
14094TIP3   OH263772   3.512   0.028  13.968  0.2685  0.1735  0.6049
14094TIP3    H163773   3.515  -0.061  13.933 -2.1346 -0.2704  1.3543
14094TIP3    H263774   3.589   0.034  14.025  0.8470 -1.1632 -0.0058
14095TIP3   OH263775   5.610   1.006   4.247 -0.2414  0.3007  0.0353
14095TIP3    H163776   5.542   1.073   4.251 -1.1543 -0.6529  1.1351
14095TIP3    H263777   5.642   0.997   4.337 -0.6611 -1.2322  0.0695
14096TIP3   OH263778   3.896   4.958   5.667 -0.2416  0.1352 -0.5317
14096TIP3    H163779   3.830   5.012   5.711 -1.1538  0.4623 -2.1983
14096TIP3    H263780   3.934   5.015   5.601  1.1581 -0.3126 -0.1551
14097TIP3   OH263781   6.575   6.494   5.473 -0.4505 -0.5745 -0.1707
14097TIP3    H163782   6.562   6.525   5.563  0.5301  0.3762 -0.3360
14097TIP3    H263783   6.526   6.556   5.420  1.6171  0.8639 -0.5143
14098TIP3   OH263784   3.097   0.935  16.044 -0.1552 -0.4632  0.4647
14098TIP3    H163785   3.150   0.944  16.124  1.2061 -1.7641 -0.2385
14098TIP3    H263786   3.107   0.843  16.020  0.2296  0.1170 -1.7278
14099TIP3   OH263787   2.692   6.078  15.651  0.2373 -0.4614 -0.0803
14099TIP3    H163788   2.721   6.023  15.578 -2.0154 -0.2249 -1.2688
14099TIP3    H263789   2.704   6.024  15.729  0.3391 -1.7157 -0.9373
14100TIP3   OH263790   5.778   5.768   0.152  0.3259  0.1268 -0.2878
14100TIP3    H163791   5.722   5.725   0.087 -0.8644  0.9176  0.1692
14100TIP3    H263792   5.849   5.706   0.168 -0.8358 -1.2668 -0.3463
14101TIP3   OH263793   0.579   2.270   0.721  0.2662 -0.2165 -0.1148
14101TIP3    H163794   0.520   2.254   0.648  0.6781 -1.3512 -0.2098
14101TIP3    H263795   0.555   2.358   0.752  0.6108  0.6353 -2.0973
14102TIP3   OH263796   1.485   1.758   2.012  0.0530 -0.2885  0.4349
14102TIP3    H163797   1.426   1.774   2.086 -0.1244  0.9136  0.0669
14102TIP3    H263798   1.452   1.677   1.973 -2.6964  1.3343 -0.9482
14103TIP3   OH263799   4.425   3.937   0.285 -0.5414  0.1760 -0.1899
14103TIP3    H163800   4.440   3.968   0.374  1.1297  1.1708 -0.7705
14103TIP3    H263801   4.509   3.952   0.241 -1.2887 -0.4581 -1.8842
14104TIP3   OH263802   4.769   4.722   3.053 -0.1682 -0.2248 -0.1760
14104TIP3    H163803   4.856   4.736   3.017 -0.9553  2.3675 -1.3035
14104TIP3    H263804   4.726   4.664   2.990  0.4210 -0.7881 -0.0741
14105TIP3   OH263805   0.760   6.575  15.858  0.0690  1.0361 -0.4781
14105TIP3    H163806   0.701   6.651  15.864 -0.9242  0.4072 -1.6615
14105TIP3    H263807   0.807   6.588  15.776  0.6886  0.9048 -0.1496
14106TIP3   OH263808   1.314   0.161   4.608 -0.3035 -0.2004 -0.5176
14106TIP3    H163809   1.290   0.165   4.516 -0.4089 -1.0679 -0.5432
14106TIP3    H263810   1.285   0.074   4.636  1.0773 -0.5515 -0.0603
14107TIP3   OH263811   4.023   1.647  16.115 -0.2785 -0.6128 -0.4386
14107TIP3    H163812   4.085   1.692  16.057 -1.1886  0.5627 -0.5609
14107TIP3    H263813   4.049   1.673  16.203 -1.1020  0.6594 -0.5278
14108TIP3   OH263814   5.984   4.476  15.722  0.0322  0.1666 -0.0010
14108TIP3    H163815   6.038   4.418  15.668 -1.6872 -1.5810  0.0213
14108TIP3    H263816   5.966   4.551  15.666  0.6891 -0.2460 -0.7850
14109TIP3   OH263817   0.235   4.367   1.102  0.0983 -0.4731  0.2731
14109TIP3    H163818   0.228   4.427   1.176 -0.6289  0.8697 -0.8224
14109TIP3    H263819   0.223   4.423   1.025  0.7901 -1.8223 -0.8632
14110TIP3   OH263820   6.712   6.130  16.692  0.0197 -0.3080  1.0174
14110TIP3    H163821   6.644   6.130  16.624 -0.9583  1.4127  1.9298
14110TIP3    H263822   6.688   6.058  16.750 -0.1472 -0.6667  0.5125
14111TIP3   OH263823   2.287   3.143   4.220  0.2436  0.0686  0.0811
14111TIP3    H163824   2.263   3.061   4.176 -1.6445 -0.5582  2.0707
14111TIP3    H263825   2.371   3.167   4.181  0.2173 -2.0715 -1.5381
14112TIP3   OH263826   4.954   1.175  11.495  0.1195  0.1146  0.0171
14112TIP3    H163827   4.983   1.263  11.518  0.7198 -0.3158  0.9685
14112TIP3    H263828   4.860   1.175  11.511 -0.2152  1.0806 -1.6691
14113TIP3   OH263829   4.004   5.747   1.539  0.3058  0.4944  0.1107
14113TIP3    H163830   4.055   5.692   1.479  0.5593  1.1371 -0.2680
14113TIP3    H263831   3.912   5.726   1.519  0.3973  0.3576 -0.1677
14114TIP3   OH263832   2.753   0.940  11.458 -0.5109 -0.2748 -0.4900
14114TIP3    H163833   2.669   0.894  11.451 -0.1013 -0.8998 -1.3529
14114TIP3    H263834   2.747   0.988  11.541 -0.8098 -2.1358  0.6007
14115TIP3   OH263835   3.362   5.390  13.140  0.3425 -0.7513  0.5341
14115TIP3    H163836   3.429   5.431  13.085 -1.1256  1.3311  0.1931
14115TIP3    H263837   3.354   5.301  13.106  1.5214 -0.4208 -0.6960
14116TIP3   OH263838   6.608   2.499   4.941  0.3877  0.4033  0.2575
14116TIP3    H163839   6.673   2.472   5.005  1.2343  0.8113 -0.4009
14116TIP3    H263840   6.659   2.544   4.873 -0.6521  1.2986  0.0359
14117TIP3   OH263841   0.286   5.019   0.621 -0.0794 -0.1162  0.7666
14117TIP3    H163842   0.356   5.070   0.580 -1.6173  0.9494 -0.6686
14117TIP3    H263843   0.221   5.084   0.647 -2.7964 -1.2314 -2.4251
14118TIP3   OH263844   4.602   0.026  11.583 -0.2288 -0.3866 -0.0139
14118TIP3    H163845   4.652  -0.050  11.552  0.7323  1.3962 -3.2125
14118TIP3    H263846   4.515  -0.009  11.600  0.0756 -2.1563 -1.7581
14119TIP3   OH263847   2.779   5.001  15.240 -0.4100  0.3386  0.0418
14119TIP3    H163848   2.719   4.953  15.183  1.3621 -0.8016 -0.9331
14119TIP3    H263849   2.864   4.995  15.197  0.7936  0.3637  2.2546
14120TIP3   OH263850   3.686   0.912  15.711  0.5652  0.4756  0.2054
14120TIP3    H163851   3.769   0.906  15.662  0.5950  1.5392  0.1171
14120TIP3    H263852   3.709   0.880  15.799  1.2732  1.4851  0.4096
14121TIP3   OH263853   5.547   2.167   2.868  0.9259  0.5002 -0.2096
14121TIP3    H163854   5.603   2.226   2.918 -0.2980  1.4810  0.0609
14121TIP3    H263855   5.474   2.148   2.927  0.8548 -0.5606 -0.6305
14122TIP3   OH263856   3.582   4.650   4.420  0.4762  0.0136  0.3088
14122TIP3    H163857   3.673   4.678   4.430  0.9141 -0.8404 -0.9989
14122TIP3    H263858   3.586   4.573   4.363 -1.1385  0.5164 -0.5765
14123TIP3   OH263859   2.724   4.144   2.281  0.4443 -0.4219  0.2900
14123TIP3    H163860   2.809   4.122   2.321  0.8369  0.8307  0.1889
14123TIP3    H263861   2.673   4.181   2.353  0.5189  0.1787  0.0463
14124TIP3   OH263862   1.616   4.982   2.452 -0.2239  0.7090  0.5401
14124TIP3    H163863   1.559   4.995   2.528 -0.3650  2.1378  0.2098
14124TIP3    H263864   1.659   5.066   2.439  0.6331  0.1602 -0.2967
14125TIP3   OH263865   4.329   2.470   6.464  0.0659  0.1172  0.2959
14125TIP3    H163866   4.247   2.466   6.512 -0.7539 -0.3049 -1.1009
14125TIP3    H263867   4.389   2.415   6.515 -1.0731 -1.1525  0.3033
14126TIP3   OH263868   3.840   6.203  11.932  0.0899 -0.4349 -0.2687
14126TIP3    H163869   3.784   6.206  11.854  0.9001  0.6781 -0.8345
14126TIP3    H263870   3.783   6.169  12.001 -1.8519  2.2458 -0.3795
14127TIP3   OH263871   1.042   3.238  15.140  0.0754  0.1567 -0.2397
14127TIP3    H163872   1.102   3.286  15.083  0.9076 -2.3460 -1.6295
14127TIP3    H263873   0.969   3.299  15.154  1.5417  2.2033 -0.9150
14128TIP3   OH263874   6.279   0.796  12.327  0.6420  0.6580 -0.0206
14128TIP3    H163875   6.347   0.732  12.309  0.1449  0.2511 -0.4689
14128TIP3    H263876   6.323   0.880  12.322  0.9685  0.4405 -1.0442
14129TIP3   OH263877   3.321   0.863   0.454 -0.1566 -0.4321  0.2991
14129TIP3    H163878   3.288   0.790   0.402 -1.4715  0.9210 -0.8711
14129TIP3    H263879   3.243   0.901   0.494  0.3697  0.8376  0.1830
14130TIP3   OH263880   1.240   5.108  12.876  0.3326  0.0642 -0.1281
14130TIP3    H163881   1.295   5.134  12.802 -0.5749  4.1401  0.3970
14130TIP3    H263882   1.291   5.132  12.953 -0.1430 -0.8572  0.4801
14131TIP3   OH263883   0.712   0.759   0.294 -0.1786 -0.8624  0.2183
14131TIP3    H163884   0.642   0.817   0.323 -0.0374 -1.1099  1.0897
14131TIP3    H263885   0.770   0.814   0.241 -0.5636 -0.4481  0.2298
14132TIP3   OH263886   6.565   3.894  12.933 -0.0306 -0.3884  0.1659
14132TIP3    H163887   6.521   3.979  12.928 -1.5814 -1.0202  1.9498
14132TIP3    H263888   6.501   3.836  12.975  1.1206 -2.3598 -0.6680
14133TIP3   OH263889   5.416   6.541  15.068  0.0825 -0.2211 -0.2019
14133TIP3    H163890   5.390   6.631  15.048 -1.6475 -0.8970 -1.2643
14133TIP3    H263891   5.365   6.488  15.006 -0.1246 -2.0284  1.4429
14134TIP3   OH263892   0.574   4.170   2.697  0.1074 -0.0369 -0.2311
14134TIP3    H163893   0.647   4.225   2.727  0.4968 -1.3919  1.4338
14134TIP3    H263894   0.519   4.159   2.774 -0.8070 -0.6738 -0.9548
14135TIP3   OH263895   4.872   3.232  13.600 -0.3863 -0.0987  0.3484
14135TIP3    H163896   4.952   3.182  13.610  0.2686  0.8833  0.1418
14135TIP3    H263897   4.846   3.217  13.509 -0.3244 -0.2493  0.3548
14136TIP3   OH263898   1.638   6.186  16.970  0.0556  0.0651 -0.5152
14136TIP3    H163899   1.610   6.258  16.912  2.9623  1.1986 -0.7015
14136TIP3    H263900   1.687   6.127  16.913 -1.8913 -1.9489 -0.2568
14137TIP3   OH263901   6.001   1.530   2.516 -0.0404  0.4222  0.4188
14137TIP3    H163902   5.981   1.622   2.531 -1.4052  0.0376  1.1647
14137TIP3    H263903   6.043   1.528   2.430 -1.1772  1.5993 -0.2060
14138TIP3   OH263904   5.293   6.465  14.826  0.2663  0.0416 -0.4894
14138TIP3    H163905   5.353   6.453  14.753  1.5158  0.5588  0.4239
14138TIP3    H263906   5.254   6.379  14.839  0.7590 -0.2879 -1.1340
14139TIP3   OH263907   2.281   1.751  13.089 -0.6891  0.0778  0.2935
14139TIP3    H163908   2.326   1.826  13.129 -2.2119  0.3953  1.5445
14139TIP3    H263909   2.253   1.783  13.004  0.0604  0.3934  0.1549
14140TIP3   OH263910   1.313   2.954  15.515 -0.4322  0.1457  0.1456
14140TIP3    H163911   1.249   3.025  15.524 -0.1275  0.2107  2.4563
14140TIP3    H263912   1.349   2.944  15.603  2.0540 -0.5437 -0.8839
14141TIP3   OH263913   3.842   0.100   0.516 -0.7263 -0.1314 -0.0270
14141TIP3    H163914   3.803   0.106   0.603 -0.3942 -2.8644  0.3864
14141TIP3    H263915   3.892   0.019   0.517 -3.0151 -1.8820 -3.6488
14142TIP3   OH263916   3.052   5.516  14.189 -0.0945  0.3547 -0.2405
14142TIP3    H163917   3.139   5.555  14.198  0.9322 -1.9562  0.3989
14142TIP3    H263918   3.065   5.439  14.134 -2.0823  0.8560 -1.5453
14143TIP3   OH263919   0.742   6.403   0.761  0.3005 -0.4581  0.0561
14143TIP3    H163920   0.718   6.431   0.673  1.6923  0.5346 -0.0432
14143TIP3    H263921   0.659   6.386   0.805 -0.5864  2.3647 -0.3733
14144TIP3   OH263922   1.033   0.682   3.872  0.1175  0.7680  0.4995
14144TIP3    H163923   1.040   0.631   3.791  0.7102  1.0005  0.3946
14144TIP3    H263924   0.943   0.670   3.901  0.6294 -1.5581  1.3004
14145TIP3   OH263925   0.980   5.578   1.639 -0.2005 -0.5108  0.0129
14145TIP3    H163926   0.893   5.617   1.624 -0.4308 -1.0450 -0.0471
14145TIP3    H263927   1.041   5.640   1.598 -0.5128  0.1107  0.4792
14146TIP3   OH263928   2.164   6.352   6.122 -0.3058 -0.4248 -0.2263
14146TIP3    H163929   2.178   6.292   6.195 -3.4306 -1.3278 -0.2491
14146TIP3    H263930   2.151   6.437   6.164  1.5028 -0.1761 -0.0496
14147TIP3   OH263931   2.546   0.011  13.775 -0.7411  1.1356 -0.3126
14147TIP3    H163932   2.553   0.046  13.686 -0.5245  1.1506 -0.2892
14147TIP3    H263933   2.456   0.030  13.800 -0.8916  0.8660 -0.6400
14148TIP3   OH263934   5.432   0.209  15.641 -0.2555 -0.7235 -0.0992
14148TIP3    H163935   5.408   0.204  15.549 -0.0816 -0.8974 -0.1381
14148TIP3    H263936   5.369   0.268  15.680 -0.3235 -0.6409 -0.3334
14149TIP3   OH263937   3.826   2.420  14.988 -0.7094  0.2740 -0.3225
14149TIP3    H163938   3.915   2.392  14.965  0.1625  3.4432 -1.2304
14149TIP3    H263939   3.836   2.465  15.072 -1.4634  0.6369 -0.4195
14150TIP3   OH263940   2.100   0.640   7.010 -0.1395  1.1884  0.1032
14150TIP3    H163941   2.098   0.547   7.029  1.7851  1.0979  0.0576
14150TIP3    H263942   2.008   0.663   6.994 -0.6396 -0.6890  0.0231
14151TIP3   OH263943   4.590   4.036  13.429  0.1504 -0.0133 -0.0136
14151TIP3    H163944   4.581   4.070  13.518 -1.1267 -0.2667 -0.0282
14151TIP3    H263945   4.599   4.114  13.374  3.2472  0.1251  0.4985
14152TIP3   OH263946   4.195   1.418  15.839 -0.2174  0.4693 -0.2066
14152TIP3    H163947   4.262   1.416  15.771 -0.0912  1.4531 -0.1157
14152TIP3    H263948   4.166   1.509  15.842 -0.1248  0.4737  1.1451
14153TIP3   OH263949   3.257   2.621  13.310  0.5097  0.3735  0.5926
14153TIP3    H163950   3.280   2.563  13.383 -0.6559  0.4090  1.0075
14153TIP3    H263951   3.233   2.561  13.239  2.6388  0.3171 -0.1428
14154TIP3   OH263952   4.690   4.692  15.429 -0.2811 -0.3734  0.4353
14154TIP3    H163953   4.647   4.777  15.419  0.1841  0.0672  1.9124
14154TIP3    H263954   4.663   4.642  15.352  1.1693  1.8367 -1.6419
14155TIP3   OH263955   4.620   1.832   4.176  0.5777  0.3240  0.1662
14155TIP3    H163956   4.567   1.883   4.237 -1.0996 -2.3424  1.0786
14155TIP3    H263957   4.646   1.895   4.108 -0.6499  2.5267  1.6264
14156TIP3   OH263958   2.561   3.544   3.098  0.4280  0.5895  0.0517
14156TIP3    H163959   2.616   3.485   3.048 -0.4292  0.3922 -0.6885
14156TIP3    H263960   2.539   3.614   3.036  0.3950  1.0228  0.5416
14157TIP3   OH263961   2.921   0.565  16.943 -0.0488  0.2988  0.2240
14157TIP3    H163962   2.943   0.613  17.023  1.5995  0.9321 -0.5636
14157TIP3    H263963   2.886   0.482  16.974 -0.8805  1.1305  1.6048
14158TIP3   OH263964   2.187   4.464   4.903  0.0875 -0.8091 -0.6376
14158TIP3    H163965   2.270   4.436   4.865  0.6903 -0.1467  0.1431
14158TIP3    H263966   2.140   4.506   4.831  0.5405 -0.9712 -1.0317
14159TIP3   OH263967   2.905   0.473   0.596 -0.2564 -0.2837 -0.1391
14159TIP3    H163968   2.893   0.381   0.618  0.1824 -0.1548  0.6850
14159TIP3    H263969   2.822   0.514   0.622 -0.2666 -0.3655 -0.0408
14160TIP3   OH263970   5.066   3.379   2.550 -0.0954 -0.4765 -0.3105
14160TIP3    H163971   5.032   3.412   2.466 -1.2924  1.3801  0.8352
14160TIP3    H263972   5.049   3.285   2.546 -0.9951 -0.3008 -1.7763
14161TIP3   OH263973   4.641   4.736  15.894  0.3937 -0.2791 -0.1280
14161TIP3    H163974   4.704   4.808  15.895 -1.0623  1.0690  0.5425
14161TIP3    H263975   4.662   4.685  15.971 -0.9157  1.7237  1.6963
14162TIP3   OH263976   6.500   5.910   5.582  0.1519 -0.0988 -0.4700
14162TIP3    H163977   6.451   5.987   5.611 -0.8946 -0.7838 -0.3356
14162TIP3    H263978   6.515   5.860   5.663  0.6967 -0.1119 -0.5763
14163TIP3   OH263979   2.545   1.148   2.818  0.1517 -0.4167 -0.3456
14163TIP3    H163980   2.526   1.055   2.832  0.3233 -0.3652  0.2585
14163TIP3    H263981   2.459   1.188   2.804  0.0950 -0.6981 -0.8447
14164TIP3   OH263982   4.453   5.215  11.858  0.1126 -0.8429 -0.2459
14164TIP3    H163983   4.465   5.307  11.883 -1.0837 -0.8311  0.3510
14164TIP3    H263984   4.374   5.188  11.904  0.1110 -2.0042 -0.8986
14165TIP3   OH263985   3.056   4.607  12.914  0.1097  0.6243  0.3578
14165TIP3    H163986   3.091   4.683  12.958 -1.1751  1.1096  0.5879
14165TIP3    H263987   3.021   4.641  12.831 -0.8123  0.3714  0.6312
14166TIP3   OH263988   4.150   0.597   1.608 -0.0089  0.2045  0.0664
14166TIP3    H163989   4.149   0.512   1.653  0.7891 -0.7911 -1.6923
14166TIP3    H263990   4.073   0.643   1.643  0.7520 -0.3382  2.6473
14167TIP3   OH263991   1.354   2.496  11.324 -0.8671  0.4167 -0.3189
14167TIP3    H163992   1.435   2.547  11.326 -0.8965  0.4716  1.7258
14167TIP3    H263993   1.371   2.422  11.382 -1.5694 -0.7530 -1.5524
14168TIP3   OH263994   1.903   5.974  10.871  0.0273  0.0445  0.3393
14168TIP3    H163995   1.962   6.040  10.836  0.0215 -0.4506 -0.6299
14168TIP3    H263996   1.871   5.927  10.795 -2.2368  0.7845  0.7574
14169TIP3   OH263997   4.602   4.586  16.260 -0.3986  0.3827  0.0696
14169TIP3    H163998   4.525   4.629  16.224 -1.1631 -0.6040  0.4702
14169TIP3    H263999   4.597   4.602  16.355 -1.8634 -2.2626  0.5323
14170TIP3   OH264000   3.397   6.645   2.141 -0.3481  0.0665 -0.6028
14170TIP3    H164001   3.416   6.651   2.048 -2.5632  1.4187 -1.0545
14170TIP3    H264002   3.327   6.580   2.148  0.5840 -0.8795  0.2909
14171TIP3   OH264003   0.043   5.542   6.378 -0.1202  0.0742  0.5897
14171TIP3    H164004   0.096   5.528   6.457  2.0865 -0.3179 -0.8612
14171TIP3    H264005  -0.042   5.504   6.399 -0.0240  1.0854  3.1861
14172TIP3   OH264006   0.349   1.147  13.733 -0.2898  0.0771 -0.1885
14172TIP3    H164007   0.441   1.133  13.712 -0.0403  1.6542 -0.3020
14172TIP3    H264008   0.347   1.232  13.778 -1.7069  0.1828 -0.3757
14173TIP3   OH264009   5.099   4.399  11.464 -0.1586  0.0415 -0.8937
14173TIP3    H164010   5.062   4.325  11.417  2.0420 -1.6304 -0.1828
14173TIP3    H264011   5.048   4.406  11.544 -1.0624  0.0178 -1.4586
14174TIP3   OH264012   2.364   0.497  15.404  0.1876  0.3162 -0.0734
14174TIP3    H164013   2.317   0.442  15.467 -0.6754 -0.0297 -0.9865
14174TIP3    H264014   2.320   0.582  15.410 -1.1709 -0.2249 -1.5040
14175TIP3   OH264015   5.441   2.077  15.658 -0.1836  0.0894  0.0904
14175TIP3    H164016   5.387   2.152  15.682 -0.6783 -0.2946  0.2163
14175TIP3    H264017   5.468   2.094  15.568  1.3302  1.3403  0.7560
14176TIP3   OH264018   2.332   4.887   5.319 -0.0586  0.2906 -0.2534
14176TIP3    H164019   2.372   4.895   5.233  1.8956  0.7399  0.6409
14176TIP3    H264020   2.301   4.797   5.324 -1.8720  0.7464 -2.0645
14177TIP3   OH264021   2.603   6.710   0.614  0.0308 -0.2258 -0.0978
14177TIP3    H164022   2.641   6.643   0.557  1.2228  0.9606 -0.7405
14177TIP3    H264023   2.634   6.793   0.578 -1.6880  0.7088  0.4906
14178TIP3   OH264024   6.536   5.353   1.102 -0.2151 -0.2479  0.3858
14178TIP3    H164025   6.456   5.404   1.087  0.3895  0.6322  0.0424
14178TIP3    H264026   6.591   5.371   1.025 -0.5111 -2.5102 -0.4261
14179TIP3   OH264027   0.002   1.324  12.660  0.1936 -0.5253  0.6672
14179TIP3    H164028   0.004   1.394  12.594  0.9807  0.6014  1.8187
14179TIP3    H264029   0.070   1.263  12.632 -1.5601 -1.7227 -1.2158
14180TIP3   OH264030   6.469   2.003   3.727  0.0175  0.3325 -0.5152
14180TIP3    H164031   6.528   2.068   3.765 -1.9777  2.3724 -0.6972
14180TIP3    H264032   6.416   1.972   3.800 -0.2158  0.2087 -0.7347
14181TIP3   OH264033   3.327   5.771   3.500 -0.3406 -0.2356 -0.5119
14181TIP3    H164034   3.300   5.852   3.457  1.4591  0.0068 -1.2708
14181TIP3    H264035   3.379   5.725   3.434 -0.0145 -1.2745  0.4285
14182TIP3   OH264036   3.517   6.214   1.162  0.0062  0.2511  0.2447
14182TIP3    H164037   3.592   6.249   1.113 -1.3727  0.4083 -1.8631
14182TIP3    H264038   3.519   6.120   1.145 -0.8537  0.3906 -0.7009
14183TIP3   OH264039   0.941   6.648   1.484 -0.0364 -0.3886 -0.7820
14183TIP3    H164040   0.905   6.563   1.510 -0.5791 -0.3847 -1.5005
14183TIP3    H264041   0.940   6.646   1.389  2.1617 -0.4968 -0.8491
14184TIP3   OH264042   4.029   2.842   5.190 -0.5864  0.2144  0.8190
14184TIP3    H164043   4.109   2.820   5.238 -0.1156  0.2528  0.0823
14184TIP3    H264044   4.052   2.922   5.142 -2.0646  2.0536  2.9790
14185TIP3   OH264045   6.129   6.657  14.654  0.3422 -0.3448 -0.7213
14185TIP3    H164046   6.063   6.604  14.608  0.5599  0.5786 -2.1609
14185TIP3    H264047   6.207   6.602  14.655  0.8176  0.1892 -2.9629
14186TIP3   OH264048   0.077   3.878  15.415  0.1623  0.0901 -0.7907
14186TIP3    H164049   0.014   3.881  15.343  0.7241 -1.2662 -1.3744
14186TIP3    H264050   0.134   3.954  15.401  0.3002 -0.1885 -1.8340
14187TIP3   OH264051   3.384   0.421   6.779 -0.2786  0.0024 -0.0189
14187TIP3    H164052   3.453   0.445   6.717  0.9703  0.5166  1.5236
14187TIP3    H264053   3.371   0.328   6.764  1.0259 -0.1886 -0.0727
14188TIP3   OH264054   4.682   3.283   3.901  0.2511  0.0369 -0.3556
14188TIP3    H164055   4.718   3.370   3.882  2.8538 -1.4124 -2.7092
14188TIP3    H264056   4.598   3.282   3.856 -0.9536  2.0086  1.6144
14189TIP3   OH264057   5.899   0.731  15.084 -0.0652 -0.3477 -0.0734
14189TIP3    H164058   5.897   0.768  15.172 -0.0352  0.7894 -0.5299
14189TIP3    H264059   5.892   0.807  15.026 -3.4171 -1.2300 -1.0505
14190TIP3   OH264060   0.478   3.523   0.288 -0.1716 -0.3287  0.2271
14190TIP3    H164061   0.477   3.538   0.193  0.6394 -2.3670 -0.1539
14190TIP3    H264062   0.540   3.587   0.322  0.1447 -0.1033 -0.7459
14191TIP3   OH264063   4.608   6.180  13.674  0.0108 -0.0823  0.8012
14191TIP3    H164064   4.585   6.103  13.622  0.1610 -0.6881  1.6064
14191TIP3    H264065   4.535   6.191  13.734 -0.1264  0.5630  0.5161
14192TIP3   OH264066   4.998   1.955   2.756 -0.5292 -0.4320 -0.2474
14192TIP3    H164067   5.044   2.035   2.784 -1.6787  0.0934  0.2225
14192TIP3    H264068   5.057   1.884   2.780  1.4611  0.3136 -2.5294
14193TIP3   OH264069   4.677   1.263  11.802 -0.1880  0.3392 -0.5791
14193TIP3    H164070   4.728   1.226  11.874 -2.4067 -0.6340  0.6191
14193TIP3    H264071   4.731   1.334  11.767  2.1297 -0.9150  0.2507
14194TIP3   OH264072   6.652   5.914  11.421  0.6247 -0.3380  0.1620
14194TIP3    H164073   6.650   5.938  11.328  1.9741 -0.7031  0.0149
14194TIP3    H264074   6.598   5.980  11.464  0.2459  0.0326 -0.8397
14195TIP3   OH264075   1.374   6.673  13.598  0.6445  0.1735 -0.1622
14195TIP3    H164076   1.423   6.708  13.523  3.5514  0.2685  1.6402
14195TIP3    H264077   1.364   6.748  13.657  2.4135 -0.8190  1.4890
14196TIP3   OH264078   2.573   4.488  11.952  0.0429  0.0471 -0.5328
14196TIP3    H164079   2.490   4.509  11.908  0.5116  0.0368 -1.4572
14196TIP3    H264080   2.548   4.430  12.023 -0.6656 -0.5718 -1.2612
14197TIP3   OH264081   4.133   3.352   5.027 -0.4461  0.4023  0.2577
14197TIP3    H164082   4.063   3.331   5.089 -1.4551  0.5192 -0.7969
14197TIP3    H264083   4.161   3.440   5.052  0.5045 -0.2923  1.7293
14198TIP3   OH264084   5.365   3.155   3.995  0.4242 -0.1230  0.1042
14198TIP3    H164085   5.389   3.209   4.070  1.6101  1.5667 -1.3871
14198TIP3    H264086   5.440   3.096   3.983  0.7928  0.4489 -0.4599
14199TIP3   OH264087   2.359   0.944  15.304 -0.6538  0.2030 -0.4157
14199TIP3    H164088   2.408   0.998  15.366  0.5098 -0.2275 -0.9418
14199TIP3    H264089   2.268   0.973  15.315 -0.2251  1.4199  0.1733
14200TIP3   OH264090   1.950   3.929   1.460 -0.2377 -0.0026  0.0913
14200TIP3    H164091   1.875   3.884   1.422 -0.1730  0.9535 -1.2448
14200TIP3    H264092   2.026   3.876   1.435 -0.1848  0.6568 -1.2749
14201TIP3   OH264093   0.471   1.556   2.896  0.1199 -0.5342 -0.0818
14201TIP3    H164094   0.377   1.563   2.913  0.3344  0.5597  0.7226
14201TIP3    H264095   0.512   1.565   2.981  0.9175 -2.7459 -0.1810
14202TIP3   OH264096   2.502   5.068   4.427  0.0547 -0.3685 -0.2691
14202TIP3    H164097   2.541   5.012   4.495  0.8448  0.4426 -0.0425
14202TIP3    H264098   2.529   5.029   4.345  0.9961 -0.0602 -0.1114
14203TIP3   OH264099   0.843   1.957   2.475  0.3443 -0.1269 -0.2647
14203TIP3    H164100   0.853   1.954   2.380 -1.3004  2.2793 -0.6051
14203TIP3    H264101   0.913   2.016   2.505 -0.5165  0.9657 -0.3160
14204TIP3   OH264102   0.606   1.520  11.029 -0.4279 -0.5552  0.6127
14204TIP3    H164103   0.631   1.470  10.951  1.0165  0.4039  0.4162
14204TIP3    H264104   0.533   1.576  11.000  0.6124  0.3750 -0.3129
14205TIP3   OH264105   2.531   0.653   1.108 -0.2440 -0.8116 -0.7547
14205TIP3    H164106   2.473   0.727   1.089  1.0964  0.4655 -0.0553
14205TIP3    H264107   2.478   0.593   1.159 -1.8815 -1.1778 -2.7565
14206TIP3   OH264108   1.610   1.129  13.628 -0.0734  0.1921 -0.3943
14206TIP3    H164109   1.703   1.131  13.605  0.2430 -1.7611  0.5045
14206TIP3    H264110   1.589   1.036  13.635 -1.3615  0.5927  2.2474
14207TIP3   OH264111   4.303   4.504  14.270  0.3118 -0.7490  0.1492
14207TIP3    H164112   4.289   4.471  14.359 -2.3163 -0.0171  0.0916
14207TIP3    H264113   4.279   4.597  14.275  1.5794 -0.3205 -1.0353
14208TIP3   OH264114   2.792   5.463   3.463 -0.4892  0.7510  0.0378
14208TIP3    H164115   2.841   5.542   3.488 -1.2276  1.1166  0.3480
14208TIP3    H264116   2.710   5.496   3.427 -0.0083  0.1853 -1.6714
14209TIP3   OH264117   6.375   2.136  10.944 -0.1979  0.5639 -0.9908
14209TIP3    H164118   6.428   2.164  10.869  1.2063  1.4881  0.2982
14209TIP3    H264119   6.431   2.152  11.020 -1.7311 -0.0045  0.2986
14210TIP3   OH264120   5.635   6.830   5.763 -0.5662  0.1725 -0.3373
14210TIP3    H164121   5.650   6.813   5.856 -0.6326 -1.7528 -0.6358
14210TIP3    H264122   5.593   6.751   5.730  1.5992 -0.2211 -2.4928
14211TIP3   OH264123   4.334   6.532   1.921  0.1819 -0.3041 -0.0281
14211TIP3    H164124   4.415   6.505   1.963  0.8059 -0.2648 -1.1498
14211TIP3    H264125   4.265   6.480   1.963  0.6308  0.4243  1.6683
14212TIP3   OH264126   5.057   5.750  12.679  0.6761  0.1876  0.4702
14212TIP3    H164127   5.032   5.842  12.674 -0.6770 -0.0968  1.4387
14212TIP3    H264128   5.102   5.733  12.596 -1.6183  0.9946 -1.0308
14213TIP3   OH264129   4.270   6.514   4.030  0.2476  0.0441  0.5941
14213TIP3    H164130   4.303   6.583   3.972  0.9156  0.3641  1.3357
14213TIP3    H264131   4.325   6.520   4.108 -0.6798 -0.3211  1.2983
14214TIP3   OH264132   3.736   5.921  16.162  0.2036 -0.8712  0.0150
14214TIP3    H164133   3.698   5.957  16.082  0.3684  0.7979  0.6512
14214TIP3    H264134   3.815   5.972  16.176 -0.2917 -0.5013  1.7136
14215TIP3   OH264135   4.435   0.650  10.572  0.1378  0.6566 -0.2705
14215TIP3    H164136   4.485   0.569  10.579  0.7865  1.0397 -0.3888
14215TIP3    H264137   4.347   0.627  10.602  0.4687  0.0534  0.2555
14216TIP3   OH264138   4.563   4.743  12.388 -0.0385 -0.0031  0.4205
14216TIP3    H164139   4.613   4.814  12.348 -0.2194  0.0680  0.3196
14216TIP3    H264140   4.629   4.687  12.430  0.1319  0.0338  0.1988
14217TIP3   OH264141   0.678   4.708   2.380  0.2590  0.0107 -0.2886
14217TIP3    H164142   0.589   4.734   2.358  0.3786  0.8802  0.2311
14217TIP3    H264143   0.683   4.713   2.475  1.0087  0.5057 -0.3378
14218TIP3   OH264144   0.623   6.624  12.782 -0.4361  0.1107 -0.2478
14218TIP3    H164145   0.684   6.636  12.855 -0.7534  0.0767  0.0243
14218TIP3    H264146   0.551   6.573  12.819 -1.1192  1.0159 -0.3092
14219TIP3   OH264147   6.636   5.960  16.105  0.0087 -0.4016 -0.0770
14219TIP3    H164148   6.633   6.054  16.118 -0.3280 -0.5830  1.4230
14219TIP3    H264149   6.593   5.945  16.021  3.0619  0.9991 -2.0426
14220TIP3   OH264150   2.130   0.114  15.073  0.2649  0.0502 -0.0676
14220TIP3    H164151   2.144   0.045  15.009 -0.2203 -0.3843  0.2887
14220TIP3    H264152   2.057   0.084  15.126 -1.0779  1.5884 -0.9517
14221TIP3   OH264153   6.541   1.958  11.200 -0.1961  0.0086 -0.4407
14221TIP3    H164154   6.588   1.896  11.145 -1.1425 -1.0947 -0.0392
14221TIP3    H264155   6.460   1.977  11.153  0.1664  1.1187 -0.6557
14222TIP3   OH264156   4.777   1.917   4.880 -0.2225  0.5538 -0.3737
14222TIP3    H164157   4.845   1.933   4.946  1.0206  0.2829 -1.5360
14222TIP3    H264158   4.727   1.998   4.876 -1.0173  0.2184  1.6460
14223TIP3   OH264159   1.623   2.641   5.112 -0.0819  0.0919 -0.4074
14223TIP3    H164160   1.544   2.627   5.164 -1.0247  0.5015 -1.6797
14223TIP3    H264161   1.694   2.609   5.167 -1.0876  0.0793  0.9256
14224TIP3   OH264162   0.059   3.769   2.786 -0.0103  0.0557 -0.0728
14224TIP3    H164163   0.101   3.754   2.702  2.0349 -1.9487  1.1936
14224TIP3    H264164   0.119   3.827   2.833 -0.8900  0.7624  0.2117
14225TIP3   OH264165   5.726   3.709   2.996 -0.3960 -0.2411  0.0737
14225TIP3    H164166   5.673   3.635   3.026 -0.9687  1.0053  2.3463
14225TIP3    H264167   5.815   3.689   3.026 -0.2315 -0.6722 -0.6546
14226TIP3   OH264168   6.758   5.603   5.665  0.1904 -0.0086 -0.0677
14226TIP3    H164169   6.753   5.692   5.698 -0.1328  0.2853 -0.8800
14226TIP3    H264170   6.790   5.612   5.576  0.3250 -0.7182 -0.0980
14227TIP3   OH264171   5.000   1.721  11.935 -0.5489  0.0382  0.3861
14227TIP3    H164172   5.087   1.750  11.909 -0.4408  0.4289  1.1548
14227TIP3    H264173   4.956   1.698  11.853 -0.3375  1.5477 -0.1774
14228TIP3   OH264174   0.592   6.794  15.813 -0.1446  0.6294 -0.2030
14228TIP3    H164175   0.643   6.862  15.767  0.7626 -0.4547 -0.8431
14228TIP3    H264176   0.519   6.842  15.851  0.8089  2.0859 -0.0996
14229TIP3   OH264177   4.155   4.694   2.947 -0.0596  0.0749 -0.2946
14229TIP3    H164178   4.209   4.674   2.871 -0.9123 -0.7799 -0.6957
14229TIP3    H264179   4.094   4.621   2.953 -1.2296  1.0483  0.0833
14230TIP3   OH264180   6.277   4.039   0.402  0.3661  0.1706  0.7359
14230TIP3    H164181   6.318   4.041   0.489 -0.4344 -0.3632  1.1383
14230TIP3    H264182   6.186   4.061   0.419 -0.2992 -2.1239  0.3484
14231TIP3   OH264183   2.502   4.398  13.783  0.0773 -0.0790 -0.1716
14231TIP3    H164184   2.570   4.392  13.716 -0.3424 -0.0406 -0.6090
14231TIP3    H264185   2.425   4.432  13.736 -0.3963 -0.6119  0.2040
14232TIP3   OH264186   0.366   3.303  11.810 -0.3639 -0.3222  0.0431
14232TIP3    H164187   0.283   3.255  11.821  0.1938 -1.1480  0.7364
14232TIP3    H264188   0.381   3.344  11.894 -1.6797  2.5415 -0.9901
14233TIP3   OH264189   6.684   2.300  10.938 -0.0205 -0.8273 -0.3884
14233TIP3    H164190   6.726   2.379  10.907 -1.1108  0.7196  1.7787
14233TIP3    H264191   6.663   2.250  10.859 -1.4769  2.1873 -2.0773
14234TIP3   OH264192   5.086   1.663   2.921 -0.1353 -1.1981 -0.3743
14234TIP3    H164193   5.070   1.569   2.916  0.5991 -1.3698  0.3240
14234TIP3    H264194   5.129   1.676   3.005  1.0089 -0.4202 -1.0549
14235TIP3   OH264195   1.339   3.619   4.850 -0.1469 -0.3609  0.1704
14235TIP3    H164196   1.266   3.618   4.913 -0.4646 -1.1866 -0.1879
14235TIP3    H264197   1.411   3.578   4.897  0.2941  1.0160  0.7398
14236TIP3   OH264198   5.591   1.803   0.802  0.2846  0.9129  0.1129
14236TIP3    H164199   5.605   1.819   0.896 -1.2374  0.9898  0.3660
14236TIP3    H264200   5.620   1.713   0.788  0.0231  0.7155  0.7917
14237TIP3   OH264201   5.326   1.648  13.327 -0.6787 -0.0058  0.2479
14237TIP3    H164202   5.286   1.645  13.241 -0.7436  0.1170  0.2729
14237TIP3    H264203   5.285   1.577  13.376 -2.1119  1.1491  0.8035
14238TIP3   OH264204   6.780   5.605   2.977 -0.2000  0.1590  0.5403
14238TIP3    H164205   6.725   5.543   3.026 -1.8565  2.5876  1.9251
14238TIP3    H264206   6.722   5.644   2.913  0.4386  1.2710  0.6130
14239TIP3   OH264207   0.931   2.812  12.823 -0.0138 -0.3216 -0.2635
14239TIP3    H164208   0.925   2.717  12.837 -0.9670 -0.5477 -1.9580
14239TIP3    H264209   0.843   2.844  12.841 -0.3729 -0.1540 -2.0915
14240TIP3   OH264210   2.080   4.068  13.436 -0.3034  1.0836  0.0237
14240TIP3    H164211   2.080   4.023  13.351 -1.0069  1.8128 -0.3845
14240TIP3    H264212   2.160   4.121  13.436  0.0416  0.5605  0.1028
14241TIP3   OH264213   2.287   2.415   4.480  0.3668  0.5538 -0.2401
14241TIP3    H164214   2.345   2.339   4.488 -0.4747 -0.0675  0.1892
14241TIP3    H264215   2.344   2.487   4.455  1.3789  0.0302  0.4925
14242TIP3   OH264216   2.104   5.220   5.080 -0.0966  0.2577  0.2179
14242TIP3    H164217   2.043   5.259   5.018  0.8947 -2.7141 -2.9776
14242TIP3    H264218   2.186   5.267   5.066 -0.1807  0.3936  0.1856
14243TIP3   OH264219   5.063   4.174   1.826  0.0213 -0.2170 -0.2489
14243TIP3    H164220   5.130   4.171   1.895 -1.2944 -0.4547  1.0750
14243TIP3    H264221   4.997   4.112   1.855 -0.7076 -0.1083 -1.6162
14244TIP3   OH264222   2.342   2.451  16.292 -0.2028  0.5004  0.0815
14244TIP3    H164223   2.316   2.419  16.205 -2.1364  0.7063  0.5237
14244TIP3    H264224   2.259   2.480  16.331  0.1411 -2.0452  3.0196
14245TIP3   OH264225   6.631   3.143  16.594  0.1103 -0.6440 -0.3731
14245TIP3    H164226   6.560   3.109  16.650 -1.6834  1.2536 -1.3449
14245TIP3    H264227   6.625   3.091  16.514  0.7053 -1.3405  0.0161
14246TIP3   OH264228   0.881   4.611  15.024 -0.2583 -0.1866 -0.6626
14246TIP3    H164229   0.886   4.517  15.038 -0.5642 -0.3851 -1.8101
14246TIP3    H264230   0.846   4.645  15.107  2.1256 -0.7615  0.6822
14247TIP3   OH264231   2.835   2.429  13.732  0.4258 -0.5329 -0.3699
14247TIP3    H164232   2.747   2.463  13.719  0.6247  0.4472  0.6632
14247TIP3    H264233   2.846   2.362  13.665 -0.3238  0.8235 -1.9057
14248TIP3   OH264234   6.058   6.445   3.139  0.1549  0.3485 -0.1499
14248TIP3    H164235   6.105   6.362   3.129 -0.2089  0.0423  0.6239
14248TIP3    H264236   6.039   6.472   3.049  0.0956 -0.5165 -0.4096
14249TIP3   OH264237   3.520   6.598   0.227 -0.5922 -0.0305  0.0965
14249TIP3    H164238   3.444   6.656   0.213  0.3309  1.4001  0.8081
14249TIP3    H264239   3.554   6.624   0.312  1.0971 -0.1866 -0.5095
14250TIP3   OH264240   5.559   4.158   3.152 -0.0931  0.4313  0.1438
14250TIP3    H164241   5.471   4.147   3.188 -0.2478  0.6627 -0.1560
14250TIP3    H264242   5.562   4.097   3.078  0.7718 -1.2422  1.4735
14251TIP3   OH264243   4.766   3.625  13.170 -0.1183 -0.4403 -0.1613
14251TIP3    H164244   4.683   3.670  13.191  1.7819  1.9326  3.1706
14251TIP3    H264245   4.811   3.686  13.111  0.3063 -0.4601  0.1397
14252TIP3   OH264246   4.533   2.514   1.417  0.6671 -0.4499 -0.4610
14252TIP3    H164247   4.507   2.574   1.487 -1.7067 -0.2482 -1.4135
14252TIP3    H264248   4.530   2.427   1.458  1.3927 -0.1581  0.2185
14253TIP3   OH264249   4.056   0.948   0.351 -0.0125  0.5185 -0.3415
14253TIP3    H164250   3.972   0.978   0.386  0.7429  1.0365  1.1139
14253TIP3    H264251   4.109   1.028   0.346  1.0097 -0.0897  0.5776
14254TIP3   OH264252   3.393   1.494   3.580 -0.0351  0.1998 -0.0268
14254TIP3    H164253   3.423   1.561   3.640  1.1714 -0.5091  0.1943
14254TIP3    H264254   3.455   1.422   3.591 -1.6820 -1.2509  0.2593
14255TIP3   OH264255   2.830   3.041   0.005  0.1293  0.3123  0.4693
14255TIP3    H164256   2.912   3.011   0.042  1.1036  2.0984 -0.1133
14255TIP3    H264257   2.855   3.091  -0.073 -1.6688 -0.9643 -1.0176
14256TIP3   OH264258   5.294   5.949  15.505 -0.0989  0.3273 -0.8474
14256TIP3    H164259   5.297   6.045  15.512 -0.6756  0.2816  0.2895
14256TIP3    H264260   5.256   5.932  15.419  0.0833  1.1226 -1.0905
14257TIP3   OH264261   0.048   4.651  15.135  0.9626 -0.1068  0.5310
14257TIP3    H164262  -0.011   4.724  15.114  0.7220 -0.2489  0.7143
14257TIP3    H264263   0.020   4.622  15.222  0.4957 -0.9769  0.0986
14258TIP3   OH264264   4.834   6.625  16.970  0.3739 -0.3084 -0.5615
14258TIP3    H164265   4.753   6.675  16.958  0.4342  0.8148  2.7728
14258TIP3    H264266   4.888   6.648  16.894 -1.7827  0.1274 -2.0587
14259TIP3   OH264267   6.720   0.715  12.474  0.0726  0.3413 -0.1829
14259TIP3    H164268   6.712   0.620  12.482 -1.1995  0.0943 -3.0886
14259TIP3    H264269   6.761   0.728  12.388 -0.5659  2.4044 -0.2235
14260TIP3   OH264270   6.615   3.589  11.711 -0.7984 -0.0379  0.1893
14260TIP3    H164271   6.703   3.620  11.730 -1.7255  2.7863  0.3756
14260TIP3    H264272   6.589   3.540  11.788  0.3622 -0.3682  0.3887
14261TIP3   OH264273   6.430   4.640  15.430  0.0259  0.7012  0.2020
14261TIP3    H164274   6.386   4.604  15.507  0.7250  0.0559  0.3088
14261TIP3    H264275   6.382   4.603  15.356  0.9513 -0.7843  0.3025
14262TIP3   OH264276   0.006   4.381   3.598  0.5256  0.1221  0.0578
14262TIP3    H164277  -0.019   4.470   3.624 -0.8967 -0.1684 -0.2260
14262TIP3    H264278  -0.026   4.326   3.670  0.5164 -0.2585 -0.2369
14263TIP3   OH264279   0.023   5.577  15.183 -0.2906 -0.1620  0.7873
14263TIP3    H164280   0.088   5.507  15.181 -1.0511 -0.8664 -0.5891
14263TIP3    H264281  -0.049   5.545  15.128 -0.9370  1.4400  0.6420
14264TIP3   OH264282   0.241   1.451  11.413 -0.1187  0.4141  0.1353
14264TIP3    H164283   0.218   1.486  11.327 -1.8544 -1.1502 -0.1124
14264TIP3    H264284   0.246   1.356  11.400 -2.2381 -0.0591  2.0461
14265TIP3   OH264285   5.854   1.226  12.446 -0.6191  0.0733  0.0439
14265TIP3    H164286   5.897   1.141  12.454 -0.6730  0.1632  1.7178
14265TIP3    H264287   5.916   1.279  12.396  0.1724 -0.4776  0.4118
14266TIP3   OH264288   6.301   3.666  14.006 -0.4450  0.4882  0.2536
14266TIP3    H164289   6.263   3.588  14.045 -0.1545 -0.0223 -0.4717
14266TIP3    H264290   6.337   3.715  14.080 -2.2632  0.8774  0.9422
14267TIP3   OH264291   1.610   2.034   1.988  0.0393  0.3217  0.1551
14267TIP3    H164292   1.697   2.036   1.950 -0.3353 -0.7706 -0.8411
14267TIP3    H264293   1.598   1.943   2.016 -0.8178  0.4288  0.1717
14268TIP3   OH264294   1.510   0.446   1.451 -0.0264  0.5586  0.0995
14268TIP3    H164295   1.445   0.378   1.431 -0.3384  1.0955 -0.7912
14268TIP3    H264296   1.560   0.411   1.525  0.6720 -1.2079 -1.1424
14269TIP3   OH264297   0.491   3.991   3.410 -0.0960  0.1363 -0.1329
14269TIP3    H164298   0.400   3.971   3.385  0.4165 -0.8123 -1.3137
14269TIP3    H264299   0.521   3.914   3.457 -0.5974  1.3594  2.4009
14270TIP3   OH264300   0.374   6.560  10.331 -0.0570  0.0572  0.4297
14270TIP3    H164301   0.427   6.598  10.401  0.8705  0.9129 -0.6894
14270TIP3    H264302   0.437   6.516  10.275 -0.7616 -0.4538  0.0204
14271TIP3   OH264303   4.889   0.033   4.667 -0.0394  0.3853 -0.5289
14271TIP3    H164304   4.931   0.029   4.753 -2.6125 -1.4544  0.7615
14271TIP3    H264305   4.831   0.109   4.672 -2.1331 -1.1805  0.4368
14272TIP3   OH264306   5.812   2.879  15.068  0.2895  0.1208 -0.3089
14272TIP3    H164307   5.740   2.939  15.049  0.1218  0.0531  0.1151
14272TIP3    H264308   5.891   2.930  15.051  0.1696 -0.1699 -1.9815
14273TIP3   OH264309   3.992   0.256  15.559  0.0568  0.3763 -0.5599
14273TIP3    H164310   4.069   0.222  15.513 -0.3582  1.0823 -1.8196
14273TIP3    H264311   3.926   0.266  15.490 -0.9729  0.3415  0.4018
14274TIP3   OH264312   2.997   3.613  11.048  0.2254  0.2018  0.6012
14274TIP3    H164313   3.038   3.543  11.098 -1.0818 -0.9122  0.1857
14274TIP3    H264314   3.043   3.613  10.964  0.9463  0.5883  0.9870
14275TIP3   OH264315   6.080   3.304  14.732  0.1567 -0.5104  0.2986
14275TIP3    H164316   6.030   3.359  14.792  1.1571  1.4675 -0.6060
14275TIP3    H264317   6.170   3.335  14.740  0.5068 -1.0310 -1.3134
14276TIP3   OH264318   4.886   1.304   4.885  0.1879 -0.3783 -0.2633
14276TIP3    H164319   4.802   1.351   4.883 -0.1947 -1.0539 -0.5648
14276TIP3    H264320   4.937   1.350   4.951 -1.0351 -0.9608  1.1542
14277TIP3   OH264321   5.817   5.859   6.022 -0.1239  0.0487 -0.2700
14277TIP3    H164322   5.778   5.853   6.109  0.7070  0.1993  0.1287
14277TIP3    H264323   5.863   5.776   6.011  0.1614  0.2190 -0.3701
14278TIP3   OH264324   3.180   6.493   2.855  0.1177  0.0861  0.1471
14278TIP3    H164325   3.154   6.473   2.945  1.2063 -2.3679  0.0183
14278TIP3    H264326   3.275   6.482   2.855  0.1299  0.0464 -1.2851
14279TIP3   OH264327   6.826   3.517   4.574 -0.2638 -0.0689 -0.0079
14279TIP3    H164328   6.838   3.520   4.669  0.5086 -0.3054 -0.0953
14279TIP3    H264329   6.827   3.424   4.553 -3.3100 -0.2172  0.0925
14280TIP3   OH264330   5.243   3.071  15.717  0.2016  0.0962 -0.4252
14280TIP3    H164331   5.162   3.021  15.710  0.0617  0.1683  0.4858
14280TIP3    H264332   5.214   3.163  15.724  0.3260  0.0846  0.3528
14281TIP3   OH264333   4.880   0.232  13.208 -0.2206  0.1701  0.2556
14281TIP3    H164334   4.906   0.199  13.294 -0.6296  0.2461  0.4074
14281TIP3    H264335   4.829   0.161  13.169  1.9768 -0.8719 -0.9330
14282TIP3   OH264336   4.379   5.667   1.607  0.2183 -0.3587  0.1153
14282TIP3    H164337   4.296   5.626   1.631  0.7072 -1.3326  0.1718
14282TIP3    H264338   4.420   5.606   1.546  0.3743  0.6670 -0.8499
14283TIP3   OH264339   1.656   5.925   0.539 -0.3812 -0.0125  0.2136
14283TIP3    H164340   1.639   5.929   0.445  0.4003 -1.7640 -0.0530
14283TIP3    H264341   1.700   6.007   0.559 -1.7655  0.9757 -0.6604
14284TIP3   OH264342   5.750   0.650   3.908 -0.2167  0.1194 -0.1159
14284TIP3    H164343   5.822   0.664   3.969  0.1780  1.0148 -0.7777
14284TIP3    H264344   5.674   0.633   3.964  0.4032 -0.3918  0.5874
14285TIP3   OH264345   3.862   0.607   0.580 -0.2355 -0.6238 -0.1317
14285TIP3    H164346   3.801   0.679   0.601  0.1575 -0.0611 -0.8810
14285TIP3    H264347   3.810   0.546   0.528  0.1926  0.5768 -2.0660
14286TIP3   OH264348   5.237   5.896   0.080  0.2143  0.1523  0.3499
14286TIP3    H164349   5.278   5.813   0.057 -0.4664 -0.0297 -0.2305
14286TIP3    H264350   5.300   5.938   0.138  0.0116 -1.3331  1.7225
14287TIP3   OH264351   0.700   6.218   5.027  0.3113  0.5672 -0.3922
14287TIP3    H164352   0.741   6.178   5.103 -0.9846 -0.1492 -0.0378
14287TIP3    H264353   0.768   6.220   4.960  0.8684 -0.6985  0.1237
14288TIP3   OH264354   6.807   3.398  11.496  0.0018  0.1355 -0.0910
14288TIP3    H164355   6.859   3.440  11.564 -1.5129  0.4580  0.9368
14288TIP3    H264356   6.800   3.307  11.525 -1.2144  0.4204  0.6046
14289TIP3   OH264357   0.962   4.884   1.685 -0.0770 -0.0678  0.0891
14289TIP3    H164358   0.982   4.973   1.656  0.4991 -0.7485 -1.7532
14289TIP3    H264359   1.021   4.868   1.759 -0.5320  1.2219  0.7525
14290TIP3   OH264360   5.640   5.842  12.580  0.6203 -0.3957 -0.0421
14290TIP3    H164361   5.569   5.905  12.590  1.4661  0.5128  0.3639
14290TIP3    H264362   5.682   5.839  12.665  0.9413 -1.1047 -0.2140
14291TIP3   OH264363   4.482   1.780   5.972 -0.6548  0.4301 -0.1080
14291TIP3    H164364   4.513   1.853   6.026 -0.4481  0.4539 -0.2583
14291TIP3    H264365   4.473   1.707   6.034  0.0925  0.3124 -0.1325
14292TIP3   OH264366   4.996   4.672   0.404 -0.1318  0.0151  0.0120
14292TIP3    H164367   5.055   4.724   0.459 -0.3128  0.3055 -0.0648
14292TIP3    H264368   4.915   4.723   0.401  0.1394  0.3992 -1.1882
14293TIP3   OH264369   4.929   2.690   3.025  0.1724 -0.0317 -0.1581
14293TIP3    H164370   4.848   2.650   2.995  0.1411 -1.6162  1.8223
14293TIP3    H264371   4.901   2.756   3.088  0.3948 -0.3175  0.2441
14294TIP3   OH264372   0.054   6.704   4.117  0.1484 -0.6871  0.1403
14294TIP3    H164373   0.128   6.714   4.177 -0.7788 -0.6781  1.3159
14294TIP3    H264374   0.092   6.664   4.039  1.3246 -1.0485  0.8700
14295TIP3   OH264375   3.731   5.937  10.889  0.4546  0.0483  0.9059
14295TIP3    H164376   3.683   6.019  10.883  2.0170  0.8958 -1.2200
14295TIP3    H264377   3.800   5.953  10.953  1.1078  0.6240  0.0778
14296TIP3   OH264378   1.252   2.675   1.756 -0.0309  0.0390 -0.0666
14296TIP3    H164379   1.233   2.584   1.735 -2.5517  0.3694  0.4751
14296TIP3    H264380   1.296   2.709   1.678 -0.3625 -1.2619 -0.8567
14297TIP3   OH264381   1.891   2.318  16.322  0.2134  0.3869 -0.0753
14297TIP3    H164382   1.887   2.310  16.418 -1.3656 -0.2929 -0.1620
14297TIP3    H264383   1.804   2.348  16.297  0.5021  0.2292 -1.3327
14298TIP3   OH264384   6.565   2.804   6.363  0.8702 -0.0693  0.3565
14298TIP3    H164385   6.552   2.710   6.375 -1.3706 -0.3877 -2.9548
14298TIP3    H264386   6.476   2.840   6.357  1.6408  1.8378 -0.7204
14299TIP3   OH264387   0.442   3.091  13.921 -0.5476  0.1211 -0.1462
14299TIP3    H164388   0.378   3.089  13.850 -1.8383 -0.2771  0.9909
14299TIP3    H264389   0.433   3.006  13.964  1.7759 -0.5354 -0.7986
14300TIP3   OH264390   0.334   5.126   0.165 -0.0517 -0.0339 -0.4251
14300TIP3    H164391   0.388   5.198   0.131  3.1394 -1.6518  0.8511
14300TIP3    H264392   0.322   5.067   0.090 -1.1395  0.8734 -1.0052
14301TIP3   OH264393   0.659   3.435  15.334  0.1198  0.5213 -0.6650
14301TIP3    H164394   0.628   3.484  15.410  0.0111  0.6802 -0.8121
14301TIP3    H264395   0.731   3.381  15.368 -2.2786 -2.2555  0.4149
14302TIP3   OH264396   4.942   2.315   3.962  0.0430 -0.6618  0.0419
14302TIP3    H164397   4.925   2.225   3.935  0.3972 -1.1289  1.3025
14302TIP3    H264398   4.999   2.307   4.039  0.4356  0.6542 -0.0878
14303TIP3   OH264399   5.293   5.499   1.831 -0.2841  0.4347 -0.0764
14303TIP3    H164400   5.346   5.563   1.878 -0.7701  0.8855 -0.1421
14303TIP3    H264401   5.328   5.501   1.741 -1.4484  1.9096 -0.5305
14304TIP3   OH264402   5.559   2.411   0.592 -0.3353  0.5903  0.7687
14304TIP3    H164403   5.467   2.437   0.588 -0.0652  1.4647 -1.8925
14304TIP3    H264404   5.605   2.487   0.628 -0.4315  0.9958  0.0569
14305TIP3   OH264405   4.570   3.628  11.149  0.1927  0.1880 -0.0817
14305TIP3    H164406   4.656   3.659  11.121  0.5676 -2.1502 -1.7602
14305TIP3    H264407   4.581   3.609  11.242  1.6265 -0.4070 -0.3446
14306TIP3   OH264408   0.752   0.478   4.165 -0.4040 -0.0666 -0.1306
14306TIP3    H164409   0.841   0.472   4.200 -0.9127 -0.2512  1.1756
14306TIP3    H264410   0.739   0.397   4.116 -0.0924 -0.3381  0.2395
14307TIP3   OH264411   4.520   0.309  15.536 -0.5126 -1.1040  0.6658
14307TIP3    H164412   4.586   0.316  15.605  1.7118 -0.5202 -1.4031
14307TIP3    H264413   4.486   0.398  15.526 -1.0665 -1.2497  1.1848
14308TIP3   OH264414   1.415   0.299   3.831 -0.2467  0.0775  0.1643
14308TIP3    H164415   1.334   0.335   3.867  0.8430  1.3762  1.4114
14308TIP3    H264416   1.467   0.376   3.807  0.2648 -0.7354 -1.4959
14309TIP3   OH264417   4.434   5.941   1.054  0.7144 -0.3230 -0.1162
14309TIP3    H164418   4.361   5.990   1.017  1.5898  0.6420 -0.6133
14309TIP3    H264419   4.502   5.945   0.986  1.4699 -0.6239  0.6132
14310TIP3   OH264420   0.687   2.767  16.432  0.0631  0.5032 -0.0046
14310TIP3    H164421   0.718   2.683  16.464  1.2024  0.5033 -0.9991
14310TIP3    H264422   0.736   2.781  16.351  0.5080  2.4848  0.5378
14311TIP3   OH264423   4.336   5.028   0.602  0.0511 -0.0197 -0.3184
14311TIP3    H164424   4.253   4.988   0.576 -1.3026  2.4792 -0.1603
14311TIP3    H264425   4.390   5.024   0.524 -0.9258 -0.0178 -1.0159
14312TIP3   OH264426   4.580   1.946  12.431  0.7811 -0.0110  0.0905
14312TIP3    H164427   4.667   1.956  12.393  0.2748 -0.0193 -1.1296
14312TIP3    H264428   4.524   1.924  12.357 -0.1837 -0.4686  0.9216
14313TIP3   OH264429   1.663   3.180  14.007  0.1393 -1.0082  0.1208
14313TIP3    H164430   1.639   3.100  14.054  1.5862 -1.5916 -0.0718
14313TIP3    H264431   1.736   3.217  14.058 -1.8780  1.4300  1.4608
14314TIP3   OH264432   5.300   6.087  13.183 -0.4053  0.2648 -0.3763
14314TIP3    H164433   5.345   6.056  13.262 -0.9279 -0.0351 -0.1881
14314TIP3    H264434   5.271   6.007  13.139 -0.5233  0.4460 -0.6308
14315TIP3   OH264435   6.281   6.778   2.934 -0.0824  0.1172  0.5566
14315TIP3    H164436   6.294   6.768   3.028  0.3387 -1.0458  0.3875
14315TIP3    H264437   6.186   6.775   2.923 -0.1886  1.2590  1.0339
14316TIP3   OH264438   2.588   5.618  12.628 -0.3378 -0.2579  0.5157
14316TIP3    H164439   2.522   5.666  12.579 -0.4682 -0.9327  0.0102
14316TIP3    H264440   2.554   5.529  12.635  0.3548 -0.5345  0.5411
14317TIP3   OH264441   5.661   2.358   3.839 -0.3147 -0.3231  0.7862
14317TIP3    H164442   5.663   2.421   3.911 -0.9256  0.2571  0.3086
14317TIP3    H264443   5.753   2.339   3.821 -0.1560 -0.6899  1.8931
14318TIP3   OH264444   0.906   0.913   0.180 -0.5227 -0.3389 -0.0317
14318TIP3    H164445   0.943   0.889   0.096  3.1748 -1.3803  1.7163
14318TIP3    H264446   0.911   1.009   0.181 -0.4281 -0.3242 -0.8826
14319TIP3   OH264447   4.922   5.101   4.494 -0.1848 -0.0751 -0.4031
14319TIP3    H164448   4.928   5.151   4.575 -0.0852  0.1662 -0.5605
14319TIP3    H264449   4.862   5.152   4.439 -0.9657 -0.6920 -0.1450
14320TIP3   OH264450   2.319   0.381  13.727 -0.5453  0.6348  0.2242
14320TIP3    H164451   2.293   0.472  13.740  1.1306  1.3531 -1.1106
14320TIP3    H264452   2.337   0.374  13.634 -0.7716 -1.1240  0.2810
14321TIP3   OH264453   1.927   6.844  13.917 -0.9411 -0.9483  0.0949
14321TIP3    H164454   1.983   6.840  13.839 -0.5241  2.4373  0.0937
14321TIP3    H264455   1.838   6.848  13.883 -0.7610  0.4766 -0.2572
14322TIP3   OH264456   6.542   6.536   3.473  0.4332  0.0929 -0.6440
14322TIP3    H164457   6.536   6.542   3.378 -1.4647 -0.6506 -0.6070
14322TIP3    H264458   6.539   6.442   3.492 -1.6876  0.2743  0.2259
14323TIP3   OH264459   0.726   5.890   0.631  0.3692  0.5881 -0.1290
14323TIP3    H164460   0.671   5.892   0.553 -0.3947 -0.5901  0.3423
14323TIP3    H264461   0.811   5.922   0.602  0.8042 -1.9379 -2.0393
14324TIP3   OH264462   2.193   0.719  17.065 -0.3914  0.1527 -0.2136
14324TIP3    H164463   2.140   0.655  17.113 -0.4474  0.8564  0.7059
14324TIP3    H264464   2.217   0.675  16.984 -1.2638 -0.6649 -0.0463
14325TIP3   OH264465   2.865   1.178  17.052  0.5710 -1.0280  0.1537
14325TIP3    H164466   2.930   1.195  16.985 -0.3818 -0.3235 -0.6319
14325TIP3    H264467   2.800   1.122  17.009 -0.1553 -0.3975  0.3858
14326TIP3   OH264468   3.764   5.047  11.476  0.3278 -0.5053  0.2532
14326TIP3    H164469   3.814   5.005  11.406 -0.4458 -1.3503  0.1839
14326TIP3    H264470   3.673   5.019  11.461  0.3576 -2.1018  2.5460
14327TIP3   OH264471   3.918   4.059   0.712  0.6615  0.4944  0.0391
14327TIP3    H164472   3.939   4.064   0.805 -1.1155  2.7182  0.4129
14327TIP3    H264473   3.890   3.968   0.699 -0.9772  0.5825  2.1991
14328TIP3   OH264474   1.833   3.584   5.083  0.5950 -0.2143  0.3268
14328TIP3    H164475   1.817   3.624   5.169  0.6477 -0.9338  0.6806
14328TIP3    H264476   1.826   3.490   5.099  1.6350 -0.4094 -0.2425
14329TIP3   OH264477   2.959   3.001   1.516  0.1733  0.1676  0.3967
14329TIP3    H164478   3.008   3.059   1.457 -1.0695 -0.5836 -1.4812
14329TIP3    H264479   2.999   2.915   1.503 -1.7482 -0.5418 -1.4736
14330TIP3   OH264480   5.576   0.237   5.676 -0.4498 -0.4266 -0.4870
14330TIP3    H164481   5.654   0.277   5.715  0.7550 -1.5897 -1.6098
14330TIP3    H264482   5.586   0.143   5.693 -1.8806 -0.5552 -0.2149
14331TIP3   OH264483   3.256   0.158   5.907 -0.2096 -0.0774 -0.2681
14331TIP3    H164484   3.253   0.081   5.964  0.8957 -0.7926 -1.1448
14331TIP3    H264485   3.183   0.213   5.937 -0.8125 -1.3018  0.5823
14332TIP3   OH264486   1.850   0.685  16.394  0.2313 -0.7674 -0.3210
14332TIP3    H164487   1.935   0.721  16.369  0.2892 -1.2024 -0.7552
14332TIP3    H264488   1.867   0.636  16.474  0.2493 -0.2691 -0.0136
14333TIP3   OH264489   5.598   4.715   1.494  0.6483 -0.0897  0.3664
14333TIP3    H164490   5.593   4.721   1.589 -1.6930  0.6751  0.2709
14333TIP3    H264491   5.576   4.624   1.474 -1.4914  0.3383  0.5245
14334TIP3   OH264492   5.059   6.385  12.273 -0.6186  0.3985 -0.1953
14334TIP3    H164493   5.030   6.346  12.191  1.0432 -0.8687 -0.2508
14334TIP3    H264494   5.015   6.470  12.277 -1.4193  0.1073 -1.9472
14335TIP3   OH264495   5.306   2.156  14.087 -0.0576  0.1452  0.3685
14335TIP3    H164496   5.278   2.156  13.996  1.2218 -0.5754 -0.0561
14335TIP3    H264497   5.375   2.222  14.091  1.8945 -1.7655  0.0989
14336TIP3   OH264498   3.520   2.890  15.719  0.0165  0.3354 -0.1856
14336TIP3    H164499   3.437   2.932  15.695 -0.2517  0.0974  0.3068
14336TIP3    H264500   3.539   2.831  15.646 -2.0293 -2.1959  1.1588
14337TIP3   OH264501   6.208   5.530  13.158 -0.1513 -0.2635  0.1088
14337TIP3    H164502   6.203   5.484  13.243 -0.6437 -1.1943 -0.4064
14337TIP3    H264503   6.174   5.617  13.176 -1.1622 -0.7619  0.6718
14338TIP3   OH264504   3.133   2.121  13.716  0.0939 -0.2903  0.1837
14338TIP3    H164505   3.161   2.178  13.644 -1.3660 -0.6909 -0.7281
14338TIP3    H264506   3.167   2.164  13.795 -1.0255  1.9352 -0.4631
14339TIP3   OH264507   0.852   6.131  13.711 -0.0039 -0.4219  0.0312
14339TIP3    H164508   0.915   6.059  13.710 -1.2113 -1.5311 -0.5865
14339TIP3    H264509   0.905   6.210  13.701  1.1445 -1.4340 -2.9664
14340TIP3   OH264510   6.821   5.088  15.057 -0.4041 -1.2389 -0.2550
14340TIP3    H164511   6.728   5.108  15.067 -0.4908 -1.8590  0.2730
14340TIP3    H264512   6.847   5.053  15.142  0.1221 -1.8021 -0.6398
14341TIP3   OH264513   5.020   1.753  12.950  0.6139 -0.6343  1.3552
14341TIP3    H164514   5.070   1.701  13.013  1.7531  0.3563  1.3123
14341TIP3    H264515   5.003   1.835  12.995 -0.4149 -0.7059  1.1167
14342TIP3   OH264516   1.642   0.074  16.409  0.3148  0.0749  0.2520
14342TIP3    H164517   1.642  -0.016  16.379  1.8034  0.3366 -0.6526
14342TIP3    H264518   1.679   0.070  16.497 -1.6465 -0.3997  1.1120
14343TIP3   OH264519   3.676   1.314   2.329 -0.4380  0.2480 -0.2665
14343TIP3    H164520   3.590   1.353   2.313 -0.2964  0.6578 -0.0543
14343TIP3    H264521   3.736   1.364   2.272 -0.2659  0.2975 -0.0453
14344TIP3   OH264522   5.811   4.375  11.389  0.1876 -0.0658 -0.2696
14344TIP3    H164523   5.806   4.427  11.470 -0.6270 -1.2334  0.4636
14344TIP3    H264524   5.725   4.384  11.349  0.0798 -0.7342 -0.2021
14345TIP3   OH264525   5.116   6.210   3.638 -0.0683 -0.3198  0.3315
14345TIP3    H164526   5.048   6.176   3.696 -0.8687 -1.4949 -1.2375
14345TIP3    H264527   5.102   6.305   3.639  0.4750 -0.1832  2.6386
14346TIP3   OH264528   5.079   0.791  15.703  0.5002  0.5245 -0.7827
14346TIP3    H164529   5.062   0.697  15.702  0.0914  0.5950 -0.6646
14346TIP3    H264530   5.058   0.821  15.615 -3.1621  1.1403  0.0996
14347TIP3   OH264531   0.705   1.173   3.580  0.0110 -0.0645  0.4976
14347TIP3    H164532   0.721   1.168   3.674  0.4360 -1.4219  0.3727
14347TIP3    H264533   0.779   1.224   3.546 -0.8233  1.5745  1.0247
14348TIP3   OH264534   5.885   0.188   5.338 -0.3544  0.2754 -0.2676
14348TIP3    H164535   5.829   0.115   5.311 -1.8181  2.0462 -2.3537
14348TIP3    H264536   5.974   0.157   5.322 -0.8198 -1.5663  0.4001
14349TIP3   OH264537   6.301   0.018  15.103  0.2736  0.5839 -0.4364
14349TIP3    H164538   6.362  -0.056  15.099  2.6330  2.3165  0.9634
14349TIP3    H264539   6.335   0.081  15.039  0.0094  1.6412  0.4389
14350TIP3   OH264540   0.596   0.864  12.250  0.1817 -0.5267  0.5373
14350TIP3    H164541   0.545   0.879  12.170 -1.3974 -2.5222  1.0700
14350TIP3    H264542   0.687   0.881  12.225 -0.2391 -1.3506 -1.7806
14351TIP3   OH264543   3.010   0.168  11.683 -0.1638 -0.1904 -0.2695
14351TIP3    H164544   3.077   0.107  11.654  1.7148  1.2680  0.7871
14351TIP3    H264545   2.988   0.141  11.772 -0.8017 -0.5110 -0.5200
14352TIP3   OH264546   5.681   5.134  10.526  0.1870 -0.1426 -0.3731
14352TIP3    H164547   5.589   5.156  10.513  0.6877  1.5070 -1.3177
14352TIP3    H264548   5.724   5.218  10.542  1.6672 -0.7952 -0.7955
14353TIP3   OH264549   5.222   5.460   3.290  0.0074  0.7895  0.6180
14353TIP3    H164550   5.254   5.551   3.285  0.8881  0.4912  0.6827
14353TIP3    H264551   5.161   5.453   3.217  0.3973  1.2624  0.2366
14354TIP3   OH264552   4.420   6.274   4.426  0.0007  0.5167  0.2983
14354TIP3    H164553   4.383   6.279   4.514  1.5283 -0.4718  1.0611
14354TIP3    H264554   4.385   6.192   4.391 -0.6259  0.9220 -0.0255
14355TIP3   OH264555   3.039   5.187   1.961  0.5392 -0.0217  0.2599
14355TIP3    H164556   3.059   5.101   1.997 -0.3621 -0.6358 -0.6538
14355TIP3    H264557   3.001   5.169   1.875 -0.5141  1.2363  0.4227
14356TIP3   OH264558   0.614   2.893   4.920 -0.6331  0.2999 -0.4237
14356TIP3    H164559   0.535   2.905   4.973 -0.8195  0.1485 -0.6682
14356TIP3    H264560   0.654   2.813   4.955  0.2649  1.2469  0.7700
14357TIP3   OH264561   4.308   4.447  11.144 -0.1217 -0.7180  0.3720
14357TIP3    H164562   4.259   4.524  11.172 -0.9692 -0.7867 -0.8059
14357TIP3    H264563   4.400   4.473  11.148 -0.3926  0.3443  0.0146
14358TIP3   OH264564   2.013   4.987  14.309 -0.0883 -0.6482 -0.4821
14358TIP3    H164565   1.925   4.948  14.311 -0.4180 -0.0599 -1.7658
14358TIP3    H264566   2.073   4.913  14.304 -0.4391 -1.0908  1.3723
14359TIP3   OH264567   3.097   0.259  13.720 -0.4514  0.2064 -0.2892
14359TIP3    H164568   3.033   0.328  13.705 -0.4235  0.2835 -0.0642
14359TIP3    H264569   3.139   0.245  13.635  1.1989  2.1136  0.1421
14360TIP3   OH264570   0.501   4.727  14.128  0.3603 -0.4185  0.1927
14360TIP3    H164571   0.542   4.795  14.074 -1.1576  0.0651 -0.4021
14360TIP3    H264572   0.435   4.774  14.179 -1.0896 -1.5244 -0.6256
14361TIP3   OH264573   5.678   3.575   5.819 -0.0241 -0.8534  1.0328
14361TIP3    H164574   5.685   3.603   5.911 -0.0656  1.5265  0.3847
14361TIP3    H264575   5.655   3.655   5.772  2.4726 -1.4363 -1.4018
14362TIP3   OH264576   2.884   0.682   2.557  0.1055 -0.3648 -0.0647
14362TIP3    H164577   2.874   0.597   2.601 -0.4616 -0.5815 -0.5990
14362TIP3    H264578   2.919   0.660   2.470 -2.6977 -0.3631 -1.3148
14363TIP3   OH264579   0.936   5.746   3.716  0.1973 -0.1210 -0.2173
14363TIP3    H164580   0.849   5.782   3.735  1.2157  1.9276  0.8428
14363TIP3    H264581   0.918   5.662   3.673 -2.3071 -0.6148  1.5646
14364TIP3   OH264582   5.191   0.883  12.273 -0.2169 -0.5406  1.3810
14364TIP3    H164583   5.147   0.933  12.204 -0.6189 -0.8581  1.4033
14364TIP3    H264584   5.120   0.840  12.321  0.1659 -1.8188  0.8409
14365TIP3   OH264585   5.363   1.755  11.446 -0.5432  0.3300  0.2395
14365TIP3    H164586   5.394   1.783  11.359  0.7273  0.3741  0.6946
14365TIP3    H264587   5.352   1.836  11.495  1.9496  0.1874  1.1598
14366TIP3   OH264588   4.631   4.346   0.346 -0.2260  0.1781  0.0554
14366TIP3    H164589   4.646   4.259   0.311  1.1889  0.7878 -0.9544
14366TIP3    H264590   4.597   4.331   0.435  1.5522 -1.3911  0.5307
14367TIP3   OH264591   3.555   3.561  11.600  0.3109  0.1089  0.2303
14367TIP3    H164592   3.496   3.636  11.602  0.5152  0.2660  0.3641
14367TIP3    H264593   3.618   3.578  11.669  0.7579  0.1438 -0.1782
14368TIP3   OH264594   5.433   2.897   3.517 -0.1531 -0.3061  0.7469
14368TIP3    H164595   5.438   2.809   3.479  0.1469 -1.2928  2.9273
14368TIP3    H264596   5.518   2.936   3.498 -1.2228  0.7318 -2.7575
14369TIP3   OH264597   4.649   5.112  11.535 -0.1027  0.0270 -0.4707
14369TIP3    H164598   4.707   5.077  11.467  0.7464 -1.9969  1.1762
14369TIP3    H264599   4.709   5.151  11.599 -0.6479 -0.6427  0.4703
14370TIP3   OH264600   3.384   4.873  14.082  0.3725 -0.0542  0.0042
14370TIP3    H164601   3.309   4.816  14.070 -0.1105  0.7220 -0.7400
14370TIP3    H264602   3.353   4.942  14.141  0.9199 -0.4887  0.8198
14371TIP3   OH264603   2.524   5.706  16.830  0.8966 -0.1787  0.1468
14371TIP3    H164604   2.523   5.731  16.922  0.5932 -0.3395  0.1874
14371TIP3    H264605   2.597   5.756  16.792 -0.7410  2.1291 -0.1598
14372TIP3   OH264606   0.392   2.138   5.750  0.2441 -0.3737  0.4431
14372TIP3    H164607   0.412   2.232   5.751  0.9372 -0.5157  0.8556
14372TIP3    H264608   0.318   2.128   5.810 -0.8433  0.1002 -0.7547
14373TIP3   OH264609   6.716   6.783  13.384 -1.1080  0.0583  0.2819
14373TIP3    H164610   6.701   6.875  13.365  4.4374  1.5220  1.1258
14373TIP3    H264611   6.763   6.750  13.307  0.8530 -0.6246  1.6709
14374TIP3   OH264612   4.458   3.526  14.835  0.6168 -0.5869  0.5722
14374TIP3    H164613   4.484   3.595  14.774  1.0144 -0.8163  0.4780
14374TIP3    H264614   4.378   3.489  14.796  0.6611 -0.4881  0.3847
14375TIP3   OH264615   2.090   1.788   6.116 -0.0900  0.5831 -0.0438
14375TIP3    H164616   2.087   1.869   6.168 -0.1527  0.3087  0.3894
14375TIP3    H264617   2.153   1.733   6.162 -0.5204  0.1412  0.0280
14376TIP3   OH264618   3.567   5.263  13.862  0.7952 -0.2407  0.5390
14376TIP3    H164619   3.565   5.356  13.842 -0.2287 -0.0643  1.3817
14376TIP3    H264620   3.495   5.250  13.924 -0.8931 -2.0942 -1.6509
14377TIP3   OH264621   6.655   0.277   1.211 -0.1542  0.2220 -0.2477
14377TIP3    H164622   6.626   0.363   1.240  2.5433  0.6442  1.4992
14377TIP3    H264623   6.709   0.244   1.282  3.5596 -0.4623 -3.0746
14378TIP3   OH264624   0.180   0.997   5.913 -0.1369  0.0653  0.1385
14378TIP3    H164625   0.269   1.021   5.889 -0.2137 -0.5316 -0.7932
14378TIP3    H264626   0.178   0.901   5.907 -0.4825 -0.0368  1.4605
14379TIP3   OH264627   6.324   1.663  16.951 -0.0141  0.3970 -0.0001
14379TIP3    H164628   6.294   1.745  16.991  0.0058  0.0131  0.8090
14379TIP3    H264629   6.379   1.692  16.878  0.0197  1.1074  0.2940
14380TIP3   OH264630   6.737   6.330   4.321 -0.4811  0.0264  0.1113
14380TIP3    H164631   6.768   6.327   4.231  1.1957  2.1925  0.5299
14380TIP3    H264632   6.705   6.242   4.339  0.1797 -0.7487 -2.2365
14381TIP3   OH264633   2.053   6.180  15.543 -0.4661  0.7075  0.2731
14381TIP3    H164634   1.973   6.166  15.594 -1.7571  1.2653 -1.4754
14381TIP3    H264635   2.056   6.106  15.482 -0.9788  1.8786 -1.2367
14382TIP3   OH264636   1.072   6.510  11.678  0.2511  0.1113  0.0738
14382TIP3    H164637   1.156   6.485  11.718 -0.9922 -0.3240  2.5709
14382TIP3    H264638   1.076   6.473  11.590  1.6744 -2.1458  0.9992
14383TIP3   OH264639   2.866   4.814   4.969  0.1439 -0.0702  0.4314
14383TIP3    H164640   2.948   4.768   4.948  0.0221 -0.1770  0.1746
14383TIP3    H264641   2.879   4.847   5.057  0.2309 -0.6222  0.6332
14384TIP3   OH264642   0.179   5.654   5.863 -0.2524 -0.0990 -0.2288
14384TIP3    H164643   0.138   5.728   5.817 -0.9050 -0.5284 -0.3626
14384TIP3    H264644   0.136   5.652   5.949 -1.0089 -0.9457 -0.6018
14385TIP3   OH264645   2.193   5.383  13.504 -0.0373  0.1398  0.4029
14385TIP3    H164646   2.232   5.442  13.440 -1.7988  1.3339  0.3473
14385TIP3    H264647   2.171   5.304  13.454  0.4876  0.2428  0.0088
14386TIP3   OH264648   3.556   1.550  13.454 -0.1997  0.2076 -0.5726
14386TIP3    H164649   3.605   1.591  13.383 -0.2150 -0.1515 -0.7904
14386TIP3    H264650   3.537   1.622  13.515  0.6873  0.3318 -0.4320
14387TIP3   OH264651   3.416   1.658  14.006  0.1100  0.1670  0.2170
14387TIP3    H164652   3.323   1.645  13.987  0.3343 -0.7401 -0.3276
14387TIP3    H264653   3.461   1.625  13.929  0.9415 -0.8213  1.0956
14388TIP3   OH264654   0.364   1.656   2.003 -0.1505  0.5232  0.1481
14388TIP3    H164655   0.426   1.626   2.070  1.2497  1.0017 -0.8840
14388TIP3    H264656   0.329   1.575   1.965  0.1889  0.2434  0.4212
14389TIP3   OH264657   6.414   3.810  14.224  0.0806 -0.0185  0.0222
14389TIP3    H164658   6.468   3.773  14.294  0.8988  1.2125  0.0747
14389TIP3    H264659   6.369   3.883  14.266  1.4065  1.4237 -0.9499
14390TIP3   OH264660   0.374   4.808   0.315 -0.7220  0.0189 -0.4301
14390TIP3    H164661   0.296   4.821   0.262 -0.4348 -2.2364 -1.5212
14390TIP3    H264662   0.447   4.827   0.256 -0.4220  0.6041  0.1190
14391TIP3   OH264663   0.682   5.368   3.277  0.3606 -0.2240  0.2925
14391TIP3    H164664   0.616   5.416   3.226  0.2957  0.5299  1.0693
14391TIP3    H264665   0.755   5.357   3.216  1.7405  3.7929  0.9613
14392TIP3   OH264666   4.356   4.286  14.519 -0.2734 -0.0284 -0.0334
14392TIP3    H164667   4.415   4.362  14.515 -0.6701  0.2792 -0.0566
14392TIP3    H264668   4.390   4.234  14.592  1.0128 -0.6759 -1.0515
14393TIP3   OH264669   3.823   4.322  11.443  0.4739 -0.7088 -1.0235
14393TIP3    H164670   3.817   4.318  11.347 -0.2736 -2.3717 -0.9445
14393TIP3    H264671   3.846   4.233  11.469  0.4684 -0.3250  0.3668
14394TIP3   OH264672   0.155   3.153  10.311 -0.1705 -0.4393  0.0655
14394TIP3    H164673   0.183   3.072  10.269  0.3443 -0.8436  1.1565
14394TIP3    H264674   0.236   3.194  10.343 -0.6250 -0.8360  1.8538
14395TIP3   OH264675   6.724   5.623   4.270 -0.0154  0.1345 -0.6499
14395TIP3    H164676   6.636   5.650   4.243  0.1859 -0.1092 -1.5977
14395TIP3    H264677   6.747   5.553   4.208  1.4268  1.2068 -1.3624
14396TIP3   OH264678   0.716   0.105  12.194 -0.1719 -0.0339  0.2308
14396TIP3    H164679   0.623   0.107  12.216 -0.3885  1.3430 -0.6774
14396TIP3    H264680   0.741   0.197  12.190  0.9935 -0.3673 -0.4908
14397TIP3   OH264681   2.425   1.687   3.547 -0.6354 -0.0894 -0.1913
14397TIP3    H164682   2.466   1.631   3.613 -0.9251  0.0071  0.0692
14397TIP3    H264683   2.333   1.692   3.573 -0.6129  0.5046 -0.2137
14398TIP3   OH264684   2.935   4.325  16.567  0.2420  0.0692 -0.1174
14398TIP3    H164685   3.012   4.379  16.548  1.8892 -2.2505 -0.5144
14398TIP3    H264686   2.897   4.365  16.645  1.5946  1.5520 -0.1555
14399TIP3   OH264687   5.598   6.805   2.168  0.4308  0.0805  0.3755
14399TIP3    H164688   5.527   6.740   2.166 -1.4173  2.0048 -0.0445
14399TIP3    H264689   5.570   6.869   2.233  0.8338  1.8942 -1.1637
14400TIP3   OH264690   2.834   4.555   2.654  0.1530 -0.3148 -0.1862
14400TIP3    H164691   2.928   4.546   2.670  0.4661 -0.2331 -1.8162
14400TIP3    H264692   2.806   4.624   2.715  1.1256 -0.3837  0.3672
14401TIP3   OH264693   6.737   4.325   2.540  0.1691  0.3841  0.3651
14401TIP3    H164694   6.730   4.229   2.539  0.6440  0.3330  1.1088
14401TIP3    H264695   6.821   4.343   2.498 -0.1826  0.5080 -0.2910
14402TIP3   OH264696   4.009   6.512   6.561 -0.0144  0.3572 -0.0937
14402TIP3    H164697   3.996   6.417   6.553  0.8081  0.3109 -1.1606
14402TIP3    H264698   3.945   6.540   6.627 -1.1041 -0.7593 -0.6237
14403TIP3   OH264699   2.579   2.609  13.966  0.1065  0.0530  0.1733
14403TIP3    H164700   2.609   2.668  13.897  1.1295  0.1545  0.6922
14403TIP3    H264701   2.625   2.638  14.044  0.2637 -1.1276  0.5376
14404TIP3   OH264702   6.562   3.745  14.927  1.1198 -0.4605 -0.4884
14404TIP3    H164703   6.656   3.743  14.907  1.1179 -0.5564 -0.4852
14404TIP3    H264704   6.529   3.821  14.878  1.4521  0.3952  0.5873
14405TIP3   OH264705   0.455   3.934   5.421 -0.2943 -0.1179  0.2024
14405TIP3    H164706   0.441   4.013   5.369  0.2677  0.4263  0.8577
14405TIP3    H264707   0.373   3.921   5.469 -0.5177 -0.1488 -0.1832
14406TIP3   OH264708   0.257   6.733  11.737 -0.2245  0.0049  0.7212
14406TIP3    H164709   0.222   6.645  11.723 -0.8211  0.0370  1.8505
14406TIP3    H264710   0.217   6.786  11.668  2.1255 -1.0453 -1.6090
14407TIP3   OH264711   4.927   4.432   6.525 -0.3021  0.6301 -0.6212
14407TIP3    H164712   4.862   4.424   6.454 -0.7205  0.2159 -0.2000
14407TIP3    H264713   4.945   4.526   6.531  0.1634  0.6255 -1.6515
14408TIP3   OH264714   5.262   0.632  14.921 -0.2087  0.1816  0.3250
14408TIP3    H164715   5.311   0.602  14.845  0.4615  2.3385 -0.1563
14408TIP3    H264716   5.180   0.583  14.917  0.7403 -1.4453 -0.4295
14409TIP3   OH264717   2.281   0.404   4.900  0.0765 -0.0148 -0.2207
14409TIP3    H164718   2.370   0.399   4.866 -0.2040  0.4146 -1.0360
14409TIP3    H264719   2.271   0.494   4.929  0.8286 -0.7058  2.5199
14410TIP3   OH264720   0.615   6.155  14.237 -0.5496  0.7743  0.0280
14410TIP3    H164721   0.556   6.116  14.172 -0.1683 -0.8391  0.5834
14410TIP3    H264722   0.630   6.084  14.300  1.1424  1.4936  0.4755
14411TIP3   OH264723   1.562   1.437  13.686 -0.5820  0.5638  0.7402
14411TIP3    H164724   1.470   1.453  13.662 -1.3883 -1.8146  1.9342
14411TIP3    H264725   1.575   1.343  13.669  0.7279  0.1966  3.2873
14412TIP3   OH264726   4.039   2.231  12.285 -0.1619  0.5923 -0.5564
14412TIP3    H164727   4.057   2.138  12.275 -2.5855  0.0525 -0.6022
14412TIP3    H264728   4.082   2.256  12.366 -0.9471 -1.0460  0.4118
14413TIP3   OH264729   5.687   1.819   1.062 -0.1324  0.4747  0.3297
14413TIP3    H164730   5.724   1.731   1.071 -1.3888  0.0570  1.8337
14413TIP3    H264731   5.761   1.878   1.077  1.2103 -0.2362 -2.8077
14414TIP3   OH264732   0.570   1.278  15.699 -0.2134  0.2590 -0.1674
14414TIP3    H164733   0.637   1.304  15.636 -1.3165  1.2893 -0.9700
14414TIP3    H264734   0.537   1.361  15.734  0.0755 -0.2781  1.4717
14415TIP3   OH264735   0.534   3.056  11.569  0.5688 -0.3873  0.1071
14415TIP3    H164736   0.470   3.001  11.524  0.6987  0.3940 -1.0705
14415TIP3    H264737   0.548   3.013  11.654 -1.7850 -0.3752  0.5669
14416TIP3   OH264738   1.060   1.139  16.239 -0.0877  0.4681  0.1333
14416TIP3    H164739   1.014   1.160  16.158  0.1190 -0.8382 -0.3403
14416TIP3    H264740   1.051   1.045  16.248  1.0890  0.4095  0.8978
14417TIP3   OH264741   4.414   5.472  14.875 -0.2396  0.1658  0.0187
14417TIP3    H164742   4.381   5.384  14.893  0.0396 -0.0937 -0.6914
14417TIP3    H264743   4.369   5.529  14.938 -2.1662 -0.1418 -1.0229
14418TIP3   OH264744   6.261   0.596   4.164 -0.0024 -0.0019  0.3931
14418TIP3    H164745   6.338   0.568   4.213 -0.3076  0.3018  1.0601
14418TIP3    H264746   6.296   0.649   4.092  0.4320 -0.2085  0.4483
14419TIP3   OH264747   2.282   5.603   3.679  0.0194 -0.8840  0.8894
14419TIP3    H164748   2.370   5.639   3.671 -0.7360  0.9822  0.3241
14419TIP3    H264749   2.270   5.591   3.773  0.6050 -0.3803  1.0358
14420TIP3   OH264750   4.323   3.829  13.870 -0.3278 -0.0302  0.0368
14420TIP3    H164751   4.335   3.813  13.964  0.2652 -0.4396 -0.0979
14420TIP3    H264752   4.244   3.780  13.847  0.7790 -1.8444 -0.1159
14421TIP3   OH264753   2.619   0.472  11.566 -0.1739  0.1142  0.2077
14421TIP3    H164754   2.584   0.520  11.491  0.2509 -0.7966 -0.5910
14421TIP3    H264755   2.714   0.472  11.552 -0.1517 -0.7288  0.3420
14422TIP3   OH264756   3.221   4.204  12.928  0.3890 -0.4800  0.2660
14422TIP3    H164757   3.311   4.204  12.960  0.3395 -2.3681  0.5199
14422TIP3    H264758   3.167   4.190  13.006 -0.1906  1.1022  0.1891
14423TIP3   OH264759   1.392   4.123  16.556  0.5627  0.8756 -0.7945
14423TIP3    H164760   1.425   4.055  16.616 -1.0005  1.3242  0.6530
14423TIP3    H264761   1.463   4.187  16.551  1.1510  0.2760 -0.3095
14424TIP3   OH264762   0.844   5.690   3.262  0.1019 -0.1587 -0.1949
14424TIP3    H164763   0.807   5.627   3.324  1.9084  0.4186  1.5647
14424TIP3    H264764   0.769   5.717   3.209 -1.8472  0.2091  2.5262
14425TIP3   OH264765   3.795   6.479  12.949 -0.7298 -0.1469 -0.2256
14425TIP3    H164766   3.716   6.511  12.905 -1.0993  0.5468  0.9206
14425TIP3    H264767   3.784   6.384  12.952 -0.6392 -0.2360 -1.7134
14426TIP3   OH264768   1.250   4.783  13.613 -0.0674  0.1289 -0.1265
14426TIP3    H164769   1.197   4.707  13.635 -1.4615  0.5606 -1.7805
14426TIP3    H264770   1.340   4.749  13.609 -0.5199 -1.1814  0.2113
14427TIP3   OH264771   3.158   3.136  12.208 -0.8404  0.4709  0.0006
14427TIP3    H164772   3.218   3.066  12.182  0.0850  1.1012  0.3818
14427TIP3    H264773   3.214   3.212  12.223 -1.8582  1.4377 -0.8188
14428TIP3   OH264774   5.618   2.056  16.339 -0.0624 -0.3596  0.0504
14428TIP3    H164775   5.648   1.966  16.326 -0.6417 -1.0099  2.5166
14428TIP3    H264776   5.524   2.052  16.318 -0.0440 -0.2795 -0.0441
14429TIP3   OH264777   3.235   6.034   0.155  0.5795 -0.1192 -0.2776
14429TIP3    H164778   3.264   6.000   0.070 -1.0418  0.0363 -0.9362
14429TIP3    H264779   3.142   6.056   0.142  0.6438  1.1927  1.1531
14430TIP3   OH264780   6.174   6.771   6.120  0.0439  0.7127 -0.8584
14430TIP3    H164781   6.129   6.716   6.184 -1.2140  2.3301 -0.2824
14430TIP3    H264782   6.267   6.755   6.136 -0.2437  0.9756  1.3162
14431TIP3   OH264783   0.236   4.952   1.501  0.2038 -0.3695  0.5126
14431TIP3    H164784   0.186   4.983   1.425  0.6695 -0.7378  0.0491
14431TIP3    H264785   0.270   5.032   1.541  0.3596 -0.1968  0.0461
14432TIP3   OH264786   6.288   5.268   4.679  0.5294 -0.5402  0.3491
14432TIP3    H164787   6.247   5.184   4.699 -0.9597  0.4890  1.9006
14432TIP3    H264788   6.218   5.321   4.641  1.2497  0.2494  0.0794
14433TIP3   OH264789   1.055   2.976  13.589  0.0178  0.4391  0.1174
14433TIP3    H164790   1.037   3.069  13.579 -1.0329  0.1630 -0.7626
14433TIP3    H264791   0.976   2.932  13.557  1.0082 -0.7841 -0.7764
14434TIP3   OH264792   2.919   1.371  12.020  0.0783  0.2539  0.0925
14434TIP3    H164793   2.832   1.380  11.981  0.4768  2.4849 -0.4294
14434TIP3    H264794   2.971   1.326  11.953 -1.0442 -2.9004  1.1558
14435TIP3   OH264795   6.133   4.504  16.921  0.4590  0.1332 -0.2883
14435TIP3    H164796   6.145   4.564  16.995  1.0131  2.8007 -2.3446
14435TIP3    H264797   6.042   4.475  16.928  0.1280  1.3115  0.7471
14436TIP3   OH264798   0.331   0.777   2.406 -0.1934  0.4190  0.0967
14436TIP3    H164799   0.396   0.782   2.336 -0.5799 -1.1383 -0.4067
14436TIP3    H264800   0.315   0.684   2.418 -1.5483  0.7247  0.9488
14437TIP3   OH264801   2.902   3.844   2.498  1.0486  0.6090 -0.3453
14437TIP3    H164802   2.901   3.853   2.403 -0.8689 -1.3129 -0.6110
14437TIP3    H264803   2.856   3.921   2.531 -1.1315 -0.2175 -1.2721
14438TIP3   OH264804   5.590   5.187  16.892 -0.4646 -0.0677 -0.2785
14438TIP3    H164805   5.677   5.212  16.863 -0.5847  1.5729  0.6351
14438TIP3    H264806   5.592   5.198  16.987 -1.4954 -0.5561 -0.1825
14439TIP3   OH264807   1.659   2.644  16.964 -0.1227  0.1804  0.2282
14439TIP3    H164808   1.692   2.600  17.042 -1.3418 -0.1553  0.5841
14439TIP3    H264809   1.655   2.575  16.898  2.4580  0.7957 -0.6756
14440TIP3   OH264810   5.145   1.481   3.616  0.4697  0.3673  0.1087
14440TIP3    H164811   5.120   1.571   3.595 -0.8277 -0.0857 -0.4034
14440TIP3    H264812   5.070   1.428   3.590  1.5584 -0.9782 -0.4823
14441TIP3   OH264813   3.317   3.874  13.182  0.4866  0.4207  0.4510
14441TIP3    H164814   3.286   3.794  13.139  0.4181  0.1270  1.0471
14441TIP3    H264815   3.402   3.890  13.142  1.4560 -1.1185  1.7753
14442TIP3   OH264816   0.555   3.279   3.605  0.8126 -0.3292  0.6225
14442TIP3    H164817   0.583   3.200   3.650 -0.9091 -1.8338 -0.8282
14442TIP3    H264818   0.578   3.264   3.513  0.9760  1.1177  0.4020
14443TIP3   OH264819   4.194   4.026  13.475 -0.0328  0.1610 -0.8251
14443TIP3    H164820   4.269   3.973  13.502 -0.3389  0.1759  0.0867
14443TIP3    H264821   4.128   3.962  13.449 -0.6505  0.0447  0.9356
14444TIP3   OH264822   2.386   5.455   4.462 -0.2400 -0.1189 -0.0715
14444TIP3    H164823   2.354   5.399   4.392 -0.0196  0.7939 -0.9309
14444TIP3    H264824   2.431   5.527   4.416 -0.7141  0.8695  0.9753
14445TIP3   OH264825   5.759   4.809   4.570 -0.1160  0.2298 -0.1459
14445TIP3    H164826   5.693   4.812   4.639  0.4115 -0.0606  0.3822
14445TIP3    H264827   5.820   4.880   4.592 -0.5989  0.9120 -0.9895
14446TIP3   OH264828   0.217   4.723   4.573 -0.8472  0.2192 -0.4617
14446TIP3    H164829   0.192   4.695   4.485 -2.4659  0.7675 -0.2057
14446TIP3    H264830   0.257   4.810   4.560  0.3568 -0.3637 -0.7990
14447TIP3   OH264831   2.667   2.087  11.707 -0.4647  0.1415  0.0578
14447TIP3    H164832   2.661   2.091  11.611 -1.7102 -2.1485 -0.0144
14447TIP3    H264833   2.733   2.020  11.724 -1.3586 -0.5840  0.7682
14448TIP3   OH264834   2.484   0.972  14.997  0.1853 -0.7371 -0.5736
14448TIP3    H164835   2.482   1.016  15.081 -0.6538  0.1769 -1.0500
14448TIP3    H264836   2.562   0.917  15.000 -0.0569 -1.0178  0.9371
14449TIP3   OH264837   3.514   1.705  16.083  0.0220  0.1879  0.3105
14449TIP3    H164838   3.578   1.772  16.107  1.8304 -1.4460  0.2190
14449TIP3    H264839   3.512   1.707  15.988 -0.3295  0.4619  0.3207
14450TIP3   OH264840   4.355   4.290   4.077  0.6510  0.0394  0.0057
14450TIP3    H164841   4.343   4.361   4.141 -0.3292  0.6214 -0.7882
14450TIP3    H264842   4.392   4.218   4.127 -1.9473 -0.2262  1.6764
14451TIP3   OH264843   2.469   4.952  10.854  0.0255 -0.0151 -0.1262
14451TIP3    H164844   2.416   4.919  10.781 -1.1719  1.3287  0.0976
14451TIP3    H264845   2.405   4.974  10.922  0.6169  3.3497 -0.4877
14452TIP3   OH264846   0.986   4.106   4.789  0.3958 -0.1964  0.3092
14452TIP3    H164847   1.027   4.110   4.702  2.8626 -3.7811  1.0677
14452TIP3    H264848   0.900   4.067   4.772  0.2877  0.4038 -0.6234
14453TIP3   OH264849   6.778   0.405   4.850 -0.5051  0.7928 -0.0489
14453TIP3    H164850   6.765   0.313   4.828 -1.3696  1.0930 -0.8735
14453TIP3    H264851   6.690   0.443   4.847 -0.0865  1.7784 -0.3619
14454TIP3   OH264852   2.309   6.593  11.591 -0.2227 -0.4667 -0.0443
14454TIP3    H164853   2.311   6.504  11.625 -0.2129 -0.0260  1.1854
14454TIP3    H264854   2.339   6.647  11.665 -1.0683  0.6311 -0.4753
14455TIP3   OH264855   5.093   2.258  15.560  0.4895 -0.1296 -0.5152
14455TIP3    H164856   5.122   2.183  15.508  0.0020 -0.9055  0.2878
14455TIP3    H264857   5.112   2.232  15.651 -1.6638 -0.2266 -0.0378
14456TIP3   OH264858   2.531   5.249   3.600 -0.2567  0.3879  0.2603
14456TIP3    H164859   2.484   5.275   3.521 -1.1355 -1.1874  0.2135
14456TIP3    H264860   2.485   5.294   3.672 -0.1169  0.9824 -0.0156
14457TIP3   OH264861   6.530   2.543   3.641  0.1247  1.2218 -0.6398
14457TIP3    H164862   6.519   2.535   3.546 -0.2253 -0.1058 -0.4971
14457TIP3    H264863   6.453   2.501   3.678 -1.3859  4.4382  0.2622
14458TIP3   OH264864   1.664   4.074  11.762  0.2019 -0.0446  0.0604
14458TIP3    H164865   1.568   4.071  11.766  0.2292 -0.2291  0.7262
14458TIP3    H264866   1.687   4.020  11.686 -0.1316 -1.7360  1.1108
14459TIP3   OH264867   1.111   1.225   4.838 -0.4344  0.3669  0.3634
14459TIP3    H164868   1.138   1.300   4.891  1.5586  0.4914 -0.7234
14459TIP3    H264869   1.023   1.248   4.807  0.0510  2.1794  0.2108
14460TIP3   OH264870   5.030   3.702  12.218 -0.3420  0.0367 -0.1586
14460TIP3    H164871   5.055   3.665  12.303 -0.6082  0.2426  0.0105
14460TIP3    H264872   5.081   3.783  12.212  1.9598 -1.3776 -1.4965
14461TIP3   OH264873   2.400   4.557   4.092  0.0040 -0.0147  0.3768
14461TIP3    H164874   2.448   4.475   4.078  0.1265  0.1387 -0.1367
14461TIP3    H264875   2.353   4.543   4.174 -0.5215 -0.8708 -0.0463
14462TIP3   OH264876   5.488   6.632  14.323  0.0282  0.1774 -0.1170
14462TIP3    H164877   5.495   6.710  14.378  0.0975  0.6630 -0.7909
14462TIP3    H264878   5.418   6.580  14.362  0.0471  0.5339  0.3948
14463TIP3   OH264879   5.814   2.287  11.365  0.0631  0.1948  0.4326
14463TIP3    H164880   5.835   2.218  11.427 -2.3455 -1.6398 -0.6093
14463TIP3    H264881   5.730   2.323  11.396  0.3461  1.3592 -0.0804
14464TIP3   OH264882   3.779   5.819  15.821  0.0206  0.0317  0.0946
14464TIP3    H164883   3.872   5.842  15.823  0.1279 -0.4133  2.2354
14464TIP3    H264884   3.773   5.737  15.869 -1.4309 -0.1804 -0.3960
14465TIP3   OH264885   0.192   2.825   3.315  0.2149  0.1820 -0.0211
14465TIP3    H164886   0.117   2.835   3.373  1.6653 -1.7913  2.4117
14465TIP3    H264887   0.183   2.737   3.279  0.9618  0.2270 -0.3303
14466TIP3   OH264888   6.139   3.802   1.635 -0.1487  0.2849 -0.6460
14466TIP3    H164889   6.204   3.828   1.701  0.2616 -0.6608 -0.6590
14466TIP3    H264890   6.174   3.721   1.599 -1.2622 -0.1463 -0.7731
14467TIP3   OH264891   4.544   6.802   3.395  0.1965  0.3339  0.4164
14467TIP3    H164892   4.564   6.721   3.348  1.9001  1.0191 -0.1470
14467TIP3    H264893   4.453   6.793   3.423  0.3439 -1.7539  0.3557
14468TIP3   OH264894   3.375   1.713   0.340 -0.0943  0.3522  0.8582
14468TIP3    H164895   3.406   1.750   0.258 -1.6827 -0.3583 -0.0854
14468TIP3    H264896   3.310   1.648   0.315 -0.5184  0.0208  2.6691
14469TIP3   OH264897   4.568   4.881  11.352 -0.2701 -0.1259  0.3586
14469TIP3    H164898   4.513   4.954  11.378  0.9122  0.7394  0.4782
14469TIP3    H264899   4.520   4.841  11.279  0.2275  2.3138 -1.4376
14470TIP3   OH264900   4.773   4.266  13.808  1.0200  0.3009  0.1871
14470TIP3    H164901   4.822   4.238  13.731  1.9643 -0.2784  0.9762
14470TIP3    H264902   4.803   4.355  13.825 -0.3363  1.0314 -0.9985
14471TIP3   OH264903   2.183   4.569  12.721 -0.4557  0.7059  0.0476
14471TIP3    H164904   2.118   4.585  12.789  0.0602  0.8025  0.5297
14471TIP3    H264905   2.150   4.493  12.672  0.4275 -1.0889  2.0649
14472TIP3   OH264906   6.100   6.746  15.718 -0.1268 -0.2531  0.1582
14472TIP3    H164907   6.173   6.694  15.751 -0.4342 -0.7851  0.0117
14472TIP3    H264908   6.047   6.765  15.795 -0.1112 -0.3050  0.1818
14473TIP3   OH264909   4.205   4.919  12.033 -0.5408  0.4985 -0.3649
14473TIP3    H164910   4.277   4.886  12.088 -0.3199  1.7004  0.0901
14473TIP3    H264911   4.157   4.840  12.008  0.9385 -0.3430 -0.6959
14474TIP3   OH264912   3.991   0.743  16.431  0.2757  0.0226  0.5986
14474TIP3    H164913   3.907   0.776  16.399  0.6190 -1.3817 -2.0365
14474TIP3    H264914   3.970   0.700  16.514 -1.5356  0.0677  0.2018
14475TIP3   OH264915   1.191   4.472  12.613 -0.3901  0.4342 -0.1858
14475TIP3    H164916   1.218   4.511  12.530 -0.1028  2.3724  0.7724
14475TIP3    H264917   1.146   4.391  12.588  0.7593  0.3382 -2.1474
14476TIP3   OH264918   6.435   6.718   6.197 -0.1793 -0.2357 -0.4172
14476TIP3    H164919   6.498   6.769   6.247 -1.3227  0.0989  0.7162
14476TIP3    H264920   6.489   6.653   6.151  1.0343  0.3827  0.0796
14477TIP3   OH264921   3.562   3.380   4.885  0.1528 -0.0395 -0.0232
14477TIP3    H164922   3.615   3.376   4.965  0.8636  1.8121 -0.3329
14477TIP3    H264923   3.604   3.448   4.832 -0.6559 -0.8032 -1.7255
14478TIP3   OH264924   5.440   0.206  14.974  0.4163  0.4094 -0.0236
14478TIP3    H164925   5.378   0.211  14.901  0.1840  1.0683  0.2124
14478TIP3    H264926   5.501   0.278  14.959 -0.3377  1.3109  1.0571
14479TIP3   OH264927   3.044   2.011  11.842 -0.3245 -0.2261  0.0044
14479TIP3    H164928   3.025   2.081  11.905 -1.9147 -1.3681  0.8808
14479TIP3    H264929   3.120   1.966  11.878  0.9374  1.2263 -0.7571
14480TIP3   OH264930   2.975   4.464   3.131 -0.0273  0.3773 -0.4456
14480TIP3    H164931   2.882   4.439   3.125 -0.1639  0.2129  1.5116
14480TIP3    H264932   3.021   4.395   3.083 -0.6253 -2.2529  2.4201
14481TIP3   OH264933   3.306   4.053  16.949  0.0338  0.4944 -0.2881
14481TIP3    H164934   3.250   4.130  16.954 -3.2626 -1.7044 -0.2467
14481TIP3    H264935   3.298   4.023  16.858 -1.1710 -1.3406  0.3593
14482TIP3   OH264936   3.081   0.447   5.062 -0.0139  0.3908  0.2449
14482TIP3    H164937   3.044   0.445   4.973  1.4651 -0.2608 -0.3956
14482TIP3    H264938   3.008   0.424   5.119  0.0057 -4.1117 -1.2140
14483TIP3   OH264939   3.008   2.978  11.259  0.7888 -0.2001  0.0111
14483TIP3    H164940   3.076   3.039  11.288  0.0824 -0.3628  2.1951
14483TIP3    H264941   2.973   3.018  11.180  3.9285 -0.5223 -1.7150
14484TIP3   OH264942   3.685   3.004  16.497  0.4318  0.1375  0.2893
14484TIP3    H164943   3.640   3.088  16.495 -1.5196 -0.8626 -0.8205
14484TIP3    H264944   3.639   2.950  16.432  1.3259 -1.9238  1.2645
14485TIP3   OH264945   3.208   6.834   1.021 -0.6171 -0.3026  0.3767
14485TIP3    H164946   3.116   6.845   0.997 -0.5840  2.0317  1.1299
14485TIP3    H264947   3.238   6.921   1.045  1.8105 -1.0134  0.2044
14486TIP3   OH264948   6.129   0.808  16.181 -0.4482  0.1621 -0.1000
14486TIP3    H164949   6.197   0.791  16.115  0.8909  0.4422  1.1567
14486TIP3    H264950   6.085   0.724  16.192  1.1346 -0.6337  0.6008
14487TIP3   OH264951   4.951   3.732  12.986  0.0726 -0.8693 -0.7426
14487TIP3    H164952   4.901   3.686  12.918 -2.7826 -0.9541  1.2649
14487TIP3    H264953   4.926   3.824  12.976 -2.9355 -1.2348  2.0115
14488TIP3   OH264954   4.866   2.173  15.815 -0.1789 -0.4537 -0.4001
14488TIP3    H164955   4.945   2.168  15.868  0.3174 -0.2463 -1.1036
14488TIP3    H264956   4.832   2.083  15.816 -1.4371 -0.0402  2.0850
14489TIP3   OH264957   5.432   1.631   5.694 -0.3992 -0.6844  0.5094
14489TIP3    H164958   5.390   1.704   5.740 -1.8886 -1.6406  0.7158
14489TIP3    H264959   5.459   1.669   5.610  1.1941  0.7444  1.5978
14490TIP3   OH264960   6.123   2.906   2.236 -0.3205 -0.5006 -0.5375
14490TIP3    H164961   6.217   2.921   2.248 -0.1278 -1.3716 -0.8364
14490TIP3    H264962   6.099   2.960   2.161  0.4143 -1.8297 -1.7842
14491TIP3   OH264963   1.280   1.972  14.738 -0.0204 -0.9526 -0.2676
14491TIP3    H164964   1.269   2.067  14.738  0.9382 -0.8370  0.1425
14491TIP3    H264965   1.374   1.958  14.749 -0.0237 -1.9371 -1.2634
14492TIP3   OH264966   0.646   4.163  16.721 -0.1872 -0.7775  0.1736
14492TIP3    H164967   0.677   4.122  16.802  0.3952 -1.6694 -0.4785
14492TIP3    H264968   0.615   4.249  16.748  3.9471  0.7344  0.7449
14493TIP3   OH264969   5.724   0.356  15.338  0.1713 -0.1544 -0.7657
14493TIP3    H164970   5.728   0.263  15.359 -0.6411 -0.3586 -1.4483
14493TIP3    H264971   5.684   0.359  15.251  1.1385  0.7808 -1.2039
14494TIP3   OH264972   6.786   4.201   1.731 -0.0551 -0.2926 -0.2647
14494TIP3    H164973   6.728   4.128   1.753 -0.9777  0.8793  1.3526
14494TIP3    H264974   6.797   4.250   1.812  2.2266  0.2531 -0.8140
14495TIP3   OH264975   1.275   3.063  17.084 -0.5460 -0.3864 -0.1475
14495TIP3    H164976   1.295   3.157  17.084 -1.5800 -0.1169  1.8286
14495TIP3    H264977   1.222   3.050  17.005 -0.9285  0.8178 -0.1165
14496TIP3   OH264978   2.179   2.631  13.466  0.3866 -0.2940 -0.1456
14496TIP3    H164979   2.209   2.703  13.521  0.2856  0.0980 -0.5874
14496TIP3    H264980   2.133   2.675  13.394 -0.0200 -0.8195 -0.2113
14497TIP3   OH264981   6.284   4.930   0.390  0.4538 -0.0447  0.4715
14497TIP3    H164982   6.257   4.930   0.298 -0.9458 -2.0638  0.8117
14497TIP3    H264983   6.312   4.840   0.407  2.0140  0.6259  1.6978
14498TIP3   OH264984   0.815   2.812  13.658 -0.5863  0.1357 -0.0392
14498TIP3    H164985   0.852   2.780  13.740 -0.7352 -0.6455 -0.2632
14498TIP3    H264986   0.769   2.736  13.621  0.1075  0.2565 -1.2076
14499TIP3   OH264987   5.573   4.535  14.987  0.0083  0.2102  1.3629
14499TIP3    H164988   5.581   4.574  15.074 -1.7061 -0.1994  1.7313
14499TIP3    H264989   5.502   4.471  14.995 -1.7987  1.7865 -0.8863
14500TIP3   OH264990   6.843   1.296  13.857 -0.4206 -0.0060  0.3747
14500TIP3    H164991   6.889   1.377  13.879 -1.3120  0.6335 -0.0567
14500TIP3    H264992   6.892   1.261  13.783 -0.3443  0.4246  0.2145
14501TIP3   OH264993   0.747   5.953  15.424 -0.0041 -0.2208 -0.0765
14501TIP3    H164994   0.652   5.948  15.434 -0.0984  0.4843 -0.5722
14501TIP3    H264995   0.760   5.990  15.337  0.7251  0.2742  0.2340
14502TIP3   OH264996   0.081   1.765  14.769 -0.3899  0.0029 -0.4811
14502TIP3    H164997   0.000   1.758  14.821  0.1181 -2.6916  0.1185
14502TIP3    H264998   0.125   1.843  14.803 -0.7351 -0.8883  2.2477
14503TIP3   OH264999   2.012   5.420   0.906  0.3256 -0.4297 -0.0639
14503TIP3    H165000   1.955   5.495   0.922 -0.5443 -0.5326 -2.2488
14503TIP3    H265001   1.952   5.348   0.890  1.0773 -0.8611 -1.0432
14504TIP3   OH265002   6.763   3.892  15.746 -0.3444 -0.5407 -0.0622
14504TIP3    H165003   6.750   3.919  15.655 -3.1349 -1.7890 -0.1412
14504TIP3    H265004   6.857   3.881  15.755  0.3811  2.8580 -1.7868
14505TIP3   OH265005   3.348   3.202   2.323 -0.4514  0.1928 -0.1104
14505TIP3    H165006   3.342   3.122   2.376 -1.2094  0.9539  0.9858
14505TIP3    H265007   3.357   3.170   2.233 -0.0537 -1.1250  0.3763
14506TIP3   OH265008   2.933   6.405   2.778  0.4148 -0.1148 -0.1015
14506TIP3    H165009   3.019   6.412   2.819  0.3171 -0.3291  0.1409
14506TIP3    H265010   2.908   6.314   2.791  0.4135 -0.2018 -0.6965
14507TIP3   OH265011   5.671   0.962   2.806 -0.0810  0.0511 -0.0440
14507TIP3    H165012   5.686   1.045   2.851  0.9752  0.2450 -0.7236
14507TIP3    H265013   5.601   0.920   2.856  1.3433  0.0456  2.0289
14508TIP3   OH265014   1.140   4.736   3.700 -0.5290  0.2135 -0.2877
14508TIP3    H165015   1.175   4.814   3.657 -0.7472  0.8455  0.6622
14508TIP3    H265016   1.045   4.744   3.693 -0.7393  1.9279  2.9495
14509TIP3   OH265017   3.627   5.198   6.698 -0.2087  0.2021 -0.2717
14509TIP3    H165018   3.629   5.287   6.735  0.5341 -1.0503  3.1125
14509TIP3    H265019   3.535   5.181   6.681 -0.3256  1.7164 -1.3287
14510TIP3   OH265020   2.675   0.766   4.467  0.1107  0.5909 -0.2847
14510TIP3    H165021   2.625   0.738   4.391  0.0958 -0.3429  0.0645
14510TIP3    H265022   2.762   0.786   4.431  0.6358 -1.5485 -0.2936
14511TIP3   OH265023   2.002   5.412  14.536 -0.1391 -0.2519  0.5167
14511TIP3    H165024   1.987   5.373  14.622 -1.4995 -0.5900  0.1469
14511TIP3    H265025   2.039   5.499  14.555 -0.3620 -0.3481  1.4314
14512TIP3   OH265026   2.051   0.509   5.746 -0.1058 -0.4054  0.4310
14512TIP3    H165027   2.086   0.420   5.745  0.1766 -0.2865 -0.2987
14512TIP3    H265028   2.035   0.530   5.655  3.0753  1.5442  0.1471
14513TIP3   OH265029   5.959   1.009  17.061 -0.5285  0.6804 -0.0156
14513TIP3    H165030   6.003   1.043  17.138  0.4183 -0.5873  0.0336
14513TIP3    H265031   5.957   0.914  17.074 -2.5182  0.6194 -0.4356
14514TIP3   OH265032   5.590   6.598   4.194 -0.6874 -0.0147  0.0208
14514TIP3    H165033   5.553   6.568   4.277 -1.1828  1.9411  0.5656
14514TIP3    H265034   5.514   6.609   4.136 -0.2882 -2.0382 -0.9848
14515TIP3   OH265035   0.390   6.194  12.365  0.3471  0.0594 -0.2028
14515TIP3    H165036   0.447   6.185  12.289 -1.3456 -0.0222 -1.5111
14515TIP3    H265037   0.342   6.112  12.370 -3.0455  1.7260 -2.0665
14516TIP3   OH265038   0.641   5.160   2.027  0.2623 -0.2553  0.2741
14516TIP3    H165039   0.559   5.190   1.989  1.2400  2.5821  0.1483
14516TIP3    H265040   0.616   5.093   2.091 -2.3486  1.6042  1.3752
14517TIP3   OH265041   4.631   6.258   1.926 -0.1057  0.2469  0.1576
14517TIP3    H165042   4.712   6.236   1.972 -0.5158  0.3704  0.9634
14517TIP3    H265043   4.609   6.345   1.958  0.1314  0.7693 -1.0514
14518TIP3   OH265044   3.974   1.095   1.348 -0.2580 -0.3259  0.3099
14518TIP3    H165045   3.992   1.180   1.307  1.8364  0.0639  1.8613
14518TIP3    H265046   4.012   1.031   1.288  1.0109  0.0887  0.6421
14519TIP3   OH265047   6.498   5.614   3.845 -0.0874 -0.5059 -0.3708
14519TIP3    H165048   6.408   5.583   3.839 -1.7596  3.5641  0.5719
14519TIP3    H265049   6.530   5.611   3.754 -2.7259  1.8150 -1.4955
14520TIP3   OH265050   6.176   3.395   2.921 -0.4125 -0.0325  0.4452
14520TIP3    H165051   6.261   3.377   2.881 -0.2502  2.4874 -0.5385
14520TIP3    H265052   6.194   3.463   2.986 -1.5661  0.0205  0.7324
14521TIP3   OH265053   2.671   4.090  16.679  0.7775  0.1426  0.3062
14521TIP3    H165054   2.669   4.012  16.734 -0.2006  0.6719  1.0738
14521TIP3    H265055   2.761   4.095  16.647  1.5429  0.0851  2.2816
14522TIP3   OH265056   0.608   5.610   4.660 -0.0216 -0.1782 -0.0510
14522TIP3    H165057   0.595   5.595   4.754  1.5672 -0.5930  0.1291
14522TIP3    H265058   0.519   5.622   4.625 -0.5814  2.2697  1.8682
14523TIP3   OH265059   0.855   2.404   0.593  0.2088  0.0271  0.2628
14523TIP3    H165060   0.929   2.360   0.635  0.5023  0.4746  0.2309
14523TIP3    H265061   0.894   2.447   0.516 -0.2152 -0.3041 -0.1384
14524TIP3   OH265062   0.187   0.472  11.059  0.5324 -0.5160  0.9364
14524TIP3    H165063   0.145   0.386  11.048 -0.5503  0.1285 -0.2690
14524TIP3    H265064   0.268   0.453  11.105  0.5999 -2.2688  0.1907
14525TIP3   OH265065   0.761   5.952   3.088 -0.0692 -0.1214 -0.6764
14525TIP3    H165066   0.807   5.949   3.003 -0.0944  1.8477 -0.8196
14525TIP3    H265067   0.710   5.872   3.091  0.1250 -0.3509 -2.4329
14526TIP3   OH265068   4.495   4.010   4.634 -0.1975  0.4282 -0.8029
14526TIP3    H165069   4.584   3.982   4.611 -0.5284 -0.3138 -1.1896
14526TIP3    H265070   4.443   3.930   4.632 -0.7127  0.7110  0.2790
14527TIP3   OH265071   0.066   1.721   6.339  0.0991  0.4696 -0.0512
14527TIP3    H165072   0.048   1.800   6.391 -1.2650  1.6860 -2.1867
14527TIP3    H265073   0.132   1.749   6.276  0.2251 -0.3634 -0.2919
14528TIP3   OH265074   3.134   6.211  11.734  0.1053 -0.5215  0.3194
14528TIP3    H165075   3.095   6.297  11.722  0.7121 -0.4544 -1.4680
14528TIP3    H265076   3.176   6.191  11.650  3.1918 -0.9496  1.8149
14529TIP3   OH265077   3.495   3.333  14.002  0.3854  0.3483 -0.0515
14529TIP3    H165078   3.478   3.375  13.917 -2.3807 -0.9007 -0.2542
14529TIP3    H265079   3.512   3.406  14.062 -2.4922  1.7353 -0.7306
14530TIP3   OH265080   3.573   0.362   4.704 -0.0015  0.2970 -0.3794
14530TIP3    H165081   3.600   0.453   4.703  0.8394  0.0568 -0.3789
14530TIP3    H265082   3.654   0.313   4.714 -0.6047 -0.3948  1.4468
14531TIP3   OH265083   6.621   0.399   1.774 -0.0513  0.6971 -0.4062
14531TIP3    H165084   6.634   0.373   1.865 -1.5506  2.8096  0.5162
14531TIP3    H265085   6.700   0.448   1.751 -1.1733  3.4722  1.1635
14532TIP3   OH265086   6.355   0.213   5.634 -0.3804 -0.3607  0.0286
14532TIP3    H165087   6.435   0.171   5.667 -1.1847 -2.2397 -0.3086
14532TIP3    H265088   6.307   0.238   5.712 -0.2827 -0.8643  0.2530
14533TIP3   OH265089   6.383   1.452   4.431  0.1132 -0.7925  0.2978
14533TIP3    H165090   6.363   1.453   4.524 -2.0695  1.6372 -0.0900
14533TIP3    H265091   6.352   1.366   4.401 -2.5511 -0.2661  1.2441
14534TIP3   OH265092   0.122   2.232  11.566 -0.6814 -0.6314  0.3311
14534TIP3    H165093   0.084   2.267  11.646  1.8994 -0.6864  1.7126
14534TIP3    H265094   0.056   2.173  11.532 -1.9628 -0.4576  2.3203
14535TIP3   OH265095   1.316   4.781  15.352 -0.5202 -0.3190  0.2757
14535TIP3    H165096   1.264   4.721  15.298 -0.1686 -1.3703  1.0739
14535TIP3    H265097   1.254   4.848  15.380 -0.7023  0.2905 -1.4570
14536TIP3   OH265098   4.786   5.213   4.290  0.0077 -0.1777  0.3295
14536TIP3    H165099   4.757   5.302   4.269 -1.5911 -1.0007 -1.1555
14536TIP3    H265100   4.805   5.173   4.205 -0.8713 -1.7699  0.8409
14537TIP3   OH265101   6.754   1.105   3.957 -0.0555 -0.1392  0.0165
14537TIP3    H165102   6.776   1.015   3.936 -0.9387 -0.3140 -0.1994
14537TIP3    H265103   6.839   1.148   3.972  0.3246 -1.2620  1.2416
14538TIP3   OH265104   0.758   4.945  15.282 -0.0000 -0.3467  0.3987
14538TIP3    H165105   0.704   4.953  15.361 -2.8676  0.2657 -1.4545
14538TIP3    H265106   0.767   4.850  15.269 -0.8156 -0.4731  0.6645
14539TIP3   OH265107   0.635   4.262  14.528 -0.2554  0.0037 -0.1570
14539TIP3    H165108   0.595   4.318  14.594  1.0737 -0.9679  1.5887
14539TIP3    H265109   0.727   4.255  14.556  0.0223 -1.5757 -1.3137
14540TIP3   OH265110   5.739   5.985  11.017  0.2855  0.2537  0.1784
14540TIP3    H165111   5.679   5.910  11.017 -1.7655  1.5922 -3.8908
14540TIP3    H265112   5.771   5.989  10.927  3.9823  1.6576  1.3866
14541TIP3   OH265113   5.472   0.208  14.535 -0.1987  0.6499 -0.1622
14541TIP3    H165114   5.478   0.251  14.450 -0.6463  1.2190  0.0845
14541TIP3    H265115   5.445   0.119  14.515 -0.5453  0.8487 -0.6091
14542TIP3   OH265116   1.628   0.550  14.208 -0.1763  0.0252  0.0011
14542TIP3    H165117   1.711   0.546  14.161  2.0112 -2.4121  3.5939
14542TIP3    H265118   1.630   0.633  14.254  0.2805 -0.0085  0.0455
14543TIP3   OH265119   0.583   0.853   2.239  0.3995  0.5085  0.2205
14543TIP3    H165120   0.628   0.770   2.252  1.3566  0.6868 -1.6353
14543TIP3    H265121   0.651   0.919   2.253  0.8931  0.7749 -2.7716
14544TIP3   OH265122   6.009   1.620   0.328 -0.1151 -0.0373 -0.2414
14544TIP3    H165123   6.016   1.674   0.249  0.1185 -0.0473 -0.2272
14544TIP3    H265124   6.058   1.668   0.395 -1.7823  0.8639  0.3832
14545TIP3   OH265125   3.439   0.040  12.591 -0.4362  0.4636 -0.1358
14545TIP3    H165126   3.415  -0.022  12.660  2.0745  0.5125  0.8618
14545TIP3    H265127   3.418  -0.006  12.509  1.1046 -1.6434  0.5749
14546TIP3   OH265128   2.661   5.392   0.325 -0.0847 -0.1009  0.1050
14546TIP3    H165129   2.699   5.307   0.302 -0.5325 -0.1063 -0.6155
14546TIP3    H265130   2.678   5.448   0.250 -3.5525 -0.7460 -1.3392
14547TIP3   OH265131   4.176   6.414   0.244 -0.1016 -0.8516 -0.1332
14547TIP3    H165132   4.090   6.394   0.282 -0.2259 -0.2783 -0.0966
14547TIP3    H265133   4.155   6.452   0.158  0.0585  0.3560  0.3425
14548TIP3   OH265134   0.768   5.032   5.795  0.1782  0.2067  0.3252
14548TIP3    H165135   0.729   4.957   5.840  1.8933 -1.0639 -0.2167
14548TIP3    H265136   0.723   5.036   5.711 -0.5124  0.3351  0.6914
14549TIP3   OH265137   4.426   0.355  11.870  0.4988  0.1634  0.0381
14549TIP3    H165138   4.378   0.428  11.908 -0.5201 -1.3951  1.9418
14549TIP3    H265139   4.505   0.394  11.834 -0.3709  2.2783  0.2979
14550TIP3   OH265140   5.878   0.733   3.102 -0.5499 -0.1420 -0.1041
14550TIP3    H165141   5.859   0.822   3.131 -0.7567  0.5659 -2.1985
14550TIP3    H265142   5.972   0.723   3.113 -0.5993  0.1445  0.6159
14551TIP3   OH265143   3.335   5.896  13.783 -0.3971  0.3577  0.3742
14551TIP3    H165144   3.328   5.846  13.701  1.1688  0.2596  0.2656
14551TIP3    H265145   3.311   5.833  13.851 -0.5173  0.0816  0.0807
14552TIP3   OH265146   3.806   0.968  15.988  0.6071 -0.3679  0.1874
14552TIP3    H165147   3.861   1.023  15.933  1.2905 -2.0666 -0.9365
14552TIP3    H265148   3.862   0.947  16.063  0.8130 -0.5246 -0.0055
14553TIP3   OH265149   4.138   1.497   0.881  0.1910  0.0457 -0.2802
14553TIP3    H165150   4.165   1.547   0.957  0.9465  1.1301 -1.2236
14553TIP3    H265151   4.150   1.556   0.807  0.9827 -1.4791 -1.4367
14554TIP3   OH265152   5.689   1.301  16.552 -0.2357  0.5033 -0.1890
14554TIP3    H165153   5.743   1.287  16.475  0.1693  1.2936 -0.0609
14554TIP3    H265154   5.703   1.393  16.575 -0.5423  0.3449  0.6779
14555TIP3   OH265155   3.303   2.964   2.447  0.2834 -0.3612 -0.3218
14555TIP3    H165156   3.246   2.970   2.523 -1.0233  2.3654 -1.3422
14555TIP3    H265157   3.280   2.881   2.406  0.5127 -1.5468  1.8162
14556TIP3   OH265158   6.072   3.908   2.483 -0.6188  0.1537 -0.0321
14556TIP3    H165159   6.130   3.934   2.555 -2.0191 -0.2777  1.2888
14556TIP3    H265160   5.994   3.962   2.493 -1.6264 -1.2335 -0.0452
14557TIP3   OH265161   2.401   0.609  12.046 -0.5274  0.1873 -0.0505
14557TIP3    H165162   2.469   0.652  11.994  0.8606 -1.0662  0.6402
14557TIP3    H265163   2.329   0.671  12.047  0.9036  1.9256 -0.1534
14558TIP3   OH265164   6.362   3.067   5.939  0.5209 -0.0563  0.1904
14558TIP3    H165165   6.302   3.141   5.928 -1.0953 -1.2168  0.8990
14558TIP3    H265166   6.413   3.066   5.859 -0.2880  1.0701 -0.3742
14559TIP3   OH265167   5.003   4.899   1.848 -0.7429  0.4372 -0.2639
14559TIP3    H165168   4.982   4.976   1.901 -1.2309  0.7642 -0.9157
14559TIP3    H265169   5.070   4.853   1.898 -2.3808 -0.1728  1.4633
14560TIP3   OH265170   3.299   5.502   5.557  0.7173 -0.1318 -0.5624
14560TIP3    H165171   3.313   5.593   5.583  1.4851 -0.5225  0.4523
14560TIP3    H265172   3.233   5.470   5.619 -1.5228  0.4291 -2.5293
14561TIP3   OH265173   3.870   1.935  15.266  0.3935  0.6650 -0.1602
14561TIP3    H165174   3.875   2.029  15.282  1.9548  0.5208  0.4052
14561TIP3    H265175   3.954   1.901  15.298  0.0019 -0.8696 -0.6802
14562TIP3   OH265176   4.027   3.356   3.965 -0.1823  0.4124  0.1872
14562TIP3    H165177   3.982   3.439   3.979 -0.2826  0.7387 -1.7196
14562TIP3    H265178   3.992   3.323   3.882  1.3850 -0.4882 -0.1732
14563TIP3   OH265179   4.543   4.847   0.680  0.0818 -0.5362  0.2784
14563TIP3    H165180   4.461   4.896   0.678 -0.6859 -1.6451  2.0601
14563TIP3    H265181   4.515   4.755   0.677  1.1253 -0.9813  2.4588
14564TIP3   OH265182   5.952   4.559   2.411  0.0088 -0.1006  0.7077
14564TIP3    H165183   5.966   4.491   2.476  0.6310 -1.5788 -0.8832
14564TIP3    H265184   6.040   4.577   2.376 -0.2886  0.7779  0.3836
14565TIP3   OH265185   4.611   3.764  10.613  0.1068 -0.1353  0.4178
14565TIP3    H165186   4.548   3.787  10.681  0.4424 -3.0633  1.9062
14565TIP3    H265187   4.692   3.808  10.640 -0.3908  0.7562  0.4915
14566TIP3   OH265188   4.401   5.481   5.354  0.3373 -0.1078  0.3898
14566TIP3    H165189   4.396   5.559   5.409  2.2166  0.3480 -0.0144
14566TIP3    H265190   4.396   5.408   5.415  0.5462  0.3587  0.9732
14567TIP3   OH265191   2.972   2.948  11.607 -0.0791 -0.0720 -0.6279
14567TIP3    H165192   2.973   3.041  11.583 -1.1955 -0.3036 -1.6898
14567TIP3    H265193   2.916   2.943  11.684 -0.2025  0.1081 -0.7061
14568TIP3   OH265194   3.299   2.195   1.138 -0.4470  0.3238  0.1927
14568TIP3    H165195   3.308   2.129   1.069  0.9327 -1.0781  1.6346
14568TIP3    H265196   3.388   2.210   1.169 -0.8908  1.9032  0.7999
14569TIP3   OH265197   6.713   6.340  14.915  0.2723  0.0651 -0.5063
14569TIP3    H165198   6.652   6.312  14.846  0.5336 -3.3376  0.4627
14569TIP3    H265199   6.798   6.345  14.870  0.0326  0.4133 -0.9350
14570TIP3   OH265200   2.255   6.778   6.882  0.1893  0.2050  0.1068
14570TIP3    H165201   2.286   6.864   6.852  0.5333 -0.3545 -1.1972
14570TIP3    H265202   2.170   6.767   6.838 -0.2369  0.2040  0.9021
14571TIP3   OH265203   6.761   6.510   1.967  0.3049 -0.5764  0.6835
14571TIP3    H165204   6.808   6.536   1.888  0.2171 -0.4260  0.6796
14571TIP3    H265205   6.790   6.421   1.985 -1.2517 -1.4165 -0.7146
14572TIP3   OH265206   0.457   5.712   0.553  0.1236 -0.3513 -0.0038
14572TIP3    H165207   0.416   5.790   0.589  2.1096  1.9183 -2.2481
14572TIP3    H265208   0.443   5.719   0.458  1.8969 -1.7297 -0.4317
14573TIP3   OH265209   4.677   0.620  12.052 -0.3248  0.2276  0.0974
14573TIP3    H165210   4.586   0.630  12.025  0.0542  1.4528 -0.8226
14573TIP3    H265211   4.723   0.694  12.012  1.1907 -0.6735  0.0442
14574TIP3   OH265212   5.948   4.942  14.735  0.2456 -0.3539 -0.7993
14574TIP3    H165213   5.979   4.996  14.663 -0.8115 -2.1867 -2.7261
14574TIP3    H265214   5.997   4.860  14.726 -1.6556 -1.5200 -0.9937
14575TIP3   OH265215   4.223   5.472   0.302  0.3184  0.0870 -0.1051
14575TIP3    H165216   4.235   5.470   0.207 -0.1624 -0.5906 -0.1578
14575TIP3    H265217   4.247   5.384   0.332  0.9944  0.4597  0.4704
14576TIP3   OH265218   4.287   3.184  14.080  0.7809  0.0549 -0.9072
14576TIP3    H165219   4.332   3.118  14.028  2.0311  1.2552 -1.4041
14576TIP3    H265220   4.343   3.261  14.075  0.5347  0.4777  1.5659
14577TIP3   OH265221   4.584   2.639   4.143 -0.6148 -0.1113  0.0778
14577TIP3    H165222   4.512   2.619   4.203 -0.7208  0.1027  0.0225
14577TIP3    H265223   4.567   2.729   4.114 -0.4822 -0.1596 -0.1556
14578TIP3   OH265224   5.176   1.611  16.518  1.1949 -0.4002  0.3257
14578TIP3    H165225   5.179   1.570  16.432 -0.8924 -1.4184  0.6904
14578TIP3    H265226   5.119   1.687  16.507  1.5647 -0.0657  0.6502
14579TIP3   OH265227   1.079   1.916  11.413  0.7568 -0.4525  0.2226
14579TIP3    H165228   1.055   1.825  11.431  2.1815 -0.9114 -0.0828
14579TIP3    H265229   1.136   1.940  11.487 -0.5030  0.5807  0.8979
14580TIP3   OH265230   5.728   1.516  17.009 -0.1959 -0.1886 -0.0477
14580TIP3    H165231   5.684   1.458  17.072  0.1851 -1.2639 -0.7419
14580TIP3    H265232   5.657   1.563  16.965 -0.5810 -0.9087 -0.2050
14581TIP3   OH265233   5.756   3.130  11.595 -0.5687 -0.2119  0.4063
14581TIP3    H165234   5.825   3.102  11.535 -0.0596 -0.1226  0.9326
14581TIP3    H265235   5.689   3.062  11.587  0.8917 -2.0066  2.0934
14582TIP3   OH265236   6.217   1.513   4.913  0.0183  0.5224 -0.1255
14582TIP3    H165237   6.209   1.607   4.896 -1.3691  0.6390  0.8718
14582TIP3    H265238   6.303   1.503   4.954  0.6897  1.1527 -1.3326
14583TIP3   OH265239   4.066   1.320   3.911 -0.3209  0.7829 -0.4782
14583TIP3    H165240   4.146   1.346   3.955  0.9402  1.6002 -3.0207
14583TIP3    H265241   4.060   1.379   3.836 -2.2917 -0.4925 -1.4117
14584TIP3   OH265242   5.519   2.629  13.569 -0.3827  0.1370  0.1199
14584TIP3    H165243   5.485   2.586  13.491 -0.1383 -1.1558  0.6962
14584TIP3    H265244   5.560   2.710  13.537 -1.0960  0.0793 -0.9579
14585TIP3   OH265245   3.363   4.220   5.351 -0.5530  0.0763  0.2688
14585TIP3    H165246   3.313   4.223   5.433  0.0973 -0.7459  0.7040
14585TIP3    H265247   3.451   4.249   5.376 -0.4525  0.2005 -0.2232
14586TIP3   OH265248   3.485   1.478  13.782  0.4573  0.2872  0.4830
14586TIP3    H165249   3.454   1.429  13.858  2.2392 -0.9418  0.4880
14586TIP3    H265250   3.411   1.479  13.722 -0.3013 -0.6021  1.3742
14587TIP3   OH265251   6.806   3.437   0.798  0.0999 -0.3449 -0.1916
14587TIP3    H165252   6.857   3.360   0.776 -0.2680  0.2762 -3.9199
14587TIP3    H265253   6.871   3.506   0.812  0.3621 -0.7288  0.5100
14588TIP3   OH265254   6.107   6.419  13.468 -0.0202  0.1417 -0.0359
14588TIP3    H165255   6.081   6.499  13.423  0.4171 -0.4289 -1.3639
14588TIP3    H265256   6.091   6.349  13.404 -0.5927 -0.8625  1.1677
14589TIP3   OH265257   2.374   3.355  11.615 -0.2741 -0.1419 -0.0552
14589TIP3    H165258   2.388   3.410  11.693  1.8602 -0.0700 -0.4464
14589TIP3    H265259   2.288   3.383  11.582  0.5658  2.7967 -0.0646
14590TIP3   OH265260   0.389   5.418   0.478  0.2086  0.4245 -0.4717
14590TIP3    H165261   0.406   5.325   0.464 -1.2532  0.2607 -1.2681
14590TIP3    H265262   0.457   5.445   0.540 -1.2592 -1.8978  2.4039
14591TIP3   OH265263   4.599   4.052   1.014 -0.5726 -0.4819  0.0404
14591TIP3    H165264   4.632   4.038   1.103 -0.4849 -1.5436 -0.1528
14591TIP3    H265265   4.555   3.971   0.991  2.6108 -1.7658 -2.2844
14592TIP3   OH265266   0.512   3.675   2.596  0.1003 -0.5303 -0.6864
14592TIP3    H165267   0.554   3.724   2.525  1.5291  2.3349  1.8868
14592TIP3    H265268   0.420   3.699   2.591  0.3004  0.1565 -1.1961
14593TIP3   OH265269   5.133   2.819   3.877 -0.3563 -0.3702  0.1281
14593TIP3    H165270   5.214   2.857   3.844 -0.9668 -0.0751 -1.0944
14593TIP3    H265271   5.123   2.856   3.964 -0.2870  1.3352 -0.5437
14594TIP3   OH265272   5.226   2.971   5.375 -0.2123 -0.2701  0.4440
14594TIP3    H165273   5.319   2.965   5.398 -0.1580 -1.6228 -0.0238
14594TIP3    H265274   5.225   3.010   5.288 -0.0775 -0.3505  0.4060
14595TIP3   OH265275   4.546   0.091   0.709  0.7382  0.2447  0.0070
14595TIP3    H165276   4.502   0.138   0.781  0.7949  1.1219 -0.5188
14595TIP3    H265277   4.503   0.006   0.707 -1.0822  1.1302 -0.5822
14596TIP3   OH265278   3.786   5.895   5.092 -0.1537  0.1499  0.6620
14596TIP3    H165279   3.811   5.908   5.184  3.7628  0.4043 -0.2879
14596TIP3    H265280   3.762   5.982   5.061 -1.0119  0.1436  1.2585
14597TIP3   OH265281   0.206   2.086   1.292  0.1327  0.1760  0.4295
14597TIP3    H165282   0.205   2.177   1.264  0.1881  0.3513  0.9779
14597TIP3    H265283   0.282   2.047   1.248  0.8230  0.7014  1.1344
14598TIP3   OH265284   2.687   2.082  11.316 -0.0132  0.2308 -0.1350
14598TIP3    H165285   2.760   2.040  11.361  0.0760  0.5574  0.0264
14598TIP3    H265286   2.609   2.041  11.355  0.0098  1.5028  1.3508
14599TIP3   OH265287   2.567   3.866  12.829 -0.4019  0.1641 -0.2534
14599TIP3    H165288   2.614   3.918  12.895  1.1046 -1.1349 -0.2613
14599TIP3    H265289   2.574   3.776  12.860 -3.2807 -0.0899 -0.0508
14600TIP3   OH265290   2.832   4.555  12.073 -0.0847  0.4221 -0.0980
14600TIP3    H165291   2.754   4.539  12.021  0.0166 -0.0900 -0.0981
14600TIP3    H265292   2.844   4.474  12.123 -0.4545  1.0707  1.0821
14601TIP3   OH265293   4.234   2.584  14.628 -0.3793 -0.1169  0.2144
14601TIP3    H165294   4.283   2.570  14.709  0.0876  0.2968  0.0082
14601TIP3    H265295   4.300   2.584  14.559 -0.8750 -1.5321 -0.3048
14602TIP3   OH265296   0.299   3.435  15.227 -0.3327  0.7177  0.0731
14602TIP3    H165297   0.250   3.479  15.297 -0.5509  0.9703 -0.2349
14602TIP3    H265298   0.351   3.504  15.187 -0.9429  0.7781 -0.6430
14603TIP3   OH265299   3.228   1.228  11.700  0.4774  0.8438 -0.0405
14603TIP3    H165300   3.138   1.219  11.731 -0.1360 -0.1902 -1.9738
14603TIP3    H265301   3.223   1.294  11.631  0.2950 -2.1033 -3.0938
14604TIP3   OH265302   4.818   1.037  10.375  0.1992  0.0439 -0.4660
14604TIP3    H165303   4.763   0.959  10.367 -0.2710  0.4537 -1.4312
14604TIP3    H265304   4.760   1.104  10.412  0.8914 -0.3250  1.3987
14605TIP3   OH265305   6.260   3.957   1.163 -0.2901 -0.4120  0.6214
14605TIP3    H165306   6.338   4.011   1.178 -0.6119 -0.1753  1.4812
14605TIP3    H265307   6.259   3.895   1.236 -0.7773 -0.5686  0.4836
14606TIP3   OH265308   1.424   6.195  14.143  0.0043 -0.6991  0.2473
14606TIP3    H165309   1.481   6.270  14.158 -0.5976  0.1386 -1.3428
14606TIP3    H265310   1.339   6.233  14.121 -1.1462 -1.9075  2.2721
14607TIP3   OH265311   1.919   3.541  13.785  0.3060 -0.1265  0.3996
14607TIP3    H165312   1.863   3.584  13.721  0.8928  1.3233  0.8115
14607TIP3    H265313   1.912   3.448  13.764 -1.8068  0.0426  0.1018
14608TIP3   OH265314   2.135   6.222   3.354 -0.1527  0.6493 -0.2684
14608TIP3    H165315   2.214   6.241   3.405  0.9172 -3.6573  0.0830
14608TIP3    H265316   2.063   6.243   3.413  0.9024  0.4639  1.1479
14609TIP3   OH265317   4.280   0.133  15.492  0.2193  0.5061 -0.4429
14609TIP3    H165318   4.343   0.180  15.546  0.1376  1.1162 -0.8645
14609TIP3    H265319   4.277   0.183  15.410 -0.4909  0.2338 -0.5879
14610TIP3   OH265320   0.256   5.576   6.176 -0.0866  0.5346 -0.2665
14610TIP3    H165321   0.245   5.519   6.253  1.4829  0.8140  0.1838
14610TIP3    H265322   0.180   5.557   6.121 -0.2882 -0.9990  0.5113
14611TIP3   OH265323   1.255   6.167  15.085  0.3379  0.0755  0.2509
14611TIP3    H165324   1.309   6.201  15.156  0.2055 -1.8803  1.3563
14611TIP3    H265325   1.214   6.244  15.047  1.4526  1.3002  1.4307
14612TIP3   OH265326   5.425   6.210  11.824  0.0493  0.6267  0.3998
14612TIP3    H165327   5.487   6.277  11.794 -0.1829 -0.2000 -2.0900
14612TIP3    H265328   5.339   6.249  11.810 -0.0833 -0.0859 -0.9132
14613TIP3   OH265329   0.771   5.794   5.378 -0.2618  0.5124 -0.1647
14613TIP3    H165330   0.768   5.887   5.400 -0.2321  0.8614 -1.5510
14613TIP3    H265331   0.837   5.757   5.438 -0.8003  1.2152  0.9033
14614TIP3   OH265332   3.650   5.975  14.050 -0.3287  0.2831  0.3883
14614TIP3    H165333   3.682   5.941  14.133 -0.1643  0.9940  0.6196
14614TIP3    H265334   3.637   6.069  14.065 -1.6933  0.1752  0.0565
14615TIP3   OH265335   1.964   3.691  16.353  0.2251  0.3559 -0.2808
14615TIP3    H165336   1.875   3.714  16.329  0.5628  1.7766 -0.2734
14615TIP3    H265337   2.000   3.772  16.390  1.4987 -0.2043 -0.2501
14616TIP3   OH265338   1.246   3.347  12.861 -0.3626 -0.5677 -0.5234
14616TIP3    H165339   1.185   3.419  12.878  2.0668  1.9612 -1.6410
14616TIP3    H265340   1.311   3.354  12.932  1.9554  0.9086 -2.6136
14617TIP3   OH265341   1.852   1.442  11.758  0.3844 -0.1716  0.0317
14617TIP3    H165342   1.778   1.427  11.698  0.3464 -0.3702  0.1253
14617TIP3    H265343   1.818   1.505  11.822  0.1147 -0.6770  0.3928
14618TIP3   OH265344   0.783   5.785  13.878 -0.1845 -0.2513 -0.1321
14618TIP3    H165345   0.741   5.868  13.898 -0.9748 -0.2860 -1.4931
14618TIP3    H265346   0.858   5.780  13.938  0.8058  2.1508 -1.0777
14619TIP3   OH265347   2.956   4.173   5.021 -0.0751 -0.1672 -0.3536
14619TIP3    H165348   2.994   4.192   4.936  0.0693 -1.3372 -0.5582
14619TIP3    H265349   3.030   4.149   5.077 -0.1961  0.3423  0.0363
14620TIP3   OH265350   3.723   5.053   1.417  0.0064  0.1224 -0.7266
14620TIP3    H165351   3.786   5.072   1.487 -0.4491  2.8700 -0.9587
14620TIP3    H265352   3.638   5.078   1.454 -0.5637 -0.7159 -1.4364
14621TIP3   OH265353   2.301   5.998  16.501 -0.8360  0.1987 -0.3503
14621TIP3    H165354   2.342   6.062  16.443 -0.0219  0.4364  0.4505
14621TIP3    H265355   2.225   6.043  16.538  1.2523  1.8522  2.3756
14622TIP3   OH265356   2.598   4.799  16.596 -0.3842 -1.0351  0.5653
14622TIP3    H165357   2.512   4.757  16.590 -0.5147 -0.6855 -0.0705
14622TIP3    H265358   2.654   4.733  16.639 -0.5947 -1.8505 -0.3758
14623TIP3   OH265359   3.671   1.189   0.701 -0.5260 -0.3090  0.1625
14623TIP3    H165360   3.746   1.235   0.664 -1.7006  1.2145 -0.3917
14623TIP3    H265361   3.687   1.097   0.679  0.6802  0.1021 -0.8174
14624TIP3   OH265362   5.444   5.130  15.273  0.2919 -0.8721  0.3887
14624TIP3    H165363   5.406   5.151  15.358  1.5492 -0.8934  0.9786
14624TIP3    H265364   5.485   5.212  15.245  0.0912 -0.9318 -0.0954
14625TIP3   OH265365   4.193   6.000   2.038  0.1259 -0.5285  0.6661
14625TIP3    H165366   4.134   5.965   2.104 -2.1676  0.6419 -0.6148
14625TIP3    H265367   4.187   5.938   1.965  0.3386 -0.3139  0.4628
14626TIP3   OH265368   0.098   6.791   5.328  0.0697 -0.1077 -0.2803
14626TIP3    H165369   0.021   6.845   5.311 -0.4694 -0.8043 -0.0435
14626TIP3    H265370   0.122   6.810   5.418  0.8626  0.9607 -0.6938
14627TIP3   OH265371   6.048   0.812  13.517  0.7405  0.5299  0.1484
14627TIP3    H165372   6.015   0.750  13.582 -0.6027  0.3673 -0.6638
14627TIP3    H265373   6.100   0.759  13.457 -1.8361 -0.2379 -1.5757
14628TIP3   OH265374   3.580   2.228  15.032  0.2052 -0.2623  0.3025
14628TIP3    H165375   3.667   2.260  15.007  0.0868  0.9777  1.3382
14628TIP3    H265376   3.523   2.254  14.959  0.3194  0.9476  0.6245
14629TIP3   OH265377   3.403   2.192  14.786  0.7176  0.5391 -0.4919
14629TIP3    H165378   3.351   2.238  14.720  0.5908  1.6041  0.3154
14629TIP3    H265379   3.357   2.108  14.799 -1.9495  2.1127  1.4476
14630TIP3   OH265380   0.143   2.123  16.807 -0.3464  0.3167  0.3335
14630TIP3    H165381   0.233   2.092  16.798 -0.2865  0.5684  0.0370
14630TIP3    H265382   0.152   2.218  16.820 -0.6507  0.7316 -2.0543
14631TIP3   OH265383   5.628   6.016  14.337 -0.2007  0.0898 -0.4276
14631TIP3    H165384   5.669   6.086  14.388 -0.7664  0.1515 -0.0543
14631TIP3    H265385   5.655   5.935  14.380 -1.7224  0.1820  0.7814
14632TIP3   OH265386   5.480   0.540   2.509 -1.0199  0.5151  0.1405
14632TIP3    H165387   5.428   0.616   2.486 -0.0231  1.4563  0.8928
14632TIP3    H265388   5.558   0.576   2.551  0.2979 -0.8313 -1.0204
14633TIP3   OH265389   2.335   3.196  11.360 -0.3119  0.0591 -0.2960
14633TIP3    H165390   2.345   3.214  11.454 -1.1862 -2.0598  0.2596
14633TIP3    H265391   2.252   3.239  11.336 -0.4886 -0.0543  0.0982
14634TIP3   OH265392   4.264   3.023   5.462  0.4906 -0.3368  0.0953
14634TIP3    H165393   4.293   3.106   5.500  0.1525  0.1303 -0.6578
14634TIP3    H265394   4.303   2.956   5.519  0.5656  0.3357  0.8544
14635TIP3   OH265395   0.628   4.521   1.380 -0.1762  0.7048 -0.1683
14635TIP3    H165396   0.703   4.463   1.383 -0.0771  0.8896  1.8411
14635TIP3    H265397   0.556   4.471   1.418 -0.3404  1.5195  0.6342
14636TIP3   OH265398   6.032   0.424   2.089  0.1292  0.5849 -0.2867
14636TIP3    H165399   6.122   0.457   2.092  1.1136 -1.8829  1.5774
14636TIP3    H265400   5.982   0.485   2.143  1.2592  0.6410  0.7511
14637TIP3   OH265401   2.867   6.831   6.402  0.1015  0.3409 -0.3322
14637TIP3    H165402   2.820   6.903   6.443  0.2122  0.7980 -0.9832
14637TIP3    H265403   2.839   6.753   6.449 -1.1095  0.6384 -0.5389
14638TIP3   OH265404   1.732   2.251  10.988  0.2391  0.0476  0.3036
14638TIP3    H165405   1.663   2.184  10.985  0.0026  0.2695 -2.7424
14638TIP3    H265406   1.814   2.202  10.988  0.0976 -0.4218 -3.1738
14639TIP3   OH265407   5.849   4.561   2.902  0.6472  0.8477 -0.3278
14639TIP3    H165408   5.878   4.596   2.817  0.8350  0.5576 -0.3840
14639TIP3    H265409   5.929   4.532   2.945  0.5486  0.9788 -0.0554
14640TIP3   OH265410   2.453   2.912   4.075 -0.1286 -0.1548  0.3239
14640TIP3    H165411   2.437   2.935   3.984 -0.0434 -0.0520  0.3347
14640TIP3    H265412   2.491   2.991   4.114  1.3095 -0.6753  0.0594
14641TIP3   OH265413   2.341   3.701   5.935  0.5075  0.4634 -0.2758
14641TIP3    H165414   2.335   3.648   6.014 -2.5908  1.3584  0.2401
14641TIP3    H265415   2.396   3.650   5.875  2.9076 -0.2521  2.3465
14642TIP3   OH265416   1.233   1.481  12.142 -0.9592 -0.2920 -0.1443
14642TIP3    H165417   1.155   1.523  12.179 -0.0923  2.7028 -1.4002
14642TIP3    H265418   1.207   1.458  12.053 -0.4914  0.6089 -0.5275
14643TIP3   OH265419   3.422   5.661   1.871  0.4723 -0.3429  0.4606
14643TIP3    H165420   3.454   5.597   1.934 -0.1954 -0.7283  0.4183
14643TIP3    H265421   3.443   5.746   1.909  2.1632 -0.5684  0.1090
14644TIP3   OH265422   4.217   4.492   2.054  0.0383  0.0199  0.5304
14644TIP3    H165423   4.185   4.407   2.083  0.1031 -0.6434 -1.2368
14644TIP3    H265424   4.291   4.472   1.997  0.1896  1.2611  0.2597
14645TIP3   OH265425   6.021   1.213  13.308 -0.4102 -0.6800  0.0830
14645TIP3    H165426   6.018   1.160  13.387  1.3721  1.4776  1.7207
14645TIP3    H265427   6.108   1.196  13.271 -0.8255 -0.8569 -0.8567
14646TIP3   OH265428   1.640   3.977   4.455  0.2820 -0.0890 -0.4608
14646TIP3    H165429   1.701   3.947   4.388 -0.8149 -1.4666 -0.8841
14646TIP3    H265430   1.562   4.003   4.407  0.1986  0.8500  0.1456
14647TIP3   OH265431   5.398   0.000  14.074 -0.2748  0.0631 -0.2920
14647TIP3    H165432   5.441  -0.073  14.029 -1.4321 -0.6392 -0.3035
14647TIP3    H265433   5.466   0.037  14.131  0.3047 -1.0910 -0.2068
14648TIP3   OH265434   4.916   6.232   0.692  0.3016  0.2119  0.1558
14648TIP3    H165435   4.892   6.238   0.599 -0.8351  1.1143  0.4817
14648TIP3    H265436   4.949   6.319   0.714 -0.7626  0.4383  0.9337
14649TIP3   OH265437   6.754   4.380  16.096  0.1979  0.0247  0.7713
14649TIP3    H165438   6.752   4.313  16.027 -0.5077 -0.9622  1.7037
14649TIP3    H265439   6.682   4.355  16.155 -1.2412  2.6007  0.2637
14650TIP3   OH265440   3.741   1.494  13.729  0.4997 -0.1084 -0.1423
14650TIP3    H165441   3.725   1.410  13.686 -0.5075  0.7770 -1.5307
14650TIP3    H265442   3.655   1.524  13.757  0.7683  0.7757 -0.2385
14651TIP3   OH265443   5.239   2.048  15.428 -0.1717  0.1376  0.1125
14651TIP3    H165444   5.193   1.970  15.397 -0.0685 -0.0523  0.4273
14651TIP3    H265445   5.326   2.041  15.390 -0.2948  0.3135 -0.1967
14652TIP3   OH265446   4.390   2.221  14.794 -0.2567 -0.1000 -0.0071
14652TIP3    H165447   4.481   2.253  14.792 -1.2199  3.1903  1.6011
14652TIP3    H265448   4.347   2.268  14.722 -0.7879 -1.4046 -0.5657
14653TIP3   OH265449   3.822   2.363   0.542 -0.1873 -0.2458  0.2625
14653TIP3    H165450   3.794   2.319   0.462  1.3423 -0.1256 -0.3796
14653TIP3    H265451   3.891   2.307   0.577 -0.2772  0.1276  1.0473
14654TIP3   OH265452   0.210   5.775   1.270 -0.0036  0.2538  0.2723
14654TIP3    H165453   0.197   5.727   1.188  1.0885 -0.6329  0.5811
14654TIP3    H265454   0.125   5.814   1.290  0.0413  1.6329 -1.9731
14655TIP3   OH265455   0.839   6.349  12.737  0.7364 -0.9456 -0.5205
14655TIP3    H165456   0.907   6.366  12.803  1.7955 -1.9392 -1.3287
14655TIP3    H265457   0.872   6.389  12.657 -0.2138 -0.3853 -0.6587
14656TIP3   OH265458   1.918   6.285   0.766 -0.1587  0.1098 -0.1452
14656TIP3    H165459   1.874   6.241   0.838 -0.4022  1.2604  0.4280
14656TIP3    H265460   1.931   6.375   0.796  1.2598  0.1838 -0.8814
14657TIP3   OH265461   5.440   3.059  10.978  0.6605 -0.1789 -0.1676
14657TIP3    H165462   5.347   3.043  10.963  0.9664 -3.7288  0.8385
14657TIP3    H265463   5.449   3.068  11.073  1.4436 -1.4400 -0.0831
14658TIP3   OH265464   0.233   4.815  14.560  0.7604  0.2296 -0.4458
14658TIP3    H165465   0.163   4.771  14.608  1.3386 -1.2808 -0.9279
14658TIP3    H265466   0.189   4.883  14.509 -0.3932 -0.8324 -0.8983
14659TIP3   OH265467   5.901   2.972  14.579  0.3020 -0.2104 -0.6196
14659TIP3    H165468   5.835   2.913  14.614  0.4826  0.6227  1.2465
14659TIP3    H265469   5.973   2.968  14.642  1.5164 -0.1512 -1.9533
14660TIP3   OH265470   0.573   3.489  16.943  0.1674 -0.2171 -0.2756
14660TIP3    H165471   0.576   3.556  16.875  1.0347 -0.3941 -0.4224
14660TIP3    H265472   0.533   3.534  17.018 -1.2401 -0.1591 -1.0268
14661TIP3   OH265473   5.735   0.970   3.202 -0.6892  0.5237  0.1506
14661TIP3    H165474   5.765   1.005   3.286  3.9023 -0.3037 -0.8642
14661TIP3    H265475   5.757   1.038   3.139  0.0801 -0.6023 -0.8358
14662TIP3   OH265476   0.797   1.775   6.138 -0.4533 -0.5523  0.5530
14662TIP3    H165477   0.759   1.863   6.146  0.3075 -0.2322  0.7262
14662TIP3    H265478   0.778   1.734   6.223 -0.5877 -0.4681  0.5653
14663TIP3   OH265479   6.772   1.284   3.456 -0.6054 -0.4950 -0.2783
14663TIP3    H165480   6.677   1.287   3.465 -1.1353  1.1019 -4.3583
14663TIP3    H265481   6.802   1.369   3.488 -0.5054 -0.9947  0.9986
14664TIP3   OH265482   1.816   0.835   1.261  0.8442 -0.5885  0.2509
14664TIP3    H165483   1.873   0.817   1.336  0.0432  1.1888  1.3521
14664TIP3    H265484   1.729   0.807   1.290  0.8357 -1.6410 -0.7474
14665TIP3   OH265485   3.480   6.114  13.846 -0.0871 -0.0054 -0.0926
14665TIP3    H165486   3.422   6.041  13.822  0.2117 -0.0408 -0.7335
14665TIP3    H265487   3.531   6.130  13.767  1.6013 -0.7485  0.8000
14666TIP3   OH265488   4.862   0.257  16.797  0.1316  0.5200  0.4308
14666TIP3    H165489   4.851   0.269  16.702 -0.8864 -1.0900  0.3116
14666TIP3    H265490   4.955   0.268  16.812  0.8670 -2.4306 -1.2965
14667TIP3   OH265491   3.314   6.261   0.701  0.3352  0.2646  0.0391
14667TIP3    H165492   3.347   6.172   0.716 -0.2368  0.2705  1.5493
14667TIP3    H265493   3.393   6.314   0.689  0.7603 -0.1666  0.8427
14668TIP3   OH265494   2.133   2.899  15.972 -0.5816 -0.3847 -0.2973
14668TIP3    H165495   2.137   2.876  16.065 -0.4094 -1.2036 -0.4997
14668TIP3    H265496   2.179   2.827  15.928  1.4573  1.1648 -0.8273
14669TIP3   OH265497   1.759   1.192  14.574  0.4381  0.5687 -0.0102
14669TIP3    H165498   1.712   1.238  14.504  0.4334  1.2270  0.4161
14669TIP3    H265499   1.747   1.099  14.554  0.7775  0.7447 -1.1065
14670TIP3   OH265500   6.639   1.684  12.362 -0.2183  0.4681 -0.1843
14670TIP3    H165501   6.572   1.733  12.411  2.0270  1.7819  1.7932
14670TIP3    H265502   6.663   1.613  12.421  1.7841  1.4428  0.2607
14671TIP3   OH265503   2.731   5.639  10.586 -0.3140  0.0113  0.3585
14671TIP3    H165504   2.707   5.725  10.553  1.2782  0.6196  0.6754
14671TIP3    H265505   2.649   5.591  10.592 -1.2164  1.4760  0.0934
14672TIP3   OH265506   2.439   2.958  15.407 -0.3003  0.3452 -0.5918
14672TIP3    H165507   2.386   3.037  15.416  0.3480  0.9546 -1.8363
14672TIP3    H265508   2.378   2.886  15.419 -1.3562  1.0326 -1.6524
14673TIP3   OH265509   2.009   1.917   1.164 -0.6482  0.2617 -0.2773
14673TIP3    H165510   2.007   1.821   1.158 -1.5351  0.3239 -1.2805
14673TIP3    H265511   2.071   1.935   1.235  1.2896 -0.9982 -1.5401
14674TIP3   OH265512   0.388   2.296  11.671 -0.0096  0.1522  0.0382
14674TIP3    H165513   0.425   2.374  11.629 -0.2001  0.4025  0.3261
14674TIP3    H265514   0.300   2.289  11.634 -0.0749  0.2092  0.1792
14675TIP3   OH265515   5.590   1.811   3.287  0.5576 -0.2204 -0.3861
14675TIP3    H165516   5.660   1.787   3.347  0.3612 -0.4198 -0.2369
14675TIP3    H265517   5.630   1.874   3.227  0.8268 -0.2321 -0.2173
14676TIP3   OH265518   1.756   5.447   4.747  0.0590 -0.1061  0.4455
14676TIP3    H165519   1.824   5.383   4.771  2.1445  1.3902 -1.0755
14676TIP3    H265520   1.700   5.401   4.685  0.4567 -0.9848  0.7208
14677TIP3   OH265521   2.234   6.716  15.729  0.0733  0.4557 -0.5359
14677TIP3    H165522   2.203   6.630  15.699 -0.5153  0.8737 -1.1424
14677TIP3    H265523   2.162   6.775  15.711 -0.2171  0.7916  1.5040
14678TIP3   OH265524   4.734   4.261  15.653  0.0165 -0.4875 -0.5149
14678TIP3    H165525   4.725   4.351  15.682  1.1565 -0.1801 -1.0296
14678TIP3    H265526   4.652   4.241  15.607  0.2453  0.7065 -1.4707
14679TIP3   OH265527   0.014   3.330  12.215 -0.0355  0.0784  0.3530
14679TIP3    H165528   0.049   3.406  12.168 -2.0985  1.4055  0.8394
14679TIP3    H265529   0.080   3.262  12.202 -0.4599  0.2396 -4.5668
14680TIP3   OH265530   4.250   4.747   3.879  0.1047 -0.4581 -0.1206
14680TIP3    H165531   4.323   4.706   3.831 -0.4476 -2.2198  0.4479
14680TIP3    H265532   4.182   4.759   3.813  0.4885  0.1409 -0.4190
14681TIP3   OH265533   4.012   1.891  13.373  0.2352  0.1192  0.4845
14681TIP3    H165534   3.973   1.938  13.300  2.2429  0.5488 -0.3790
14681TIP3    H265535   4.014   1.800  13.345 -0.3996  0.0440  0.6668
14682TIP3   OH265536   1.425   4.799   2.205  0.3455  0.4620  0.4160
14682TIP3    H165537   1.416   4.891   2.180 -0.3344 -0.0262 -1.2301
14682TIP3    H265538   1.335   4.769   2.219  0.5709  0.0590  1.0527
14683TIP3   OH265539   3.844   3.217  13.681 -0.3857 -0.2155  0.2396
14683TIP3    H165540   3.812   3.146  13.625  1.4175 -0.4285 -0.5915
14683TIP3    H265541   3.847   3.293  13.623  0.1832 -0.1123  0.3931
14684TIP3   OH265542   6.343   1.236  13.778  0.0648  0.5492  0.5911
14684TIP3    H165543   6.395   1.270  13.705 -0.5195 -0.1573 -0.1735
14684TIP3    H265544   6.360   1.142  13.778 -0.6352  0.4200  0.8033
14685TIP3   OH265545   6.311   4.259   0.218  0.2352  0.2130 -0.0781
14685TIP3    H165546   6.361   4.233   0.140  0.4527  0.7961 -0.1428
14685TIP3    H265547   6.316   4.183   0.276  0.3084 -0.1259 -0.5164
14686TIP3   OH265548   3.725   4.169   0.554  0.0515 -0.4048 -0.7299
14686TIP3    H165549   3.776   4.096   0.589  1.2996  0.2884 -1.0601
14686TIP3    H265550   3.697   4.219   0.630  0.5092 -0.3728 -0.5828
14687TIP3   OH265551   0.713   2.503  15.228 -0.0804 -0.4090 -0.1279
14687TIP3    H165552   0.710   2.523  15.321  1.5392 -0.1513 -0.0963
14687TIP3    H265553   0.695   2.409  15.222 -0.8216 -0.3012  0.3728
14688TIP3   OH265554   5.521   1.083   2.546 -0.5415 -0.6711  0.1129
14688TIP3    H165555   5.500   1.017   2.612 -0.3547 -0.3758  0.4704
14688TIP3    H265556   5.472   1.160   2.574 -1.4889 -0.9224 -0.8076
14689TIP3   OH265557   2.928   2.869   0.964 -0.0866 -0.3483  0.3179
14689TIP3    H165558   2.953   2.879   0.872 -0.0274 -0.0279  0.3668
14689TIP3    H265559   2.953   2.780   0.986 -0.1088 -0.4303  0.0200
14690TIP3   OH265560   6.038   2.501   2.544 -0.1362 -0.0434  0.7235
14690TIP3    H165561   6.059   2.589   2.575 -1.7465  0.8853 -0.6454
14690TIP3    H265562   6.123   2.459   2.531  0.6604  1.3073  1.3663
14691TIP3   OH265563   3.362   3.740  12.080  0.0617  0.0236  0.5495
14691TIP3    H165564   3.300   3.672  12.051  1.0642 -1.2975  1.3951
14691TIP3    H265565   3.361   3.733  12.175  0.2571  1.1631  0.6444
14692TIP3   OH265566   4.372   4.122  11.777  0.9306  0.2661 -0.8503
14692TIP3    H165567   4.450   4.108  11.724 -0.4541  0.9591 -3.2038
14692TIP3    H265568   4.305   4.151  11.715 -1.0610  0.2619  1.1562
14693TIP3   OH265569   2.816   6.039   5.562  0.3967 -0.1752  0.9672
14693TIP3    H165570   2.822   6.090   5.644  0.0442  0.2786  0.7186
14693TIP3    H265571   2.854   6.096   5.496  0.3018 -0.3710  0.7429
14694TIP3   OH265572   4.664   3.487   0.941  0.0661 -0.5019 -0.3402
14694TIP3    H165573   4.674   3.508   0.848 -0.9853  0.5472 -0.2403
14694TIP3    H265574   4.686   3.568   0.987  1.8361 -1.3502  0.4415
14695TIP3   OH265575   4.871   6.532  16.419  0.2973  0.4073 -0.4080
14695TIP3    H165576   4.943   6.565  16.473  1.8885  0.4867 -2.4695
14695TIP3    H265577   4.803   6.599  16.427  1.2691  1.3825 -0.0358
14696TIP3   OH265578   5.236   3.206  14.873 -0.0749  0.5504 -0.3132
14696TIP3    H165579   5.292   3.136  14.841 -0.4580  0.2863 -0.4154
14696TIP3    H265580   5.267   3.222  14.962 -0.7864 -0.6152  0.1689
14697TIP3   OH265581   3.192   2.207   5.305 -0.2397  0.2495  0.5217
14697TIP3    H165582   3.179   2.123   5.349 -1.0210  0.7303  1.2425
14697TIP3    H265583   3.105   2.247   5.303 -0.4710 -0.1492 -2.3787
14698TIP3   OH265584   4.494   0.500   6.160 -0.5887  0.2948 -0.4486
14698TIP3    H165585   4.562   0.434   6.148  0.6863  1.4801 -0.1037
14698TIP3    H265586   4.448   0.474   6.239  0.4343  0.2255  0.1495
14699TIP3   OH265587   0.568   4.406   0.325 -0.0197 -0.2955 -0.6495
14699TIP3    H165588   0.532   4.486   0.362 -0.3757 -1.4497  1.6446
14699TIP3    H265589   0.575   4.425   0.231 -0.2144  2.3425 -0.2197
14700TIP3   OH265590   2.883   2.690   5.422 -0.0314  0.1212  0.2137
14700TIP3    H165591   2.797   2.648   5.421 -0.9729  1.9574  0.4642
14700TIP3    H265592   2.912   2.686   5.331 -0.5513 -0.1934  0.0572
14701TIP3   OH265593   6.346   3.640  11.249  0.1626  0.0651  0.5651
14701TIP3    H165594   6.405   3.618  11.178  0.7136  1.6162  0.4985
14701TIP3    H265595   6.386   3.601  11.327  0.8271  0.3818  0.3868
14702TIP3   OH265596   0.203   3.124   5.550 -0.0469 -0.0398  0.2504
14702TIP3    H165597   0.124   3.088   5.591 -0.4341 -0.2605 -0.6755
14702TIP3    H265598   0.170   3.189   5.489  0.2183 -2.2429 -2.4117
14703TIP3   OH265599   5.420   1.504  13.968 -0.2934  0.1123  0.4825
14703TIP3    H165600   5.510   1.532  13.989  0.2846 -1.5966  0.4504
14703TIP3    H265601   5.375   1.504  14.052  0.3591 -1.0454  0.8587
14704TIP3   OH265602   6.673   3.726   1.004 -0.5924  0.0664 -0.0201
14704TIP3    H165603   6.584   3.690   0.996 -0.3305 -0.7856  0.7532
14704TIP3    H265604   6.728   3.649   1.019  0.4324  0.4722 -1.4902
14705TIP3   OH265605   1.520   4.261   1.387 -0.1624  0.5206 -0.0248
14705TIP3    H165606   1.499   4.212   1.466  0.9066  0.4754  0.2490
14705TIP3    H265607   1.478   4.347   1.399 -1.3751 -0.0330 -0.1566
14706TIP3   OH265608   2.000   6.657   4.806  0.3767  0.7244 -0.6255
14706TIP3    H165609   1.952   6.732   4.841 -0.4026 -0.1363  0.2189
14706TIP3    H265610   1.935   6.606   4.758  1.3106  1.5590 -2.8916
14707TIP3   OH265611   0.035   3.067   1.724 -0.2821 -0.0513  0.1449
14707TIP3    H165612   0.003   2.978   1.742  0.2735  0.1315  2.3689
14707TIP3    H265613  -0.016   3.123   1.783  0.0019  1.0103 -0.5841
14708TIP3   OH265614   3.463   5.068  12.653  0.1375 -0.0333 -0.6140
14708TIP3    H165615   3.534   5.004  12.646  0.8074  0.6299 -0.0212
14708TIP3    H265616   3.499   5.138  12.707 -1.3196 -0.1958  0.6511
14709TIP3   OH265617   5.412   0.968   5.455  0.5328  0.3450  0.3294
14709TIP3    H165618   5.440   1.004   5.539  2.7252 -1.1636  0.3264
14709TIP3    H265619   5.492   0.961   5.404 -0.6998  0.8355 -1.7666
14710TIP3   OH265620   2.052   2.947  15.300 -0.5326  0.1505  0.3563
14710TIP3    H165621   2.078   2.868  15.254 -0.2700  0.7789 -0.6067
14710TIP3    H265622   2.014   2.916  15.382 -2.5509 -1.0839 -0.9762
14711TIP3   OH265623   6.586   1.364  12.113 -0.3652 -0.5206 -0.2733
14711TIP3    H165624   6.582   1.313  12.033 -0.8261 -0.6377 -0.1811
14711TIP3    H265625   6.594   1.299  12.183 -0.9251 -0.4755 -0.1584
14712TIP3   OH265626   1.095   5.328  15.489  0.8985  0.1928 -0.0890
14712TIP3    H165627   1.036   5.357  15.559 -1.0862  1.5501 -2.1881
14712TIP3    H265628   1.068   5.237  15.473 -0.8275  0.8296 -1.1043
14713TIP3   OH265629   6.703   5.471   5.192 -0.1847  0.1221  0.0303
14713TIP3    H165630   6.737   5.556   5.163  1.6933 -1.3128 -2.3768
14713TIP3    H265631   6.720   5.413   5.118 -0.1775 -2.6759  2.0936
14714TIP3   OH265632   2.803   4.520   0.589 -0.4591  0.1250  0.3238
14714TIP3    H165633   2.794   4.463   0.512  0.3061  0.0595  0.2743
14714TIP3    H265634   2.873   4.581   0.565 -2.0289  1.8291 -0.0653
14715TIP3   OH265635   6.218   2.999   2.548 -0.0847 -0.0843 -0.1373
14715TIP3    H165636   6.309   2.990   2.577  0.1181 -1.9347 -1.1956
14715TIP3    H265637   6.223   3.004   2.453 -0.9867  2.1597 -0.1330
14716TIP3   OH265638   6.660   4.469   3.382  0.2675 -0.3286  0.3875
14716TIP3    H165639   6.581   4.438   3.425  0.1164 -0.1205  0.2609
14716TIP3    H265640   6.732   4.431   3.433  0.1301  1.4334  1.9753
14717TIP3   OH265641   1.929   3.829  15.517 -0.3496 -0.1619  0.0765
14717TIP3    H165642   1.922   3.751  15.462 -0.5490 -0.3829  0.4149
14717TIP3    H265643   2.022   3.833  15.539 -0.5076 -0.9491  0.9749
14718TIP3   OH265644   4.796   0.521  15.186 -0.0955 -0.7627  0.5184
14718TIP3    H165645   4.882   0.550  15.216 -0.0926  0.3373 -0.4990
14718TIP3    H265646   4.735   0.557  15.250 -0.1524  2.1806 -1.0628
14719TIP3   OH265647   1.292   0.869   2.002  0.5871  0.2795 -0.1025
14719TIP3    H165648   1.197   0.883   2.000  0.5572  0.2613  0.6214
14719TIP3    H265649   1.307   0.821   2.084  1.0516 -1.1415 -0.9865
14720TIP3   OH265650   6.466   1.633  13.849 -0.3362  0.1629  0.0978
14720TIP3    H165651   6.466   1.727  13.829 -0.6409  0.2602  0.5322
14720TIP3    H265652   6.389   1.621  13.906 -0.2794 -0.3431  0.0697
14721TIP3   OH265653   2.248   0.149  10.824 -0.3532  0.1941 -0.1236
14721TIP3    H165654   2.223   0.178  10.737 -0.5479 -0.6978 -0.3787
14721TIP3    H265655   2.317   0.084  10.809 -1.6134 -1.3093  0.2500
14722TIP3   OH265656   2.713   1.464   1.394 -0.2191  0.1610  0.3003
14722TIP3    H165657   2.674   1.524   1.330 -0.7415  0.0134  0.4799
14722TIP3    H265658   2.644   1.401   1.413 -0.0399  0.1598  0.9616
14723TIP3   OH265659   4.654   2.522  15.792  0.0989 -0.4811 -0.0062
14723TIP3    H165660   4.749   2.528  15.780  0.3398  1.5540  2.1856
14723TIP3    H265661   4.621   2.608  15.766 -0.9833 -0.7048  0.5686
14724TIP3   OH265662   1.838   4.021   5.274  0.5931  0.5796 -0.5250
14724TIP3    H165663   1.798   4.038   5.189  2.0792  0.7480 -1.2050
14724TIP3    H265664   1.926   4.058   5.269  2.6646 -3.7295 -0.7630
14725TIP3   OH265665   2.715   3.963   5.371 -1.1477 -0.1303  0.0649
14725TIP3    H165666   2.710   4.057   5.393  1.3126  0.0839  0.0100
14725TIP3    H265667   2.753   3.923   5.449 -0.7926 -0.8404 -0.4646
14726TIP3   OH265668   4.639   3.287  13.735 -0.2326  0.2864  0.8159
14726TIP3    H165669   4.686   3.220  13.684 -0.2511 -1.1489  2.5853
14726TIP3    H265670   4.701   3.312  13.803 -1.3792 -0.3693  2.1467
14727TIP3   OH265671   4.392   3.074  16.708 -0.0459 -0.4365 -0.5321
14727TIP3    H165672   4.400   2.989  16.752  0.7837  0.8012  1.9349
14727TIP3    H265673   4.309   3.110  16.740 -0.3929 -0.2948 -1.5559
14728TIP3   OH265674   1.117   6.093   5.264 -0.1483  0.6264 -0.0169
14728TIP3    H165675   1.117   6.138   5.349 -1.9176  1.4584 -0.4022
14728TIP3    H265676   1.138   6.163   5.201 -2.1655  0.8062 -0.5505
14729TIP3   OH265677   3.078   3.921   1.461  0.1230 -0.0764  0.1328
14729TIP3    H165678   3.099   3.836   1.497 -1.3223 -0.6940 -0.4229
14729TIP3    H265679   3.160   3.951   1.421  0.2588 -1.9352 -1.0833
14730TIP3   OH265680   1.191   4.134  11.740  0.3678  0.7083 -0.4149
14730TIP3    H165681   1.098   4.158  11.739  0.6435  1.9995  0.7977
14730TIP3    H265682   1.208   4.112  11.831  1.2368  0.3690 -0.6561
14731TIP3   OH265683   1.254   1.279  16.971  0.6299  0.1173  0.1086
14731TIP3    H165684   1.269   1.296  16.878  0.7551  1.3328  0.3297
14731TIP3    H265685   1.175   1.330  16.991 -0.5306 -1.6552  0.2543
14732TIP3   OH265686   3.207   6.006   2.803 -0.5458  0.1207  0.2197
14732TIP3    H165687   3.247   5.921   2.784 -1.9839 -1.0209  1.9622
14732TIP3    H265688   3.181   6.040   2.717 -2.0754 -2.3255 -0.3756
14733TIP3   OH265689   1.162   3.690   1.507 -0.5806 -0.6021  0.8447
14733TIP3    H165690   1.098   3.694   1.435 -1.5338  2.0022  1.7366
14733TIP3    H265691   1.116   3.647   1.578 -1.1542  0.6444  1.2541
14734TIP3   OH265692   1.188   5.531   4.350 -0.1924 -0.7055  0.2665
14734TIP3    H165693   1.200   5.569   4.437  1.0527 -1.1692  0.3241
14734TIP3    H265694   1.136   5.596   4.302  0.3997  0.2662  0.8940
14735TIP3   OH265695   4.955   0.791  11.714  0.8156  0.2290  0.0937
14735TIP3    H165696   4.889   0.841  11.666  0.7317  0.0078 -0.0195
14735TIP3    H265697   4.997   0.856  11.771 -0.8862 -0.0049  1.7196
14736TIP3   OH265698   3.820   2.802  15.265  0.0420 -0.2981  0.7855
14736TIP3    H165699   3.902   2.850  15.275  0.3885 -0.8844  0.7599
14736TIP3    H265700   3.846   2.712  15.250 -0.5595 -0.2190 -0.9530
14737TIP3   OH265701   0.288   4.112  11.335  0.7835 -0.1996  0.8442
14737TIP3    H165702   0.300   4.149  11.423  1.9998 -0.8242  0.9624
14737TIP3    H265703   0.299   4.018  11.347  2.2494 -0.1813 -0.1628
14738TIP3   OH265704   0.951   5.101   5.152 -0.2440  0.7959 -0.3705
14738TIP3    H165705   0.930   5.050   5.074 -2.0536  1.5988 -0.4659
14738TIP3    H265706   0.981   5.186   5.118 -0.9763  1.1261 -0.2073
14739TIP3   OH265707   1.502   6.416   5.918 -0.3710  0.1292 -0.7566
14739TIP3    H165708   1.435   6.407   5.851 -1.6399  0.0629  0.4791
14739TIP3    H265709   1.454   6.412   6.001  0.3730  5.1063  0.2551
14740TIP3   OH265710   5.950   1.656  15.878 -0.0665 -0.1759  0.8992
14740TIP3    H165711   5.995   1.739  15.864  0.4631 -0.3666  1.4337
14740TIP3    H265712   5.857   1.679  15.878 -0.2692 -0.1798 -3.3302
14741TIP3   OH265713   2.608   2.017  14.814 -0.0722  0.3154 -0.5473
14741TIP3    H165714   2.558   2.032  14.734  1.1937  0.6398 -1.2981
14741TIP3    H265715   2.553   1.958  14.866 -2.1435  2.2411 -0.4412
14742TIP3   OH265716   1.974   1.255   4.900  0.2804 -0.1299  0.2732
14742TIP3    H165717   1.914   1.224   4.833  0.0473 -1.1288  0.9274
14742TIP3    H265718   1.917   1.298   4.964 -0.0046 -2.4529  1.6993
14743TIP3   OH265719   5.379   2.938  12.628 -0.4104  0.0298  0.4234
14743TIP3    H165720   5.312   2.876  12.601 -0.5014  0.3966 -0.2120
14743TIP3    H265721   5.332   3.004  12.679 -0.7780  0.9963 -1.1144
14744TIP3   OH265722   6.028   4.317  16.573 -0.3171  0.0386  0.1183
14744TIP3    H165723   5.996   4.388  16.628 -1.6962 -0.6029  0.1742
14744TIP3    H265724   6.069   4.361  16.498  1.0902  0.9126  1.3375
14745TIP3   OH265725   3.539   2.697   4.990 -0.4236  0.1899 -0.5520
14745TIP3    H165726   3.630   2.725   4.977 -0.4554 -0.1696 -1.6574
14745TIP3    H265727   3.490   2.779   4.996  0.0008  0.3887  0.3302
14746TIP3   OH265728   6.031   5.200   3.279 -0.0656 -0.5540  0.2816
14746TIP3    H165729   5.977   5.138   3.231 -0.6721 -0.9168  1.3999
14746TIP3    H265730   6.101   5.147   3.317 -1.3665 -0.8712  2.4214
14747TIP3   OH265731   6.407   6.696   4.836 -0.0320 -0.1609 -0.2646
14747TIP3    H165732   6.488   6.712   4.787  1.0779  0.2617  1.5809
14747TIP3    H265733   6.437   6.660   4.919 -1.7680 -0.1586  0.4023
14748TIP3   OH265734   4.515   3.477   4.104  0.4634  0.1149  0.5036
14748TIP3    H165735   4.579   3.407   4.115  0.5443 -0.4854 -2.7342
14748TIP3    H265736   4.430   3.434   4.113  0.5056  0.1765  1.2252
14749TIP3   OH265737   4.255   5.371   0.974 -0.4329  0.1650  0.4863
14749TIP3    H165738   4.290   5.296   0.925 -1.0278 -0.2280  0.6384
14749TIP3    H265739   4.301   5.368   1.058 -0.2702  0.1197  0.3963
14750TIP3   OH265740   4.539   5.920  14.330 -0.2887  0.1633 -0.1127
14750TIP3    H165741   4.599   5.848  14.308 -1.8897 -1.0010 -0.8374
14750TIP3    H265742   4.477   5.882  14.391 -0.0088  1.5105  1.0682
14751TIP3   OH265743   0.654   1.526  14.248 -0.0975  0.8430  1.0337
14751TIP3    H165744   0.730   1.500  14.197 -1.6071  1.0316 -1.4788
14751TIP3    H265745   0.637   1.617  14.222 -1.7145  0.5063  0.8398
14752TIP3   OH265746   4.375   2.494  16.014  0.4735 -0.3492  0.6445
14752TIP3    H165747   4.338   2.514  15.928 -1.4847 -0.9343  1.3018
14752TIP3    H265748   4.469   2.508  16.003  0.1710  0.5218 -1.3166
14753TIP3   OH265749   3.662   3.986  15.010  0.6889 -0.5106  0.0408
14753TIP3    H165750   3.737   3.991  14.950  0.5595 -0.0036 -0.0792
14753TIP3    H265751   3.658   4.073  15.050 -0.3731 -0.2557 -0.5971
14754TIP3   OH265752   1.800   6.652  13.359  0.5447 -0.2361  0.3962
14754TIP3    H165753   1.771   6.711  13.428  0.8334 -1.4180  1.5734
14754TIP3    H265754   1.733   6.583  13.357  0.4032 -0.0876 -0.6950
14755TIP3   OH265755   6.587   0.638  14.896  0.9324  0.2123  0.2996
14755TIP3    H165756   6.565   0.651  14.804  0.5920 -1.8510  0.0418
14755TIP3    H265757   6.541   0.708  14.942 -0.8568 -0.1189 -0.8874
14756TIP3   OH265758   6.800   1.847  16.987  0.1857  0.0506  0.2282
14756TIP3    H165759   6.886   1.843  16.946  0.9648  1.1402  1.6517
14756TIP3    H265760   6.739   1.867  16.915  1.3578  0.9629 -0.5445
14757TIP3   OH265761   4.819   5.806   2.583  0.6341 -0.5623 -0.4789
14757TIP3    H165762   4.903   5.846   2.561 -0.7458  3.1926  0.3285
14757TIP3    H265763   4.772   5.803   2.499  0.2919  0.8314 -0.3561
14758TIP3   OH265764   0.163   3.792  13.890  0.2618 -0.1660  0.0347
14758TIP3    H165765   0.159   3.703  13.926 -5.5072 -0.4523 -0.4125
14758TIP3    H265766   0.130   3.783  13.801  2.6518  2.1851 -1.2200
14759TIP3   OH265767   2.682   2.368   0.801  0.1496 -0.0949 -0.1707
14759TIP3    H165768   2.637   2.429   0.860  0.1437 -1.6247  1.4978
14759TIP3    H265769   2.762   2.414   0.775 -0.6803  1.2852 -0.3715
14760TIP3   OH265770   5.518   0.055   0.876 -0.0937 -0.0125  0.3287
14760TIP3    H165771   5.574   0.087   0.947  0.7366  1.0337 -0.7516
14760TIP3    H265772   5.430   0.081   0.902  0.3031  1.1802  0.5729
14761TIP3   OH265773   3.221   0.694   2.298 -0.7346 -0.3541  0.1615
14761TIP3    H165774   3.302   0.693   2.247 -1.4765 -1.0699 -1.0292
14761TIP3    H265775   3.227   0.774   2.350  0.6817 -0.3331  0.0111
14762TIP3   OH265776   6.658   2.355   5.864  0.1603 -0.8874  0.4657
14762TIP3    H165777   6.615   2.441   5.868  1.8351  0.2151 -2.1740
14762TIP3    H265778   6.697   2.344   5.950  0.9435  1.6545  0.5295
14763TIP3   OH265779   0.742   1.805   3.229  0.4225 -0.1019 -0.4304
14763TIP3    H165780   0.781   1.890   3.210  0.6421 -0.2580 -0.6704
14763TIP3    H265781   0.681   1.823   3.301 -0.5113  0.5131 -1.3539
14764TIP3   OH265782   0.055   3.112  15.856 -0.1266 -0.6631  0.2870
14764TIP3    H165783   0.001   3.150  15.787  0.7707  0.0375 -0.0401
14764TIP3    H265784   0.143   3.143  15.838  0.2092 -0.8775  1.4680
14765TIP3   OH265785   1.681   5.531   3.162  0.2957 -0.0681  0.1093
14765TIP3    H165786   1.740   5.536   3.237  2.8573  3.1123 -1.8257
14765TIP3    H265787   1.602   5.577   3.190  0.2660 -0.9427  1.5309
14766TIP3   OH265788   1.286   6.562  13.046 -1.2807 -0.2132  0.3465
14766TIP3    H165789   1.258   6.488  12.992 -2.0260 -0.6000  1.2414
14766TIP3    H265790   1.255   6.541  13.134 -1.6458  1.2398  0.5835
14767TIP3   OH265791   4.567   4.249   1.797 -0.8384 -0.3675  0.1918
14767TIP3    H165792   4.572   4.322   1.736 -1.9312 -0.9723 -0.6536
14767TIP3    H265793   4.552   4.172   1.741 -2.5864 -0.8437  1.2597
14768TIP3   OH265794   3.622   4.062   1.267 -0.0537  0.4539 -0.1351
14768TIP3    H165795   3.614   4.152   1.298 -1.7370  0.4000 -0.3656
14768TIP3    H265796   3.645   4.070   1.174  1.6167  0.6146  0.2617
14769TIP3   OH265797   3.128   0.271  16.245  0.4165  0.0677  1.2410
14769TIP3    H165798   3.033   0.265  16.248  0.4767 -1.8097  0.3646
14769TIP3    H265799   3.156   0.259  16.336 -0.1330 -1.1442  1.2703
14770TIP3   OH265800   0.218   3.121  16.780  0.1192 -0.2348  0.2460
14770TIP3    H165801   0.213   3.034  16.819  0.8795  0.1364  1.2055
14770TIP3    H265802   0.143   3.125  16.721 -0.6174 -1.1071  1.0916
14771TIP3   OH265803   1.003   5.479  12.465  0.1492 -0.5696  0.0513
14771TIP3    H165804   1.066   5.549  12.479 -0.4458 -0.0050 -0.0592
14771TIP3    H265805   0.975   5.489  12.374 -1.8894  0.7055  0.7497
14772TIP3   OH265806   1.393   3.565  11.397 -0.1077  0.0686  0.0322
14772TIP3    H165807   1.312   3.617  11.400  0.3239  0.9606 -2.1259
14772TIP3    H265808   1.384   3.503  11.470 -2.5461  0.3991  0.1071
14773TIP3   OH265809   2.091   4.036   2.141  0.4594 -0.0132 -0.9573
14773TIP3    H165810   2.173   3.986   2.137 -0.4207 -2.0016  2.2131
14773TIP3    H265811   2.120   4.127   2.151  2.5010 -0.8223  2.1189
14774TIP3   OH265812   4.695   5.086   2.997 -0.0097 -0.0199  0.3840
14774TIP3    H165813   4.700   5.177   3.025  0.3050  0.5646 -1.4093
14774TIP3    H265814   4.787   5.057   2.994  0.0879  0.3387 -1.1474
14775TIP3   OH265815   3.106   5.741  11.128  0.1090  0.7703  0.2431
14775TIP3    H165816   3.021   5.766  11.091 -0.3563  0.1301  0.8489
14775TIP3    H265817   3.085   5.671  11.191  1.4140 -1.6310 -1.8202
14776TIP3   OH265818   6.657   6.090  15.542  0.2018 -0.5479 -0.0907
14776TIP3    H165819   6.620   6.021  15.597  0.7140 -0.9575 -0.2406
14776TIP3    H265820   6.721   6.134  15.598 -0.9606  0.5914  0.3774
14777TIP3   OH265821   4.801   0.726  12.754  0.2743 -0.1470 -0.7969
14777TIP3    H165822   4.817   0.764  12.668 -2.5426 -0.8455 -1.7476
14777TIP3    H265823   4.852   0.781  12.814 -1.0638  3.1799 -2.4392
14778TIP3   OH265824   1.352   5.391  10.859  0.5536 -0.1705 -0.1021
14778TIP3    H165825   1.388   5.328  10.797 -0.2604  1.4425 -2.3560
14778TIP3    H265826   1.306   5.455  10.805 -3.0475 -0.3468  2.3733
14779TIP3   OH265827   2.641   2.428   3.254 -0.6227  0.6907 -0.3397
14779TIP3    H165828   2.583   2.454   3.183 -0.6543  0.9649 -0.2177
14779TIP3    H265829   2.635   2.333   3.257 -0.1148  0.6235 -1.1275
14780TIP3   OH265830   1.216   1.753   4.545  0.6258  0.0670  0.5399
14780TIP3    H165831   1.281   1.730   4.479  0.5614  0.1168  0.4593
14780TIP3    H265832   1.165   1.672   4.558 -0.3827  0.4883 -0.6277
14781TIP3   OH265833   1.388   1.228   1.872  0.1167 -0.2500 -0.1739
14781TIP3    H165834   1.459   1.272   1.919  0.4633 -1.4924  0.4953
14781TIP3    H265835   1.334   1.189   1.941  0.8145 -2.3891 -0.7500
14782TIP3   OH265836   4.732   6.852  14.144  0.0072  0.3410  0.7337
14782TIP3    H165837   4.713   6.779  14.086  0.7071  0.1017  0.7968
14782TIP3    H265838   4.670   6.921  14.118  1.3724  0.8365 -1.3923
14783TIP3   OH265839   4.981   1.303  15.654  0.5587 -0.4013  0.3423
14783TIP3    H165840   4.965   1.363  15.727  1.2466 -0.0760  0.2354
14783TIP3    H265841   5.028   1.230  15.693  0.7567 -0.3167  0.2655
14784TIP3   OH265842   0.161   4.585   5.526 -0.1174 -0.7475  0.1235
14784TIP3    H165843   0.076   4.540   5.520 -1.3503  1.5823 -2.1187
14784TIP3    H265844   0.170   4.607   5.618 -1.2469 -2.3254  0.6483
14785TIP3   OH265845   5.552   0.997  16.481 -0.0286 -0.4053  0.0884
14785TIP3    H165846   5.524   1.087  16.462 -1.6252 -0.8955 -0.0510
14785TIP3    H265847   5.607   0.974  16.406 -1.5037 -0.3119 -1.0731
14786TIP3   OH265848   3.098   4.517  13.298 -0.2143  0.2285  0.3599
14786TIP3    H165849   3.134   4.490  13.214 -1.8129 -0.1700 -0.2265
14786TIP3    H265850   3.112   4.441  13.356 -2.1889 -0.8851 -0.5251
14787TIP3   OH265851   1.730   6.528  14.633  0.3500 -0.0390 -0.1002
14787TIP3    H165852   1.702   6.560  14.719  0.0917 -1.3120  0.3000
14787TIP3    H265853   1.655   6.479  14.600  1.3300 -1.6771  0.0382
14788TIP3   OH265854   6.663   1.211   1.114 -0.0021  0.9980 -0.5727
14788TIP3    H165855   6.598   1.184   1.049  0.9859  1.1601 -1.6548
14788TIP3    H265856   6.650   1.151   1.187 -0.2033 -0.1111 -1.4871
14789TIP3   OH265857   5.773   2.933  16.728 -0.1289  0.1794 -0.0546
14789TIP3    H165858   5.691   2.964  16.767 -1.9954 -0.8584 -2.8470
14789TIP3    H265859   5.751   2.849  16.689  2.0691  0.2386 -1.6132
14790TIP3   OH265860   5.708   2.579  10.290  0.7749  0.5248  0.4080
14790TIP3    H165861   5.737   2.488  10.300  1.3958  0.4972 -1.2179
14790TIP3    H265862   5.788   2.631  10.299  1.0167  0.6297 -1.8341
14791TIP3   OH265863   5.101   4.337  13.159  0.3234  0.3688 -0.3518
14791TIP3    H165864   5.171   4.305  13.102  1.8872 -0.3470  1.8445
14791TIP3    H265865   5.138   4.414  13.202 -0.6024  0.5426  0.1629
14792TIP3   OH265866   3.806   6.545   5.449  0.4165  0.1472  1.1384
14792TIP3    H165867   3.872   6.500   5.501 -1.1298 -2.2987  1.1341
14792TIP3    H265868   3.811   6.505   5.362 -0.6558  0.3077  0.9802
14793TIP3   OH265869   0.810   0.088   1.382 -0.3640  0.2714  0.4785
14793TIP3    H165870   0.834   0.048   1.466 -1.0501 -1.8700 -0.2808
14793TIP3    H265871   0.837   0.180   1.391 -0.5330  0.1435  3.0605
14794TIP3   OH265872   6.357   3.829   2.439  0.3520 -0.6412 -0.5385
14794TIP3    H165873   6.413   3.901   2.409  0.8150 -0.5878  0.4260
14794TIP3    H265874   6.269   3.854   2.410  0.0466  1.6241  1.9172
14795TIP3   OH265875   3.824   1.562  14.326 -0.0027 -0.1115 -0.1669
14795TIP3    H165876   3.779   1.636  14.285 -0.2596  0.0181  0.3395
14795TIP3    H265877   3.886   1.532  14.259  0.9239  1.2893  0.0119
14796TIP3   OH265878   2.479   3.494  15.354 -0.4527 -0.7923  0.2319
14796TIP3    H165879   2.439   3.466  15.437 -0.0464 -2.0585  0.0212
14796TIP3    H265880   2.405   3.500  15.293 -0.8225  0.5997  0.7683
14797TIP3   OH265881   0.453   4.662  15.829 -0.2280 -0.1282  0.0893
14797TIP3    H165882   0.526   4.712  15.794 -1.1745  0.6545 -0.8171
14797TIP3    H265883   0.453   4.580  15.780  0.3265 -0.3443  0.4387
14798TIP3   OH265884   4.433   1.318  11.880  0.8300  0.6243  0.3046
14798TIP3    H165885   4.435   1.413  11.870  0.9437  0.4851 -1.1064
14798TIP3    H265886   4.524   1.291  11.869  0.8180  0.3453  0.8257
14799TIP3   OH265887   6.545   3.645  15.679  0.3102  0.0712 -0.2949
14799TIP3    H165888   6.527   3.725  15.629 -0.8580  0.1594  0.2523
14799TIP3    H265889   6.463   3.595  15.676  0.3167 -0.0736  1.2421
14800TIP3   OH265890   5.611   2.496   4.426  0.3024 -0.1434  0.3472
14800TIP3    H165891   5.703   2.473   4.436  0.4052 -0.0987 -0.4668
14800TIP3    H265892   5.608   2.551   4.348 -0.7797 -2.4186 -1.3451
14801TIP3   OH265893   5.636   0.338   5.105  0.3546  0.0244 -0.2973
14801TIP3    H165894   5.619   0.298   5.191  0.4119 -0.7595 -0.6366
14801TIP3    H265895   5.709   0.398   5.120  2.0081 -1.8896 -0.2459
14802TIP3   OH265896   4.987   0.197  12.522  0.2286 -0.1181  0.4021
14802TIP3    H165897   5.044   0.247  12.580  0.2429  0.5753 -0.1901
14802TIP3    H265898   4.901   0.237  12.533 -0.2165 -1.2935  1.4478
14803TIP3   OH265899   6.352   2.451  13.314 -0.0215 -0.4897  0.1472
14803TIP3    H165900   6.424   2.469  13.253  1.7817 -3.3210  1.2339
14803TIP3    H265901   6.298   2.387  13.269 -1.6040  1.1397 -0.3899
14804TIP3   OH265902   3.035   2.213   1.497 -0.0798 -0.0076 -0.7113
14804TIP3    H165903   3.076   2.129   1.517 -1.1293 -0.4121 -0.1555
14804TIP3    H265904   3.030   2.216   1.402 -0.2894 -0.7067 -0.7241
14805TIP3   OH265905   6.389   3.345  15.993 -0.1683 -0.2039 -0.4735
14805TIP3    H165906   6.414   3.321  16.082  0.5088 -0.6364 -0.7740
14805TIP3    H265907   6.347   3.431  16.002 -3.0850 -1.6073  0.6850
14806TIP3   OH265908   4.363   4.108  13.984  0.1721  0.3938  0.4458
14806TIP3    H165909   4.352   4.026  13.936  0.7975  0.9741 -0.7465
14806TIP3    H265910   4.419   4.086  14.058 -2.1855 -0.8750  1.9451
14807TIP3   OH265911   1.115   3.064  15.663  0.2763  0.4439  0.5277
14807TIP3    H165912   1.061   2.993  15.698 -0.8220  0.8513 -0.2661
14807TIP3    H265913   1.088   3.142  15.713 -0.0807  0.6989 -0.0467
14808TIP3   OH265914   1.990   4.497  11.417 -0.4506 -0.1355 -0.3239
14808TIP3    H165915   2.024   4.414  11.451 -2.5009 -0.4717  1.0807
14808TIP3    H265916   1.989   4.556  11.492 -1.8772  0.1779 -0.5456
14809TIP3   OH265917   4.364   1.213   5.165 -0.3732 -0.5166 -0.0891
14809TIP3    H165918   4.353   1.230   5.072  0.6227  0.6105 -0.0266
14809TIP3    H265919   4.434   1.147   5.169  1.1765  1.0524 -0.1059
14810TIP3   OH265920   0.651   2.533  16.604 -0.1990  0.3731  0.3624
14810TIP3    H165921   0.592   2.518  16.530 -1.0531 -1.4305  1.3315
14810TIP3    H265922   0.677   2.445  16.632  0.2288  1.0130  2.0903
14811TIP3   OH265923   6.644   0.038   3.076  0.7143  0.5783 -0.3676
14811TIP3    H165924   6.617   0.116   3.123  0.1517  0.0653  0.1873
14811TIP3    H265925   6.727   0.061   3.035  1.1599  1.0847  0.7794
14812TIP3   OH265926   1.927   3.673   2.180 -0.4650 -0.3727 -0.1816
14812TIP3    H165927   1.850   3.730   2.173 -1.5851 -1.7346  0.4333
14812TIP3    H265928   1.965   3.674   2.093 -0.1139  1.7255 -0.0547
14813TIP3   OH265929   4.864   2.722  13.232 -0.1341 -0.1100 -0.6603
14813TIP3    H165930   4.886   2.654  13.296 -0.7102 -0.3146 -0.6756
14813TIP3    H265931   4.780   2.756  13.260  0.7545  1.5565  0.1220
14814TIP3   OH265932   5.656   5.290   2.603  0.4665 -0.2628 -0.0370
14814TIP3    H165933   5.603   5.275   2.525  2.3402 -1.0410 -1.2116
14814TIP3    H265934   5.601   5.346   2.659 -1.5654 -1.0408 -1.1627
14815TIP3   OH265935   4.482   1.694   1.719 -0.1785 -0.2571 -0.0269
14815TIP3    H165936   4.394   1.720   1.694  0.5080 -0.0833 -2.4731
14815TIP3    H265937   4.475   1.600   1.738 -0.7253 -0.4674 -1.1925
14816TIP3   OH265938   5.540   5.677  16.439 -0.0091  0.5043 -0.1061
14816TIP3    H165939   5.448   5.673  16.466  0.0265 -1.1900 -0.1604
14816TIP3    H265940   5.549   5.607  16.374  1.9195 -1.1152  1.7727
14817TIP3   OH265941   0.004   3.069   2.085 -0.0165  0.4163 -0.4090
14817TIP3    H165942   0.069   3.124   2.041 -0.4073  0.3451 -1.0932
14817TIP3    H265943   0.038   2.980   2.074 -0.7509  0.2765 -1.7110
14818TIP3   OH265944   1.761   3.068  11.942  0.1826 -0.1384  0.0665
14818TIP3    H165945   1.774   3.037  12.031  0.9459 -1.4304 -0.4573
14818TIP3    H265946   1.843   3.047  11.897 -1.6843 -3.8964 -2.0990
14819TIP3   OH265947   1.108   4.254   1.862  0.4106  0.3470 -0.4365
14819TIP3    H165948   1.174   4.305   1.815  1.8575 -1.3485 -0.3493
14819TIP3    H265949   1.158   4.207   1.929 -1.0512 -0.2614  0.2642
14820TIP3   OH265950   6.179   5.455  14.876 -0.3326  0.1710 -0.3312
14820TIP3    H165951   6.146   5.524  14.819  0.2658  1.4276  0.7989
14820TIP3    H265952   6.159   5.485  14.964  0.6374 -0.7220  0.2110
14821TIP3   OH265953   6.385   0.222  14.919  0.1444 -0.5160  0.2691
14821TIP3    H165954   6.315   0.241  14.857 -0.2114 -1.3993  0.3825
14821TIP3    H265955   6.400   0.304  14.965 -0.8466 -0.3286  0.2720
14822TIP3   OH265956   4.324   5.151   0.832 -0.7678  0.1451 -0.3932
14822TIP3    H165957   4.376   5.106   0.898 -1.9742  0.8871  1.1544
14822TIP3    H265958   4.346   5.109   0.750  1.6454 -0.0762  0.3034
14823TIP3   OH265959   0.457   5.541   1.452  0.0171 -0.7316  0.1088
14823TIP3    H165960   0.477   5.462   1.503  0.7879  0.1852  1.3074
14823TIP3    H265961   0.384   5.582   1.499 -1.3008 -1.3940 -1.2878
14824TIP3   OH265962   0.585   3.420   5.802  0.1423 -0.4244 -0.2305
14824TIP3    H165963   0.653   3.424   5.735  1.2179 -0.1439  0.8505
14824TIP3    H265964   0.562   3.512   5.818 -1.5291 -0.5640 -1.5864
14825TIP3   OH265965   3.095   2.809   1.740 -0.2615  0.4454  0.7205
14825TIP3    H165966   3.003   2.833   1.730  0.0082  1.7250  1.1171
14825TIP3    H265967   3.139   2.892   1.760  0.7965 -0.3313  1.7184
14826TIP3   OH265968   1.885   6.221  11.284 -0.0640  0.6002  0.1761
14826TIP3    H165969   1.887   6.228  11.189  0.2395  1.9594  0.2724
14826TIP3    H265970   1.798   6.251  11.309  0.4552  1.9809  0.4290
14827TIP3   OH265971   4.125   1.588   4.000  0.6831 -0.0763  0.1746
14827TIP3    H165972   4.214   1.614   3.977  0.1886  0.4648 -1.2096
14827TIP3    H265973   4.134   1.546   4.086  2.0283  1.4630  0.8558
14828TIP3   OH265974   0.663   0.070   5.678  0.0958 -0.5488  0.5458
14828TIP3    H165975   0.597   0.139   5.666 -0.7988 -1.1818  1.7047
14828TIP3    H265976   0.629  -0.004   5.628  0.9799 -0.2348 -0.5670
14829TIP3   OH265977   1.373   4.233  10.712 -0.2992 -0.4257 -0.0067
14829TIP3    H165978   1.431   4.252  10.639  0.3911  0.1655  0.6672
14829TIP3    H265979   1.316   4.310  10.718  1.1513  0.6024  1.4609
14830TIP3   OH265980   5.591   5.349   3.922  0.2959  0.2086  0.1560
14830TIP3    H165981   5.541   5.308   3.992  0.5962  1.1308  0.9180
14830TIP3    H265982   5.625   5.275   3.871  0.8593 -0.5051  1.5163
14831TIP3   OH265983   6.802   2.944   2.347 -0.4617 -0.9085 -0.3208
14831TIP3    H165984   6.781   3.007   2.278 -2.9466 -1.3121 -0.0020
14831TIP3    H265985   6.888   2.973   2.380 -1.0315  1.6736 -0.8753
14832TIP3   OH265986   5.661   3.586   4.832 -0.0792  0.1144  0.3423
14832TIP3    H165987   5.714   3.630   4.899 -0.2550  0.2623  0.3845
14832TIP3    H265988   5.707   3.602   4.750  0.2073 -0.1762  0.4450
14833TIP3   OH265989   0.712   0.666  11.113  0.6331 -0.4509 -0.4503
14833TIP3    H165990   0.689   0.732  11.047 -1.1962  0.5724  1.0825
14833TIP3    H265991   0.663   0.588  11.087  0.0972 -0.1226 -0.4552
14834TIP3   OH265992   4.952   0.199  14.088  0.6746 -0.1028  0.7053
14834TIP3    H165993   4.986   0.150  14.163  1.9016 -0.1280  0.1624
14834TIP3    H265994   4.897   0.136  14.041  0.5044 -0.3085  1.1773
14835TIP3   OH265995   3.694   6.818  16.399 -0.1754 -0.3928 -0.5224
14835TIP3    H165996   3.720   6.833  16.490 -0.3149  0.2495 -0.5788
14835TIP3    H265997   3.648   6.899  16.374  1.6731  0.3340 -1.8061
14836TIP3   OH265998   5.603   1.169  14.600 -0.5199  0.1181 -0.7922
14836TIP3    H165999   5.541   1.241  14.590  0.0592  0.6183 -0.8100
14836TIP3    H266000   5.682   1.209  14.637 -1.3700 -1.0596  2.6992
14837TIP3   OH266001   6.055   6.451  10.496 -0.2338 -0.5018 -0.4844
14837TIP3    H166002   6.079   6.509  10.569  0.2610 -0.5913 -0.5730
14837TIP3    H266003   6.133   6.449  10.440 -1.0523  0.6100 -1.7166
14838TIP3   OH266004   3.848   2.824   0.561 -0.0417  0.4137  0.5101
14838TIP3    H166005   3.861   2.882   0.636  1.2047 -0.8486  1.3217
14838TIP3    H266006   3.853   2.736   0.598 -0.6389 -0.2386 -0.8839
14839TIP3   OH266007   3.998   6.821  14.761 -0.4562  0.4168 -0.1665
14839TIP3    H166008   3.971   6.744  14.711 -1.1607  0.1773  0.5629
14839TIP3    H266009   4.047   6.786  14.835  0.0400  0.7314 -0.3428
14840TIP3   OH266010   0.701   1.343   2.052  0.1048  0.6618  0.2611
14840TIP3    H166011   0.738   1.428   2.031  0.4731  0.1092 -1.5185
14840TIP3    H266012   0.737   1.284   1.986 -3.8053  0.0412 -1.6163
14841TIP3   OH266013   2.808   4.986   1.338  0.2044 -0.6558 -0.6146
14841TIP3    H166014   2.898   5.005   1.365 -0.5235 -0.8814  2.3455
14841TIP3    H266015   2.763   5.070   1.347 -0.2355 -0.9162 -0.3597
14842TIP3   OH266016   4.099   0.215  16.079 -0.3889 -0.0639  0.3249
14842TIP3    H166017   4.014   0.221  16.124 -0.0635 -1.4852  1.2236
14842TIP3    H266018   4.079   0.174  15.995 -0.8130  1.2791 -0.2533
14843TIP3   OH266019   6.696   3.680   3.526  0.2296 -0.5579  0.0789
14843TIP3    H166020   6.710   3.621   3.600 -0.0916  0.1070  0.6844
14843TIP3    H266021   6.624   3.736   3.554  0.8157  0.4103 -0.2986
14844TIP3   OH266022   5.139   5.248   2.934  0.1063 -0.0310  0.5602
14844TIP3    H166023   5.084   5.315   2.974 -0.7375 -1.2684  1.5925
14844TIP3    H266024   5.224   5.258   2.977 -0.3743 -0.3869  1.6429
14845TIP3   OH266025   2.094   0.659  11.041 -0.0217 -0.4284  0.1844
14845TIP3    H166026   2.110   0.634  10.950  1.6914  2.2451 -0.3585
14845TIP3    H266027   2.090   0.576  11.088 -0.6196 -1.8852 -2.2488
14846TIP3   OH266028   0.116   4.471  12.158  0.0861 -0.0828 -0.3304
14846TIP3    H166029   0.040   4.445  12.105  0.4935 -1.6129 -0.2172
14846TIP3    H266030   0.190   4.468  12.097  0.8746 -3.5990  0.5455
14847TIP3   OH266031   6.832   2.422  15.629 -0.1929  1.3699  0.3136
14847TIP3    H166032   6.876   2.507  15.638 -0.1681  1.4862 -0.8038
14847TIP3    H266033   6.829   2.406  15.535  1.8835 -0.9829  0.5525
14848TIP3   OH266034   2.025   3.777  12.157  0.1084  0.4190  0.4921
14848TIP3    H166035   1.964   3.834  12.109 -0.2009  0.0778  0.4756
14848TIP3    H266036   2.013   3.801  12.249 -0.8460 -0.3839  0.5989
14849TIP3   OH266037   3.832   1.484   6.036 -0.4597 -0.5773 -0.5308
14849TIP3    H166038   3.761   1.450   6.091 -0.8640  0.6000 -0.2913
14849TIP3    H266039   3.830   1.579   6.050  0.4842 -0.4190 -1.3377
14850TIP3   OH266040   3.915   3.346  12.633 -0.2010  0.0557 -0.2163
14850TIP3    H166041   3.842   3.297  12.670  0.2407 -0.1028  0.4616
14850TIP3    H266042   3.980   3.280  12.611 -0.2496  0.1979 -0.8072
14851TIP3   OH266043   5.527   2.643  14.735  0.0592 -0.0661 -0.0773
14851TIP3    H166044   5.460   2.659  14.802  0.5529 -0.0416  0.4228
14851TIP3    H266045   5.515   2.552  14.711 -0.4581  0.0669 -0.3334
14852TIP3   OH266046   4.073   1.427   1.517 -0.3013 -0.4774 -0.4556
14852TIP3    H166047   4.129   1.366   1.468  0.4132  0.0859 -0.3748
14852TIP3    H266048   4.051   1.495   1.453 -0.1915 -0.2616 -0.2683
14853TIP3   OH266049   4.678   5.595  11.309  0.1218 -0.2791  0.2691
14853TIP3    H166050   4.584   5.577  11.312 -0.0578  0.7627  1.5576
14853TIP3    H266051   4.700   5.589  11.216 -0.8504 -2.2556  0.1167
14854TIP3   OH266052   5.923   3.574  15.456 -0.0839 -0.0163  0.0961
14854TIP3    H166053   6.004   3.607  15.496 -0.0562 -0.1232  0.1277
14854TIP3    H266054   5.898   3.641  15.393 -0.6188  0.6040  0.9354
14855TIP3   OH266055   3.188   1.477  17.078 -0.0356  0.2266 -0.0741
14855TIP3    H166056   3.166   1.384  17.067 -0.5186 -0.0235  2.4699
14855TIP3    H266057   3.156   1.499  17.165  4.5589  1.4233  1.6179
14856TIP3   OH266058   4.050   1.322  16.132  0.6611 -0.2177 -0.2923
14856TIP3    H166059   4.037   1.345  16.224  0.8949  0.2742 -0.3780
14856TIP3    H266060   4.076   1.404  16.090 -0.5241 -0.1894 -1.0181
14857TIP3   OH266061   1.767   2.177   4.127  0.0622 -0.6638  0.0363
14857TIP3    H166062   1.784   2.249   4.188  0.8206 -0.9097  0.1299
14857TIP3    H266063   1.854   2.140   4.109  0.1711  0.8444 -3.0429
14858TIP3   OH266064   3.968   5.081  10.989  0.5266  0.1222 -0.5149
14858TIP3    H166065   4.056   5.117  10.986  0.6306 -0.1228 -0.3693
14858TIP3    H266066   3.939   5.082  10.898  1.1366 -0.9322 -0.7378
14859TIP3   OH266067   5.780   0.681   5.612  0.5168  0.2590  0.0352
14859TIP3    H166068   5.824   0.607   5.571  0.2334  0.3214 -0.3880
14859TIP3    H266069   5.699   0.691   5.562  0.1222  0.2774  0.6672
14860TIP3   OH266070   1.280   3.598  16.703 -0.2508  0.0061  0.3604
14860TIP3    H166071   1.221   3.536  16.747  0.3025 -0.5040  0.3917
14860TIP3    H266072   1.361   3.549  16.690 -0.0432  0.5017 -0.2589
14861TIP3   OH266073   4.853   0.988   5.269  0.0753  0.4172  0.6324
14861TIP3    H166074   4.941   0.995   5.231  0.7423 -0.0829  2.0418
14861TIP3    H266075   4.833   1.077   5.299  0.5161  0.3375  1.1801
14862TIP3   OH266076   3.149   4.986   6.077 -0.7933  0.5441 -0.3417
14862TIP3    H166077   3.229   5.020   6.117  0.6451 -0.7335 -1.9530
14862TIP3    H266078   3.114   4.924   6.142  0.1926  0.2298 -0.0988
14863TIP3   OH266079   0.202   0.247   3.455  0.4156 -0.2733  1.0131
14863TIP3    H166080   0.185   0.261   3.548  0.4787  2.1189  0.7127
14863TIP3    H266081   0.272   0.309   3.434 -0.6603  0.3371 -0.9480
14864TIP3   OH266082   4.124   6.005   1.452  0.4416  0.5119  0.4007
14864TIP3    H166083   4.178   6.023   1.529  0.1093  0.5812  0.6200
14864TIP3    H266084   4.079   5.923   1.473 -1.5717  1.7951  1.3632
14865TIP3   OH266085   2.926   0.472   4.825 -0.5011 -0.2307  0.0401
14865TIP3    H166086   2.887   0.384   4.824 -2.2487  0.4535 -2.7099
14865TIP3    H266087   2.967   0.481   4.739  0.8286  1.2027  0.7828
14866TIP3   OH266088   2.162   2.576  15.867  0.8155  0.0748 -0.1128
14866TIP3    H166089   2.098   2.601  15.934  1.6885 -2.8508  1.9686
14866TIP3    H266090   2.120   2.504  15.820  1.3328  0.2812 -0.9125
14867TIP3   OH266091   4.947   1.247  16.483 -0.5719  0.3186  0.7507
14867TIP3    H166092   4.980   1.162  16.453  1.0283  1.2276 -0.1563
14867TIP3    H266093   4.911   1.229  16.571  0.4167 -1.1443  0.8882
14868TIP3   OH266094   4.723   6.824  13.687  0.2114  0.3736  0.0578
14868TIP3    H166095   4.757   6.766  13.618  1.1500  1.0167 -0.0533
14868TIP3    H266096   4.782   6.810  13.761  0.9482  1.7166 -0.2268
14869TIP3   OH266097   5.388   2.223   3.351  0.0878  0.1833 -1.0559
14869TIP3    H166098   5.474   2.248   3.319  1.7280 -0.3244  2.4990
14869TIP3    H266099   5.356   2.299   3.400 -0.0322 -0.6638  0.2424
14870TIP3   OH266100   4.704   0.117  16.236  0.2988 -0.0831  0.3182
14870TIP3    H166101   4.661   0.104  16.151 -0.3151 -0.0576  0.6188
14870TIP3    H266102   4.741   0.032  16.258  0.9181  0.0363 -0.2129
14871TIP3   OH266103   1.347   0.923  15.664 -0.0487 -0.2489  0.2261
14871TIP3    H166104   1.331   0.907  15.571  0.6597 -1.0346  0.2291
14871TIP3    H266105   1.281   0.987  15.689  0.6718  1.0929 -1.1670
14872TIP3   OH266106   2.979   2.582   0.524  0.4217 -0.4583 -0.5128
14872TIP3    H166107   3.051   2.524   0.499  0.2073 -0.6091 -0.7734
14872TIP3    H266108   2.921   2.527   0.577  0.5534 -0.3052 -0.2017
14873TIP3   OH266109   0.275   4.461   3.833  0.7193 -0.0649  0.2377
14873TIP3    H166110   0.254   4.553   3.817  3.9206  0.8980  0.8546
14873TIP3    H266111   0.321   4.433   3.753  1.0318 -0.6709  0.6204
14874TIP3   OH266112   3.706   5.095   5.232  0.4738 -0.3058  0.1758
14874TIP3    H166113   3.759   5.038   5.288 -0.5415 -1.1631  0.3084
14874TIP3    H266114   3.617   5.062   5.243  0.1830 -0.2622 -1.6478
14875TIP3   OH266115   6.491   3.476  13.290 -0.2145 -0.1796 -0.1238
14875TIP3    H166116   6.396   3.471  13.305 -0.1722  2.3504  1.7245
14875TIP3    H266117   6.508   3.570  13.281  2.2210 -0.5100  0.4636
14876TIP3   OH266118   1.071   4.337   0.896  0.9103 -0.3081  0.3539
14876TIP3    H166119   1.140   4.360   0.958  0.0392 -0.9769  1.6111
14876TIP3    H266120   1.007   4.408   0.905  1.2694  0.1583 -0.5973
14877TIP3   OH266121   5.658   5.133  11.918  0.5904  0.2689  0.3611
14877TIP3    H166122   5.745   5.157  11.951  0.4736  0.7250  0.3509
14877TIP3    H266123   5.609   5.107  11.995  1.5385 -2.6692  0.0891
14878TIP3   OH266124   1.929   3.963   3.273  0.7031 -0.0526  0.1903
14878TIP3    H166125   1.964   3.991   3.189 -2.0875  1.7162 -0.5148
14878TIP3    H266126   1.890   3.878   3.256  1.4776 -0.3953  0.1003
14879TIP3   OH266127   4.777   3.601  14.835  0.2627  0.2596  0.0905
14879TIP3    H166128   4.776   3.514  14.794 -0.9273  0.3864 -0.1868
14879TIP3    H266129   4.778   3.583  14.929 -1.7862 -0.1050  0.0818
14880TIP3   OH266130   4.242   3.344   1.059  0.3068  0.4555  0.3873
14880TIP3    H166131   4.269   3.294   0.983 -0.1079 -0.3242  0.7426
14880TIP3    H266132   4.149   3.324   1.070  0.9344 -1.7039  2.7309
14881TIP3   OH266133   6.544   1.964  15.369  0.1539 -0.3302 -0.3511
14881TIP3    H166134   6.474   1.919  15.417  1.8385 -0.9552  1.6998
14881TIP3    H266135   6.588   1.894  15.319 -0.2602 -0.0611 -1.1004
14882TIP3   OH266136   3.869   0.782  11.108  0.3371 -0.0991  0.6117
14882TIP3    H166137   3.953   0.813  11.142  0.7111 -0.3027 -0.1224
14882TIP3    H266138   3.886   0.761  11.016 -0.5537  0.0153  0.4096
14883TIP3   OH266139   6.806   0.269  15.527  0.1084  0.2119 -0.1357
14883TIP3    H166140   6.810   0.192  15.470  1.4179 -0.5826  0.9696
14883TIP3    H266141   6.856   0.336  15.480 -0.8672  0.3568 -1.0118
14884TIP3   OH266142   4.639   1.136  11.572  0.7607  0.6871  0.0624
14884TIP3    H166143   4.584   1.205  11.536  1.1729  0.5800 -0.7801
14884TIP3    H266144   4.665   1.169  11.658 -0.0261  1.0480  0.1733
14885TIP3   OH266145   0.884   3.361  14.477  0.2716  0.2835 -0.3378
14885TIP3    H166146   0.868   3.268  14.459  2.8478 -0.2228 -0.4419
14885TIP3    H266147   0.804   3.405  14.450 -0.5237 -1.7750 -1.5529
14886TIP3   OH266148   1.358   6.747   2.319 -0.0881  0.3007  0.2221
14886TIP3    H166149   1.347   6.829   2.367 -0.5441  0.0515  0.5508
14886TIP3    H266150   1.442   6.713   2.351 -1.1977 -0.7536  2.2613
14887TIP3   OH266151   6.850   1.351  15.807 -0.2444  0.5496  0.0837
14887TIP3    H166152   6.775   1.302  15.773 -0.2332  0.1140  0.6706
14887TIP3    H266153   6.867   1.312  15.893  1.3715 -0.1381 -0.5051
14888TIP3   OH266154   6.333   1.221  14.799 -0.2095  0.0454  0.3458
14888TIP3    H166155   6.359   1.228  14.891  2.0280 -0.5895 -0.1781
14888TIP3    H266156   6.320   1.311  14.771 -1.0364  0.2426  1.2821
14889TIP3   OH266157   3.862   3.622  16.162  0.4582 -0.5890 -0.0424
14889TIP3    H166158   3.832   3.577  16.241  0.1417 -0.6458 -0.1936
14889TIP3    H266159   3.850   3.715  16.182 -0.4859 -0.6363 -0.3652
14890TIP3   OH266160   6.033   6.159   0.403  0.3928 -0.0270  0.1086
14890TIP3    H166161   6.094   6.199   0.341 -0.2212  0.5241 -0.1546
14890TIP3    H266162   5.998   6.083   0.357  3.5717 -2.6122  1.5658
14891TIP3   OH266163   4.020   2.289  10.986 -0.0765 -0.1140  0.0586
14891TIP3    H166164   3.949   2.347  10.960 -0.6636 -0.8856 -0.0812
14891TIP3    H266165   3.983   2.232  11.053  0.1371 -1.1047 -0.6341
14892TIP3   OH266166   2.706   4.481   1.579  0.0063  0.0214  0.0048
14892TIP3    H166167   2.720   4.507   1.488  0.8963  0.0489  0.1476
14892TIP3    H266168   2.789   4.444   1.608 -0.1963  0.2178  0.8835
14893TIP3   OH266169   4.381   4.256  13.034  0.0344  0.0112 -0.5060
14893TIP3    H166170   4.472   4.281  13.052 -0.0856 -0.2327  0.5042
14893TIP3    H266171   4.328   4.326  13.073 -0.2320 -0.3524 -0.2049
14894TIP3   OH266172   5.028   2.572   1.784 -0.1223  0.1112  0.1844
14894TIP3    H166173   5.053   2.505   1.847  1.2477  0.2961 -0.1286
14894TIP3    H266174   4.937   2.553   1.763 -0.0193 -1.1047  0.7798
14895TIP3   OH266175   4.218   0.294  11.320 -0.3624  0.0482 -0.3409
14895TIP3    H166176   4.224   0.382  11.283 -1.8738  1.3274  2.1462
14895TIP3    H266177   4.307   0.277  11.353  0.4269 -0.2118 -2.4901
14896TIP3   OH266178   4.046   2.165  14.885  0.2875 -0.0382  0.8740
14896TIP3    H166179   4.099   2.224  14.938  2.5353 -0.5389 -0.6819
14896TIP3    H266180   3.974   2.220  14.854  1.5041  1.5173  0.6609
14897TIP3   OH266181   5.465   2.034   4.383 -0.2576 -0.0539 -0.1332
14897TIP3    H166182   5.437   1.992   4.465 -0.0722 -1.1940 -0.6360
14897TIP3    H266183   5.519   1.969   4.340  0.9614  1.1239 -0.4523
14898TIP3   OH266184   6.057   3.286  13.402  0.0407 -0.5139 -0.9585
14898TIP3    H166185   6.001   3.326  13.336 -1.3324 -1.2920 -0.3061
14898TIP3    H266186   6.056   3.348  13.475  1.8333  0.5120 -1.7285
14899TIP3   OH266187   2.656   4.512  15.894 -0.6445  0.0422  0.1354
14899TIP3    H166188   2.609   4.593  15.915 -0.9127 -0.2252  0.5933
14899TIP3    H266189   2.726   4.539  15.835  0.2979  0.8920  1.5825
14900TIP3   OH266190   3.931   0.239   3.180 -0.5953  0.5410 -0.0808
14900TIP3    H166191   3.844   0.268   3.205 -1.1584  1.0246 -2.3307
14900TIP3    H266192   3.982   0.320   3.173 -0.3877  0.4032 -0.1827
14901TIP3   OH266193   5.336   3.978   5.133  0.0386 -0.7629  0.1492
14901TIP3    H166194   5.285   4.047   5.091  0.1121 -0.4554  0.5588
14901TIP3    H266195   5.395   4.025   5.192 -1.0089 -1.2426  1.6430
14902TIP3   OH266196   3.799   6.236  10.886 -0.4853  0.4035  0.0651
14902TIP3    H166197   3.707   6.263  10.894  0.0149  2.3774 -0.1902
14902TIP3    H266198   3.825   6.211  10.974 -1.5915 -1.4508 -0.0863
14903TIP3   OH266199   0.365   3.129  15.481 -0.7816  0.9083  0.3108
14903TIP3    H166200   0.393   3.144  15.391 -0.5140  1.8807  0.5387
14903TIP3    H266201   0.362   3.034  15.490 -0.7627  0.8011 -0.7038
14904TIP3   OH266202   1.706   1.532  15.304  0.4850 -0.2454  0.1364
14904TIP3    H166203   1.674   1.461  15.360  2.1038 -0.2903  1.1042
14904TIP3    H266204   1.680   1.612  15.349  1.4976 -0.2816  0.8368
14905TIP3   OH266205   6.327   4.662   0.392 -0.1232  0.2275  0.2104
14905TIP3    H166206   6.236   4.634   0.379 -0.1218 -0.2926  1.2241
14905TIP3    H266207   6.377   4.607   0.332 -0.1495 -1.8748  1.9953
14906TIP3   OH266208   3.714   3.898  10.299  0.0450 -0.0774  0.0764
14906TIP3    H166209   3.734   3.849  10.219  1.4776 -2.0062  1.5217
14906TIP3    H266210   3.757   3.983  10.287  1.0301 -0.6777 -0.8262
14907TIP3   OH266211   5.317   1.992   1.264 -0.0937 -0.3443  0.2022
14907TIP3    H166212   5.314   2.062   1.198  0.4875  0.2489  0.7863
14907TIP3    H266213   5.272   1.918   1.223 -0.5117  0.2963 -0.5212
14908TIP3   OH266214   0.457   3.050  13.631  0.3434 -0.3109  0.1545
14908TIP3    H166215   0.540   3.049  13.583  0.4328  0.6197  0.2646
14908TIP3    H266216   0.460   2.971  13.686  1.2942 -0.1380  0.3781
14909TIP3   OH266217   5.205   0.414  15.153 -0.0333  0.5043 -0.1145
14909TIP3    H166218   5.247   0.480  15.099 -0.5731  0.3138 -0.7835
14909TIP3    H266219   5.159   0.358  15.091  0.7441 -0.7491  0.3975
14910TIP3   OH266220   0.344   5.888   2.184 -0.4004 -0.0784  0.7972
14910TIP3    H166221   0.412   5.913   2.121 -0.1691 -2.5326 -0.0377
14910TIP3    H266222   0.264   5.886   2.131 -0.0605 -3.0423  0.2312
14911TIP3   OH266223   1.613   2.216  16.491 -0.0853  0.3397 -0.1253
14911TIP3    H166224   1.705   2.226  16.515  0.3499 -1.5579 -0.8160
14911TIP3    H266225   1.584   2.138  16.539 -0.6200 -0.5107 -1.7554
14912TIP3   OH266226   1.963   4.829  14.688 -0.0609 -0.3224 -0.0251
14912TIP3    H166227   1.915   4.756  14.725 -1.5353  0.1485 -0.9276
14912TIP3    H266228   1.992   4.798  14.602 -1.9000  0.5478 -1.0231
14913TIP3   OH266229   5.704   4.114  15.792 -0.2479  0.1843  0.3361
14913TIP3    H166230   5.652   4.098  15.871  0.4696  0.0579  0.7867
14913TIP3    H266231   5.694   4.208  15.776 -2.2900 -0.1664 -0.7844
14914TIP3   OH266232   6.339   3.041  12.267 -0.3617 -0.0562  0.3771
14914TIP3    H166233   6.352   3.004  12.355 -0.6758 -0.0978  0.4066
14914TIP3    H266234   6.252   3.010  12.241 -1.6273  2.4825  1.3118
14915TIP3   OH266235   3.043   3.596  10.791  0.3569 -0.0226 -0.0884
14915TIP3    H166236   3.110   3.664  10.793 -1.5651  2.2312 -3.1663
14915TIP3    H266237   3.058   3.549  10.709 -0.8532 -0.5062 -0.0616
14916TIP3   OH266238   3.683   5.444  14.811 -0.5478 -0.3624 -0.1137
14916TIP3    H166239   3.686   5.513  14.745  0.5244 -0.8311 -0.5796
14916TIP3    H266240   3.622   5.379  14.776  0.6703 -1.0187 -1.0808
14917TIP3   OH266241   2.834   6.246   3.959  0.3388  0.0654 -0.3989
14917TIP3    H166242   2.842   6.328   3.909 -1.2889  1.0637  0.8563
14917TIP3    H266243   2.918   6.236   4.002 -0.4532  3.1258  2.2879
14918TIP3   OH266244   0.219   5.470   4.109 -0.3972  0.2734 -0.0664
14918TIP3    H166245   0.168   5.468   4.028 -0.2912 -1.8101 -0.1344
14918TIP3    H266246   0.270   5.389   4.107  0.3306  0.6523  1.6438
14919TIP3   OH266247   5.889   2.403   2.355  0.1893  0.1682 -0.0021
14919TIP3    H166248   5.952   2.432   2.290 -0.1892  0.5547 -0.1980
14919TIP3    H266249   5.906   2.457   2.432 -1.3765  1.8986 -0.7869
14920TIP3   OH266250   5.197   2.946   1.320  0.6567 -0.7688 -0.1618
14920TIP3    H166251   5.226   2.961   1.410 -0.6538  1.4579 -0.0181
14920TIP3    H266252   5.132   2.876   1.327  0.2682 -0.3472  0.7206
14921TIP3   OH266253   5.729   5.452   0.296 -0.4587  0.1621 -0.0061
14921TIP3    H166254   5.674   5.514   0.344 -1.6941 -1.0791  0.2500
14921TIP3    H266255   5.795   5.507   0.253 -0.8159  1.5296  1.1101
14922TIP3   OH266256   5.278   3.170  16.784  0.0850  0.0006 -0.7527
14922TIP3    H166257   5.350   3.185  16.723 -0.3526  1.7251 -0.8784
14922TIP3    H266258   5.315   3.190  16.870  0.6227 -2.1699 -0.4057
14923TIP3   OH266259   3.378   3.463   3.935 -0.6164  0.5532  0.6685
14923TIP3    H166260   3.283   3.465   3.927 -0.9887 -1.8583  3.0825
14923TIP3    H266261   3.406   3.394   3.874  0.0491  3.0091 -2.0865
14924TIP3   OH266262   4.534   4.231  16.215 -0.6396  0.3275  0.8174
14924TIP3    H166263   4.557   4.287  16.289  1.5952  0.6519 -0.0604
14924TIP3    H266264   4.563   4.143  16.241  0.2106  0.4539  0.3163
14925TIP3   OH266265   4.615   2.512  11.637 -0.6436  0.0182  0.1872
14925TIP3    H166266   4.532   2.469  11.656 -1.3192  0.8826 -0.7097
14925TIP3    H266267   4.658   2.519  11.722 -2.5880  1.7488  1.1309
14926TIP3   OH266268   5.454   1.754   0.152 -0.3438 -0.3081 -0.3765
14926TIP3    H166269   5.478   1.832   0.200 -2.3708  0.5367 -0.6299
14926TIP3    H266270   5.481   1.681   0.208  3.4399  0.4130 -1.0298
14927TIP3   OH266271   4.877   3.242  12.802 -0.3169 -0.4514  0.3782
14927TIP3    H166272   4.840   3.167  12.847 -0.0653 -0.2688  0.8912
14927TIP3    H266273   4.959   3.260  12.847 -0.3059  0.0471  0.1719
14928TIP3   OH266274   4.865   4.526  13.955 -0.0403 -0.2859  0.0742
14928TIP3    H166275   4.945   4.575  13.935  0.1630 -0.8219 -0.4482
14928TIP3    H266276   4.845   4.549  14.046  0.3566  0.3378  0.0106
14929TIP3   OH266277   5.979   4.161  10.897 -0.2341 -0.0935 -0.4373
14929TIP3    H166278   6.033   4.239  10.908 -1.0170  0.8097 -2.3469
14929TIP3    H266279   5.912   4.168  10.965 -1.1097  1.6933 -1.4087
14930TIP3   OH266280   5.664   4.479   0.746 -0.4980  0.0467 -0.5367
14930TIP3    H166281   5.662   4.406   0.807 -0.9027 -0.9491 -1.7149
14930TIP3    H266282   5.572   4.502   0.732 -0.4927 -0.6054 -1.7677
14931TIP3   OH266283   2.945   1.619  13.688  0.3470 -0.2082 -0.4618
14931TIP3    H166284   2.926   1.665  13.607 -1.4214 -0.3867 -0.1842
14931TIP3    H266285   2.861   1.613  13.734  1.0681 -1.1527  0.8397
14932TIP3   OH266286   5.869   3.302   1.009  0.2669  0.1820 -0.1580
14932TIP3    H166287   5.860   3.278   0.916 -1.4855  1.2676 -0.3066
14932TIP3    H266288   5.797   3.256   1.053 -0.3073  1.4264  0.2688
14933TIP3   OH266289   5.590   4.085   1.947 -0.2454  0.3672  0.4443
14933TIP3    H166290   5.540   4.070   2.027 -1.4707  1.0828 -0.1615
14933TIP3    H266291   5.551   4.163   1.908  0.3859  0.0912 -0.8102
14934TIP3   OH266292   3.959   0.255  15.105 -0.1256  0.2577  0.1209
14934TIP3    H166293   3.896   0.291  15.043  0.8966 -0.7068 -1.5768
14934TIP3    H266294   3.929   0.165  15.121  0.8600 -0.2665 -0.8313
14935TIP3   OH266295   3.228   6.725   1.681 -0.3877  0.4519  0.3813
14935TIP3    H166296   3.210   6.696   1.770 -1.2776  0.3291  0.1672
14935TIP3    H266297   3.178   6.666   1.625 -1.1942  1.5556 -0.1156
14936TIP3   OH266298   6.471   0.993   4.930  0.1041  0.2511  0.2935
14936TIP3    H166299   6.542   0.941   4.892 -1.2129 -1.1848 -0.3406
14936TIP3    H266300   6.466   0.964   5.021  0.4677  0.5107  0.3958
14937TIP3   OH266301   5.586   0.479  12.752  0.7689 -0.1202 -1.0332
14937TIP3    H166302   5.559   0.570  12.752  1.2749  0.1404  2.3465
14937TIP3    H266303   5.673   0.480  12.710 -0.1086  0.5223 -2.9704
14938TIP3   OH266304   0.136   4.219   1.532  0.4889  0.3587  0.2511
14938TIP3    H166305   0.167   4.306   1.559  1.9497  0.1147 -0.5149
14938TIP3    H266306   0.073   4.194   1.599  2.6118  0.5486  2.4702
14939TIP3   OH266307   6.411   1.806  12.483  0.6148 -0.6446 -0.3755
14939TIP3    H166308   6.403   1.892  12.442  0.6776 -0.2055  0.5079
14939TIP3    H266309   6.374   1.745  12.419 -0.0094  0.1117 -0.7504
14940TIP3   OH266310   6.702   0.981  15.047  0.0782  0.2436  0.1067
14940TIP3    H166311   6.760   0.928  15.101 -1.9892 -0.7651  1.4629
14940TIP3    H266312   6.696   1.065  15.093 -0.8072 -0.2334  0.8997
14941TIP3   OH266313   5.287   2.595   5.363 -0.1382  0.5213 -0.1724
14941TIP3    H166314   5.286   2.671   5.305 -1.4005  0.0993 -0.7391
14941TIP3    H266315   5.205   2.601   5.411 -0.9761 -1.2331 -1.2770
14942TIP3   OH266316   1.764   0.425   2.294  0.1634 -0.0479  0.6685
14942TIP3    H166317   1.835   0.416   2.230  0.6051 -1.1229  1.2804
14942TIP3    H266318   1.804   0.468   2.369  0.2447 -0.8392  1.0948
14943TIP3   OH266319   4.896   1.080  12.254 -0.1341  0.3925 -0.1942
14943TIP3    H166320   4.886   1.103  12.162 -1.0463 -0.8708 -0.4467
14943TIP3    H266321   4.809   1.093  12.292 -0.2101 -0.7273  0.0681
14944TIP3   OH266322   1.790   4.903  11.746 -0.6023 -0.4122 -0.0867
14944TIP3    H166323   1.720   4.956  11.706  0.0442 -0.2226 -1.0085
14944TIP3    H266324   1.768   4.813  11.721  0.4323 -0.2014 -1.9759
14945TIP3   OH266325   6.436   3.907   5.454 -0.6401 -0.3586 -0.0813
14945TIP3    H166326   6.446   3.835   5.516 -1.3654  0.1852  0.7052
14945TIP3    H266327   6.490   3.883   5.379  0.9235 -0.6498  1.1027
14946TIP3   OH266328   4.549   6.745  15.075  0.3402  0.0967 -0.2904
14946TIP3    H166329   4.530   6.806  15.004  1.2280  2.7958  1.5828
14946TIP3    H266330   4.484   6.766  15.142 -0.1477 -1.9964 -0.0453
14947TIP3   OH266331   6.267   0.337  11.524 -0.1765  0.2428  0.0711
14947TIP3    H166332   6.333   0.291  11.472  1.7290  1.0827  1.6090
14947TIP3    H266333   6.301   0.426  11.532 -1.6885  0.8067  0.6277
14948TIP3   OH266334   2.216   4.823  13.656 -0.5678 -0.1161 -0.0238
14948TIP3    H166335   2.305   4.792  13.636 -0.6247 -0.1026 -0.3010
14948TIP3    H266336   2.223   4.919  13.653 -0.5686 -0.1127  0.0616
14949TIP3   OH266337   5.672   4.444  14.021  0.1480 -0.5578  0.1135
14949TIP3    H166338   5.712   4.401  13.945  1.6478 -0.1054  0.6043
14949TIP3    H266339   5.720   4.409  14.096 -0.5788 -0.1824  0.7596
14950TIP3   OH266340   2.515   5.426  15.138  0.4175 -0.3598 -0.8926
14950TIP3    H166341   2.494   5.499  15.196 -1.7047 -2.4302  1.1546
14950TIP3    H266342   2.597   5.391  15.171 -0.2901 -0.9231  0.3407
14951TIP3   OH266343   5.185   1.797   0.576  0.4537  0.0962 -0.0547
14951TIP3    H166344   5.095   1.796   0.609 -0.1396  0.9445 -1.5448
14951TIP3    H266345   5.178   1.833   0.488  2.3647  0.8846  0.0694
14952TIP3   OH266346   1.466   2.349  14.329 -0.2529 -0.1407 -0.8584
14952TIP3    H166347   1.542   2.352  14.386 -0.8328  0.5643 -0.0985
14952TIP3    H266348   1.421   2.433  14.344 -1.5325 -0.8168 -0.7847
14953TIP3   OH266349   2.874   2.048  13.643  0.4980  0.6556 -0.2174
14953TIP3    H166350   2.896   2.029  13.551 -0.1432  2.2132 -0.7328
14953TIP3    H266351   2.958   2.052  13.687  0.7953 -0.5600 -0.6196
14954TIP3   OH266352   4.483   5.278  16.624 -0.1747 -0.2567 -0.3264
14954TIP3    H166353   4.537   5.354  16.604  1.7049 -0.9380  1.8203
14954TIP3    H266354   4.542   5.203  16.615 -1.1603 -1.1832  0.5789
14955TIP3   OH266355   3.174   2.571   5.905  0.1598 -0.0695  0.1444
14955TIP3    H166356   3.203   2.598   5.818  0.5775 -0.4268  0.1648
14955TIP3    H266357   3.079   2.582   5.904  0.1897  0.1693 -0.2698
14956TIP3   OH266358   3.518   4.187   3.374 -0.1611 -0.2482 -0.4022
14956TIP3    H166359   3.429   4.154   3.387 -0.3187 -0.1976 -1.2876
14956TIP3    H266360   3.536   4.239   3.452 -0.5204 -1.0902  0.2516
14957TIP3   OH266361   3.930   0.572  14.090  0.7292 -0.9281  0.8508
14957TIP3    H166362   3.869   0.515  14.042  1.0825 -0.1809 -0.5449
14957TIP3    H266363   4.017   0.537  14.070  0.9472  0.0822 -0.0189
14958TIP3   OH266364   3.516   4.761   3.261  0.0396 -0.7552 -0.1403
14958TIP3    H166365   3.527   4.845   3.306  1.1392 -0.7769 -0.3270
14958TIP3    H266366   3.487   4.785   3.173  1.2581 -0.4875 -0.4941
14959TIP3   OH266367   4.340   1.233   4.888 -0.2246  0.3373  0.3983
14959TIP3    H166368   4.382   1.275   4.812 -0.5807 -0.3853 -0.2174
14959TIP3    H266369   4.315   1.146   4.856  0.3299 -0.2840  1.5794
14960TIP3   OH266370   1.343   2.597   5.190 -0.2940 -0.4201 -0.1450
14960TIP3    H166371   1.362   2.581   5.283  1.9990 -1.3030 -0.6800
14960TIP3    H266372   1.307   2.514   5.158  0.9630 -0.8654 -0.4731
14961TIP3   OH266373   5.717   3.670  12.471 -0.3299 -0.0264  0.2958
14961TIP3    H166374   5.812   3.675  12.478 -0.2438  3.3601 -1.4571
14961TIP3    H266375   5.702   3.606  12.401  0.5908 -0.8241  0.7953
14962TIP3   OH266376   4.575   1.478   4.004  0.7651 -0.8789  0.3231
14962TIP3    H166377   4.636   1.547   3.979 -0.7600  0.9164  1.3072
14962TIP3    H266378   4.630   1.401   4.019  2.6648  0.4386  0.3962
14963TIP3   OH266379   6.199   4.981   4.735  1.1242 -0.1034 -0.0531
14963TIP3    H166380   6.271   4.924   4.707  0.6793 -0.7842  0.1426
14963TIP3    H266381   6.174   4.947   4.821  0.7698  0.3165  0.0109
14964TIP3   OH266382   6.175   4.102   3.361  0.2879 -0.0364  0.4155
14964TIP3    H166383   6.220   4.132   3.283  1.6780 -0.0718  1.1790
14964TIP3    H266384   6.239   4.048   3.407 -0.6350 -0.3514  1.3763
14965TIP3   OH266385   3.741   0.857  13.610 -0.1001  0.0079 -0.6927
14965TIP3    H166386   3.811   0.880  13.671 -0.5385  0.4789 -0.3561
14965TIP3    H266387   3.702   0.778  13.647 -1.6104  1.3485  0.7228
14966TIP3   OH266388   6.800   2.709   2.509 -0.6461 -0.4806  0.2698
14966TIP3    H166389   6.840   2.734   2.592 -2.6389  0.4406  1.0275
14966TIP3    H266390   6.799   2.790   2.458 -0.2623 -0.8249 -0.2840
14967TIP3   OH266391   2.824   6.553  14.124 -0.3319 -0.1172  0.7051
14967TIP3    H166392   2.743   6.502  14.129 -0.2146 -0.4026 -0.0570
14967TIP3    H266393   2.855   6.559  14.214 -0.7049 -0.8275  0.8857
14968TIP3   OH266394   2.545   1.984   0.290 -0.9529  0.1605  0.1480
14968TIP3    H166395   2.578   2.074   0.293  0.1217 -0.2273  1.4964
14968TIP3    H266396   2.546   1.961   0.197 -1.0626  1.4737 -0.1960
14969TIP3   OH266397   2.928   5.487  12.151 -0.0487  0.1512 -0.2973
14969TIP3    H166398   2.859   5.520  12.208  0.1459 -0.2444  0.1777
14969TIP3    H266399   2.882   5.453  12.074 -0.2720  1.2221 -0.6481
14970TIP3   OH266400   6.503   4.954  11.924  0.3200 -0.2288 -0.2138
14970TIP3    H166401   6.540   5.041  11.941  0.6996 -0.0079 -1.9676
14970TIP3    H266402   6.409   4.964  11.939  0.2723  0.6651 -1.0298
14971TIP3   OH266403   0.250   1.826  14.091  0.9242  0.1948 -0.5698
14971TIP3    H166404   0.288   1.858  14.173  1.9505 -0.8661 -0.6093
14971TIP3    H266405   0.177   1.771  14.118  1.2752 -0.1722 -0.3484
14972TIP3   OH266406   5.088   0.114  11.672  0.2555  0.1881  0.2459
14972TIP3    H166407   5.036   0.088  11.748 -1.0583  1.6452 -0.1159
14972TIP3    H266408   5.153   0.043  11.662 -0.9847 -1.1600  1.3326
14973TIP3   OH266409   5.125   2.771  13.775 -0.2811  0.0303 -0.3104
14973TIP3    H166410   5.152   2.857  13.808 -0.6349 -0.3551  1.0038
14973TIP3    H266411   5.178   2.708  13.825 -1.1485 -0.5825 -0.1431
14974TIP3   OH266412   2.637   2.505  11.179 -0.3320  0.2311 -0.0535
14974TIP3    H166413   2.667   2.423  11.140 -2.9769 -0.2090 -1.3461
14974TIP3    H266414   2.611   2.559  11.104  1.1912  2.2507  0.7677
14975TIP3   OH266415   4.709   4.920  14.560 -0.7131 -0.1295  0.1054
14975TIP3    H166416   4.726   5.013  14.569 -0.1639 -0.1692 -0.4183
14975TIP3    H266417   4.727   4.884  14.647  1.0602 -0.0231 -0.1727
14976TIP3   OH266418   2.788   4.507  10.407 -0.7593  0.2777 -0.4071
14976TIP3    H166419   2.847   4.444  10.448 -1.4466  0.8727  1.6114
14976TIP3    H266420   2.829   4.592  10.422 -0.9728  0.5006 -1.0671
14977TIP3   OH266421   0.138   3.203  15.296 -0.2425 -0.2768  0.1289
14977TIP3    H166422   0.177   3.267  15.237 -0.2027  1.0402  1.5231
14977TIP3    H266423   0.154   3.239  15.383 -1.7529 -1.3251  0.8674
14978TIP3   OH266424   5.920   2.743  17.018 -0.4117 -0.0208 -0.0982
14978TIP3    H166425   5.964   2.705  16.943  0.7141  0.3665  0.3476
14978TIP3    H266426   5.943   2.836  17.015  0.4091 -0.1544  1.2100
14979TIP3   OH266427   6.193   0.337  11.145  0.4599 -0.0140  0.4775
14979TIP3    H166428   6.176   0.315  11.053  0.2997 -1.1990  0.7725
14979TIP3    H266429   6.130   0.285  11.194  0.8734  0.2280  1.2867
14980TIP3   OH266430   5.420   0.577  11.053  0.5369 -0.0195  0.3900
14980TIP3    H166431   5.376   0.510  11.000  1.1692 -0.1963  0.0796
14980TIP3    H266432   5.429   0.652  10.995  0.8863 -0.0795  0.3615
14981TIP3   OH266433   2.498   1.596   0.674 -0.1841 -0.0579  0.0991
14981TIP3    H166434   2.520   1.670   0.616  0.1284 -1.3891 -1.5615
14981TIP3    H266435   2.403   1.603   0.685 -0.3542 -0.1176 -1.1177
14982TIP3   OH266436   3.143   0.946  14.752  0.0807  0.0915  0.0734
14982TIP3    H166437   3.120   0.857  14.729  4.2185 -0.6037 -2.3307
14982TIP3    H266438   3.080   1.001  14.704 -0.9218 -1.4927 -0.4814
14983TIP3   OH266439   4.877   2.808  16.888 -0.2041  0.5901 -0.4178
14983TIP3    H166440   4.855   2.746  16.819  1.4165  1.2904 -1.6184
14983TIP3    H266441   4.972   2.807  16.892 -0.2571  0.4697  1.9483
14984TIP3   OH266442   4.545   4.647  16.815  0.3651 -0.3630  0.0801
14984TIP3    H166443   4.461   4.650  16.771 -0.7294 -0.0893  2.0494
14984TIP3    H266444   4.537   4.575  16.878  0.5445  1.3027  2.1506
14985TIP3   OH266445   5.029   6.738   2.605 -0.3521 -0.0799  0.1986
14985TIP3    H166446   5.034   6.767   2.696  0.1783 -1.8188  0.7773
14985TIP3    H266447   4.966   6.796   2.564 -0.4944  0.8273  1.6429
14986TIP3   OH266448   2.582   3.121   0.155 -0.1671 -0.0189  0.3466
14986TIP3    H166449   2.663   3.113   0.105  1.3089 -0.2920  2.6895
14986TIP3    H266450   2.585   3.209   0.192 -1.6143  0.4562 -0.5667
14987TIP3   OH266451   0.635   1.193  11.142  0.6163 -0.6026 -0.0088
14987TIP3    H166452   0.648   1.288  11.151 -1.2399 -0.4105  1.1426
14987TIP3    H266453   0.635   1.178  11.048  1.6683  0.4168 -0.1960
14988TIP3   OH266454   3.360   4.909   5.485  0.0047  0.3621  1.1184
14988TIP3    H166455   3.379   4.998   5.453  1.4346  0.3054  1.7610
14988TIP3    H266456   3.368   4.854   5.407  0.8591  0.5769  1.0409
14989TIP3   OH266457   0.728   1.721   5.786 -0.3181  0.5132 -0.1488
14989TIP3    H166458   0.654   1.756   5.835  0.3040  2.4561 -0.5013
14989TIP3    H266459   0.722   1.763   5.700  3.0417  3.5799  0.8596
14990TIP3   OH266460   2.262   3.666   1.938  0.1717  0.2660 -0.5777
14990TIP3    H166461   2.181   3.617   1.946  0.2100  0.3969  0.9461
14990TIP3    H266462   2.317   3.633   2.009  0.9797  1.0520 -0.8147
14991TIP3   OH266463   2.344   6.270  12.982  0.0811  0.3374  0.0503
14991TIP3    H166464   2.423   6.286  13.033  0.6397 -1.3311 -0.2421
14991TIP3    H266465   2.354   6.326  12.905  1.2216 -0.2180 -0.2232
14992TIP3   OH266466   4.990   6.053  17.042  0.1150  0.3080  0.2464
14992TIP3    H166467   5.079   6.086  17.046  1.0496 -2.0224  0.4375
14992TIP3    H266468   4.979   6.004  17.123 -1.4607  0.7842  0.3515
14993TIP3   OH266469   3.486   5.709  13.247  0.1589 -0.1630 -0.1580
14993TIP3    H166470   3.474   5.735  13.156  2.1812 -1.4973 -0.8768
14993TIP3    H266471   3.410   5.654  13.266 -0.4682  0.4268 -0.9185
14994TIP3   OH266472   4.393   3.755  11.632  0.1828 -0.2483 -0.0534
14994TIP3    H166473   4.432   3.694  11.695  2.3852 -0.2875 -1.3476
14994TIP3    H266474   4.456   3.827  11.626 -0.4493  0.2250 -1.4885
14995TIP3   OH266475   0.389   5.358  13.813  0.1869 -0.7382 -0.1045
14995TIP3    H166476   0.413   5.267  13.793 -1.4258 -1.0855 -0.5609
14995TIP3    H266477   0.326   5.351  13.885  0.6827  0.0903  0.4300
14996TIP3   OH266478   2.633   4.032   3.320  0.1079 -0.9766 -0.0842
14996TIP3    H166479   2.567   4.102   3.321 -0.1400 -1.2078 -0.0879
14996TIP3    H266480   2.711   4.074   3.285 -0.3593 -0.9675 -1.1637
14997TIP3   OH266481   3.703   3.997  13.981 -0.5167  0.2369 -0.2833
14997TIP3    H166482   3.700   3.961  13.892  4.9190 -1.9011 -0.0042
14997TIP3    H266483   3.641   3.943  14.030 -0.2928 -1.7185 -1.9816
14998TIP3   OH266484   0.347   1.923  14.335 -0.5034 -0.8042  0.4152
14998TIP3    H166485   0.423   1.972  14.366 -0.8122  0.6549 -0.9990
14998TIP3    H266486   0.272   1.966  14.376 -0.6371 -1.5761  0.9868
14999TIP3   OH266487   5.489   5.941  15.204 -0.6650  0.3158  0.2453
14999TIP3    H166488   5.492   6.023  15.155 -1.4767  1.2934  1.7375
14999TIP3    H266489   5.398   5.931  15.230 -0.9717 -2.0722 -1.4300
15000TIP3   OH266490   5.961   4.486  15.983 -0.4476 -0.0232  0.0129
15000TIP3    H166491   5.979   4.580  15.993 -2.6011  0.5812 -1.1749
15000TIP3    H266492   5.964   4.471  15.889 -4.0570 -0.1754 -0.2097
15001TIP3   OH266493   0.169   6.748  10.340  0.0574 -0.4809 -0.3779
15001TIP3    H166494   0.114   6.696  10.398  0.4673 -1.1205 -0.5626
15001TIP3    H266495   0.249   6.698  10.330  0.3423  0.0439 -0.7960
15002TIP3   OH266496   0.924   5.658  11.376 -0.3592  0.1607  0.2681
15002TIP3    H166497   0.883   5.581  11.336 -0.6863  0.7881 -0.6257
15002TIP3    H266498   1.000   5.676  11.320  0.0429  0.1590  0.8037
15003TIP3   OH266499   5.966   5.784   2.463  0.5628  0.0083 -0.1622
15003TIP3    H166500   5.888   5.766   2.516  2.4573 -1.4365  2.2938
15003TIP3    H266501   6.029   5.717   2.488  2.8017  1.3646 -1.7630
15004TIP3   OH266502   4.489   3.628   1.185 -0.1441  0.2944 -0.5119
15004TIP3    H166503   4.574   3.659   1.216 -0.3169  0.5155 -0.2552
15004TIP3    H266504   4.480   3.667   1.098 -0.1478  0.5828 -0.3857
15005TIP3   OH266505   4.983   0.460  15.494 -0.3792 -0.1144 -0.7789
15005TIP3    H166506   4.997   0.522  15.423 -0.0876 -0.1075 -0.7182
15005TIP3    H266507   4.999   0.374  15.455  0.0749 -0.0902 -0.6509
15006TIP3   OH266508   6.491   5.798   0.273 -0.1364 -0.0571 -0.1488
15006TIP3    H166509   6.535   5.742   0.338 -1.6679 -0.6948  0.3727
15006TIP3    H266510   6.551   5.871   0.260  0.6244 -0.3921  1.2937
15007TIP3   OH266511   1.273   2.759  13.034  0.1081  0.4909  0.5318
15007TIP3    H166512   1.217   2.693  12.994 -0.3038  0.5020  1.0870
15007TIP3    H266513   1.253   2.755  13.127  1.2462  0.2984  0.7798
15008TIP3   OH266514   3.141   4.518   5.364 -0.0645  0.1709 -0.0363
15008TIP3    H166515   3.100   4.602   5.383 -1.4764 -0.1483 -1.4196
15008TIP3    H266516   3.210   4.538   5.301  1.8979  0.6817  2.1364
15009TIP3   OH266517   3.817   5.098   6.088  0.4524  0.1064 -0.1692
15009TIP3    H166518   3.911   5.111   6.098  0.5065  0.1883 -0.7713
15009TIP3    H266519   3.805   5.003   6.092  0.6219  0.0638 -0.5748
15010TIP3   OH266520   5.015   6.266  13.019  0.2126  0.0019 -0.4235
15010TIP3    H166521   4.994   6.351  12.981 -0.3122  0.7567  1.4612
15010TIP3    H266522   5.081   6.229  12.960 -1.7246  0.3661 -2.9471
15011TIP3   OH266523   3.018   1.845   3.697 -0.2273  0.3621 -0.4232
15011TIP3    H166524   3.035   1.761   3.740  1.4394  0.8338 -0.0851
15011TIP3    H266525   3.081   1.905   3.737 -0.3125  1.3950 -1.7810
15012TIP3   OH266526   4.921   4.136  15.840  0.5987  0.0255  0.0220
15012TIP3    H166527   4.988   4.203  15.857  2.6930 -1.3180 -2.2329
15012TIP3    H266528   4.860   4.179  15.780  1.9660 -0.0225 -1.4760
15013TIP3   OH266529   2.257   2.221  15.683  0.1053  0.5029 -0.3722
15013TIP3    H166530   2.253   2.136  15.727 -0.2942  1.3891  1.3715
15013TIP3    H266531   2.286   2.200  15.594  1.4763 -1.2938  0.4384
15014TIP3   OH266532   5.816   2.423   3.533  0.3446 -0.1031  0.5860
15014TIP3    H166533   5.838   2.341   3.487  3.6275 -0.0128  1.6844
15014TIP3    H266534   5.816   2.489   3.464  0.4230 -0.6512  0.0499
15015TIP3   OH266535   0.328   3.506   2.355  0.0491  0.3077  0.2325
15015TIP3    H166536   0.276   3.430   2.328 -0.8182  0.6414  0.9063
15015TIP3    H266537   0.414   3.491   2.316 -0.4878 -0.3531 -0.7505
15016TIP3   OH266538   4.801   6.525   0.252 -0.4417  0.3616 -0.0179
15016TIP3    H166539   4.734   6.583   0.218 -0.7969  0.8508  1.4419
15016TIP3    H266540   4.884   6.569   0.231 -0.6607  0.7682 -0.0401
15017TIP3   OH266541   5.930   4.611   3.436 -0.4035  0.0279  0.3278
15017TIP3    H166542   6.005   4.670   3.445  0.6923 -1.2414 -0.2099
15017TIP3    H266543   5.874   4.632   3.511  0.1438  1.4542  0.3760
15018TIP3   OH266544   1.738   0.507  14.785 -0.2350  0.3041  0.3004
15018TIP3    H166545   1.795   0.463  14.723  0.0709 -0.9796  1.4439
15018TIP3    H266546   1.798   0.552  14.845 -0.3836 -0.9938  1.4648
15019TIP3   OH266547   1.950   5.126   3.753 -0.2318 -0.1413  0.4526
15019TIP3    H166548   2.027   5.179   3.770  0.4175 -1.2775  1.1852
15019TIP3    H266549   1.983   5.037   3.746 -1.5280 -0.7342  1.3698
15020TIP3   OH266550   2.581   2.584  15.347  0.1680  0.4473 -0.3752
15020TIP3    H166551   2.526   2.649  15.389 -0.9750  0.6423 -2.0813
15020TIP3    H266552   2.641   2.635  15.292 -0.7733  0.1391 -1.7657
15021TIP3   OH266553   0.762   1.456  11.316  0.0187 -0.0811  0.5049
15021TIP3    H166554   0.822   1.450  11.241 -0.5774  0.6512 -0.0459
15021TIP3    H266555   0.814   1.500  11.384  0.8170 -1.4378  0.8151
15022TIP3   OH266556   5.730   6.807   2.585  0.4129 -0.0490 -0.2581
15022TIP3    H166557   5.812   6.856   2.593  0.3066  0.2530 -0.9155
15022TIP3    H266558   5.748   6.741   2.517  0.5626 -0.9486  0.6396
15023TIP3   OH266559   2.514   6.117  14.924 -0.0237 -0.9102 -0.2302
15023TIP3    H166560   2.510   6.035  14.972  2.1314 -1.2144 -0.4737
15023TIP3    H266561   2.528   6.184  14.991  0.3055 -1.0036 -0.2046
15024TIP3   OH266562   2.738   5.980   0.038  0.2380 -0.2615  0.0382
15024TIP3    H166563   2.828   6.012   0.026  0.9480 -1.4937  1.6752
15024TIP3    H266564   2.692   6.051   0.082  1.2986 -0.7340  2.0051
15025TIP3   OH266565   2.347   2.509  15.143 -0.0975  0.0925  0.0285
15025TIP3    H166566   2.411   2.475  15.205 -1.1200 -0.6592  0.6898
15025TIP3    H266567   2.347   2.444  15.072 -2.2592 -1.5715  1.4235
15026TIP3   OH266568   4.402   6.436  14.908 -0.2632 -0.5479 -0.1597
15026TIP3    H166569   4.320   6.485  14.916  0.3450  0.6015 -0.6221
15026TIP3    H266570   4.412   6.392  14.992 -1.4499 -0.8587 -0.1772
15027TIP3   OH266571   2.931   5.270  15.970 -0.5319  0.5327  0.5953
15027TIP3    H166572   2.873   5.320  16.028  0.8674  1.7285  1.0076
15027TIP3    H266573   2.938   5.184  16.012 -0.7148  0.8989  1.3929
15028TIP3   OH266574   4.361   0.663  11.655 -0.0753  0.2932  0.0810
15028TIP3    H166575   4.423   0.637  11.723 -0.1045 -0.6936 -0.2554
15028TIP3    H266576   4.288   0.601  11.663  0.3699 -0.4931 -1.4695
15029TIP3   OH266577   0.707   0.608   4.846 -0.5103 -0.3023  0.3263
15029TIP3    H166578   0.800   0.613   4.827 -0.6341  0.3182 -0.1441
15029TIP3    H266579   0.695   0.522   4.885  0.0664 -0.8837 -0.7330
15030TIP3   OH266580   6.152   3.156   4.221  0.2053  0.4809  0.0301
15030TIP3    H166581   6.061   3.175   4.243  0.1663 -0.2707  0.5708
15030TIP3    H266582   6.200   3.174   4.301 -0.0040 -2.7498  1.0564
15031TIP3   OH266583   0.564   3.992   4.040  0.3237  0.0038  0.0328
15031TIP3    H166584   0.553   3.939   4.119 -1.7262 -1.5436 -1.1849
15031TIP3    H266585   0.499   4.062   4.049 -1.4479 -1.3888 -1.1276
15032TIP3   OH266586   1.136   1.318  14.390  0.5041  0.0882 -0.3840
15032TIP3    H166587   1.042   1.302  14.396  0.4519  0.4261 -0.2653
15032TIP3    H266588   1.155   1.377  14.463  0.7296  0.3610 -0.6560
15033TIP3   OH266589   6.795   1.138  10.783  0.1758 -0.0880 -0.3358
15033TIP3    H166590   6.728   1.100  10.727 -1.3067  0.5387  0.9566
15033TIP3    H266591   6.765   1.227  10.800 -1.0571 -1.0739  3.7679
15034TIP3   OH266592   3.055   5.150   4.948 -0.1466 -0.2943  0.4974
15034TIP3    H166593   3.032   5.159   4.855  0.0713 -0.8238  0.3902
15034TIP3    H266594   2.985   5.097   4.985  1.6344 -3.3287 -0.1753
15035TIP3   OH266595   2.989   1.971   2.485 -0.3036  0.0940  0.6558
15035TIP3    H166596   3.022   1.904   2.426  0.7695 -0.3245  1.7057
15035TIP3    H266597   2.894   1.964   2.477 -0.1945 -0.2602 -0.6524
15036TIP3   OH266598   2.821   1.317   3.716 -0.3691  0.7266  0.1711
15036TIP3    H166599   2.825   1.392   3.657  2.0410 -0.5564 -1.4536
15036TIP3    H266600   2.885   1.336   3.784  1.6852 -0.5634 -1.2881
15037TIP3   OH266601   1.690   5.599  11.630 -0.2650 -0.2980  0.5208
15037TIP3    H166602   1.668   5.607  11.537 -0.3339 -0.8642  0.4863
15037TIP3    H266603   1.606   5.607  11.675 -0.0707  1.3906  0.6308
15038TIP3   OH266604   4.572   5.148  13.375  0.9336  0.7637 -0.4770
15038TIP3    H166605   4.516   5.079  13.340  0.9010  1.2412 -1.3857
15038TIP3    H266606   4.636   5.102  13.430 -0.0565  0.1728  0.2154
15039TIP3   OH266607   0.632   3.777  11.495  0.7316 -0.2341  0.2414
15039TIP3    H166608   0.709   3.723  11.477  0.1912 -1.5039  1.4756
15039TIP3    H266609   0.646   3.810  11.584  0.4112  0.5438  0.0151
15040TIP3   OH266610   0.615   0.023   4.984 -0.3336 -0.2822  0.8954
15040TIP3    H166611   0.709   0.007   4.985  0.0303  1.6107  1.5942
15040TIP3    H266612   0.587   0.006   5.074 -0.5479 -0.1807  0.8483
15041TIP3   OH266613   6.524   4.939   2.325 -0.1874 -0.2281  0.0210
15041TIP3    H166614   6.554   5.001   2.259 -1.9355  0.6099 -0.0545
15041TIP3    H266615   6.604   4.900   2.360  1.0653  2.8242  0.8221
15042TIP3   OH266616   3.915   6.378  13.982 -0.2945  0.0073 -0.4056
15042TIP3    H166617   3.887   6.374  13.891  0.5890 -0.4228 -0.6659
15042TIP3    H266618   3.990   6.438  13.982 -0.0676 -0.2688 -0.0217
15043TIP3   OH266619   5.589   6.590  12.962  0.7096 -0.6561 -0.5322
15043TIP3    H166620   5.510   6.592  13.016  1.8636  1.0114  1.2387
15043TIP3    H266621   5.589   6.502  12.923 -1.8887 -0.7481 -0.4588
15044TIP3   OH266622   6.799   0.352   2.676 -0.5819 -0.1967 -0.1535
15044TIP3    H166623   6.845   0.420   2.725 -0.7526 -0.3341  0.1991
15044TIP3    H266624   6.724   0.328   2.731 -1.2118  0.1864 -0.8210
15045TIP3   OH266625   5.293   6.681  11.372 -0.0512 -0.2728 -0.6815
15045TIP3    H166626   5.267   6.631  11.294  0.8826 -0.4928 -0.8653
15045TIP3    H266627   5.235   6.648  11.442 -1.3916  0.4358 -1.4179
15046TIP3   OH266628   3.374   0.047  15.594  0.2743 -0.0858  0.6199
15046TIP3    H166629   3.389   0.037  15.500  0.0194 -4.2886  0.8161
15046TIP3    H266630   3.445   0.103  15.624  1.0446  0.4256 -1.9039
15047TIP3   OH266631   3.577   4.763  15.250  0.1131 -0.1032 -0.8128
15047TIP3    H166632   3.511   4.815  15.205  1.5239  2.8943  0.3351
15047TIP3    H266633   3.542   4.752  15.339  0.6519  0.5766 -0.5085
15048TIP3   OH266634   0.543   2.106   4.971 -0.0770 -0.2986  0.0258
15048TIP3    H166635   0.526   2.091   4.878  0.5497  0.5262 -0.2373
15048TIP3    H266636   0.459   2.133   5.007  0.0837  1.3144 -0.7314
15049TIP3   OH266637   0.662   2.592  13.585  0.1661  0.3029 -0.0828
15049TIP3    H166638   0.672   2.552  13.671 -1.0343  0.7589  0.2828
15049TIP3    H266639   0.692   2.525  13.524  0.9206 -0.0638  0.6812
15050TIP3   OH266640   0.905   1.724   5.400  0.0147 -0.8939  0.4069
15050TIP3    H166641   0.821   1.753   5.436 -0.5240 -1.4342 -0.3741
15050TIP3    H266642   0.960   1.801   5.404 -0.7627 -0.3130  0.2291
15051TIP3   OH266643   3.482   3.714   1.813  0.4151  0.9416 -0.3732
15051TIP3    H166644   3.508   3.679   1.728 -1.6927  0.1221 -0.7474
15051TIP3    H266645   3.451   3.637   1.862  0.8868  1.5115  0.8508
15052TIP3   OH266646   3.691   6.743  15.995 -0.7419 -1.0432  0.0600
15052TIP3    H166647   3.608   6.763  15.952 -0.5260 -0.6651 -0.1818
15052TIP3    H266648   3.667   6.683  16.066 -1.6643  1.3781  1.9296
15053TIP3   OH266649   6.569   4.820   4.202  0.2257 -0.0782 -0.0038
15053TIP3    H166650   6.643   4.791   4.256 -0.3129 -0.5016  0.5182
15053TIP3    H266651   6.575   4.916   4.203 -0.3284 -0.0323  1.6225
15054TIP3   OH266652   2.715   4.460   0.159  0.1412 -0.7060  0.5229
15054TIP3    H166653   2.788   4.422   0.207  1.7687  1.1772 -0.3117
15054TIP3    H266654   2.729   4.432   0.069  0.4092  0.4380  0.1956
15055TIP3   OH266655   1.729   5.218   2.492  0.0146  0.3294 -0.0733
15055TIP3    H166656   1.794   5.195   2.558  0.5706  1.3122 -0.2603
15055TIP3    H266657   1.704   5.308   2.513  0.4786  0.7842 -1.4253
15056TIP3   OH266658   0.762   0.525  11.430 -0.0181 -0.6189  0.0696
15056TIP3    H166659   0.725   0.461  11.490  0.5944 -0.8280  0.2251
15056TIP3    H266660   0.856   0.524  11.447  0.0856 -0.2044 -0.4324
15057TIP3   OH266661   4.589   1.215   0.983 -0.0046 -0.0096 -0.9928
15057TIP3    H166662   4.622   1.129   0.959 -1.9607 -0.3236 -2.8656
15057TIP3    H266663   4.567   1.207   1.075  2.1235 -0.6970 -0.4829
15058TIP3   OH266664   5.295   6.236  14.084 -0.3475 -0.2439 -1.0183
15058TIP3    H166665   5.374   6.233  14.138 -0.6434 -2.9719 -0.5744
15058TIP3    H266666   5.279   6.144  14.061 -1.2600  0.6261 -4.3229
15059TIP3   OH266667   4.933   1.733  15.627 -0.3822  0.4620  0.6787
15059TIP3    H166668   4.981   1.749  15.708 -0.5062 -0.0714  0.8608
15059TIP3    H266669   5.000   1.706  15.564 -0.2448  1.1828  0.5165
15060TIP3   OH266670   5.062   0.395   3.737  0.0141  0.0270 -0.0432
15060TIP3    H166671   5.092   0.363   3.822 -0.9900  1.1444  0.7762
15060TIP3    H266672   4.966   0.384   3.740 -0.2196  1.7262 -0.2650
15061TIP3   OH266673   6.338   4.971  11.638 -0.1033 -0.1622  0.1754
15061TIP3    H166674   6.393   4.893  11.643 -0.3041 -0.4485 -1.4806
15061TIP3    H266675   6.328   4.988  11.544 -2.3250  0.2206  0.4093
15062TIP3   OH266676   6.222   1.503   3.515  0.4977  0.0942  0.4595
15062TIP3    H166677   6.267   1.586   3.531  2.2696 -0.5238 -0.9553
15062TIP3    H266678   6.159   1.523   3.445  1.6167  0.0822 -0.5906
15063TIP3   OH266679   6.651   5.166  14.782 -0.3803 -0.1897 -0.1515
15063TIP3    H166680   6.584   5.146  14.847 -0.4216  0.1024 -0.1043
15063TIP3    H266681   6.721   5.209  14.831 -0.7600  0.7747 -0.4258
15064TIP3   OH266682   5.121   2.310   1.506  0.1111 -0.3863 -0.0691
15064TIP3    H166683   5.137   2.399   1.539 -0.0307 -1.4103  3.0933
15064TIP3    H266684   5.026   2.306   1.495  0.0872 -0.2363  0.0687
15065TIP3   OH266685   5.912   3.781   1.763 -0.4811 -0.5229 -0.1040
15065TIP3    H166686   5.997   3.797   1.721 -0.6353  0.3716 -0.1089
15065TIP3    H266687   5.897   3.861   1.814 -1.3334 -0.6688 -0.1229
15066TIP3   OH266688   1.434   0.032  12.246 -0.1075 -0.0761 -0.2277
15066TIP3    H166689   1.374  -0.013  12.305  1.6151 -0.0568  1.6664
15066TIP3    H266690   1.513  -0.023  12.246  0.9737  1.4132 -0.1871
15067TIP3   OH266691   0.049   1.154   0.917  0.3701  0.2703 -0.2655
15067TIP3    H166692  -0.038   1.125   0.944  0.5959  1.3640  1.8527
15067TIP3    H266693   0.038   1.246   0.895  0.7299  0.0384 -1.5088
15068TIP3   OH266694   5.656   1.301  14.229 -0.1875  0.6114  0.3814
15068TIP3    H166695   5.726   1.299  14.164 -0.1631 -1.9708  0.3875
15068TIP3    H266696   5.676   1.378  14.283  1.9310  0.6437 -0.3671
15069TIP3   OH266697   1.131   5.632   3.121  0.1673 -0.0978  0.0180
15069TIP3    H166698   1.142   5.640   3.216  3.8834  0.5736 -0.3318
15069TIP3    H266699   1.102   5.542   3.108 -0.7308 -0.1204  1.7555
15070TIP3   OH266700   2.391   5.278  15.480  0.0943  0.1030  0.1601
15070TIP3    H166701   2.471   5.239  15.443  0.1168 -1.2602  1.5676
15070TIP3    H266702   2.423   5.345  15.540  0.2039 -0.4349  0.7145
15071TIP3   OH266703   6.029   3.332  11.459 -0.0627 -0.4571 -0.0921
15071TIP3    H166704   6.121   3.315  11.481  1.1957  1.8264 -2.7770
15071TIP3    H266705   6.003   3.259  11.403  1.0121  0.0460 -1.3046
15072TIP3   OH266706   4.675   0.120  17.074 -0.3455  0.2083 -0.2950
15072TIP3    H166707   4.688   0.155  17.162 -0.9357 -1.5888  0.5388
15072TIP3    H266708   4.702   0.192  17.016 -1.6965  2.1179  1.3044
15073TIP3   OH266709   0.459   1.056  11.310  0.5289 -0.4993 -0.0253
15073TIP3    H166710   0.532   1.065  11.249 -0.3687  0.9307 -0.9341
15073TIP3    H266711   0.480   1.115  11.382  0.1366  0.1299 -0.4248
15074TIP3   OH266712   5.887   0.110   3.514 -0.4146 -0.0881  0.2768
15074TIP3    H166713   5.908   0.050   3.585  0.4598 -2.1322 -1.5936
15074TIP3    H266714   5.970   0.122   3.468 -1.0636  0.7681 -0.7138
15075TIP3   OH266715   6.561   1.735   4.013  0.2309 -0.3751  0.1590
15075TIP3    H166716   6.520   1.707   3.931  0.8897  0.6859 -0.5544
15075TIP3    H266717   6.496   1.713   4.080 -0.8051 -0.2484 -0.7620
15076TIP3   OH266718   1.630   3.535   0.238 -0.6378 -0.0730 -0.3881
15076TIP3    H166719   1.611   3.511   0.328  0.5763  1.4986  0.3561
15076TIP3    H266720   1.588   3.468   0.185 -2.7907 -0.1389  1.2751
15077TIP3   OH266721   1.749   5.275  14.038 -0.2075  0.4855  0.2586
15077TIP3    H166722   1.842   5.266  14.058  0.1769  1.3859 -1.0395
15077TIP3    H266723   1.709   5.196  14.075  0.8579  0.6795  1.9461
15078TIP3   OH266724   1.871   2.501  15.310  0.0793 -0.0299  0.0862
15078TIP3    H166725   1.962   2.473  15.300  0.3676  0.6061  0.8132
15078TIP3    H266726   1.857   2.503  15.405 -1.5170 -2.6450 -0.0300
15079TIP3   OH266727   5.244   2.178  14.898  0.2670  0.3011  0.0537
15079TIP3    H166728   5.184   2.248  14.925  1.8089  1.0893  1.6433
15079TIP3    H266729   5.191   2.121  14.842 -2.0299  0.7992  1.5822
15080TIP3   OH266730   6.425   2.984   0.301 -0.3785  0.3055 -0.3009
15080TIP3    H166731   6.414   2.913   0.238  0.7752  0.0385 -0.2304
15080TIP3    H266732   6.345   2.983   0.353 -0.1610 -1.3316  0.0631
15081TIP3   OH266733   5.037   1.280  11.990  0.0825  0.0138 -0.2593
15081TIP3    H166734   5.086   1.361  11.976 -0.4906  0.7972  1.8547
15081TIP3    H266735   5.101   1.210  11.980  0.8930  0.8096 -0.7709
15082TIP3   OH266736   4.481   1.927  11.592 -0.1155  0.2971 -0.2443
15082TIP3    H166737   4.528   2.004  11.623 -0.8280  1.3342 -1.6354
15082TIP3    H266738   4.467   1.943  11.499 -0.9309 -1.1821 -0.4100
15083TIP3   OH266739   0.509   5.089  14.317 -0.0270 -0.2459  0.4288
15083TIP3    H166740   0.527   5.178  14.287  1.3793 -0.3209  0.9757
15083TIP3    H266741   0.525   5.092  14.412 -0.3331 -0.9945  0.5140
15084TIP3   OH266742   5.689   1.323   3.837 -0.5839 -0.1868  0.0871
15084TIP3    H166743   5.630   1.381   3.789 -1.2872 -0.6534  0.3734
15084TIP3    H266744   5.631   1.266   3.888  0.1283  0.0569  1.2168
15085TIP3   OH266745   1.325   0.514   2.034  0.0572  0.5205 -0.1445
15085TIP3    H166746   1.385   0.518   2.108  1.3711  0.0118 -1.1609
15085TIP3    H266747   1.247   0.560   2.065  1.5831  2.7617  0.6189
15086TIP3   OH266748   0.053   6.580  15.994 -0.3085  0.2096  0.7501
15086TIP3    H166749  -0.017   6.646  15.995  0.0028  0.5601  0.2303
15086TIP3    H266750   0.123   6.621  15.943  1.2407  0.8430  3.1825
15087TIP3   OH266751   4.255   2.754   1.868  0.0680 -0.0802  0.4169
15087TIP3    H166752   4.178   2.798   1.904 -1.2116  0.1923 -2.4035
15087TIP3    H266753   4.227   2.663   1.856  0.2554 -0.0413 -0.3615
15088TIP3   OH266754   3.481   1.652  16.342 -0.0541  0.0233 -0.2123
15088TIP3    H166755   3.484   1.676  16.250 -0.2037  2.5667  0.3879
15088TIP3    H266756   3.405   1.698  16.377 -1.9575 -3.3603  0.6101
15089TIP3   OH266757   4.530   5.858  15.693 -0.2803 -0.0939  0.4400
15089TIP3    H166758   4.453   5.814  15.656 -0.4691  0.3414  0.3080
15089TIP3    H266759   4.570   5.903  15.618 -0.6136  0.7156  0.7371
15090TIP3   OH266760   3.157   1.102  16.623  0.0164  0.0091 -0.4370
15090TIP3    H166761   3.119   1.015  16.615 -2.4293  0.8055  1.2963
15090TIP3    H266762   3.097   1.160  16.576 -1.0133  1.2936  2.2402
15091TIP3   OH266763   0.687   0.021   2.284 -0.1950 -0.7229  0.3499
15091TIP3    H166764   0.599  -0.016   2.288 -0.9069  0.6699 -1.1271
15091TIP3    H266765   0.742  -0.050   2.252 -0.8844 -1.4354  0.7071
15092TIP3   OH266766   1.888   2.496  15.606  0.8300 -0.1464  0.6052
15092TIP3    H166767   1.916   2.438  15.676  0.4569 -0.4591  0.4917
15092TIP3    H266768   1.935   2.578  15.623  1.1542 -0.3951  0.9092
15093TIP3   OH266769   1.707   5.065   5.398  0.0385 -0.6122 -0.3744
15093TIP3    H166770   1.778   5.096   5.342 -0.0706 -0.9085 -0.6816
15093TIP3    H266771   1.666   4.994   5.348 -1.1118  0.2111 -0.6423
15094TIP3   OH266772   4.664   6.549  14.869  0.2582  0.0435  0.0613
15094TIP3    H166773   4.680   6.555  14.963  1.5900  0.2124 -0.1662
15094TIP3    H266774   4.583   6.497  14.862  0.6750 -0.8044  1.2535
15095TIP3   OH266775   4.782   0.520  11.519 -0.6093  0.6880  0.1061
15095TIP3    H166776   4.851   0.462  11.487  0.9507  1.0197  2.5772
15095TIP3    H266777   4.772   0.586  11.450  2.6228  1.4547  0.2254
15096TIP3   OH266778   6.296   2.822  10.648  0.0714  0.2027 -0.2271
15096TIP3    H166779   6.283   2.917  10.653  2.2363  0.4884  1.6218
15096TIP3    H266780   6.217   2.785  10.687  0.5736  1.4145  2.0914
15097TIP3   OH266781   0.062   0.236  11.211  0.2463 -0.1068  0.4797
15097TIP3    H166782   0.021   0.153  11.185 -2.0020  1.0171  0.2408
15097TIP3    H266783   0.004   0.271  11.279 -0.8996  2.9541 -1.8924
15098TIP3   OH266784   5.284   1.896   1.667  0.1108  0.1824  0.1527
15098TIP3    H166785   5.216   1.962   1.680  0.4369  0.4723  0.4191
15098TIP3    H266786   5.330   1.892   1.751  1.7645  1.5114 -0.6116
15099TIP3   OH266787   0.067   4.816   1.996 -0.9349 -0.1880  0.0519
15099TIP3    H166788   0.117   4.868   1.933 -0.8991 -1.1847 -0.7655
15099TIP3    H266789   0.095   4.849   2.082  0.5055 -0.1461 -0.4095
15100TIP3   OH266790   3.042   4.533   0.130 -0.1694  0.0746 -0.4790
15100TIP3    H166791   3.109   4.597   0.105  0.1893 -0.9174 -2.2604
15100TIP3    H266792   3.054   4.521   0.224  0.1548  2.1265 -0.2161
15101TIP3   OH266793   5.453   2.600   2.227  0.2338  0.3172  0.0855
15101TIP3    H166794   5.503   2.573   2.304  1.2363  2.7388  0.3673
15101TIP3    H266795   5.362   2.584   2.250  0.6320 -0.5751  1.0888
15102TIP3   OH266796   3.624   5.739  14.270 -0.2572 -0.3966  0.5223
15102TIP3    H166797   3.676   5.667  14.236 -1.9187 -0.5467 -1.9585
15102TIP3    H266798   3.595   5.710  14.357  0.9525 -1.7134  0.5063
15103TIP3   OH266799   1.082   3.609  12.348  0.0322  0.0373  0.9751
15103TIP3    H166800   1.065   3.622  12.441 -0.9901 -0.7163  0.9071
15103TIP3    H266801   1.166   3.652  12.333 -0.8991  2.2394  1.7249
15104TIP3   OH266802   6.599   5.470  15.049  0.4401 -0.1698 -0.0491
15104TIP3    H166803   6.655   5.409  15.001  0.8890 -0.1387  0.4277
15104TIP3    H266804   6.558   5.417  15.118 -0.4215 -0.2764 -0.6256
15105TIP3   OH266805   3.798   1.159   1.805 -0.1880  0.0101 -0.2322
15105TIP3    H166806   3.743   1.238   1.809 -0.6599 -0.3177 -0.1764
15105TIP3    H266807   3.864   1.173   1.873  0.3925  0.8413 -0.9342
15106TIP3   OH266808   4.002   2.605   1.926 -0.2587 -0.0272 -0.3306
15106TIP3    H166809   4.035   2.517   1.948  1.2704  0.6343  0.1817
15106TIP3    H266810   3.943   2.627   1.999 -1.4070 -0.9812 -0.9391
15107TIP3   OH266811   0.364   5.155  15.092 -0.0077  0.1477 -0.4749
15107TIP3    H166812   0.398   5.187  15.009  1.4919  2.3582  0.8597
15107TIP3    H266813   0.435   5.101  15.128  0.1138  0.6739  0.1106
15108TIP3   OH266814   0.220   0.543   4.005 -0.4813  0.5187 -0.1223
15108TIP3    H166815   0.150   0.547   4.070 -1.4141  0.5997 -1.1087
15108TIP3    H266816   0.298   0.518   4.056 -1.0704  1.0682  1.1003
15109TIP3   OH266817   1.672   6.561   3.024 -0.1064  0.6304  0.1916
15109TIP3    H166818   1.601   6.553   2.960  0.6896  2.2141 -0.9528
15109TIP3    H266819   1.731   6.488   3.003 -1.2238 -0.5434  0.9918
15110TIP3   OH266820   6.482   4.406  12.883  0.3785  0.1801  0.0141
15110TIP3    H166821   6.538   4.345  12.834 -0.4617  0.1998 -0.9904
15110TIP3    H266822   6.436   4.456  12.816 -1.2274 -0.1730  0.8039
15111TIP3   OH266823   4.816   2.099  10.967  0.2850 -0.5824  0.0197
15111TIP3    H166824   4.766   2.031  10.923  0.4515 -0.9827  0.4408
15111TIP3    H266825   4.762   2.177  10.960 -0.6160 -1.1017  0.8430
15112TIP3   OH266826   2.984   2.583   4.420 -0.4523  0.0497  0.5526
15112TIP3    H166827   3.028   2.581   4.505 -0.6730  0.5659  0.6854
15112TIP3    H266828   2.920   2.511   4.424 -1.4039  0.9054  1.3572
15113TIP3   OH266829   6.315   6.563  16.456 -0.7145  0.0472  0.2218
15113TIP3    H166830   6.337   6.564  16.549  1.6212 -1.1770 -0.2408
15113TIP3    H266831   6.256   6.489  16.446  0.4208 -0.9241  0.4980
15114TIP3   OH266832   2.113   6.149   5.790  0.6628 -0.4002 -0.2960
15114TIP3    H166833   2.185   6.155   5.852  0.8298 -0.3356 -0.4949
15114TIP3    H266834   2.035   6.134   5.844  0.2986  2.7693  0.2283
15115TIP3   OH266835   2.519   3.166   1.651  0.4708 -0.4494 -0.6704
15115TIP3    H166836   2.567   3.132   1.575  2.0612  1.8642 -0.8050
15115TIP3    H266837   2.562   3.126   1.726  0.8262 -0.4920 -0.8905
15116TIP3   OH266838   5.630   6.215   3.930 -0.0194  0.2988 -0.4454
15116TIP3    H166839   5.656   6.299   3.969  0.0013  0.9029 -1.7208
15116TIP3    H266840   5.601   6.162   4.005  0.5239  1.2304  0.4472
15117TIP3   OH266841   4.862   0.555   3.164  0.4777 -0.0665 -0.4410
15117TIP3    H166842   4.951   0.540   3.196  0.7995  0.6733 -0.9551
15117TIP3    H266843   4.818   0.471   3.174  0.4134  0.1846  2.3677
15118TIP3   OH266844   4.627   6.780  16.835 -0.1669  0.5494 -0.0209
15118TIP3    H166845   4.585   6.748  16.755 -1.3947  1.1185  0.3756
15118TIP3    H266846   4.561   6.836  16.877 -0.7807 -2.1653  3.0221
15119TIP3   OH266847   1.123   4.496   1.379  0.1191 -0.4496  1.0518
15119TIP3    H166848   1.078   4.574   1.412 -0.4792 -0.4548  0.2593
15119TIP3    H266849   1.216   4.512   1.398 -0.0384  0.2853  1.2292
15120TIP3   OH266850   3.552   6.834   0.910 -0.1188  1.0722 -0.3323
15120TIP3    H166851   3.505   6.889   0.973 -0.1284  1.7442 -0.9202
15120TIP3    H266852   3.576   6.893   0.839  3.0502  1.1320  0.6627
15121TIP3   OH266853   0.343   2.574   1.725 -0.2934 -0.0905  0.3305
15121TIP3    H166854   0.316   2.666   1.729 -1.7225 -0.3341 -2.1602
15121TIP3    H266855   0.421   2.575   1.670 -1.1752 -0.5102 -0.9483
15122TIP3   OH266856   6.852   0.509  13.761  0.1852  0.5044  0.1479
15122TIP3    H166857   6.815   0.595  13.742  0.8692  0.5969 -0.8602
15122TIP3    H266858   6.947   0.523  13.761  0.2866 -0.1343  0.5698
15123TIP3   OH266859   5.443   0.621   2.833  0.0975 -0.4086 -0.2601
15123TIP3    H166860   5.528   0.594   2.866 -0.4759 -0.0496  1.6280
15123TIP3    H266861   5.424   0.703   2.878 -0.9016 -0.0636 -1.2519
15124TIP3   OH266862   3.476   2.175  14.085 -0.3132 -0.5256  0.0720
15124TIP3    H166863   3.563   2.151  14.053 -0.4733  0.6167 -1.3237
15124TIP3    H266864   3.459   2.114  14.157  0.6618 -2.3328 -1.1437
15125TIP3   OH266865   4.086   1.548  12.613  0.0174 -0.2638 -0.3299
15125TIP3    H166866   3.993   1.568  12.597 -0.1917 -1.7023 -1.0295
15125TIP3    H266867   4.091   1.532  12.707 -0.5617 -0.7695 -0.3809
15126TIP3   OH266868   6.683   1.500   3.097  0.4343 -0.1536 -0.1999
15126TIP3    H166869   6.632   1.430   3.056 -1.3246  1.7376 -1.4291
15126TIP3    H266870   6.636   1.520   3.178  0.1515  0.5010 -0.5224
15127TIP3   OH266871   2.952   3.583   3.413  0.2839  0.3742  0.5720
15127TIP3    H166872   2.949   3.504   3.359 -1.5370  1.3831 -0.9353
15127TIP3    H266873   3.032   3.628   3.386 -0.3148  0.5899 -0.9780
15128TIP3   OH266874   2.679   0.952  11.986 -0.3636  0.2123  0.4126
15128TIP3    H166875   2.648   1.042  11.980 -1.3530 -0.1942 -1.0144
15128TIP3    H266876   2.748   0.955  12.053 -0.6951  1.9230  0.7221
15129TIP3   OH266877   1.176   1.910   0.208  0.1171  0.5901  0.1760
15129TIP3    H166878   1.082   1.915   0.226  0.2580  0.7914  0.8741
15129TIP3    H266879   1.188   1.827   0.163 -0.3855  0.5350  0.1462
15130TIP3   OH266880   6.176   4.335   1.360  0.5726 -0.3593 -0.4681
15130TIP3    H166881   6.199   4.418   1.318 -0.8613  0.4607  0.3027
15130TIP3    H266882   6.111   4.296   1.302 -0.7825  0.3775  0.5057
15131TIP3   OH266883   3.565   2.610  16.370 -0.6922  0.2221 -0.4044
15131TIP3    H166884   3.545   2.599  16.277 -0.0242 -2.6422 -0.3029
15131TIP3    H266885   3.661   2.619  16.373 -0.2785 -3.0997  0.1075
15132TIP3   OH266886   0.829   6.812  13.823  0.2939 -0.3920 -0.7207
15132TIP3    H166887   0.836   6.886  13.763  1.6711 -0.3428 -0.5186
15132TIP3    H266888   0.830   6.851  13.911 -1.8509 -0.4500 -0.5947
15133TIP3   OH266889   0.460   5.515   1.189 -0.1571  0.1531 -0.7103
15133TIP3    H166890   0.459   5.535   1.282 -0.8109  0.4561 -0.7756
15133TIP3    H266891   0.367   5.516   1.163 -0.0339 -0.6669 -1.2035
15134TIP3   OH266892   2.638   6.276  13.458 -0.2047  0.0659  0.1523
15134TIP3    H166893   2.633   6.363  13.498 -1.9732  0.9845 -1.8890
15134TIP3    H266894   2.732   6.260  13.448  0.2200  0.8472  2.2986
15135TIP3   OH266895   2.961   4.247  13.514  0.8563 -0.3398  0.1803
15135TIP3    H166896   2.885   4.212  13.468  0.1272 -1.1680  1.9038
15135TIP3    H266897   3.018   4.170  13.527  0.3202 -0.4729  1.9705
15136TIP3   OH266898   6.046   4.567   0.430  0.5567 -0.0107 -0.2573
15136TIP3    H166899   6.015   4.523   0.351 -4.5337  1.9720  0.3096
15136TIP3    H266900   5.970   4.572   0.487  3.0974  1.7889  3.3672
15137TIP3   OH266901   4.978   5.048   1.504 -0.1569 -0.1584  0.1740
15137TIP3    H166902   5.045   4.984   1.484  1.2247  0.3946  2.6232
15137TIP3    H266903   5.005   5.127   1.456 -0.8492 -0.8370 -1.3705
15138TIP3   OH266904   4.762   3.875  10.866 -0.1695 -0.1090  0.1907
15138TIP3    H166905   4.801   3.906  10.785  0.6415  1.9903  1.3132
15138TIP3    H266906   4.669   3.866  10.846  0.1717 -0.7172 -1.2494
15139TIP3   OH266907   1.180   5.975  16.809 -0.6815  0.2958  0.0330
15139TIP3    H166908   1.273   5.967  16.792 -0.9467 -1.2462 -0.8576
15139TIP3    H266909   1.171   6.058  16.856  1.5514 -1.1465  3.3140
15140TIP3   OH266910   5.837   3.380  13.180  0.3726  0.0311  0.4355
15140TIP3    H166911   5.807   3.468  13.202 -1.6189 -1.1653  3.1987
15140TIP3    H266912   5.779   3.351  13.111  0.3807  0.5282  0.2160
15141TIP3   OH266913   3.464   0.294  14.039 -0.0964  0.5860  0.6136
15141TIP3    H166914   3.411   0.330  13.969  0.3898  0.0063 -0.0636
15141TIP3    H266915   3.458   0.199  14.028 -1.2066  0.4323  2.2559
15142TIP3   OH266916   0.824   3.277  12.272 -0.1326 -0.2087  0.4488
15142TIP3    H166917   0.775   3.249  12.194 -0.9944  2.6921 -0.1832
15142TIP3    H266918   0.800   3.369  12.283  1.2729 -0.0803  3.2034
15143TIP3   OH266919   1.350   6.510   4.528  0.2551 -0.3595  0.2304
15143TIP3    H166920   1.435   6.519   4.572  0.4202 -0.4441 -0.0651
15143TIP3    H266921   1.311   6.431   4.565  0.2086 -0.1952  0.5280
15144TIP3   OH266922   1.953   0.945   4.677 -0.2024 -0.1530  0.0272
15144TIP3    H166923   1.903   0.984   4.605 -0.0091  0.8418  0.4181
15144TIP3    H266924   2.011   1.015   4.707 -1.4701  0.0466  2.2521
15145TIP3   OH266925   1.655   1.151   5.502 -0.2295 -0.0127 -0.1800
15145TIP3    H166926   1.615   1.065   5.517 -2.0162  0.5383 -1.4684
15145TIP3    H266927   1.613   1.209   5.566  0.6101  0.0322  0.3505
15146TIP3   OH266928   2.473   5.655  12.093  0.6629 -0.0629 -0.4186
15146TIP3    H166929   2.432   5.741  12.103  1.7845  0.4142  0.2423
15146TIP3    H266930   2.512   5.657  12.006  0.3122 -0.0765 -0.5780
15147TIP3   OH266931   4.589   4.722   1.724  0.2787  0.6259 -0.2774
15147TIP3    H166932   4.584   4.631   1.694  0.1987  0.5902 -0.1569
15147TIP3    H266933   4.681   4.735   1.745  0.4515  0.8421 -1.1289
15148TIP3   OH266934   3.000   3.549   4.739 -0.1762 -0.1199 -0.5379
15148TIP3    H166935   2.983   3.471   4.792 -0.4725 -1.2637 -2.2518
15148TIP3    H266936   2.913   3.581   4.715 -0.2198  2.3600  2.2428
15149TIP3   OH266937   4.076   2.226   2.960 -0.1211  0.7791 -0.5272
15149TIP3    H166938   4.117   2.165   3.022 -0.4311  0.7584 -0.3416
15149TIP3    H266939   4.048   2.300   3.014  0.9799  1.4721 -0.8589
15150TIP3   OH266940   4.335   3.378  12.011 -0.1974  0.7558  0.0041
15150TIP3    H166941   4.268   3.375  11.942  2.1311  0.8366 -2.4015
15150TIP3    H266942   4.327   3.466  12.047 -1.4808  0.7105 -0.0950
15151TIP3   OH266943   2.089   0.290  13.840 -0.4579 -0.0455  0.3398
15151TIP3    H166944   2.078   0.358  13.907 -1.0891 -1.1316  1.3684
15151TIP3    H266945   2.160   0.323  13.784 -0.1461  1.0409  1.3357
15152TIP3   OH266946   2.037   2.083  12.939 -0.4017 -0.2649 -0.6915
15152TIP3    H166947   2.015   2.034  13.018  1.0704 -1.7209 -1.1395
15152TIP3    H266948   1.958   2.079  12.886 -0.3318 -2.2006 -0.7101
15153TIP3   OH266949   1.897   2.197  17.092  0.6054  0.1192 -0.2088
15153TIP3    H166950   1.992   2.186  17.093  0.4424 -1.4416  0.7695
15153TIP3    H266951   1.877   2.246  17.172  0.7015  1.9551 -1.2508
15154TIP3   OH266952   1.099   6.742  13.829 -0.2736 -0.1150  0.2475
15154TIP3    H166953   1.008   6.724  13.853 -0.6743 -0.6852 -1.5363
15154TIP3    H266954   1.120   6.824  13.874 -0.8227 -1.2610  2.6968
15155TIP3   OH266955   0.782   3.760  14.282 -0.1346  0.1721  0.4626
15155TIP3    H166956   0.732   3.815  14.343 -0.0840  0.6414  0.0802
15155TIP3    H266957   0.722   3.687  14.262  0.3170 -0.6965  2.0757
15156TIP3   OH266958   3.902   4.779  14.321 -0.3852  0.1690  0.8218
15156TIP3    H166959   3.914   4.688  14.294 -1.5832 -0.3830  2.0247
15156TIP3    H266960   3.943   4.784  14.407  3.4725  1.9201 -0.8828
15157TIP3   OH266961   1.419   5.059   5.017 -0.5702  0.1646 -0.6217
15157TIP3    H166962   1.442   5.051   4.924  0.7784 -0.2033 -0.2814
15157TIP3    H266963   1.440   5.150   5.039 -1.8468  0.5413 -0.9085
15158TIP3   OH266964   5.316   4.539   2.622 -0.2066  0.1503  0.2354
15158TIP3    H166965   5.230   4.533   2.665 -0.9207  1.2886 -0.9359
15158TIP3    H266966   5.310   4.478   2.549  0.3624 -0.4956  0.7194
15159TIP3   OH266967   6.178   5.760   4.141 -0.3325 -0.2703  0.7064
15159TIP3    H166968   6.215   5.842   4.106  0.3849 -0.4469  1.0389
15159TIP3    H266969   6.234   5.738   4.215 -0.2014 -1.3479  0.3004
15160TIP3   OH266970   6.833   5.496   1.359  0.0957 -0.4177  0.1017
15160TIP3    H166971   6.762   5.558   1.344  0.8927  0.5699  0.2940
15160TIP3    H266972   6.901   5.523   1.298  0.7022 -0.7002  0.6454
15161TIP3   OH266973   5.996   1.672  16.195  0.2928 -0.1334 -0.2224
15161TIP3    H166974   6.072   1.695  16.141 -0.8590  0.4844 -1.6218
15161TIP3    H266975   5.924   1.662  16.133 -0.8107 -0.6318  1.0865
15162TIP3   OH266976   2.990   1.385  13.534  0.2106  0.0869  0.5367
15162TIP3    H166977   2.979   1.469  13.579 -1.8248  0.3372 -0.3444
15162TIP3    H266978   3.046   1.405  13.459 -0.1252  0.6397  0.4265
15163TIP3   OH266979   2.269   0.555  16.236 -0.6632  0.6447 -0.0682
15163TIP3    H166980   2.289   0.528  16.147  0.0142 -1.8128  0.7396
15163TIP3    H266981   2.202   0.493  16.266  0.6123  0.0484  1.7648
15164TIP3   OH266982   3.113   5.602   4.894  0.6234  0.0580 -0.0580
15164TIP3    H166983   3.117   5.516   4.852 -0.1012  0.7343 -1.6092
15164TIP3    H266984   3.203   5.620   4.921  0.8725 -0.9711 -0.1671
15165TIP3   OH266985   3.411   3.431   0.293 -0.0052 -0.1290  0.5420
15165TIP3    H166986   3.450   3.356   0.248 -0.1611  0.2584 -0.2525
15165TIP3    H266987   3.376   3.486   0.223  0.1967  0.7428  1.1056
15166TIP3   OH266988   1.480   5.708   0.598 -0.3239  0.4088  0.3999
15166TIP3    H166989   1.524   5.793   0.602  0.3259  0.1031 -0.1039
15166TIP3    H266990   1.407   5.722   0.537  0.1709  0.4370 -0.1934
15167TIP3   OH266991   5.370   0.974  11.596  0.4265 -0.9600 -0.2537
15167TIP3    H166992   5.374   0.879  11.601 -0.1753 -0.9934 -0.3130
15167TIP3    H266993   5.460   1.001  11.581  0.7061 -1.4775  0.4431
15168TIP3   OH266994   2.961   0.530   2.910  0.1478  0.5865 -0.7186
15168TIP3    H166995   2.867   0.539   2.898 -0.1850 -1.0058  0.3660
15168TIP3    H266996   2.981   0.584   2.987 -0.2900 -0.7197  0.3572
15169TIP3   OH266997   5.144   5.350   3.678  0.1935  0.5742 -0.3305
15169TIP3    H166998   5.176   5.283   3.618 -0.2789 -1.2431  1.3437
15169TIP3    H266999   5.222   5.395   3.708  0.6534 -0.1066 -0.4937
15170TIP3   OH267000   2.342   0.350   0.265 -0.2411 -0.1123  0.1875
15170TIP3    H167001   2.344   0.300   0.347 -0.7629 -1.3884 -0.5432
15170TIP3    H267002   2.255   0.390   0.263 -1.3186 -2.3421 -0.9874
15171TIP3   OH267003   2.050   0.732  12.673  0.1040 -0.6588  0.6230
15171TIP3    H167004   1.958   0.704  12.672 -0.0190 -0.2561 -0.1725
15171TIP3    H267005   2.100   0.651  12.665 -0.1431 -0.9730  1.9476
15172TIP3   OH267006   0.400   6.544   4.104  0.4025 -0.0466 -0.5258
15172TIP3    H167007   0.432   6.586   4.184 -1.6870  0.8021 -0.0607
15172TIP3    H267008   0.327   6.490   4.134 -1.1860  1.1917 -1.9535
15173TIP3   OH267009   3.270   3.100  11.301 -0.1414  0.4979  0.9452
15173TIP3    H167010   3.309   3.188  11.307  0.8610  0.2110 -0.6906
15173TIP3    H267011   3.297   3.056  11.381 -0.5136  1.6148  1.7095
15174TIP3   OH267012   1.704   5.418  14.418  0.3735  0.2033  0.3485
15174TIP3    H167013   1.661   5.503  14.427  1.4124  0.5157  3.8581
15174TIP3    H267014   1.796   5.436  14.432  0.7543 -1.3867  0.0943
15175TIP3   OH267015   4.868   5.803  13.525 -0.7357 -0.6805 -0.4916
15175TIP3    H167016   4.897   5.874  13.467 -0.9235 -0.3232 -0.1498
15175TIP3    H267017   4.873   5.725  13.470  0.2089 -0.5270 -0.6501
15176TIP3   OH267018   5.632   1.525   3.109  0.0735 -0.3493  0.4279
15176TIP3    H167019   5.608   1.512   3.201  0.3741  0.2949  0.6101
15176TIP3    H267020   5.678   1.445   3.084  0.0202 -0.5143  0.8537
15177TIP3   OH267021   6.101   0.606   1.163  0.0676  0.2014 -0.0097
15177TIP3    H167022   6.183   0.609   1.211 -0.3502 -2.3139  1.0248
15177TIP3    H267023   6.108   0.528   1.107 -0.7795  1.1660 -1.5327
15178TIP3   OH267024   0.831   4.142   0.782 -0.4172 -0.0847 -0.2637
15178TIP3    H167025   0.882   4.217   0.750 -2.1530  0.1719 -2.6994
15178TIP3    H267026   0.836   4.078   0.712 -0.8374 -1.3526  0.8290
15179TIP3   OH267027   5.324   4.207   0.967 -0.4501  0.2265 -0.2044
15179TIP3    H167028   5.302   4.174   0.880  1.5593 -0.7394 -0.4139
15179TIP3    H267029   5.258   4.168   1.025 -0.3570 -1.1766 -0.9846
15180TIP3   OH267030   6.110   0.748   1.850 -0.0097  0.4003  0.1441
15180TIP3    H167031   6.137   0.760   1.941  0.2102 -0.6986  0.2449
15180TIP3    H267032   6.026   0.702   1.856  0.8360 -1.2746 -0.1842
15181TIP3   OH267033   0.863   4.810  10.378 -0.0980 -1.1397 -0.0284
15181TIP3    H167034   0.885   4.901  10.356 -0.2229 -0.7890  1.2035
15181TIP3    H267035   0.903   4.758  10.308  1.6463 -0.2748  0.2701
15182TIP3   OH267036   3.077   2.564   1.153 -0.2511 -0.7247  0.3821
15182TIP3    H167037   3.095   2.494   1.090  1.2336 -1.3256  1.4260
15182TIP3    H267038   3.130   2.638   1.123  0.0514 -0.8408  0.6279
15183TIP3   OH267039   3.667   6.050   0.704  0.3213  0.4421  0.3996
15183TIP3    H167040   3.661   6.037   0.610  0.4163 -2.3704  0.6941
15183TIP3    H267041   3.584   6.017   0.738 -0.8336  3.8074  1.2062
15184TIP3   OH267042   4.042   4.065  12.545  0.3837 -0.2060  0.4247
15184TIP3    H167043   3.998   4.004  12.486  1.4399  0.1731 -0.8119
15184TIP3    H267044   4.022   4.033  12.633 -1.7890 -0.4170 -0.0830
15185TIP3   OH267045   2.267   0.792  13.436  0.1250  0.0282  0.2598
15185TIP3    H167046   2.318   0.780  13.355  0.4568 -0.1041  0.4873
15185TIP3    H267047   2.176   0.775  13.409  0.1389  0.7011 -0.2454
15186TIP3   OH267048   0.227   5.522   6.598  0.2562 -0.2934  0.1217
15186TIP3    H167049   0.300   5.498   6.541  1.3070  0.6686  1.0027
15186TIP3    H267050   0.269   5.549   6.680 -1.2026 -1.8319  1.4565
15187TIP3   OH267051   0.499   3.305  13.718  0.6599 -0.1986  0.5025
15187TIP3    H167052   0.588   3.325  13.689  1.8465 -1.9852  2.6141
15187TIP3    H267053   0.484   3.216  13.688 -0.7133  0.2909 -0.3542
15188TIP3   OH267054   1.312   1.735   2.565 -0.0028  0.5170 -0.4397
15188TIP3    H167055   1.295   1.761   2.474  0.6926  0.9775 -0.4433
15188TIP3    H267056   1.226   1.738   2.607 -0.1867  1.2425 -0.8467
15189TIP3   OH267057   4.555   1.747  16.841  0.1968 -0.0612 -0.7725
15189TIP3    H167058   4.648   1.746  16.865  0.4993  3.0856 -1.3918
15189TIP3    H267059   4.553   1.788  16.754 -1.8258  0.8506 -0.3462
15190TIP3   OH267060   6.374   1.412  10.858  0.1433  0.1722 -0.2131
15190TIP3    H167061   6.426   1.479  10.904  0.4206 -0.3833  0.2873
15190TIP3    H267062   6.363   1.342  10.922  0.1313 -0.4035 -0.8422
15191TIP3   OH267063   3.099   6.018  16.240 -0.5232 -0.3979 -0.1601
15191TIP3    H167064   3.088   6.112  16.249  1.3439 -0.1053 -0.6076
15191TIP3    H267065   3.173   6.007  16.180  0.6097 -2.1159  1.4342
15192TIP3   OH267066   3.483   4.842  11.681 -0.4764 -0.4555 -0.2622
15192TIP3    H167067   3.446   4.769  11.730 -0.3130 -0.5179 -0.2282
15192TIP3    H267068   3.569   4.856  11.722 -0.6704  0.0061 -0.0152
15193TIP3   OH267069   5.742   4.111   5.484 -0.3090  0.1715 -0.3031
15193TIP3    H167070   5.711   4.169   5.414  1.1483 -0.4599 -1.5234
15193TIP3    H267071   5.837   4.109   5.473 -0.2773 -2.0795 -0.0197
15194TIP3   OH267072   2.768   2.664  10.415 -0.1353 -0.4047 -0.1521
15194TIP3    H167073   2.676   2.691  10.413 -0.2658 -0.4846  2.0127
15194TIP3    H267074   2.812   2.732  10.466  1.0456 -0.3505 -1.1848
15195TIP3   OH267075   2.133   3.186  10.231 -0.1610 -0.5111 -0.2402
15195TIP3    H167076   2.206   3.244  10.210  0.4903 -1.6382 -1.2889
15195TIP3    H267077   2.056   3.242  10.230  0.5519  0.4950 -0.3015
15196TIP3   OH267078   4.964   2.848  14.567 -0.1641  0.4452 -1.0640
15196TIP3    H167079   5.023   2.915  14.601  1.9504 -2.1983  0.9460
15196TIP3    H267080   4.914   2.819  14.643  0.3677 -1.5306 -1.4108
15197TIP3   OH267081   3.362   0.195  16.054  0.1467  0.3966  0.8115
15197TIP3    H167082   3.341   0.115  16.006  1.1525  0.2913  0.5101
15197TIP3    H267083   3.292   0.204  16.118  0.0341 -0.7392  0.8674
15198TIP3   OH267084   6.196   4.611   4.269  0.0896  0.0324  0.7278
15198TIP3    H167085   6.216   4.526   4.309  0.0330 -0.7515 -0.8499
15198TIP3    H267086   6.268   4.628   4.209 -1.1265 -0.1198 -0.8253
15199TIP3   OH267087   3.793   4.306   0.040  0.1467 -0.0361 -0.2581
15199TIP3    H167088   3.701   4.279   0.044  0.3477 -0.7185  0.0231
15199TIP3    H267089   3.827   4.287   0.128  0.5732  0.1358 -0.3854
15200TIP3   OH267090   4.092   5.083   6.117 -0.1925 -0.5384 -0.3539
15200TIP3    H167091   4.159   5.130   6.067 -0.1125 -2.0995 -1.8123
15200TIP3    H267092   4.122   4.992   6.116 -1.6128 -1.0352  0.2190
15201TIP3   OH267093   5.301   6.075   3.183  0.9768  0.2825  0.6597
15201TIP3    H167094   5.384   6.082   3.231  1.9135  1.4591 -1.0109
15201TIP3    H267095   5.266   6.164   3.183 -0.0516 -0.1137  0.9291
15202TIP3   OH267096   3.584   2.966   3.798 -0.0047 -0.3249 -0.1035
15202TIP3    H167097   3.500   2.994   3.836 -0.0597 -0.3240 -0.2256
15202TIP3    H267098   3.646   3.032   3.829  0.3446 -1.4014  1.6294
15203TIP3   OH267099   4.972   3.014   3.480  0.3114  0.0995 -0.0820
15203TIP3    H167100   5.009   3.069   3.411  3.3146  0.2528  1.4479
15203TIP3    H267101   4.949   2.932   3.436  0.6388  0.7516 -1.5352
15204TIP3   OH267102   6.141   6.402  11.597 -0.1309 -0.3527 -0.4186
15204TIP3    H167103   6.075   6.460  11.558  0.1051  0.3630  0.2361
15204TIP3    H267104   6.169   6.446  11.677 -0.0627 -1.4552  0.1852
15205TIP3   OH267105   2.272   5.750   6.160  0.0890  0.6130 -0.1294
15205TIP3    H167106   2.250   5.833   6.202  0.3739  1.4710 -1.5895
15205TIP3    H267107   2.187   5.713   6.136 -0.0085  1.1018 -0.5748
15206TIP3   OH267108   0.269   6.743  14.880 -0.1228 -0.3416  0.3296
15206TIP3    H167109   0.201   6.709  14.821  0.2491 -0.7141  0.1090
15206TIP3    H267110   0.331   6.787  14.822 -0.9124  1.2890  0.6699
15207TIP3   OH267111   1.388   3.931   0.295  0.6089  0.5857 -0.2842
15207TIP3    H167112   1.476   3.905   0.268  0.1889  0.3201 -1.4796
15207TIP3    H267113   1.343   3.953   0.213 -0.7510 -0.2539  0.1923
15208TIP3   OH267114   1.156   3.379  11.188  0.0055 -0.1265 -0.0776
15208TIP3    H167115   1.224   3.372  11.121 -0.3743 -0.8934 -0.3956
15208TIP3    H267116   1.150   3.291  11.225  1.0966  0.5541  1.8627
15209TIP3   OH267117   3.225   5.955   1.171  0.2101  0.1783  0.2034
15209TIP3    H167118   3.139   5.931   1.207  0.4397  0.0359  0.6592
15209TIP3    H267119   3.286   5.937   1.242  0.9079 -1.8531 -0.8297
15210TIP3   OH267120   5.466   0.763  12.764 -0.1453 -0.0741 -0.0116
15210TIP3    H167121   5.405   0.713  12.709  1.4737 -3.3237  0.9014
15210TIP3    H267122   5.412   0.796  12.836 -1.7707  2.0097 -2.0036
15211TIP3   OH267123   1.812   1.537   3.240  0.4711 -0.2294  0.5770
15211TIP3    H167124   1.907   1.528   3.242  0.4550 -0.6254 -0.1962
15211TIP3    H267125   1.797   1.628   3.212  0.6289 -0.4550 -0.2736
15212TIP3   OH267126   3.519   6.246  15.161  0.2209  0.0938 -0.5421
15212TIP3    H167127   3.519   6.337  15.132 -1.1328  0.2395 -0.1718
15212TIP3    H267128   3.609   6.216  15.147  0.2805  0.9616 -2.3012
15213TIP3   OH267129   5.017   0.700   5.428  0.6062  0.1212  0.1545
15213TIP3    H167130   4.926   0.717   5.455  0.3755  0.9425 -1.0785
15213TIP3    H267131   5.065   0.778   5.454  0.7906  0.0419  0.0541
15214TIP3   OH267132   6.209   2.980   4.044  0.0641 -0.0785  0.0772
15214TIP3    H167133   6.245   3.045   3.984  0.1286 -0.7386 -0.6223
15214TIP3    H267134   6.186   3.029   4.123 -1.3725  1.0774 -0.9988
15215TIP3   OH267135   4.399   0.505  13.682 -0.1530 -0.1080  0.6845
15215TIP3    H167136   4.382   0.452  13.759  0.0467 -0.1020  0.7344
15215TIP3    H267137   4.492   0.530  13.689 -0.9135  2.7260  2.2078
15216TIP3   OH267138   3.283   5.509   2.715 -0.2289  0.1832 -0.3794
15216TIP3    H167139   3.222   5.508   2.789 -1.0914 -0.3163 -1.0805
15216TIP3    H267140   3.351   5.446   2.738  0.0099  0.7068  0.3873
15217TIP3   OH267141   2.528   1.918   0.029  0.0370  0.0845 -0.4334
15217TIP3    H167142   2.571   1.857  -0.031 -0.5371 -1.8444  1.0118
15217TIP3    H267143   2.435   1.914   0.005 -0.0802 -0.0833  0.0319
15218TIP3   OH267144   1.696   5.980   2.586  1.0541  0.0890  0.3674
15218TIP3    H167145   1.699   5.887   2.608  3.3554  0.3980  1.7719
15218TIP3    H267146   1.776   5.996   2.535  1.3695  1.4909  1.2251
15219TIP3   OH267147   1.942   2.316   4.904  0.3053  0.1294  0.5595
15219TIP3    H167148   2.020   2.361   4.874  0.5295 -0.0936  0.8004
15219TIP3    H267149   1.936   2.337   4.997  1.7168 -2.1491  1.2582
15220TIP3   OH267150   3.665   4.315  13.587  0.1592  0.2424  0.0714
15220TIP3    H167151   3.686   4.285  13.675 -4.0130 -0.3766  1.0338
15220TIP3    H267152   3.606   4.389  13.599 -1.3615 -0.4963 -2.1374
15221TIP3   OH267153   1.510   0.536   4.504 -0.2109 -0.1621  0.4794
15221TIP3    H167154   1.562   0.534   4.424  0.8020 -1.7071  1.1391
15221TIP3    H267155   1.545   0.610   4.553 -0.6065  0.5816 -0.3287
15222TIP3   OH267156   5.243   0.264   1.553  0.0065 -0.0179  0.5028
15222TIP3    H167157   5.334   0.261   1.582  0.4492 -1.5497 -0.8534
15222TIP3    H267158   5.228   0.178   1.512 -1.6065  0.7039 -0.5482
15223TIP3   OH267159   5.228   5.918   6.317 -0.1331  0.4901 -0.2304
15223TIP3    H167160   5.313   5.956   6.335  0.0635 -0.0960  0.1200
15223TIP3    H267161   5.199   5.959   6.236  0.4947  0.6696 -0.3644
15224TIP3   OH267162   5.028   0.486   4.607  0.0984 -0.5555 -0.0813
15224TIP3    H167163   4.951   0.533   4.641  0.4948  0.7179 -0.8889
15224TIP3    H267164   5.043   0.523   4.520  3.1252  1.1029  0.9931
15225TIP3   OH267165   4.042   3.386  14.396  0.2903 -0.1468 -0.2763
15225TIP3    H167166   3.957   3.341  14.394 -0.0499  0.4470  0.4641
15225TIP3    H267167   4.020   3.477  14.414  1.1516 -0.1805  1.0350
15226TIP3   OH267168   1.260   1.280  16.389 -0.6812  0.0239 -0.0829
15226TIP3    H167169   1.310   1.253  16.312 -0.2888  1.1575 -0.2513
15226TIP3    H267170   1.182   1.225  16.388 -1.1055  0.5936 -1.7861
15227TIP3   OH267171   3.164   0.650  14.371  0.5570 -0.0129  0.1336
15227TIP3    H167172   3.196   0.616  14.455 -1.4124 -2.0399  0.1668
15227TIP3    H267173   3.210   0.599  14.305  0.4418 -0.0162  0.0560
15228TIP3   OH267174   5.647   3.991  13.087 -0.7380  0.1695 -0.4627
15228TIP3    H167175   5.611   3.949  13.008  0.2468  0.5274 -1.1127
15228TIP3    H267176   5.739   3.964  13.089 -1.0610 -0.9756  1.3400
15229TIP3   OH267177   1.721   3.024  15.497  0.1702 -0.2240  0.2413
15229TIP3    H167178   1.816   3.037  15.502  0.5626 -2.3561 -0.3718
15229TIP3    H267179   1.707   2.986  15.410 -1.3148  0.4767  0.1574
15230TIP3   OH267180   1.217   1.005  14.918  0.4011 -0.1347 -0.5567
15230TIP3    H167181   1.226   1.092  14.880  0.2148  0.7855  1.3968
15230TIP3    H267182   1.123   0.996  14.936  0.5105 -0.4472 -0.1185
15231TIP3   OH267183   3.255   3.222  11.667 -0.3486  0.0539 -0.0949
15231TIP3    H167184   3.302   3.267  11.737 -1.4818 -0.7754  1.2533
15231TIP3    H267185   3.184   3.281  11.642 -1.1363 -0.4650  0.8640
15232TIP3   OH267186   2.576   4.202  14.100  0.1600  0.4815  0.3730
15232TIP3    H167187   2.578   4.111  14.071  0.8724  0.9393 -1.1017
15232TIP3    H267188   2.630   4.204  14.179  2.5585  0.1082 -1.1595
15233TIP3   OH267189   4.767   6.207   5.369 -0.7266  0.3544  0.2907
15233TIP3    H167190   4.821   6.280   5.339 -1.5476  0.1411 -1.8804
15233TIP3    H267191   4.773   6.211   5.465  0.9339  1.9548  0.1812
15234TIP3   OH267192   2.164   5.879  16.245 -0.0663 -0.8278  0.1303
15234TIP3    H167193   2.080   5.861  16.286 -0.9681 -2.8922 -2.3469
15234TIP3    H267194   2.220   5.908  16.317 -2.9090  0.9631  1.8260
15235TIP3   OH267195   4.799   0.107  14.937 -0.1785  0.5203  0.2442
15235TIP3    H167196   4.725   0.060  14.898  0.0076 -0.3702  0.9147
15235TIP3    H267197   4.761   0.186  14.975 -0.7087  0.3055  0.1627
15236TIP3   OH267198   1.712   4.325  11.848 -0.3462 -0.3194  0.6376
15236TIP3    H167199   1.726   4.232  11.829  1.7816 -0.5100  2.5952
15236TIP3    H267200   1.638   4.327  11.909  1.2338 -1.1174  2.7187
15237TIP3   OH267201   0.891   0.164  12.974  0.4915  0.2376  0.5243
15237TIP3    H167202   0.882   0.143  12.881  1.9945  2.0691 -0.0970
15237TIP3    H267203   0.872   0.258  12.979  0.4424  0.1644  2.0745
15238TIP3   OH267204   2.581   0.242  14.691  0.6674  0.2460  0.1945
15238TIP3    H167205   2.548   0.273  14.776 -0.5890 -2.8285  0.9746
15238TIP3    H267206   2.674   0.225  14.706  0.0868 -2.1638  1.7141
15239TIP3   OH267207   4.437   5.008  14.572  0.7432 -0.0903 -0.2000
15239TIP3    H167208   4.506   4.948  14.544  0.5956  0.0017 -0.7725
15239TIP3    H267209   4.432   5.074  14.502 -1.9700 -1.7475 -1.7386
15240TIP3   OH267210   4.089   1.839  15.386  0.5970  0.0355 -0.0139
15240TIP3    H167211   4.146   1.786  15.330 -0.6383  0.5026 -1.7916
15240TIP3    H267212   4.150   1.893  15.437  1.7974 -1.3972  0.1450
15241TIP3   OH267213   5.142   4.817   2.285  0.0548  0.1766  0.0917
15241TIP3    H167214   5.050   4.804   2.264 -0.0905  2.0446 -0.6148
15241TIP3    H267215   5.143   4.892   2.344  1.2708  2.3430 -2.4524
15242TIP3   OH267216   5.332   6.687  10.349 -0.1102  0.1823  0.0537
15242TIP3    H167217   5.293   6.770  10.374  1.7864  1.1964 -0.1707
15242TIP3    H267218   5.401   6.672  10.414 -0.6101 -1.3780  0.2699
15243TIP3   OH267219   1.621   5.588  16.074 -0.0370 -0.1742  0.1194
15243TIP3    H167220   1.687   5.656  16.079 -0.1203 -0.0112 -0.8429
15243TIP3    H267221   1.668   5.507  16.094  0.0420  0.1561  1.3645
15244TIP3   OH267222   4.745   6.500   6.212  0.1370 -0.5235  0.2691
15244TIP3    H167223   4.687   6.476   6.140 -1.9000  1.1295  1.2309
15244TIP3    H267224   4.816   6.549   6.171 -1.4107  1.0922 -0.6002
15245TIP3   OH267225   1.258   6.317   2.196 -0.1562 -0.1701 -0.6405
15245TIP3    H167226   1.230   6.407   2.212  0.3898  0.1568 -1.4786
15245TIP3    H267227   1.290   6.286   2.281 -2.2357 -0.2816  0.1582
15246TIP3   OH267228   4.462   1.257   5.428  0.0968  0.8321 -0.6263
15246TIP3    H167229   4.432   1.256   5.337  1.5552 -0.2035 -1.1302
15246TIP3    H267230   4.392   1.301   5.476 -1.5630 -0.2707 -1.9387
15247TIP3   OH267231   0.067   1.136  13.674 -0.1306  0.1102 -0.5809
15247TIP3    H167232   0.052   1.042  13.688  0.5958  0.2001  1.0558
15247TIP3    H267233   0.162   1.144  13.665 -0.2952  0.5309 -2.3240
15248TIP3   OH267234   5.370   1.329   5.349  0.1382 -0.4355 -0.0230
15248TIP3    H167235   5.308   1.398   5.373  0.5895  0.5773 -1.5828
15248TIP3    H267236   5.386   1.282   5.430 -1.7780 -0.0116  0.6668
15249TIP3   OH267237   4.895   3.954  14.927 -0.4955  0.0883  0.1752
15249TIP3    H167238   4.931   3.869  14.952 -0.2363  0.3906  0.8677
15249TIP3    H267239   4.885   3.949  14.832  1.9960  0.1952 -0.1808
15250TIP3   OH267240   5.728   2.101  12.817  0.0553  0.1578  0.6627
15250TIP3    H167241   5.693   2.137  12.899 -0.9723  1.3902 -0.2777
15250TIP3    H267242   5.795   2.164  12.791 -1.0449  0.9004 -0.4713
15251TIP3   OH267243   4.049   5.320   5.824 -0.4542 -0.4517  0.0269
15251TIP3    H167244   4.114   5.380   5.789  0.9843 -1.8156  0.2511
15251TIP3    H267245   4.094   5.235   5.828 -2.5144 -1.6473 -0.6471
15252TIP3   OH267246   2.561   4.766  12.232  0.3183  0.5350 -0.0007
15252TIP3    H167247   2.623   4.695  12.246 -1.1629 -1.2412 -1.7945
15252TIP3    H267248   2.485   4.742  12.285  0.3438  1.5598  0.5190
15253TIP3   OH267249   6.264   3.881   0.906  0.2848  0.1950  0.4249
15253TIP3    H167250   6.243   3.892   0.999  0.6016  0.3884  0.4791
15253TIP3    H267251   6.356   3.854   0.906  0.0778 -0.5157  0.1940
15254TIP3   OH267252   4.326   6.356  13.415  0.1580  0.0805 -0.0112
15254TIP3    H167253   4.301   6.397  13.498 -0.0795 -1.0740  0.5097
15254TIP3    H267254   4.248   6.363  13.360  0.2188  0.5809 -0.0390
15255TIP3   OH267255   0.840   3.000  10.985  0.1794  0.2302 -0.5272
15255TIP3    H167256   0.879   2.918  11.014  0.5696  1.0065  1.2484
15255TIP3    H267257   0.746   2.981  10.977  0.4537 -0.7832 -1.7063
15256TIP3   OH267258   6.230   1.910   4.336 -0.8801 -0.1508 -0.4222
15256TIP3    H167259   6.195   1.990   4.296 -2.0676  0.9113  2.4868
15256TIP3    H267260   6.158   1.847   4.332 -1.2602  0.2022  0.6403
15257TIP3   OH267261   2.585   3.098   2.433 -0.3904 -0.0962  0.5670
15257TIP3    H167262   2.592   3.035   2.505 -1.8099  0.8861  1.6274
15257TIP3    H267263   2.507   3.149   2.454  0.5993  1.8883 -0.3764
15258TIP3   OH267264   1.340   2.023   1.214  0.2265  0.2624  0.0848
15258TIP3    H167265   1.265   1.984   1.259  0.0164 -0.1266 -0.5818
15258TIP3    H267266   1.383   2.076   1.280  1.8020 -2.7669  1.6692
15259TIP3   OH267267   0.646   6.033  13.854  0.3098 -0.0868  0.8057
15259TIP3    H167268   0.728   6.055  13.811 -0.4688  0.0344 -0.6699
15259TIP3    H267269   0.599   5.979  13.790 -0.1872 -1.3427  2.1607
15260TIP3   OH267270   5.877   4.112   2.493 -0.0406 -0.1402  0.8644
15260TIP3    H167271   5.884   4.165   2.572 -0.5711 -0.7174  1.3101
15260TIP3    H267272   5.783   4.100   2.479  0.0113  0.6241 -0.3232
15261TIP3   OH267273   3.795   4.496   6.053 -0.0280 -0.1968  0.4589
15261TIP3    H167274   3.782   4.519   6.145  2.0821 -0.6809  0.9362
15261TIP3    H267275   3.794   4.401   6.051 -3.4475 -0.2493 -0.6487
15262TIP3   OH267276   1.484   3.578   1.726 -0.0390 -0.2048 -0.2738
15262TIP3    H167277   1.515   3.633   1.798  1.2037 -3.3520  1.7826
15262TIP3    H267278   1.417   3.522   1.766  0.4224 -1.7941 -1.6513
15263TIP3   OH267279   1.290   4.372   5.824  0.5148 -0.1526 -0.2942
15263TIP3    H167280   1.257   4.439   5.885 -0.1877  0.7959 -1.6384
15263TIP3    H267281   1.246   4.291   5.851  1.8746 -0.2619  1.7717
15264TIP3   OH267282   5.269   6.223   0.110  0.4038 -0.1621 -0.4407
15264TIP3    H167283   5.190   6.235   0.057  1.4496 -0.7288 -2.2350
15264TIP3    H267284   5.340   6.253   0.053  1.4732  0.6927  1.2655
15265TIP3   OH267285   4.792   5.090   2.440  0.1623 -0.3391 -0.3780
15265TIP3    H167286   4.823   5.172   2.402 -0.0179 -0.3494 -0.5455
15265TIP3    H267287   4.784   5.030   2.366 -0.0151 -0.4114 -0.3002
15266TIP3   OH267288   0.091   2.411  13.752  0.1443 -0.0933 -0.8950
15266TIP3    H167289   0.112   2.492  13.706  0.2403 -1.5705 -3.6812
15266TIP3    H267290   0.172   2.387  13.797  0.5559  0.6347 -1.2429
15267TIP3   OH267291   3.766   0.674   3.119 -0.6564  0.6424 -0.4084
15267TIP3    H167292   3.794   0.742   3.180  1.9387 -1.8934  1.4728
15267TIP3    H267293   3.843   0.657   3.065 -0.3936 -2.2861  0.7243
15268TIP3   OH267294   3.952   4.177   1.640  0.4311  0.8204 -0.0364
15268TIP3    H167295   3.882   4.121   1.606  0.8203 -0.3324  0.9729
15268TIP3    H267296   3.978   4.136   1.723  0.8831  2.3907  0.6548
15269TIP3   OH267297   2.417   6.734  11.805  0.3122  0.1854 -0.1148
15269TIP3    H167298   2.472   6.809  11.781 -0.4402  0.2241 -1.8618
15269TIP3    H267299   2.479   6.667  11.833  1.0187  1.3355  1.1916
15270TIP3   OH267300   1.479   5.205   2.300 -0.0025 -0.4927 -0.0903
15270TIP3    H167301   1.453   5.253   2.378  1.2896  0.8537 -0.4354
15270TIP3    H267302   1.541   5.140   2.330  0.8631  0.3413 -0.0253
15271TIP3   OH267303   1.144   2.654  11.355  0.2240  0.1297 -0.4035
15271TIP3    H167304   1.217   2.594  11.343  1.0039  0.5606  1.7057
15271TIP3    H267305   1.070   2.597  11.376  1.1702 -0.1909  2.5505
15272TIP3   OH267306   4.004   3.971  16.475  0.2498 -0.5295 -0.1572
15272TIP3    H167307   4.087   4.010  16.447  0.0376 -0.3669 -0.5820
15272TIP3    H267308   3.988   4.009  16.561 -1.8387  3.4312 -2.0082
15273TIP3   OH267309   5.942   0.407   6.291 -0.0567  0.6082  0.4744
15273TIP3    H167310   5.956   0.318   6.324 -3.5126 -0.0151  0.5916
15273TIP3    H267311   5.911   0.395   6.201  0.1677  1.7473  0.2314
15274TIP3   OH267312   6.524   3.155  12.045 -0.5548  0.0124  0.2817
15274TIP3    H167313   6.566   3.076  12.078 -0.9383  0.1975  1.2294
15274TIP3    H267314   6.539   3.222  12.112  0.7348  1.0798 -1.0116
15275TIP3   OH267315   4.366   4.341  13.795 -0.9706  0.0270  0.1402
15275TIP3    H167316   4.402   4.406  13.856  2.3465 -0.2406 -1.2851
15275TIP3    H267317   4.368   4.259  13.844 -1.5952  0.3759  0.7537
15276TIP3   OH267318   0.925   5.378   5.580 -0.2420 -0.1986 -0.3017
15276TIP3    H167319   0.926   5.299   5.633  0.6714  0.0237  0.0226
15276TIP3    H267320   0.853   5.430   5.616 -0.7915 -0.8371 -0.4627
15277TIP3   OH267321   2.626   3.328   5.140  0.3053 -0.5250 -0.1234
15277TIP3    H167322   2.642   3.418   5.111 -1.0561 -0.5611 -1.0414
15277TIP3    H267323   2.691   3.314   5.209 -0.1773  1.5542  0.8300
15278TIP3   OH267324   0.776   4.235   4.555  0.1365  0.3489 -0.0935
15278TIP3    H167325   0.723   4.211   4.631  0.8756  1.3612  0.7805
15278TIP3    H267326   0.786   4.154   4.506  0.4038 -0.5455  1.3766
15279TIP3   OH267327   3.107   3.927  15.134 -0.3341  0.5025 -0.1838
15279TIP3    H167328   3.118   3.835  15.110 -1.8220  0.2103  0.1848
15279TIP3    H267329   3.163   3.939  15.211  0.1614  0.0243 -0.4635
15280TIP3   OH267330   3.825   6.800   1.373  0.0759  0.0647 -0.6844
15280TIP3    H167331   3.746   6.751   1.393  0.8689 -1.1677 -0.4778
15280TIP3    H267332   3.858   6.760   1.292 -1.3665  2.8813 -2.8860
15281TIP3   OH267333   6.642   0.807   0.375  0.3525  0.3957  0.2224
15281TIP3    H167334   6.675   0.819   0.464  0.6396  1.2273  0.0159
15281TIP3    H267335   6.672   0.885   0.327 -1.4831  0.9697 -0.1006
15282TIP3   OH267336   1.239   4.717   0.470  0.0906  0.2204  0.1740
15282TIP3    H167337   1.239   4.811   0.451  2.0522 -0.0920 -1.7911
15282TIP3    H267338   1.306   4.707   0.539 -1.0248  0.3692  1.3131
15283TIP3   OH267339   6.383   1.054  12.364  0.1502 -0.1851  0.4101
15283TIP3    H167340   6.382   1.041  12.459  0.6435 -1.2126  0.2851
15283TIP3    H267341   6.351   1.143  12.352  0.2852  0.0342  1.5554
15284TIP3   OH267342   3.590   1.200   2.723  0.1703 -0.0943 -0.5763
15284TIP3    H167343   3.534   1.256   2.777  0.5869  0.2229 -0.4600
15284TIP3    H267344   3.570   1.226   2.633  1.0809  0.9749 -0.4944
15285TIP3   OH267345   5.870   2.597   3.753  0.3478  0.2261  0.1133
15285TIP3    H167346   5.964   2.612   3.763  0.0745  0.7848  2.3005
15285TIP3    H267347   5.864   2.535   3.680  2.2887  1.3677 -1.0972
15286TIP3   OH267348   5.105   1.709  15.432  0.5774 -0.5219  0.3471
15286TIP3    H167349   5.108   1.769  15.357  0.1101 -1.2125 -0.2476
15286TIP3    H267350   5.170   1.642  15.411  1.4726  0.0411  1.2578
15287TIP3   OH267351   3.498   5.830  15.709  0.5041 -0.0242  0.0886
15287TIP3    H167352   3.538   5.802  15.791  0.3186 -0.2901  0.0908
15287TIP3    H267353   3.422   5.882  15.736  0.0510 -0.6650  0.0996
15288TIP3   OH267354   6.031   5.428   3.639  0.5212  0.4188  0.0468
15288TIP3    H167355   6.046   5.341   3.676 -0.7761 -0.0269 -0.4393
15288TIP3    H267356   6.084   5.430   3.559  2.6978  1.0973  1.3887
15289TIP3   OH267357   5.321   2.484   3.827  0.3451  0.3518  0.1162
15289TIP3    H167358   5.342   2.558   3.769  1.1098 -0.1987 -0.3247
15289TIP3    H267359   5.227   2.470   3.814  0.2601  1.0121 -0.0671
15290TIP3   OH267360   3.191   6.474   5.668 -0.3992 -0.0584  0.0553
15290TIP3    H167361   3.204   6.506   5.757  2.5255 -1.2363  0.1577
15290TIP3    H267362   3.276   6.486   5.625 -0.9290 -1.9953 -1.7247
15291TIP3   OH267363   1.745   2.737   3.027 -0.5998 -0.3900 -0.3535
15291TIP3    H167364   1.830   2.707   2.993  0.2961  0.4755  1.0343
15291TIP3    H267365   1.718   2.668   3.087  0.4379  0.5093  1.2178
15292TIP3   OH267366   2.019   6.535  14.276  0.3020 -0.3562  0.1916
15292TIP3    H167367   1.993   6.497  14.192 -0.1630 -1.5049  0.8334
15292TIP3    H267368   2.105   6.496  14.294  0.1666 -0.5145  0.4953
15293TIP3   OH267369   4.201   5.674   5.461 -0.1044 -0.2167 -0.1412
15293TIP3    H167370   4.189   5.767   5.477  1.8154 -0.2338  1.7493
15293TIP3    H267371   4.188   5.664   5.367 -0.1725  1.9751 -0.4159
15294TIP3   OH267372   2.508   1.123  12.466  0.2939 -0.0713 -0.2934
15294TIP3    H167373   2.414   1.128  12.450  0.4287  2.3881 -0.6717
15294TIP3    H267374   2.522   1.033  12.495 -2.0160 -0.7675 -1.0852
15295TIP3   OH267375   2.941   2.313   6.131 -0.2074 -0.4338  0.7317
15295TIP3    H167376   3.007   2.277   6.072 -0.4348 -3.2683  2.0327
15295TIP3    H267377   2.984   2.390   6.171  1.1795 -0.4809 -0.5682
15296TIP3   OH267378   1.859   2.275  16.593 -0.2930 -0.9369  0.2926
15296TIP3    H167379   1.952   2.260  16.610 -0.2304  1.3680  2.5524
15296TIP3    H267380   1.815   2.250  16.674 -1.4786 -0.7372 -0.2716
15297TIP3   OH267381   1.968   1.811  15.941  0.9636  0.1861  0.6883
15297TIP3    H167382   1.950   1.746  16.010  0.5758  2.0832  2.4668
15297TIP3    H267383   2.056   1.788  15.910  0.6900 -1.3981  0.9837
15298TIP3   OH267384   0.891   5.521  16.627 -0.4826 -0.4616  0.1633
15298TIP3    H167385   0.885   5.606  16.583 -0.1925 -0.2044  0.6119
15298TIP3    H267386   0.915   5.542  16.718  1.4086 -1.0880 -0.1340
15299TIP3   OH267387   4.986   0.232   0.085  0.0089 -0.3499  0.4579
15299TIP3    H167388   4.911   0.276   0.045  0.1785 -0.0659  0.4456
15299TIP3    H267389   4.988   0.145   0.044 -0.8416 -0.6907  1.1132
15300TIP3   OH267390   2.183   3.554   0.430  0.3725  0.1622 -0.0118
15300TIP3    H167391   2.155   3.519   0.345  2.6595  0.6606 -1.0483
15300TIP3    H267392   2.101   3.576   0.475 -0.9357 -0.9606 -1.7009
15301TIP3   OH267393   4.957   0.908  15.187  0.7255 -0.6136 -0.1198
15301TIP3    H167394   4.873   0.883  15.227  1.2342 -1.6948  0.2940
15301TIP3    H267395   4.936   0.921  15.095 -0.6080  2.5746  0.5058
15302TIP3   OH267396   4.809   2.488  16.372  0.0837  0.0739 -0.1419
15302TIP3    H167397   4.771   2.449  16.450  1.1331 -2.3536 -0.7486
15302TIP3    H267398   4.883   2.540  16.404  1.0577 -1.6195  0.4746
15303TIP3   OH267399   3.741   4.079   2.453 -0.1368  0.4795 -0.1268
15303TIP3    H167400   3.692   4.134   2.514 -0.6051  0.7887 -0.7653
15303TIP3    H267401   3.765   4.138   2.382  0.4401  0.1363 -0.2217
15304TIP3   OH267402   4.841   0.127   1.671  0.1140  0.0526 -0.5138
15304TIP3    H167403   4.775   0.149   1.737 -0.4994 -0.4735 -0.9331
15304TIP3    H267404   4.896   0.060   1.712 -0.7725 -0.8806 -0.8100
15305TIP3   OH267405   6.414   2.223   3.393 -0.0713 -0.8653  0.4969
15305TIP3    H167406   6.355   2.215   3.468  0.2636 -2.6961  0.6003
15305TIP3    H267407   6.358   2.212   3.316 -0.0845 -1.1837  0.5515
15306TIP3   OH267408   5.781   1.740  13.892 -0.1636  0.4922  0.0054
15306TIP3    H167409   5.783   1.687  13.812 -0.4016 -0.6611  0.7321
15306TIP3    H267410   5.868   1.779  13.897  1.0069 -2.0184  0.8392
15307TIP3   OH267411   2.971   6.602  13.423 -0.3658 -0.6221 -0.0101
15307TIP3    H167412   2.968   6.673  13.487  0.6610 -1.3936  0.9395
15307TIP3    H267413   3.035   6.629  13.358 -1.9728  0.5114 -1.1856
15308TIP3   OH267414   6.518   5.147  11.440 -0.3880 -0.3960 -0.0816
15308TIP3    H167415   6.492   5.195  11.361 -0.1608 -1.1353 -0.6259
15308TIP3    H267416   6.560   5.068  11.406 -0.6451 -0.9180  0.7875
15309TIP3   OH267417   1.086   6.729   1.721  0.0580  0.1792 -0.0994
15309TIP3    H167418   1.081   6.660   1.787  1.3780 -2.2261 -2.3307
15309TIP3    H267419   1.030   6.698   1.650 -0.6834  2.3053 -0.5039
15310TIP3   OH267420   6.775   3.575  16.436 -0.1880 -0.1556  0.4229
15310TIP3    H167421   6.737   3.517  16.502 -1.9908  2.1236  1.5341
15310TIP3    H267422   6.711   3.576  16.365  0.6314 -0.7669 -0.3487
15311TIP3   OH267423   2.545   0.580  13.612 -0.2903 -0.7685  0.4558
15311TIP3    H167424   2.560   0.522  13.536 -1.4867 -0.4869 -0.0152
15311TIP3    H267425   2.597   0.658  13.592  0.9660 -1.4662  0.8771
15312TIP3   OH267426   2.778   0.255  12.812  0.4711 -0.0833  0.1942
15312TIP3    H167427   2.871   0.275  12.803  0.1512  1.9355  0.8531
15312TIP3    H267428   2.772   0.209  12.895  0.8931 -0.3013  0.1084
15313TIP3   OH267429   0.202   2.735   2.412  0.0551 -0.3904 -0.7016
15313TIP3    H167430   0.110   2.711   2.403 -0.5308  1.4276 -0.1319
15313TIP3    H267431   0.204   2.828   2.387  1.4781 -0.0250  0.6362
15314TIP3   OH267432   5.097   0.527  11.015  0.4140 -0.1164  0.4927
15314TIP3    H167433   5.010   0.529  11.056 -1.0195 -3.2680 -1.9270
15314TIP3    H267434   5.149   0.472  11.073  0.1552  0.0175  0.8604
15315TIP3   OH267435   6.111   4.570  11.912  0.1760 -0.2936 -0.0211
15315TIP3    H167436   6.206   4.558  11.918  0.6141  0.8691 -2.8254
15315TIP3    H267437   6.100   4.651  11.862 -2.1988 -1.8935 -2.3608
15316TIP3   OH267438   6.163   1.690  13.877 -0.0983 -0.1805 -0.1852
15316TIP3    H167439   6.178   1.734  13.794  1.3366  0.8178  0.5486
15316TIP3    H267440   6.178   1.597  13.859  0.3402  0.0468 -1.0209
15317TIP3   OH267441   6.776   0.276  14.382  0.6187 -0.0514 -0.3240
15317TIP3    H167442   6.773   0.186  14.414 -0.6316  0.3104  0.6430
15317TIP3    H267443   6.753   0.330  14.458 -2.9997  0.7998 -1.8470
15318TIP3   OH267444   0.951   0.976   1.517  0.2653 -0.3183  0.1706
15318TIP3    H167445   1.022   0.987   1.453 -1.0965 -1.6139 -1.6944
15318TIP3    H267446   0.900   1.057   1.509  0.2649 -0.3503 -0.1822
15319TIP3   OH267447   1.696   0.550   4.285 -0.2049  0.6934 -0.1998
15319TIP3    H167448   1.725   0.636   4.314 -1.4925  1.5875 -1.4740
15319TIP3    H267449   1.731   0.542   4.196 -1.2712  0.5122 -0.6141
15320TIP3   OH267450   6.429   4.274   3.361  0.2288  0.6746  0.4958
15320TIP3    H167451   6.399   4.291   3.450  2.2310  4.0087  0.6963
15320TIP3    H267452   6.465   4.185   3.365 -1.7999 -0.1645  2.3340
15321TIP3   OH267453   0.323   3.081  11.030 -0.5203  0.0839 -0.0945
15321TIP3    H167454   0.387   3.127  11.084  0.9596 -1.7991 -0.1564
15321TIP3    H267455   0.323   3.129  10.947  0.8178  0.1493 -0.0826
15322TIP3   OH267456   0.968   4.826  14.063 -0.5628 -0.1699 -0.2980
15322TIP3    H167457   1.014   4.889  14.119 -2.3543  1.0068 -0.0697
15322TIP3    H267458   0.970   4.865  13.976  2.5863 -2.1906 -1.2941
15323TIP3   OH267459   2.979   0.734  12.137 -0.6135 -0.0625  0.0272
15323TIP3    H167460   2.963   0.706  12.227 -0.2278  0.2892  0.2145
15323TIP3    H267461   2.922   0.810  12.126  1.1888  1.4974  0.8615
15324TIP3   OH267462   5.349   1.734  15.239 -0.4151 -0.1588  0.4788
15324TIP3    H167463   5.356   1.825  15.210  0.4474 -0.4523 -0.2718
15324TIP3    H267464   5.351   1.682  15.159  2.8728 -1.0315  0.9691
15325TIP3   OH267465   1.137   4.582   5.931 -0.0252  0.6840 -0.2160
15325TIP3    H167466   1.111   4.647   5.866 -2.0058  2.0089  1.7269
15325TIP3    H267467   1.072   4.592   6.001  1.6528 -1.0301  1.7083
15326TIP3   OH267468   1.091   3.772  14.555 -1.2945  0.0891  0.0799
15326TIP3    H167469   1.168   3.826  14.542 -1.5666  0.7291  0.9969
15326TIP3    H267470   1.066   3.743  14.468 -1.2990  1.6604 -0.4630
15327TIP3   OH267471   5.248   3.791   0.384  0.5749 -0.4106  0.1383
15327TIP3    H167472   5.155   3.777   0.397  0.1352  2.7817  1.3204
15327TIP3    H267473   5.289   3.765   0.466  0.0402  2.5598  1.4668
15328TIP3   OH267474   0.601   3.218  12.723  0.6615  0.1710 -0.1872
15328TIP3    H167475   0.558   3.170  12.652 -0.5270  0.8180  0.0589
15328TIP3    H267476   0.529   3.246  12.779  1.0073  3.8539 -1.3102
15329TIP3   OH267477   0.130   0.695  14.313 -0.1556  0.3600  0.3713
15329TIP3    H167478   0.077   0.713  14.235 -0.5293 -0.4760  0.4179
15329TIP3    H267479   0.068   0.700  14.386 -0.6923 -2.5548  0.2617
15330TIP3   OH267480   1.232   1.587   4.203  0.5079  0.3909  0.0503
15330TIP3    H167481   1.240   1.492   4.197 -1.2503  0.3118 -1.7919
15330TIP3    H267482   1.313   1.614   4.248  1.1209 -1.9193  0.5044
15331TIP3   OH267483   2.632   2.355  15.055  0.2333  0.4700 -0.0015
15331TIP3    H167484   2.577   2.375  14.980 -1.0144 -0.8785  0.4910
15331TIP3    H267485   2.711   2.407  15.042 -0.0937  0.5439 -2.0492
15332TIP3   OH267486   4.868   6.266   5.649  0.4350 -0.0203  0.1241
15332TIP3    H167487   4.877   6.279   5.743  1.3081  1.0723 -0.0893
15332TIP3    H267488   4.950   6.226   5.621  0.5417  0.4836 -0.3020
15333TIP3   OH267489   6.403   6.742  12.163  0.1850  0.1530 -0.4149
15333TIP3    H167490   6.498   6.746  12.172  0.1035  2.9400  0.0312
15333TIP3    H267491   6.384   6.794  12.084 -1.0840  2.3718  1.2278
15334TIP3   OH267492   1.216   5.366   5.265 -0.1381  0.0550 -0.0370
15334TIP3    H167493   1.198   5.379   5.358  0.0893 -0.2522  0.0515
15334TIP3    H267494   1.305   5.400   5.253  0.0162 -0.3447 -0.0418
15335TIP3   OH267495   3.521   1.146  17.033 -0.0533 -0.3756  1.0044
15335TIP3    H167496   3.477   1.069  17.069 -1.4665 -0.2345 -0.3128
15335TIP3    H267497   3.517   1.133  16.938 -0.4237  1.3609  0.7519
15336TIP3   OH267498   1.252   2.745   5.707 -0.7410 -0.0823  0.1899
15336TIP3    H167499   1.341   2.768   5.679  0.0701 -1.6623  1.2877
15336TIP3    H267500   1.241   2.789   5.791 -0.9132 -0.0589  0.1554
15337TIP3   OH267501   3.384   1.545   2.159  0.1822  0.4679 -0.2371
15337TIP3    H167502   3.382   1.482   2.231  0.9440 -0.0511 -0.6469
15337TIP3    H267503   3.475   1.542   2.128 -0.3753 -0.1626 -1.9448
15338TIP3   OH267504   5.204   5.411   4.085 -0.2521  0.0644  0.2398
15338TIP3    H167505   5.257   5.428   4.006  1.1140 -3.7789  0.1441
15338TIP3    H267506   5.200   5.496   4.129  3.9770  1.1632 -1.0112
15339TIP3   OH267507   6.636   2.407  11.959 -0.1415 -0.0752  0.1552
15339TIP3    H167508   6.575   2.345  12.001 -0.4327  0.1379  0.0547
15339TIP3    H267509   6.618   2.490  12.002 -0.8460  0.2676 -0.7798
15340TIP3   OH267510   2.010   5.649  12.507 -0.4581 -0.0618 -0.3214
15340TIP3    H167511   2.086   5.596  12.529 -0.7710 -0.9542 -1.2568
15340TIP3    H267512   2.003   5.642  12.412 -0.7172  1.4107 -0.4348
15341TIP3   OH267513   0.295   6.736   2.751 -0.0331  0.8160  0.3175
15341TIP3    H167514   0.237   6.718   2.825  0.4671 -0.7006  0.3845
15341TIP3    H267515   0.382   6.710   2.782  0.1266 -0.2296 -0.9027
15342TIP3   OH267516   5.618   6.479  12.677 -0.9148 -0.1351  0.0340
15342TIP3    H167517   5.710   6.505  12.668 -0.8654  0.8764  2.6162
15342TIP3    H267518   5.569   6.546  12.630 -0.4082 -0.0763 -0.4259
15343TIP3   OH267519   6.719   6.520  12.363  0.0052  0.3247 -0.3970
15343TIP3    H167520   6.666   6.544  12.439 -0.6224  1.3684 -1.1393
15343TIP3    H267521   6.680   6.439  12.330 -0.2484  0.3311 -0.1112
15344TIP3   OH267522   0.759   2.082   5.133 -0.7993 -0.1653  0.4462
15344TIP3    H167523   0.785   2.000   5.091 -0.6419  0.3265 -0.4316
15344TIP3    H267524   0.668   2.093   5.108 -0.6109  0.2955 -0.0396
15345TIP3   OH267525   1.990   3.096  15.638  0.5645 -0.0927 -0.6132
15345TIP3    H167526   1.959   3.131  15.721 -1.7700 -1.3083 -0.8956
15345TIP3    H267527   1.977   3.168  15.576  0.0842  0.0329 -0.3723
15346TIP3   OH267528   3.141   3.542   2.961 -0.0105 -0.4945 -0.6900
15346TIP3    H167529   3.150   3.530   2.867 -1.3433 -0.9599 -0.7768
15346TIP3    H267530   3.215   3.598   2.985 -0.0206  0.1863 -2.1220
15347TIP3   OH267531   5.443   5.390  11.700 -0.8956 -0.1459 -0.1008
15347TIP3    H167532   5.508   5.461  11.700 -1.7561  0.6587  0.1611
15347TIP3    H267533   5.419   5.379  11.608 -1.4370  0.5385 -0.0439
15348TIP3   OH267534   1.540   2.454   3.362  0.0920  0.4475 -0.2766
15348TIP3    H167535   1.502   2.542   3.359  1.2432  0.9730 -0.2107
15348TIP3    H267536   1.583   2.450   3.447 -1.8934 -1.0613  0.7292
15349TIP3   OH267537   0.007   4.145  15.520  0.0526  0.1377 -0.1124
15349TIP3    H167538  -0.004   4.212  15.453  0.2968 -1.1894 -1.5431
15349TIP3    H267539  -0.062   4.163  15.584 -0.5043  1.1519 -0.9724
15350TIP3   OH267540   0.435   5.002   3.944  0.2022 -0.0433  0.5943
15350TIP3    H167541   0.384   4.990   3.864 -1.5475  0.6442  1.5532
15350TIP3    H267542   0.462   4.914   3.968 -0.1853 -0.3824 -0.1592
15351TIP3   OH267543   3.500   4.364  14.023  1.2657  0.0143  0.0010
15351TIP3    H167544   3.418   4.385  14.068  0.3182 -2.1007 -0.6047
15351TIP3    H267545   3.556   4.326  14.090  1.7801  1.4087  0.4033
15352TIP3   OH267546   2.645   5.221  11.704  0.0921  0.8385 -0.1421
15352TIP3    H167547   2.573   5.168  11.671 -0.7281  1.8836 -0.0539
15352TIP3    H267548   2.606   5.305  11.725  1.5979  1.8859 -1.3689
15353TIP3   OH267549   0.941   3.879  11.185 -0.1450 -0.0233  0.1803
15353TIP3    H167550   1.027   3.903  11.150 -0.7834  1.1786 -0.6360
15353TIP3    H267551   0.884   3.951  11.158 -1.2488 -0.4254  1.3743
15354TIP3   OH267552   0.883   3.594   6.066 -0.1960  0.1254 -0.3766
15354TIP3    H167553   0.897   3.680   6.025  1.1972 -0.3505 -0.9623
15354TIP3    H267554   0.789   3.581   6.063 -0.9205  3.0368  2.6154
15355TIP3   OH267555   1.829   3.969   2.030  0.5691  0.2754  0.0302
15355TIP3    H167556   1.850   3.897   1.970 -0.2186 -0.7415  0.9324
15355TIP3    H267557   1.912   3.992   2.070  0.8981  0.1239 -0.5542
15356TIP3   OH267558   5.399   3.310  16.993  0.1011  0.0443  0.4669
15356TIP3    H167559   5.472   3.263  16.953  0.1361  0.5602 -0.0909
15356TIP3    H267560   5.439   3.364  17.061 -0.0483 -1.4058  1.7513
15357TIP3   OH267561   6.200   1.849  15.235 -0.4815 -0.4671 -0.0679
15357TIP3    H167562   6.253   1.854  15.156 -1.3366 -2.6907 -0.8540
15357TIP3    H267563   6.132   1.915  15.223 -0.2179 -0.3376 -0.8670
15358TIP3   OH267564   6.775   3.923  12.759  0.0316  0.2976 -0.2848
15358TIP3    H167565   6.747   3.959  12.675  0.1877  0.2111 -0.3723
15358TIP3    H267566   6.694   3.920  12.811 -0.3569 -0.9841 -0.9064
15359TIP3   OH267567   3.130   2.534   4.951  0.1623 -0.0196 -0.3881
15359TIP3    H167568   3.097   2.541   5.040  0.5028 -1.6574 -0.1091
15359TIP3    H267569   3.198   2.602   4.946  0.0700  0.1620  0.5545
15360TIP3   OH267570   3.996   0.793   1.754  0.2000  0.1297 -0.4739
15360TIP3    H167571   4.013   0.887   1.741  0.6266  0.1478  0.1492
15360TIP3    H267572   3.903   0.789   1.775  0.1297  0.3920 -0.7277
15361TIP3   OH267573   6.275   6.834  10.445  0.1051 -0.2437  0.9757
15361TIP3    H167574   6.368   6.829  10.425 -0.0528 -1.9333  0.5062
15361TIP3    H267575   6.232   6.828  10.360 -0.4404  0.3099  1.2058
15362TIP3   OH267576   4.728   3.438   3.405 -0.2954 -0.2774  0.7001
15362TIP3    H167577   4.803   3.472   3.355 -0.5659 -0.9802 -0.2294
15362TIP3    H267578   4.761   3.426   3.494  0.6208 -0.3192  0.3650
15363TIP3   OH267579   0.126   3.309  12.981  0.3125  0.1290  0.3779
15363TIP3    H167580   0.066   3.282  13.050  0.8526  0.0878  0.8355
15363TIP3    H267581   0.087   3.388  12.944 -0.6182 -0.5408 -0.1094
15364TIP3   OH267582   3.684   6.202   0.925  0.0659 -0.2245 -0.5851
15364TIP3    H167583   3.751   6.162   0.981 -0.5001 -0.5533 -0.1299
15364TIP3    H267584   3.668   6.137   0.857  0.5416  0.0525 -0.9699
15365TIP3   OH267585   5.206   2.580  16.223 -0.4469 -0.2035  0.2997
15365TIP3    H167586   5.157   2.555  16.301  0.5229  0.1076  1.0314
15365TIP3    H267587   5.275   2.638  16.256  0.6213 -0.8997 -0.6393
15366TIP3   OH267588   3.001   5.624   3.288 -0.0432  0.0877 -0.8252
15366TIP3    H167589   3.024   5.708   3.328  0.1647 -0.0574 -0.6366
15366TIP3    H267590   2.978   5.568   3.363 -2.4171  0.6311 -1.0667
15367TIP3   OH267591   5.367   1.358   6.211 -0.1905  0.2030  0.5372
15367TIP3    H167592   5.384   1.432   6.153 -0.4973 -0.6362 -0.6574
15367TIP3    H267593   5.441   1.357   6.272 -0.3628  1.6788  0.7943
15368TIP3   OH267594   5.602   5.845  14.872  0.5180  0.4787  0.1491
15368TIP3    H167595   5.672   5.868  14.933 -0.3838  1.6667  0.7899
15368TIP3    H267596   5.543   5.790  14.924  0.4710  0.3107 -0.0838
15369TIP3   OH267597   3.720   6.462   6.510  0.2509 -0.3582 -0.3480
15369TIP3    H167598   3.707   6.432   6.600  1.7156 -0.8972 -0.2859
15369TIP3    H267599   3.799   6.416   6.480 -0.8409 -1.0794 -2.3210
15370TIP3   OH267600   2.164   1.185  14.369  0.3178  0.0103  0.9825
15370TIP3    H167601   2.111   1.126  14.422  0.9816  1.1922  3.0961
15370TIP3    H267602   2.102   1.251  14.337 -0.6586 -2.2783 -2.3765
15371TIP3   OH267603   4.610   2.095   1.281  0.5210 -0.0705  0.1575
15371TIP3    H167604   4.642   2.072   1.368 -1.9133 -3.4851  0.3657
15371TIP3    H267605   4.655   2.034   1.223  1.2809  1.4233 -0.8849
15372TIP3   OH267606   4.536   6.792  11.854  0.7737 -0.9273 -0.3051
15372TIP3    H167607   4.458   6.843  11.875  0.7482 -0.9272 -0.4012
15372TIP3    H267608   4.594   6.854  11.809  0.6891 -1.0161 -0.5391
15373TIP3   OH267609   2.482   0.325   3.498 -0.1466  0.0495  0.1038
15373TIP3    H167610   2.485   0.389   3.569  0.8276  2.1049 -1.6985
15373TIP3    H267611   2.574   0.312   3.473 -0.5701  1.1961 -2.2905
15374TIP3   OH267612   3.575   6.028  15.925 -0.6055  0.5578  0.3122
15374TIP3    H167613   3.617   5.965  15.866 -2.0316 -2.0438  1.8746
15374TIP3    H267614   3.540   6.096  15.867 -1.8044 -1.7612 -1.9068
15375TIP3   OH267615   1.659   1.315   1.237  0.4075 -0.7299  0.3378
15375TIP3    H167616   1.606   1.250   1.191 -0.1586  0.2677 -0.4637
15375TIP3    H267617   1.687   1.376   1.168 -1.9501  1.8675  1.4809
15376TIP3   OH267618   5.603   3.141   2.112 -0.1546 -0.4663 -0.0595
15376TIP3    H167619   5.667   3.096   2.056 -0.3256  1.0740 -1.6085
15376TIP3    H267620   5.547   3.072   2.146  0.6593 -1.5756 -0.9152
15377TIP3   OH267621   0.164   3.630   0.921  0.7714 -0.3270 -1.1197
15377TIP3    H167622   0.246   3.633   0.971  0.5006 -0.0529 -0.6891
15377TIP3    H267623   0.109   3.696   0.962  0.2554 -0.6541 -1.2808
15378TIP3   OH267624   0.240   5.701   1.548  0.4569  0.0587 -0.1763
15378TIP3    H167625   0.196   5.629   1.593  1.6366 -0.9034 -0.5266
15378TIP3    H267626   0.206   5.698   1.459  0.6143 -0.1514 -0.2284
15379TIP3   OH267627   0.944   5.967  13.117 -0.1511  0.0160 -0.6908
15379TIP3    H167628   0.868   5.911  13.131 -1.4301  1.9886  1.0285
15379TIP3    H267629   0.929   6.008  13.032  0.5895 -1.8573 -1.7620
15380TIP3   OH267630   3.434   4.638  11.863  0.0944  0.2562  0.1455
15380TIP3    H167631   3.450   4.674  11.950  0.3992  0.8843 -0.1626
15380TIP3    H267632   3.393   4.553  11.879 -0.7204  0.7710  0.8866
15381TIP3   OH267633   6.705   3.784  16.833  0.3797 -0.4795 -0.2654
15381TIP3    H167634   6.767   3.753  16.899  1.0268  0.6528 -0.3037
15381TIP3    H267635   6.627   3.730  16.845  0.4999 -0.3237  1.3873
15382TIP3   OH267636   4.841   6.659   4.545 -0.3178  0.1859 -0.7304
15382TIP3    H167637   4.810   6.675   4.456 -1.5296  0.0932 -0.3421
15382TIP3    H267638   4.839   6.745   4.587 -0.5182  0.0974 -0.5585
15383TIP3   OH267639   1.573   6.785   1.768 -0.4736 -0.8456  0.1209
15383TIP3    H167640   1.579   6.835   1.849 -0.8638 -2.9114  1.5149
15383TIP3    H267641   1.480   6.783   1.747 -0.3122  0.2563 -0.8065
15384TIP3   OH267642   4.501   5.591   0.131  0.2415  0.2280  0.1665
15384TIP3    H167643   4.591   5.610   0.106  0.4000 -0.9497 -0.2162
15384TIP3    H267644   4.508   5.554   0.219  0.3132 -1.2778 -0.4399
15385TIP3   OH267645   4.963   2.692  10.784  0.3951 -0.1451  0.3611
15385TIP3    H167646   5.052   2.660  10.770  0.6347 -0.3179  2.0565
15385TIP3    H267647   4.910   2.613  10.790  0.7812 -0.3128  3.2080
15386TIP3   OH267648   5.191   3.364  14.324 -0.2682 -0.2255 -0.1995
15386TIP3    H167649   5.240   3.338  14.403 -2.6552  0.9402  1.8008
15386TIP3    H267650   5.189   3.460  14.328 -0.6880 -0.1629 -1.5461
15387TIP3   OH267651   3.290   5.227   5.371  0.1452  0.1419 -0.0915
15387TIP3    H167652   3.287   5.253   5.279 -0.3371  1.0284  0.1703
15387TIP3    H267653   3.332   5.301   5.415  0.0745 -0.1400  0.4525
15388TIP3   OH267654   6.039   1.152  14.722  0.0476 -0.0251  0.1286
15388TIP3    H167655   6.101   1.211  14.765  0.9592 -0.0546 -1.1036
15388TIP3    H267656   6.027   1.081  14.785  1.9882 -0.4838  0.0547
15389TIP3   OH267657   0.314   0.471  11.907  0.3712  0.6561 -0.0783
15389TIP3    H167658   0.274   0.484  11.993 -1.7063 -0.2835 -0.8423
15389TIP3    H267659   0.389   0.531  11.906  0.5029  0.6323  2.3837
15390TIP3   OH267660   3.375   1.934   4.375 -0.3118  0.1406  0.2394
15390TIP3    H167661   3.394   2.024   4.347 -2.2025  0.4970 -0.0214
15390TIP3    H267662   3.419   1.879   4.310  0.5738  0.8779  0.2033
15391TIP3   OH267663   2.674   0.116   0.458 -0.2179  0.3028 -0.8764
15391TIP3    H167664   2.591   0.159   0.479 -0.7741 -0.7142 -0.9208
15391TIP3    H267665   2.708   0.164   0.383 -1.7379 -0.4366 -2.1003
15392TIP3   OH267666   1.652   3.230  12.283  0.2318  0.2770  0.3551
15392TIP3    H167667   1.603   3.311  12.299  0.9475  0.7106  0.4103
15392TIP3    H267668   1.738   3.246  12.322  0.8613  0.0485 -0.8722
15393TIP3   OH267669   3.291   3.624  13.052 -0.7657 -0.1082 -0.2777
15393TIP3    H167670   3.246   3.548  13.090 -4.2202  2.4999  1.3825
15393TIP3    H267671   3.382   3.614  13.080 -1.7564 -1.9608  2.7857
15394TIP3   OH267672   2.907   4.659   4.632 -0.5288  0.0593 -0.2748
15394TIP3    H167673   2.824   4.618   4.655  0.2767 -2.1607 -1.0364
15394TIP3    H267674   2.968   4.585   4.622  1.6661  1.6099  0.7148
15395TIP3   OH267675   1.629   1.299  14.355 -0.3241  1.1138  0.4189
15395TIP3    H167676   1.613   1.242  14.280 -0.1245  0.1312  1.1127
15395TIP3    H267677   1.632   1.387  14.317  1.9620  0.4761 -1.0727
15396TIP3   OH267678   2.194   2.264   5.239 -0.1390 -0.3708 -0.4905
15396TIP3    H167679   2.273   2.214   5.260 -1.4479 -2.1355  0.5158
15396TIP3    H267680   2.221   2.355   5.243  1.6407 -0.9023  0.8069
15397TIP3   OH267681   6.234   2.486  12.217  0.3540 -0.0940 -0.7850
15397TIP3    H167682   6.141   2.490  12.241  0.1497 -1.4575 -1.2644
15397TIP3    H267683   6.266   2.575  12.232 -0.6447  0.0341  0.8655
15398TIP3   OH267684   6.023   5.337   4.647  0.2084  0.0399  0.1449
15398TIP3    H167685   6.038   5.388   4.726 -0.1792 -0.2698  0.4242
15398TIP3    H267686   5.936   5.365   4.617 -0.8154 -1.6960  1.2867
15399TIP3   OH267687   5.141   0.554  16.768  0.0327 -1.0401  0.2032
15399TIP3    H167688   5.113   0.466  16.797  2.0574 -2.0491 -0.7247
15399TIP3    H267689   5.150   0.604  16.849  0.6799 -2.2777  0.9252
15400TIP3   OH267690   1.930   5.067  14.557 -0.4083  0.1322  0.5683
15400TIP3    H167691   1.959   4.988  14.602 -0.1869  0.4821  1.0530
15400TIP3    H267692   1.964   5.058  14.468  0.4239  0.1132  0.8796
15401TIP3   OH267693   6.082   5.638   3.209  0.2139  0.2555  0.3097
15401TIP3    H167694   6.027   5.576   3.162  1.8832 -0.6298 -0.6047
15401TIP3    H267695   6.022   5.704   3.243 -1.4700 -1.1320  0.1469
15402TIP3   OH267696   1.330   0.771  11.331 -0.3228 -0.4301 -0.4337
15402TIP3    H167697   1.364   0.778  11.242  0.5074 -0.3207 -0.1196
15402TIP3    H267698   1.408   0.756  11.385 -0.6692  0.7734  0.4276
15403TIP3   OH267699   0.127   6.314   2.962 -0.0089 -0.0713 -1.0020
15403TIP3    H167700   0.151   6.407   2.953 -1.9898  0.6731  0.7219
15403TIP3    H267701   0.179   6.283   3.037 -1.3824  0.4609  0.2123
15404TIP3   OH267702   0.183   1.433  14.357  0.5456 -0.6186 -0.5611
15404TIP3    H167703   0.240   1.366  14.395  0.3568 -0.2574  0.3908
15404TIP3    H267704   0.185   1.505  14.420  0.4620  0.1355 -1.3981
15405TIP3   OH267705   6.347   1.801   3.476  0.0514  0.6111 -0.2061
15405TIP3    H167706   6.441   1.800   3.496 -0.0961 -2.4230  0.9163
15405TIP3    H267707   6.342   1.844   3.390  2.6809 -0.4564 -1.0174
15406TIP3   OH267708   6.582   6.374   4.705 -0.1233  0.5643 -0.0419
15406TIP3    H167709   6.671   6.399   4.729 -0.3989 -0.1228  1.8915
15406TIP3    H267710   6.532   6.384   4.786 -1.6706  0.3049 -0.9268
15407TIP3   OH267711   1.287   5.075  14.617  0.0369 -0.7965  0.3116
15407TIP3    H167712   1.351   5.122  14.564  0.2549 -0.9662  0.4229
15407TIP3    H267713   1.339   5.030  14.683 -0.0855 -1.9534 -0.3676
15408TIP3   OH267714   2.611   6.288   5.026 -0.1548  0.5448 -0.1905
15408TIP3    H167715   2.633   6.247   5.109 -2.5676  2.2207  1.4003
15408TIP3    H267716   2.629   6.220   4.960 -0.0325 -1.5274  1.8527
15409TIP3   OH267717   0.654   6.294  15.913  0.4850  0.5334 -0.3095
15409TIP3    H167718   0.662   6.237  15.837  1.4297 -0.0555  0.2153
15409TIP3    H267719   0.680   6.381  15.881 -1.1138  0.7468 -1.1492
15410TIP3   OH267720   2.373   6.113   4.348 -0.1075  0.1932  0.1150
15410TIP3    H167721   2.426   6.118   4.269 -0.5721 -0.3651 -0.2351
15410TIP3    H267722   2.396   6.029   4.388  0.0977  0.4543  0.5585
15411TIP3   OH267723   4.857   3.004   0.241 -0.1814  0.0796 -0.4608
15411TIP3    H167724   4.933   3.057   0.217 -1.0710  2.1656  1.0296
15411TIP3    H267725   4.815   2.983   0.158  0.7586  0.8682 -1.1548
15412TIP3   OH267726   1.159   5.136   0.409  0.3538  0.3173  0.2165
15412TIP3    H167727   1.231   5.199   0.401  2.0931 -1.4440  0.8918
15412TIP3    H267728   1.123   5.129   0.321 -0.0275  2.3524  0.1630
15413TIP3   OH267729   3.556   2.493  12.371 -0.0902  0.5740  0.5181
15413TIP3    H167730   3.609   2.440  12.431 -1.1092  0.6114  1.4692
15413TIP3    H267731   3.576   2.457  12.284 -0.3908 -1.0660  1.0877
15414TIP3   OH267732   2.570   3.272  15.738  0.8146 -0.6492  0.6247
15414TIP3    H167733   2.659   3.299  15.719  0.1595 -0.2671 -2.4492
15414TIP3    H267734   2.575   3.177  15.748  1.4591 -0.7466 -0.4990
15415TIP3   OH267735   6.414   2.602   4.120 -0.5787  0.5912  0.4434
15415TIP3    H167736   6.364   2.570   4.195  0.2684 -0.1204  0.7240
15415TIP3    H267737   6.505   2.592   4.147  0.0923 -4.5667 -2.4391
15416TIP3   OH267738   5.943   5.093  16.605  0.0245 -0.7114  0.0316
15416TIP3    H167739   5.949   4.998  16.622 -0.7077 -0.7159  0.3029
15416TIP3    H267740   5.950   5.133  16.692  2.2491 -0.3822 -0.2259
15417TIP3   OH267741   3.085   5.679  12.485 -0.5510 -0.0792 -0.2596
15417TIP3    H167742   3.057   5.696  12.575 -1.0982 -0.2499 -0.3962
15417TIP3    H267743   3.088   5.765  12.444  3.2186  0.5442  0.8794
15418TIP3   OH267744   2.404   3.083  12.868 -0.0163  0.0028 -0.2295
15418TIP3    H167745   2.465   3.016  12.902 -0.4184  0.6307  1.8492
15418TIP3    H267746   2.460   3.158  12.849  0.1844 -0.2689 -0.7200
15419TIP3   OH267747   5.674   3.667  11.643 -0.1306  0.0694  0.0337
15419TIP3    H167748   5.744   3.710  11.594  1.0767 -2.0467 -0.2318
15419TIP3    H267749   5.594   3.709  11.612  0.9647  2.4697  0.2356
15420TIP3   OH267750   1.716   1.180   4.785 -0.5156 -0.3164  0.1286
15420TIP3    H167751   1.706   1.220   4.872  0.7012  0.3127 -0.0084
15420TIP3    H267752   1.682   1.091   4.796 -0.5427 -0.1870  1.2105
15421TIP3   OH267753   5.508   2.278   5.874 -0.0415  0.4539 -0.0003
15421TIP3    H167754   5.442   2.293   5.806 -0.4318  0.9703  0.4765
15421TIP3    H267755   5.462   2.299   5.956  0.9953  1.7959  0.2760
15422TIP3   OH267756   6.702   5.676   4.913 -0.3548  0.1839 -0.2839
15422TIP3    H167757   6.614   5.712   4.897 -0.8510 -1.4996 -1.6443
15422TIP3    H267758   6.686   5.586   4.939  0.9122  0.5568  2.0413
15423TIP3   OH267759   5.937   2.531  12.618  0.1622 -0.1371 -0.7108
15423TIP3    H167760   5.860   2.584  12.600 -0.1511 -0.3344  0.0228
15423TIP3    H267761   5.927   2.453  12.564 -0.8036 -0.7576  0.3268
15424TIP3   OH267762   2.589   2.917   1.071 -0.3302  0.1774 -0.4083
15424TIP3    H167763   2.570   2.824   1.064  0.4152  0.0069 -0.3238
15424TIP3    H267764   2.652   2.923   1.143  1.3469  0.4551 -1.8132
15425TIP3   OH267765   5.631   0.227  12.981 -0.6649 -0.0017 -0.2932
15425TIP3    H167766   5.605   0.317  12.962 -0.1095 -0.3621 -3.1008
15425TIP3    H267767   5.721   0.220  12.949 -0.4148 -1.3810  0.5915
15426TIP3   OH267768   6.215   1.483   0.110  0.1368  0.0635  0.1595
15426TIP3    H167769   6.155   1.528   0.169 -3.1135 -1.9571 -1.3050
15426TIP3    H267770   6.226   1.542   0.035  0.6492  0.7619  0.7755
15427TIP3   OH267771   5.010   5.750   6.280 -0.1573  0.0814 -0.0477
15427TIP3    H167772   5.078   5.803   6.320  0.0358 -0.7717  0.8048
15427TIP3    H267773   5.048   5.719   6.198 -0.3052  1.3046 -0.5904
15428TIP3   OH267774   2.683   2.008  10.967  0.3551 -0.2862 -0.5984
15428TIP3    H167775   2.626   2.002  10.890  0.0937 -0.7889 -0.3720
15428TIP3    H267776   2.722   1.921  10.974 -0.4740 -0.5773  0.4869
15429TIP3   OH267777   3.340   2.844   1.537 -0.3273 -0.2502 -0.6713
15429TIP3    H167778   3.258   2.816   1.497 -0.8254  0.8836 -0.4850
15429TIP3    H267779   3.350   2.935   1.508 -0.0552  0.1921  0.7526
15430TIP3   OH267780   1.170   5.696   0.502 -0.2973  0.8009  0.4490
15430TIP3    H167781   1.102   5.661   0.445 -0.8206 -0.3515  1.7248
15430TIP3    H267782   1.210   5.767   0.452 -2.9821  2.0606 -0.0333
15431TIP3   OH267783   5.070   4.696  16.352  0.6059 -0.0143 -0.5214
15431TIP3    H167784   5.139   4.714  16.417  0.8512  0.7274 -0.9768
15431TIP3    H267785   5.087   4.758  16.281  0.4794 -0.9722 -1.4068
15432TIP3   OH267786   5.971   3.557   3.370  0.4945  0.2869  0.5224
15432TIP3    H167787   6.041   3.613   3.401 -1.2008  2.3446  0.8297
15432TIP3    H267788   5.928   3.525   3.449 -0.7465  1.5227  0.3977
15433TIP3   OH267789   5.023   0.827   2.677  0.1816  0.4754 -0.2939
15433TIP3    H167790   4.995   0.803   2.766  0.8505  1.4421  0.1834
15433TIP3    H267791   5.014   0.745   2.627  0.3012 -0.2153  0.7764
15434TIP3   OH267792   1.577   3.774   1.103 -0.6027  0.0086 -0.5271
15434TIP3    H167793   1.530   3.789   1.021  1.4681 -1.6226 -2.1296
15434TIP3    H267794   1.655   3.829   1.097  0.7783 -1.8799 -0.8311
15435TIP3   OH267795   5.833   0.135   2.010  0.0397 -0.2688 -0.0820
15435TIP3    H167796   5.771   0.080   1.962  0.1067 -0.4781  0.0719
15435TIP3    H267797   5.833   0.100   2.099 -0.9531  0.8387  0.3708
15436TIP3   OH267798   6.166   6.098  16.547  0.8086  0.5575  0.5598
15436TIP3    H167799   6.072   6.082  16.556  0.5171  0.9473 -1.2609
15436TIP3    H267800   6.198   6.023  16.497  1.2708  0.8973  0.3385
15437TIP3   OH267801   4.972   1.740  13.375  0.4672  0.3773 -0.7249
15437TIP3    H167802   4.937   1.652  13.386  0.2070  0.6438  0.8510
15437TIP3    H267803   4.899   1.798  13.400  1.4528  0.9597  1.0315
15438TIP3   OH267804   2.909   2.707  13.764  0.7389  0.3671 -0.0917
15438TIP3    H167805   2.884   2.615  13.761 -0.7450  0.7682 -1.1269
15438TIP3    H267806   2.893   2.740  13.676 -1.6680  2.3210  0.9602
15439TIP3   OH267807   4.563   6.331  12.509 -0.8798  0.0966  0.0514
15439TIP3    H167808   4.512   6.252  12.493  2.5178 -2.1577 -0.8511
15439TIP3    H267809   4.653   6.305  12.490  0.7908  3.4895  2.3185
15440TIP3   OH267810   4.223   5.249   2.223 -0.0321 -0.1208  0.2199
15440TIP3    H167811   4.236   5.189   2.297  0.0967 -0.1904  0.1417
15440TIP3    H267812   4.196   5.191   2.151  0.8509 -0.1811 -0.0663
15441TIP3   OH267813   2.043   0.178  12.655  0.2081  0.0407  0.0332
15441TIP3    H167814   2.102   0.107  12.678 -0.5800 -0.4570  0.5691
15441TIP3    H267815   2.042   0.178  12.559  0.9856 -0.0125  0.0249
15442TIP3   OH267816   5.022   1.364   3.264  0.3621  0.1709 -0.3937
15442TIP3    H167817   4.946   1.422   3.262  0.3858  0.1916 -0.9802
15442TIP3    H267818   5.035   1.344   3.356 -0.1538  0.4339 -0.2614
15443TIP3   OH267819   6.003   6.272  13.812  0.3247 -0.7857  0.4003
15443TIP3    H167820   5.990   6.182  13.783  1.4185 -0.4610 -1.2328
15443TIP3    H267821   5.957   6.325  13.746 -0.6513 -0.1366  1.5634
15444TIP3   OH267822   1.699   5.308  11.588 -0.2311 -0.1423 -0.4895
15444TIP3    H167823   1.698   5.359  11.507 -0.3581 -0.4424 -0.6780
15444TIP3    H267824   1.672   5.370  11.656  0.1664  0.1852 -0.6309
15445TIP3   OH267825   4.860   4.468  13.323  0.3569 -0.1876 -0.1361
15445TIP3    H167826   4.833   4.556  13.295 -1.4612 -0.3126  1.0501
15445TIP3    H267827   4.909   4.482  13.404 -0.7414 -0.2912  0.5693
15446TIP3   OH267828   2.266   6.620   5.242 -0.8692  0.4268 -0.2510
15446TIP3    H167829   2.195   6.652   5.186 -2.1484 -1.2852  0.2714
15446TIP3    H267830   2.313   6.557   5.187 -0.3204  0.8876 -0.3096
15447TIP3   OH267831   4.019   0.379   6.486 -0.2463  0.0647  0.2627
15447TIP3    H167832   4.086   0.313   6.503  2.1501  1.4499 -2.6968
15447TIP3    H267833   3.961   0.339   6.421  0.3179  0.2647 -0.3884
15448TIP3   OH267834   3.737   2.719   2.909 -0.3811 -0.1445 -0.2639
15448TIP3    H167835   3.703   2.767   2.984 -1.1828  0.1252 -0.7801
15448TIP3    H267836   3.736   2.783   2.837  2.1503  0.1724 -0.1200
15449TIP3   OH267837   6.466   5.391  15.432 -0.1632 -0.6364 -0.0271
15449TIP3    H167838   6.419   5.348  15.361  0.3026 -0.3080 -0.5406
15449TIP3    H267839   6.551   5.412  15.395  0.4769 -1.4131  0.9542
15450TIP3   OH267840   2.257   3.148  15.418 -0.4366 -0.1058  0.5554
15450TIP3    H167841   2.217   3.232  15.394 -0.8393 -0.1847  0.9347
15450TIP3    H267842   2.190   3.083  15.400  0.4441 -0.5765 -1.3579
15451TIP3   OH267843   5.751   1.553   1.011  0.0939 -0.2021 -0.6833
15451TIP3    H167844   5.721   1.502   0.936 -3.0053  0.1649  0.1842
15451TIP3    H267845   5.731   1.499   1.087  0.6910  0.5514  0.0355
15452TIP3   OH267846   5.424   3.806  11.609  0.2335 -0.4567 -0.1994
15452TIP3    H167847   5.416   3.884  11.554 -0.8882 -0.7131 -0.4119
15452TIP3    H267848   5.363   3.821  11.681  1.1655 -0.4510  0.6102
15453TIP3   OH267849   1.965   0.121  16.430  0.3418 -0.0741 -0.4384
15453TIP3    H167850   1.885   0.163  16.398  0.5461  0.0877 -0.7334
15453TIP3    H267851   1.992   0.062  16.360 -0.3248 -1.2480  0.2379
15454TIP3   OH267852   6.837   5.201   1.125 -0.3498 -1.0490  0.0402
15454TIP3    H167853   6.800   5.192   1.037 -0.9000 -0.4890  0.2009
15454TIP3    H267854   6.799   5.282   1.158  0.9548 -0.5102  0.2732
15455TIP3   OH267855   6.014   2.171   0.527  0.6272 -0.0578 -0.4007
15455TIP3    H167856   5.942   2.151   0.587 -0.0942  3.2914  0.0148
15455TIP3    H267857   5.976   2.162   0.440 -0.0711  0.8564 -0.2006
15456TIP3   OH267858   0.643   3.200   2.994 -0.3862 -0.7261  0.0636
15456TIP3    H167859   0.650   3.175   2.902  1.3547  3.0191 -1.0140
15456TIP3    H267860   0.572   3.264   2.996 -0.4479 -0.8176  1.3408
15457TIP3   OH267861   6.833   1.504  12.013  0.3749  0.1864 -0.2366
15457TIP3    H167862   6.837   1.436  11.946  0.1255  0.5041 -0.5780
15457TIP3    H267863   6.741   1.511  12.036  0.2681  1.0039 -0.8353
15458TIP3   OH267864   5.370   1.427  11.143 -0.0473  0.3385  0.0598
15458TIP3    H167865   5.311   1.489  11.101  1.1144  1.3460 -0.1427
15458TIP3    H267866   5.340   1.423  11.234 -1.2935 -0.2695 -0.3631
15459TIP3   OH267867   4.423   6.835   6.170 -0.2699 -0.0575  0.1856
15459TIP3    H167868   4.328   6.843   6.184 -0.2932  0.1626 -0.1064
15459TIP3    H267869   4.432   6.764   6.107 -0.1757 -0.8754  1.0895
15460TIP3   OH267870   2.405   6.175   2.402  0.2727 -0.1372 -0.6444
15460TIP3    H167871   2.326   6.215   2.366 -1.3987 -3.4725 -0.9972
15460TIP3    H267872   2.394   6.180   2.497 -0.4286 -0.6762 -0.6939
15461TIP3   OH267873   5.417   2.004  14.751  0.2200  0.0558 -0.0836
15461TIP3    H167874   5.342   1.952  14.721  0.1109  0.3634 -0.3498
15461TIP3    H267875   5.377   2.081  14.791  0.4054  0.6589 -1.0338
15462TIP3   OH267876   0.634   6.457  11.829 -0.6011  0.6901  0.2461
15462TIP3    H167877   0.566   6.430  11.767  0.1881  0.5253 -0.5576
15462TIP3    H267878   0.596   6.533  11.873 -0.6810  1.6470 -1.3763
15463TIP3   OH267879   6.050   3.729  13.249 -0.1842 -0.4905 -0.0646
15463TIP3    H167880   5.972   3.780  13.269  0.2416  0.6623 -1.1497
15463TIP3    H267881   6.045   3.713  13.155  0.2432 -1.5346  0.0783
15464TIP3   OH267882   5.147   3.399   3.051 -0.1912  0.6092 -0.1155
15464TIP3    H167883   5.111   3.389   2.963  2.2208 -0.0591 -1.1127
15464TIP3    H267884   5.176   3.311   3.074  0.6837  1.0958  0.6591
15465TIP3   OH267885   3.418   0.925  14.749 -0.0568 -0.0797  0.0655
15465TIP3    H167886   3.421   0.986  14.676 -1.4874  0.7114  0.6307
15465TIP3    H267887   3.330   0.936  14.786  0.4860 -0.7646  1.6421
15466TIP3   OH267888   4.811   6.140  10.520  0.1311 -0.2651  0.3739
15466TIP3    H167889   4.789   6.197  10.446  0.7892  0.7056  0.9043
15466TIP3    H267890   4.891   6.096  10.493  0.1488 -0.2155  0.3448
15467TIP3   OH267891   0.439   0.442  11.212 -0.1009 -0.5122 -0.1257
15467TIP3    H167892   0.400   0.515  11.260 -0.5003 -0.6171 -0.2925
15467TIP3    H267893   0.496   0.484  11.147  0.6328 -0.3732  0.5916
15468TIP3   OH267894   4.117   5.746  13.204 -0.0451  0.3844 -0.4409
15468TIP3    H167895   4.103   5.665  13.253  0.5183 -0.0778 -1.0241
15468TIP3    H267896   4.046   5.747  13.139  0.1389  0.1911 -0.6454
15469TIP3   OH267897   0.979   3.070  12.305 -0.3476 -0.0291  0.2299
15469TIP3    H167898   0.935   3.149  12.275 -1.3314 -0.9538 -0.8826
15469TIP3    H267899   1.070   3.096  12.318 -1.0977  1.8478  2.2199
15470TIP3   OH267900   2.425   1.841   1.146 -0.7072 -0.2941 -0.0324
15470TIP3    H167901   2.391   1.841   1.057 -0.2852 -0.9134 -0.1971
15470TIP3    H267902   2.461   1.929   1.158 -1.9485  0.2299 -0.0003
15471TIP3   OH267903   3.188   5.288  13.787  0.3478  0.4909 -0.2027
15471TIP3    H167904   3.243   5.296  13.865 -0.3172 -0.0542  0.3312
15471TIP3    H267905   3.104   5.256  13.820  0.2076 -0.1997 -1.1979
15472TIP3   OH267906   4.830   2.978  15.549  0.2929 -0.3339  0.0143
15472TIP3    H167907   4.849   2.977  15.455  0.7377  1.8921  0.0135
15472TIP3    H267908   4.913   3.005  15.589 -0.2095 -0.1033  0.9257
15473TIP3   OH267909   0.569   2.761   4.527 -0.3381  0.1661 -0.3058
15473TIP3    H167910   0.533   2.681   4.487  1.7327 -1.7856  1.4562
15473TIP3    H267911   0.645   2.731   4.576  1.0724  3.4174 -0.2616
15474TIP3   OH267912   1.640   3.178  13.440 -0.7381 -0.1761  0.6228
15474TIP3    H167913   1.562   3.149  13.393  0.3943 -1.1164 -0.7967
15474TIP3    H267914   1.617   3.172  13.532 -2.7804  0.9317  0.2314
15475TIP3   OH267915   1.355   6.525  16.149 -0.0821 -0.3351  0.1821
15475TIP3    H167916   1.400   6.532  16.065 -0.0383 -0.1122  0.2233
15475TIP3    H267917   1.274   6.575  16.137 -0.9360 -1.7757 -0.3042
15476TIP3   OH267918   4.562   3.013   4.195  0.9671 -0.1742  0.1892
15476TIP3    H167919   4.600   3.098   4.173 -0.3429  0.8935  1.8676
15476TIP3    H267920   4.557   2.967   4.111  2.0721  1.2208 -0.6904
15477TIP3   OH267921   6.034   6.784   2.507  0.1713  0.1873  0.4495
15477TIP3    H167922   6.126   6.810   2.505 -0.1934  1.5233 -0.9000
15477TIP3    H267923   6.034   6.693   2.478  1.1457 -0.1962  1.5696
15478TIP3   OH267924   0.674   4.277   5.204 -0.6259 -0.1786  0.2383
15478TIP3    H167925   0.767   4.292   5.190 -0.1009 -2.1550  1.3250
15478TIP3    H267926   0.658   4.306   5.294 -0.2707 -2.8401  1.2492
15479TIP3   OH267927   2.251   5.704  15.947 -0.3407  0.2071  0.1031
15479TIP3    H167928   2.303   5.780  15.971 -1.0145  0.5344  0.5637
15479TIP3    H267929   2.196   5.734  15.874  0.7700 -0.4073 -1.0262
15480TIP3   OH267930   5.225   2.930  16.550 -0.0165  0.8093  0.4347
15480TIP3    H167931   5.142   2.884  16.568  0.5846 -0.9412 -1.0393
15480TIP3    H267932   5.231   2.995  16.620 -1.8506 -0.0947  1.5148
15481TIP3   OH267933   4.979   0.173   5.727 -0.3051 -0.7239  0.1909
15481TIP3    H167934   5.061   0.179   5.776  0.5630 -0.9886 -1.1848
15481TIP3    H267935   4.929   0.251   5.754  0.0656 -0.9448  1.5856
15482TIP3   OH267936   0.635   2.917   1.158 -0.6657 -0.3169 -0.2542
15482TIP3    H167937   0.625   2.835   1.206  0.2461  0.9277  2.2593
15482TIP3    H267938   0.564   2.973   1.191  0.9644  1.1284  0.9933
15483TIP3   OH267939   0.425   1.382   4.286  0.6749 -0.2965 -0.1681
15483TIP3    H167940   0.391   1.317   4.347 -1.3508  1.3498  0.5611
15483TIP3    H267941   0.379   1.365   4.204 -0.7596  0.8705  0.3487
15484TIP3   OH267942   4.473   0.637   4.999  0.2649  0.0362 -0.5360
15484TIP3    H167943   4.470   0.612   4.907 -0.3385  0.2284 -0.5720
15484TIP3    H267944   4.567   0.643   5.019  0.4171 -1.3233 -0.7648
15485TIP3   OH267945   6.601   4.456   6.492  0.1237  0.2765 -0.0480
15485TIP3    H167946   6.624   4.436   6.582 -1.1436  0.8932  0.4288
15485TIP3    H267947   6.639   4.543   6.476 -0.2230  0.4609  0.1177
15486TIP3   OH267948   1.430   4.729   6.252  0.2508 -0.3477 -0.2975
15486TIP3    H167949   1.457   4.820   6.237 -1.4742  0.1687 -0.5132
15486TIP3    H267950   1.407   4.726   6.345 -0.1965 -0.4174 -0.4092
15487TIP3   OH267951   3.331   1.589  14.442  0.0603 -0.5935  0.0356
15487TIP3    H167952   3.332   1.518  14.378 -0.6542  0.2749 -0.9558
15487TIP3    H267953   3.287   1.551  14.518 -0.2349 -1.2472 -0.4465
15488TIP3   OH267954   2.233   3.802  13.033  0.0765  0.3580  0.1413
15488TIP3    H167955   2.256   3.893  13.013 -1.1444  1.1564  2.0961
15488TIP3    H267956   2.317   3.755  13.031  0.9472  1.8249  0.5422
15489TIP3   OH267957   5.393   4.283   2.164  0.3251 -0.4081  0.7927
15489TIP3    H167958   5.417   4.366   2.205 -0.0627 -0.2046  0.6164
15489TIP3    H267959   5.473   4.230   2.166  0.7632  0.2277  0.2809
15490TIP3   OH267960   0.775   0.091   6.632 -0.3108 -0.0978  0.3254
15490TIP3    H167961   0.691   0.045   6.637 -1.2973  1.5261 -0.3314
15490TIP3    H267962   0.751   0.181   6.609  1.5677  0.6209  1.0325
15491TIP3   OH267963   1.512   1.285  14.843 -0.4196  0.1966 -0.2218
15491TIP3    H167964   1.583   1.349  14.842 -1.7758  1.8117  0.4455
15491TIP3    H267965   1.519   1.239  14.760  1.9775 -0.4104  0.2582
15492TIP3   OH267966   1.034   0.827  15.292  0.5262 -0.3995  0.4570
15492TIP3    H167967   1.052   0.770  15.367 -1.2237  2.1748  3.0572
15492TIP3    H267968   1.118   0.835  15.247  1.1065 -3.9318  0.6214
15493TIP3   OH267969   0.370   0.024   2.190 -0.1404 -0.4027  0.4961
15493TIP3    H167970   0.345   0.114   2.209 -0.8053 -0.4449 -0.1147
15493TIP3    H267971   0.346  -0.024   2.270  0.9995  0.0823  1.1500
15494TIP3   OH267972   5.503   2.350  16.859  0.2465 -0.5388  0.2699
15494TIP3    H167973   5.480   2.439  16.886 -0.0621 -0.6965  0.5344
15494TIP3    H267974   5.548   2.313  16.934 -0.2600 -0.8459  0.4238
15495TIP3   OH267975   1.713   6.781   0.054 -0.2772 -0.4621 -0.0089
15495TIP3    H167976   1.779   6.843   0.026 -3.1439  2.8169 -0.1928
15495TIP3    H267977   1.734   6.763   0.145  1.5216 -0.5439 -0.4028
15496TIP3   OH267978   6.103   6.580  13.943 -0.2560 -0.0146 -0.5582
15496TIP3    H167979   6.075   6.665  13.910  1.3995  0.1795 -1.5559
15496TIP3    H267980   6.138   6.598  14.030 -1.3896  0.0320 -0.0879
15497TIP3   OH267981   5.109   3.314  15.417 -0.1645  0.3614  0.4157
15497TIP3    H167982   5.128   3.396  15.463 -1.0422 -0.4356  2.3123
15497TIP3    H267983   5.168   3.250  15.457 -1.0348 -0.3843  0.5427
15498TIP3   OH267984   3.779   5.849   3.853 -0.3065 -1.0879  0.1672
15498TIP3    H167985   3.856   5.808   3.813 -0.7312 -1.8222  0.0972
15498TIP3    H267986   3.708   5.832   3.791 -0.3912  0.1877 -0.1080
15499TIP3   OH267987   6.677   2.801  14.837  0.5384  0.1264 -0.2194
15499TIP3    H167988   6.723   2.771  14.915  0.4479  1.6853  0.4779
15499TIP3    H267989   6.615   2.867  14.870  0.1600  0.4584 -1.5381
15500TIP3   OH267990   0.698   5.569  15.528 -0.2893 -0.0302 -0.2162
15500TIP3    H167991   0.610   5.549  15.558  0.2291 -1.3586  0.4983
15500TIP3    H267992   0.712   5.512  15.452 -0.3395  0.8044 -0.8727
15501TIP3   OH267993   1.654   6.441  11.812 -0.6116  0.3425  0.0135
15501TIP3    H167994   1.727   6.501  11.827 -0.5288  0.2058  0.1599
15501TIP3    H267995   1.635   6.404  11.898 -1.5649  1.1876  0.1941
15502TIP3   OH267996   2.259   1.883   3.136  0.0437 -0.1094 -0.4784
15502TIP3    H167997   2.175   1.906   3.098 -0.4647  1.1112  1.2501
15502TIP3    H267998   2.276   1.793   3.106 -1.9125 -0.4142 -0.7707
15503TIP3   OH267999   5.013   2.039   6.128  0.2373  0.1828  0.1268
15503TIP3    H168000   5.069   1.963   6.144  1.3194  1.3781  2.2489
15503TIP3    H268001   4.986   2.029   6.036  1.2445 -2.1498  0.0186
15504TIP3   OH268002   6.754   6.848  16.692 -0.6550  0.0233  0.1040
15504TIP3    H168003   6.702   6.925  16.711  0.8246  1.1236 -0.1000
15504TIP3    H268004   6.818   6.878  16.627 -0.4508 -1.5421 -0.4545
15505TIP3   OH268005   1.844   2.195  13.851  0.1642 -0.0837  0.3458
15505TIP3    H168006   1.831   2.250  13.774 -2.2625 -0.0360  0.7149
15505TIP3    H268007   1.939   2.197  13.867  0.3515  2.6035 -0.6417
15506TIP3   OH268008   3.485   0.692  11.179 -0.0965 -0.3220 -0.5719
15506TIP3    H168009   3.551   0.747  11.136  1.0451  0.3408  1.8489
15506TIP3    H268010   3.402   0.739  11.166  0.9163  2.4556  1.9244
15507TIP3   OH268011   2.475   6.531  14.821  0.0543  0.1189 -0.9210
15507TIP3    H168012   2.479   6.465  14.890  0.4850 -0.5532 -1.5699
15507TIP3    H268013   2.433   6.486  14.747 -1.2587  1.1106 -0.8051
15508TIP3   OH268014   5.085   1.285   1.530  0.5967  0.8886 -0.1609
15508TIP3    H168015   5.068   1.317   1.618  0.3950  0.4514 -0.0389
15508TIP3    H268016   5.180   1.288   1.521  0.5445  2.2420 -0.4319
15509TIP3   OH268017   1.369   1.986   1.505  0.5271  0.3290 -0.4029
15509TIP3    H168018   1.397   2.047   1.573  0.1874 -1.2256  1.1964
15509TIP3    H268019   1.361   1.902   1.550 -0.8399 -0.5240 -2.1262
15510TIP3   OH268020   0.684   2.463  12.803  0.1190  0.2415  0.3170
15510TIP3    H168021   0.704   2.422  12.719 -1.3602 -0.7175  0.3908
15510TIP3    H268022   0.759   2.520  12.820  0.8198 -0.1383 -1.2627
15511TIP3   OH268023   1.677   2.238  14.831  0.6007 -0.3234 -0.2319
15511TIP3    H168024   1.772   2.241  14.820  0.4686 -0.5488 -1.5437
15511TIP3    H268025   1.664   2.226  14.925  1.8278  1.8133  0.2636
15512TIP3   OH268026   1.519   0.116   0.580 -0.3494 -0.2802 -0.5359
15512TIP3    H168027   1.497   0.166   0.658  0.7365 -0.1496 -0.3036
15512TIP3    H268028   1.520   0.025   0.610  1.1238 -0.1499 -0.1227
15513TIP3   OH268029   6.800   6.773   5.604 -0.2553  0.0181 -0.5834
15513TIP3    H168030   6.836   6.702   5.551 -2.0659  0.0824 -1.9954
15513TIP3    H268031   6.758   6.832   5.540 -1.3968  0.7863  0.8066
15514TIP3   OH268032   1.142   6.472  15.628 -0.1762  0.3125 -0.3537
15514TIP3    H168033   1.184   6.557  15.615  0.1415 -0.1076 -2.4962
15514TIP3    H268034   1.049   6.490  15.626 -0.1092  0.7333  0.2237
15515TIP3   OH268035   4.748   4.991  11.139 -0.0740  0.5653 -0.2092
15515TIP3    H168036   4.748   5.051  11.213 -1.1509 -0.0231  0.2914
15515TIP3    H268037   4.802   4.918  11.167 -1.7927 -0.4254  0.6866
15516TIP3   OH268038   2.899   0.702   2.038  0.2099  0.6927  0.0165
15516TIP3    H168039   2.909   0.702   1.943 -1.6425  1.4754 -0.2096
15516TIP3    H268040   2.925   0.790   2.066 -0.7998  0.9966  0.0291
15517TIP3   OH268041   6.415   5.009  12.251  0.4027 -0.3573 -0.3513
15517TIP3    H168042   6.453   4.923  12.268  1.3908  0.2239  0.4927
15517TIP3    H268043   6.324   5.001  12.280  0.4913 -1.0929 -0.2463
15518TIP3   OH268044   4.664   5.808   3.453  0.7565  0.6095  0.0289
15518TIP3    H168045   4.673   5.761   3.536  0.0290 -0.4967 -0.5008
15518TIP3    H268046   4.712   5.890   3.467 -0.5605  1.1286  2.0672
15519TIP3   OH268047   1.092   4.056   5.278 -0.5522  0.2524 -0.1726
15519TIP3    H168048   1.131   4.006   5.349  0.2214 -0.0837 -0.8138
15519TIP3    H268049   1.009   4.012   5.261 -0.2026 -0.3934 -0.2549
15520TIP3   OH268050   3.214   0.607  12.347 -0.1322  0.9667  0.0684
15520TIP3    H168051   3.279   0.653  12.294  0.6025 -0.7690 -0.6241
15520TIP3    H268052   3.133   0.655  12.333  0.9097  2.9999  0.7057
15521TIP3   OH268053   2.200   4.849  10.979 -0.0953 -0.2384 -0.1952
15521TIP3    H168054   2.129   4.838  10.916 -1.5435  1.3843  1.0679
15521TIP3    H268055   2.220   4.760  11.008 -1.4041 -0.7510 -0.7927
15522TIP3   OH268056   2.995   3.753   2.009  0.0300  0.1411 -0.2413
15522TIP3    H168057   3.054   3.677   2.012  0.9295  0.7207 -1.8283
15522TIP3    H268058   2.949   3.744   1.926 -1.3410  0.3022  0.4785
15523TIP3   OH268059   4.363   2.278   0.234 -0.6150  0.0741  0.0699
15523TIP3    H168060   4.415   2.350   0.198 -1.9277  1.2816  0.4740
15523TIP3    H268061   4.413   2.199   0.213  1.0568  1.1175 -0.0695
15524TIP3   OH268062   2.459   5.738   5.395  0.0372 -0.3186  0.6602
15524TIP3    H168063   2.472   5.724   5.488  0.5038  1.5765  0.9119
15524TIP3    H268064   2.534   5.791   5.367 -1.2664  1.1361 -0.2588
15525TIP3   OH268065   6.043   5.581   2.053 -0.3345  0.4488  0.2678
15525TIP3    H168066   6.012   5.588   1.963 -1.1097 -1.4788  0.3357
15525TIP3    H268067   6.021   5.492   2.079  0.9280  0.5908  1.9877
15526TIP3   OH268068   3.608   1.447   2.056 -0.5340  0.6953  0.5933
15526TIP3    H168069   3.703   1.453   2.062 -0.4512 -1.0364  1.6631
15526TIP3    H268070   3.590   1.438   1.963  0.3819  0.6581  0.4125
15527TIP3   OH268071   0.032   6.688  13.179  0.9389 -0.4924 -0.1623
15527TIP3    H168072   0.035   6.656  13.089  1.3003 -0.2061 -0.2556
15527TIP3    H268073   0.123   6.683  13.209  0.9736  0.2391 -0.1107
15528TIP3   OH268074   4.653   6.481   5.779  0.0372  0.1871  1.1175
15528TIP3    H168075   4.743   6.492   5.810  0.5158  0.8949 -0.4009
15528TIP3    H268076   4.625   6.570   5.756 -0.4511 -0.2290  0.0263
15529TIP3   OH268077   2.205   3.062  14.831  0.4975 -0.5317 -0.3604
15529TIP3    H168078   2.264   3.079  14.904  1.0570  0.1860 -0.9583
15529TIP3    H268079   2.185   2.969  14.838 -0.0328 -0.3291  1.1133
15530TIP3   OH268080   4.098   1.002   2.463 -0.5220 -0.0701  0.7100
15530TIP3    H168081   4.140   1.050   2.391 -2.8518 -2.6410 -2.7223
15530TIP3    H268082   4.016   1.050   2.477 -0.2429  0.2044  1.4262
15531TIP3   OH268083   2.427   3.705   0.161 -0.8025 -0.0777  0.3989
15531TIP3    H168084   2.433   3.625   0.109 -0.9239 -0.0960  0.4131
15531TIP3    H268085   2.334   3.727   0.161 -0.4988  1.6088 -1.9461
15532TIP3   OH268086   0.223   3.195  13.751 -0.5610 -0.8036 -0.6216
15532TIP3    H168087   0.280   3.202  13.675 -0.1445  1.7780 -0.1695
15532TIP3    H268088   0.194   3.285  13.767  0.8027 -0.9136  3.3520
15533TIP3   OH268089   3.400   5.697  11.841 -0.2433 -0.2748 -0.9830
15533TIP3    H168090   3.362   5.764  11.898  2.0250  0.0364  0.2840
15533TIP3    H268091   3.325   5.649  11.807 -1.7841  0.7387  0.7908
15534TIP3   OH268092   5.172   2.512  14.731 -0.5371 -0.3374  0.0682
15534TIP3    H168093   5.134   2.548  14.651  2.0511  0.7591 -0.7695
15534TIP3    H268094   5.237   2.449  14.700  0.6916  0.2823  1.2816
15535TIP3   OH268095   0.290   2.655   4.681 -0.1355 -0.2856 -0.0217
15535TIP3    H168096   0.249   2.597   4.617  0.7314 -0.9290 -0.0087
15535TIP3    H268097   0.276   2.743   4.646 -0.6464 -0.5594 -0.5179
15536TIP3   OH268098   4.330   6.383   2.901  0.0323  0.2845  0.6279
15536TIP3    H168099   4.324   6.292   2.873 -1.8858 -0.6395  3.5893
15536TIP3    H268100   4.292   6.433   2.830 -0.6366 -1.4212 -0.2589
15537TIP3   OH268101   0.717   1.887  12.359  0.3291  0.5009 -0.1324
15537TIP3    H168102   0.631   1.854  12.383  0.7480 -2.2205 -1.9835
15537TIP3    H268103   0.779   1.827  12.400  1.3132  1.3496 -0.3148
15538TIP3   OH268104   2.414   1.054   1.460 -0.3958  0.4129  0.8432
15538TIP3    H168105   2.335   1.082   1.508 -0.8938 -0.6976  0.7194
15538TIP3    H268106   2.384   1.044   1.370  0.0773  0.7106  0.6555
15539TIP3   OH268107   4.959   5.496   1.182  0.7904 -0.0548 -0.0718
15539TIP3    H168108   4.905   5.513   1.105  0.7939  1.3204  0.1875
15539TIP3    H268109   4.957   5.579   1.231 -2.5045 -1.9596  3.5358
15540TIP3   OH268110   1.896   1.482   5.405 -0.0664 -0.4863  0.3267
15540TIP3    H168111   1.838   1.434   5.347  0.1167 -1.2038  0.7324
15540TIP3    H268112   1.938   1.547   5.348  0.7232 -1.6997 -0.5325
15541TIP3   OH268113   4.309   1.383  14.256 -0.0259 -0.3082  0.5283
15541TIP3    H168114   4.298   1.473  14.287  2.8097 -0.3264  1.8550
15541TIP3    H268115   4.219   1.352  14.243 -1.1133  2.5417  0.3832
15542TIP3   OH268116   1.777   2.939  16.588  0.0398 -0.2698 -0.6295
15542TIP3    H168117   1.810   3.026  16.609  1.8566 -0.9364 -0.5848
15542TIP3    H268118   1.795   2.887  16.667 -1.6380 -0.5581 -0.3929
15543TIP3   OH268119   4.726   6.504  14.567 -0.4713 -0.3943 -0.0953
15543TIP3    H168120   4.652   6.448  14.592 -0.3486 -0.6403 -0.2798
15543TIP3    H268121   4.803   6.457  14.600 -0.3327 -0.5646 -0.6536
15544TIP3   OH268122   3.048   2.003  16.565  0.4279  0.1964  0.6625
15544TIP3    H168123   3.119   1.958  16.520  0.5578 -0.6361  1.6638
15544TIP3    H268124   2.970   1.951  16.545  0.1518  0.8813 -0.1049
15545TIP3   OH268125   2.237   5.060   1.302 -0.1614 -0.2854 -0.2210
15545TIP3    H168126   2.216   5.071   1.209 -2.7204  0.4526  0.3647
15545TIP3    H268127   2.324   5.021   1.302 -1.3519 -3.4451 -3.0236
15546TIP3   OH268128   0.695   2.101   2.048  0.0786 -0.1254  0.3170
15546TIP3    H168129   0.656   2.183   2.019 -0.1729  0.2868  1.7554
15546TIP3    H268130   0.627   2.035   2.030  0.3337 -0.0748 -0.9612
15547TIP3   OH268131   3.822   2.638  11.725 -0.0847  0.2234  0.2039
15547TIP3    H168132   3.803   2.544  11.733  0.9786  0.1049  1.8019
15547TIP3    H268133   3.736   2.679  11.713 -0.5577 -0.9530 -0.5978
15548TIP3   OH268134   2.488   6.780   1.710  0.4795 -0.0875  0.2821
15548TIP3    H168135   2.421   6.838   1.675  0.6216 -0.0525  0.0698
15548TIP3    H268136   2.447   6.741   1.788  0.7397  1.0562  1.0118
15549TIP3   OH268137   2.006   2.936  10.163 -0.3825  0.1524 -0.4162
15549TIP3    H168138   2.046   2.875  10.225 -0.3638 -0.7060 -1.2461
15549TIP3    H268139   2.035   3.022  10.192  0.5721 -0.3229  0.0745
15550TIP3   OH268140   2.755   0.298  15.330  0.0007 -0.1026 -0.3589
15550TIP3    H168141   2.694   0.301  15.404 -1.4996 -2.2638 -1.3995
15550TIP3    H268142   2.738   0.378  15.281 -0.0500  0.6203  0.7852
15551TIP3   OH268143   5.166   5.231   1.850 -0.3706 -0.6621  0.1219
15551TIP3    H168144   5.194   5.321   1.869  1.5393 -1.1038 -0.3624
15551TIP3    H268145   5.085   5.220   1.900 -1.5255  1.8211 -1.0189
15552TIP3   OH268146   5.292   5.061  15.803  0.1860  0.0320  0.4114
15552TIP3    H168147   5.207   5.019  15.789  0.2675 -0.5544  1.5411
15552TIP3    H268148   5.300   5.068  15.898  1.4440 -0.0279  0.3267
15553TIP3   OH268149   5.406   2.815   0.289 -0.0651 -0.2305 -0.6797
15553TIP3    H168150   5.420   2.909   0.286 -0.4523 -0.1169  0.6017
15553TIP3    H268151   5.312   2.804   0.303  0.0600 -0.7877 -0.2335
15554TIP3   OH268152   2.233   3.466  10.956 -0.4771 -0.4712  0.2210
15554TIP3    H168153   2.287   3.399  10.999 -0.5682 -1.5991 -1.3410
15554TIP3    H268154   2.266   3.468  10.866 -0.7758  1.2979  0.1287
15555TIP3   OH268155   4.201   5.258  14.734  0.2027 -0.5440  0.0803
15555TIP3    H168156   4.114   5.276  14.771 -0.1235 -2.0288  0.0726
15555TIP3    H268157   4.190   5.177  14.685  0.8361  0.8477 -2.5855
15556TIP3   OH268158   3.947   1.767  16.425  0.1794 -0.2050  0.0931
15556TIP3    H168159   4.023   1.731  16.470 -0.0495 -0.5502  0.2105
15556TIP3    H268160   3.977   1.850  16.389  1.2476 -1.2744 -1.6749
15557TIP3   OH268161   5.528   4.031   1.641 -0.2007  0.1366 -0.4860
15557TIP3    H168162   5.525   4.045   1.736  1.1325  1.6712 -0.6368
15557TIP3    H268163   5.452   3.976   1.623 -0.2160 -0.5786  1.5314
15558TIP3   OH268164   4.701   3.459   3.054  0.3021 -0.2446 -0.4265
15558TIP3    H168165   4.715   3.365   3.066  2.1632  0.0617  0.2306
15558TIP3    H268166   4.789   3.497   3.059 -0.4442  1.5805 -0.2577
15559TIP3   OH268167   0.603   5.212   3.027 -0.3485 -0.3190 -0.3999
15559TIP3    H168168   0.554   5.284   3.065 -1.0341 -2.4142  3.2550
15559TIP3    H268169   0.694   5.229   3.051 -0.1974  0.2914 -1.3579
15560TIP3   OH268170   3.485   1.212  11.757  0.3600 -0.1075  0.4123
15560TIP3    H168171   3.395   1.214  11.725  1.0636  0.1837 -1.6841
15560TIP3    H268172   3.517   1.125  11.734  1.3078  0.5822 -0.9955
15561TIP3   OH268173   6.223   1.582   1.470 -0.0561  0.2389 -1.0657
15561TIP3    H168174   6.317   1.597   1.475  0.0144 -0.6436  0.9785
15561TIP3    H268175   6.213   1.489   1.450 -0.4257 -0.2177  0.9608
15562TIP3   OH268176   4.472   1.824   5.687 -0.3014  0.3227 -0.0348
15562TIP3    H168177   4.513   1.738   5.691 -0.5851  0.1299 -1.1068
15562TIP3    H268178   4.480   1.858   5.777 -1.6081 -1.4595  0.8075
15563TIP3   OH268179   0.982   1.973  13.685  0.2782  0.2801 -0.8954
15563TIP3    H168180   0.997   2.045  13.624 -1.2554  0.9163 -0.5684
15563TIP3    H268181   0.926   1.913  13.637 -0.3526  0.4419 -0.3752
15564TIP3   OH268182   0.519   3.624  15.183  0.4987  0.5075  0.5671
15564TIP3    H168183   0.566   3.557  15.232  0.8803 -0.0776 -0.5870
15564TIP3    H268184   0.564   3.706  15.205  0.7185  0.2415  1.1226
15565TIP3   OH268185   4.239   5.904  13.896 -0.6824  0.3142  0.5589
15565TIP3    H168186   4.177   5.965  13.856  0.7992  0.3900 -1.8459
15565TIP3    H268187   4.218   5.820  13.856  1.9466  0.7013 -2.0289
15566TIP3   OH268188   3.627   0.586   6.099 -0.0176 -0.2619 -0.4867
15566TIP3    H168189   3.548   0.534   6.118  0.3983 -1.3889 -1.6756
15566TIP3    H268190   3.595   0.675   6.091 -1.1253 -0.6439 -0.5569
15567TIP3   OH268191   0.147   4.542   4.370  0.0928  0.2128  0.7368
15567TIP3    H168192   0.183   4.547   4.281  1.1450  0.7700  1.1828
15567TIP3    H268193   0.173   4.456   4.402  1.3220  0.7116  1.1546
15568TIP3   OH268194   5.728   4.340  15.455 -0.6478 -0.1659 -0.3155
15568TIP3    H168195   5.761   4.354  15.367 -1.1593  1.9702 -0.2334
15568TIP3    H268196   5.634   4.325  15.443 -0.5497 -0.9239 -0.1892
15569TIP3   OH268197   0.691   1.822   5.530  0.5953 -0.1853 -0.7313
15569TIP3    H168198   0.646   1.744   5.498  0.2002 -0.4465  0.4060
15569TIP3    H268199   0.628   1.893   5.519 -0.1331 -0.5442  0.8238
15570TIP3   OH268200   2.740   5.634   1.981 -0.3107  0.5726 -0.1291
15570TIP3    H168201   2.672   5.572   1.952  1.0044 -0.4693 -1.1235
15570TIP3    H268202   2.783   5.660   1.900  0.6702  0.9804  0.5154
15571TIP3   OH268203   4.870   1.923  11.649  0.8152 -0.4557  0.4027
15571TIP3    H168204   4.909   1.954  11.567 -1.1711 -0.1994 -0.5155
15571TIP3    H268205   4.823   1.843  11.625 -0.2592 -0.0723  1.1336
15572TIP3   OH268206   6.251   1.936   4.798  0.0083  0.1991 -0.2128
15572TIP3    H168207   6.320   1.875   4.772 -1.3588 -0.9454 -1.3183
15572TIP3    H268208   6.236   1.990   4.721  0.3041  1.1089  0.3415
15573TIP3   OH268209   6.804   2.627   3.308 -0.3556 -0.2609 -0.4119
15573TIP3    H168210   6.803   2.697   3.373 -0.6995 -0.4389 -0.2244
15573TIP3    H268211   6.715   2.592   3.308 -0.5548  0.2048 -1.4927
15574TIP3   OH268212   4.392   2.527  16.618 -0.0090  0.0842 -0.2025
15574TIP3    H168213   4.418   2.612  16.653 -0.0600  0.0155 -0.0004
15574TIP3    H268214   4.373   2.545  16.525  1.8060 -0.0652 -0.6523
15575TIP3   OH268215   5.466   4.408   4.019  0.3884 -0.0485 -0.4729
15575TIP3    H168216   5.449   4.455   4.100  2.0453 -3.0913  1.8656
15575TIP3    H268217   5.545   4.448   3.983 -0.3822  1.3481 -0.6808
15576TIP3   OH268218   5.320   5.138  11.355 -0.2653  0.2547 -0.2041
15576TIP3    H168219   5.306   5.118  11.262  1.1199 -0.8126 -0.2239
15576TIP3    H268220   5.234   5.129  11.395 -0.5751 -1.0573 -1.0966
15577TIP3   OH268221   2.751   3.391   2.885  0.0997  0.0637 -0.0394
15577TIP3    H168222   2.802   3.449   2.941 -1.8820  1.7349  0.1245
15577TIP3    H268223   2.732   3.443   2.807 -0.0298 -1.0864 -0.8015
15578TIP3   OH268224   6.101   5.694  14.719  0.2754  0.1293 -0.3446
15578TIP3    H168225   6.168   5.759  14.700  1.1785 -0.6107  0.2414
15578TIP3    H268226   6.119   5.621  14.659 -0.2072  0.0602 -0.4138
15579TIP3   OH268227   3.320   4.464  11.656 -0.1354  0.4349 -0.3649
15579TIP3    H168228   3.410   4.495  11.664  0.4414 -1.1208 -0.4749
15579TIP3    H268229   3.278   4.491  11.737  0.5757  0.7107 -0.0809
15580TIP3   OH268230   3.801   2.193   3.945  0.1963  0.3200  0.6148
15580TIP3    H168231   3.854   2.263   3.982  1.4238 -0.9960  1.4688
15580TIP3    H268232   3.767   2.146   4.021  0.6392 -0.9063  0.0755
15581TIP3   OH268233   2.837   3.556   2.603  0.0416 -0.1323  0.0771
15581TIP3    H168234   2.745   3.537   2.581  0.3564 -1.2109 -0.3714
15581TIP3    H268235   2.853   3.642   2.566 -0.9113  0.2543  0.5266
15582TIP3   OH268236   3.320   5.786  14.913 -0.1048  0.5739 -0.2178
15582TIP3    H168237   3.299   5.700  14.950 -3.6791  2.4261  2.6228
15582TIP3    H268238   3.400   5.812  14.958  0.7765 -0.9871 -0.7906
15583TIP3   OH268239   2.070   4.894   5.096 -0.4208  0.1747 -0.0638
15583TIP3    H168240   2.125   4.816   5.089 -0.7338 -0.1227  0.7042
15583TIP3    H268241   2.111   4.957   5.037 -1.5871 -1.3757 -2.6886
15584TIP3   OH268242   0.280   2.915  14.232  0.8389  0.3377  0.1785
15584TIP3    H168243   0.200   2.863  14.224  1.1001 -0.3974  1.9861
15584TIP3    H268244   0.262   2.979  14.300  0.4570  2.8780 -2.1581
15585TIP3   OH268245   5.715   6.492  11.721  0.0816 -0.4866 -0.0771
15585TIP3    H168246   5.779   6.425  11.743  1.1051  0.0417 -1.2833
15585TIP3    H268247   5.668   6.509  11.803  0.4726 -1.9409  0.4754
15586TIP3   OH268248   2.496   0.934  12.179  0.2802  1.0394 -0.1322
15586TIP3    H168249   2.558   0.905  12.112 -0.9105  0.2967 -0.9564
15586TIP3    H268250   2.415   0.950  12.131 -1.3396 -1.7891  1.3875
15587TIP3   OH268251   0.158   3.040  10.769 -0.0100  0.2084 -0.0926
15587TIP3    H168252   0.081   3.030  10.714  0.2061 -1.7003 -0.0955
15587TIP3    H268253   0.232   3.020  10.712  0.1587 -2.9265  1.0642
15588TIP3   OH268254   2.689   6.566   5.062 -0.2468  0.2358 -0.2982
15588TIP3    H168255   2.782   6.549   5.070 -0.2209  0.5619  0.0952
15588TIP3    H268256   2.648   6.480   5.073 -0.1192  0.3808  1.6840
15589TIP3   OH268257   2.647   5.943   4.287  0.6939  0.8680 -0.2964
15589TIP3    H168258   2.621   6.009   4.223  0.7240  2.0757  0.9061
15589TIP3    H268259   2.735   5.917   4.260  0.2465  0.4690 -1.4280
15590TIP3   OH268260   0.490   6.782   1.542 -0.1457  0.0104 -0.4092
15590TIP3    H168261   0.570   6.751   1.585  0.7820  0.2858 -1.8713
15590TIP3    H268262   0.429   6.798   1.614  1.0450 -0.3686  0.7293
15591TIP3   OH268263   1.407   1.183   4.756 -0.2901  0.4602 -0.2401
15591TIP3    H168264   1.435   1.111   4.813  1.3597  1.4983  0.3238
15591TIP3    H268265   1.346   1.234   4.809 -1.4995 -0.5029 -0.6569
15592TIP3   OH268266   1.351   0.317  12.659 -0.0907  0.2240  0.1178
15592TIP3    H168267   1.340   0.353  12.571 -1.4644 -1.5661 -0.5152
15592TIP3    H268268   1.416   0.248  12.650 -1.1528 -0.8300  0.1831
15593TIP3   OH268269   2.216   2.458   3.997 -0.3236 -0.0368  0.7000
15593TIP3    H168270   2.309   2.433   3.996 -0.2471  0.2457  0.6153
15593TIP3    H268271   2.183   2.425   4.080  0.1953  1.0907  1.3754
15594TIP3   OH268272   2.589   5.298   1.920  0.5397 -0.4869 -0.0735
15594TIP3    H168273   2.635   5.240   1.860  1.4906 -1.0896  1.2085
15594TIP3    H268274   2.563   5.373   1.866  1.1743 -1.1092 -1.2711
15595TIP3   OH268275   2.252   1.428  13.218  0.1151  0.1578  0.7196
15595TIP3    H168276   2.271   1.479  13.139  0.6631 -0.7533  0.2471
15595TIP3    H268277   2.158   1.412  13.213  0.2924 -0.6608 -0.2357
15596TIP3   OH268278   1.574   6.716   1.158  0.0028 -0.1970  0.0474
15596TIP3    H168279   1.565   6.768   1.238 -0.8642  0.7840 -0.6602
15596TIP3    H268280   1.559   6.626   1.186  1.0230 -0.0323  1.2113
15597TIP3   OH268281   3.111   5.122  11.480 -0.4348  0.3078 -0.3178
15597TIP3    H168282   3.174   5.063  11.520 -0.8304  0.1512  0.0933
15597TIP3    H268283   3.156   5.206  11.474 -0.2760  0.2636  0.2189
15598TIP3   OH268284   5.863   4.894   2.832  0.4096 -0.5997 -0.0346
15598TIP3    H168285   5.944   4.937   2.857 -0.0643 -0.4190  1.2816
15598TIP3    H268286   5.859   4.816   2.887 -1.1468  0.3197  1.2587
15599TIP3   OH268287   2.667   3.438   0.707 -0.1555  0.0231  0.2895
15599TIP3    H168288   2.574   3.419   0.703  0.0472 -0.9920  0.2437
15599TIP3    H268289   2.708   3.356   0.735  0.8726 -0.0460 -1.2732
15600TIP3   OH268290   6.466   6.839  14.439 -1.2254 -0.7771 -0.1928
15600TIP3    H168291   6.469   6.897  14.516  0.7188 -0.8763 -0.1455
15600TIP3    H268292   6.528   6.879  14.378 -1.4623 -1.6622 -1.0190
15601TIP3   OH268293   0.422   2.560   2.508  0.0877  0.3183  0.1166
15601TIP3    H168294   0.338   2.605   2.506 -1.4899 -2.1766  2.7136
15601TIP3    H268295   0.443   2.553   2.601  2.1747 -0.8797 -0.3692
15602TIP3   OH268296   5.336   3.756   1.639 -0.3778  0.3231 -0.3622
15602TIP3    H168297   5.318   3.828   1.699  0.3099  0.5220 -0.3887
15602TIP3    H268298   5.364   3.684   1.695  0.5853  0.6121 -0.4623
15603TIP3   OH268299   5.968   1.544   2.981 -0.0066  0.1952  0.1477
15603TIP3    H168300   5.903   1.547   2.911  0.3486  1.1638 -0.1603
15603TIP3    H268301   6.053   1.549   2.936  0.2956 -1.1055  0.5400
15604TIP3   OH268302   6.551   0.489  11.826  0.6165  0.3470  0.2369
15604TIP3    H168303   6.505   0.442  11.895  1.7895  2.0592  2.3288
15604TIP3    H268304   6.510   0.576  11.825 -0.7604 -0.1896 -2.7493
15605TIP3   OH268305   3.116   3.891  10.760 -0.2761  0.5319 -0.4590
15605TIP3    H168306   3.037   3.875  10.709  0.5024 -2.5033 -0.9016
15605TIP3    H268307   3.188   3.881  10.697  0.5667  0.3186  0.5049
15606TIP3   OH268308   6.061   0.423   5.022 -0.0965 -0.1766 -0.0588
15606TIP3    H168309   6.038   0.484   5.093 -0.9100  0.9039 -1.2169
15606TIP3    H268310   5.993   0.355   5.025 -0.7965  0.4895 -0.5109
15607TIP3   OH268311   1.826   0.802  14.800  0.8526 -0.1267 -0.3020
15607TIP3    H168312   1.825   0.824  14.893  0.7369 -1.9759  0.1809
15607TIP3    H268313   1.776   0.720  14.794 -1.0773  1.0683 -2.3321
15608TIP3   OH268314   2.793   4.603  16.168 -0.1192 -0.5311 -0.2236
15608TIP3    H168315   2.781   4.667  16.098  3.2296 -1.1271 -1.5467
15608TIP3    H268316   2.840   4.651  16.237  3.6894 -1.6130 -1.7961
15609TIP3   OH268317   0.279   5.429   3.396 -0.1781 -0.0325 -0.4125
15609TIP3    H168318   0.355   5.427   3.454 -0.0720 -0.8433 -0.5639
15609TIP3    H268319   0.316   5.428   3.307 -0.2885 -3.5444 -0.5784
15610TIP3   OH268320   2.682   2.668   5.773 -0.4320  0.7127 -0.4263
15610TIP3    H168321   2.611   2.714   5.817 -0.5826 -0.3128  0.4416
15610TIP3    H268322   2.732   2.737   5.729 -1.7318  1.4937 -0.7394
15611TIP3   OH268323   2.055   6.414   0.262 -0.3154  0.3429  0.0443
15611TIP3    H168324   2.133   6.377   0.304  0.0846 -0.5600 -1.4482
15611TIP3    H268325   1.984   6.395   0.324  0.7917  2.6685  2.2655
15612TIP3   OH268326   0.965   0.894  14.536 -0.2193  0.2051 -0.0630
15612TIP3    H168327   0.929   0.953  14.470 -0.6346 -0.6098 -0.5873
15612TIP3    H268328   1.008   0.825  14.484 -0.0549 -0.1389  0.5250
15613TIP3   OH268329   2.036   1.329   2.166  0.2845 -0.0642 -0.2327
15613TIP3    H168330   2.120   1.341   2.122  0.0987  0.3218 -0.4817
15613TIP3    H268331   2.052   1.260   2.230  1.8189  2.4642  2.3378
15614TIP3   OH268332   1.646   1.652   1.240  0.2650  0.5623 -0.0759
15614TIP3    H168333   1.630   1.587   1.308  4.3367  1.1792  1.7650
15614TIP3    H268334   1.611   1.734   1.275 -0.3924  0.3071 -0.1323
15615TIP3   OH268335   3.356   5.332  14.043  0.6302 -0.1987 -0.2259
15615TIP3    H168336   3.363   5.410  14.099 -0.0996  0.1752 -0.6362
15615TIP3    H268337   3.277   5.288  14.073  2.1451 -1.9899  1.4472
15616TIP3   OH268338   3.417   2.994  11.846  0.4456 -0.2423  0.0094
15616TIP3    H168339   3.377   2.982  11.760  2.4658 -2.6152 -0.6833
15616TIP3    H268340   3.463   3.078  11.840  1.8458 -1.0919 -1.7911
15617TIP3   OH268341   5.883   6.387  15.088  0.5698  0.2181 -0.1561
15617TIP3    H168342   5.917   6.382  15.178  1.9875 -0.5085 -0.6987
15617TIP3    H268343   5.789   6.398  15.099  0.6737 -0.1679  1.4223
15618TIP3   OH268344   2.541   4.879   4.684 -0.4967  0.0222 -0.2751
15618TIP3    H168345   2.486   4.866   4.762 -3.1129  2.1089 -1.6091
15618TIP3    H268346   2.516   4.806   4.626  0.3660 -0.6857  0.2110
15619TIP3   OH268347   2.892   5.945   3.017 -1.1287  0.2640  0.0068
15619TIP3    H168348   2.809   5.929   3.062 -1.2789 -0.6121 -0.5597
15619TIP3    H268349   2.914   5.862   2.975 -0.6720  0.8682 -1.0128
15620TIP3   OH268350   5.638   4.515  16.121  0.5641  0.1180  0.1707
15620TIP3    H168351   5.625   4.420  16.126 -0.7159  0.2441 -0.4222
15620TIP3    H268352   5.688   4.528  16.040  1.7889 -0.1284  0.8647
15621TIP3   OH268353   1.271   1.464   1.218  0.3566 -0.0035 -0.3878
15621TIP3    H168354   1.337   1.512   1.267  1.1787  0.5734 -1.9725
15621TIP3    H268355   1.299   1.372   1.222  0.0998 -0.0438  0.6585
15622TIP3   OH268356   1.732   4.626  11.727  0.5807  0.0202  0.3361
15622TIP3    H168357   1.821   4.592  11.736  0.4144 -0.1694  1.3357
15622TIP3    H268358   1.695   4.577  11.654  0.9381 -0.6840  0.6218
15623TIP3   OH268359   5.929   6.232   4.087  0.4110 -0.8662 -0.3689
15623TIP3    H168360   5.902   6.314   4.046  0.4400 -0.0924  1.1007
15623TIP3    H268361   5.848   6.189   4.112  0.4068 -1.1026 -0.7823
15624TIP3   OH268362   0.481   2.747  11.317  0.2266  0.5328 -0.7103
15624TIP3    H168363   0.473   2.842  11.328  0.8775  0.5165 -0.0375
15624TIP3    H268364   0.573   2.729  11.337 -0.7203 -0.7772  3.3225
15625TIP3   OH268365   6.274   0.307   5.879  0.4500 -0.4289  0.1248
15625TIP3    H168366   6.200   0.259   5.915 -0.5921  0.9943 -0.0383
15625TIP3    H268367   6.320   0.342   5.955 -1.1742  1.7367  0.1786
15626TIP3   OH268368   1.669   0.507   5.773  0.1438  0.1619 -0.0886
15626TIP3    H168369   1.691   0.563   5.848 -2.3255  0.7676  0.2810
15626TIP3    H268370   1.689   0.418   5.802  0.4525  0.5203  0.8099
15627TIP3   OH268371   5.909   5.235   1.413 -0.2087 -0.2479 -0.3853
15627TIP3    H168372   6.005   5.228   1.410 -0.2425 -0.4004 -1.2255
15627TIP3    H268373   5.890   5.322   1.378 -0.3818 -0.2501 -0.2967
15628TIP3   OH268374   6.041   6.800   2.799 -0.0603  0.0789 -0.3944
15628TIP3    H168375   5.996   6.881   2.822 -2.0908 -1.1524  0.1647
15628TIP3    H268376   6.036   6.795   2.704  2.1186  1.6769 -0.6765
15629TIP3   OH268377   6.006   4.829   0.525  0.0616  0.5664 -0.0680
15629TIP3    H168378   6.006   4.736   0.499  0.6522  0.1959  1.1692
15629TIP3    H268379   5.932   4.838   0.584  1.9256 -0.0017  2.5624
15630TIP3   OH268380   0.126   6.292  13.843 -0.3726  0.6544 -0.4055
15630TIP3    H168381   0.187   6.365  13.849  0.5716 -0.0326 -1.3128
15630TIP3    H268382   0.057   6.313  13.906  0.3084  1.9066 -0.0470
15631TIP3   OH268383   3.809   6.399   1.424  0.1223  0.1401 -0.6028
15631TIP3    H168384   3.828   6.307   1.403 -0.2652  0.4103 -2.1871
15631TIP3    H268385   3.848   6.449   1.353 -0.1139  1.1921 -0.0147
15632TIP3   OH268386   3.178   4.335   3.300  0.6876 -0.3422 -0.3672
15632TIP3    H168387   3.193   4.286   3.219  0.0253 -0.4222 -0.4459
15632TIP3    H268388   3.116   4.404   3.275  1.7168  0.6444 -0.2907
15633TIP3   OH268389   6.829   3.804  14.909  0.1238 -0.0073  0.4046
15633TIP3    H168390   6.833   3.792  15.004  0.5801  1.9155  0.6776
15633TIP3    H268391   6.921   3.809  14.881 -0.0089 -0.3991 -0.1236
15634TIP3   OH268392   1.243   0.168   3.621 -0.6720  0.2741  0.1243
15634TIP3    H168393   1.301   0.229   3.668 -0.5846  0.0130  0.3569
15634TIP3    H268394   1.178   0.142   3.686 -0.2592 -0.4752  0.2372
15635TIP3   OH268395   3.891   4.764   1.119 -0.0178 -0.8831 -0.3664
15635TIP3    H168396   3.822   4.830   1.123  0.2757 -0.5879 -0.1346
15635TIP3    H268397   3.850   4.689   1.077 -0.4175 -0.6305 -0.4311
15636TIP3   OH268398   0.365   6.715   5.298  0.1452 -0.2002  0.2484
15636TIP3    H168399   0.281   6.761   5.294 -0.1551 -0.7824 -0.4222
15636TIP3    H268400   0.430   6.785   5.309 -0.3470  0.3384 -0.1932
15637TIP3   OH268401   5.255   3.479   5.098  0.3736 -0.0638  0.2561
15637TIP3    H168402   5.262   3.539   5.024  1.4174 -0.5988 -0.1018
15637TIP3    H268403   5.168   3.442   5.091  1.2381 -1.9047 -2.1652
15638TIP3   OH268404   4.161   0.396   0.799 -0.3999  0.2444  0.0309
15638TIP3    H168405   4.072   0.411   0.831  0.0784  0.9100  1.1037
15638TIP3    H268406   4.200   0.483   0.795  0.6582 -0.1586  0.9738
15639TIP3   OH268407   6.219   1.229   6.033 -0.2256  0.3885  0.0083
15639TIP3    H168408   6.196   1.183   6.114  2.3083 -0.3981  0.3629
15639TIP3    H268409   6.140   1.224   5.980 -1.5483 -0.2191  1.9064
15640TIP3   OH268410   3.516   5.544   3.709  0.4981  0.2174  0.0480
15640TIP3    H168411   3.576   5.600   3.660  2.1181 -0.1637  1.5028
15640TIP3    H268412   3.552   5.456   3.699 -1.4816 -0.4913 -1.4220
15641TIP3   OH268413   3.727   2.000  15.019  0.2215  0.2048  0.1992
15641TIP3    H168414   3.675   2.066  15.065 -1.5498 -0.3926 -0.8390
15641TIP3    H268415   3.795   1.974  15.081 -1.0666  0.6162  1.8418
15642TIP3   OH268416   2.064   6.117  12.198 -0.0155 -0.3741 -1.1110
15642TIP3    H168417   2.035   6.103  12.108  2.1340 -0.3023 -1.8912
15642TIP3    H268418   2.153   6.152  12.189 -0.0905  0.5507  1.0405
15643TIP3   OH268419   3.559   6.548  12.794  0.3414  0.0685 -0.3166
15643TIP3    H168420   3.486   6.606  12.771 -0.1636 -0.2550  0.4383
15643TIP3    H268421   3.535   6.463  12.757  0.3051 -0.0509 -0.0227
15644TIP3   OH268422   2.429   6.574   0.770 -0.1207 -0.1310 -0.0169
15644TIP3    H168423   2.364   6.641   0.750 -1.2668 -0.9918  0.6867
15644TIP3    H268424   2.506   6.599   0.719 -1.1381  0.6827 -1.2184
15645TIP3   OH268425   1.689   6.248  10.726  0.1177  0.0033  0.1277
15645TIP3    H168426   1.657   6.158  10.721 -0.8443  0.2857  0.9368
15645TIP3    H268427   1.784   6.239  10.734  0.2675 -0.8644 -2.0040
15646TIP3   OH268428   2.062   0.419   3.186  0.3020  0.2151  0.0564
15646TIP3    H168429   2.003   0.369   3.130 -0.6732  1.4848 -0.0980
15646TIP3    H268430   2.146   0.373   3.179 -0.4697 -1.2337 -0.2645
15647TIP3   OH268431   3.592   6.199   4.465  0.0574 -0.5804  0.0098
15647TIP3    H168432   3.518   6.191   4.524  0.4001  1.0722  0.7254
15647TIP3    H268433   3.669   6.177   4.518  0.2683 -0.2105 -0.1381
15648TIP3   OH268434   1.649   5.666  15.197  0.0316 -0.3580 -0.6013
15648TIP3    H168435   1.626   5.724  15.124  0.6624  1.3413  0.4757
15648TIP3    H268436   1.576   5.604  15.203 -1.4731  1.2897 -0.8679
15649TIP3   OH268437   2.295   6.829  13.912 -0.4361  0.4309 -0.2048
15649TIP3    H168438   2.212   6.788  13.938  1.5690 -1.4257  4.0916
15649TIP3    H268439   2.297   6.911  13.960 -0.1422  0.9620 -1.0967
15650TIP3   OH268440   5.197   1.220  16.280 -0.3258  0.1070  0.6890
15650TIP3    H168441   5.260   1.212  16.351 -1.7942 -1.1649  1.9362
15650TIP3    H268442   5.150   1.301  16.298 -1.1914 -0.5751  1.6592
15651TIP3   OH268443   6.576   1.427   6.248  0.4378  0.0124 -0.2081
15651TIP3    H168444   6.636   1.355   6.264  0.0917  0.1251  1.8217
15651TIP3    H268445   6.601   1.495   6.311 -0.4707  0.8960 -0.7504
15652TIP3   OH268446   3.195   1.837  15.928  0.8098  0.1076 -0.1350
15652TIP3    H168447   3.169   1.904  15.864  1.3554  1.7483  1.2925
15652TIP3    H268448   3.291   1.836  15.924  0.8016 -1.3689 -0.8591
15653TIP3   OH268449   2.934   0.328  13.247  0.1359  0.3790 -0.1677
15653TIP3    H168450   2.886   0.283  13.177  1.2205 -0.2226 -0.5493
15653TIP3    H268451   2.953   0.415  13.211 -0.9152  0.7448  0.1103
15654TIP3   OH268452   3.631   5.409  15.739 -0.0451  0.2054  0.0617
15654TIP3    H168453   3.544   5.373  15.756  0.6265 -2.3730 -1.4498
15654TIP3    H268454   3.673   5.412  15.825 -1.7294  2.0395  0.9115
15655TIP3   OH268455   0.206   3.411   2.628  0.0797  0.1678 -0.0267
15655TIP3    H168456   0.116   3.435   2.607 -0.1734 -1.3025 -0.7509
15655TIP3    H268457   0.255   3.426   2.547  0.5873  1.3879  0.4944
15656TIP3   OH268458   4.320   2.607   2.433  0.4345  0.2410  0.2154
15656TIP3    H168459   4.306   2.541   2.501 -0.4830  0.2318  0.0265
15656TIP3    H268460   4.280   2.570   2.354  0.9893  0.4987 -0.1955
15657TIP3   OH268461   4.116   0.844  12.339 -0.1059  0.6694 -0.2329
15657TIP3    H168462   4.124   0.866  12.432  0.5150 -0.0307 -0.1105
15657TIP3    H268463   4.021   0.846  12.323 -0.2722  0.1381  0.5837
15658TIP3   OH268464   5.941   6.224  10.592  0.5610 -0.0191 -0.3022
15658TIP3    H168465   5.984   6.301  10.553  1.2333  0.0820  0.5935
15658TIP3    H268466   5.977   6.220  10.681 -2.5749  1.1131  1.1756
15659TIP3   OH268467   2.238   1.752  16.376 -0.2391  0.7395 -0.8354
15659TIP3    H168468   2.190   1.681  16.420 -0.5782  1.3685 -0.1728
15659TIP3    H268469   2.190   1.831  16.400  0.1984  1.2059 -1.4884
15660TIP3   OH268470   1.658   6.626   6.571  0.1192 -0.1864  0.4012
15660TIP3    H168471   1.590   6.560   6.585  0.2654 -0.8630 -1.6960
15660TIP3    H268472   1.740   6.575   6.569  0.4328  0.3087  0.5912
15661TIP3   OH268473   3.358   5.963  16.124  0.1634 -0.1598  0.8057
15661TIP3    H168474   3.402   5.889  16.167  1.5692  1.2823  1.9900
15661TIP3    H268475   3.423   5.998  16.064  0.3253  1.4041  1.8395
15662TIP3   OH268476   6.075   1.757   4.873 -0.4261 -0.1767  0.2213
15662TIP3    H168477   6.127   1.828   4.834  1.3317 -0.9945  0.9707
15662TIP3    H268478   5.993   1.758   4.824 -0.3914  2.2443  0.0813
15663TIP3   OH268479   3.532   4.219   3.962  0.0714 -0.2207 -0.0035
15663TIP3    H168480   3.621   4.183   3.952  0.3103  0.3312  0.1403
15663TIP3    H268481   3.545   4.312   3.976 -0.4757 -0.3411  1.3873
15664TIP3   OH268482   1.276   4.417  15.534  0.6329 -0.9228  0.9115
15664TIP3    H168483   1.255   4.329  15.503  0.2388 -1.1137  1.6959
15664TIP3    H268484   1.323   4.457  15.461 -1.6827 -0.7621 -0.6153
15665TIP3   OH268485   4.864   4.296   5.669  0.2076 -0.5655 -0.1949
15665TIP3    H168486   4.895   4.305   5.760  0.3760  0.1547 -0.3137
15665TIP3    H268487   4.916   4.225   5.632  0.2131 -0.7918  0.2430
15666TIP3   OH268488   0.858   2.373  11.011  0.5352 -0.4716  0.3317
15666TIP3    H168489   0.870   2.352  11.103  0.9297 -1.1463  0.1321
15666TIP3    H268490   0.900   2.301  10.964  0.9583  0.2211 -0.3741
15667TIP3   OH268491   6.491   3.061   4.946  0.3274 -0.7999  0.0100
15667TIP3    H168492   6.430   3.134   4.941  0.4364 -0.7258 -0.2648
15667TIP3    H268493   6.479   3.026   5.034 -0.0734 -0.7574 -0.0261
15668TIP3   OH268494   1.633   3.528  15.253 -0.1648 -0.2709 -0.2095
15668TIP3    H168495   1.580   3.606  15.237  0.1771 -0.0372 -0.2041
15668TIP3    H268496   1.625   3.476  15.173 -2.4552 -1.4587  0.6924
15669TIP3   OH268497   2.731   2.590  12.809 -0.4939 -0.0579  0.6550
15669TIP3    H168498   2.741   2.499  12.780 -0.4243 -0.3473  1.5517
15669TIP3    H268499   2.652   2.621  12.764 -0.6808 -0.6529  0.5609
15670TIP3   OH268500   5.577   3.530   0.639 -0.3244 -0.3123  0.8078
15670TIP3    H168501   5.551   3.566   0.554 -0.6254  1.7647  1.7071
15670TIP3    H268502   5.625   3.450   0.618 -3.0934 -1.6352 -1.1687
15671TIP3   OH268503   3.900   4.076   4.500  0.1129 -0.3607  0.0746
15671TIP3    H168504   3.970   4.014   4.517 -0.6725 -1.7532 -1.4815
15671TIP3    H268505   3.921   4.113   4.415  0.3846  1.3186  0.8257
15672TIP3   OH268506   3.391   0.904   2.203  0.4418  0.3712  0.2034
15672TIP3    H168507   3.381   0.944   2.289 -0.6113  0.0959  0.2249
15672TIP3    H268508   3.457   0.957   2.158 -0.7725  2.0000  0.2896
15673TIP3   OH268509   2.335   4.258  13.939  0.2606  0.2220 -0.0952
15673TIP3    H168510   2.393   4.241  14.014 -0.0356 -0.8018 -0.0776
15673TIP3    H268511   2.385   4.317  13.883  1.9049 -1.6566 -0.7200
15674TIP3   OH268512   3.455   3.370   0.949  0.6971  0.0987 -0.7473
15674TIP3    H168513   3.368   3.358   0.911 -0.7648  0.9974  1.9698
15674TIP3    H268514   3.478   3.284   0.984  0.6420 -0.0096 -0.9771
15675TIP3   OH268515   3.967   1.713  11.739 -0.6260 -0.2361 -0.2829
15675TIP3    H168516   3.987   1.722  11.645 -1.8516  0.6425 -0.4806
15675TIP3    H268517   3.971   1.802  11.773  2.1866 -0.7658  1.0674
15676TIP3   OH268518   4.657   3.014  13.706 -0.2909  0.6339  0.9013
15676TIP3    H168519   4.651   3.019  13.610 -0.9168  1.7963  0.9784
15676TIP3    H268520   4.723   2.947  13.723 -0.1876  0.3999 -0.3455
15677TIP3   OH268521   5.616   4.532  16.483 -0.2968  0.1356 -0.3557
15677TIP3    H168522   5.633   4.581  16.402 -0.3189  0.7929  0.0337
15677TIP3    H268523   5.591   4.599  16.547 -0.0101 -0.3481  0.2751
15678TIP3   OH268524   2.708   4.038   5.038  0.0819 -0.1694 -0.1128
15678TIP3    H168525   2.791   4.086   5.028  0.2634  0.3962  2.8827
15678TIP3    H268526   2.660   4.088   5.104 -2.3981 -0.8752 -1.2652
15679TIP3   OH268527   0.191   1.617  14.565  0.0109 -0.4965  0.7207
15679TIP3    H168528   0.164   1.671  14.639  0.8196  0.3239  0.4282
15679TIP3    H268529   0.278   1.649  14.542  0.4880 -1.9123  0.5111
15680TIP3   OH268530   5.513   2.085   1.060  0.5061 -0.1866  0.1731
15680TIP3    H168531   5.584   2.024   1.042  1.2924  0.7516 -0.0055
15680TIP3    H268532   5.556   2.162   1.097 -0.5065  0.0784  0.8583
15681TIP3   OH268533   0.471   3.627   5.597 -0.0263 -0.0103  0.1216
15681TIP3    H168534   0.414   3.608   5.672  1.6466 -0.6820  1.2996
15681TIP3    H268535   0.534   3.691   5.630 -0.5773  1.3689 -1.3976
15682TIP3   OH268536   5.927   2.910   4.516 -0.1311 -0.0866 -0.0626
15682TIP3    H168537   5.839   2.905   4.480  0.5932 -0.9368 -1.8312
15682TIP3    H268538   5.945   3.004   4.523 -1.4223  0.1081  1.0402
15683TIP3   OH268539   3.516   3.683   0.981 -0.6479 -0.0748 -0.3887
15683TIP3    H168540   3.558   3.686   0.896  0.4580  1.0469  0.1695
15683TIP3    H268541   3.475   3.596   0.985 -1.2941  0.1060 -2.3033
15684TIP3   OH268542   1.996   6.378   2.342  0.3936 -0.0033  0.4942
15684TIP3    H168543   1.965   6.315   2.278  0.3911  0.0915  0.4027
15684TIP3    H268544   2.038   6.446   2.291 -1.1217  0.9518  0.4638
15685TIP3   OH268545   4.909   2.435  10.338 -0.0752 -0.4020  0.1137
15685TIP3    H168546   4.947   2.455  10.424 -0.3800 -0.2206  0.2088
15685TIP3    H268547   4.828   2.486  10.336  1.2557  1.7846 -1.3900
15686TIP3   OH268548   1.451   4.496   0.369  0.2387  0.5240  0.1704
15686TIP3    H168549   1.448   4.490   0.274  0.5460  0.5899  0.1557
15686TIP3    H268550   1.421   4.585   0.389  0.8056  0.7312  0.1000
15687TIP3   OH268551   2.254   4.594  16.177  0.1447 -0.1255  0.2034
15687TIP3    H168552   2.305   4.512  16.177 -0.2433 -0.3786  0.9621
15687TIP3    H268553   2.313   4.658  16.216  0.3397 -0.1157 -0.1046
15688TIP3   OH268554   1.327   1.992  12.725  0.4763 -0.7583  0.1095
15688TIP3    H168555   1.312   1.911  12.775 -0.1678  0.0226  1.2022
15688TIP3    H268556   1.241   2.017  12.693  0.9503 -1.6202 -2.0785
15689TIP3   OH268557   6.135   6.790   5.672  0.1201 -0.0595 -0.0172
15689TIP3    H168558   6.225   6.806   5.643  0.2192  0.4310  0.5360
15689TIP3    H268559   6.096   6.738   5.602  1.3693 -1.8412  0.5458
15690TIP3   OH268560   2.672   3.119  15.111 -0.0921 -0.2187  0.2238
15690TIP3    H168561   2.708   3.092  15.195  1.7276  2.6139  0.5015
15690TIP3    H268562   2.587   3.157  15.132 -0.6875 -1.5964  0.4039
15691TIP3   OH268563   3.996   1.382   5.433  0.7069  0.5384 -0.1618
15691TIP3    H168564   3.915   1.395   5.481  1.9204 -0.8278  2.4886
15691TIP3    H268565   3.973   1.398   5.342 -2.8850 -1.3009  0.2461
15692TIP3   OH268566   6.597   0.391  13.163  0.0469  0.0023  0.1069
15692TIP3    H168567   6.602   0.299  13.138  0.3250 -0.1298  0.6391
15692TIP3    H268568   6.548   0.391  13.246 -0.0362  0.3445  0.0634
15693TIP3   OH268569   0.244   4.450  16.265 -0.5093  0.6467 -0.4015
15693TIP3    H168570   0.285   4.475  16.182 -0.6428 -0.1938 -0.7232
15693TIP3    H268571   0.263   4.523  16.324  0.5137  0.7546 -0.8580
15694TIP3   OH268572   5.425   6.067   4.898 -0.7972  0.3133 -0.1443
15694TIP3    H168573   5.495   6.003   4.893 -1.2086 -0.0596 -3.9657
15694TIP3    H268574   5.469   6.152   4.900 -0.3046  0.0618  1.5190
15695TIP3   OH268575   5.126   0.216   6.061  0.0501 -0.1235  0.3669
15695TIP3    H168576   5.054   0.280   6.064  0.1845  0.3472 -2.7125
15695TIP3    H268577   5.204   0.269   6.047  0.3666 -0.8296 -0.6928
15696TIP3   OH268578   3.652   1.358   3.637 -0.9833 -0.3390  0.3070
15696TIP3    H168579   3.737   1.402   3.637 -1.0155 -0.2751 -0.0143
15696TIP3    H268580   3.663   1.285   3.697 -0.6762 -0.3771  0.2057
15697TIP3   OH268581   5.285   5.007   4.122  0.0583  0.1431 -0.1329
15697TIP3    H168582   5.221   4.954   4.170  0.9326 -0.2278  0.6587
15697TIP3    H268583   5.259   4.998   4.030  0.8471 -2.6780 -0.1743
15698TIP3   OH268584   5.394   5.658   3.262  0.0905 -0.2433  0.4667
15698TIP3    H168585   5.461   5.591   3.264  0.9176  0.5678  0.9188
15698TIP3    H268586   5.408   5.705   3.180 -1.0734 -1.1784 -0.2953
15699TIP3   OH268587   0.632   5.502   2.839  0.0141  0.1416  0.2430
15699TIP3    H168588   0.611   5.475   2.749  0.0424 -0.2141  0.3433
15699TIP3    H268589   0.553   5.481   2.889 -1.3045  3.2634 -0.2541
15700TIP3   OH268590   0.142   1.120   3.541  0.1246  0.3801 -1.0794
15700TIP3    H168591   0.074   1.182   3.517  0.8639  1.7867  0.2875
15700TIP3    H268592   0.210   1.131   3.475  0.6619  1.7561 -0.3364
15701TIP3   OH268593   2.106   1.930  13.719 -0.0435  0.2175  0.2397
15701TIP3    H168594   2.167   1.999  13.693  2.5647 -1.9503  0.0342
15701TIP3    H268595   2.156   1.849  13.708 -3.0793 -1.7935 -0.0363
15702TIP3   OH268596   5.337   4.725  10.952  0.8237 -0.0599 -0.1078
15702TIP3    H168597   5.409   4.677  10.993  0.9513  0.5567  0.4187
15702TIP3    H268598   5.268   4.660  10.938  1.0209 -0.4076  0.5179
15703TIP3   OH268599   6.662   5.486   1.580 -0.1727  0.2399  0.1866
15703TIP3    H168600   6.731   5.526   1.528  1.3976 -1.1778  1.0874
15703TIP3    H268601   6.669   5.392   1.561 -0.5831 -0.1345  1.7686
15704TIP3   OH268602   1.836   6.290  15.383  0.6545 -0.8273 -0.2896
15704TIP3    H168603   1.917   6.285  15.435  0.0672 -0.2443  0.7005
15704TIP3    H268604   1.768   6.257  15.442  0.0856 -0.8597 -0.9548
15705TIP3   OH268605   3.485   0.337   0.480 -0.5246  0.0665  0.2848
15705TIP3    H168606   3.484   0.243   0.460 -2.7968  0.4349 -1.7978
15705TIP3    H268607   3.577   0.361   0.476  0.0326 -1.9040 -0.0272
15706TIP3   OH268608   2.529   3.053   5.190  0.3456  0.2139 -0.1693
15706TIP3    H168609   2.512   3.065   5.096  2.1964  2.2422 -0.3225
15706TIP3    H268610   2.623   3.035   5.194  0.4827  1.1561  1.3540
15707TIP3   OH268611   1.446   0.960   4.364  0.4891 -0.0419  0.0185
15707TIP3    H168612   1.377   1.016   4.328  0.5941  0.2252  0.2342
15707TIP3    H268613   1.451   0.985   4.456  0.5927 -0.3496  0.0969
15708TIP3   OH268614   4.208   4.181  14.927  0.4291  0.5841  0.2268
15708TIP3    H168615   4.226   4.271  14.953 -0.0171  0.3339  1.4630
15708TIP3    H268616   4.115   4.182  14.902  1.0458  1.0277 -2.4127
15709TIP3   OH268617   1.127   2.630  14.507  0.3103 -0.3839 -0.3287
15709TIP3    H168618   1.033   2.616  14.500 -0.0929  0.7919  1.6872
15709TIP3    H268619   1.150   2.594  14.592  1.5232  0.0700 -0.4446
15710TIP3   OH268620   0.317   2.317  15.461 -0.3931 -0.3087 -0.3815
15710TIP3    H168621   0.408   2.285  15.457 -0.1969  0.2641 -0.6824
15710TIP3    H268622   0.280   2.294  15.376 -0.7759 -1.2397  0.0312
15711TIP3   OH268623   2.421   4.244   1.204 -0.1499  0.3310 -0.1815
15711TIP3    H168624   2.433   4.337   1.187 -0.8036  1.2121  3.4530
15711TIP3    H268625   2.327   4.234   1.217  0.1577 -0.2742  1.9010
15712TIP3   OH268626   6.709   4.445   2.797 -0.9526 -0.3315 -0.0972
15712TIP3    H168627   6.728   4.436   2.704  1.6095 -1.1006  0.4323
15712TIP3    H268628   6.682   4.537   2.807  1.4107  0.5573 -1.2210
15713TIP3   OH268629   1.992   0.304   2.526  0.3086 -0.0532  0.2273
15713TIP3    H168630   1.955   0.266   2.606  1.1628 -0.7387  0.3062
15713TIP3    H268631   1.959   0.394   2.526 -2.7890 -1.0443 -0.5984
15714TIP3   OH268632   4.488   5.932  16.721 -0.6476 -0.1297 -0.6039
15714TIP3    H168633   4.573   5.929  16.677 -1.0800 -1.7154 -1.4091
15714TIP3    H268634   4.429   5.884  16.663 -2.2802  1.4760 -0.3868
15715TIP3   OH268635   6.675   2.794  13.808  0.1415 -0.6205 -0.4446
15715TIP3    H168636   6.583   2.777  13.787 -0.2667  2.5077 -1.7800
15715TIP3    H268637   6.723   2.758  13.733 -0.4632  1.5958 -1.9998
15716TIP3   OH268638   0.804   5.608   0.976  0.0558  0.3105 -0.2278
15716TIP3    H168639   0.827   5.525   1.016 -3.4269 -0.2776  0.9316
15716TIP3    H268640   0.792   5.588   0.883 -1.8627 -0.8907  0.2038
15717TIP3   OH268641   4.799   6.652  11.938  0.7985 -0.4139 -0.0508
15717TIP3    H168642   4.835   6.734  11.971  1.3293 -0.1451 -1.2749
15717TIP3    H268643   4.874   6.604  11.903  0.3011 -0.8414 -0.5571
15718TIP3   OH268644   1.481   3.264  12.041 -0.2609 -0.3638  0.2791
15718TIP3    H168645   1.482   3.200  12.112  1.5587 -0.3205  0.3558
15718TIP3    H268646   1.456   3.346  12.083 -1.2395 -0.7403  0.4480
15719TIP3   OH268647   0.544   2.035   0.865  0.5883  0.0608 -0.2701
15719TIP3    H168648   0.625   2.073   0.899 -0.0217 -0.0342  1.4033
15719TIP3    H268649   0.504   2.106   0.815  1.4746  0.2554 -0.7210
15720TIP3   OH268650   2.401   5.267   2.148  0.3327 -0.1262  0.3628
15720TIP3    H168651   2.475   5.281   2.089 -0.4868 -1.0839 -0.9533
15720TIP3    H268652   2.330   5.239   2.090 -1.3551  1.6926  1.4414
15721TIP3   OH268653   6.453   4.226  13.543  0.6640 -0.1757  0.1849
15721TIP3    H168654   6.459   4.303  13.487  1.1605  1.5165  2.3969
15721TIP3    H268655   6.544   4.198  13.556  0.6341 -0.0222  0.7831
15722TIP3   OH268656   0.457   6.819   0.925 -0.0906  0.0345 -0.3761
15722TIP3    H168657   0.393   6.886   0.904 -1.4177 -1.3802 -1.0252
15722TIP3    H268658   0.540   6.867   0.933 -1.3010  2.0074  1.2429
15723TIP3   OH268659   5.890   1.591  12.843 -0.1784  0.0240  0.5988
15723TIP3    H168660   5.820   1.529  12.859 -0.1377 -0.6514 -1.4651
15723TIP3    H268661   5.846   1.676  12.837 -0.6969 -0.2606  0.2958
15724TIP3   OH268662   3.459   4.651   2.493  0.1496 -0.6364 -0.4530
15724TIP3    H168663   3.390   4.713   2.468  0.5457 -0.3731 -0.9237
15724TIP3    H268664   3.522   4.656   2.421  1.2755  0.0512  0.5491
15725TIP3   OH268665   5.197   2.228   0.626  0.1516 -0.2268  0.2189
15725TIP3    H168666   5.237   2.309   0.658 -1.2052 -0.2014  1.9810
15725TIP3    H268667   5.144   2.196   0.699  0.5617 -2.6773 -0.4449
15726TIP3   OH268668   4.910   2.346  14.444  0.2133 -0.0325  0.2335
15726TIP3    H168669   4.970   2.284  14.404 -0.2339 -2.7765  3.3744
15726TIP3    H268670   4.966   2.413  14.482  1.0601 -0.7874  0.3429
15727TIP3   OH268671   2.183   5.804  11.495 -0.3314  0.1504 -0.3562
15727TIP3    H168672   2.215   5.831  11.409 -0.9794 -2.6448 -1.5999
15727TIP3    H268673   2.152   5.714  11.482 -0.7485 -0.2755  2.7501
15728TIP3   OH268674   6.527   2.092   5.001  0.4560  0.2667  0.4395
15728TIP3    H168675   6.618   2.114   4.981  0.1665  0.6132 -0.5667
15728TIP3    H268676   6.476   2.137   4.934 -0.6162  1.6233  2.0812
15729TIP3   OH268677   2.233   4.837   1.661 -0.3607  0.2170 -0.6266
15729TIP3    H168678   2.311   4.892   1.653 -0.9289  1.3394  0.9175
15729TIP3    H268679   2.267   4.751   1.685  0.4474  0.4102 -1.0358
15730TIP3   OH268680   0.616   3.750   4.623  0.0569 -0.4300 -0.0956
15730TIP3    H168681   0.633   3.662   4.657  0.9924 -0.4966 -0.6754
15730TIP3    H268682   0.523   3.764   4.637  0.4669 -0.1505  3.1414
15731TIP3   OH268683   5.056   0.894   1.506 -0.1840  0.7827 -0.0999
15731TIP3    H168684   5.007   0.949   1.445  1.0874  3.0981  0.8169
15731TIP3    H268685   5.127   0.857   1.454 -0.9351  0.1290 -0.6835
15732TIP3   OH268686   6.506   5.689  11.114 -0.1821  0.0297  0.4287
15732TIP3    H168687   6.526   5.639  11.035 -0.0025 -0.9407  1.0688
15732TIP3    H268688   6.416   5.665  11.135  0.1697 -0.6748  1.1890
15733TIP3   OH268689   1.901   5.692  13.367  0.3929 -0.7759 -0.2705
15733TIP3    H168690   1.914   5.735  13.282  1.0900  0.6597  0.5279
15733TIP3    H268691   1.953   5.743  13.428 -1.9735 -0.2811  1.4886
15734TIP3   OH268692   2.121   6.759   5.480  0.1780  0.6701 -0.8189
15734TIP3    H168693   2.027   6.776   5.486  0.3046  0.8519  1.0856
15734TIP3    H268694   2.161   6.846   5.488  0.5640  0.3567  1.0562
15735TIP3   OH268695   5.251   1.650  14.581 -0.1871 -0.2598 -0.1137
15735TIP3    H168696   5.341   1.636  14.552  0.9736  2.3209  1.8544
15735TIP3    H268697   5.215   1.714  14.520 -0.0087  0.1523  0.2064
15736TIP3   OH268698   4.451   1.581   1.029  0.3725 -0.4555  0.1023
15736TIP3    H168699   4.376   1.555   1.082 -0.9875 -0.4209 -1.6924
15736TIP3    H268700   4.477   1.666   1.063 -0.2172 -0.6025  0.9401
15737TIP3   OH268701   1.550   3.397   0.014 -0.6677  0.0259 -0.8755
15737TIP3    H168702   1.458   3.381  -0.007 -0.3475 -2.4729 -0.6038
15737TIP3    H268703   1.586   3.311   0.036  0.9878  1.3355  2.1154
15738TIP3   OH268704   2.785   1.590   6.386 -0.0019 -0.7620 -0.0514
15738TIP3    H168705   2.811   1.642   6.310  0.7431 -0.3885  0.4438
15738TIP3    H268706   2.691   1.602   6.393 -0.1605 -1.2372 -1.2350
15739TIP3   OH268707   1.826   2.085   0.722  0.5949  0.4064 -0.0654
15739TIP3    H168708   1.754   2.024   0.709 -0.5662  0.9561  2.9272
15739TIP3    H268709   1.888   2.037   0.778 -1.1653  2.2730  3.8907
15740TIP3   OH268710   6.694   5.006   1.237  0.2989 -0.2915 -0.0013
15740TIP3    H168711   6.746   5.075   1.197 -0.8252  1.4493  1.4102
15740TIP3    H268712   6.690   4.937   1.171  2.7483  0.3164 -0.8644
15741TIP3   OH268713   3.670   4.009   1.802  0.6420 -0.3570  0.2858
15741TIP3    H168714   3.736   3.953   1.843  1.7824 -0.1000 -1.1394
15741TIP3    H268715   3.691   4.008   1.709  1.9139  3.8197  0.2953
15742TIP3   OH268716   0.558   5.679   4.112  0.4751  0.1758 -0.4844
15742TIP3    H168717   0.489   5.679   4.045 -0.2619  2.5932  0.1536
15742TIP3    H268718   0.626   5.736   4.075  0.5368  0.6624  0.3705
15743TIP3   OH268719   0.824   3.492   1.159 -0.1995  0.4407  0.2763
15743TIP3    H168720   0.788   3.560   1.102  0.9208  2.1007  1.4559
15743TIP3    H268721   0.750   3.435   1.178 -1.1897  1.3562 -0.7031
15744TIP3   OH268722   1.574   4.457  11.565  0.1841  0.0066 -0.0598
15744TIP3    H168723   1.518   4.417  11.632 -1.4293  0.9411 -0.8017
15744TIP3    H268724   1.612   4.382  11.518  0.7782 -0.6568  1.3906
15745TIP3   OH268725   6.201   3.243   5.298  0.4091 -0.3774 -0.4331
15745TIP3    H168726   6.145   3.317   5.322  0.6780  0.1773 -1.4640
15745TIP3    H268727   6.285   3.262   5.340  0.6767  0.2502 -1.2270
15746TIP3   OH268728   6.010   1.661  12.357 -0.8063  0.1643  0.2146
15746TIP3    H168729   5.976   1.584  12.403 -1.2306  1.2751  1.8461
15746TIP3    H268730   5.970   1.657  12.271 -0.8463 -1.4135  0.2802
15747TIP3   OH268731   1.372   1.443   5.297 -0.5110 -0.0075  0.5651
15747TIP3    H168732   1.343   1.423   5.386 -0.5191  0.6647  0.7190
15747TIP3    H268733   1.294   1.475   5.252 -0.5331 -0.4546  0.2798
15748TIP3   OH268734   6.343   2.708  14.887  0.0843 -0.8800 -0.0027
15748TIP3    H168735   6.373   2.788  14.930 -1.5914 -0.7204  0.9777
15748TIP3    H268736   6.368   2.720  14.795  0.6176  0.3929  0.2781
15749TIP3   OH268737   6.258   5.152  15.600  0.2635  0.1705 -0.2876
15749TIP3    H168738   6.174   5.181  15.563  0.2717 -0.0379 -0.4762
15749TIP3    H268739   6.313   5.136  15.523 -0.2454 -1.8875 -0.3042
15750TIP3   OH268740   4.548   4.128  14.707  0.3679  0.6407  0.1814
15750TIP3    H168741   4.619   4.098  14.650 -0.4076  1.7731 -1.4316
15750TIP3    H268742   4.579   4.108  14.795  1.9873 -0.3617 -0.5620
15751TIP3   OH268743   6.074   1.779   0.134 -0.9961 -0.3203  0.5544
15751TIP3    H168744   6.011   1.754   0.067 -0.8095 -0.7235  0.5273
15751TIP3    H268745   6.126   1.848   0.093 -0.3520 -1.1262 -0.0197
15752TIP3   OH268746   5.978   4.038  11.208  0.5941 -0.0158  0.1585
15752TIP3    H168747   5.924   4.032  11.129 -0.1758  1.4640  0.5293
15752TIP3    H268748   5.915   4.044  11.280  1.2647  0.4539  0.7171
15753TIP3   OH268749   1.481   3.904  12.753  0.4049  0.2887 -0.4623
15753TIP3    H168750   1.504   3.814  12.778  1.6463  0.2132 -1.7432
15753TIP3    H268751   1.406   3.894  12.694 -0.1663  0.1955  0.2631
15754TIP3   OH268752   1.823   2.299   2.692  0.1184  0.1898 -0.2785
15754TIP3    H168753   1.778   2.278   2.774  1.2683  0.7541  0.5230
15754TIP3    H268754   1.772   2.253   2.625 -1.1849  0.1880  0.6671
15755TIP3   OH268755   3.463   2.888   1.833  0.1178 -0.3801 -0.2693
15755TIP3    H168756   3.468   2.862   1.926  0.6296  2.2365  0.5197
15755TIP3    H268757   3.369   2.901   1.817  0.1821  2.0954  0.8729
15756TIP3   OH268758   3.559   4.179   0.188 -0.0328  0.1383 -0.3491
15756TIP3    H168759   3.599   4.221   0.263 -0.9953 -0.9565  0.8313
15756TIP3    H268760   3.614   4.103   0.170 -0.6570 -0.4682  0.2538
15757TIP3   OH268761   6.823   0.980  11.914  0.1314 -0.0508  0.1971
15757TIP3    H168762   6.876   0.968  11.992  0.6608  0.4226 -0.0870
15757TIP3    H268763   6.885   1.005  11.846 -0.2371 -1.0443 -0.5326
15758TIP3   OH268764   4.226   6.150  12.391  0.2354 -0.3663 -0.0486
15758TIP3    H168765   4.214   6.160  12.485  0.2658  0.8489 -0.1688
15758TIP3    H268766   4.318   6.125  12.380  0.5854  0.8184  0.1541
15759TIP3   OH268767   0.108   2.399  16.853 -0.4124  0.1195 -0.2238
15759TIP3    H168768   0.179   2.461  16.838 -1.0092  1.2090  1.1689
15759TIP3    H268769   0.059   2.397  16.771  0.9493 -0.3312 -1.0575
15760TIP3   OH268770   3.384   2.553   2.125  0.7971 -0.2348 -0.7474
15760TIP3    H168771   3.413   2.527   2.213 -0.4554  0.6884 -0.0395
15760TIP3    H268772   3.316   2.490   2.103  1.1610 -0.5107 -1.1105
15761TIP3   OH268773   2.603   2.798   1.472  0.3410  0.2271 -0.1019
15761TIP3    H168774   2.658   2.779   1.396 -2.0935 -1.7685 -1.5574
15761TIP3    H268775   2.521   2.832   1.434 -0.2185  1.1822  1.8053
15762TIP3   OH268776   1.252   3.415   2.390  0.3527 -0.7762  0.0138
15762TIP3    H168777   1.210   3.351   2.448 -1.3318 -0.3259 -0.6542
15762TIP3    H268778   1.238   3.499   2.433  0.2668 -0.5892 -0.3727
15763TIP3   OH268779   3.931   2.660  11.988 -0.1834  0.0157 -0.0810
15763TIP3    H168780   3.862   2.625  11.932  1.0101  0.4418 -1.9339
15763TIP3    H268781   3.896   2.743  12.020 -1.6489 -1.1474  1.4632
15764TIP3   OH268782   0.484   4.396  12.987  0.1445 -0.1843 -0.6948
15764TIP3    H168783   0.433   4.476  13.004  1.3444  0.6342 -0.8766
15764TIP3    H268784   0.428   4.326  13.021 -0.3450  0.8390  0.7419
15765TIP3   OH268785   4.261   0.385   6.309  0.1824  0.2392  0.6596
15765TIP3    H168786   4.196   0.321   6.280  0.5781 -0.7133  1.7730
15765TIP3    H268787   4.210   0.463   6.330 -0.5489 -0.2973  0.9437
15766TIP3   OH268788   4.205   4.544   3.626 -0.3004  0.2839  0.7345
15766TIP3    H168789   4.161   4.615   3.672 -1.0104 -0.5213  1.3258
15766TIP3    H268790   4.226   4.480   3.693 -3.2377 -1.8980 -0.1958
15767TIP3   OH268791   3.495   1.649   0.588 -0.3182 -0.4677 -0.2265
15767TIP3    H168792   3.456   1.563   0.600  0.4775 -0.8831 -0.5547
15767TIP3    H268793   3.473   1.673   0.498  1.2445 -1.2858 -0.8749
15768TIP3   OH268794   4.590   6.193  15.518  0.0303  0.0203  0.0488
15768TIP3    H168795   4.615   6.282  15.493  1.0223  0.0109  0.9279
15768TIP3    H268796   4.666   6.140  15.497 -0.9508 -0.8347 -1.4801
15769TIP3   OH268797   1.280   2.896  14.395  0.6795 -0.8385  0.1438
15769TIP3    H168798   1.370   2.929  14.391  0.9105 -1.4396  0.3035
15769TIP3    H268799   1.226   2.972  14.375  1.0971  0.1980  2.6109
15770TIP3   OH268800   5.109   3.188  13.155 -0.4037  0.6169 -0.2407
15770TIP3    H168801   5.100   3.094  13.136  2.4086  0.4149 -0.9787
15770TIP3    H268802   5.083   3.231  13.074 -2.8331  0.6169  0.4623
15771TIP3   OH268803   3.821   4.229   5.955 -0.1961 -0.3904  0.0767
15771TIP3    H168804   3.879   4.180   5.897  0.5023 -1.0637  1.2966
15771TIP3    H268805   3.735   4.187   5.945  0.2333 -1.4147  0.5717
15772TIP3   OH268806   3.172   1.852   1.315 -0.1257  0.2088 -0.3136
15772TIP3    H168807   3.244   1.791   1.329  0.9665  1.4247 -0.3879
15772TIP3    H268808   3.205   1.914   1.250 -0.9335  1.2800  0.2475
15773TIP3   OH268809   0.830   4.005   3.935 -0.0259  0.2271 -0.2166
15773TIP3    H168810   0.742   4.000   3.973 -1.2185  0.0058 -2.8515
15773TIP3    H268811   0.863   4.091   3.961 -0.4918 -0.1453  1.7853
15774TIP3   OH268812   4.276   1.493   3.411  0.4070 -0.3295  0.4643
15774TIP3    H168813   4.270   1.402   3.380  1.5480 -0.0623 -0.6722
15774TIP3    H268814   4.281   1.486   3.506  0.1749 -1.4433  0.4083
15775TIP3   OH268815   4.204   2.239  13.944 -0.4816  0.4369  0.0946
15775TIP3    H168816   4.221   2.333  13.951  3.3438 -0.1754  0.9950
15775TIP3    H268817   4.240   2.214  13.859 -0.4766 -0.3927  0.3301
15776TIP3   OH268818   3.885   5.113   6.725  0.1737  0.6411  0.2828
15776TIP3    H168819   3.798   5.152   6.720 -0.0790 -0.0045 -0.8561
15776TIP3    H268820   3.945   5.186   6.708 -0.1852  0.9562  0.3655
15777TIP3   OH268821   4.020   5.549   2.729  0.2051 -0.6254  0.0245
15777TIP3    H168822   4.009   5.643   2.743  0.7461 -0.2593 -1.7218
15777TIP3    H268823   3.945   5.523   2.675  1.0606 -0.7537 -1.1521
15778TIP3   OH268824   0.970   3.319   5.055  0.0941  0.4554  0.3754
15778TIP3    H168825   0.945   3.388   5.116  0.6857 -1.6022  3.1868
15778TIP3    H268826   0.888   3.274   5.035  0.2132 -0.9757  2.6302
15779TIP3   OH268827   0.293   3.859  14.402  0.2912  0.3466  0.0846
15779TIP3    H168828   0.309   3.840  14.309 -1.8504 -0.0308 -0.2722
15779TIP3    H268829   0.207   3.821  14.419  0.8516 -0.0045  2.3864
15780TIP3   OH268830   2.914   1.468   3.177  0.4489 -0.4959 -0.1314
15780TIP3    H168831   2.851   1.421   3.122 -1.1458 -0.3307  1.4500
15780TIP3    H268832   2.964   1.398   3.219  1.7137 -0.6220 -1.7509
15781TIP3   OH268833   5.730   5.107  15.004  0.0901 -0.5171  0.2191
15781TIP3    H168834   5.697   5.165  14.935  2.6699  0.8997  0.0231
15781TIP3    H268835   5.777   5.038  14.957  0.1696 -0.6574  0.5022
15782TIP3   OH268836   2.040   2.010  12.614 -0.3273  0.5010  0.7017
15782TIP3    H168837   1.999   1.928  12.586  0.5986  0.4286 -0.5532
15782TIP3    H268838   1.992   2.078  12.568 -0.1796  0.5514  0.6221
15783TIP3   OH268839   2.001   0.180  11.437 -0.0701  0.1744  0.1337
15783TIP3    H168840   2.003   0.099  11.486 -0.0683  0.2130  0.1971
15783TIP3    H268841   1.909   0.205  11.434 -0.3560 -0.9117 -1.6556
15784TIP3   OH268842   4.925   4.123   2.269 -0.4844  0.1077 -0.2752
15784TIP3    H168843   4.995   4.151   2.210 -0.2992 -1.4836 -0.8445
15784TIP3    H268844   4.864   4.197   2.271  0.8699  1.2663 -0.2776
15785TIP3   OH268845   0.235   3.242   2.349 -0.1580 -0.2718  0.1467
15785TIP3    H168846   0.272   3.183   2.284  0.4114 -0.5108  0.6731
15785TIP3    H268847   0.191   3.183   2.412 -2.2674  0.0436 -0.9417
15786TIP3   OH268848   4.689   4.305  12.428 -0.0773 -0.1168  0.0914
15786TIP3    H168849   4.668   4.215  12.451  0.8430 -0.1947  0.6461
15786TIP3    H268850   4.604   4.348  12.419 -0.5176 -0.9996 -0.0534
15787TIP3   OH268851   5.416   2.267   2.613  0.5456 -0.6575 -0.1765
15787TIP3    H168852   5.459   2.229   2.690 -1.1727 -2.4260 -0.0119
15787TIP3    H268853   5.379   2.192   2.567 -3.0788  0.7034  0.1934
15788TIP3   OH268854   6.500   5.826   4.785 -0.0885  0.5487 -0.0002
15788TIP3    H168855   6.480   5.747   4.735  1.4646  0.4614 -0.5243
15788TIP3    H268856   6.518   5.892   4.718 -0.8703  1.2161  0.4403
15789TIP3   OH268857   4.754   6.756   2.820 -0.2374 -0.5558  0.4349
15789TIP3    H168858   4.748   6.844   2.859  0.4109 -1.0223  1.6451
15789TIP3    H268859   4.798   6.704   2.887  0.7209 -1.4606 -0.8686
15790TIP3   OH268860   0.070   2.499  14.650 -0.1670  0.4448 -0.0881
15790TIP3    H168861   0.121   2.519  14.728  1.1514  0.6286 -0.9648
15790TIP3    H268862  -0.019   2.525  14.672  0.3401  1.2859  1.0564
15791TIP3   OH268863   5.157   1.275  15.440 -0.0208  0.0696  0.1523
15791TIP3    H168864   5.095   1.269  15.512 -1.6383 -0.0140 -1.1867
15791TIP3    H268865   5.190   1.365  15.445  0.5358 -0.1895  1.4789
15792TIP3   OH268866   3.859   0.731  10.855 -0.0288 -0.1855 -0.2825
15792TIP3    H168867   3.829   0.791  10.787 -1.2568  1.5867  1.6840
15792TIP3    H268868   3.798   0.657  10.851 -1.5868  1.0098  0.3582
15793TIP3   OH268869   6.778   4.703   3.959  0.0683 -0.4697  0.5866
15793TIP3    H168870   6.745   4.792   3.949 -2.8478 -1.7077 -3.0384
15793TIP3    H268871   6.712   4.658   4.012 -1.1686 -1.5353 -1.7151
15794TIP3   OH268872   3.249   2.313   0.541  0.4642 -0.7313  0.6415
15794TIP3    H168873   3.212   2.246   0.598 -1.0619 -0.1037  0.4520
15794TIP3    H268874   3.326   2.345   0.587  0.4816 -1.7312  1.3188
15795TIP3   OH268875   2.672   5.593  11.139  0.9905 -0.2229  0.4330
15795TIP3    H168876   2.647   5.671  11.189  1.8734 -1.1902  2.4840
15795TIP3    H268877   2.703   5.531  11.205  0.6553 -2.1956 -1.1844
15796TIP3   OH268878   3.367   1.064   1.553  0.7583 -0.1223  0.6679
15796TIP3    H168879   3.351   1.055   1.459  0.7249  0.0068  0.6615
15796TIP3    H268880   3.290   1.110   1.587  1.7165  1.7850  0.4004
15797TIP3   OH268881   2.381   3.225  13.967 -0.8211 -0.4391 -0.1992
15797TIP3    H168882   2.305   3.169  13.984 -1.3433  0.0705 -0.7974
15797TIP3    H268883   2.456   3.170  13.986 -1.3186 -1.3892 -0.8718
15798TIP3   OH268884   6.236   0.957   4.801  0.1888  0.1584 -0.2420
15798TIP3    H168885   6.202   0.888   4.858 -1.8009  1.6552  0.4636
15798TIP3    H268886   6.330   0.960   4.821 -0.1367 -0.5811  1.6289
15799TIP3   OH268887   3.637   0.037  15.442 -0.6748 -0.0101 -0.3101
15799TIP3    H168888   3.629   0.035  15.347  0.0444 -0.4369 -0.3703
15799TIP3    H268889   3.712   0.093  15.460  1.9633 -3.2633 -0.2402
15800TIP3   OH268890   1.167   5.160   5.509  0.3978 -0.4106  0.6083
15800TIP3    H168891   1.092   5.185   5.564 -0.9632  1.0281 -1.7147
15800TIP3    H268892   1.228   5.233   5.517  0.6649 -0.6766  0.9978
15801TIP3   OH268893   3.873   1.715  11.193 -0.2532 -0.4601  0.0941
15801TIP3    H168894   3.914   1.738  11.110  2.9699  1.5104  2.0071
15801TIP3    H268895   3.811   1.786  11.211 -1.4351 -1.2139 -0.7994
15802TIP3   OH268896   3.948   2.558  11.470  0.4498 -0.3374 -0.3235
15802TIP3    H168897   4.043   2.572  11.462  0.1262  3.8406  0.4325
15802TIP3    H268898   3.926   2.601  11.553 -2.3434  0.9031 -1.6004
15803TIP3   OH268899   0.881   6.362   1.536 -0.7827  0.0371  0.7353
15803TIP3    H168900   0.967   6.353   1.577  0.2461  1.8885 -0.8009
15803TIP3    H268901   0.880   6.295   1.468 -0.2942  0.3872  0.3767
15804TIP3   OH268902   4.943   3.144   4.374 -0.6082  0.5205  0.3913
15804TIP3    H168903   4.894   3.150   4.456 -1.0233  1.1121  0.1125
15804TIP3    H268904   4.934   3.053   4.347  0.6722 -0.0358  1.6775
15805TIP3   OH268905   3.424   0.258   3.966 -0.7920  0.3107 -0.4344
15805TIP3    H168906   3.518   0.279   3.973 -0.0824 -1.1804 -3.7129
15805TIP3    H268907   3.413   0.181   4.022 -0.1013  0.5436  0.0394
15806TIP3   OH268908   0.399   2.098  15.817  0.1506  0.0059 -0.2823
15806TIP3    H168909   0.346   2.178  15.811  1.9418  1.7110  3.1334
15806TIP3    H268910   0.335   2.028  15.833 -1.2941  1.6577  1.8088
15807TIP3   OH268911   0.365   2.841  16.595  0.3631 -0.0354 -0.4837
15807TIP3    H168912   0.300   2.819  16.662 -0.2914  0.5913 -0.8953
15807TIP3    H268913   0.343   2.782  16.522 -1.1021  1.5615 -1.4141
15808TIP3   OH268914   4.692   5.121   3.430 -0.5178  0.4370  0.0719
15808TIP3    H168915   4.716   5.056   3.363  0.3810 -0.0021  0.8061
15808TIP3    H268916   4.597   5.124   3.426 -0.5086  0.0327 -0.8688
15809TIP3   OH268917   6.268   2.425  14.930  0.4195 -0.3638  0.0635
15809TIP3    H168918   6.324   2.494  14.894  1.8715 -0.5686  1.8190
15809TIP3    H268919   6.179   2.455  14.910  1.0757  0.5599 -1.7395
15810TIP3   OH268920   6.843   4.046  14.556  0.0799  0.2582 -0.5116
15810TIP3    H168921   6.900   4.011  14.625  1.0220  1.7463 -0.4903
15810TIP3    H268922   6.820   4.134  14.586 -1.5655 -0.0097 -0.9332
15811TIP3   OH268923   3.719   4.031  14.641 -0.1526 -0.5005  0.4333
15811TIP3    H168924   3.642   4.081  14.667 -0.1712 -0.4455  0.2745
15811TIP3    H268925   3.767   4.016  14.722 -0.9898 -1.6642  0.7433
15812TIP3   OH268926   2.442   3.627  13.073 -0.2188  0.3883 -0.1108
15812TIP3    H168927   2.415   3.545  13.033  0.3515 -0.8593  1.8801
15812TIP3    H268928   2.528   3.645  13.034 -0.4125  0.1096 -0.6759
15813TIP3   OH268929   4.972   4.443   1.100 -0.0566 -0.1221  0.1518
15813TIP3    H168930   5.010   4.480   1.180  2.2464  2.2776 -1.8231
15813TIP3    H268931   4.878   4.458   1.109  0.0832 -0.2342  2.5157
15814TIP3   OH268932   0.484   0.942   1.611  0.1857  0.6230  0.3456
15814TIP3    H168933   0.573   0.906   1.612  0.0510  0.2236 -0.7575
15814TIP3    H268934   0.497   1.037   1.612  0.6668  0.5872 -0.8479
15815TIP3   OH268935   1.998   4.269  13.656 -0.3300 -0.1101  0.2691
15815TIP3    H168936   2.090   4.252  13.676 -0.5585 -0.4533  1.0477
15815TIP3    H268937   1.978   4.211  13.583  0.0681 -0.0216  0.0838
15816TIP3   OH268938   1.563   3.218   4.419 -0.2972 -0.0307  0.2072
15816TIP3    H168939   1.562   3.313   4.427 -0.1832 -0.0700  0.7360
15816TIP3    H268940   1.539   3.201   4.328 -2.5596  0.4287  0.6652
15817TIP3   OH268941   2.212   5.371   6.348  0.1700  0.0597  0.4827
15817TIP3    H168942   2.288   5.312   6.353  1.0173  1.1346  0.4843
15817TIP3    H268943   2.138   5.312   6.332  0.9853 -1.0169  0.5321
15818TIP3   OH268944   2.573   0.353   3.122 -0.4512  0.3132  0.5568
15818TIP3    H168945   2.620   0.311   3.050 -2.6256 -0.0213 -0.7665
15818TIP3    H268946   2.579   0.290   3.194 -0.6204 -0.6550 -0.2468
15819TIP3   OH268947   3.451   2.149   2.555  0.7222 -0.2734 -0.3878
15819TIP3    H168948   3.449   2.245   2.547  0.3992 -0.3672 -1.5788
15819TIP3    H268949   3.405   2.131   2.637  1.6832  0.6394  0.3817
15820TIP3   OH268950   2.884   5.754   2.607 -0.4491 -0.9439 -0.0089
15820TIP3    H168951   2.909   5.752   2.700  2.3281 -1.0249 -0.6556
15820TIP3    H268952   2.960   5.718   2.562 -1.7568 -0.9534 -2.3429
15821TIP3   OH268953   0.597   1.224   5.770  0.9881  0.3768 -0.7661
15821TIP3    H168954   0.660   1.160   5.802  0.0512  0.9272  2.5315
15821TIP3    H268955   0.631   1.309   5.799 -0.8979  0.7324  0.5859
15822TIP3   OH268956   5.738   2.551   1.297  0.0264 -0.3238 -0.1248
15822TIP3    H168957   5.654   2.543   1.341  1.2067 -1.6532  2.0821
15822TIP3    H268958   5.795   2.594   1.361  1.0282  0.6221 -1.5907
15823TIP3   OH268959   2.925   2.841   4.345 -0.8054  0.4831 -0.0579
15823TIP3    H168960   2.941   2.749   4.369  0.7647  0.5581 -0.7244
15823TIP3    H268961   2.830   2.851   4.353 -1.1541 -1.4926 -0.9093
15824TIP3   OH268962   1.186   5.348   2.951  0.0686  0.3227 -0.0884
15824TIP3    H168963   1.234   5.270   2.925  0.9935  0.2893  1.5709
15824TIP3    H268964   1.162   5.390   2.869  1.6464 -0.4419 -0.9858
15825TIP3   OH268965   6.740   4.239   5.001  0.4478  0.5111 -0.2278
15825TIP3    H168966   6.734   4.271   4.911 -2.2841 -0.2349 -0.4240
15825TIP3    H268967   6.716   4.146   4.994  2.6422 -0.2150  1.0111
15826TIP3   OH268968   4.192   1.326  12.023 -0.3384  0.2429  0.2691
15826TIP3    H168969   4.224   1.370  12.102 -0.5449 -2.1525  1.7786
15826TIP3    H268970   4.268   1.280  11.988 -0.4298  0.6614 -0.4920
15827TIP3   OH268971   5.453   2.531   1.402 -0.1039  0.2505  0.2715
15827TIP3    H168972   5.458   2.484   1.486  0.8217  0.1197  0.1606
15827TIP3    H268973   5.373   2.583   1.407 -0.6232 -0.5827  0.8054
15828TIP3   OH268974   0.275   0.977   1.364  0.0360 -0.6408 -0.4558
15828TIP3    H168975   0.199   0.963   1.420 -1.1321  1.4792 -1.4034
15828TIP3    H268976   0.342   1.012   1.423 -1.2725  1.8637 -0.3010
15829TIP3   OH268977   6.735   5.305  12.573 -0.1078  0.2195  0.7533
15829TIP3    H168978   6.670   5.332  12.638  0.1339 -1.3693  1.7062
15829TIP3    H268979   6.816   5.294  12.623  0.2041 -0.5361  0.0997
15830TIP3   OH268980   0.745   2.731  11.015  0.6076  0.0101 -0.1325
15830TIP3    H168981   0.776   2.688  11.095  1.1460  1.4469  0.4691
15830TIP3    H268982   0.730   2.659  10.953  0.3233 -1.1166  1.2029
15831TIP3   OH268983   6.604   3.998   5.099  0.2310 -0.1170 -0.2640
15831TIP3    H168984   6.641   3.948   5.026  0.7765  1.5049 -1.1446
15831TIP3    H268985   6.515   3.963   5.109  0.2962 -0.6700 -1.4057
15832TIP3   OH268986   2.869   2.639  16.296 -0.5289 -0.0651 -0.1678
15832TIP3    H168987   2.879   2.662  16.204 -0.8095  0.7695  0.0063
15832TIP3    H268988   2.907   2.551  16.303 -1.4299 -0.5606 -1.2828
15833TIP3   OH268989   1.177   1.874   0.741  0.5103  0.1218  0.2853
15833TIP3    H168990   1.207   1.784   0.750  2.0843  0.4762 -0.8932
15833TIP3    H268991   1.091   1.875   0.781  0.5379 -1.8588  0.4899
15834TIP3   OH268992   6.168   6.585  13.214  0.3164  0.5055  0.7307
15834TIP3    H168993   6.116   6.566  13.136  1.7084  0.7922 -0.3083
15834TIP3    H268994   6.108   6.634  13.271 -0.4590  1.1137 -0.5584
15835TIP3   OH268995   3.343   4.099  12.339  0.4646  0.2377  0.6573
15835TIP3    H168996   3.370   4.021  12.388 -0.4964  0.5054  1.6424
15835TIP3    H268997   3.329   4.166  12.406 -0.8968  0.6126  0.0254
15836TIP3   OH268998   0.689   2.607   3.105 -0.1866  0.7084 -0.5930
15836TIP3    H168999   0.711   2.516   3.125  0.5214  1.0764  0.3718
15836TIP3    H269000   0.649   2.640   3.185  0.7191  1.6066 -0.4959
15837TIP3   OH269001   5.281   4.942  16.356  0.0544  0.4647 -0.2157
15837TIP3    H169002   5.297   4.866  16.411  0.8061  0.6454 -0.1769
15837TIP3    H269003   5.199   4.979  16.389 -0.3829 -0.3961 -0.3227
15838TIP3   OH269004   2.191   2.646  12.585  0.0973  0.3656  0.0555
15838TIP3    H169005   2.131   2.589  12.536  0.6682  0.3039 -0.5810
15838TIP3    H269006   2.270   2.648  12.532  0.5728  0.6483  0.7692
15839TIP3   OH269007   2.193   1.076   4.344 -0.5115 -0.6053 -0.3077
15839TIP3    H169008   2.249   1.012   4.301 -0.7435 -1.6293  0.8427
15839TIP3    H269009   2.241   1.100   4.423  0.4164  2.0601 -1.5996
15840TIP3   OH269010   4.192   2.514  11.981 -0.3545  0.1501 -0.2200
15840TIP3    H169011   4.200   2.605  12.010 -0.3573  0.2497 -0.5246
15840TIP3    H269012   4.126   2.517  11.912  0.1168  0.0252 -0.6852
15841TIP3   OH269013   6.450   2.280   2.993  0.1845  0.3111  0.2034
15841TIP3    H169014   6.545   2.279   2.995  0.3257 -1.5675 -2.4259
15841TIP3    H269015   6.424   2.202   3.041 -0.1585  1.4251  1.9255
15842TIP3   OH269016   0.549   5.685  17.020 -0.1096 -0.0647 -0.0314
15842TIP3    H169017   0.534   5.749  16.950  0.8842 -2.3649 -2.4922
15842TIP3    H269018   0.484   5.617  17.005  0.5029 -0.8968  0.9545
15843TIP3   OH269019   6.324   2.787   1.970  0.4889 -0.0095 -0.1659
15843TIP3    H169020   6.262   2.718   1.992  1.4249 -0.8068  0.0135
15843TIP3    H269021   6.292   2.822   1.887 -0.7018  0.2025  0.3554
15844TIP3   OH269022   3.859   6.757  11.372  0.0310  0.0634  0.2873
15844TIP3    H169023   3.820   6.755  11.285  0.1510  0.1690  0.2300
15844TIP3    H269024   3.820   6.683  11.418  2.0650 -1.7597 -0.7683
15845TIP3   OH269025   1.479   0.609  12.789 -0.1307  0.7903 -0.2686
15845TIP3    H169026   1.462   0.655  12.706  0.0791  0.9921 -0.2009
15845TIP3    H269027   1.536   0.537  12.765 -1.0836  0.1009 -0.5010
15846TIP3   OH269028   6.026   1.250   1.968 -0.0767 -0.1669  0.0325
15846TIP3    H169029   5.972   1.292   2.035 -0.8329 -2.7468  1.1531
15846TIP3    H269030   6.097   1.209   2.018  0.3938 -0.5818 -0.9600
15847TIP3   OH269031   2.467   0.688   0.320 -0.5748 -0.2040  0.2347
15847TIP3    H169032   2.375   0.700   0.343 -0.8613 -0.2309 -0.8491
15847TIP3    H269033   2.470   0.700   0.225  0.3761 -1.1584  0.1209
15848TIP3   OH269034   4.212   3.833   2.409 -0.6659 -0.0693 -0.0118
15848TIP3    H169035   4.209   3.790   2.324 -1.7961  0.0885 -0.0712
15848TIP3    H269036   4.260   3.773   2.465 -0.4341 -0.4491 -0.6063
15849TIP3   OH269037   2.640   6.644   3.791  0.5289 -0.2392  0.0222
15849TIP3    H169038   2.718   6.590   3.805  0.3069 -0.5161  0.2059
15849TIP3    H269039   2.599   6.649   3.877  0.9442  0.8482  0.1764
15850TIP3   OH269040   0.853   5.278  13.713 -0.2617  0.1960  0.8416
15850TIP3    H169041   0.811   5.274  13.799  1.7194  0.6908  1.9074
15850TIP3    H269042   0.803   5.344  13.665 -1.8979 -0.6663  1.3021
15851TIP3   OH269043   3.020   0.014   3.327 -0.2873  0.7538 -0.6511
15851TIP3    H169044   3.006   0.086   3.266 -0.6635  1.1984 -0.0558
15851TIP3    H269045   3.104   0.034   3.368  0.0462  0.3664 -1.1373
15852TIP3   OH269046   3.571   2.762   0.658  0.0411 -0.2728 -0.0329
15852TIP3    H169047   3.636   2.815   0.705 -0.2903  2.0504 -2.0388
15852TIP3    H269048   3.605   2.757   0.569 -0.2962 -2.9841 -0.0950
15853TIP3   OH269049   3.914   2.453   1.167 -0.2906 -0.1230  0.2782
15853TIP3    H169050   3.868   2.412   1.094 -0.6134  0.5618  0.0869
15853TIP3    H269051   3.899   2.394   1.241 -1.1779 -0.0911  0.1318
15854TIP3   OH269052   6.101   1.367   1.008 -0.2911 -0.0897 -0.7666
15854TIP3    H169053   6.112   1.289   0.954 -1.5937 -0.0049 -1.1945
15854TIP3    H269054   6.142   1.437   0.959  2.1306 -0.6802  0.2376
15855TIP3   OH269055   4.833   5.320  11.712  0.0892 -0.7705  0.1054
15855TIP3    H169056   4.920   5.355  11.691 -0.0060 -1.6874 -2.0886
15855TIP3    H269057   4.775   5.396  11.710  0.1969 -0.6462 -2.6870
15856TIP3   OH269058   4.571   5.574  12.474 -0.1179  0.1383  0.4408
15856TIP3    H169059   4.500   5.571  12.410 -3.0463  1.2663  3.3068
15856TIP3    H269060   4.576   5.485  12.508 -0.2997  0.0845  0.3275
15857TIP3   OH269061   0.359   2.339   4.313 -0.1648  0.2682 -0.2617
15857TIP3    H169062   0.398   2.293   4.387 -0.7462  0.1290 -0.0322
15857TIP3    H269063   0.389   2.430   4.322 -2.7831  1.0312  2.0473
15858TIP3   OH269064   4.356   1.766   0.401 -0.0632  0.3139 -0.0560
15858TIP3    H169065   4.428   1.708   0.377  0.1574  0.6634 -0.2482
15858TIP3    H269066   4.277   1.717   0.378  0.0944 -0.3279  0.7430
15859TIP3   OH269067   6.418   6.612  10.650  0.5264 -0.3218 -0.2439
15859TIP3    H169068   6.505   6.595  10.688  0.2558 -1.0933  0.0643
15859TIP3    H269069   6.405   6.539  10.589 -0.7535 -1.4096  1.2377
15860TIP3   OH269070   2.459   3.178  13.390 -0.3811 -0.1158 -0.1113
15860TIP3    H169071   2.548   3.158  13.421 -1.0143 -0.3501  1.6792
15860TIP3    H269072   2.412   3.203  13.469 -1.3346  2.2814 -1.3700
15861TIP3   OH269073   5.694   5.206  16.173  0.2788  0.1268 -0.5413
15861TIP3    H169074   5.751   5.159  16.234  0.1418 -0.8005 -1.1014
15861TIP3    H269075   5.745   5.209  16.091  0.5055  1.4456 -0.3666
15862TIP3   OH269076   2.620   2.504  16.934  0.5695  0.2007  0.2117
15862TIP3    H169077   2.625   2.489  17.028  0.2662  0.2925  0.2438
15862TIP3    H269078   2.665   2.587  16.920  0.3194  0.3537  0.3177
15863TIP3   OH269079   5.909   6.115  13.433 -0.0749  0.1231  0.9196
15863TIP3    H169080   5.820   6.138  13.407  0.1074  1.0731  1.0932
15863TIP3    H269081   5.962   6.129  13.355  0.0312  0.2093  1.0070
15864TIP3   OH269082   1.100   1.844   2.723 -0.3624  0.2390 -0.0374
15864TIP3    H169083   1.063   1.879   2.804  0.3559 -0.3557  0.5583
15864TIP3    H269084   1.086   1.914   2.659  0.5732  1.4367  0.9938
15865TIP3   OH269085   0.122   4.011  11.141  0.2728  0.1718  0.1194
15865TIP3    H169086   0.037   4.007  11.185 -0.0780 -0.1369 -0.5588
15865TIP3    H269087   0.176   4.065  11.198 -0.4009  0.4378  0.5250
15866TIP3   OH269088   5.873   0.139   5.742  0.3168 -0.6815  0.3883
15866TIP3    H169089   5.955   0.124   5.790  0.4591  0.9556  0.7456
15866TIP3    H269090   5.805   0.111   5.803  0.5587 -0.0480  0.9791
15867TIP3   OH269091   2.755   1.636   4.360 -0.4828 -0.4546 -0.6656
15867TIP3    H169092   2.845   1.641   4.393 -0.4021  1.4075 -1.0390
15867TIP3    H269093   2.701   1.628   4.439  0.0243 -2.6377 -0.4893
15868TIP3   OH269094   6.202   4.233   5.330  0.2125 -0.4792  0.0700
15868TIP3    H169095   6.214   4.275   5.415  0.5511  0.7839 -0.5741
15868TIP3    H269096   6.147   4.157   5.348 -0.2842  0.1512  1.3146
15869TIP3   OH269097   1.125   5.297   3.947  0.0719 -0.1579  0.0426
15869TIP3    H169098   1.182   5.227   3.979 -1.8713 -1.3049  1.1818
15869TIP3    H269099   1.096   5.265   3.861  1.2583  0.5439 -0.6544
15870TIP3   OH269100   5.011   0.306   3.013  0.5473  0.2650  0.0243
15870TIP3    H169101   4.934   0.322   3.068  1.7946  0.9823  1.6768
15870TIP3    H269102   5.073   0.374   3.039  1.9942 -0.7030 -0.7487
15871TIP3   OH269103   4.091   4.347  14.627  0.3940  0.0899 -0.5139
15871TIP3    H169104   4.178   4.324  14.596  0.8040  0.2587  0.4535
15871TIP3    H269105   4.031   4.311  14.562  1.1620 -0.6609 -0.8170
15872TIP3   OH269106   4.269   2.992  13.134  0.4307 -0.3927  0.3591
15872TIP3    H169107   4.181   3.027  13.123  0.3153 -1.0788 -1.0387
15872TIP3    H269108   4.291   3.011  13.225 -1.0017  0.1417  0.6116
15873TIP3   OH269109   2.956   0.933  11.765  0.4767 -0.0704  0.3720
15873TIP3    H169110   3.028   0.871  11.759  0.9832  0.5150  0.3262
15873TIP3    H269111   2.877   0.878  11.769  0.9799 -0.7521  1.5130
15874TIP3   OH269112   2.600   4.837  14.695  0.3517  0.5559  0.1266
15874TIP3    H169113   2.537   4.768  14.714  0.2682  0.9414  1.3457
15874TIP3    H269114   2.598   4.846  14.600  0.4557 -1.1817 -0.0709
15875TIP3   OH269115   5.925   3.712   3.672 -0.7265 -0.2327 -0.2445
15875TIP3    H169116   5.902   3.635   3.724  0.5767  0.3235  1.2215
15875TIP3    H269117   5.857   3.777   3.693  0.3941  0.3804  1.7288
15876TIP3   OH269118   1.579   0.124  14.119 -0.6546  0.4258 -0.0816
15876TIP3    H169119   1.551   0.158  14.204  1.4947 -2.0390  1.7580
15876TIP3    H269120   1.663   0.167  14.102 -0.8500  0.5536 -0.7610
15877TIP3   OH269121   6.773   5.639   2.212 -0.2398 -0.0968 -0.2389
15877TIP3    H169122   6.850   5.654   2.266  0.0503 -0.7269 -0.4659
15877TIP3    H269123   6.745   5.550   2.235 -1.1328  0.2626  0.1237
15878TIP3   OH269124   4.384   5.098   2.414 -0.2758 -0.0903  0.5949
15878TIP3    H169125   4.472   5.113   2.447  0.5763 -1.1720 -1.0843
15878TIP3    H269126   4.346   5.036   2.477  0.0298  0.5858  1.4741
15879TIP3   OH269127   1.787   3.957   1.056  0.3586 -0.6692 -0.1589
15879TIP3    H169128   1.869   3.980   1.100 -0.3738  1.3734  0.2210
15879TIP3    H269129   1.726   4.027   1.080 -1.1451 -1.4760 -1.4510
15880TIP3   OH269130   4.891   0.200   0.375  0.1268  0.3913 -0.2794
15880TIP3    H169131   4.940   0.256   0.316  0.3067 -0.9239 -1.4194
15880TIP3    H269132   4.929   0.217   0.461  1.0682  1.0191 -0.8087
15881TIP3   OH269133   3.702   1.024  13.375  0.6583  0.0817 -0.3378
15881TIP3    H169134   3.722   0.991  13.462 -0.1477  0.9273  0.1823
15881TIP3    H269135   3.764   1.096  13.361  0.2615  0.4748 -0.1178
15882TIP3   OH269136   1.387   6.009   4.505  0.2944 -0.0830  0.1134
15882TIP3    H169137   1.364   5.926   4.548  3.2542 -1.8606 -1.4001
15882TIP3    H269138   1.348   6.002   4.418 -0.9948  1.0071  0.5743
15883TIP3   OH269139   4.770   6.032   4.867  0.3671 -0.1427  0.3254
15883TIP3    H169140   4.741   6.107   4.816  0.0277  0.0276  0.7665
15883TIP3    H269141   4.818   5.978   4.804 -0.8410 -0.4011 -0.3914
15884TIP3   OH269142   5.728   3.331   4.485  0.4347 -0.2123 -0.4213
15884TIP3    H169143   5.772   3.415   4.485 -1.6859  0.9731 -0.5279
15884TIP3    H269144   5.642   3.348   4.445  0.4163 -2.7006 -1.6927
15885TIP3   OH269145   6.421   4.676  14.621 -0.5347  0.3210 -0.2516
15885TIP3    H169146   6.422   4.729  14.700 -2.5795  0.5424 -0.3221
15885TIP3    H269147   6.397   4.588  14.651 -2.1935  0.6017 -0.6981
15886TIP3   OH269148   2.839   4.262   0.351 -0.0468  0.3179 -0.3235
15886TIP3    H169149   2.814   4.215   0.430 -0.6598  2.9631  1.1618
15886TIP3    H269150   2.934   4.273   0.358  0.4989 -2.4916 -1.8229
15887TIP3   OH269151   3.438   5.404   0.718 -0.5561  0.1428  0.8467
15887TIP3    H169152   3.513   5.462   0.728 -1.0786  1.2496 -1.1238
15887TIP3    H269153   3.463   5.342   0.651 -1.2948  0.3580  0.3582
15888TIP3   OH269154   1.449   5.865   1.336  0.2955 -0.0952  0.4899
15888TIP3    H169155   1.498   5.872   1.255 -0.5641  0.0757 -0.0300
15888TIP3    H269156   1.429   5.955   1.361  2.4001 -0.0024  2.0794
15889TIP3   OH269157   3.447   0.053   5.552 -0.7199  0.0358  0.8339
15889TIP3    H169158   3.466  -0.009   5.482 -0.5773  1.9682 -0.9249
15889TIP3    H269159   3.355   0.076   5.539 -0.1961  1.8624 -0.0119
15890TIP3   OH269160   4.537   1.185   1.586 -0.2477 -0.7499  0.3667
15890TIP3    H169161   4.461   1.129   1.568 -1.3960 -0.4377  3.5911
15890TIP3    H269162   4.589   1.135   1.649  0.4687  0.4374  0.7466
15891TIP3   OH269163   2.862   5.689   6.730  0.0867 -0.2885 -0.2809
15891TIP3    H169164   2.853   5.713   6.822  1.0143 -0.3085 -0.1782
15891TIP3    H269165   2.879   5.772   6.685  0.0910 -0.3372 -0.3695
15892TIP3   OH269166   1.578   5.368   4.527  0.2318 -0.2590  0.2403
15892TIP3    H169167   1.630   5.379   4.448  0.4702  2.9270  0.7066
15892TIP3    H269168   1.519   5.295   4.507  1.3147 -0.5555 -2.2570
15893TIP3   OH269169   6.179   0.859  11.460 -0.1234 -0.5113  0.1381
15893TIP3    H169170   6.122   0.935  11.459 -2.4704 -2.1549  0.7555
15893TIP3    H269171   6.162   0.815  11.377  1.2162 -0.3761 -0.2229
15894TIP3   OH269172   0.344   2.265   2.722  0.2008 -0.0301 -0.1282
15894TIP3    H169173   0.289   2.339   2.699  0.7173  0.1519 -0.8364
15894TIP3    H269174   0.325   2.199   2.655  1.0232  0.1436 -0.5611
15895TIP3   OH269175   6.439   1.444   4.074 -0.2139  0.1017 -0.4124
15895TIP3    H169176   6.489   1.444   4.156 -0.4585  1.2700 -0.2475
15895TIP3    H269177   6.505   1.427   4.007 -0.3040 -2.9513  0.1457
15896TIP3   OH269178   6.256   2.377  11.947  0.4446  0.0874 -0.2591
15896TIP3    H169179   6.193   2.314  11.982  0.9674 -1.4585 -1.9439
15896TIP3    H269180   6.325   2.382  12.013  0.8811 -1.9182 -0.4967
15897TIP3   OH269181   4.553   1.553   0.385  0.0849  0.0291  0.0596
15897TIP3    H169182   4.539   1.560   0.480  1.3681  0.0196  0.2772
15897TIP3    H269183   4.614   1.480   0.375  1.1280  0.9477 -0.6199
15898TIP3   OH269184   3.424   2.955   5.366  0.1490 -0.3257 -0.0008
15898TIP3    H169185   3.346   2.909   5.397 -0.2136 -0.7837 -1.4774
15898TIP3    H269186   3.495   2.921   5.420 -0.2348 -2.0997 -0.5360
15899TIP3   OH269187   5.810   1.813   4.260 -0.5763 -0.0710  0.5216
15899TIP3    H169188   5.781   1.871   4.330 -1.0884 -1.6334  1.6642
15899TIP3    H269189   5.895   1.781   4.290 -0.5911 -0.4049  0.2156
15900TIP3   OH269190   1.335   4.906   1.556 -0.0767 -0.1048  0.6101
15900TIP3    H169191   1.278   4.981   1.575 -0.6896 -0.1321 -1.0021
15900TIP3    H269192   1.419   4.944   1.532 -0.4000  0.0862 -0.2489
15901TIP3   OH269193   3.575   3.416   1.329  0.2496 -0.0501  0.4949
15901TIP3    H169194   3.648   3.357   1.313 -0.4683 -0.6801 -0.5041
15901TIP3    H269195   3.599   3.497   1.285 -1.4452 -1.5653 -3.6630
15902TIP3   OH269196   2.072   2.796  14.113 -0.1988 -0.6166  0.5604
15902TIP3    H169197   2.010   2.734  14.152 -1.3218  0.7538  1.0470
15902TIP3    H269198   2.088   2.861  14.182 -0.0185  0.3142 -0.3333
15903TIP3   OH269199   4.005   2.332   1.980 -0.5363 -0.0555 -0.2975
15903TIP3    H169200   3.957   2.261   2.023 -0.6177  1.1986  1.8324
15903TIP3    H269201   3.975   2.329   1.889 -0.7135 -2.5574 -0.2147
15904TIP3   OH269202   5.043   6.433   3.134  0.3181 -0.0268  0.4269
15904TIP3    H169203   5.010   6.481   3.210  0.3070 -0.2311  0.5526
15904TIP3    H269204   5.131   6.406   3.160  0.5935  0.5336  0.0841
15905TIP3   OH269205   4.250   6.794   1.902  0.3951  0.3467  0.0850
15905TIP3    H169206   4.157   6.774   1.917  0.2652  2.1905  2.4618
15905TIP3    H269207   4.293   6.708   1.900 -1.1944 -0.5023  0.3761
15906TIP3   OH269208   1.854   4.842   1.688 -0.2277  0.3666  0.0941
15906TIP3    H169209   1.900   4.759   1.694  1.5089  1.3456  1.5360
15906TIP3    H269210   1.765   4.819   1.663  0.4399 -1.8188 -0.4711
15907TIP3   OH269211   1.210   5.192  14.009 -0.0947  0.2204  0.5732
15907TIP3    H169212   1.135   5.164  14.061  1.6550 -2.3350  1.9814
15907TIP3    H269213   1.257   5.254  14.066 -0.4404  0.8188  0.2166
15908TIP3   OH269214   2.270   5.429  11.255  0.0649  0.1062  0.2679
15908TIP3    H169215   2.270   5.389  11.342  0.8020  0.4200  0.4181
15908TIP3    H269216   2.350   5.396  11.213  0.5459  1.2066  0.2960
15909TIP3   OH269217   1.350   0.747   4.938  0.0536  0.1035  0.0119
15909TIP3    H169218   1.421   0.694   4.903  1.4947  1.4613  0.7330
15909TIP3    H269219   1.284   0.748   4.869  1.4779  0.2175 -1.3929
15910TIP3   OH269220   2.540   6.222  15.494  0.0669 -0.3507 -0.4325
15910TIP3    H169221   2.526   6.174  15.413 -2.0825 -2.4147  1.0214
15910TIP3    H269222   2.566   6.155  15.558  0.5731  1.0186  0.8594
15911TIP3   OH269223   0.754   6.402   0.065 -0.3067  0.4168 -0.4070
15911TIP3    H169224   0.697   6.363   0.131  0.4013 -0.1961 -0.1435
15911TIP3    H269225   0.706   6.478   0.033 -1.4866 -0.3654 -0.5487
15912TIP3   OH269226   2.535   1.075   4.918  0.5141  0.5865  0.2060
15912TIP3    H169227   2.456   1.023   4.933  1.3114 -1.0483 -0.9508
15912TIP3    H269228   2.587   1.061   4.998  0.2017  0.5851  0.4119
15913TIP3   OH269229   1.753   2.051   5.088 -0.0059  0.7943 -0.2430
15913TIP3    H169230   1.798   2.135   5.086 -0.6103  1.1402  0.3396
15913TIP3    H269231   1.796   2.002   5.158  0.7366  0.3815 -0.9690
15914TIP3   OH269232   5.087   5.388  11.562  0.5285  0.2991 -0.0997
15914TIP3    H169233   5.127   5.458  11.511 -2.0347  1.1686 -1.0818
15914TIP3    H269234   5.083   5.423  11.651  0.5466  0.8418 -0.3078
15915TIP3   OH269235   6.186   2.262   1.200  0.2689  0.5076  0.5507
15915TIP3    H169236   6.200   2.354   1.177  0.9844  0.8447  2.1722
15915TIP3    H269237   6.264   2.217   1.166  1.2208  0.9642  2.0472
15916TIP3   OH269238   1.039   2.675  16.604  0.1031  0.3922  0.4148
15916TIP3    H169239   1.123   2.712  16.631  0.6905  0.1467 -0.9947
15916TIP3    H269240   1.002   2.741  16.545 -0.9208  0.7068  1.3845
15917TIP3   OH269241   3.210   1.498   0.270 -0.2317 -0.1481 -0.1516
15917TIP3    H169242   3.123   1.463   0.248 -0.5033 -0.0037  0.6576
15917TIP3    H269243   3.266   1.421   0.275 -1.0837 -0.6872  2.8422
15918TIP3   OH269244   5.254   6.437   1.110 -0.1396  0.1961 -0.5721
15918TIP3    H169245   5.258   6.522   1.068 -3.1467  0.5786 -0.3238
15918TIP3    H269246   5.305   6.447   1.190  0.2574  1.4830 -0.9692
15919TIP3   OH269247   6.663   0.106   6.602  0.1648  0.4467 -0.5491
15919TIP3    H169248   6.668   0.061   6.518 -0.1696  0.3284 -0.5052
15919TIP3    H269249   6.697   0.043   6.665  0.4977  0.5671 -0.6062
15920TIP3   OH269250   6.455   2.778  17.074  0.1396 -0.7538  0.5907
15920TIP3    H169251   6.489   2.780  16.984 -0.4481  1.6329  0.3490
15920TIP3    H269252   6.387   2.844  17.075 -0.3534 -1.2197  2.6471
15921TIP3   OH269253   3.485   2.694  14.432 -0.8701 -0.0930 -0.4654
15921TIP3    H169254   3.403   2.697  14.383 -1.4806  1.1090  0.5835
15921TIP3    H269255   3.461   2.655  14.516 -1.0656  2.8968  1.0007
15922TIP3   OH269256   6.475   5.426  13.660  0.2578  0.0793  0.2713
15922TIP3    H169257   6.394   5.438  13.709 -1.8872 -1.4538 -2.6089
15922TIP3    H269258   6.506   5.339  13.685 -1.6652 -1.3602 -1.9774
15923TIP3   OH269259   1.443   4.935  12.773 -0.4280  0.0233  0.2149
15923TIP3    H169260   1.508   4.887  12.722  0.0392 -0.0923  0.9069
15923TIP3    H269261   1.360   4.918  12.729 -0.0437 -0.1474 -0.4483
15924TIP3   OH269262   2.190   1.755   2.818  0.2807  0.3766 -0.7961
15924TIP3    H169263   2.154   1.842   2.839 -1.5282 -0.3167 -0.8136
15924TIP3    H269264   2.238   1.730   2.897 -0.4791  0.7636 -0.1921
15925TIP3   OH269265   2.666   5.162  14.353  0.1076  0.0909 -0.1490
15925TIP3    H169266   2.728   5.233  14.340  0.1572 -0.0318 -0.5771
15925TIP3    H269267   2.606   5.167  14.279 -0.8166  0.6355  0.6203
15926TIP3   OH269268   6.591   0.890  12.681  0.1279  0.2588 -0.0406
15926TIP3    H169269   6.661   0.828  12.657 -0.3360 -0.5348  0.6306
15926TIP3    H269270   6.623   0.975  12.648  0.1003 -0.5421 -2.3248
15927TIP3   OH269271   0.365   5.218   2.622 -0.6170  0.2506  0.6294
15927TIP3    H169272   0.358   5.273   2.700 -1.5397 -0.8383  1.3545
15927TIP3    H269273   0.361   5.128   2.656  1.2168 -0.2970 -0.4774
15928TIP3   OH269274   6.085   0.075   5.907  0.9856 -0.1059 -0.1195
15928TIP3    H169275   6.139   0.022   5.849 -0.0913 -0.6290 -0.6845
15928TIP3    H269276   6.071   0.020   5.984 -1.3556 -1.3630 -1.3115
15929TIP3   OH269277   4.056   3.546  14.902  0.2132 -0.6819  0.1307
15929TIP3    H169278   4.082   3.513  14.988 -0.5822  0.6835  0.9257
15929TIP3    H269279   4.098   3.631  14.895 -1.0921 -0.0282 -0.0969
15930TIP3   OH269280   2.800   2.892   1.241  0.5830 -0.2314 -0.4131
15930TIP3    H169281   2.821   2.946   1.165 -1.7480  3.6387  1.4203
15930TIP3    H269282   2.815   2.802   1.211  1.4209  1.1348 -4.8148
15931TIP3   OH269283   6.411   3.925  15.783  0.0244  0.1736  0.1161
15931TIP3    H169284   6.419   3.853  15.845 -2.8142  0.1042  0.5514
15931TIP3    H269285   6.361   3.992  15.831  1.1009  1.7328 -0.8557
15932TIP3   OH269286   1.234   5.343   5.960 -0.2324 -0.4725 -0.5533
15932TIP3    H169287   1.209   5.266   6.011  2.1824 -0.5765  0.6211
15932TIP3    H269288   1.250   5.309   5.872  0.3883 -1.2714 -0.1478
15933TIP3   OH269289   3.851   0.853   4.513 -0.1416 -0.1948  0.4274
15933TIP3    H169290   3.934   0.874   4.469 -0.2661  0.5589  0.5337
15933TIP3    H269291   3.878   0.818   4.598  0.0751  0.7612  0.7710
15934TIP3   OH269292   1.070   6.038  14.923 -0.0359  0.0828 -0.2187
15934TIP3    H169293   1.118   6.073  14.998 -1.0739 -0.0438  0.5262
15934TIP3    H269294   1.131   6.045  14.850  2.1281 -2.4510  1.1662
15935TIP3   OH269295   4.384   1.451   1.531 -0.0230 -0.2643  0.2073
15935TIP3    H169296   4.375   1.381   1.467  2.7867  1.6361 -2.5788
15935TIP3    H269297   4.314   1.513   1.509 -0.7535 -0.8516  0.8282
15936TIP3   OH269298   2.036   4.550   3.730 -0.5271 -0.3776 -0.1676
15936TIP3    H169299   2.033   4.459   3.701 -2.1496 -0.8972  1.4640
15936TIP3    H269300   2.124   4.562   3.764 -0.7203 -1.8164  0.9489
15937TIP3   OH269301   0.687   5.849  14.239 -0.1334 -0.1045  0.1692
15937TIP3    H169302   0.633   5.798  14.177  1.1683  0.4117 -1.4602
15937TIP3    H269303   0.767   5.798  14.247 -0.4624 -0.4153  1.8952
15938TIP3   OH269304   1.917   5.076   0.294  0.0122 -0.2000 -0.0248
15938TIP3    H169305   1.958   5.148   0.341  0.9961 -0.7308 -0.0390
15938TIP3    H269306   1.942   4.997   0.343 -0.8146 -0.5656 -0.1624
15939TIP3   OH269307   0.980   4.978   6.893  1.6145 -0.4309  0.0133
15939TIP3    H169308   1.010   4.887   6.900  1.9074 -0.3070  0.3251
15939TIP3    H269309   0.971   4.992   6.798  0.5962 -1.1010 -0.0174
15940TIP3   OH269310   2.037   2.221   1.140  0.2061 -0.5152  0.4611
15940TIP3    H169311   1.954   2.267   1.127 -0.1070 -0.7643  1.4414
15940TIP3    H269312   2.034   2.148   1.079  1.4307  1.5838 -2.3528
15941TIP3   OH269313   6.206   0.136  12.700 -0.3040 -0.3277 -0.0825
15941TIP3    H169314   6.216   0.195  12.775 -1.7908  0.8792 -0.7684
15941TIP3    H269315   6.162   0.059  12.735  0.5792 -0.5305  0.6009
15942TIP3   OH269316   0.786   2.677   0.090  0.8969  0.3694 -0.2959
15942TIP3    H169317   0.771   2.596   0.139 -1.0163  0.2328 -1.0073
15942TIP3    H269318   0.826   2.649   0.008  0.5732  0.1779 -0.3898
15943TIP3   OH269319   6.657   6.848   6.347  0.3579 -0.0292 -0.2727
15943TIP3    H169320   6.733   6.834   6.291  0.6918  1.2374 -0.1737
15943TIP3    H269321   6.630   6.938   6.327 -2.2888 -1.0285 -1.7301
15944TIP3   OH269322   6.010   2.513   0.429  0.3084  0.0023  0.0378
15944TIP3    H169323   6.053   2.509   0.515 -1.7795  0.3004  1.1564
15944TIP3    H269324   5.942   2.580   0.439 -0.7204 -0.7642 -1.4808
15945TIP3   OH269325   6.073   5.709  15.966 -0.1399 -0.5358  0.6672
15945TIP3    H169326   6.033   5.796  15.969  0.4912 -0.2778  2.6355
15945TIP3    H269327   6.166   5.724  15.982 -0.0111 -1.5563  0.9579
15946TIP3   OH269328   6.135   1.135  11.489 -0.3912 -0.0503  0.1107
15946TIP3    H169329   6.061   1.127  11.549  0.2734  1.3948  1.1623
15946TIP3    H269330   6.132   1.225  11.458  0.4960 -0.1886 -0.4228
15947TIP3   OH269331   0.403   5.559  10.240  0.0709  0.9084  0.1923
15947TIP3    H169332   0.355   5.515  10.169 -0.6091  0.0895  1.1295
15947TIP3    H269333   0.431   5.488  10.297  0.5095  1.5714  0.8137
15948TIP3   OH269334   0.713   3.492   3.668  0.0252 -0.1872 -0.0384
15948TIP3    H169335   0.657   3.422   3.635  0.1256 -0.0775 -0.4541
15948TIP3    H269336   0.739   3.541   3.589  1.0986 -0.5284  0.0843
15949TIP3   OH269337   3.476   2.184   4.338  0.0388 -0.1881 -0.9746
15949TIP3    H169338   3.454   2.211   4.427 -0.7948 -2.0182 -0.5825
15949TIP3    H269339   3.553   2.236   4.315  0.1989  0.3975  0.7687
15950TIP3   OH269340   6.426   2.589   5.156  0.4951 -0.1852  0.3119
15950TIP3    H169341   6.479   2.552   5.085 -1.6342 -1.8539 -0.4993
15950TIP3    H269342   6.338   2.557   5.140 -0.8761  2.6553  1.4909
15951TIP3   OH269343   5.651   3.648   6.098  0.2060 -1.3037  0.1525
15951TIP3    H169344   5.589   3.629   6.168  0.3741  0.1362  0.7137
15951TIP3    H269345   5.737   3.643   6.140  0.3420 -1.0213 -0.0873
15952TIP3   OH269346   1.506   4.057  12.257 -0.6203 -0.6974 -0.4590
15952TIP3    H169347   1.435   4.032  12.316 -0.5537 -0.4461 -0.2715
15952TIP3    H269348   1.578   4.081  12.315 -0.6633 -0.1284 -0.6361
15953TIP3   OH269349   3.926   1.186   4.390 -0.3388  0.1074 -0.1716
15953TIP3    H169350   3.885   1.248   4.330 -0.3185 -0.4689 -0.7989
15953TIP3    H269351   3.865   1.177   4.462  0.2580  1.8735  0.6021
15954TIP3   OH269352   3.894   5.498   1.730  0.1265 -0.9946 -0.0129
15954TIP3    H169353   3.941   5.575   1.761 -0.0146 -1.4563  1.3873
15954TIP3    H269354   3.880   5.444   1.808 -0.9774 -1.8044 -0.7300
15955TIP3   OH269355   2.150   6.496  13.206  0.0202 -0.2120  0.0463
15955TIP3    H169356   2.210   6.571  13.201  2.5639 -2.1703 -2.6055
15955TIP3    H269357   2.193   6.436  13.267  0.5428 -1.3870 -1.4159
15956TIP3   OH269358   3.489   3.787   2.487  0.1796  0.5818  0.5739
15956TIP3    H169359   3.412   3.733   2.502  0.2361  0.6482  1.1246
15956TIP3    H269360   3.531   3.749   2.410  0.5291 -0.5182  1.2841
15957TIP3   OH269361   2.962   0.655   3.697 -0.1025  0.1259  0.1834
15957TIP3    H169362   2.877   0.680   3.733 -0.1606  1.0932 -0.6097
15957TIP3    H269363   2.986   0.727   3.640  1.2197 -0.1814  0.3295
15958TIP3   OH269364   6.444   0.322  14.568  0.2259 -0.1800 -0.2453
15958TIP3    H169365   6.411   0.352  14.483  0.4138 -0.9596 -0.5990
15958TIP3    H269366   6.372   0.340  14.629 -0.2977 -0.5221 -0.7510
15959TIP3   OH269367   3.021   6.642   5.205  0.7018  0.3876  1.0575
15959TIP3    H169368   2.957   6.712   5.209 -1.0915 -1.0405 -0.5456
15959TIP3    H269369   2.987   6.575   5.264 -0.1929 -1.0013 -0.9195
15960TIP3   OH269370   1.982   6.229   3.843  0.1718 -0.2487 -0.2581
15960TIP3    H169371   1.988   6.208   3.936  1.4306 -0.2854 -0.3307
15960TIP3    H269372   1.890   6.251   3.829  0.1236  0.5405  1.1585
15961TIP3   OH269373   6.267   0.674   4.461 -0.2805 -0.2651  0.1433
15961TIP3    H169374   6.232   0.614   4.528 -0.4456  0.6424  0.8875
15961TIP3    H269375   6.225   0.646   4.380 -1.3487 -0.3475  0.7020
15962TIP3   OH269376   4.886   6.830   3.134  0.7279 -0.4497  0.0710
15962TIP3    H169377   4.841   6.896   3.081 -1.0635 -2.6722 -1.3656
15962TIP3    H269378   4.935   6.881   3.199 -1.4460  2.2492 -0.2013
15963TIP3   OH269379   0.006   0.948  12.533 -0.4251  0.2382 -0.2132
15963TIP3    H169380  -0.035   0.877  12.484 -0.0690 -0.4153  0.4234
15963TIP3    H269381  -0.065   1.010  12.549 -0.7825 -0.0679 -0.5945
15964TIP3   OH269382   0.018   3.730  11.490 -0.4271  0.3107  0.1811
15964TIP3    H169383   0.063   3.663  11.543 -0.7437 -0.5908 -0.6463
15964TIP3    H269384   0.061   3.812  11.513  0.2206 -0.2326  0.9658
15965TIP3   OH269385   4.966   1.363   2.118  0.6398 -0.3155 -0.1066
15965TIP3    H169386   5.044   1.418   2.125 -0.5820  1.2873  2.6288
15965TIP3    H269387   4.982   1.290   2.178 -0.4130  0.7141  1.4872
15966TIP3   OH269388   1.470   1.050   4.045  0.6426  0.0864 -0.0983
15966TIP3    H169389   1.387   1.038   4.091  0.2104  2.2784 -0.2030
15966TIP3    H269390   1.536   1.016   4.106 -0.2466 -1.1353  0.2264
15967TIP3   OH269391   5.878   4.303  14.187  0.0011  0.0389 -0.2955
15967TIP3    H169392   5.844   4.231  14.134  0.1959 -0.5179  0.3284
15967TIP3    H269393   5.969   4.313  14.158 -0.2267  0.5113 -0.8773
15968TIP3   OH269394   2.699   3.797  13.861 -0.3452 -0.0591 -0.4475
15968TIP3    H169395   2.706   3.704  13.884 -0.6800  0.0231  0.0214
15968TIP3    H269396   2.699   3.798  13.766 -0.6632 -0.5699 -0.4595
15969TIP3   OH269397   2.328   0.237  13.999 -0.4237 -0.1451  0.1613
15969TIP3    H169398   2.279   0.291  14.061  0.1314 -0.2531  0.7015
15969TIP3    H269399   2.316   0.282  13.915 -0.4790  0.4835  0.4945
15970TIP3   OH269400   3.244   4.861   0.303  0.0846  0.5856  0.0003
15970TIP3    H169401   3.289   4.946   0.295 -0.6164  1.0050  0.3820
15970TIP3    H269402   3.151   4.882   0.290 -0.2213  0.0728  1.2177
15971TIP3   OH269403   0.500   2.720  14.261 -0.3272  0.2150 -0.0828
15971TIP3    H169404   0.424   2.758  14.217 -1.2258 -0.8753  0.4661
15971TIP3    H269405   0.567   2.715  14.193 -0.3997  2.0556 -0.3488
15972TIP3   OH269406   3.083   0.271   1.396 -0.1193 -0.1347 -0.4390
15972TIP3    H169407   3.072   0.251   1.489  1.4170  2.2840  0.3529
15972TIP3    H269408   3.158   0.218   1.369 -0.1485 -0.3461 -0.1161
15973TIP3   OH269409   2.158   3.757   3.860 -0.5635 -0.3576 -0.4671
15973TIP3    H169410   2.131   3.690   3.798  1.4531 -1.3220 -0.4006
15973TIP3    H269411   2.162   3.838   3.808 -2.7559 -0.2884 -0.6085
15974TIP3   OH269412   6.820   1.222   0.418  0.3100 -0.2818  0.0528
15974TIP3    H169413   6.808   1.312   0.387  0.7382  0.1439  1.1048
15974TIP3    H269414   6.880   1.229   0.492  1.3614 -1.5712 -0.6144
15975TIP3   OH269415   5.687   6.617  15.861 -0.2451  0.2078 -0.5279
15975TIP3    H169416   5.771   6.656  15.886 -0.8963  0.2399  1.8664
15975TIP3    H269417   5.641   6.686  15.813  0.4952  0.6969 -0.5444
15976TIP3   OH269418   5.378   4.357   4.942  0.3254 -0.5066 -0.0356
15976TIP3    H169419   5.434   4.323   5.011 -0.4259  0.0994  0.8993
15976TIP3    H269420   5.301   4.392   4.988  0.6634  1.6930 -0.9915
15977TIP3   OH269421   4.324   2.125   1.560  0.1709 -0.2418 -0.3623
15977TIP3    H169422   4.238   2.161   1.536  0.0907  0.3788  0.7727
15977TIP3    H269423   4.311   2.088   1.647  1.2874  0.8489  0.3126
15978TIP3   OH269424   6.048   6.622  16.716  0.0692 -0.0680  0.4302
15978TIP3    H169425   5.987   6.685  16.755 -1.4475 -1.1435 -0.1119
15978TIP3    H269426   5.993   6.547  16.692  1.4128 -0.5833 -1.2151
15979TIP3   OH269427   0.825   6.560   4.245  0.1002  0.5316  0.0762
15979TIP3    H169428   0.763   6.610   4.192 -0.4704 -0.7700 -0.5178
15979TIP3    H269429   0.772   6.498   4.295  0.7810  0.5751  0.8860
15980TIP3   OH269430   4.483   4.035   2.434  0.0704  0.6504 -0.7422
15980TIP3    H169431   4.403   4.078   2.463 -1.0275 -0.3617 -2.1193
15980TIP3    H269432   4.523   4.096   2.372  0.1358  0.9598 -0.3997
15981TIP3   OH269433   0.678   6.446   5.184  0.2921  0.0954  0.0977
15981TIP3    H169434   0.669   6.353   5.165  0.7770  0.1988 -0.7078
15981TIP3    H269435   0.592   6.474   5.214  0.3130 -0.7479  0.9843
15982TIP3   OH269436   1.025   6.282   0.116  0.0323 -0.2106 -0.2184
15982TIP3    H169437   0.932   6.293   0.093 -0.3248  0.6745  1.5146
15982TIP3    H269438   1.025   6.273   0.211  1.9069  2.1039  0.0841
15983TIP3   OH269439   5.233   0.787  16.929  0.6607 -0.2223  0.0218
15983TIP3    H169440   5.285   0.842  16.871  0.3441  1.1638  0.9997
15983TIP3    H269441   5.231   0.835  17.012 -1.0030 -0.9135  0.4242
15984TIP3   OH269442   1.794   1.333  10.732  0.1251 -0.1317  0.2991
15984TIP3    H169443   1.725   1.339  10.666 -0.2623 -0.4743  0.6623
15984TIP3    H269444   1.875   1.352  10.685 -0.2149  0.2565 -0.1359
15985TIP3   OH269445   6.313   6.509   0.293 -0.7313  0.0360 -0.3489
15985TIP3    H169446   6.335   6.563   0.217 -2.9949  1.5883  0.0075
15985TIP3    H269447   6.358   6.552   0.366  0.1667 -0.5469 -0.5402
15986TIP3   OH269448   4.661   1.569   5.476  0.0331 -0.4229 -0.4251
15986TIP3    H169449   4.578   1.613   5.455 -0.2560 -0.3997  0.6479
15986TIP3    H269450   4.723   1.600   5.411 -0.3297  1.0851 -0.0936
15987TIP3   OH269451   4.863   1.979  15.038 -0.0467  0.5929 -0.1408
15987TIP3    H169452   4.774   2.013  15.031  0.5694  2.1748 -0.6974
15987TIP3    H269453   4.878   1.934  14.955 -0.6239 -0.4812  0.3179
15988TIP3   OH269454   6.607   2.289   0.195  0.5965 -0.3588  0.0298
15988TIP3    H169455   6.654   2.278   0.112 -0.7166  0.5741 -0.8988
15988TIP3    H269456   6.543   2.218   0.196 -0.2926  0.4119 -0.4428
15989TIP3   OH269457   2.629   3.811   5.969  0.3817  0.0586  0.4620
15989TIP3    H169458   2.709   3.784   5.924  0.1031 -0.9427  0.5534
15989TIP3    H269459   2.569   3.738   5.957 -1.0999  1.4170 -0.9883
15990TIP3   OH269460   2.700   3.725   0.847 -0.1773  0.6221 -0.5451
15990TIP3    H169461   2.649   3.669   0.788  0.3173 -0.3423 -0.0759
15990TIP3    H269462   2.785   3.681   0.853  0.0782  1.2107  0.1584
15991TIP3   OH269463   3.416   3.645   3.596 -0.4451  0.2832  0.0455
15991TIP3    H169464   3.357   3.580   3.557  0.2233  0.6706 -1.7211
15991TIP3    H269465   3.367   3.682   3.669 -0.3471 -3.1246  2.0218
15992TIP3   OH269466   1.002   3.487  12.938  0.7650 -0.4898  0.0896
15992TIP3    H169467   1.011   3.579  12.912  1.1966 -0.4673  0.3046
15992TIP3    H269468   0.918   3.460  12.903 -0.3391  0.5803  1.7804
15993TIP3   OH269469   0.662   0.275   5.439 -0.3500 -1.0836  0.3311
15993TIP3    H169470   0.590   0.306   5.494  0.1729 -0.9607  0.9610
15993TIP3    H269471   0.741   0.311   5.480  0.0208 -0.5617 -0.7941
15994TIP3   OH269472   3.463   6.593   2.497  0.6849  0.4253 -0.0787
15994TIP3    H169473   3.405   6.646   2.552 -0.8724 -0.3524 -0.8891
15994TIP3    H269474   3.423   6.506   2.497  0.9572  0.2514 -1.9423
15995TIP3   OH269475   0.772   1.010   4.072 -0.0772 -0.3726  0.0629
15995TIP3    H169476   0.745   0.919   4.079 -0.0980 -0.2910  1.3084
15995TIP3    H269477   0.694   1.060   4.095  0.2634 -0.0766  0.5992
15996TIP3   OH269478   4.601   4.754   5.140 -0.5160 -0.1240 -0.3562
15996TIP3    H169479   4.630   4.736   5.050 -1.8472 -2.5005 -0.3890
15996TIP3    H269480   4.527   4.694   5.153 -0.2735  0.0907  2.3868
15997TIP3   OH269481   5.418   0.171   3.737 -0.2632 -0.2194 -0.4916
15997TIP3    H169482   5.387   0.261   3.735 -1.0330 -0.4727 -0.3262
15997TIP3    H269483   5.489   0.168   3.673 -1.1050  0.1865 -1.4700
15998TIP3   OH269484   4.122   6.160  13.773 -0.0642 -0.2016  0.0648
15998TIP3    H169485   4.047   6.101  13.774  0.5004 -0.9560 -0.8552
15998TIP3    H269486   4.173   6.133  13.697  1.2137  0.2130  0.7422
15999TIP3   OH269487   3.146   2.556   0.787 -0.3012  0.2871  0.8136
15999TIP3    H169488   3.170   2.479   0.840 -0.2708  0.3491  0.8898
15999TIP3    H269489   3.221   2.569   0.729 -0.6192 -0.1993  0.2724
16000TIP3   OH269490   3.359   0.494  12.725 -0.3344 -0.0483 -0.0665
16000TIP3    H169491   3.410   0.561  12.680 -1.4816  1.5467  0.9028
16000TIP3    H269492   3.269   0.507  12.694 -1.0987  0.8587  2.2638
16001TIP3   OH269493   2.621   3.984  15.657  0.7452 -0.5321  0.0935
16001TIP3    H169494   2.545   4.031  15.691  0.2993 -0.7378 -0.6054
16001TIP3    H269495   2.630   3.908  15.714 -0.9660 -1.7447 -1.1445
16002TIP3   OH269496   5.985   5.874  12.721 -0.2699  0.1114 -0.1588
16002TIP3    H169497   6.024   5.787  12.723 -2.2223 -0.9289 -2.1612
16002TIP3    H269498   5.914   5.870  12.785  0.6198  0.8175  0.9118
16003TIP3   OH269499   6.471   1.517   3.668 -0.0204  0.2564 -0.2846
16003TIP3    H169500   6.564   1.539   3.666 -0.4578  2.3158  0.1977
16003TIP3    H269501   6.464   1.436   3.617  2.0665 -0.1172 -0.0318
16004TIP3   OH269502   6.580   4.825  14.454  0.4342  0.1428  0.0772
16004TIP3    H169503   6.510   4.772  14.491  1.0554 -1.6198 -1.1522
16004TIP3    H269504   6.653   4.764  14.443  1.3356  1.3549 -0.9894
16005TIP3   OH269505   4.866   5.545   4.032 -0.1782 -0.1129 -0.3216
16005TIP3    H169506   4.894   5.521   3.944  0.7272  1.2293 -0.4172
16005TIP3    H269507   4.946   5.568   4.078 -0.7377  0.0674  0.5885
16006TIP3   OH269508   1.590   3.237  11.798  0.9293 -0.5633 -0.3158
16006TIP3    H169509   1.549   3.264  11.880  0.3498 -0.4236 -0.6458
16006TIP3    H269510   1.641   3.159  11.820  1.2742 -0.1707  0.3018
16007TIP3   OH269511   5.637   3.387  10.124 -0.9956  0.4320 -0.3299
16007TIP3    H169512   5.670   3.430  10.202  1.0011  1.3462 -1.5922
16007TIP3    H269513   5.705   3.325  10.099 -1.7094 -0.0486 -1.1962
16008TIP3   OH269514   3.396   1.837  15.017 -0.3760  0.3981 -0.0171
16008TIP3    H169515   3.466   1.847  14.953 -0.2857 -0.8406 -0.1464
16008TIP3    H269516   3.346   1.761  14.986 -0.7314  0.1957  1.0152
16009TIP3   OH269517   6.653   3.852   2.211  0.0814  0.1859 -0.1445
16009TIP3    H169518   6.663   3.947   2.202  0.1170  0.4916  2.4233
16009TIP3    H269519   6.568   3.833   2.172 -0.5325  1.5060  0.4918
16010TIP3   OH269520   3.864   2.802   3.875 -0.2879 -0.4236 -0.0336
16010TIP3    H169521   3.957   2.817   3.863 -0.2677  0.7489  1.2580
16010TIP3    H269522   3.835   2.758   3.795  1.4925 -1.4647 -0.1468
16011TIP3   OH269523   3.482   1.187  14.653  0.0342 -0.1446 -0.3866
16011TIP3    H169524   3.399   1.212  14.613  0.4407  0.9923 -0.5379
16011TIP3    H269525   3.532   1.268  14.657  1.3365 -0.9080 -0.7617
16012TIP3   OH269526   3.522   3.231  10.590 -0.4480 -0.2059 -0.2554
16012TIP3    H169527   3.572   3.300  10.546 -0.1649 -1.9807 -2.9044
16012TIP3    H269528   3.589   3.171  10.623 -0.7078 -1.1725 -1.4048
16013TIP3   OH269529   3.586   2.067  16.950 -0.4070  0.6160  0.1716
16013TIP3    H169530   3.558   2.083  16.860 -0.6705  1.3265  0.3764
16013TIP3    H269531   3.614   2.152  16.982 -0.9507  0.4960  0.9841
16014TIP3   OH269532   5.658   5.653  13.432 -0.4855 -0.1510 -0.1381
16014TIP3    H169533   5.723   5.588  13.458  0.2440  0.2740 -0.8667
16014TIP3    H269534   5.709   5.730  13.410 -1.2802  0.3452 -0.2613
16015TIP3   OH269535   5.191   5.150   3.483  0.2247  0.3903  0.7023
16015TIP3    H169536   5.130   5.199   3.428 -1.1087 -0.6539  1.1665
16015TIP3    H269537   5.278   5.179   3.457 -0.4512  1.2939 -0.6038
16016TIP3   OH269538   5.296   1.670   4.741  0.3968  0.4148 -0.2786
16016TIP3    H169539   5.257   1.586   4.717 -0.5474  0.4623  0.9769
16016TIP3    H269540   5.228   1.714   4.793  1.5445  1.1725  0.6399
16017TIP3   OH269541   6.499   4.349  16.389  0.4503 -0.2789  0.2546
16017TIP3    H169542   6.405   4.336  16.377  0.2988  1.7469 -1.2398
16017TIP3    H269543   6.506   4.426  16.445  1.1879  0.1945 -0.4579
16018TIP3   OH269544   0.292   0.886   3.428  0.7088  0.0818  0.4977
16018TIP3    H169545   0.235   0.882   3.351 -0.1280 -0.2517  1.1210
16018TIP3    H269546   0.346   0.964   3.414 -0.6803  1.0610  0.4288
16019TIP3   OH269547   6.558   0.642   3.323 -0.2020  0.0790 -0.2201
16019TIP3    H169548   6.527   0.652   3.413 -1.6620 -0.9012 -0.5653
16019TIP3    H269549   6.540   0.550   3.302  1.1823 -0.0099 -1.1386
16020TIP3   OH269550   6.799   5.406  10.921  0.1805 -0.1648  0.4256
16020TIP3    H169551   6.858   5.331  10.919  0.4143 -0.0032  0.9734
16020TIP3    H269552   6.744   5.391  10.997 -0.6630 -0.4345 -0.2222
16021TIP3   OH269553   1.304   3.711  13.551  0.5097 -0.8008 -0.4921
16021TIP3    H169554   1.364   3.679  13.483  0.3498 -0.6011 -0.7255
16021TIP3    H269555   1.217   3.691  13.517  0.4103 -0.2086 -0.5938
16022TIP3   OH269556   6.018   1.799  13.215 -0.0365  0.2464 -0.8898
16022TIP3    H169557   6.017   1.729  13.280  1.0208  0.8186 -0.2425
16022TIP3    H269558   5.933   1.843  13.226  0.0418  0.2029 -0.0404
16023TIP3   OH269559   3.083   5.746  13.267 -0.0008  0.5852  0.0469
16023TIP3    H169560   3.122   5.684  13.205  0.8369 -0.0344  1.1716
16023TIP3    H269561   3.049   5.816  13.211 -1.2433 -0.9934 -1.3010
16024TIP3   OH269562   1.674   4.127   0.659 -0.1912  0.2229 -0.2333
16024TIP3    H169563   1.598   4.169   0.619 -0.5585 -1.9002 -1.9586
16024TIP3    H269564   1.731   4.105   0.585  1.6055  0.7186  0.9217
16025TIP3   OH269565   2.978   2.348   1.813  0.2053 -0.3037 -0.1673
16025TIP3    H169566   2.910   2.414   1.828 -1.4356 -1.9391 -0.0872
16025TIP3    H269567   2.963   2.283   1.881  0.6730 -1.6354 -1.3001
16026TIP3   OH269568   5.041   5.484   4.883  0.9353  0.0997  0.4199
16026TIP3    H169569   5.101   5.411   4.901  1.0742  0.5983  2.1191
16026TIP3    H269570   5.097   5.555   4.852  1.1215  0.2889  1.1843
16027TIP3   OH269571   4.331   1.688  11.648  0.1089  0.0355  0.1779
16027TIP3    H169572   4.340   1.783  11.645 -1.2934  0.1983  0.2026
16027TIP3    H269573   4.314   1.669  11.741 -0.0854 -0.1811  0.0998
16028TIP3   OH269574   1.429   5.385   5.706  0.1131 -0.2081 -0.1121
16028TIP3    H169575   1.470   5.415   5.787  0.1576  0.9946 -0.5501
16028TIP3    H269576   1.499   5.339   5.659  0.7739  1.0870 -0.4722
16029TIP3   OH269577   0.624   2.924  14.380  0.1207  0.4370  0.0597
16029TIP3    H169578   0.645   3.000  14.326 -0.2689  0.8739  0.5215
16029TIP3    H269579   0.571   2.869  14.322  1.7196 -0.2648 -0.8191
16030TIP3   OH269580   4.987   4.006   2.976 -0.2475 -0.0951  0.0339
16030TIP3    H169581   5.008   4.081   3.032 -0.4531  0.4765 -0.6434
16030TIP3    H269582   4.898   3.983   3.001  1.0504 -2.6005  2.9987
16031TIP3   OH269583   2.199   0.957  11.420  0.2662 -0.0555  0.6131
16031TIP3    H169584   2.238   0.873  11.396  2.2360  0.5630  1.4666
16031TIP3    H269585   2.221   1.016  11.347  0.1628  0.0909  0.6982
16032TIP3   OH269586   2.976   5.506  13.649 -0.5521 -0.0100 -0.7949
16032TIP3    H169587   2.942   5.448  13.581 -1.6650 -0.1311 -0.1565
16032TIP3    H269588   2.911   5.502  13.719  0.5876  0.0717  0.3058
16033TIP3   OH269589   3.496   2.357   4.607  0.2342 -0.4046  0.1823
16033TIP3    H169590   3.491   2.394   4.695  1.1300  1.9408 -0.6665
16033TIP3    H269591   3.479   2.431   4.549  4.8566 -0.4870 -1.7462
16034TIP3   OH269592   4.266   1.973  14.731 -0.0442 -0.6160 -0.0306
16034TIP3    H169593   4.281   2.018  14.647  0.4302 -1.9345 -0.6716
16034TIP3    H269594   4.293   2.037  14.797 -2.7067  1.3898 -0.7273
16035TIP3   OH269595   5.242   6.121  12.281  0.2567 -1.0773  0.2383
16035TIP3    H169596   5.224   6.156  12.193  2.0398 -2.2569 -0.6793
16035TIP3    H269597   5.327   6.078  12.271 -0.6496 -3.3970  1.9271
16036TIP3   OH269598   0.894   0.408  13.479  0.3212  0.3843 -0.5762
16036TIP3    H169599   0.988   0.417  13.493  0.1949 -0.2721  0.8263
16036TIP3    H269600   0.886   0.352  13.402  1.0829 -0.0146 -0.3687
16037TIP3   OH269601   6.370   3.741  10.861  0.1044  0.0126  1.1156
16037TIP3    H169602   6.405   3.748  10.772 -0.3546  0.3705  0.9603
16037TIP3    H269603   6.446   3.750  10.917  0.2161  1.1925  0.7906
16038TIP3   OH269604   3.941   5.379  16.550  0.2654 -0.0373 -0.8768
16038TIP3    H169605   3.966   5.358  16.460 -1.0139 -0.0581 -1.2516
16038TIP3    H269606   3.977   5.467  16.565  1.0880 -0.3235 -1.1581
16039TIP3   OH269607   5.128   0.756   4.112 -0.2562  0.3801  0.9072
16039TIP3    H169608   5.129   0.826   4.177  0.5666 -0.4976  1.8799
16039TIP3    H269609   5.043   0.713   4.125 -0.5536  0.8749  0.6422
16040TIP3   OH269610   4.987   5.021   2.966  0.0135 -0.3220 -0.2684
16040TIP3    H169611   5.006   5.108   2.930 -4.1628 -0.0334 -2.3999
16040TIP3    H269612   5.035   4.961   2.909 -0.7362  0.4719 -1.8088
16041TIP3   OH269613   1.170   4.393   3.738  0.0888  0.1214  0.0169
16041TIP3    H169614   1.208   4.319   3.691  0.7174  0.9407 -0.7968
16041TIP3    H269615   1.244   4.437   3.778 -0.2820  0.3253  0.4911
16042TIP3   OH269616   6.441   4.224  15.488  0.2962 -0.9137  0.4421
16042TIP3    H169617   6.515   4.230  15.549 -0.3391 -0.4297  1.1827
16042TIP3    H269618   6.462   4.286  15.418 -0.3360  0.7733  1.6825
16043TIP3   OH269619   0.242   5.973  12.285  0.9294  0.1114  0.4487
16043TIP3    H169620   0.190   5.932  12.353  0.1092 -1.0144 -0.8110
16043TIP3    H269621   0.304   5.906  12.257  0.0402 -0.1101 -1.1493
16044TIP3   OH269622   0.850   0.268  15.383 -0.2798  0.3127 -0.0762
16044TIP3    H169623   0.782   0.204  15.403 -1.1738  0.8519 -1.2779
16044TIP3    H269624   0.809   0.353  15.397  0.5679  0.6461  0.4817
16045TIP3   OH269625   4.473   5.095  11.069 -0.2019 -0.4100  0.5087
16045TIP3    H169626   4.540   5.030  11.087  0.0207 -0.3835 -0.1913
16045TIP3    H269627   4.509   5.148  10.998 -1.0164 -0.4831  0.0236
16046TIP3   OH269628   4.863   2.934  16.158 -0.8444  0.1084 -0.0411
16046TIP3    H169629   4.807   2.914  16.083  0.7072 -2.0305 -0.7260
16046TIP3    H269630   4.897   2.849  16.185  1.5593  1.2532  0.7361
16047TIP3   OH269631   1.287   6.460  14.227  0.3145 -0.2531  0.6965
16047TIP3    H169632   1.241   6.475  14.145  1.2362 -0.6214  0.0885
16047TIP3    H269633   1.295   6.546  14.267 -1.0473 -0.2103  0.9110
16048TIP3   OH269634   5.931   3.164  16.435 -0.3333 -0.1481 -0.3773
16048TIP3    H169635   6.005   3.182  16.377 -0.7647  2.2574 -0.2632
16048TIP3    H269636   5.920   3.244  16.486 -3.5024 -0.1257 -0.9292
16049TIP3   OH269637   3.726   5.320   1.256 -0.0803  0.1156  0.2654
16049TIP3    H169638   3.791   5.387   1.272  1.1151 -1.0275  0.3792
16049TIP3    H269639   3.752   5.247   1.313 -0.2706 -1.1120 -1.1473
16050TIP3   OH269640   6.704   3.768  14.034 -0.4364  0.1483 -0.0316
16050TIP3    H169641   6.759   3.691  14.054  2.3079  1.9323 -0.1998
16050TIP3    H269642   6.630   3.760  14.094  0.6119 -1.7852  1.1128
16051TIP3   OH269643   0.710   0.358  13.671 -0.0493  0.3598  0.1366
16051TIP3    H169644   0.770   0.349  13.597 -1.1299  2.6550 -1.1482
16051TIP3    H269645   0.679   0.449  13.666 -1.4404  0.1040  2.4433
16052TIP3   OH269646   5.421   4.451  11.638  0.4153 -0.1299 -0.2094
16052TIP3    H169647   5.511   4.454  11.670  0.8114  1.0036 -1.3275
16052TIP3    H269648   5.370   4.416  11.711  1.6964 -0.3716  0.5942
16053TIP3   OH269649   4.757   2.285   2.492 -0.3346  0.3374 -0.4330
16053TIP3    H169650   4.690   2.282   2.560 -2.0182  0.4508 -2.0017
16053TIP3    H269651   4.708   2.281   2.410  1.5369  1.3388 -1.6762
16054TIP3   OH269652   1.222   1.330  14.071 -0.7282  0.3712 -0.7568
16054TIP3    H169653   1.304   1.372  14.043 -0.4333 -0.4601 -1.2010
16054TIP3    H269654   1.240   1.298  14.159 -0.0853 -0.9797 -1.3370
16055TIP3   OH269655   2.895   0.667  12.386 -0.5710 -0.9025 -0.8434
16055TIP3    H169656   2.875   0.646  12.478  0.3513 -1.3786 -0.7464
16055TIP3    H269657   2.844   0.604  12.336 -0.0413 -1.5225 -0.6172
16056TIP3   OH269658   0.182   6.597  13.529  0.3530 -0.6583 -0.6188
16056TIP3    H169659   0.224   6.659  13.588 -1.6755 -0.5294  0.7854
16056TIP3    H269660   0.220   6.512  13.552  0.2028 -0.4853  0.2904
16057TIP3   OH269661   0.605   5.994  13.057 -0.0804  0.3317 -0.3929
16057TIP3    H169662   0.610   6.054  13.131  0.1379  0.6510 -0.6640
16057TIP3    H269663   0.514   5.999  13.028 -0.4745 -0.6917  0.5861
16058TIP3   OH269664   4.304   2.177  10.847 -0.2393  0.2190  0.4865
16058TIP3    H169665   4.370   2.117  10.881 -0.5531 -0.4202 -0.0125
16058TIP3    H269666   4.336   2.204  10.762 -0.4723  0.1450  0.3732
16059TIP3   OH269667   0.979   1.300   2.456 -0.2310  0.5090  0.0725
16059TIP3    H169668   0.998   1.367   2.389  1.3077 -0.1912 -0.2307
16059TIP3    H269669   1.062   1.289   2.502 -0.7274 -0.5281  0.7359
16060TIP3   OH269670   6.740   5.404   3.165  0.0418 -0.4865  0.8042
16060TIP3    H169671   6.648   5.392   3.189 -0.3027 -1.4803 -0.8596
16060TIP3    H269672   6.789   5.369   3.240 -0.9479 -0.6530  1.3869
16061TIP3   OH269673   2.664   2.135   1.454  0.2063  0.4907  0.1891
16061TIP3    H169674   2.709   2.051   1.443 -1.0746 -0.2797  0.4962
16061TIP3    H269675   2.697   2.169   1.536  0.0449 -0.1903  0.5468
16062TIP3   OH269676   6.485   6.044   4.598  0.2799 -0.3396  0.5279
16062TIP3    H169677   6.441   6.107   4.541  2.9031  2.4328  1.3016
16062TIP3    H269678   6.563   6.018   4.550  1.0457 -0.1895  1.6583
16063TIP3   OH269679   5.596   1.144   3.035  0.2331 -0.7484  0.1906
16063TIP3    H169680   5.572   1.220   2.982  2.5105 -1.2478 -1.7372
16063TIP3    H269681   5.563   1.163   3.122 -1.1467  1.4476 -0.7458
16064TIP3   OH269682   6.746   5.566  13.414 -0.7634 -0.2110 -0.0528
16064TIP3    H169683   6.671   5.570  13.355 -1.6087  0.3862  1.0278
16064TIP3    H269684   6.779   5.477  13.404 -3.1664 -1.3342  1.2870
16065TIP3   OH269685   1.003   3.748  12.901 -0.2015  0.3532 -0.5498
16065TIP3    H169686   1.091   3.781  12.920 -0.4643  0.5746  0.3612
16065TIP3    H269687   0.946   3.824  12.914 -0.7025 -0.1938  0.5665
16066TIP3   OH269688   3.095   3.504   2.035 -0.0028 -0.3225  0.0146
16066TIP3    H169689   3.054   3.497   2.121 -1.4648 -2.3151 -0.7825
16066TIP3    H269690   3.054   3.435   1.982 -0.2856  1.7759 -2.7523
16067TIP3   OH269691   4.613   2.817  11.844  0.3082 -0.2260  0.4105
16067TIP3    H169692   4.604   2.899  11.796  0.1466 -1.0621 -1.0307
16067TIP3    H269693   4.699   2.784  11.821  0.0027 -0.9237  0.2193
16068TIP3   OH269694   3.391   4.391   4.352 -0.0952  0.3979  0.8482
16068TIP3    H169695   3.333   4.414   4.279 -0.7476  0.8663  1.5052
16068TIP3    H269696   3.475   4.369   4.310  0.6116  3.8872  0.1241
16069TIP3   OH269697   5.740   3.895   1.488 -0.4016 -0.5295  0.0454
16069TIP3    H169698   5.679   3.948   1.540  0.5894 -0.8641  1.5984
16069TIP3    H269699   5.687   3.823   1.454 -1.2204  0.0944 -0.0380
16070TIP3   OH269700   1.928   1.610   4.056 -0.0129  0.8078 -0.2358
16070TIP3    H169701   1.923   1.613   4.152  1.8338  0.3832 -0.1057
16070TIP3    H269702   1.886   1.527   4.033 -0.7703  1.0637  0.1514
16071TIP3   OH269703   0.344   0.702   5.181 -0.1050  0.0153  0.1886
16071TIP3    H169704   0.416   0.680   5.241 -0.9832 -2.5516  0.4258
16071TIP3    H269705   0.350   0.638   5.111 -1.7297  0.2218 -0.1782
16072TIP3   OH269706   4.907   1.341   3.560 -0.1704  0.0882  0.2861
16072TIP3    H169707   4.908   1.260   3.611  0.1364 -0.3308 -0.3805
16072TIP3    H269708   4.844   1.397   3.606 -1.8500 -1.2275 -0.3237
16073TIP3   OH269709   0.498   3.924  16.253 -0.3853  0.3152  0.2268
16073TIP3    H169710   0.426   3.877  16.296  0.6113 -1.6604 -0.1681
16073TIP3    H269711   0.535   3.979  16.323 -0.0099 -1.3810  1.4375
16074TIP3   OH269712   1.122   3.656  13.898  0.0488 -0.1767 -0.2920
16074TIP3    H169713   1.055   3.650  13.967 -0.4530 -1.4899 -0.8537
16074TIP3    H269714   1.120   3.747  13.870  0.1267  0.3352  1.2841
16075TIP3   OH269715   0.083   4.206  15.164  0.4858 -0.4483  0.1899
16075TIP3    H169716   0.137   4.244  15.234  0.0429 -1.0337  0.8627
16075TIP3    H269717   0.145   4.164  15.105  0.8967  0.3714  0.0230
16076TIP3   OH269718   0.410   3.891  11.814  0.0693  0.4076 -0.3037
16076TIP3    H169719   0.417   3.818  11.753 -0.6915 -0.2288  0.3437
16076TIP3    H269720   0.338   3.944  11.781 -0.5820 -0.1326  0.2232
16077TIP3   OH269721   0.098   5.610  13.742  0.0088 -0.0808 -0.1634
16077TIP3    H169722   0.036   5.622  13.814 -1.3348  0.5211 -1.3786
16077TIP3    H269723   0.108   5.515  13.735 -0.6746 -0.1851  0.1408
16078TIP3   OH269724   3.097   0.310  11.251  0.4372  0.1154  0.1616
16078TIP3    H169725   3.012   0.266  11.238  0.2768 -0.0977  1.7419
16078TIP3    H269726   3.113   0.356  11.168  0.3620 -2.4864 -1.4272
16079TIP3   OH269727   1.954   2.133   3.877 -0.3149  0.1613 -0.6911
16079TIP3    H169728   1.888   2.085   3.927 -1.3336 -0.9175 -2.9419
16079TIP3    H269729   2.037   2.095   3.905 -0.9248 -1.1376 -0.5806
16080TIP3   OH269730   4.722   4.979  15.613 -0.1306 -0.0149 -0.4735
16080TIP3    H169731   4.813   4.999  15.589  0.4170  1.3319  2.2780
16080TIP3    H269732   4.688   5.061  15.649 -1.9622 -0.8792 -0.0960
16081TIP3   OH269733   3.517   5.667   5.289  0.4828  0.0853  0.2512
16081TIP3    H169734   3.460   5.734   5.252  1.6666  1.2007  0.3836
16081TIP3    H269735   3.556   5.624   5.214 -0.0293 -0.2582  0.1728
16082TIP3   OH269736   1.607   5.325  15.441  0.6292 -0.3665 -0.6413
16082TIP3    H169737   1.521   5.285  15.457  0.2984  0.3681 -0.5718
16082TIP3    H269738   1.659   5.302  15.519 -0.0867  0.7654  0.1990
16083TIP3   OH269739   4.884   3.321   0.419 -0.0370  0.2537  0.2252
16083TIP3    H169740   4.880   3.389   0.352  1.7034 -0.5989 -0.8068
16083TIP3    H269741   4.962   3.343   0.470 -0.4462 -0.0184  0.9884
16084TIP3   OH269742   4.308   3.029  14.871 -0.4438 -0.3044  0.5254
16084TIP3    H169743   4.352   2.969  14.811 -0.5709  0.7618 -0.6956
16084TIP3    H269744   4.216   3.005  14.867 -0.8396  1.2307 -1.6319
16085TIP3   OH269745   5.538   1.737   0.488  0.1953  0.6429  0.2356
16085TIP3    H169746   5.616   1.683   0.498  0.0101  0.1468 -0.8547
16085TIP3    H269747   5.568   1.812   0.436 -0.1262  0.2821 -0.4730
16086TIP3   OH269748   6.468   5.339   5.273  0.3419 -0.0581  0.6556
16086TIP3    H169749   6.470   5.282   5.196  1.9335  1.1890 -0.3092
16086TIP3    H269750   6.544   5.396   5.262 -0.9994  2.0791  1.6723
16087TIP3   OH269751   2.702   4.619  14.954 -0.2362  0.0467 -0.1535
16087TIP3    H169752   2.708   4.583  14.866  0.4364  0.4715 -0.2915
16087TIP3    H269753   2.793   4.642  14.977 -0.3367 -0.4659  0.8149
16088TIP3   OH269754   5.303   6.715   2.603  0.2499  0.2531 -0.2282
16088TIP3    H169755   5.208   6.705   2.597 -0.0091  1.1338  1.6672
16088TIP3    H269756   5.337   6.627   2.586 -0.9408 -0.2032 -0.3775
16089TIP3   OH269757   0.780   6.185  16.427 -0.3231  0.2316 -0.4576
16089TIP3    H169758   0.810   6.176  16.518 -3.6610 -1.1086  0.6601
16089TIP3    H269759   0.777   6.280  16.413  1.0811  0.4512  0.4920
16090TIP3   OH269760   5.655   0.359  16.511 -0.5541  0.0711 -0.4212
16090TIP3    H169761   5.681   0.287  16.454 -0.4375  0.5185 -0.9467
16090TIP3    H269762   5.653   0.321  16.598 -1.2039 -0.7508 -0.7817
16091TIP3   OH269763   3.178   0.557   4.257 -0.5219  0.5168  0.4146
16091TIP3    H169764   3.272   0.554   4.274 -0.1557 -0.6141 -1.4717
16091TIP3    H269765   3.167   0.632   4.197 -0.7226  0.2667  0.1371
16092TIP3   OH269766   6.442   0.394   3.286 -0.2864  0.2862  0.1075
16092TIP3    H169767   6.362   0.416   3.239 -0.4949  0.8699  0.7299
16092TIP3    H269768   6.413   0.350   3.365  0.0324  0.1120  0.1328
16093TIP3   OH269769   6.319   1.849  11.498 -0.3417  0.7356 -0.0220
16093TIP3    H169770   6.252   1.908  11.533 -1.4949 -0.4500 -0.1611
16093TIP3    H269771   6.401   1.896  11.512 -1.0895  1.7867  1.1082
16094TIP3   OH269772   0.915   6.013   3.328  0.0861  0.9349 -0.1618
16094TIP3    H169773   0.858   5.966   3.268  0.4371 -0.6761  0.6988
16094TIP3    H269774   0.999   6.019   3.282  1.0045 -2.1774  0.8483
16095TIP3   OH269775   4.577   0.732  15.976  0.0442 -0.8913 -0.0366
16095TIP3    H169776   4.541   0.819  15.959 -0.3183 -0.3849  2.8688
16095TIP3    H269777   4.550   0.712  16.065  2.7384 -2.6639  0.4934
16096TIP3   OH269778   1.491   0.032  12.624 -0.1287 -0.8050  0.6018
16096TIP3    H169779   1.570   0.056  12.672  1.4746 -1.8035 -1.3911
16096TIP3    H269780   1.481  -0.062  12.637  1.2722 -1.4391 -2.1179
16097TIP3   OH269781   6.335   5.484  12.261 -0.2440  0.4019 -0.4698
16097TIP3    H169782   6.249   5.460  12.226 -0.1244 -0.6409 -0.0853
16097TIP3    H269783   6.364   5.406  12.309 -0.1681  1.5784  1.5158
16098TIP3   OH269784   4.461   3.712   5.817 -0.1927  0.1502 -0.3679
16098TIP3    H169785   4.526   3.754   5.873  3.4930 -3.1950 -1.6790
16098TIP3    H269786   4.412   3.654   5.875 -1.0187  1.5679  0.3876
16099TIP3   OH269787   0.345   2.961   1.246  0.2489  0.2141  0.0263
16099TIP3    H169788   0.347   2.920   1.332  1.1102  1.0998  0.4363
16099TIP3    H269789   0.257   2.999   1.239 -0.4705 -1.3986 -0.2474
16100TIP3   OH269790   4.264   6.585  16.372  0.1667  0.1016  0.1472
16100TIP3    H169791   4.193   6.631  16.329 -1.8558 -1.6858  1.3943
16100TIP3    H269792   4.224   6.545  16.449  3.1988  1.6934  2.8156
16101TIP3   OH269793   1.333   4.796  13.288 -0.5607 -0.0850 -0.3868
16101TIP3    H169794   1.387   4.796  13.210  0.1294 -0.2927  0.0858
16101TIP3    H269795   1.374   4.861  13.345 -0.5604 -0.5396  0.1397
16102TIP3   OH269796   3.153   2.372   0.985 -0.3582 -0.3659  0.4008
16102TIP3    H169797   3.120   2.299   0.932  0.0338  0.0635 -0.4498
16102TIP3    H269798   3.208   2.330   1.051 -0.7898 -0.9026  0.4358
16103TIP3   OH269799   0.822   1.601   2.978  0.5520 -0.5752  0.0882
16103TIP3    H169800   0.870   1.677   3.011  0.1900  0.0862 -0.8578
16103TIP3    H269801   0.786   1.560   3.056 -0.1071  0.8164  0.5581
16104TIP3   OH269802   4.880   4.693   1.718  0.5914  0.0264  0.0042
16104TIP3    H169803   4.937   4.627   1.758 -0.6071 -0.5866  0.7460
16104TIP3    H269804   4.916   4.776   1.750  0.4904 -0.3958  1.2669
16105TIP3   OH269805   4.571   6.284  15.901 -0.1056 -0.3928 -0.1773
16105TIP3    H169806   4.512   6.212  15.922  1.0655 -1.4201 -0.2865
16105TIP3    H269807   4.624   6.296  15.980 -1.3076  1.4240  0.4123
16106TIP3   OH269808   4.241   5.374   1.961  0.0693  0.2466  0.4318
16106TIP3    H169809   4.324   5.412   1.932 -0.6883  1.6726  0.0659
16106TIP3    H269810   4.252   5.361   2.056 -0.1547  2.8563  0.8804
16107TIP3   OH269811   1.675   0.409   3.989  0.2469 -0.4858 -0.2139
16107TIP3    H169812   1.623   0.469   3.936  2.2264  1.4466 -0.1405
16107TIP3    H269813   1.678   0.328   3.938  1.0895  0.9042 -2.5427
16108TIP3   OH269814   4.221   1.888  16.129  0.2098  0.4304  0.3146
16108TIP3    H169815   4.308   1.920  16.104  0.9959 -1.1847  0.8828
16108TIP3    H269816   4.214   1.909  16.222  1.1359 -1.7944  0.9400
16109TIP3   OH269817   2.056   3.959  13.181 -0.0378 -0.4071  0.0364
16109TIP3    H169818   1.964   3.945  13.157  0.0391  0.1049 -0.5990
16109TIP3    H269819   2.103   3.886  13.140 -0.3131 -1.4125  1.4785
16110TIP3   OH269820   5.609   3.194   0.729 -0.4305  0.2962  0.0201
16110TIP3    H169821   5.692   3.197   0.777 -0.5022  0.8141  0.1157
16110TIP3    H269822   5.635   3.187   0.637 -0.2875 -2.2344  0.1810
16111TIP3   OH269823   4.423   6.553   5.473  0.0499 -0.3043  0.2655
16111TIP3    H169824   4.360   6.577   5.541 -1.2046 -1.7461 -0.3377
16111TIP3    H269825   4.419   6.625   5.410 -1.3082 -0.5729  0.0333
16112TIP3   OH269826   2.758   1.762  13.060  0.1228 -0.5172  0.5687
16112TIP3    H169827   2.685   1.734  13.004 -0.4456  1.1878  0.3876
16112TIP3    H269828   2.718   1.778  13.145  0.0829  1.1643  0.2754
16113TIP3   OH269829   6.248   4.324   4.272 -0.4500 -0.2332 -0.2306
16113TIP3    H169830   6.262   4.308   4.179  2.8394  0.5107 -0.0108
16113TIP3    H269831   6.237   4.237   4.311 -2.0748 -0.5302 -1.3098
16114TIP3   OH269832   5.371   6.696  13.514  0.3906  0.0174  0.0643
16114TIP3    H169833   5.357   6.616  13.565  1.4419  1.1462  2.2460
16114TIP3    H269834   5.349   6.671  13.424  0.0087 -2.5082  0.7823
16115TIP3   OH269835   6.803   3.274  12.497  1.0960  0.4636  0.1141
16115TIP3    H169836   6.827   3.261  12.589 -0.2703 -1.6368  0.2517
16115TIP3    H269837   6.871   3.229  12.447  0.2268 -1.0632  0.2668
16116TIP3   OH269838   6.513   5.619   2.395  0.4723 -0.4123  0.4440
16116TIP3    H169839   6.558   5.625   2.311 -1.3852 -0.7372 -0.6354
16116TIP3    H269840   6.420   5.626   2.373 -0.1922 -2.3303  2.2769
16117TIP3   OH269841   5.284   4.654   3.558 -0.2536  0.3602  0.3771
16117TIP3    H169842   5.299   4.749   3.561 -1.5886  0.6878 -1.4285
16117TIP3    H269843   5.201   4.641   3.604 -1.0605  0.3715 -1.0072
16118TIP3   OH269844   2.255   1.609  12.701 -0.5288 -0.6961 -0.1761
16118TIP3    H169845   2.243   1.684  12.760 -0.9131 -0.0415 -1.0722
16118TIP3    H269846   2.322   1.637  12.640 -0.0467 -1.4209  0.0052
16119TIP3   OH269847   2.121   5.654  14.596  0.5852 -0.2640  0.5170
16119TIP3    H169848   2.101   5.743  14.566  1.2032 -0.2966 -0.0097
16119TIP3    H269849   2.193   5.665  14.657  2.0139 -0.5715 -1.0495
16120TIP3   OH269850   6.172   4.904   0.156 -0.1816 -0.2578  0.0960
16120TIP3    H169851   6.090   4.923   0.203  0.8030  2.0428  1.0042
16120TIP3    H269852   6.174   4.967   0.084  1.1816  0.2995  0.5993
16121TIP3   OH269853   2.598   4.876  12.647 -0.2140  0.6139 -0.6212
16121TIP3    H169854   2.550   4.796  12.665  0.0992  0.4483 -0.5200
16121TIP3    H269855   2.568   4.938  12.713 -0.6183  0.6471 -0.8349
16122TIP3   OH269856   0.834   4.826  14.419  0.1345 -0.0355 -0.5842
16122TIP3    H169857   0.782   4.755  14.383  1.2399 -0.5441 -1.2458
16122TIP3    H269858   0.810   4.903  14.367  0.4459 -0.3924 -1.2722
16123TIP3   OH269859   4.205   2.384   4.366  0.2772  0.5113  0.1470
16123TIP3    H169860   4.163   2.358   4.448 -0.0602 -2.3287 -0.7924
16123TIP3    H269861   4.171   2.322   4.301  4.1542 -0.5774 -1.1582
16124TIP3   OH269862   6.818   6.380   4.885 -0.5074 -0.3909 -0.5546
16124TIP3    H169863   6.904   6.373   4.927 -1.0176 -1.8694  0.3066
16124TIP3    H269864   6.809   6.298   4.837 -0.6674  0.5496 -2.2352
16125TIP3   OH269865   0.525   5.680   5.337 -0.1211 -0.4309 -0.9259
16125TIP3    H169866   0.592   5.746   5.355 -0.0518 -1.0618  1.4714
16125TIP3    H269867   0.574   5.604   5.305  0.3067 -0.7138  0.3326
16126TIP3   OH269868   0.627   6.232  12.189 -0.6906 -0.2207  0.3227
16126TIP3    H169869   0.720   6.206  12.186  0.0690  2.2001  0.6595
16126TIP3    H269870   0.609   6.265  12.101 -0.9597  0.1998  0.5373
16127TIP3   OH269871   6.359   0.458   4.846 -0.2265 -0.0665  0.1059
16127TIP3    H169872   6.396   0.403   4.916  0.4954 -0.3690 -0.5050
16127TIP3    H269873   6.426   0.525   4.831  0.6276 -1.2932 -1.8146
16128TIP3   OH269874   6.027   6.142   1.849 -0.2608 -0.2120  0.2732
16128TIP3    H169875   6.041   6.085   1.924 -0.4197 -1.1473 -0.3897
16128TIP3    H269876   5.932   6.144   1.838 -0.2061 -0.8715 -0.4708
16129TIP3   OH269877   0.829   4.060  10.793 -0.3911 -0.0467 -0.2371
16129TIP3    H169878   0.843   3.978  10.746 -1.6171 -0.2015 -0.3628
16129TIP3    H269879   0.844   4.129  10.728  0.2931 -0.1756 -0.2193
16130TIP3   OH269880   3.766   3.362  10.508  0.5193 -0.5005  0.1908
16130TIP3    H169881   3.840   3.303  10.491  0.8967  0.4330 -1.7234
16130TIP3    H269882   3.805   3.435  10.556  0.8983  0.0021 -0.8361
16131TIP3   OH269883   5.762   6.000   5.570 -0.2292  0.9380 -0.0400
16131TIP3    H169884   5.792   5.994   5.479 -0.8137 -1.0671 -0.1526
16131TIP3    H269885   5.790   6.087   5.599  1.0820  1.1339 -1.7333
16132TIP3   OH269886   4.430   1.925   2.595  0.3861 -0.3377  0.5174
16132TIP3    H169887   4.500   1.939   2.659  2.2373 -1.3293 -1.1496
16132TIP3    H269888   4.401   2.013   2.571  2.5183  0.2167 -0.2210
16133TIP3   OH269889   3.313   6.063  16.978  0.3851 -0.3163  0.3451
16133TIP3    H169890   3.270   5.999  16.921 -0.8197  0.6739  0.1112
16133TIP3    H269891   3.404   6.064  16.948 -0.2878  0.4811 -1.8901
16134TIP3   OH269892   3.633   2.085  12.059 -0.2525  0.3409  0.0034
16134TIP3    H169893   3.664   2.084  12.149 -1.2804  2.9750  0.4738
16134TIP3    H269894   3.538   2.095  12.065 -0.3292  0.7324 -1.3672
16135TIP3   OH269895   2.891   3.636  14.215  0.5886  0.6662  0.4889
16135TIP3    H169896   2.904   3.731  14.221  0.9768  0.5736  1.3650
16135TIP3    H269897   2.921   3.603  14.300 -1.9040  0.0207  1.2139
16136TIP3   OH269898   3.072   5.577   3.567 -0.4651 -0.0710 -0.1550
16136TIP3    H169899   3.145   5.633   3.592  0.5849 -1.3742 -0.1548
16136TIP3    H269900   3.110   5.489   3.564 -2.1241 -0.8395  0.2018
16137TIP3   OH269901   4.152   0.737  11.975 -0.4585 -0.4505 -0.1372
16137TIP3    H169902   4.061   0.741  12.005 -0.4281 -2.6365  0.4785
16137TIP3    H269903   4.151   0.670  11.907  0.7485 -0.8210  0.1814
16138TIP3   OH269904   4.951   6.483  14.883 -0.0121 -1.1544 -0.1242
16138TIP3    H169905   4.993   6.568  14.900  1.0743 -1.5735 -0.6343
16138TIP3    H269906   4.873   6.505  14.833 -1.0518 -0.2621  1.7808
16139TIP3   OH269907   1.224   2.698  16.910  0.2274 -0.0667 -0.1728
16139TIP3    H169908   1.236   2.786  16.874  0.8470 -0.4098 -0.8569
16139TIP3    H269909   1.131   2.692  16.931 -0.1925  0.1335 -1.8358
16140TIP3   OH269910   2.967   0.401   2.048 -0.2204 -0.5956  0.1490
16140TIP3    H169911   2.890   0.348   2.030 -1.4012  0.4599  1.8339
16140TIP3    H269912   2.932   0.487   2.071  1.4275 -0.2043  1.3622
16141TIP3   OH269913   4.936   2.243   5.447  0.3428  0.6740  0.3832
16141TIP3    H169914   4.841   2.255   5.446  0.4213  1.3249  0.1380
16141TIP3    H269915   4.967   2.287   5.368  0.9002  0.9543  0.7457
16142TIP3   OH269916   2.857   5.425  11.885 -0.3676  0.9916 -0.6374
16142TIP3    H169917   2.921   5.417  11.814 -0.1175 -0.7460 -0.2667
16142TIP3    H269918   2.789   5.483  11.850  1.9593  3.9918 -0.5982
16143TIP3   OH269919   3.151   4.715   3.832 -0.3693 -0.4204 -0.1919
16143TIP3    H169920   3.187   4.761   3.757  1.0466 -0.4498  0.4245
16143TIP3    H269921   3.184   4.625   3.823 -0.0609 -0.3886  0.5187
16144TIP3   OH269922   6.461   0.386  12.054 -0.1188  0.5391  0.0220
16144TIP3    H169923   6.489   0.325  12.122 -0.2142  0.6038  0.1193
16144TIP3    H269924   6.501   0.469  12.079 -1.7310  1.0402  1.0820
16145TIP3   OH269925   4.714   0.182   1.969 -0.2900 -0.4195 -0.1136
16145TIP3    H169926   4.654   0.211   2.039  0.7340 -1.0421  1.0603
16145TIP3    H269927   4.661   0.123   1.916 -1.2886  0.5934 -0.2980
16146TIP3   OH269928   1.330   4.286  16.262 -0.2739  0.5012 -0.1472
16146TIP3    H169929   1.258   4.333  16.303 -1.9197 -1.4681 -0.5993
16146TIP3    H269930   1.374   4.242  16.334 -1.1939 -0.4031 -0.1130
16147TIP3   OH269931   1.978   1.900   4.626  0.4847  0.4080 -0.3542
16147TIP3    H169932   1.972   1.814   4.667  3.1446  0.3235  0.0456
16147TIP3    H269933   1.893   1.913   4.584 -0.6984 -1.5175  1.2607
16148TIP3   OH269934   3.918   5.093  14.300  0.1819  0.0178 -0.2217
16148TIP3    H169935   3.910   5.121  14.209 -1.7945 -2.8594 -1.0498
16148TIP3    H269936   3.848   5.139  14.346  0.7851  0.9825 -0.2245
16149TIP3   OH269937   4.219   1.081   3.558  0.5471  0.2690 -0.3439
16149TIP3    H169938   4.169   1.162   3.545  0.7123  0.3556 -0.4350
16149TIP3    H269939   4.153   1.016   3.581  0.6469  1.0522  2.6367
16150TIP3   OH269940   1.214   6.122  13.376  1.0140  0.7273 -0.2914
16150TIP3    H169941   1.126   6.102  13.345  1.0787  0.7133 -0.4690
16150TIP3    H269942   1.259   6.037  13.377  0.8225  0.6215  0.4651
16151TIP3   OH269943   3.905   4.076  12.014 -0.4396  0.2623  0.0731
16151TIP3    H169944   3.952   4.122  11.944 -0.0766 -1.2332 -0.7085
16151TIP3    H269945   3.919   4.129  12.092 -2.5854  3.1358 -1.3131
16152TIP3   OH269946   5.458   4.689  13.240 -0.8891  0.4073  0.5489
16152TIP3    H169947   5.486   4.665  13.151 -3.0035  0.7540 -0.2882
16152TIP3    H269948   5.481   4.782  13.248  2.0691 -0.3269  1.5906
16153TIP3   OH269949   6.739   4.765  10.809 -0.2473  0.0186 -0.6676
16153TIP3    H169950   6.827   4.736  10.831  0.3747  1.8321 -0.6051
16153TIP3    H269951   6.712   4.707  10.737  0.3111 -1.6228  0.4011
16154TIP3   OH269952   6.492   2.676   4.530 -0.1741  0.2717 -0.8194
16154TIP3    H169953   6.451   2.691   4.445 -4.1686 -1.6932  0.5164
16154TIP3    H269954   6.451   2.596   4.563  1.7644  0.5014  2.6526
16155TIP3   OH269955   1.287   2.837  13.641 -0.0007  0.0886 -0.6073
16155TIP3    H169956   1.202   2.858  13.603  0.2434 -0.7688 -1.6890
16155TIP3    H269957   1.319   2.920  13.677 -1.1028  0.5005 -0.5461
16156TIP3   OH269958   3.115   5.566  13.046 -0.2048  0.1708 -0.1634
16156TIP3    H169959   3.196   5.529  13.011 -1.4972 -1.1098 -2.0221
16156TIP3    H269960   3.067   5.597  12.969 -0.9014  2.2243  1.0152
16157TIP3   OH269961   3.116   0.677  15.970  0.2637  0.3449  0.3674
16157TIP3    H169962   3.150   0.622  16.040 -1.2086 -0.8795  0.1677
16157TIP3    H269963   3.158   0.644  15.891 -0.4238 -0.3734  0.2837
16158TIP3   OH269964   1.634   2.928  15.254  0.3932 -0.4806 -0.2336
16158TIP3    H169965   1.573   2.863  15.218 -2.1667  0.6557  1.7341
16158TIP3    H269966   1.674   2.969  15.177 -1.4648 -1.1857 -1.6459
16159TIP3   OH269967   1.738   0.621   1.727 -0.4934  0.0210 -0.1955
16159TIP3    H169968   1.796   0.617   1.802  1.0109 -0.3277 -1.3245
16159TIP3    H269969   1.740   0.533   1.690  1.0569  0.8447 -2.2451
16160TIP3   OH269970   0.830   3.009  16.477  0.1485  0.3407  0.0683
16160TIP3    H169971   0.761   2.942  16.481  1.3186 -0.8608  0.7752
16160TIP3    H269972   0.808   3.069  16.548 -0.5550  0.3611 -0.1562
16161TIP3   OH269973   2.084   4.234  13.160  0.1529  0.4036 -0.0556
16161TIP3    H169974   2.176   4.256  13.173  0.5979 -1.2424 -0.2754
16161TIP3    H269975   2.083   4.140  13.142 -1.5172  0.4880 -0.6316
16162TIP3   OH269976   5.201   6.233  11.469 -0.3473  0.0977 -0.0150
16162TIP3    H169977   5.226   6.174  11.540  0.0595  0.8113  0.4485
16162TIP3    H269978   5.125   6.192  11.429  1.0476 -1.7235 -0.9251
16163TIP3   OH269979   0.571   5.797   1.439  0.6778 -0.0392 -0.3938
16163TIP3    H169980   0.514   5.852   1.385 -2.2487 -3.0721 -0.6900
16163TIP3    H269981   0.523   5.716   1.450  3.4902 -1.5367  2.4406
16164TIP3   OH269982   0.949   5.637   0.714 -0.0130 -0.2616 -0.3073
16164TIP3    H169983   1.016   5.666   0.653  0.9365 -0.8083  0.4397
16164TIP3    H269984   0.995   5.630   0.798 -0.9853 -0.7275  0.1962
16165TIP3   OH269985   1.426   5.896  14.078  0.3585  0.1487 -0.2795
16165TIP3    H169986   1.425   5.831  14.148  0.3578  0.6405  0.1791
16165TIP3    H269987   1.418   5.981  14.122  0.4061  0.4703 -0.8665
16166TIP3   OH269988   5.538   4.744  11.608 -0.0105  0.8328  0.7891
16166TIP3    H169989   5.521   4.825  11.560  0.3334  1.5021  1.7663
16166TIP3    H269990   5.467   4.686  11.582  0.0302  1.2481 -0.3336
16167TIP3   OH269991   4.678   4.686   2.714 -0.2337 -0.7828  0.1917
16167TIP3    H169992   4.747   4.736   2.671  0.2751 -2.1981 -0.7125
16167TIP3    H269993   4.620   4.753   2.751 -0.1496  0.5150 -1.8294
16168TIP3   OH269994   5.643   0.021   5.241 -0.0199 -0.7965  1.5312
16168TIP3    H169995   5.634  -0.071   5.265  2.3541 -1.3835  0.4005
16168TIP3    H269996   5.642   0.022   5.146 -0.5022  0.4191  1.5291
16169TIP3   OH269997   3.338   4.088   0.365 -0.1712  0.7589 -0.3176
16169TIP3    H169998   3.334   3.992   0.372 -4.3253  0.6785 -0.9162
16169TIP3    H269999   3.417   4.105   0.314  0.6887 -2.3334 -0.2393
16170TIP3   OH270000   4.005   1.091   6.148  0.6526  0.2865  0.3824
16170TIP3    H170001   4.032   1.168   6.197 -1.1544  0.7533  0.7094
16170TIP3    H270002   4.042   1.017   6.196  0.5057  0.8431  1.3622
16171TIP3   OH270003   0.261   3.985   3.625  0.3429  0.1748 -0.0750
16171TIP3    H170004   0.336   3.956   3.677 -0.3030  0.8799  1.3083
16171TIP3    H270005   0.290   4.067   3.585  0.7709 -0.2603 -0.6677
16172TIP3   OH270006   0.122   0.692  11.544  0.4281 -0.1094 -0.4533
16172TIP3    H170007   0.194   0.661  11.599 -0.5690  0.5412  1.3039
16172TIP3    H270008   0.149   0.670  11.455  1.4665 -2.5677  0.3705
16173TIP3   OH270009   3.192   1.857   6.322 -0.0508 -0.2869  0.0620
16173TIP3    H170010   3.153   1.933   6.365  0.3134  0.6964 -1.2750
16173TIP3    H270011   3.283   1.882   6.307 -0.5108  0.1194 -2.6769
16174TIP3   OH270012   4.374   4.483  16.573  0.2478  0.3763 -0.3831
16174TIP3    H170013   4.279   4.470  16.572  0.2281  0.5346 -0.4921
16174TIP3    H270014   4.408   4.403  16.613 -0.1421  1.5946  2.6463
16175TIP3   OH270015   5.460   1.295  15.775 -0.4586  0.1109 -0.2770
16175TIP3    H170016   5.428   1.385  15.766  0.0054  0.1842 -1.2986
16175TIP3    H270017   5.428   1.267  15.861  0.7817  1.8475  0.8503
16176TIP3   OH270018   3.385   1.497   5.235  0.1851  0.0634  0.2459
16176TIP3    H170019   3.422   1.584   5.219  0.1488 -0.0126 -0.2672
16176TIP3    H270020   3.432   1.440   5.175 -0.3271 -0.1406  0.0385
16177TIP3   OH270021   4.953   0.119  12.870  0.1303  0.0314  0.1804
16177TIP3    H170022   4.957   0.025  12.852 -1.2883  0.2013 -1.3266
16177TIP3    H270023   4.939   0.126  12.964  0.2289 -1.2549  0.3022
16178TIP3   OH270024   5.419   0.634   1.086  0.7264 -0.0374 -0.1398
16178TIP3    H170025   5.438   0.713   1.035  2.1234 -0.0599  0.3198
16178TIP3    H270026   5.428   0.661   1.177 -1.3496 -0.1041  0.1283
16179TIP3   OH270027   3.745   1.382  14.505 -0.1423  0.2238  0.5967
16179TIP3    H170028   3.685   1.346  14.440  1.3458  1.6774 -1.7529
16179TIP3    H270029   3.790   1.454  14.459  1.2831  1.0959  3.1396
16180TIP3   OH270030   2.813   2.024  16.851 -0.2171 -0.4210  0.8003
16180TIP3    H170031   2.902   2.006  16.821 -0.7560 -0.6084 -0.8381
16180TIP3    H270032   2.777   2.083  16.785 -1.4655 -0.7514  1.1503
16181TIP3   OH270033   4.855   3.445  12.359  0.1942  0.3424  0.3514
16181TIP3    H170034   4.837   3.353  12.338  0.2123  0.5328 -0.5255
16181TIP3    H270035   4.780   3.493  12.324 -0.1626  0.6023  1.4380
16182TIP3   OH270036   4.299   3.587  14.457  0.0808 -0.1923 -0.1111
16182TIP3    H170037   4.274   3.520  14.521 -2.3556 -0.6047 -1.3853
16182TIP3    H270038   4.312   3.539  14.376 -1.6857  0.8064 -1.0400
16183TIP3   OH270039   2.335   6.598   4.761  1.0320 -0.3923  0.4938
16183TIP3    H170040   2.425   6.585   4.732  1.5483  1.7485  0.9250
16183TIP3    H270041   2.336   6.684   4.805 -1.4253  0.1925 -0.4054
16184TIP3   OH270042   0.771   1.428  12.879  0.1621  0.1693  0.0360
16184TIP3    H170043   0.843   1.481  12.914 -0.2513  1.6628 -1.3001
16184TIP3    H270044   0.701   1.437  12.944  1.6248 -2.7444  2.2974
16185TIP3   OH270045   0.072   4.561   2.017 -0.5719  0.1762 -0.2082
16185TIP3    H170046   0.083   4.655   2.002  0.1694  0.5640  2.2481
16185TIP3    H270047   0.156   4.522   1.990 -0.5207  0.3608 -0.3149
16186TIP3   OH270048   4.780   1.171  12.692 -0.0432 -0.7829 -0.4489
16186TIP3    H170049   4.824   1.091  12.721 -1.6902 -0.8386  2.2623
16186TIP3    H270050   4.690   1.143  12.674  0.0258 -0.0008 -2.1959
16187TIP3   OH270051   4.155   2.210  13.009 -0.7503 -0.4594  0.0535
16187TIP3    H170052   4.203   2.139  12.968  0.7202  0.6871 -0.3175
16187TIP3    H270053   4.150   2.278  12.942 -0.2098  0.6162  1.0632
16188TIP3   OH270054   2.833   4.605  13.423 -0.3858  0.4747  0.8912
16188TIP3    H170055   2.902   4.553  13.381 -0.8746 -0.0156  0.6805
16188TIP3    H270056   2.831   4.687  13.373 -0.7875  0.0010  0.1149
16189TIP3   OH270057   6.234   0.744  14.455  0.1441 -0.1720  0.5177
16189TIP3    H170058   6.249   0.659  14.412  0.2169 -0.5084  1.1828
16189TIP3    H270059   6.227   0.722  14.548 -0.0348  0.5348  0.6753
16190TIP3   OH270060   0.073   5.235   3.921 -0.1732 -0.1054 -0.6040
16190TIP3    H170061   0.122   5.253   3.841  0.1601  1.3105 -0.1205
16190TIP3    H270062  -0.014   5.270   3.904 -0.5732 -1.2192 -0.9003
16191TIP3   OH270063   3.059   1.511  16.820  0.5842 -0.0638  0.4425
16191TIP3    H170064   3.086   1.516  16.912 -0.8237  0.3604  0.8539
16191TIP3    H270065   2.982   1.455  16.821  0.8379 -0.4434 -0.5611
16192TIP3   OH270066   2.951   2.214   3.998 -0.4193 -0.2079  0.2708
16192TIP3    H170067   3.014   2.158   4.044  1.9404  0.7374 -1.5746
16192TIP3    H270068   2.923   2.278   4.063  1.5796  0.1257  0.8880
16193TIP3   OH270069   3.543   5.531  13.508  0.3241  0.5336  0.8647
16193TIP3    H170070   3.617   5.501  13.456 -0.3750 -1.3216  0.8611
16193TIP3    H270071   3.484   5.456  13.512 -2.3868  2.4216 -0.5262
16194TIP3   OH270072   2.525   5.659  16.134  0.0436 -0.3942  0.1942
16194TIP3    H170073   2.492   5.749  16.134  0.1782 -0.3384  0.9482
16194TIP3    H270074   2.598   5.660  16.072  0.1864  0.0764  0.3637
16195TIP3   OH270075   0.944   0.852  11.015  0.0498  0.2278 -0.0139
16195TIP3    H170076   0.903   0.819  11.095 -1.2063  0.5870 -0.4970
16195TIP3    H270077   0.873   0.860  10.952  1.0554 -0.2290 -1.2468
16196TIP3   OH270078   3.020   1.348   0.138 -0.1718  0.4534  0.3055
16196TIP3    H170079   2.957   1.334   0.067 -0.3087  3.4004 -0.2941
16196TIP3    H270080   2.974   1.319   0.217 -1.8460  1.3858 -0.2728
16197TIP3   OH270081   6.121   5.207   0.198  0.1405  0.2727  0.1205
16197TIP3    H170082   6.195   5.224   0.255 -0.1708  0.9887  0.3185
16197TIP3    H270083   6.075   5.134   0.240  0.8034 -0.2716 -0.0819
16198TIP3   OH270084   5.493   5.701  15.346 -0.5198  0.3787 -0.0062
16198TIP3    H170085   5.429   5.731  15.410 -1.2613 -0.8552 -0.1388
16198TIP3    H270086   5.509   5.778  15.291 -1.4079  0.8895  0.4174
16199TIP3   OH270087   2.066   2.503   0.123 -0.4318  0.5401 -0.2241
16199TIP3    H170088   2.122   2.425   0.120 -0.1395  0.7759 -2.7203
16199TIP3    H270089   1.990   2.475   0.175 -0.6648 -1.6756 -1.6102
16200TIP3   OH270090   3.971   2.821  11.626  0.9227 -0.4601  0.0776
16200TIP3    H170091   3.909   2.780  11.687  0.2928 -1.2539 -1.0696
16200TIP3    H270092   4.056   2.810  11.669  0.8010 -3.0228 -0.1568
16201TIP3   OH270093   2.628   4.831  14.422  0.2003 -0.3965 -0.1674
16201TIP3    H170094   2.632   4.786  14.337 -0.1610  0.7076 -0.7813
16201TIP3    H270095   2.645   4.923  14.402  0.8355 -0.2225  1.0592
16202TIP3   OH270096   3.552   6.223  11.514  0.2175  1.0772  0.1995
16202TIP3    H170097   3.634   6.200  11.558  0.2860  1.8486  0.4867
16202TIP3    H270098   3.518   6.296  11.564 -0.6052  0.8234  0.0200
16203TIP3   OH270099   0.964   3.696   3.037 -0.2167  0.1364  0.1948
16203TIP3    H170100   0.904   3.622   3.032  1.3339 -1.2010  0.6233
16203TIP3    H270101   0.907   3.772   3.047 -1.8870 -0.8963 -0.9158
16204TIP3   OH270102   2.758   3.298  10.085  0.7719 -0.2629  0.1146
16204TIP3    H170103   2.698   3.242  10.133 -1.0419  0.4389 -1.2227
16204TIP3    H270104   2.734   3.387  10.111  0.4532  0.0744 -1.2398
16205TIP3   OH270105   3.835   1.881  14.779 -0.1244  0.1413 -0.4019
16205TIP3    H170106   3.799   1.950  14.836 -0.1724 -2.0846  2.5128
16205TIP3    H270107   3.921   1.863  14.816 -0.6201 -2.1583 -0.2504
16206TIP3   OH270108   1.040   2.093  16.700 -0.1587  0.2958 -0.2165
16206TIP3    H170109   1.007   2.052  16.620 -0.0994 -0.8911  0.3327
16206TIP3    H270110   1.035   2.023  16.766  1.0181  0.8567  0.5029
16207TIP3   OH270111   1.032   3.629   1.281  0.8504  0.0060 -0.1422
16207TIP3    H170112   1.096   3.584   1.226  1.4550  0.1794  0.4051
16207TIP3    H270113   0.953   3.632   1.228  1.3576 -0.0148 -0.9197
16208TIP3   OH270114   2.013   5.392   5.651 -0.0055  0.0391  0.1948
16208TIP3    H170115   1.946   5.452   5.618  0.1149 -1.5067 -3.3267
16208TIP3    H270116   2.090   5.409   5.596 -0.2839 -3.8038 -1.7349
16209TIP3   OH270117   0.903   3.998  11.724 -0.1593  0.0189 -0.3762
16209TIP3    H170118   0.947   4.043  11.796 -1.5964  3.6795 -1.5644
16209TIP3    H270119   0.951   3.916  11.715  2.1503  0.8536  2.5727
16210TIP3   OH270120   0.207   1.871  15.564  0.4768  0.2712 -0.3898
16210TIP3    H170121   0.116   1.896  15.581  0.7691  1.0627  0.0797
16210TIP3    H270122   0.200   1.792  15.511 -0.4885  0.1061 -0.0560
16211TIP3   OH270123   4.649   5.848  12.490 -0.3460 -0.1006  0.5861
16211TIP3    H170124   4.587   5.877  12.557 -0.8524 -1.2224  0.6281
16211TIP3    H270125   4.651   5.753  12.499  1.0915 -0.1123  0.3079
16212TIP3   OH270126   1.140   2.187  11.347  0.2231  0.3649 -0.5530
16212TIP3    H170127   1.098   2.110  11.386 -0.6572 -0.2681 -2.6225
16212TIP3    H270128   1.233   2.164  11.344 -0.0773 -0.7985 -1.5032
16213TIP3   OH270129   1.932   5.972  11.761 -0.1624 -0.5299  0.1130
16213TIP3    H170130   1.922   5.877  11.765 -0.3585 -0.5172 -0.0370
16213TIP3    H270131   1.848   6.003  11.727  0.2028 -0.3703 -0.6718
16214TIP3   OH270132   1.338   1.222  10.673 -0.1649 -0.1103 -0.0997
16214TIP3    H170133   1.407   1.219  10.739 -0.0308  0.1708 -0.2233
16214TIP3    H270134   1.287   1.300  10.695 -1.5527 -1.2913  1.0763
16215TIP3   OH270135   0.366   5.790  15.250  0.0394  0.0326 -0.1585
16215TIP3    H170136   0.370   5.707  15.203  0.4943 -0.6956  1.1085
16215TIP3    H270137   0.276   5.796  15.281  0.0854 -0.1500  0.0147
16216TIP3   OH270138   3.763   2.614   5.251  0.2134 -0.1986  0.2718
16216TIP3    H170139   3.825   2.648   5.315 -1.3129  1.9251  0.7381
16216TIP3    H270140   3.739   2.690   5.198 -1.5796 -1.0626 -0.2393
16217TIP3   OH270141   0.061   6.303   2.223 -0.1050  0.4184 -0.2636
16217TIP3    H170142   0.119   6.373   2.190  0.5507 -0.6636 -1.4658
16217TIP3    H270143   0.101   6.278   2.307 -0.1800  1.2737  0.0403
16218TIP3   OH270144   1.540   6.295   1.950 -0.3727  0.1783  0.6820
16218TIP3    H170145   1.448   6.270   1.945 -0.5253  0.5389  1.5627
16218TIP3    H270146   1.539   6.390   1.961  0.1100  0.2084  0.4942
16219TIP3   OH270147   6.277   4.258   6.507 -0.2106  0.7500 -0.5002
16219TIP3    H170148   6.252   4.229   6.419 -2.1309  0.6746  0.0159
16219TIP3    H270149   6.270   4.353   6.503  1.0619  0.8473 -0.7841
16220TIP3   OH270150   2.248   0.460  15.987 -0.4958 -0.3903 -0.2651
16220TIP3    H170151   2.227   0.367  15.975  1.5799 -1.0266  0.4568
16220TIP3    H270152   2.311   0.479  15.918 -0.3531  0.2729  0.0418
16221TIP3   OH270153   5.139   0.016  14.241 -0.4008 -0.6466  0.3369
16221TIP3    H170154   5.207  -0.035  14.197 -0.7328  0.8843 -2.1619
16221TIP3    H270155   5.102  -0.044  14.306  1.9377 -2.1697  0.3848
16222TIP3   OH270156   3.242   4.880  16.269  0.6233  0.4598 -0.2359
16222TIP3    H170157   3.305   4.814  16.297  1.6588  0.9863 -1.2533
16222TIP3    H270158   3.185   4.833  16.207 -1.0955 -0.4578  1.8997
16223TIP3   OH270159   3.577   4.318   1.353 -0.2324 -0.3743 -0.3500
16223TIP3    H170160   3.563   4.377   1.427 -0.8596 -0.5555 -0.3153
16223TIP3    H270161   3.497   4.325   1.302  0.1082 -0.4194 -0.8989
16224TIP3   OH270162   0.095   1.126  15.959 -0.0710  0.2239 -0.0335
16224TIP3    H170163   0.166   1.187  15.981  1.3339 -1.0537 -0.8063
16224TIP3    H270164   0.115   1.047  16.009 -2.5425  0.7145  1.9117
16225TIP3   OH270165   1.690   3.408   5.484  0.1112  0.0505  0.1974
16225TIP3    H170166   1.602   3.408   5.448 -0.0636 -0.8793  0.6006
16225TIP3    H270167   1.747   3.416   5.408 -0.2901 -0.6057 -0.1849
16226TIP3   OH270168   0.055   0.845  15.205 -0.0174  0.3020 -0.0901
16226TIP3    H170169   0.138   0.809  15.174  0.1526  1.2085 -0.7398
16226TIP3    H270170   0.079   0.920  15.259 -0.4123  0.7776 -0.5629
16227TIP3   OH270171   6.312   0.193  16.169  0.2631 -0.6053  0.3154
16227TIP3    H170172   6.395   0.184  16.123  0.4457 -0.7711  0.6763
16227TIP3    H270173   6.246   0.183  16.100  0.5381  1.8162 -0.3771
16228TIP3   OH270174   0.156   5.394   0.868 -0.3603 -0.2566  0.4536
16228TIP3    H170175   0.201   5.448   0.803 -3.9471  2.3285 -0.2156
16228TIP3    H270176   0.121   5.321   0.817 -0.6389  0.1345  0.0744
16229TIP3   OH270177   3.243   0.824  12.746 -0.1547 -0.2878 -0.1748
16229TIP3    H170178   3.198   0.847  12.665  0.6307 -1.5364 -0.9844
16229TIP3    H270179   3.332   0.804  12.720  0.4770  0.6035  1.1950
16230TIP3   OH270180   0.477   0.540  15.690 -0.8166 -0.0617 -0.1312
16230TIP3    H170181   0.476   0.444  15.696 -1.4403 -0.2019 -1.8568
16230TIP3    H270182   0.521   0.569  15.770 -0.6583 -1.7843  0.4434
16231TIP3   OH270183   0.649   4.131  13.143 -0.1745 -0.2102  0.4425
16231TIP3    H170184   0.699   4.070  13.088  0.4958  0.5835  0.1529
16231TIP3    H270185   0.606   4.189  13.080  0.0995  0.3184  0.7433
16232TIP3   OH270186   1.071   5.601  11.736  0.2661 -0.1676 -0.9891
16232TIP3    H170187   0.986   5.577  11.699 -1.0142  0.1633  1.5221
16232TIP3    H270188   1.103   5.520  11.777  0.4053  0.0905 -0.5804
16233TIP3   OH270189   4.342   3.192   3.088  0.3937 -0.2444 -0.6863
16233TIP3    H170190   4.409   3.258   3.070 -0.5532  1.1444  0.6673
16233TIP3    H270191   4.315   3.209   3.178  1.3325 -3.6255  0.3973
16234TIP3   OH270192   4.360   5.142   2.769  0.0407  0.1262 -0.0417
16234TIP3    H170193   4.447   5.136   2.729 -0.2587  0.9124 -0.8304
16234TIP3    H270194   4.302   5.098   2.706 -0.7925  3.2737 -1.6497
16235TIP3   OH270195   4.242   0.699  13.565 -0.4452 -0.0740  0.2937
16235TIP3    H170196   4.299   0.629  13.598  1.0220  0.8957 -0.0741
16235TIP3    H270197   4.232   0.759  13.639 -0.0734  0.3100  0.0376
16236TIP3   OH270198   1.972   5.275   2.884 -0.2546  0.0975 -0.2590
16236TIP3    H170199   1.907   5.254   2.950  1.8106 -1.0095  1.5706
16236TIP3    H270200   1.952   5.217   2.811  0.2248 -2.2225  1.3474
16237TIP3   OH270201   2.909   2.592   1.560 -0.0541  0.1286 -0.0544
16237TIP3    H170202   2.840   2.631   1.614 -1.1352 -1.1565 -0.4512
16237TIP3    H270203   2.863   2.560   1.482  0.6252 -2.4518  0.5163
16238TIP3   OH270204   5.774   5.154   0.430  0.2724 -0.0979  0.5116
16238TIP3    H170205   5.765   5.155   0.525 -1.2247  0.3413  0.3923
16238TIP3    H270206   5.787   5.246   0.407 -2.2279  0.2185  0.1013
16239TIP3   OH270207   0.970   1.724  16.618  0.4549 -0.2347  0.5199
16239TIP3    H170208   0.984   1.782  16.693  0.4266 -0.1810  0.4827
16239TIP3    H270209   1.035   1.750  16.554 -1.3463  1.6474 -0.6376
16240TIP3   OH270210   6.336   2.378  13.751  0.4812  0.1642  0.1281
16240TIP3    H170211   6.422   2.378  13.792  0.2892 -0.4364  0.5484
16240TIP3    H270212   6.335   2.456  13.696  0.8102  0.9027  1.1443
16241TIP3   OH270213   6.327   0.955  13.928  0.4957  0.3224 -0.6332
16241TIP3    H170214   6.293   0.913  14.007  0.7218  0.0497 -0.6801
16241TIP3    H270215   6.386   1.023  13.961  3.6414 -2.2069 -0.5145
16242TIP3   OH270216   6.211   4.879  12.619  0.8220 -0.5309 -0.5006
16242TIP3    H170217   6.187   4.957  12.669 -0.9417 -0.1507 -1.8454
16242TIP3    H270218   6.172   4.807  12.668  0.6377 -0.3473 -0.3726
16243TIP3   OH270219   3.103   3.324  13.003 -0.2543  0.3701 -0.0364
16243TIP3    H170220   3.048   3.380  12.948  0.0115  2.2223  1.4820
16243TIP3    H270221   3.040   3.268  13.050 -0.5680 -0.1222 -1.0066
16244TIP3   OH270222   0.803   0.452  13.067  0.2191 -0.3804  0.5005
16244TIP3    H170223   0.883   0.480  13.023  1.0517 -0.6007  1.8051
16244TIP3    H270224   0.833   0.393  13.136 -1.2523 -2.1464 -0.3025
16245TIP3   OH270225   3.058   2.595   2.893  0.3900 -0.1560 -0.0470
16245TIP3    H170226   3.066   2.596   2.798 -1.2829  1.7036 -0.2546
16245TIP3    H270227   2.979   2.543   2.910 -1.1585  2.0638  0.0127
16246TIP3   OH270228   6.427   0.184  12.430  0.1060 -0.3995  0.5029
16246TIP3    H170229   6.399   0.254  12.489 -0.9380 -1.4527  1.3178
16246TIP3    H270230   6.521   0.175  12.447  0.3942  1.1900 -0.0724
16247TIP3   OH270231   4.199   1.647  14.534 -0.2815  0.4010 -0.3213
16247TIP3    H170232   4.230   1.643  14.444 -0.2165 -1.3552 -0.2676
16247TIP3    H270233   4.110   1.682  14.527  0.5206  2.4347 -0.8023
16248TIP3   OH270234   5.313   3.260  15.138 -0.0308  0.6364  0.5264
16248TIP3    H170235   5.399   3.289  15.107 -0.6904  0.2721 -1.8517
16248TIP3    H270236   5.332   3.200  15.210  1.6568  1.3228  0.6900
16249TIP3   OH270237   0.078   5.754  11.816  0.0392  0.2348 -0.0776
16249TIP3    H170238   0.030   5.678  11.785 -1.3527  1.2659 -0.5202
16249TIP3    H270239   0.163   5.748  11.771  0.4525 -1.6795  0.8357
16250TIP3   OH270240   3.857   4.635  16.635 -0.0714  0.4164 -0.3779
16250TIP3    H170241   3.943   4.679  16.634 -0.1564  0.5729 -1.0896
16250TIP3    H270242   3.859   4.576  16.560 -0.7222  0.6841 -0.6140
16251TIP3   OH270243   1.986   6.163  14.466  0.1467  0.3252 -0.2620
16251TIP3    H170244   1.936   6.174  14.385 -1.4539 -1.0642  0.4730
16251TIP3    H270245   1.981   6.249  14.508  0.1027  0.7648 -1.1289
16252TIP3   OH270246   1.246   5.269  15.783  0.1217 -0.2118  0.3661
16252TIP3    H170247   1.244   5.346  15.726 -2.0193  0.0137  0.6625
16252TIP3    H270248   1.270   5.197  15.724 -2.8463 -0.1366 -1.1253
16253TIP3   OH270249   5.024   4.244   3.134 -0.2517  0.1899 -0.7483
16253TIP3    H170250   5.084   4.305   3.091  0.0883  0.1820 -0.2909
16253TIP3    H270251   5.035   4.261   3.227 -0.0994 -0.6114 -0.6105
16254TIP3   OH270252   0.337   3.324  14.802  0.1933  0.1922 -0.4856
16254TIP3    H170253   0.418   3.298  14.757  0.6924  0.6876  0.1194
16254TIP3    H270254   0.363   3.393  14.861 -0.8468  0.9867 -0.9219
16255TIP3   OH270255   1.949   0.240  14.317 -0.1948  0.0780  0.2994
16255TIP3    H170256   1.977   0.179  14.249 -0.3763  0.5417 -0.1970
16255TIP3    H270257   1.999   0.214  14.394 -0.3613 -0.7804  0.1322
16256TIP3   OH270258   6.776   6.431  14.470  0.3799 -0.5066 -0.7231
16256TIP3    H170259   6.697   6.485  14.466  0.6479  0.2225  2.0383
16256TIP3    H270260   6.743   6.341  14.474 -0.2729 -0.2729 -0.7102
16257TIP3   OH270261   2.650   1.092   5.162  0.5031 -0.1652 -0.0574
16257TIP3    H170262   2.733   1.127   5.194  1.5657 -1.5164 -1.2246
16257TIP3    H270263   2.590   1.104   5.236  2.0532 -0.2997  1.2915
16258TIP3   OH270264   5.536   5.202  12.705  0.3483 -0.0210  0.2758
16258TIP3    H170265   5.619   5.156  12.713  1.0327  0.5882 -2.3582
16258TIP3    H270266   5.487   5.152  12.639 -0.9281  0.2940  0.9418
16259TIP3   OH270267   5.650   0.230  16.793 -0.0812 -0.0810 -0.5016
16259TIP3    H170268   5.587   0.168  16.830 -1.2165  1.1719 -0.2374
16259TIP3    H270269   5.660   0.297  16.861 -0.3805  1.0180 -1.5149
16260TIP3   OH270270   4.282   3.578  15.115 -0.5717  0.0246 -0.0559
16260TIP3    H170271   4.352   3.625  15.070  0.8631 -2.3529 -0.4573
16260TIP3    H270272   4.277   3.619  15.201  1.2791  0.3102 -0.0496
16261TIP3   OH270273   4.943   6.194   1.298 -0.2177 -0.3080  0.4671
16261TIP3    H170274   4.877   6.172   1.233  0.1277  1.6207 -0.5878
16261TIP3    H270275   5.026   6.185   1.252  0.2412 -1.5461  1.4497
16262TIP3   OH270276   0.740   1.385  16.359 -0.1151  0.3442  0.1477
16262TIP3    H170277   0.762   1.475  16.379  1.0543  0.0671  0.1478
16262TIP3    H270278   0.806   1.332  16.405  1.3695 -0.3817 -2.5865
16263TIP3   OH270279   0.007   3.565   3.101 -0.1622 -0.2868 -0.5099
16263TIP3    H170280  -0.069   3.566   3.043 -1.8121  0.7066  1.5142
16263TIP3    H270281   0.047   3.479   3.087 -3.1552 -1.9382  0.1324
16264TIP3   OH270282   1.968   5.050  11.911  0.6259  0.0439 -0.2914
16264TIP3    H170283   1.911   4.997  11.854  1.2426 -0.8034 -0.1418
16264TIP3    H270284   1.916   5.127  11.932 -1.0537 -1.3806  1.0456
16265TIP3   OH270285   0.371   6.295  14.799 -0.0262 -0.0473 -0.1278
16265TIP3    H170286   0.465   6.314  14.791 -0.2353  1.0998 -0.0686
16265TIP3    H270287   0.364   6.201  14.784  1.2128 -0.2643  0.5143
16266TIP3   OH270288   4.024   0.835   3.569 -0.2615  0.3869 -0.5008
16266TIP3    H170289   3.977   0.759   3.536 -1.0767  1.6658 -2.5420
16266TIP3    H270290   3.960   0.883   3.622  0.3769 -0.5043  1.1486
16267TIP3   OH270291   5.652   6.199  13.679  0.4625 -0.2966 -0.9905
16267TIP3    H170292   5.632   6.234  13.592  0.1604  0.7156 -0.5296
16267TIP3    H270293   5.629   6.106  13.673 -3.4049  0.4864 -0.8704
16268TIP3   OH270294   4.560   4.336  15.428  0.1400  0.1439 -0.3449
16268TIP3    H170295   4.501   4.412  15.434  0.1180  0.0471  0.7621
16268TIP3    H270296   4.504   4.266  15.395 -0.0230  0.4086 -0.6465
16269TIP3   OH270297   2.493   4.691  15.619 -0.5502 -0.1899  0.9483
16269TIP3    H170298   2.467   4.719  15.707 -0.8016  0.1452  0.7721
16269TIP3    H270299   2.410   4.666  15.577 -0.7830  1.9681 -0.0076
16270TIP3   OH270300   1.212   5.450  16.852 -0.0273  0.2699 -0.8374
16270TIP3    H170301   1.252   5.531  16.819  2.5487 -0.4643  0.1771
16270TIP3    H270302   1.260   5.380  16.807  2.9911 -0.7634  3.3233
16271TIP3   OH270303   4.264   1.819   6.236  0.1738  0.4321  0.7778
16271TIP3    H170304   4.310   1.749   6.190 -0.1774  1.1610 -0.7860
16271TIP3    H270305   4.219   1.776   6.308 -0.0233 -0.9569 -0.1281
16272TIP3   OH270306   4.088   5.611  14.734  0.0025  0.1508  0.0310
16272TIP3    H170307   4.054   5.524  14.756 -1.0870  1.0904  2.4393
16272TIP3    H270308   4.181   5.605  14.755  0.0697 -0.6053 -0.4303
16273TIP3   OH270309   4.127   0.198   2.193  0.0582 -0.3085 -0.3650
16273TIP3    H170310   4.183   0.214   2.269  0.7719  1.0625 -1.1389
16273TIP3    H270311   4.071   0.125   2.219  0.5537 -0.1262  1.3234
16274TIP3   OH270312   5.117   4.392   1.351  0.7414 -0.2754  0.6814
16274TIP3    H170313   5.178   4.409   1.279 -0.6016  0.0256 -0.4331
16274TIP3    H270314   5.078   4.477   1.370  0.0920 -0.5970  0.8228
16275TIP3   OH270315   0.270   4.643  16.467 -0.1286  0.0835  0.3779
16275TIP3    H170316   0.343   4.703  16.482 -0.1230  0.7381 -1.8572
16275TIP3    H270317   0.210   4.658  16.539  1.0901  0.8715  1.2606
16276TIP3   OH270318   1.710   2.166  15.355  0.0528 -0.0899  0.0789
16276TIP3    H170319   1.760   2.237  15.395 -0.7706  0.8730 -0.5434
16276TIP3    H270320   1.656   2.132  15.427  1.3833 -0.9888  0.6987
16277TIP3   OH270321   1.876   1.562   4.856 -0.4245  0.1459 -0.3814
16277TIP3    H170322   1.836   1.568   4.769 -2.2520 -1.2104  0.3181
16277TIP3    H270323   1.812   1.517   4.910  1.6510 -1.2546  1.0946
16278TIP3   OH270324   5.833   6.417   3.671  0.0835  0.1270 -0.4837
16278TIP3    H170325   5.746   6.378   3.663  0.2156 -0.2184 -0.2626
16278TIP3    H270326   5.893   6.348   3.641  0.4112 -0.2972  1.0799
16279TIP3   OH270327   6.272   4.257   6.240 -0.6247 -0.1493 -0.3779
16279TIP3    H170328   6.219   4.181   6.217 -1.5149  0.6375 -1.0202
16279TIP3    H270329   6.262   4.317   6.165  0.4229  0.4131 -0.0973
16280TIP3   OH270330   0.956   4.945   6.561  0.6500 -0.3344 -0.8287
16280TIP3    H170331   0.975   5.001   6.486  0.9155  2.5836  1.2170
16280TIP3    H270332   0.861   4.940   6.564  0.4796  2.0249  0.1689
16281TIP3   OH270333   5.958   1.714  13.513  0.7575  0.4328  0.2040
16281TIP3    H170334   6.009   1.637  13.489  0.7798  0.4854  0.0852
16281TIP3    H270335   5.890   1.680  13.571  0.1409  0.1668 -0.6614
16282TIP3   OH270336   4.265   5.698   1.877 -0.5559 -0.2138 -1.0138
16282TIP3    H170337   4.349   5.694   1.922 -0.6036  1.2582 -0.7576
16282TIP3    H270338   4.258   5.613   1.833  0.4069 -0.9139  0.1054
16283TIP3   OH270339   4.038   5.799   6.369  0.4427 -0.0835  0.0719
16283TIP3    H170340   3.990   5.803   6.287  1.9743  0.1624 -0.8538
16283TIP3    H270341   4.038   5.890   6.401 -2.4808 -0.5831  1.8156
16284TIP3   OH270342   5.407   1.465   3.717 -0.5332  0.0254 -0.6008
16284TIP3    H170343   5.318   1.477   3.685 -0.3890  1.5462 -0.5030
16284TIP3    H270344   5.417   1.530   3.786  1.2599  1.2842 -1.9322
16285TIP3   OH270345   0.387   0.545  13.821 -0.2234 -0.4105 -0.1674
16285TIP3    H170346   0.463   0.518  13.874 -1.1582 -0.4715  1.2141
16285TIP3    H270347   0.370   0.636  13.848 -0.3457 -0.2335 -0.8292
16286TIP3   OH270348   1.229   5.135  15.195 -0.0523 -0.0481  0.1718
16286TIP3    H170349   1.293   5.137  15.266 -0.9008 -0.2791  0.9624
16286TIP3    H270350   1.248   5.215  15.144 -1.7561  2.2077  2.7895
16287TIP3   OH270351   6.793   0.430  11.468  0.4420  0.0224  0.0165
16287TIP3    H170352   6.736   0.383  11.529  0.6685  1.4598  1.3934
16287TIP3    H270353   6.879   0.430  11.510  1.3240 -1.3721 -1.6386
16288TIP3   OH270354   3.573   6.351   6.768 -0.1533  0.0692 -0.1993
16288TIP3    H170355   3.648   6.302   6.800  0.7370  2.0405  0.9065
16288TIP3    H270356   3.517   6.285   6.727  2.0438 -1.4925 -0.8805
16289TIP3   OH270357   2.305   4.177   1.495 -0.2402  0.1380  0.2759
16289TIP3    H170358   2.361   4.204   1.423 -0.6221 -1.8581 -0.8303
16289TIP3    H270359   2.356   4.111   1.542 -0.2346  0.9771  1.4781
16290TIP3   OH270360   2.880   0.287  16.552  0.2152 -0.3528  0.0060
16290TIP3    H170361   2.848   0.212  16.602 -0.1732 -0.9550 -1.0963
16290TIP3    H270362   2.946   0.250  16.493  0.9729  0.4128  0.3622
16291TIP3   OH270363   2.712   6.106   5.815 -0.1948 -0.3648  0.5491
16291TIP3    H170364   2.770   6.099   5.891 -0.6417 -0.0495  0.9216
16291TIP3    H270365   2.650   6.034   5.826  1.4826 -2.1829 -1.0549
16292TIP3   OH270366   4.572   0.837  10.413  0.0833 -0.4542 -0.1850
16292TIP3    H170367   4.516   0.764  10.442 -0.2417  0.7669  2.5967
16292TIP3    H270368   4.558   0.905  10.479  3.2832  0.6855 -0.5210
16293TIP3   OH270369   0.312   4.985  14.018  0.1694  0.1301  0.5931
16293TIP3    H170370   0.343   4.903  13.978  0.1453  0.7824 -0.8015
16293TIP3    H270371   0.252   4.956  14.087  0.5206 -1.0418  0.4377
16294TIP3   OH270372   2.904   4.120  15.196 -0.1387 -0.1125 -0.0977
16294TIP3    H170373   2.900   4.149  15.287 -0.7938 -0.9298  0.1474
16294TIP3    H270374   2.986   4.072  15.189  0.6786  1.2481 -0.3626
16295TIP3   OH270375   1.861   1.926   3.681  0.2191 -0.3096 -0.3967
16295TIP3    H170376   1.879   1.845   3.729  1.7073 -0.2112 -0.7467
16295TIP3    H270377   1.911   1.993   3.728 -0.1399  0.2095 -0.7483
16296TIP3   OH270378   5.001   3.733   0.470 -0.7821  0.4046 -0.1294
16296TIP3    H170379   4.921   3.683   0.476 -0.6493  0.0496 -1.0706
16296TIP3    H270380   4.972   3.824   0.463 -1.1896  0.1827 -1.8078
16297TIP3   OH270381   3.316   4.415   2.537  0.5612 -0.3171  0.1913
16297TIP3    H170382   3.341   4.364   2.459  1.6024  0.5756 -0.0867
16297TIP3    H270383   3.372   4.492   2.533  0.3966 -0.1048  1.6647
16298TIP3   OH270384   5.522   1.790   5.482 -0.0209 -0.5157 -0.2785
16298TIP3    H170385   5.600   1.804   5.428 -0.0300  0.3631 -0.0729
16298TIP3    H270386   5.449   1.816   5.425 -0.2960 -2.5904 -0.9449
16299TIP3   OH270387   5.775   4.587  11.204  0.1410 -0.5668 -0.3975
16299TIP3    H170388   5.800   4.631  11.285  0.8036 -1.3270 -0.1757
16299TIP3    H270389   5.841   4.615  11.140  0.5242 -1.1729 -0.2724
16300TIP3   OH270390   3.647   0.878   6.516 -0.5188 -0.1075  0.7720
16300TIP3    H170391   3.720   0.919   6.469 -1.2974  2.0178  1.3114
16300TIP3    H270392   3.571   0.932   6.495 -2.5044 -3.3408 -1.3556
16301TIP3   OH270393   2.547   6.349  15.053  0.1824  0.7254  0.0053
16301TIP3    H170394   2.633   6.357  15.094 -0.0105 -2.4861  1.2921
16301TIP3    H270395   2.486   6.375  15.122  0.0303  2.5963 -0.7759
16302TIP3   OH270396   6.126   6.191   5.316  0.2430 -0.0545 -0.1601
16302TIP3    H170397   6.046   6.216   5.270 -1.4817 -2.3923  1.3193
16302TIP3    H270398   6.161   6.117   5.267 -0.4781 -1.2426  1.0380
16303TIP3   OH270399   5.935   6.799  16.276  0.8247  0.4827  0.3342
16303TIP3    H170400   6.000   6.811  16.346  2.1659 -1.3326 -0.5020
16303TIP3    H270401   5.922   6.704  16.273 -1.3711  0.7547 -0.0115
16304TIP3   OH270402   0.602   2.462   5.444 -0.0613  0.3589 -0.2454
16304TIP3    H170403   0.583   2.387   5.389 -1.0400  0.6188 -0.2825
16304TIP3    H270404   0.552   2.534   5.405 -0.8433  0.5305  0.9988
16305TIP3   OH270405   1.963   6.852   0.725 -0.2397 -0.4907  0.6805
16305TIP3    H170406   1.941   6.917   0.658 -0.9901 -2.9216 -1.6078
16305TIP3    H270407   1.892   6.857   0.788  0.2030  1.5011  1.0809
16306TIP3   OH270408   0.899   3.315  13.956  0.3806  0.5691 -0.1467
16306TIP3    H170409   0.831   3.331  13.891  1.6088 -0.2658 -1.7237
16306TIP3    H270410   0.904   3.220  13.963 -1.0336  0.5926  2.7005
16307TIP3   OH270411   3.736   0.812   3.570 -0.6233 -0.2067  0.6015
16307TIP3    H170412   3.689   0.875   3.625 -0.9971  0.8291 -0.8348
16307TIP3    H270413   3.697   0.822   3.483  2.4922  1.0415 -0.8167
16308TIP3   OH270414   5.073   6.343  17.032  0.0414 -0.0255 -0.0232
16308TIP3    H170415   5.068   6.368  16.940 -0.8590 -0.7647 -0.1834
16308TIP3    H270416   4.984   6.350  17.064  0.1953 -0.6413  0.5602
16309TIP3   OH270417   1.351   1.776   5.429 -0.2070 -0.7159  0.4398
16309TIP3    H170418   1.333   1.870   5.432  1.0105 -0.4059 -0.6538
16309TIP3    H270419   1.346   1.748   5.520  0.1429  0.5675  0.8828
16310TIP3   OH270420   3.166   4.850  12.989  0.0308  0.1842 -0.3396
16310TIP3    H170421   3.234   4.844  13.056 -0.4315 -0.3238  0.0810
16310TIP3    H270422   3.215   4.849  12.906  0.4274 -3.0510 -0.1661
16311TIP3   OH270423   2.809   4.731   0.042  0.2988 -0.0562 -0.2377
16311TIP3    H170424   2.746   4.660   0.044  1.8252 -1.4829 -0.7149
16311TIP3    H270425   2.891   4.691   0.070  1.1605  1.5687 -0.3236
16312TIP3   OH270426   1.573   3.853  13.822  0.4978  0.7569 -0.1115
16312TIP3    H170427   1.623   3.803  13.758 -0.1765  0.0326 -0.0908
16312TIP3    H270428   1.489   3.807  13.828  0.3154  1.1890  0.8158
16313TIP3   OH270429   3.161   3.033  13.706 -0.2933 -0.4147 -0.9705
16313TIP3    H170430   3.214   3.068  13.778 -0.2072 -0.6313 -0.9266
16313TIP3    H270431   3.085   3.090  13.701 -0.0820 -0.1353 -0.9938
16314TIP3   OH270432   4.055   6.445   3.126 -0.2557 -0.2935 -0.8523
16314TIP3    H170433   4.090   6.534   3.129  0.1982 -0.4510 -1.2737
16314TIP3    H270434   4.132   6.388   3.130 -0.6302 -0.7273  1.3339
16315TIP3   OH270435   2.866   3.959  15.514 -0.4538  0.0994 -0.1744
16315TIP3    H170436   2.871   3.895  15.443  1.5386  0.3596 -0.3077
16315TIP3    H270437   2.814   3.916  15.581  0.0083 -1.2764 -0.6714
16316TIP3   OH270438   6.845   5.874   4.224 -0.5745  0.7073 -0.3812
16316TIP3    H170439   6.854   5.872   4.128  0.7779 -0.9589 -0.2462
16316TIP3    H270440   6.878   5.790   4.253 -2.6390  0.4480  1.4581
16317TIP3   OH270441   1.463   2.089   5.238 -0.5127  0.0969  0.1832
16317TIP3    H170442   1.504   2.150   5.177 -0.7351  2.5238  2.2618
16317TIP3    H270443   1.373   2.080   5.207 -0.6337  1.3340  0.1462
16318TIP3   OH270444   6.404   1.864  10.978 -0.1298 -0.3985  0.3646
16318TIP3    H170445   6.352   1.806  10.923 -2.2830 -0.1838  1.9995
16318TIP3    H270446   6.390   1.951  10.942  1.1619 -0.5954 -0.6669
16319TIP3   OH270447   3.358   5.645  12.381  0.3244 -0.0312  0.2345
16319TIP3    H170448   3.271   5.638  12.420  0.6161  0.6218  1.0411
16319TIP3    H270449   3.347   5.615  12.291 -0.2690 -2.0823  0.9296
16320TIP3   OH270450   6.066   1.059  15.204 -0.4075  0.3134  0.3926
16320TIP3    H170451   5.977   1.075  15.172 -0.8891 -1.6635  0.6448
16320TIP3    H270452   6.056   0.995  15.274  1.1972  0.2623  0.6166
16321TIP3   OH270453   6.313   2.720   0.253  0.3987 -0.9360  0.2530
16321TIP3    H170454   6.317   2.658   0.325 -0.2114 -0.3068  0.8400
16321TIP3    H270455   6.360   2.677   0.181  2.7756 -0.7845  1.6209
16322TIP3   OH270456   6.529   4.005  16.363  0.3029  0.1198  0.0965
16322TIP3    H170457   6.479   4.061  16.422 -0.1643 -0.6672  0.4624
16322TIP3    H270458   6.580   3.948  16.421  0.6596  0.0684 -0.2637
16323TIP3   OH270459   2.456   2.188  17.045 -0.0602  0.0990 -0.5152
16323TIP3    H170460   2.510   2.220  16.972 -0.1450  1.0475 -0.1794
16323TIP3    H270461   2.498   2.107  17.073 -0.6500 -0.9045 -2.3311
16324TIP3   OH270462   0.953   3.558   5.208 -0.4035 -0.2252  0.2356
16324TIP3    H170463   0.877   3.585   5.259 -0.2130  0.9083 -0.0510
16324TIP3    H270464   1.028   3.588   5.261 -0.2014  0.8063 -0.6089
16325TIP3   OH270465   4.308   3.770  14.137 -0.3751  0.4439 -0.1416
16325TIP3    H170466   4.235   3.815  14.180 -0.4639 -0.6423  0.8795
16325TIP3    H270467   4.276   3.681  14.123  0.5282  0.1343 -0.2792
16326TIP3   OH270468   4.180   4.664  11.281 -0.1962  0.3545 -0.3655
16326TIP3    H170469   4.088   4.644  11.296  0.1960 -2.1125 -0.8297
16326TIP3    H270470   4.209   4.705  11.362 -1.4552  0.1973  0.1890
16327TIP3   OH270471   2.906   3.904   0.071 -0.3750 -0.5343  0.0535
16327TIP3    H170472   2.975   3.940   0.127 -1.3296  0.9241  0.3427
16327TIP3    H270473   2.833   3.888   0.131 -0.9299 -0.2889 -0.5474
16328TIP3   OH270474   5.793   6.035   5.307 -0.4173 -0.4691  0.0745
16328TIP3    H170475   5.776   6.079   5.223  0.6983 -0.6971 -0.2925
16328TIP3    H270476   5.865   5.975   5.288 -1.0013 -1.4645  0.8993
16329TIP3   OH270477   2.295   3.396   2.831  0.0395  0.1346 -0.0532
16329TIP3    H170478   2.379   3.354   2.809  0.9579  1.5664  0.6237
16329TIP3    H270479   2.299   3.481   2.787 -1.1010  0.1886 -0.0649
16330TIP3   OH270480   2.524   4.435  14.523  0.0651 -0.6566 -0.6294
16330TIP3    H170481   2.472   4.401  14.597  0.0997 -1.7316 -1.0842
16330TIP3    H270482   2.460   4.482  14.469  0.3870  2.1112  1.1449
16331TIP3   OH270483   6.659   5.709  14.361 -0.3843 -0.0369 -0.1420
16331TIP3    H170484   6.661   5.799  14.396 -0.7035 -0.2561  0.4682
16331TIP3    H270485   6.566   5.685  14.365 -0.4348 -0.0477 -1.2277
16332TIP3   OH270486   6.508   6.802   3.477 -0.3788  0.4662  0.9803
16332TIP3    H170487   6.497   6.793   3.382  0.9458  2.6084  0.5594
16332TIP3    H270488   6.531   6.714   3.507  0.4041 -0.0097 -0.8855
16333TIP3   OH270489   6.461   0.442  15.078 -0.2225 -0.0935  0.1953
16333TIP3    H170490   6.379   0.477  15.113  0.5132  2.8184 -0.6880
16333TIP3    H270491   6.492   0.510  15.018  2.9173 -0.9936  0.6312
16334TIP3   OH270492   5.080   2.960  12.316  0.2195 -0.0930 -0.9738
16334TIP3    H170493   5.062   2.884  12.370 -1.0230  1.3009  0.6501
16334TIP3    H270494   5.127   3.021  12.374  1.0406  0.4744 -2.1823
16335TIP3   OH270495   6.503   4.483   0.234  0.8846 -0.3261  0.3577
16335TIP3    H170496   6.542   4.478   0.147 -0.1746  1.4973 -0.2739
16335TIP3    H270497   6.430   4.420   0.231  2.4825 -2.3220  0.9147
16336TIP3   OH270498   3.848   4.448  14.996 -0.1516  0.1356 -0.0932
16336TIP3    H170499   3.917   4.491  14.946 -1.3659 -1.0376 -2.9622
16336TIP3    H270500   3.855   4.485  15.084  3.8471  0.3574 -0.3341
16337TIP3   OH270501   6.771   3.717  11.235 -0.0885  0.3170 -0.0562
16337TIP3    H170502   6.819   3.651  11.186 -0.8608 -0.0260 -0.3581
16337TIP3    H270503   6.826   3.734  11.312  0.0893 -0.7084  0.0566
16338TIP3   OH270504   6.486   4.884   2.689 -0.3174 -0.4900  0.0127
16338TIP3    H170505   6.406   4.900   2.638 -1.7379 -0.8840  1.9643
16338TIP3    H270506   6.543   4.958   2.669 -2.6331  1.7641  1.2061
16339TIP3   OH270507   4.175   0.523   5.152  0.4570 -0.3911  0.0850
16339TIP3    H170508   4.197   0.439   5.193  0.6821 -0.5012 -0.2567
16339TIP3    H270509   4.178   0.586   5.224  2.2953 -0.3331  0.0166
16340TIP3   OH270510   6.214   3.122   3.670 -0.4102 -0.0236  0.0201
16340TIP3    H170511   6.179   3.198   3.717  0.5179  0.3231  0.1704
16340TIP3    H270512   6.306   3.144   3.656 -0.2206 -0.9796 -0.2377
16341TIP3   OH270513   2.764   2.809  14.734 -0.5579 -0.0701 -0.3555
16341TIP3    H170514   2.767   2.826  14.828 -1.1098 -1.6040 -0.0245
16341TIP3    H270515   2.703   2.875  14.700 -0.8570  0.0976  0.4732
16342TIP3   OH270516   4.164   6.794  14.996  0.6035 -0.3552 -0.2142
16342TIP3    H170517   4.080   6.804  15.040  0.1046 -0.3213 -1.1639
16342TIP3    H270518   4.192   6.884  14.977 -0.0549 -0.4186 -1.5748
16343TIP3   OH270519   6.090   3.555  15.208 -0.4365  0.6294 -0.2265
16343TIP3    H170520   6.009   3.550  15.157  0.6652  0.0211 -2.0119
16343TIP3    H270521   6.120   3.646  15.197 -1.2467  1.0783  1.0891
16344TIP3   OH270522   1.365   1.422   5.605  0.1620  0.0870  0.0530
16344TIP3    H170523   1.436   1.375   5.648 -0.0805  0.9507  1.4637
16344TIP3    H270524   1.286   1.376   5.634  0.0769 -0.3223 -0.7992
16345TIP3   OH270525   4.024   5.778   3.287 -0.1196 -0.3119  0.0028
16345TIP3    H170526   4.107   5.805   3.247 -0.7457  1.1294 -0.4119
16345TIP3    H270527   3.959   5.790   3.217 -1.0193  0.9156  0.9932
16346TIP3   OH270528   3.904   0.204  11.637 -0.0212 -0.1894  0.1990
16346TIP3    H170529   3.924   0.123  11.683 -1.8988  0.1271  1.6912
16346TIP3    H270530   3.824   0.184  11.587  0.6501  0.1776 -1.0749
16347TIP3   OH270531   6.606   5.594   0.030 -0.0399 -0.4048  0.3958
16347TIP3    H170532   6.686   5.542   0.021  0.0775 -0.1755  0.0940
16347TIP3    H270533   6.545   5.537   0.077  0.4784 -0.3818  1.1187
16348TIP3   OH270534   6.398   0.197   3.458  0.6970  0.6361  0.8177
16348TIP3    H170535   6.457   0.127   3.484  0.1535  0.7154  2.3540
16348TIP3    H270536   6.315   0.153   3.440  1.2514  0.4660 -1.7566
16349TIP3   OH270537   4.240   3.480  11.751  0.0824 -0.1634  0.5438
16349TIP3    H170538   4.332   3.465  11.776  0.7756 -0.2287 -1.8260
16349TIP3    H270539   4.208   3.393  11.726  0.0288  0.1672 -0.5904
16350TIP3   OH270540   6.147   5.954  11.299  0.0611  0.2741  0.1950
16350TIP3    H170541   6.206   5.942  11.225 -0.4684  1.0202 -0.3733
16350TIP3    H270542   6.189   6.022  11.352  0.5449 -0.4102  0.7007
16351TIP3   OH270543   2.953   3.906  14.250  0.3738  0.1333  0.2824
16351TIP3    H170544   2.885   3.961  14.289  0.0954  1.2989 -1.7047
16351TIP3    H270545   2.981   3.954  14.172  2.5712 -0.9479  0.3165
16352TIP3   OH270546   4.063   6.101  14.056 -0.1958 -0.5096  0.1202
16352TIP3    H170547   4.135   6.125  13.997  0.8676 -1.3898  1.0184
16352TIP3    H270548   3.995   6.167  14.039  1.3576  1.2106  0.2478
16353TIP3   OH270549   0.749   4.665  15.267 -0.1823 -0.0056  0.2424
16353TIP3    H170550   0.799   4.606  15.323  2.0007  2.1782  0.7994
16353TIP3    H270551   0.659   4.635  15.274  0.6755 -2.6094  1.2260
16354TIP3   OH270552   6.713   4.535  11.836  0.0482  0.2110  0.7206
16354TIP3    H170553   6.786   4.474  11.847  1.7162  1.9184 -0.1303
16354TIP3    H270554   6.672   4.541  11.922  0.7148 -1.0281  1.1404
16355TIP3   OH270555   6.413   3.127   3.919 -0.3987  0.0866  0.3482
16355TIP3    H170556   6.463   3.114   4.000 -0.7240  1.1585  0.7341
16355TIP3    H270557   6.472   3.098   3.849  0.7279  1.2137  0.8067
16356TIP3   OH270558   1.695   4.513   0.158 -0.3559 -0.0559  0.1020
16356TIP3    H170559   1.717   4.462   0.236  0.7573  0.1139 -0.0840
16356TIP3    H270560   1.612   4.476   0.127  0.4757 -1.8154 -0.1008
16357TIP3   OH270561   6.779   4.529  13.945 -0.2180  0.5620  0.3042
16357TIP3    H170562   6.729   4.587  14.002  1.0657  0.6030  1.4392
16357TIP3    H270563   6.818   4.465  14.004  0.2375 -0.0837 -0.6690
16358TIP3   OH270564   3.078   2.520   4.680 -0.2218  0.0097 -0.4488
16358TIP3    H170565   3.072   2.434   4.722 -2.0780  0.1861 -0.2657
16358TIP3    H270566   3.156   2.560   4.719  0.8794 -1.6887 -0.7776
16359TIP3   OH270567   4.131   2.959  16.506  0.1122 -0.1707  0.1123
16359TIP3    H170568   4.196   2.994  16.445  0.1733 -0.9856 -0.3085
16359TIP3    H270569   4.057   3.019  16.500  1.7239  2.2466  2.4655
16360TIP3   OH270570   1.661   6.045   5.071  0.3559 -0.2337  0.6232
16360TIP3    H170571   1.639   5.967   5.020 -0.6365  0.3953  0.0654
16360TIP3    H270572   1.586   6.103   5.060  1.4290  1.1584  0.3323
16361TIP3   OH270573   5.717   0.616   3.525 -0.1670  0.4431 -0.4940
16361TIP3    H170574   5.662   0.684   3.485 -1.5728  0.7040  1.7376
16361TIP3    H270575   5.807   0.647   3.509 -0.7255  1.7752 -1.2871
16362TIP3   OH270576   3.035   3.787   2.721  0.0070 -0.4194  0.0299
16362TIP3    H170577   2.951   3.741   2.729  0.7630 -1.9049 -0.2868
16362TIP3    H270578   3.038   3.815   2.630 -0.2101 -0.2271  0.0810
16363TIP3   OH270579   5.319   4.702  14.371 -0.5754  0.1806  0.3256
16363TIP3    H170580   5.280   4.616  14.358 -0.8713  0.1948  1.0675
16363TIP3    H270581   5.342   4.732  14.283 -0.1637 -0.7923  0.0957
16364TIP3   OH270582   5.463   0.467   0.286  0.0980  0.2465  0.4537
16364TIP3    H170583   5.472   0.502   0.198 -0.3992  1.6395  0.9171
16364TIP3    H270584   5.416   0.384   0.275 -3.8421  2.3410 -0.3411
16365TIP3   OH270585   0.573   3.475   1.839  0.4242  0.4504  0.1896
16365TIP3    H170586   0.608   3.473   1.750 -1.9698 -0.6249 -0.8222
16365TIP3    H270587   0.625   3.411   1.887  2.1079  1.4313 -0.2465
16366TIP3   OH270588   1.847   1.941  14.963 -0.9030 -0.7623 -0.6305
16366TIP3    H170589   1.892   1.998  14.901  0.1626 -0.9972 -0.0951
16366TIP3    H270590   1.872   1.852  14.936  0.8258 -0.8340  1.0183
16367TIP3   OH270591   5.012   3.955   3.265  0.4450  0.3921  0.3687
16367TIP3    H170592   5.025   3.900   3.342 -0.9572 -0.2242  0.1975
16367TIP3    H270593   5.062   3.911   3.196 -0.5123 -0.5830  0.2804
16368TIP3   OH270594   1.569   3.792   3.831  0.2537 -0.3533  0.6894
16368TIP3    H170595   1.623   3.782   3.909  0.5239 -1.1350  0.4099
16368TIP3    H270596   1.523   3.875   3.844  0.0397 -0.6384  1.8388
16369TIP3   OH270597   5.666   3.417   1.370 -0.0086  0.4599  0.4308
16369TIP3    H170598   5.641   3.492   1.424  1.1022  0.8953  0.3621
16369TIP3    H270599   5.612   3.426   1.291 -1.3526  0.0401  1.2771
16370TIP3   OH270600   3.544   3.610  11.219  0.3714  0.5214  0.2083
16370TIP3    H170601   3.545   3.703  11.243 -0.5660  0.7554 -0.6255
16370TIP3    H270602   3.498   3.607  11.135  0.7754 -0.6522  0.0149
16371TIP3   OH270603   6.567   0.801  15.995 -0.1022 -0.0969  0.1436
16371TIP3    H170604   6.604   0.846  15.919 -0.9374 -0.2140 -0.3543
16371TIP3    H270605   6.642   0.767  16.043  0.5777  2.0321  0.6894
16372TIP3   OH270606   6.234   3.259  12.160 -0.1037 -0.3740  0.8561
16372TIP3    H170607   6.280   3.197  12.216 -1.0312 -0.7243  1.2522
16372TIP3    H270608   6.283   3.341  12.169  2.5712 -1.5586 -1.4944
16373TIP3   OH270609   4.201   4.291   0.008  0.0688 -0.3457 -0.5226
16373TIP3    H170610   4.138   4.327  -0.055  1.4124 -1.1795 -2.4305
16373TIP3    H270611   4.166   4.205   0.031 -0.7859  0.2391  0.4918
16374TIP3   OH270612   1.803   6.425  16.289 -0.3177  0.7857 -0.1778
16374TIP3    H170613   1.818   6.480  16.212 -1.4161 -1.4377 -2.1256
16374TIP3    H270614   1.778   6.340  16.253 -2.0861 -0.0493  2.6452
16375TIP3   OH270615   5.717   4.736   4.000 -0.2372  0.0329  0.4182
16375TIP3    H170616   5.746   4.647   3.978  2.8061  1.2403 -1.1118
16375TIP3    H270617   5.787   4.771   4.056 -2.2226  0.9602  2.4849
16376TIP3   OH270618   3.070   6.686  16.366 -0.0504  0.1738 -0.8251
16376TIP3    H170619   3.020   6.616  16.409 -0.7643  1.0741 -0.1650
16376TIP3    H270620   3.147   6.642  16.331  0.3129 -0.6691  0.9628
16377TIP3   OH270621   3.574   5.096  15.009  0.1145 -0.5482  0.6283
16377TIP3    H170622   3.495   5.056  15.047 -1.0631 -1.6339 -2.6342
16377TIP3    H270623   3.634   5.104  15.083 -3.2459  1.1237  3.5110
16378TIP3   OH270624   4.789   4.581   4.867 -0.1583 -0.3267  0.2611
16378TIP3    H170625   4.821   4.510   4.922 -0.0254  0.3668  1.0970
16378TIP3    H270626   4.806   4.551   4.778  0.3023 -1.1494  0.6103
16379TIP3   OH270627   1.239   1.910  13.875  0.8608  0.0730 -0.1257
16379TIP3    H170628   1.328   1.933  13.848  0.4549  0.3100 -1.3379
16379TIP3    H270629   1.184   1.942  13.804 -0.2471  0.3588  0.8299
16380TIP3   OH270630   4.551   1.354  12.477  0.2735  0.1268 -0.0690
16380TIP3    H170631   4.592   1.356  12.391 -0.6093  0.1864 -0.4992
16380TIP3    H270632   4.500   1.434  12.482  0.4158  0.1900  0.5724
16381TIP3   OH270633   3.680   6.364  15.500  0.0659 -0.2790  0.0131
16381TIP3    H170634   3.595   6.399  15.473  0.6622  0.3242 -1.2086
16381TIP3    H270635   3.736   6.375  15.423  0.5196 -3.3166 -0.2050
16382TIP3   OH270636   3.712   6.143   5.000 -0.2227 -0.0404  0.2624
16382TIP3    H170637   3.650   6.194   5.051  0.6618  0.6844  0.6496
16382TIP3    H270638   3.769   6.209   4.959  0.8291 -0.6961  0.6236
16383TIP3   OH270639   1.079   2.869  10.990  0.4332  0.1205 -0.1433
16383TIP3    H170640   1.143   2.864  11.061  0.6533 -1.4322 -0.4167
16383TIP3    H270641   1.131   2.855  10.910 -0.2179 -1.1669 -0.3711
16384TIP3   OH270642   2.265   3.892  11.328  0.1624 -0.1634 -0.2189
16384TIP3    H170643   2.321   3.923  11.399 -1.7463 -0.2375  1.3935
16384TIP3    H270644   2.310   3.919  11.248  0.8214  2.7412  1.0325
16385TIP3   OH270645   1.456   6.796   6.777 -0.2598  0.3719 -0.3559
16385TIP3    H170646   1.516   6.780   6.705  0.0220  0.2255 -0.0886
16385TIP3    H270647   1.369   6.774   6.742 -0.2117  0.9845 -0.8713
16386TIP3   OH270648   5.557   6.551  15.511 -0.1283  0.5210 -0.7992
16386TIP3    H170649   5.639   6.529  15.555 -1.0853  0.6637  1.1990
16386TIP3    H270650   5.528   6.469  15.472  1.0732  0.5357 -1.7758
16387TIP3   OH270651   4.124   0.491   4.662  0.0675  0.2304  0.1431
16387TIP3    H170652   4.214   0.486   4.695  0.2449 -0.1844 -0.3812
16387TIP3    H270653   4.117   0.417   4.601 -1.4240 -1.3803  2.1129
16388TIP3   OH270654   6.575   4.612  14.947 -0.1664  0.4835  0.5143
16388TIP3    H170655   6.651   4.631  15.002  0.2077 -0.2386  0.2629
16388TIP3    H270656   6.534   4.536  14.989 -1.0832  1.1997  0.9658
16389TIP3   OH270657   2.581   3.460   2.619 -0.1355 -0.0240  0.6236
16389TIP3    H170658   2.515   3.529   2.621  2.0297  2.3783 -2.3921
16389TIP3    H270659   2.532   3.382   2.592 -1.8507  1.6907 -1.6587
16390TIP3   OH270660   0.673   4.963   2.886 -0.7466  0.0835  0.4045
16390TIP3    H170661   0.679   5.047   2.930  0.1646 -0.9965  2.5130
16390TIP3    H270662   0.738   4.908   2.931  0.7625 -0.9776 -2.7592
16391TIP3   OH270663   2.523   5.794  17.077  0.7794 -0.0498 -0.2467
16391TIP3    H170664   2.582   5.865  17.102  0.0080 -0.1479  2.1881
16391TIP3    H270665   2.435   5.833  17.080  0.5486 -0.3173 -2.1880
16392TIP3   OH270666   0.235   5.929  12.725  0.1967  0.1965  0.3239
16392TIP3    H170667   0.309   5.932  12.664 -0.0895 -0.6162 -0.0770
16392TIP3    H270668   0.186   5.851  12.700 -0.8888  0.8039  0.4905
16393TIP3   OH270669   4.297   2.324  14.558 -0.4145  0.0193  0.5270
16393TIP3    H170670   4.345   2.318  14.476 -1.4034 -0.0418 -0.0703
16393TIP3    H270671   4.255   2.411  14.556 -0.8354 -0.1714  0.7379
16394TIP3   OH270672   3.258   2.445   3.003 -0.0433 -0.6614  0.0807
16394TIP3    H170673   3.192   2.515   2.996  1.0746  0.5871  1.5340
16394TIP3    H270674   3.227   2.390   3.075 -1.0897 -1.9358 -1.2619
16395TIP3   OH270675   4.512   6.242  11.628 -0.4328 -0.0757  0.3687
16395TIP3    H170676   4.434   6.218  11.577 -1.5066  0.5260  1.6538
16395TIP3    H270677   4.531   6.332  11.602  0.7083 -0.6737 -0.9635
16396TIP3   OH270678   6.441   1.901   2.550  0.0394  0.5384 -0.0403
16396TIP3    H170679   6.440   1.903   2.646  2.0291 -1.3132  0.1032
16396TIP3    H270680   6.497   1.975   2.526 -0.5313  1.0608  0.2037
16397TIP3   OH270681   2.826   0.396   3.757  0.4977  0.4260 -0.2670
16397TIP3    H170682   2.860   0.423   3.842  0.8001  3.7255 -1.3035
16397TIP3    H270683   2.731   0.410   3.763  0.1217 -1.8442  0.2626
16398TIP3   OH270684   4.772   5.648   1.946 -0.0663  0.4256 -0.1792
16398TIP3    H170685   4.849   5.610   1.904 -1.8315 -0.2340 -3.0386
16398TIP3    H270686   4.731   5.574   1.992  1.0359  0.8298  1.5661
16399TIP3   OH270687   1.699   2.299   0.865  0.4082 -0.8457  0.0273
16399TIP3    H170688   1.736   2.216   0.836  2.1395 -0.4624  1.0225
16399TIP3    H270689   1.696   2.353   0.786  3.2428 -0.4686  0.0879
16400TIP3   OH270690   5.911   3.058   5.946  0.9001 -0.3891 -0.0430
16400TIP3    H170691   5.919   3.119   6.020 -0.4765 -0.6069  0.3159
16400TIP3    H270692   5.827   3.015   5.960  1.0339 -1.0808 -1.2676
16401TIP3   OH270693   2.630   4.453   3.313  0.0083  0.0652  0.0717
16401TIP3    H170694   2.623   4.548   3.312  1.0373  0.1659  1.0623
16401TIP3    H270695   2.671   4.431   3.229  2.6890  0.7879  1.1034
16402TIP3   OH270696   5.599   6.847  15.740  0.1557 -0.2134  0.5393
16402TIP3    H170697   5.573   6.926  15.692 -0.1444 -0.0293  1.0001
16402TIP3    H270698   5.694   6.841  15.725  0.1509  0.1355  0.3505
16403TIP3   OH270699   4.793   3.466  15.095 -0.4445 -0.8342  0.2791
16403TIP3    H170700   4.840   3.406  15.037 -3.1340 -1.6900 -1.1974
16403TIP3    H270701   4.793   3.423  15.180 -0.1043 -1.6846 -0.1462
16404TIP3   OH270702   3.473   2.086   2.013  0.7510 -0.3690 -0.8329
16404TIP3    H170703   3.494   2.107   2.104 -1.0625 -0.0156 -0.4436
16404TIP3    H270704   3.497   1.994   2.003 -0.1585 -0.7599  0.3925
16405TIP3   OH270705   1.377   4.699   3.502  0.2365 -0.0965  0.2696
16405TIP3    H170706   1.460   4.745   3.511  1.2307 -1.7465  0.0463
16405TIP3    H270707   1.364   4.658   3.588  0.0376 -0.4374  0.0781
16406TIP3   OH270708   4.718   0.686   5.203  0.1735  0.5300  0.0659
16406TIP3    H170709   4.728   0.691   5.298 -2.1470  0.2060  0.3822
16406TIP3    H270710   4.722   0.592   5.183  2.8849  0.6653 -0.5345
16407TIP3   OH270711   5.623   2.827   0.485  0.6546 -0.1315 -0.3026
16407TIP3    H170712   5.697   2.797   0.432  0.8293 -0.6472  0.2236
16407TIP3    H270713   5.547   2.781   0.449  0.5477  0.5673 -0.9867
16408TIP3   OH270714   2.690   6.853   2.572  0.6943  0.0596  0.2375
16408TIP3    H170715   2.766   6.835   2.516  1.1321  1.5001  0.3276
16408TIP3    H270716   2.696   6.788   2.642  2.1983  0.5188  0.5685
16409TIP3   OH270717   2.287   2.344   0.125 -0.4991 -0.4572 -0.3698
16409TIP3    H170718   2.340   2.370   0.200 -0.6308  0.3892 -0.5650
16409TIP3    H270719   2.350   2.330   0.054 -0.5504  0.9086 -0.7040
16410TIP3   OH270720   2.413   6.561  12.413  0.3472  0.0706  0.4489
16410TIP3    H170721   2.499   6.521  12.401  0.1667 -0.6920  1.5376
16410TIP3    H270722   2.430   6.641  12.462  0.3912 -0.3675  1.1608
16411TIP3   OH270723   1.069   1.533   3.970  0.1459  0.5049 -0.3344
16411TIP3    H170724   1.163   1.545   3.981  0.2717  0.2725 -1.1352
16411TIP3    H270725   1.051   1.445   4.004  0.3737  0.1877 -1.0078
16412TIP3   OH270726   6.395   4.471   2.751  0.1692 -0.2486  0.0944
16412TIP3    H170727   6.338   4.539   2.715 -0.1204 -0.4213  0.2188
16412TIP3    H270728   6.465   4.519   2.796 -0.4103 -0.0305  0.7775
16413TIP3   OH270729   3.956   5.569   0.155 -0.1359  0.3281  0.6390
16413TIP3    H170730   3.927   5.550   0.244 -0.4553  0.5564  0.5843
16413TIP3    H270731   4.009   5.493   0.130  0.2245  0.4111  1.1379
16414TIP3   OH270732   3.237   3.682   1.518  0.0225 -0.1360  0.0973
16414TIP3    H170733   3.327   3.692   1.549 -0.3297  0.7559  0.8733
16414TIP3    H270734   3.220   3.588   1.522  0.2096 -0.1196  2.0426
16415TIP3   OH270735   1.117   3.403   3.984  0.1521 -0.4590  0.1829
16415TIP3    H170736   1.057   3.420   4.057  0.5070  1.0700  0.1397
16415TIP3    H270737   1.135   3.309   3.990  1.2795 -0.1449  2.9212
16416TIP3   OH270738   0.679   3.795   2.361  0.5031 -0.7856  0.1986
16416TIP3    H170739   0.731   3.803   2.441  1.8150 -1.1492 -0.6008
16416TIP3    H270740   0.730   3.738   2.304  0.2878  0.5969 -1.4521
16417TIP3   OH270741   2.785   2.723   0.672  0.3413  0.3565 -0.2811
16417TIP3    H170742   2.759   2.695   0.585 -0.6256  0.1696  0.0589
16417TIP3    H270743   2.711   2.774   0.705  0.6375  0.3125  0.4825
16418TIP3   OH270744   5.185   0.553   0.736 -0.1449 -0.3756  0.2010
16418TIP3    H170745   5.179   0.486   0.668 -0.2599  0.6177 -0.8059
16418TIP3    H270746   5.225   0.508   0.811 -0.2971 -1.5737 -0.4104
16419TIP3   OH270747   2.271   5.437  11.876 -0.4642  0.3418 -0.2831
16419TIP3    H170748   2.297   5.410  11.788  1.1058  0.1737  0.2039
16419TIP3    H270749   2.175   5.436  11.874 -0.5002 -2.4592 -1.1369
16420TIP3   OH270750   0.442   2.420  16.156  0.2165  0.0952  0.1362
16420TIP3    H170751   0.392   2.475  16.095  2.2240 -0.4304 -2.1445
16420TIP3    H270752   0.380   2.352  16.183 -1.1355  1.1430 -0.2043
16421TIP3   OH270753   1.242   3.123  15.990  0.3006  0.3153 -0.0909
16421TIP3    H170754   1.228   3.207  15.946 -0.3798  0.7537  0.9122
16421TIP3    H270755   1.303   3.075  15.933 -0.9434  0.6325 -1.7617
16422TIP3   OH270756   4.497   1.898  15.653  0.2490 -0.6868 -0.1676
16422TIP3    H170757   4.502   1.917  15.559 -0.3887  1.0850  0.1306
16422TIP3    H270758   4.473   1.981  15.694  2.3062 -0.9723  1.7877
16423TIP3   OH270759   4.717   2.030   2.720  0.2223  0.0486  0.3154
16423TIP3    H170760   4.810   2.015   2.703  0.1248  0.1279 -0.3054
16423TIP3    H270761   4.708   2.019   2.815  1.0462  1.0581  0.5254
16424TIP3   OH270762   6.685   4.244  12.661 -0.1137  0.0828 -0.2977
16424TIP3    H170763   6.661   4.328  12.622 -0.5236 -0.1327 -0.5184
16424TIP3    H270764   6.635   4.179  12.611  0.0575 -0.2764 -0.0094
16425TIP3   OH270765   4.465   2.382   3.568 -0.3510 -0.7941  0.0131
16425TIP3    H170766   4.482   2.454   3.508  0.0620 -0.6540  0.2933
16425TIP3    H270767   4.370   2.377   3.574 -0.4125 -1.1587 -1.0729
16426TIP3   OH270768   4.265   4.716   5.442 -0.1031 -0.3246 -0.0473
16426TIP3    H170769   4.316   4.786   5.483 -0.4211  0.5396 -1.0625
16426TIP3    H270770   4.208   4.762   5.380 -0.8869 -1.4241 -0.1692
16427TIP3   OH270771   0.888   4.037  12.397 -0.4991 -0.4265  0.2017
16427TIP3    H170772   0.843   4.007  12.318  0.2369 -1.1566  0.0490
16427TIP3    H270773   0.973   3.992  12.395 -0.8213 -1.1848  1.8875
16428TIP3   OH270774   4.110   0.881  16.769  0.0031  0.2903  0.3169
16428TIP3    H170775   4.097   0.926  16.852 -0.0074 -0.3319  0.6581
16428TIP3    H270776   4.099   0.788  16.790  0.5414  0.0871 -0.2664
16429TIP3   OH270777   5.480   2.983  13.561 -0.0669 -0.6988 -0.0896
16429TIP3    H170778   5.418   2.987  13.488  0.5615  2.5473 -0.5826
16429TIP3    H270779   5.452   3.053  13.620  1.1245 -1.4194  1.3989
16430TIP3   OH270780   4.986   1.191   3.856 -0.3768 -0.4567 -0.2871
16430TIP3    H170781   5.063   1.144   3.888  1.6626  0.9970 -2.6688
16430TIP3    H270782   4.933   1.124   3.813  0.8406 -1.1358 -0.7925
16431TIP3   OH270783   4.756   1.047   4.825 -0.3219 -0.5640  0.2022
16431TIP3    H170784   4.846   1.015   4.818 -0.3426 -0.4850 -0.4217
16431TIP3    H270785   4.765   1.138   4.851 -0.2001 -0.3373 -0.6205
16432TIP3   OH270786   1.910   6.616   0.932  0.1422 -0.2143 -0.1521
16432TIP3    H170787   1.880   6.570   0.854  0.7839  0.8331 -1.0451
16432TIP3    H270788   2.003   6.630   0.917 -0.0695  1.5830 -0.0590
16433TIP3   OH270789   6.819   0.673  16.087  0.6812  0.2646  0.4120
16433TIP3    H170790   6.905   0.635  16.074  0.5701  0.3440 -0.6334
16433TIP3    H270791   6.831   0.737  16.157  1.0840 -0.9610  1.4936
16434TIP3   OH270792   0.378   5.504   4.488 -0.0692  0.2346 -0.3648
16434TIP3    H170793   0.297   5.498   4.538 -0.7889 -0.0700 -1.5146
16434TIP3    H270794   0.406   5.413   4.477  1.0839  0.3952  1.0209
16435TIP3   OH270795   2.969   0.065  15.785  0.1032  0.4047 -0.5752
16435TIP3    H170796   2.997  -0.021  15.752  1.0488  0.4263  0.1189
16435TIP3    H270797   2.912   0.099  15.717  2.5480  0.7739 -2.6171
16436TIP3   OH270798   4.956   3.800  13.488  0.2237  0.0924  0.1130
16436TIP3    H170799   4.904   3.766  13.561  0.9228  0.6943  0.9145
16436TIP3    H270800   4.967   3.725  13.429 -0.8906 -0.2351  0.2952
16437TIP3   OH270801   3.241   6.832  11.870  0.0979 -0.1301  0.5640
16437TIP3    H170802   3.267   6.825  11.778 -0.2220 -0.7431  0.5131
16437TIP3    H270803   3.321   6.856  11.916  0.1251  0.8246  0.0498
16438TIP3   OH270804   2.052   4.870   3.712 -0.5749 -0.3891  0.5151
16438TIP3    H170805   2.147   4.876   3.725 -0.2724 -2.1372 -0.5390
16438TIP3    H270806   2.035   4.777   3.703 -1.9488  0.0153 -2.1665
16439TIP3   OH270807   1.161   0.582   2.509  0.2380 -0.2566 -0.0915
16439TIP3    H170808   1.173   0.487   2.498 -0.8164 -0.4303  0.1108
16439TIP3    H270809   1.083   0.589   2.565 -1.1554  0.7409 -2.0424
16440TIP3   OH270810   4.717   3.744  15.672  0.4240  0.4205 -0.0671
16440TIP3    H170811   4.742   3.739  15.765 -0.6919  1.1444  0.2959
16440TIP3    H270812   4.730   3.655  15.639 -0.2743 -0.1466  1.1019
16441TIP3   OH270813   3.184   4.336  14.769 -0.9802 -0.2883 -0.3472
16441TIP3    H170814   3.180   4.244  14.741 -2.1648 -0.6104  0.8142
16441TIP3    H270815   3.239   4.378  14.703 -2.6942 -1.2436 -2.5294
16442TIP3   OH270816   1.246   1.915   6.557 -0.5458 -0.3794  0.5811
16442TIP3    H170817   1.227   1.877   6.643 -0.4813 -1.1378  0.2699
16442TIP3    H270818   1.331   1.957   6.568 -0.1814 -1.1266  0.6950
16443TIP3   OH270819   3.751   6.226  16.041 -0.4031  0.2137  1.1550
16443TIP3    H170820   3.831   6.174  16.042 -0.2982  0.3606  0.7465
16443TIP3    H270821   3.683   6.165  16.011  0.0566  0.7378 -1.2020
16444TIP3   OH270822   2.684   2.073   2.111 -1.1280 -0.0159  0.0042
16444TIP3    H170823   2.757   2.123   2.074 -0.8846 -1.2354 -1.2442
16444TIP3    H270824   2.671   2.111   2.198  1.1669  0.0642  0.3787
16445TIP3   OH270825   2.926   0.124   5.784 -1.0820 -0.1026 -0.3020
16445TIP3    H170826   2.956   0.106   5.695  0.0046 -2.8823  0.5115
16445TIP3    H270827   2.888   0.212   5.780 -0.0906  0.2849 -3.2367
16446TIP3   OH270828   0.296   0.683  15.146 -0.3444  0.3781  0.3339
16446TIP3    H170829   0.354   0.722  15.080  2.0723 -0.5871  1.7211
16446TIP3    H270830   0.254   0.610  15.101  0.0715  0.6760 -0.5581
16447TIP3   OH270831   3.114   0.913   1.695  0.1457  0.0061 -0.2563
16447TIP3    H170832   3.184   0.900   1.759  1.0385 -0.7037 -1.3446
16447TIP3    H270833   3.059   0.835   1.704 -1.0346  0.9434  1.1814
16448TIP3   OH270834   5.980   2.507  12.315  0.5891 -0.0494  0.1820
16448TIP3    H170835   5.923   2.443  12.357  1.5149 -0.2248  1.2092
16448TIP3    H270836   5.921   2.576  12.285 -0.1361 -0.0604  1.5110
16449TIP3   OH270837   0.413   5.949   0.365 -0.7408 -0.2467 -0.0457
16449TIP3    H170838   0.343   5.994   0.319 -0.7557  1.1677  1.2671
16449TIP3    H270839   0.449   6.014   0.425  0.8627 -1.3038  0.2279
16450TIP3   OH270840   1.771   4.153   3.988  0.0851 -0.5658  0.7344
16450TIP3    H170841   1.821   4.221   4.034  0.1015 -1.6978  2.4669
16450TIP3    H270842   1.819   4.072   4.005 -1.0704 -1.3342  0.4805
16451TIP3   OH270843   0.242   2.669  11.122  0.0428  0.1116  0.1223
16451TIP3    H170844   0.231   2.575  11.108  0.3672  0.1444 -0.3667
16451TIP3    H270845   0.313   2.676  11.186 -0.7938 -0.0069  1.0901
16452TIP3   OH270846   5.857   5.672  11.478  0.3898  0.2475  0.0494
16452TIP3    H170847   5.825   5.586  11.449 -0.1320  1.0540 -1.9331
16452TIP3    H270848   5.782   5.730  11.468  0.4991  0.8126  2.1789
16453TIP3   OH270849   0.196   4.796   3.947  0.0886  0.3271 -0.2306
16453TIP3    H170850   0.189   4.828   4.037  0.6404 -2.0878  0.7364
16453TIP3    H270851   0.106   4.777   3.921 -0.0800  1.0986 -0.2557
16454TIP3   OH270852   2.815   5.465  14.957 -0.4994 -0.3748 -0.0629
16454TIP3    H170853   2.859   5.547  14.979  0.8650 -0.4935 -2.0570
16454TIP3    H270854   2.742   5.459  15.018 -0.4697  2.1867  0.3205
16455TIP3   OH270855   4.997   2.775  15.065  0.0489  0.1733  0.3228
16455TIP3    H170856   5.052   2.757  15.142  0.6335  1.7189  0.3075
16455TIP3    H270857   4.999   2.870  15.056 -1.0770  0.1152 -0.8476
16456TIP3   OH270858   3.455   1.553   4.581 -0.2628  0.0908 -0.3055
16456TIP3    H170859   3.434   1.645   4.596  1.2396  0.6808 -1.4754
16456TIP3    H270860   3.394   1.526   4.513 -1.8707 -0.3203  1.2503
16457TIP3   OH270861   0.276   4.116   2.457 -0.3926 -0.0382  0.2952
16457TIP3    H170862   0.371   4.107   2.453 -0.3230  0.5882  0.4724
16457TIP3    H270863   0.245   4.074   2.376  0.0987  0.5913 -0.2270
16458TIP3   OH270864   5.405   1.585  15.014 -0.0240 -0.4805  0.0083
16458TIP3    H170865   5.345   1.510  15.022  0.0838 -0.3552  3.4330
16458TIP3    H270866   5.481   1.549  14.968 -1.3085 -1.5667 -1.3517
16459TIP3   OH270867   6.493   4.155  16.138 -0.6971 -0.1030 -0.0571
16459TIP3    H170868   6.456   4.239  16.167 -0.0917 -0.1735  0.9833
16459TIP3    H270869   6.518   4.111  16.220  0.0712 -0.7995 -0.6552
16460TIP3   OH270870   5.348   3.496   2.257  0.0045  0.1542 -0.1406
16460TIP3    H170871   5.432   3.451   2.258 -0.3287 -0.4561  0.3769
16460TIP3    H270872   5.347   3.546   2.338 -0.1512  0.1361 -0.1324
16461TIP3   OH270873   2.463   2.496   0.308 -0.0939  0.4714  0.6643
16461TIP3    H170874   2.406   2.573   0.310 -0.1058  0.4611  0.7575
16461TIP3    H270875   2.538   2.520   0.363 -0.2117  0.3300  0.8885
16462TIP3   OH270876   3.002   0.052   5.517 -0.1230  0.0488  0.2426
16462TIP3    H170877   2.967   0.056   5.429  0.5591  0.8352 -0.0080
16462TIP3    H270878   3.000  -0.041   5.540 -2.4201  0.0482  0.2889
16463TIP3   OH270879   4.259   4.943   1.028  0.1174  0.4293 -0.3698
16463TIP3    H170880   4.180   4.983   1.065 -0.8082 -0.1416 -1.6522
16463TIP3    H270881   4.230   4.906   0.945  1.3125 -1.3954 -0.0337
16464TIP3   OH270882   5.555   0.263   3.269  0.1912  0.1403 -0.5427
16464TIP3    H170883   5.511   0.237   3.188 -2.6584 -0.5110  1.0711
16464TIP3    H270884   5.530   0.354   3.281 -0.6595 -0.1903  0.3126
16465TIP3   OH270885   4.990   0.354  13.859  0.5235 -0.0735  0.1373
16465TIP3    H170886   5.027   0.270  13.888 -0.2588 -1.1718 -1.8374
16465TIP3    H270887   5.064   0.414  13.856  1.3768 -1.0992  0.1933
16466TIP3   OH270888   4.964   2.894   5.439  0.0293 -0.0171  0.3666
16466TIP3    H170889   4.959   2.800   5.420  1.1516 -0.1983  0.8669
16466TIP3    H270890   5.054   2.918   5.417  0.2635  0.5686  1.8280
16467TIP3   OH270891   5.475   5.270  15.959 -0.4461  0.2393  0.4050
16467TIP3    H170892   5.502   5.360  15.937 -0.9380  0.8796  2.2278
16467TIP3    H270893   5.557   5.227  15.983 -0.2007  0.1809 -0.5148
16468TIP3   OH270894   2.953   6.625   2.609 -0.8320 -0.7342  0.0979
16468TIP3    H170895   2.901   6.585   2.539  0.6520 -1.4237 -0.6578
16468TIP3    H270896   2.940   6.568   2.684 -1.0744 -0.9537 -0.1088
16469TIP3   OH270897   3.050   6.280  12.448 -0.1906 -0.5206 -0.4742
16469TIP3    H170898   2.968   6.250  12.409  0.1735 -1.2040 -0.7392
16469TIP3    H270899   3.100   6.315  12.374 -0.4413  0.3750 -0.2342
16470TIP3   OH270900   4.560   6.190  14.315  0.3867  0.3991 -0.0635
16470TIP3    H170901   4.558   6.095  14.328  2.9286  0.3168  0.1382
16470TIP3    H270902   4.648   6.209  14.283 -0.0992  2.6875 -0.2458
16471TIP3   OH270903   0.211   5.830  10.931  0.8102 -0.5968  0.0556
16471TIP3    H170904   0.175   5.818  11.019 -1.3769 -0.3878 -0.7493
16471TIP3    H270905   0.172   5.760  10.879 -1.3753  1.6667 -1.6465
16472TIP3   OH270906   0.982   2.555   4.668 -0.2946 -0.6938  0.3846
16472TIP3    H170907   1.061   2.602   4.643 -0.2397 -0.0300  1.7058
16472TIP3    H270908   0.931   2.550   4.588  0.3093  0.4389 -0.0970
16473TIP3   OH270909   5.573   4.226  14.928 -0.6392  0.9832  0.3571
16473TIP3    H170910   5.628   4.283  14.981 -1.1416  0.3466  1.6228
16473TIP3    H270911   5.597   4.137  14.955 -0.9623  0.6385 -0.4404
16474TIP3   OH270912   3.344   3.277   1.275  0.2365 -0.2174 -0.0704
16474TIP3    H170913   3.410   3.344   1.291  0.9042 -0.9821  0.4679
16474TIP3    H270914   3.372   3.233   1.195 -0.2089  0.1516 -0.4320
16475TIP3   OH270915   0.331   1.813   2.910  0.5187  0.2456 -0.5785
16475TIP3    H170916   0.308   1.829   2.818  1.4537 -1.4577 -1.1442
16475TIP3    H270917   0.294   1.727   2.929  0.8839  0.3082  0.4654
16476TIP3   OH270918   4.717   1.707  11.577  0.5500 -0.0232 -0.5008
16476TIP3    H170919   4.742   1.656  11.501  0.4481 -1.4146  0.3694
16476TIP3    H270920   4.641   1.758  11.548  1.3355  0.5108 -1.6972
16477TIP3   OH270921   6.128   1.274   3.390  0.2132 -0.3690  0.1359
16477TIP3    H170922   6.195   1.339   3.410 -1.5824  0.9093  2.4303
16477TIP3    H270923   6.133   1.211   3.462 -1.5601  0.2190  0.8202
16478TIP3   OH270924   1.146   2.469  12.496 -0.3379 -0.2927 -0.3476
16478TIP3    H170925   1.133   2.390  12.548  3.0427 -0.5128  0.4242
16478TIP3    H270926   1.129   2.541  12.558  1.8465 -0.5481  0.6568
16479TIP3   OH270927   2.056   6.465  15.119 -0.6569  0.1484 -0.5555
16479TIP3    H170928   1.998   6.427  15.053 -0.7262 -0.4446 -0.1601
16479TIP3    H270929   2.070   6.395  15.182 -1.1138  0.9099  0.4180
16480TIP3   OH270930   5.861   3.037  13.496  0.1591  0.0128  0.1485
16480TIP3    H170931   5.820   3.100  13.436  1.8112  0.6978 -0.3308
16480TIP3    H270932   5.789   3.002  13.547 -1.1814  0.2128 -1.5099
16481TIP3   OH270933   5.904   6.240   1.061 -0.4311  0.2621 -0.1469
16481TIP3    H170934   5.963   6.214   0.991 -0.0240 -1.7487  0.8744
16481TIP3    H270935   5.957   6.232   1.141 -1.1487  1.6196  0.4991
16482TIP3   OH270936   5.394   0.014   0.512 -0.1088 -1.1972  0.5245
16482TIP3    H170937   5.446   0.083   0.554 -0.8503 -0.2609 -0.0480
16482TIP3    H270938   5.324  -0.005   0.575  0.2471 -1.6203  0.7952
16483TIP3   OH270939   3.405   0.751   3.190 -0.0748 -0.1400 -0.4692
16483TIP3    H170940   3.391   0.846   3.200 -0.5099 -0.2421 -0.0936
16483TIP3    H270941   3.453   0.743   3.108  0.7296  0.4796 -0.0785
16484TIP3   OH270942   3.875   3.900  16.216  0.2775  0.1828 -0.1527
16484TIP3    H170943   3.931   3.903  16.294 -0.6515  0.3041  0.5309
16484TIP3    H270944   3.813   3.972  16.229 -0.0113  0.0785 -0.9204
16485TIP3   OH270945   4.135   1.437   1.792  0.3249 -0.1946 -0.3736
16485TIP3    H170946   4.112   1.438   1.700  2.6552  1.0914 -1.0290
16485TIP3    H270947   4.094   1.515   1.829  0.0884 -0.2514 -0.5205
16486TIP3   OH270948   1.706   2.533   0.138  0.7894  0.0263 -0.5482
16486TIP3    H170949   1.733   2.611   0.186  0.0293 -0.5114  0.7894
16486TIP3    H270950   1.742   2.459   0.188  1.6188 -0.5026 -1.8671
16487TIP3   OH270951   4.561   6.485   2.053 -0.2335 -0.1040  0.4592
16487TIP3    H170952   4.572   6.580   2.056 -0.1559 -0.0817 -0.3280
16487TIP3    H270953   4.517   6.463   2.136 -2.0734  0.8573 -0.2094
16488TIP3   OH270954   6.109   3.799  15.677 -0.5864  0.1530  0.0793
16488TIP3    H170955   6.170   3.733  15.710  0.8800  1.2441 -0.3606
16488TIP3    H270956   6.023   3.762  15.696  0.1772 -1.5036  0.5986
16489TIP3   OH270957   4.032   2.190  15.503 -0.4389 -0.2884 -0.1569
16489TIP3    H170958   4.038   2.255  15.573 -1.2778 -0.8272  0.4401
16489TIP3    H270959   4.113   2.140  15.509 -0.2165  0.0892  0.0078
16490TIP3   OH270960   3.909   1.776   4.703  0.0988 -0.1033 -0.5804
16490TIP3    H170961   3.875   1.690   4.678 -0.3123 -0.4232  0.9718
16490TIP3    H270962   3.889   1.783   4.796  0.3302  1.5931 -0.6358
16491TIP3   OH270963   3.615   4.869  14.810 -0.2321  0.6291  0.0549
16491TIP3    H170964   3.522   4.891  14.810 -0.2766  0.4454  0.1549
16491TIP3    H270965   3.656   4.935  14.867 -0.4234  0.2073  0.6958
16492TIP3   OH270966   6.310   5.261  14.398  0.5487  1.1609 -0.3055
16492TIP3    H170967   6.245   5.316  14.355 -2.8808 -0.6423  2.0806
16492TIP3    H270968   6.312   5.181  14.344  1.1004  1.3489 -0.5704
16493TIP3   OH270969   4.392   6.811  16.274  0.0651  0.4654 -0.2067
16493TIP3    H170970   4.353   6.893  16.305 -2.1303  0.0748 -1.6541
16493TIP3    H270971   4.356   6.800  16.186  1.5736 -1.2700 -0.6681
16494TIP3   OH270972   4.923   1.312   1.759 -0.5745 -0.1826 -0.0293
16494TIP3    H170973   4.870   1.381   1.797 -1.7023 -1.6469  1.1859
16494TIP3    H270974   4.868   1.234   1.762  1.2670 -1.5585  0.3678
16495TIP3   OH270975   1.648   5.273   5.603 -0.0103 -0.0165  0.0168
16495TIP3    H170976   1.672   5.197   5.551 -0.1800  0.2506 -0.4556
16495TIP3    H270977   1.671   5.349   5.548 -1.7875  0.2530 -0.4216
16496TIP3   OH270978   3.841   1.142  15.216  0.3574 -0.3134  0.6020
16496TIP3    H170979   3.879   1.216  15.264  0.8581 -1.0159  1.3114
16496TIP3    H270980   3.804   1.182  15.137  0.0256  0.7838  1.2851
16497TIP3   OH270981   3.680   0.780  14.019  0.1180  0.0914 -0.1121
16497TIP3    H170982   3.705   0.696  14.057 -0.1220  0.3634  0.6575
16497TIP3    H270983   3.589   0.793  14.045  0.0433  0.4260 -0.5207
16498TIP3   OH270984   0.231   3.937   6.063  0.0491  0.8019 -0.0471
16498TIP3    H170985   0.220   4.008   5.998  1.9599 -0.3429 -1.7300
16498TIP3    H270986   0.190   3.861   6.022  1.4554  0.0122 -0.0521
16499TIP3   OH270987   3.635   5.498  10.851  0.2513  0.2220 -0.1541
16499TIP3    H170988   3.578   5.540  10.787 -0.9966  0.1676  0.8755
16499TIP3    H270989   3.590   5.511  10.935  0.8951 -1.3070  0.4668
16500TIP3   OH270990   5.833   0.285  13.978  0.6931  0.2568  0.2959
16500TIP3    H170991   5.879   0.329  13.907 -0.6700 -0.0494 -0.8285
16500TIP3    H270992   5.754   0.337  13.992 -0.0861 -0.8176  0.1205
16501TIP3   OH270993   2.094   4.718  15.696 -0.1119 -0.9405 -0.0705
16501TIP3    H170994   2.007   4.706  15.734  0.2467 -0.2108  1.0062
16501TIP3    H270995   2.124   4.629  15.677 -0.5635 -1.2780  0.7581
16502TIP3   OH270996   5.293   5.178  16.564 -0.0295  0.0427 -0.1303
16502TIP3    H170997   5.215   5.229  16.540 -0.9304 -0.4430  1.5886
16502TIP3    H270998   5.343   5.171  16.483 -0.4559  2.6389 -0.6949
16503TIP3   OH270999   2.013   4.853  10.757  0.2953  0.0653  0.0729
16503TIP3    H171000   2.078   4.884  10.694  1.7787 -0.3288  1.3761
16503TIP3    H271001   1.930   4.861  10.710  1.2430  0.6901 -1.5901
16504TIP3   OH271002   5.244   3.862  13.602 -0.1541 -0.0275  0.3050
16504TIP3    H171003   5.176   3.902  13.657  1.2485 -1.5058  3.3846
16504TIP3    H271004   5.196   3.822  13.530 -2.1769  1.6906  0.5976
16505TIP3   OH271005   3.690   6.317  16.432 -0.4920 -0.5288 -0.0916
16505TIP3    H171006   3.666   6.409  16.432 -1.8738 -0.8516  0.5347
16505TIP3    H271007   3.629   6.276  16.370  0.3249 -0.9849 -0.6229
16506TIP3   OH271008   4.942   3.612   3.056  0.1196 -0.4682 -0.8392
16506TIP3    H171009   4.994   3.573   3.126  0.3754  0.3613 -0.5558
16506TIP3    H271010   4.965   3.561   2.978 -0.6114 -1.7908 -0.2347
16507TIP3   OH271011   2.706   5.803  11.307 -0.0266  0.3511  0.2196
16507TIP3    H171012   2.636   5.868  11.310 -2.2048 -1.8705 -0.0775
16507TIP3    H271013   2.780   5.847  11.349 -2.0156  2.2771  1.9657
16508TIP3   OH271014   6.828   0.879  13.337  0.3802 -0.3660  0.6969
16508TIP3    H171015   6.767   0.805  13.337 -0.1732  0.0686 -0.2665
16508TIP3    H271016   6.834   0.905  13.245  1.8058 -0.2133  0.8069
16509TIP3   OH271017   2.000   1.740  12.534 -0.6482  0.0304  0.5426
16509TIP3    H171018   1.965   1.670  12.480 -1.1367 -0.4625  1.4872
16509TIP3    H271019   1.996   1.707  12.624  1.7059  0.1587  0.7675
16510TIP3   OH271020   1.678   6.758  12.335 -0.3972 -0.0498 -0.1059
16510TIP3    H171021   1.748   6.764  12.270 -1.3922 -0.3215 -1.2406
16510TIP3    H271022   1.701   6.823  12.402  0.5352  0.3892 -0.8380
16511TIP3   OH271023   0.932   6.510   0.914 -0.3206  0.5182 -0.5225
16511TIP3    H171024   0.926   6.464   0.998 -1.3424  0.9330 -0.3467
16511TIP3    H271025   0.869   6.465   0.858  0.0598  0.5013 -0.9368
16512TIP3   OH271026   4.947   0.642   4.371 -0.7464  0.0711  0.2109
16512TIP3    H171027   4.923   0.732   4.395 -0.8129  1.0432 -3.0294
16512TIP3    H271028   4.870   0.590   4.393 -2.4381  1.5983 -1.6844
16513TIP3   OH271029   5.289   4.728   2.827  0.0660 -0.1597  0.1867
16513TIP3    H171030   5.354   4.794   2.850 -0.2297  0.2119 -0.0267
16513TIP3    H271031   5.327   4.681   2.753  0.0585  0.1158  0.0055
16514TIP3   OH271032   5.976   1.724   2.298 -0.5638 -0.7017  0.0884
16514TIP3    H171033   6.021   1.652   2.253 -0.4538 -0.4819 -0.1561
16514TIP3    H271034   6.006   1.803   2.253 -0.0355 -0.4345  0.8901
16515TIP3   OH271035   3.039   1.170  15.955 -0.3138 -0.6600  0.0168
16515TIP3    H171036   3.113   1.230  15.950 -1.0496  0.1823 -2.2499
16515TIP3    H271037   3.077   1.088  15.986  1.2999  0.1119  0.2143
16516TIP3   OH271038   0.541   0.069   5.314  0.1584 -0.0535  0.3348
16516TIP3    H171039   0.602  -0.003   5.302  0.0518  0.2170 -2.4562
16516TIP3    H271040   0.596   0.147   5.318  0.1093  0.1035 -1.3082
16517TIP3   OH271041   1.828   5.475  12.843  0.1493  0.9047  0.2139
16517TIP3    H171042   1.814   5.533  12.769  0.5112  1.2347  0.4018
16517TIP3    H271043   1.849   5.390  12.804 -0.0513  0.9800 -0.0594
16518TIP3   OH271044   6.505   5.399  12.700  0.0651  0.2628 -0.3356
16518TIP3    H171045   6.414   5.371  12.691  0.0445  0.6623 -1.6953
16518TIP3    H271046   6.530   5.375  12.789 -1.5706  0.7460  0.2769
16519TIP3   OH271047   4.421   5.373  16.354 -0.3196  0.2865 -0.1740
16519TIP3    H171048   4.411   5.326  16.437  2.8291  0.7278  0.5851
16519TIP3    H271049   4.381   5.315  16.289  0.0916 -1.6775  1.2225
16520TIP3   OH271050   4.755   2.330  11.486 -0.0513  0.2495  0.4634
16520TIP3    H171051   4.685   2.384  11.521 -0.0157  1.1398 -0.7985
16520TIP3    H271052   4.752   2.343  11.391 -0.2509 -2.2209  0.0425
16521TIP3   OH271053   3.895   2.226   2.394 -0.1502 -0.1717  0.3802
16521TIP3    H171054   3.877   2.171   2.470 -0.7174 -1.1066 -0.4059
16521TIP3    H271055   3.953   2.173   2.340 -0.7521 -0.0219 -0.4205
16522TIP3   OH271056   1.613   0.791  12.574  0.5133 -0.1676 -0.2756
16522TIP3    H171057   1.609   0.849  12.498  0.4847 -1.3512 -1.2029
16522TIP3    H271058   1.657   0.712  12.542  0.9429 -0.5067  1.0663
16523TIP3   OH271059   1.400   2.832   1.555  0.4893  0.9158  0.5748
16523TIP3    H171060   1.481   2.783   1.568  0.7284  1.4839  1.3359
16523TIP3    H271061   1.425   2.906   1.500  0.1926  0.3618 -0.3230
16524TIP3   OH271062   3.977   1.629  11.998 -0.2620  0.1016  0.2600
16524TIP3    H171063   3.981   1.665  11.910  1.2439 -0.4571  0.0640
16524TIP3    H271064   3.901   1.570  11.996 -0.4237  0.3224 -0.5735
16525TIP3   OH271065   0.505   2.514   4.718  0.9538  0.3557 -0.2786
16525TIP3    H171066   0.418   2.556   4.714 -0.7160 -2.8319 -0.3713
16525TIP3    H271067   0.535   2.532   4.807 -0.4499  0.3715  0.2276
16526TIP3   OH271068   6.404   1.767   0.631  0.4506 -0.4215  0.3200
16526TIP3    H171069   6.444   1.854   0.636  1.5124 -0.8254 -0.7335
16526TIP3    H271070   6.422   1.728   0.717 -0.9115  0.7294  1.1778
16527TIP3   OH271071   2.175   6.521   0.997  0.4140  0.3224  0.1776
16527TIP3    H171072   2.166   6.525   1.092 -0.3358  2.7670  0.0554
16527TIP3    H271073   2.267   6.495   0.983  0.3422 -0.7732  1.5202
16528TIP3   OH271074   4.492   5.506  11.915  0.3523 -0.4748  0.0545
16528TIP3    H171075   4.527   5.554  11.840  0.3486 -1.0094 -0.2945
16528TIP3    H271076   4.561   5.512  11.982  0.4368 -0.1625 -0.0605
16529TIP3   OH271077   5.302   4.098   3.265 -0.1124 -0.3453 -0.6206
16529TIP3    H171078   5.228   4.158   3.269  0.2230  0.0466  0.0630
16529TIP3    H271079   5.263   4.011   3.258 -0.7678 -0.3877  2.2298
16530TIP3   OH271080   1.337   0.494   1.069  0.3200  0.2912  0.4462
16530TIP3    H171081   1.405   0.458   1.011  0.0707 -0.7522  0.7808
16530TIP3    H271082   1.367   0.583   1.088  1.5801 -0.1389  0.5537
16531TIP3   OH271083   2.724   1.799   6.699  0.6082  0.0363 -0.4275
16531TIP3    H171084   2.747   1.731   6.762 -0.2236  1.3150  1.3167
16531TIP3    H271085   2.639   1.773   6.665  0.4935 -0.0381 -0.0890
16532TIP3   OH271086   0.999   2.351   3.392  0.3159 -0.0646 -0.3138
16532TIP3    H171087   1.061   2.360   3.464  2.4382  0.4557 -2.1118
16532TIP3    H271088   0.927   2.410   3.415 -0.0365 -1.3736  2.2587
16533TIP3   OH271089   3.978   6.385  11.474 -0.0845 -0.1590  0.1856
16533TIP3    H171090   3.965   6.328  11.399 -1.4085 -0.5656  0.7015
16533TIP3    H271091   3.915   6.456  11.463  1.9530  1.6417 -0.7729
16534TIP3   OH271092   0.692   6.099  15.156 -0.4313  0.0677 -0.3582
16534TIP3    H171093   0.747   6.061  15.088  0.0225  3.1032 -1.8591
16534TIP3    H271094   0.706   6.194  15.149 -2.9975  0.7354  1.7130
16535TIP3   OH271095   6.519   6.405  16.542  0.3611  0.4365  0.5924
16535TIP3    H171096   6.497   6.489  16.501  2.0290  1.9707  2.5927
16535TIP3    H271097   6.598   6.376  16.496  0.2122  0.3299  0.4003
16536TIP3   OH271098   3.251   2.107   0.729  0.4821  0.0053  0.3420
16536TIP3    H171099   3.265   2.054   0.807  0.1525 -1.6568 -0.6881
16536TIP3    H271100   3.285   2.054   0.657 -0.8092  0.7321 -0.8549
16537TIP3   OH271101   1.116   2.250  10.431 -0.2736  0.1160 -0.4399
16537TIP3    H171102   1.059   2.191  10.381 -1.3983  1.5980 -0.9546
16537TIP3    H271103   1.164   2.192  10.491 -1.5740 -1.2807 -0.7056
16538TIP3   OH271104   3.430   1.569   5.978 -0.2150 -0.0895 -0.2802
16538TIP3    H171105   3.473   1.627   5.916 -0.2720  0.4746  0.2048
16538TIP3    H271106   3.499   1.542   6.038 -0.2380 -0.3348 -0.3635
16539TIP3   OH271107   1.546   1.632  15.038 -0.2579  0.6037 -0.1421
16539TIP3    H171108   1.491   1.576  15.094 -1.0353  2.2570  0.8059
16539TIP3    H271109   1.488   1.703  15.011  0.2718  0.2038 -2.6035
16540TIP3   OH271110   3.224   6.421   2.106  0.7408 -0.2669  0.4344
16540TIP3    H171111   3.145   6.453   2.149  1.1460  0.6180  0.5564
16540TIP3    H271112   3.226   6.328   2.124 -0.4112 -0.3457  0.2092
16541TIP3   OH271113   0.467   6.452  12.432 -0.1969 -0.2789 -0.2949
16541TIP3    H171114   0.399   6.486  12.490  0.4530  0.7422 -0.0989
16541TIP3    H271115   0.444   6.360  12.418 -1.0783 -0.1944  0.5364
16542TIP3   OH271116   3.287   1.913   3.817  0.0387 -0.2570  0.3478
16542TIP3    H171117   3.350   1.888   3.749  1.1170 -0.6809  1.4652
16542TIP3    H271118   3.341   1.951   3.887 -0.9153 -0.7495  1.3826
16543TIP3   OH271119   3.388   6.290  16.013  0.1384 -0.1073  0.2517
16543TIP3    H171120   3.320   6.315  15.952  1.3744  0.0560 -1.1262
16543TIP3    H271121   3.404   6.197  15.995  0.7574  0.0295  0.0654
16544TIP3   OH271122   2.041   0.202   1.488 -0.3751 -0.1155  0.4315
16544TIP3    H171123   2.076   0.190   1.400 -0.9059  1.1213  0.0388
16544TIP3    H271124   1.969   0.139   1.494  0.6844 -1.3583  0.5891
16545TIP3   OH271125   6.083   2.020   1.386  0.4813 -0.2770 -0.6637
16545TIP3    H171126   6.099   2.077   1.311  1.4190 -1.0716 -1.0786
16545TIP3    H271127   6.120   2.068   1.461  0.8839 -0.1461 -0.9452
16546TIP3   OH271128   2.937   2.308   5.349 -0.0690  0.4404 -0.4081
16546TIP3    H171129   2.948   2.321   5.443  3.2821 -0.2683 -0.5996
16546TIP3    H271130   2.842   2.315   5.335 -1.0965 -2.4061  3.4364
16547TIP3   OH271131   5.528   4.031  13.590 -0.0337 -0.6207  0.7907
16547TIP3    H171132   5.552   4.096  13.525  0.7616 -2.0884 -0.4437
16547TIP3    H271133   5.597   3.964  13.585 -1.1660 -1.9098  1.5100
16548TIP3   OH271134   5.852   0.450   2.493  0.2459 -0.4037 -0.3254
16548TIP3    H171135   5.856   0.408   2.407  1.7287 -0.2109 -0.3624
16548TIP3    H271136   5.938   0.435   2.531 -0.6323 -1.1692  1.4738
16549TIP3   OH271137   1.597   2.038  15.914  0.2612 -0.3263 -0.3351
16549TIP3    H171138   1.580   1.971  15.980  0.3634 -0.7361 -0.7113
16549TIP3    H271139   1.569   2.120  15.954  0.4272 -0.5542  0.2530
16550TIP3   OH271140   5.717   1.979   1.922  0.0583  0.6705 -0.3575
16550TIP3    H171141   5.720   2.073   1.904  0.3625  0.2216 -3.1228
16550TIP3    H271142   5.792   1.943   1.875 -0.1495 -0.9922  0.5079
16551TIP3   OH271143   5.434   6.717   3.467 -0.4132 -0.0915 -0.2583
16551TIP3    H171144   5.440   6.784   3.535 -0.8969 -0.5753  0.2634
16551TIP3    H271145   5.524   6.686   3.457 -0.4819 -0.6610  0.8128
16552TIP3   OH271146   6.457   5.323   4.970 -0.4229 -0.0689  0.7918
16552TIP3    H171147   6.404   5.311   4.891 -0.9930  0.3164  1.1072
16552TIP3    H271148   6.491   5.235   4.989  1.2111  0.1407 -0.8797
16553TIP3   OH271149   3.010   6.483  12.987  0.4155  0.1940  0.2055
16553TIP3    H171150   3.060   6.428  13.048 -1.8033  0.2653  2.2199
16553TIP3    H271151   3.030   6.573  13.014  0.7058  0.2777 -0.2752
16554TIP3   OH271152   4.513   4.296   0.892  0.3526 -0.0868 -0.3288
16554TIP3    H171153   4.421   4.312   0.873  0.6823  1.9372 -0.4843
16554TIP3    H271154   4.513   4.230   0.961 -1.2277  0.0868 -0.1312
16555TIP3   OH271155   3.566   5.579  11.385 -0.5264 -0.1513  0.1715
16555TIP3    H171156   3.545   5.518  11.455  1.9611 -1.2866  0.0523
16555TIP3    H271157   3.544   5.532  11.305  1.1226 -0.8856  0.0914
16556TIP3   OH271158   5.249   2.656   2.752 -0.2266 -0.0122 -0.0868
16556TIP3    H171159   5.249   2.591   2.682 -0.1479  0.7991 -0.8588
16556TIP3    H271160   5.157   2.668   2.775 -0.1324 -2.0344  1.6562
16557TIP3   OH271161   6.361   3.139   2.866 -0.5293  0.2514 -0.1940
16557TIP3    H171162   6.378   3.198   2.793  0.9317  0.7009  0.4744
16557TIP3    H271163   6.419   3.065   2.852 -1.2903 -0.3537 -0.2397
16558TIP3   OH271164   4.813   5.100  10.258  0.5364  0.6687  0.6012
16558TIP3    H171165   4.877   5.029  10.271 -0.1822  0.0982  1.0918
16558TIP3    H271166   4.770   5.079  10.176 -1.1608 -0.6818  1.7560
16559TIP3   OH271167   4.022   1.953   0.726 -0.2016  0.4784 -0.4300
16559TIP3    H171168   4.094   1.972   0.786 -1.1430  2.2053  0.1907
16559TIP3    H271169   4.000   2.037   0.686  0.4565 -0.6016 -3.3391
16560TIP3   OH271170   5.992   2.572   3.332 -0.0557 -0.1964  0.9113
16560TIP3    H171171   6.021   2.653   3.375 -0.8684 -0.0750  1.2398
16560TIP3    H271172   6.074   2.529   3.306  0.4133  1.4349 -0.5854
16561TIP3   OH271173   3.127   2.900  15.423 -0.3296  0.4805 -0.4734
16561TIP3    H171174   3.066   2.829  15.404  0.0921  0.0364 -0.2088
16561TIP3    H271175   3.201   2.857  15.466  0.2147  0.9940 -0.8826
16562TIP3   OH271176   0.537   4.604  14.960 -0.3076  0.0933  0.4291
16562TIP3    H171177   0.443   4.597  14.942 -0.5046  1.4716  0.7701
16562TIP3    H271178   0.547   4.570  15.049 -0.3456 -0.7703  0.1152
16563TIP3   OH271179   2.112   6.573  12.803  0.5086  0.0530 -0.3198
16563TIP3    H171180   2.131   6.480  12.818  2.4087  0.3925 -0.3158
16563TIP3    H271181   2.033   6.573  12.750  0.6503 -1.5822 -0.5902
16564TIP3   OH271182   6.784   0.778  10.696  0.2424  0.1976  0.3512
16564TIP3    H171183   6.835   0.735  10.628  0.1437  0.9297 -0.1913
16564TIP3    H271184   6.734   0.845  10.650 -0.2579  0.3229  1.0614
16565TIP3   OH271185   1.531   0.835   0.287 -0.0660 -0.3647  0.3020
16565TIP3    H171186   1.530   0.823   0.382 -2.6487 -0.2932  0.3380
16565TIP3    H271187   1.585   0.913   0.273 -1.8063  1.2500  1.9865
16566TIP3   OH271188   2.974   4.138   1.230 -0.1645  0.0053  0.1809
16566TIP3    H171189   2.916   4.209   1.204 -1.0697 -1.3598 -1.7879
16566TIP3    H271190   3.055   4.181   1.256 -0.6268  1.7415 -1.0929
16567TIP3   OH271191   5.488   5.971  12.205 -0.3941  0.3416  0.1511
16567TIP3    H171192   5.497   5.964  12.110 -0.4249  1.7566  0.0218
16567TIP3    H271193   5.573   5.944  12.240 -0.7682 -1.3662 -0.1912
16568TIP3   OH271194   5.709   1.467   4.763  0.2121 -0.6254  0.3801
16568TIP3    H171195   5.746   1.514   4.689 -1.4313  0.6813  0.3406
16568TIP3    H271196   5.697   1.377   4.732 -0.7595 -0.0241 -1.0677
16569TIP3   OH271197   5.788   4.405  14.955 -0.0167 -0.2412  0.3062
16569TIP3    H171198   5.836   4.385  14.875  2.5323  0.5492  1.5501
16569TIP3    H271199   5.722   4.469  14.928 -0.2205 -1.0905 -1.3855
16570TIP3   OH271200   0.143   6.576  12.377  0.1891  0.2216 -0.6788
16570TIP3    H171201   0.066   6.554  12.324  0.0711  0.4652 -0.6057
16570TIP3    H271202   0.136   6.518  12.453 -0.3586  0.8199 -0.2707
16571TIP3   OH271203   4.126   5.026  13.210 -0.0656  0.1745 -0.3160
16571TIP3    H171204   4.044   5.011  13.257  0.2219  0.4203  0.2674
16571TIP3    H271205   4.130   5.121  13.198  1.6866  0.5536  2.5421
16572TIP3   OH271206   4.403   5.833  10.923  0.3797 -0.3644 -0.3597
16572TIP3    H171207   4.333   5.885  10.885  1.6668  0.0211 -2.3824
16572TIP3    H271208   4.427   5.771  10.854  1.1747 -1.3486  0.7530
16573TIP3   OH271209   6.505   0.434  13.410  0.1443  0.1869 -0.3121
16573TIP3    H171210   6.455   0.515  13.417 -0.7792 -0.4087  0.1128
16573TIP3    H271211   6.535   0.416  13.499  1.4887  0.7479 -0.6247
16574TIP3   OH271212   6.384   3.563  12.115  0.0405 -0.4962  0.3131
16574TIP3    H171213   6.302   3.609  12.098 -0.7860 -0.8046  2.9716
16574TIP3    H271214   6.438   3.627  12.161  0.1025 -1.2064  1.2411
16575TIP3   OH271215   5.555   3.186  14.595 -0.1053 -0.1094 -0.2425
16575TIP3    H171216   5.592   3.141  14.519  0.5600 -2.3032  1.2935
16575TIP3    H271217   5.630   3.231  14.634 -0.3155  0.4545 -0.4705
16576TIP3   OH271218   5.597   3.550  12.721  0.1066 -0.1159  0.6231
16576TIP3    H171219   5.654   3.574  12.649  0.5781  2.8487  1.8484
16576TIP3    H271220   5.521   3.510  12.679  1.1552 -0.1492 -1.3419
16577TIP3   OH271221   5.989   4.005  10.526  0.3838 -0.2311 -0.2128
16577TIP3    H171222   5.957   4.095  10.525 -1.2297 -0.7772 -0.8219
16577TIP3    H271223   6.026   3.992  10.438 -0.9924 -0.6776 -0.7522
16578TIP3   OH271224   4.156   1.684   1.369 -0.0501 -0.3951  0.5136
16578TIP3    H171225   4.083   1.743   1.351 -0.1039 -0.6814 -0.2298
16578TIP3    H271226   4.231   1.742   1.382 -0.7056  0.0181  3.0317
16579TIP3   OH271227   0.850   1.828  15.015  0.3625 -0.5046 -0.0721
16579TIP3    H171228   0.887   1.909  15.049  0.2451 -0.3684 -0.2621
16579TIP3    H271229   0.897   1.813  14.933 -1.5339  0.8961 -1.5064
16580TIP3   OH271230   0.305   0.760   5.714  0.4315 -0.3335  0.4089
16580TIP3    H171231   0.269   0.742   5.800  3.6458 -2.2724  1.4871
16580TIP3    H271232   0.373   0.825   5.729 -0.8492  1.5166 -1.2119
16581TIP3   OH271233   2.865   3.525  15.146 -0.0414  0.3944  0.0036
16581TIP3    H171234   2.946   3.501  15.101  1.2588  0.6766  2.0568
16581TIP3    H271235   2.827   3.594  15.092  2.0598  1.5540 -0.0929
16582TIP3   OH271236   2.881   2.398   2.954  0.0225  0.6138  0.6106
16582TIP3    H171237   2.804   2.342   2.947  0.3514  0.3340 -1.4303
16582TIP3    H271238   2.955   2.338   2.962  0.1258  0.8560  1.5819
16583TIP3   OH271239   1.783   6.022  13.345 -0.4728  0.3314  0.3296
16583TIP3    H171240   1.767   6.101  13.398 -1.7667  0.5728 -0.3664
16583TIP3    H271241   1.741   6.041  13.261  0.1198 -0.6935 -0.2108
16584TIP3   OH271242   5.680   5.043  14.610  0.1263 -0.2949  0.6489
16584TIP3    H171243   5.772   5.043  14.584  0.2371 -1.4235  1.0285
16584TIP3    H271244   5.640   5.111  14.555  1.3851  0.9929  1.2523
16585TIP3   OH271245   5.774   0.074  12.092 -0.3913 -0.1285  0.1208
16585TIP3    H171246   5.866   0.060  12.117 -1.0840 -3.0968  1.4270
16585TIP3    H271247   5.727   0.073  12.175 -1.7840 -0.3708 -0.6529
16586TIP3   OH271248   5.369   4.708  16.785  0.1729  0.1373  0.3357
16586TIP3    H171249   5.436   4.657  16.741 -0.0670  0.0873  0.0284
16586TIP3    H271250   5.418   4.774  16.835  0.4205  1.3777 -1.4277
16587TIP3   OH271251   3.236   2.297  11.451  0.1115  0.1651  0.3725
16587TIP3    H171252   3.141   2.298  11.454  0.1216 -0.3868  1.4834
16587TIP3    H271253   3.258   2.236  11.381 -0.3666 -0.3508  0.6637
16588TIP3   OH271254   0.687   5.887  12.461 -0.0025  0.1657  0.3944
16588TIP3    H171255   0.608   5.921  12.503 -0.2593  1.1252 -0.8034
16588TIP3    H271256   0.656   5.814  12.408 -0.3416  1.3606 -1.1097
16589TIP3   OH271257   6.590   3.407   3.029  0.1714 -0.2680 -1.0407
16589TIP3    H171258   6.504   3.404   2.987 -0.7104  1.0023  0.5582
16589TIP3    H271259   6.647   3.449   2.964 -1.0168  1.1297 -1.2492
16590TIP3   OH271260   2.551   1.485  13.620  0.0286  0.1856 -0.0594
16590TIP3    H171261   2.502   1.516  13.696  0.5770 -0.3585  0.5133
16590TIP3    H271262   2.495   1.509  13.545 -0.2438  1.2320  0.4619
16591TIP3   OH271263   3.078   1.212  14.904 -0.0538  0.2874  0.2555
16591TIP3    H171264   3.017   1.143  14.879  1.2842 -1.4829  1.5701
16591TIP3    H271265   3.028   1.293  14.897 -2.1450 -0.9550  0.0748
16592TIP3   OH271266   3.260   2.537  11.549 -0.1526  0.5092  0.1599
16592TIP3    H171267   3.305   2.577  11.475  1.7330  0.6785  1.3461
16592TIP3    H271268   3.248   2.445  11.522 -4.7797  1.5683 -2.7037
16593TIP3   OH271269   4.746   3.953   1.243 -0.1024  0.3670  0.6787
16593TIP3    H171270   4.741   4.011   1.319 -0.8956 -0.2831  1.1491
16593TIP3    H271271   4.826   3.902   1.257  0.4399  1.1403  0.4114
16594TIP3   OH271272   6.039   2.414   2.924  0.1116 -0.3533  0.5780
16594TIP3    H171273   6.020   2.346   2.859  0.8672  0.4198 -0.4790
16594TIP3    H271274   5.954   2.451   2.946 -0.0528  0.1969 -0.9005
16595TIP3   OH271275   1.318   0.040  16.062 -0.0285 -0.0108  0.1778
16595TIP3    H171276   1.318   0.055  15.968 -0.6262  1.5406  0.3899
16595TIP3    H271277   1.410   0.023  16.084 -0.1884 -2.7674 -0.9738
16596TIP3   OH271278   1.608   0.377   3.009  0.0012  0.0493 -1.0578
16596TIP3    H171279   1.522   0.338   3.024 -0.5842  1.3999 -0.7742
16596TIP3    H271280   1.591   0.449   2.949  0.9093  0.4279 -0.8708
16597TIP3   OH271281   1.307   4.959  14.983 -0.0377 -0.1236  0.3130
16597TIP3    H171282   1.252   5.007  15.044 -0.8630 -1.2417  0.4784
16597TIP3    H271283   1.389   4.946  15.031 -0.2876 -0.0415  0.7699
16598TIP3   OH271284   2.384   2.432   5.190 -0.2174  0.3435 -0.1821
16598TIP3    H171285   2.360   2.401   5.103 -1.6807 -0.3590  0.4213
16598TIP3    H271286   2.468   2.390   5.209  0.0490  0.4071 -1.1880
16599TIP3   OH271287   6.765   4.491  13.349  0.1484 -0.4037 -0.1839
16599TIP3    H171288   6.831   4.445  13.400 -0.0907 -1.6300 -0.9530
16599TIP3    H271289   6.782   4.584  13.367  1.9666 -0.6934 -0.2358
16600TIP3   OH271290   6.778   2.299   1.106 -0.2078  0.3964  0.1110
16600TIP3    H171291   6.744   2.375   1.058 -0.4754 -0.5865 -1.3219
16600TIP3    H271292   6.701   2.244   1.120 -0.1242  0.6216  1.6627
16601TIP3   OH271293   6.177   4.220  15.011  0.4218  0.5936  0.4541
16601TIP3    H171294   6.107   4.223  14.946  1.1217  0.0491 -0.3365
16601TIP3    H271295   6.189   4.127  15.029 -1.6658  0.7655  3.4878
16602TIP3   OH271296   0.382   3.026   3.248 -0.0395  0.1049 -0.2817
16602TIP3    H171297   0.298   2.981   3.257  0.4452 -0.9299 -0.7026
16602TIP3    H271298   0.412   3.004   3.160  0.7855  0.2376 -0.0484
16603TIP3   OH271299   4.946   4.420  14.616 -0.2000  1.1110 -0.4949
16603TIP3    H171300   4.933   4.499  14.564  2.0907  2.7444  1.1987
16603TIP3    H271301   4.880   4.427  14.686 -0.6771  0.9937 -0.9333
16604TIP3   OH271302   4.423   0.422  14.232 -0.1292  0.0635 -0.0820
16604TIP3    H171303   4.331   0.420  14.206 -0.9685  0.5468  2.5714
16604TIP3    H271304   4.427   0.363  14.308  1.3144  1.5213  1.0323
16605TIP3   OH271305   1.027   5.092  14.172  0.0608 -0.4646 -0.2609
16605TIP3    H171306   1.063   5.058  14.254  0.5789 -1.0231 -0.7142
16605TIP3    H271307   0.935   5.066  14.174  0.1986 -0.9467 -0.1018
16606TIP3   OH271308   2.249   2.478  16.647 -0.3129 -0.7780  0.4467
16606TIP3    H171309   2.232   2.521  16.563 -0.8062 -0.4139  0.7263
16606TIP3    H271310   2.253   2.549  16.711 -1.3375 -1.1417  0.9468
16607TIP3   OH271311   3.498   0.203  14.769  0.0234  0.2819  0.4977
16607TIP3    H171312   3.437   0.174  14.701 -0.5749 -0.2650  1.2366
16607TIP3    H271313   3.459   0.170  14.850  1.6013 -0.5677  0.9452
16608TIP3   OH271314   1.352   4.284  16.823 -0.7073 -0.0500 -0.3969
16608TIP3    H171315   1.341   4.288  16.728 -2.9230 -0.5528 -0.2217
16608TIP3    H271316   1.333   4.373  16.853 -1.9642 -0.3319 -0.3011
16609TIP3   OH271317   6.656   5.129  12.195  0.4558 -0.6942 -0.0057
16609TIP3    H171318   6.572   5.087  12.212 -0.7781  1.6913  0.2402
16609TIP3    H271319   6.704   5.121  12.277  0.4284 -1.8990 -0.0849
16610TIP3   OH271320   6.719   4.009   5.362  0.3381 -0.5398  0.6029
16610TIP3    H171321   6.743   3.917   5.348 -0.4578 -0.8120  0.9738
16610TIP3    H271322   6.650   4.026   5.298  0.2819 -0.2806  0.7297
16611TIP3   OH271323   6.426   5.357   5.656  0.1047  0.0273 -0.0227
16611TIP3    H171324   6.453   5.363   5.564  0.2652 -0.9227 -0.0561
16611TIP3    H271325   6.403   5.264   5.667 -2.6287  0.6415  0.1419
16612TIP3   OH271326   3.027   5.827  13.851 -0.6634 -0.0075 -0.1507
16612TIP3    H171327   2.958   5.797  13.791 -0.1994 -0.8793 -0.2635
16612TIP3    H271328   3.003   5.790  13.936 -0.4398 -0.1479 -0.1491
16613TIP3   OH271329   3.628   3.262  16.529  0.0778  0.1548  0.1218
16613TIP3    H171330   3.720   3.251  16.504 -0.0744 -1.8134  0.3367
16613TIP3    H271331   3.632   3.308  16.613  0.8210  0.7949 -0.2464
16614TIP3   OH271332   6.409   3.883   1.406  0.4917 -0.0127 -0.2233
16614TIP3    H171333   6.452   3.939   1.342 -0.8401  1.6618  0.2804
16614TIP3    H271334   6.344   3.939   1.447 -1.1896 -2.0378  0.0499
16615TIP3   OH271335   3.866   2.195  15.278 -0.2561 -0.4062  0.2644
16615TIP3    H171336   3.836   2.284  15.262 -0.7706 -0.4171  1.1085
16615TIP3    H271337   3.906   2.198  15.365  2.3353 -0.3818 -0.8440
16616TIP3   OH271338   2.047   2.586  14.750  0.3892  0.0835 -0.4645
16616TIP3    H171339   2.094   2.522  14.697  1.6124  1.4957 -1.1395
16616TIP3    H271340   2.036   2.543  14.835 -0.5721 -1.7518 -1.4540
16617TIP3   OH271341   0.688   5.222  15.757  0.2811 -0.1320  0.3717
16617TIP3    H171342   0.635   5.274  15.816  0.0900  0.2062 -0.0919
16617TIP3    H271343   0.767   5.274  15.742  0.2429 -0.1265  0.1787
16618TIP3   OH271344   4.162   6.119  16.788  0.1318 -0.0835  0.4967
16618TIP3    H171345   4.201   6.054  16.847 -0.8896 -2.1970 -1.0218
16618TIP3    H271346   4.216   6.114  16.709  0.2079  1.1569  0.4596
16619TIP3   OH271347   3.680   0.009  14.836 -0.1741 -0.4003 -0.0642
16619TIP3    H171348   3.773   0.033  14.827  0.2834 -2.3499 -1.3183
16619TIP3    H271349   3.635   0.060  14.769  0.2134 -0.4147 -0.3376
16620TIP3   OH271350   0.765   0.512  11.827 -0.6011 -0.5682 -0.1932
16620TIP3    H171351   0.719   0.446  11.775 -0.2199 -2.1964  1.4544
16620TIP3    H271352   0.850   0.522  11.784 -0.3365 -1.8022 -0.0042
16621TIP3   OH271353   6.288   2.998   0.008  0.2186  0.1459 -1.0996
16621TIP3    H171354   6.301   3.088   0.038  3.4295 -0.4724 -0.2521
16621TIP3    H271355   6.212   3.003  -0.050 -1.4770  2.8274  1.1166
16622TIP3   OH271356   5.186   1.340  16.567 -0.3653  0.6768  0.4357
16622TIP3    H171357   5.179   1.435  16.567 -2.6600  0.5843 -0.6101
16622TIP3    H271358   5.098   1.310  16.543 -0.0370 -1.7446  1.9618
16623TIP3   OH271359   6.055   1.964  11.685  0.2769 -0.4239 -0.4629
16623TIP3    H171360   6.104   2.041  11.655 -1.3395  0.6358 -0.4712
16623TIP3    H271361   6.055   1.971  11.781 -1.2143  0.4874 -0.5049
16624TIP3   OH271362   3.821   4.286   0.322  0.4365 -0.2223 -0.5366
16624TIP3    H171363   3.806   4.213   0.382 -0.3438  0.0344 -0.4091
16624TIP3    H271364   3.916   4.297   0.321  0.4566 -0.1785  0.7149
16625TIP3   OH271365   6.425   0.395   4.281 -0.3704  0.5761 -0.3334
16625TIP3    H171366   6.467   0.447   4.349  1.8403 -0.2398 -0.9736
16625TIP3    H271367   6.380   0.325   4.328 -1.3518  1.6636  0.3984
16626TIP3   OH271368   3.961   5.559   2.161 -0.4175  0.6542  0.7817
16626TIP3    H171369   3.871   5.592   2.155 -0.1144  1.3019 -0.8931
16626TIP3    H271370   3.952   5.465   2.176 -1.4168  0.4569 -0.8758
16627TIP3   OH271371   3.512   0.846   3.843  0.0561 -0.2387 -0.5063
16627TIP3    H171372   3.547   0.770   3.796  2.2568  0.0579  0.5199
16627TIP3    H271373   3.550   0.922   3.799 -1.8624  0.3167 -1.3180
16628TIP3   OH271374   1.088   2.701  12.624 -0.0666  0.0889 -0.0397
16628TIP3    H171375   1.049   2.765  12.684  1.1149 -1.5448  2.6885
16628TIP3    H271376   1.128   2.753  12.555  0.0625  2.2475  1.5807
16629TIP3   OH271377   2.783   6.028  15.057  0.3786 -0.2926  0.1353
16629TIP3    H171378   2.839   6.082  15.002  2.1370 -1.4471  0.7074
16629TIP3    H271379   2.733   5.975  14.996  0.6673  0.0252 -0.3847
16630TIP3   OH271380   6.240   4.577  16.186 -0.2561  0.3957  0.3343
16630TIP3    H171381   6.283   4.642  16.241 -0.7859  0.3593  0.8004
16630TIP3    H271382   6.187   4.627  16.125  2.8226  0.6243 -2.3981
16631TIP3   OH271383   3.999   6.435   3.701 -0.0535 -0.8143 -0.1186
16631TIP3    H171384   4.087   6.470   3.684 -0.4822 -0.2608 -1.3049
16631TIP3    H271385   3.969   6.481   3.779  1.2286 -2.0242  1.1665
16632TIP3   OH271386   1.668   3.142  11.112 -0.0775 -0.4146 -0.6721
16632TIP3    H171387   1.732   3.166  11.179 -0.1018  1.4167 -1.2350
16632TIP3    H271388   1.583   3.161  11.152 -0.0636  1.8176 -1.5290
16633TIP3   OH271389   1.698   2.017  16.736 -0.2783  0.2958 -0.3829
16633TIP3    H171390   1.701   1.971  16.821  3.3757 -0.5424 -0.8049
16633TIP3    H271391   1.652   1.956  16.678 -1.0391 -0.0022  0.5059
16634TIP3   OH271392   5.411   6.593  17.073 -0.5689 -0.4003 -0.3164
16634TIP3    H171393   5.454   6.559  17.152 -0.2445 -0.6669 -0.6075
16634TIP3    H271394   5.481   6.602  17.009 -0.3445  2.1855  0.1620
16635TIP3   OH271395   1.080   4.612  13.732  0.3938  0.1174  0.1212
16635TIP3    H171396   1.111   4.552  13.800 -1.2736 -0.0127  0.7959
16635TIP3    H271397   1.054   4.555  13.660 -0.6677  0.0430  0.5493
16636TIP3   OH271398   0.070   4.806   4.901 -0.0834 -0.0643  0.0339
16636TIP3    H171399  -0.005   4.863   4.918 -2.4233 -2.8517 -0.1959
16636TIP3    H271400   0.060   4.734   4.964  0.8619 -1.8495 -1.7313
16637TIP3   OH271401   6.344   2.215  15.895  0.4519 -0.0617  0.2927
16637TIP3    H171402   6.355   2.215  15.990  1.4024 -1.2827  0.2024
16637TIP3    H271403   6.350   2.123  15.870 -2.9942 -0.1530 -0.6269
16638TIP3   OH271404   0.551   1.245   2.857  0.0275  0.2313 -0.4341
16638TIP3    H171405   0.574   1.325   2.811 -0.0178  0.0514 -0.7770
16638TIP3    H271406   0.632   1.216   2.897  0.4382 -0.4271 -1.6797
16639TIP3   OH271407   1.779   0.144   0.953  0.8736 -0.1543 -0.1384
16639TIP3    H171408   1.805   0.084   1.023  1.6587 -2.0255 -1.9587
16639TIP3    H271409   1.703   0.104   0.913  0.1249  1.1531 -0.0838
16640TIP3   OH271410   3.901   2.848  13.904  0.0380  0.1007 -0.2258
16640TIP3    H171411   3.920   2.772  13.958  0.8749 -0.6684 -1.5404
16640TIP3    H271412   3.810   2.835  13.875  0.2216 -0.4809 -0.5512
16641TIP3   OH271413   4.761   0.579  14.585 -0.3478  0.2406  0.3463
16641TIP3    H171414   4.749   0.577  14.490 -0.8443 -0.9980  0.4123
16641TIP3    H271415   4.714   0.658  14.613  0.1234  0.8205 -0.4707
16642TIP3   OH271416   6.508   2.878  10.479  0.1892 -0.4105  0.2219
16642TIP3    H171417   6.572   2.810  10.457  1.2217  0.3754  0.6893
16642TIP3    H271418   6.445   2.834  10.537  0.3322 -1.1903 -0.2045
16643TIP3   OH271419   2.482   1.467   2.156 -0.0728 -0.3079 -0.3020
16643TIP3    H171420   2.459   1.469   2.249 -2.9284 -0.2506 -0.9102
16643TIP3    H271421   2.536   1.389   2.146  0.1098 -0.4293  1.3435
16644TIP3   OH271422   5.103   4.517  11.120 -0.3259 -0.5955 -0.3019
16644TIP3    H171423   5.149   4.440  11.088  2.7846  1.4603 -1.2531
16644TIP3    H271424   5.050   4.546  11.046 -0.8516 -1.3063 -0.2135
16645TIP3   OH271425   5.331   4.108   2.380  0.3249  0.5994  0.0802
16645TIP3    H171426   5.273   4.033   2.390  0.6564  0.1125 -1.3639
16645TIP3    H271427   5.396   4.079   2.316  0.7223  1.9690 -0.1587
16646TIP3   OH271428   3.311   4.076   4.428  0.2121 -0.5851 -0.5791
16646TIP3    H171429   3.351   4.157   4.397 -1.5026  1.6841  2.5067
16646TIP3    H271430   3.370   4.007   4.400  3.7447  2.0584 -0.2740
16647TIP3   OH271431   4.258   4.366   5.013 -0.0385  0.2547  0.3193
16647TIP3    H171432   4.347   4.358   5.048  0.0124 -0.8726 -0.0220
16647TIP3    H271433   4.217   4.281   5.033 -0.3088 -0.0863 -1.4902
16648TIP3   OH271434   1.971   6.110   2.501  0.2776 -0.0769  1.1324
16648TIP3    H171435   2.066   6.114   2.510  0.1602  1.4558  2.0375
16648TIP3    H271436   1.955   6.125   2.408  0.9421 -1.5302  0.7515
16649TIP3   OH271437   6.532   4.742  11.697  0.4900  0.0330  0.0289
16649TIP3    H171438   6.564   4.813  11.753  0.2483 -0.4966  0.8529
16649TIP3    H271439   6.589   4.668  11.717  0.8423  0.0329 -0.9433
16650TIP3   OH271440   3.176   2.541  15.618  0.3885  0.1922 -0.0172
16650TIP3    H171441   3.103   2.599  15.639  1.4175  1.2853  0.6501
16650TIP3    H271442   3.152   2.457  15.657 -0.1926  0.7458  0.8489
16651TIP3   OH271443   4.881   5.078  17.049 -0.3017 -0.1818 -0.1777
16651TIP3    H171444   4.913   5.090  17.139 -1.6098  0.1212  0.2736
16651TIP3    H271445   4.807   5.017  17.058 -0.5885  0.0353 -1.0081
16652TIP3   OH271446   5.044   2.769  12.830  0.1851 -0.3422  0.4298
16652TIP3    H171447   5.066   2.683  12.793  0.4896  0.5430 -1.5976
16652TIP3    H271448   4.951   2.780  12.812  0.5521  0.5463 -1.2371
16653TIP3   OH271449   3.977   3.988   0.292 -1.0258  0.5661  0.1394
16653TIP3    H171450   4.063   3.961   0.261 -0.6642  0.9162  0.8057
16653TIP3    H271451   3.956   3.926   0.362 -2.1659 -0.6802 -1.2477
16654TIP3   OH271452   2.348   0.979  16.446 -0.8017 -0.0979 -0.6265
16654TIP3    H171453   2.260   0.946  16.461 -0.6469  0.0964  0.8462
16654TIP3    H271454   2.377   1.010  16.532  0.6507 -0.0378 -1.1144
16655TIP3   OH271455   2.190   0.014   2.608  0.0491 -0.0007  0.0363
16655TIP3    H171456   2.171   0.078   2.678  2.6513  0.2341  0.6089
16655TIP3    H271457   2.141  -0.064   2.634 -2.4802  1.3784 -0.1951
16656TIP3   OH271458   1.441   4.022   3.889 -0.4450  0.3233  0.2045
16656TIP3    H171459   1.427   4.071   3.808 -0.7283 -1.2634 -0.7506
16656TIP3    H271460   1.365   4.044   3.943 -2.2405 -1.4107 -1.4584
16657TIP3   OH271461   2.147   1.680   4.781 -0.3971 -0.7420  0.1321
16657TIP3    H171462   2.191   1.623   4.718 -1.1814 -0.2931 -0.8537
16657TIP3    H271463   2.072   1.628   4.810 -0.7202 -0.4922 -0.2410
16658TIP3   OH271464   3.322   4.527  14.161 -0.0747 -0.0419  0.2906
16658TIP3    H171465   3.268   4.480  14.225 -1.2698  1.0267  0.1096
16658TIP3    H271466   3.262   4.591  14.122  0.5899 -0.6760 -1.9294
16659TIP3   OH271467   5.106   2.512   5.050 -0.5222 -0.0562  0.0420
16659TIP3    H171468   5.037   2.563   5.093  0.1152  0.2272  0.7544
16659TIP3    H271469   5.182   2.570   5.051  0.3740 -1.1988  1.3529
16660TIP3   OH271470   0.944   2.229  15.869  0.6837  0.0152 -0.0052
16660TIP3    H171471   0.938   2.195  15.780  2.4977  0.6191 -0.3876
16660TIP3    H271472   0.944   2.151  15.924  3.1870 -0.6096 -0.7741
16661TIP3   OH271473   4.414   2.355   2.951 -1.0300  0.5115 -0.2563
16661TIP3    H171474   4.368   2.437   2.934  0.6689  1.7299  0.7240
16661TIP3    H271475   4.402   2.340   3.044  0.6411  0.9785  0.0773
16662TIP3   OH271476   6.470   2.337   4.001 -0.3836 -0.1481  0.4681
16662TIP3    H171477   6.451   2.429   4.020  0.8547  0.1847  0.1990
16662TIP3    H271478   6.458   2.292   4.085  3.5579  1.0539  1.9155
16663TIP3   OH271479   4.780   1.520   3.231  0.0718  0.2834  0.1150
16663TIP3    H171480   4.686   1.507   3.227  0.0063 -0.0054  1.9925
16663TIP3    H271481   4.792   1.594   3.290  1.0062  0.8684 -0.7608
16664TIP3   OH271482   6.649   5.423  12.314  0.0203 -0.2687 -0.5227
16664TIP3    H171483   6.584   5.356  12.289 -0.4113 -0.0184 -0.0964
16664TIP3    H271484   6.701   5.380  12.381  0.7656 -0.7174 -1.3615
16665TIP3   OH271485   6.191   5.218  13.750 -0.3638 -0.1770 -0.2676
16665TIP3    H171486   6.106   5.214  13.795  0.1755  0.9360  0.9203
16665TIP3    H271487   6.216   5.310  13.756  0.9807 -0.5108 -0.5378
16666TIP3   OH271488   5.161   5.533  13.769 -0.4143 -0.3934 -0.2527
16666TIP3    H171489   5.099   5.481  13.820  0.9505 -0.7329  1.1329
16666TIP3    H271490   5.141   5.512  13.678 -1.7081 -1.2011  0.1936
16667TIP3   OH271491   1.435   4.774  13.028 -0.1822  0.0566 -0.3981
16667TIP3    H171492   1.417   4.838  12.960 -0.1860  0.5153  0.0320
16667TIP3    H271493   1.529   4.783  13.046 -0.2080  0.0363 -0.2468
16668TIP3   OH271494   6.658   1.441  13.064  0.1287  0.0021  0.0419
16668TIP3    H171495   6.572   1.481  13.052 -0.3665 -0.5526  1.5174
16668TIP3    H271496   6.709   1.508  13.110  0.7358  0.5982 -1.4491
16669TIP3   OH271497   2.763   1.192  13.868 -0.4205 -0.1119  0.9153
16669TIP3    H171498   2.752   1.283  13.896  2.0625  0.5601 -0.0572
16669TIP3    H271499   2.793   1.146  13.947 -1.2295 -0.0080  1.2940
16670TIP3   OH271500   0.489   4.565  13.377 -0.0195 -0.0505 -0.2135
16670TIP3    H171501   0.525   4.608  13.300 -0.6441  0.3412 -0.2848
16670TIP3    H271502   0.407   4.611  13.395 -0.1048 -0.4362  0.4111
16671TIP3   OH271503   0.672   6.682   2.672  0.3233  0.0010 -0.3592
16671TIP3    H171504   0.590   6.644   2.640  0.8354 -0.3351 -1.3273
16671TIP3    H271505   0.714   6.717   2.593  0.8845  0.6083  0.1987
16672TIP3   OH271506   4.685   1.195   0.647 -0.1634 -0.0475 -0.0318
16672TIP3    H171507   4.745   1.199   0.723  0.8728  0.1877 -0.8332
16672TIP3    H271508   4.649   1.106   0.649  2.2727 -1.1570 -1.0123
16673TIP3   OH271509   2.519   2.907   3.196 -0.2804 -0.3602  0.2496
16673TIP3    H171510   2.584   2.902   3.266  0.5264  2.3451 -0.1942
16673TIP3    H271511   2.440   2.867   3.234  0.1709  0.8890  2.7111
16674TIP3   OH271512   2.289   3.047  15.077  0.3739 -0.2213  0.0207
16674TIP3    H171513   2.355   3.104  15.116  0.6959 -1.6168  1.6123
16674TIP3    H271514   2.211   3.058  15.132  0.0445 -0.3901 -0.3991
16675TIP3   OH271515   4.096   6.363  13.242 -0.3879  0.2721  0.4172
16675TIP3    H171516   4.060   6.303  13.307 -0.5293  0.4933  0.5431
16675TIP3    H271517   4.026   6.426  13.225 -0.4212  0.1056 -0.0902
16676TIP3   OH271518   6.823   3.231   4.468 -0.0307 -0.6037 -0.4134
16676TIP3    H171519   6.798   3.174   4.540  1.0442  0.0395  0.5049
16676TIP3    H271520   6.831   3.172   4.393  3.4818 -2.2326  1.0200
16677TIP3   OH271521   0.493   2.419   5.708 -0.3431  0.7262  0.6490
16677TIP3    H171522   0.551   2.444   5.635  0.4287 -0.7594  0.7275
16677TIP3    H271523   0.414   2.471   5.694 -0.0242  0.8257 -0.9808
16678TIP3   OH271524   0.551   4.203   0.512  0.5007  0.1426  0.5653
16678TIP3    H171525   0.522   4.257   0.585 -1.6425  1.0017 -0.8036
16678TIP3    H271526   0.556   4.264   0.438 -0.3651 -1.2275 -0.6709
16679TIP3   OH271527   5.493   2.153  13.404 -0.4824 -0.0614 -0.5739
16679TIP3    H171528   5.568   2.201  13.370  0.3165  0.2524  1.4950
16679TIP3    H271529   5.526   2.064  13.419 -1.0997 -0.4630 -1.4905
16680TIP3   OH271530   1.031   3.846  16.854 -0.0253  0.0020  0.6969
16680TIP3    H171531   1.090   3.918  16.834  0.0267  0.0027  0.8501
16680TIP3    H271532   0.951   3.889  16.885  0.0174 -0.0061  0.8201
16681TIP3   OH271533   1.748   2.825   2.020  0.5777 -0.2808  0.7834
16681TIP3    H171534   1.723   2.900   2.074 -0.5981 -1.1263  1.4565
16681TIP3    H271535   1.676   2.818   1.956  1.8266  0.5668 -0.8060
16682TIP3   OH271536   2.115   2.768   3.744  0.5061 -0.6070 -0.0418
16682TIP3    H171537   2.091   2.706   3.676 -2.7642  0.4723 -0.0427
16682TIP3    H271538   2.082   2.730   3.825 -0.1089  0.3524  0.1809
16683TIP3   OH271539   6.331   1.110  16.657 -0.4935 -0.2903 -0.6758
16683TIP3    H171540   6.309   1.031  16.607 -0.8649 -0.5788 -0.0665
16683TIP3    H271541   6.419   1.092  16.691 -1.2661 -1.2628  0.9909
16684TIP3   OH271542   5.701   6.769   0.468 -0.6927  0.3267  0.4561
16684TIP3    H171543   5.715   6.855   0.507 -0.0976 -0.9670  3.3348
16684TIP3    H271544   5.615   6.742   0.498 -1.0047 -0.0118 -0.6704
16685TIP3   OH271545   5.869   1.057   2.276 -0.1162 -0.4586  0.0265
16685TIP3    H171546   5.809   0.995   2.318 -0.5646 -0.6317 -0.8388
16685TIP3    H271547   5.830   1.073   2.190  1.3322 -0.9604 -0.7582
16686TIP3   OH271548   5.493   4.496   2.843 -0.3791 -0.4853 -0.4609
16686TIP3    H171549   5.430   4.493   2.770 -0.1244 -0.0557 -0.7038
16686TIP3    H271550   5.537   4.411   2.840 -0.5474 -0.5677 -0.6521
16687TIP3   OH271551   6.102   5.594  16.278 -0.5717 -0.2589  0.1650
16687TIP3    H171552   6.130   5.510  16.243  0.6273 -0.1931  0.9137
16687TIP3    H271553   6.038   5.571  16.345  0.0707 -0.6086  0.6681
16688TIP3   OH271554   2.215   2.163  12.026 -0.7608 -0.3151  0.1552
16688TIP3    H171555   2.303   2.199  12.015 -0.2461 -1.6069 -0.1456
16688TIP3    H271556   2.229   2.077  12.065 -1.9255 -0.3956  0.4461
16689TIP3   OH271557   4.318   5.712  12.710 -0.2900 -0.3122  0.7777
16689TIP3    H171558   4.362   5.667  12.782  1.3027  1.2467  0.8465
16689TIP3    H271559   4.362   5.797  12.704 -0.6386 -0.2122 -1.7498
16690TIP3   OH271560   3.890   5.805   5.365 -0.1180 -0.2927 -0.1910
16690TIP3    H171561   3.861   5.716   5.385  0.5226 -0.3153  0.6970
16690TIP3    H271562   3.970   5.793   5.314  0.5101 -0.2368  0.7626
16691TIP3   OH271563   0.752   2.510  13.318  0.0254  0.5535  0.3803
16691TIP3    H171564   0.771   2.597  13.282  0.8215 -0.1049 -0.8707
16691TIP3    H271565   0.810   2.451  13.270 -1.7712 -0.9181 -0.0946
16692TIP3   OH271566   5.909   3.330   4.236  0.1465 -0.3422 -0.4005
16692TIP3    H171567   5.826   3.295   4.204 -0.9888  0.4897  1.4446
16692TIP3    H271568   5.888   3.420   4.261  1.0942 -0.7076  1.8767
16693TIP3   OH271569   4.657   2.593  17.025 -0.0040 -0.0967  0.3701
16693TIP3    H171570   4.733   2.647  17.006  1.7186 -1.2027  3.3294
16693TIP3    H271571   4.687   2.503  17.010 -1.2699 -0.4810  0.0364
16694TIP3   OH271572   3.608   4.252  12.151  0.6879 -0.0772 -0.3127
16694TIP3    H171573   3.570   4.180  12.100  0.4977 -0.4840  0.3728
16694TIP3    H271574   3.539   4.319  12.152  1.7207  1.1402 -2.9089
16695TIP3   OH271575   6.527   1.243  13.253  0.1499  0.0097  0.0055
16695TIP3    H171576   6.566   1.309  13.195 -0.8812  1.5606  0.9969
16695TIP3    H271577   6.579   1.249  13.333  0.0655 -0.4320  0.0953
16696TIP3   OH271578   1.497   0.716   0.561  0.2560  0.1385 -0.5814
16696TIP3    H171579   1.458   0.717   0.649 -0.7822  1.6043 -1.0194
16696TIP3    H271580   1.513   0.808   0.542  1.2875 -0.2355 -1.5955
16697TIP3   OH271581   2.778   5.770   6.976 -0.2545 -0.4283 -0.1746
16697TIP3    H171582   2.791   5.855   7.018  2.3150  0.9558 -3.4018
16697TIP3    H271583   2.685   5.770   6.951 -0.5924  0.8681  0.9641
16698TIP3   OH271584   6.645   2.044   2.789 -0.1782  0.7825 -0.3514
16698TIP3    H171585   6.660   2.116   2.850 -1.1118  0.0811  0.7686
16698TIP3    H271586   6.723   1.989   2.797  0.1719  1.2412 -0.5952
16699TIP3   OH271587   0.759   0.973   1.008 -0.3076 -0.0354  0.0129
16699TIP3    H171588   0.795   1.011   1.088  0.8285  0.4794 -0.6959
16699TIP3    H271589   0.691   1.034   0.981  0.0475  0.3744  0.0249
16700TIP3   OH271590   1.239   0.681   4.061  0.1306  0.1536 -0.6223
16700TIP3    H171591   1.174   0.664   3.993  0.2358 -2.1075 -0.2226
16700TIP3    H271592   1.313   0.721   4.014 -0.9844  1.5278 -1.2870
16701TIP3   OH271593   2.513   3.920  13.383  0.6308  0.0642  0.1497
16701TIP3    H171594   2.524   4.015  13.381 -0.5999  0.2006 -0.7401
16701TIP3    H271595   2.599   3.886  13.356  1.4551  0.8605  1.6284
16702TIP3   OH271596   6.407   5.276   0.267  0.2369  0.6984 -0.3064
16702TIP3    H171597   6.472   5.345   0.257  1.5218 -0.4604 -0.2714
16702TIP3    H271598   6.448   5.199   0.228 -0.8694 -0.2283  0.2967
16703TIP3   OH271599   0.119   3.351  14.400 -0.0439 -0.7896  0.2258
16703TIP3    H171600   0.120   3.361  14.495 -0.5825  0.0065  0.1578
16703TIP3    H271601   0.038   3.303  14.382 -1.6288  1.8106 -0.0413
16704TIP3   OH271602   3.673   4.809   5.565  0.4144  0.7340 -0.1055
16704TIP3    H171603   3.619   4.881   5.533 -0.8671  0.6087  1.6693
16704TIP3    H271604   3.759   4.848   5.581 -0.1839  1.8085  0.5611
16705TIP3   OH271605   3.353   3.076  10.797 -0.2484 -0.7901  0.4465
16705TIP3    H171606   3.401   3.000  10.831  0.1800 -1.2172 -1.0502
16705TIP3    H271607   3.412   3.114  10.731 -1.6719 -0.9412 -0.9718
16706TIP3   OH271608   5.473   1.723  11.992 -0.3534 -0.5791 -0.0778
16706TIP3    H171609   5.508   1.811  12.000  1.5983 -1.3029 -0.2208
16706TIP3    H271610   5.424   1.709  12.073 -2.3213  1.2688 -0.8495
16707TIP3   OH271611   1.562   0.266  12.331  0.0218 -0.4911 -0.2289
16707TIP3    H171612   1.492   0.202  12.320 -1.9287  1.0833  2.0345
16707TIP3    H271613   1.631   0.218  12.376 -1.5857 -0.9698  1.8662
16708TIP3   OH271614   6.137   4.595  12.382 -0.0008  0.1706  0.1496
16708TIP3    H171615   6.095   4.517  12.345 -1.5613  0.9661  0.1284
16708TIP3    H271616   6.184   4.634  12.309 -0.9279  0.3328 -0.3850
16709TIP3   OH271617   2.116   3.587  11.669 -0.6975  0.0556  0.5775
16709TIP3    H171618   2.160   3.583  11.584 -1.6087  1.1300  0.0312
16709TIP3    H271619   2.172   3.643  11.722  0.2329 -1.1672  0.9367
16710TIP3   OH271620   3.285   0.296  14.539  0.6174  0.1495 -0.2151
16710TIP3    H171621   3.264   0.311  14.446  2.4978 -0.4096 -0.7803
16710TIP3    H271622   3.347   0.365  14.560 -0.8290  1.1157  1.0821
16711TIP3   OH271623   3.121   5.859  14.540  0.4366  0.0092  0.3664
16711TIP3    H171624   3.054   5.870  14.608  1.4692 -0.4942  1.5069
16711TIP3    H271625   3.188   5.924  14.562 -0.1863  1.3429 -1.4709
16712TIP3   OH271626   1.647   6.396   6.191  0.5458  0.5387 -0.5220
16712TIP3    H171627   1.605   6.314   6.217  1.3955  1.0266  2.7940
16712TIP3    H271628   1.575   6.459   6.186  0.2019  0.1511 -0.5449
16713TIP3   OH271629   1.620   0.604  15.906  0.3859  0.0395  0.0937
16713TIP3    H171630   1.716   0.605  15.914  0.4539 -0.2551 -0.6434
16713TIP3    H271631   1.603   0.651  15.825 -0.1058  0.1611  0.2658
16714TIP3   OH271632   1.133   1.762   0.459 -0.0731 -0.3284  0.3476
16714TIP3    H171633   1.121   1.800   0.372 -1.6420  0.3437  0.8089
16714TIP3    H271634   1.123   1.837   0.519  2.0743 -0.5761  1.0884
16715TIP3   OH271635   3.964   3.590   3.435 -0.0657  0.0176  0.2983
16715TIP3    H171636   3.878   3.632   3.434  0.5281  1.3002  0.8438
16715TIP3    H271637   3.999   3.606   3.347 -0.6500 -1.1424 -0.1721
16716TIP3   OH271638   0.255   6.615  16.193  0.1023 -0.2177 -0.4582
16716TIP3    H171639   0.179   6.614  16.135 -0.4113 -1.3912  0.2048
16716TIP3    H271640   0.247   6.698  16.240  0.4865  0.7124 -1.9729
16717TIP3   OH271641   0.783   3.462   5.578  0.2514  0.0624 -0.2021
16717TIP3    H171642   0.833   3.533   5.619 -1.0566  0.7059  0.3069
16717TIP3    H271643   0.747   3.501   5.498  0.3225 -0.3249 -0.4278
16718TIP3   OH271644   5.060   4.108   1.327  0.4516 -0.1476  0.1728
16718TIP3    H171645   4.969   4.126   1.347  0.3921 -1.8233  1.6674
16718TIP3    H271646   5.107   4.189   1.349 -0.6216  0.6803 -0.4972
16719TIP3   OH271647   5.332   0.237  13.969  0.5914  0.1589 -0.0870
16719TIP3    H171648   5.387   0.201  13.899  2.2620 -0.2126  1.3529
16719TIP3    H271649   5.307   0.161  14.021  0.6950  0.6023  0.6208
16720TIP3   OH271650   5.320   5.651  16.202  0.2025 -0.2584 -0.3635
16720TIP3    H171651   5.348   5.678  16.115 -1.1620  0.8777 -0.4714
16720TIP3    H271652   5.310   5.732  16.251 -0.9945 -0.7591  0.2469
16721TIP3   OH271653   1.115   5.920   2.717  0.1325 -0.2883  0.3293
16721TIP3    H171654   1.082   5.841   2.760  0.2535  1.3513  3.7292
16721TIP3    H271655   1.178   5.957   2.778  2.1939  1.0398 -2.3877
16722TIP3   OH271656   4.119   0.080   0.070 -0.5117 -0.2075  0.5866
16722TIP3    H171657   4.028   0.097   0.095 -0.2186  0.3918  1.2795
16722TIP3    H271658   4.142   0.000   0.118 -0.1519  0.5862  1.7860
16723TIP3   OH271659   3.055   0.327   6.039 -0.3610 -0.6346 -0.4585
16723TIP3    H171660   2.988   0.389   6.011 -0.5174 -0.4809  0.2340
16723TIP3    H271661   3.012   0.274   6.107  0.5066  0.1627  0.7687
16724TIP3   OH271662   5.435   1.184   1.661  0.0510  0.0332 -0.2852
16724TIP3    H171663   5.375   1.192   1.587  0.8026  2.2337 -0.7410
16724TIP3    H271664   5.380   1.155   1.734 -0.7651 -1.8525 -1.5674
16725TIP3   OH271665   1.085   6.329  10.625 -0.6732  0.1087 -0.4512
16725TIP3    H171666   1.161   6.324  10.568  1.6518  0.5789  2.3766
16725TIP3    H271667   1.024   6.387  10.580  1.7886  1.9180 -1.6614
16726TIP3   OH271668   3.620   6.024   0.031  0.1806  0.2204  0.3469
16726TIP3    H171669   3.600   6.059  -0.056 -0.8411 -0.6008  0.2350
16726TIP3    H271670   3.583   5.935   0.030 -1.7770  0.9304  2.3495
16727TIP3   OH271671   1.595   5.058  11.616 -0.6220 -0.0757 -0.2242
16727TIP3    H171672   1.566   5.063  11.525  1.4346  1.6762 -0.8577
16727TIP3    H271673   1.643   5.139  11.631  1.7795 -1.6759  1.4317
16728TIP3   OH271674   0.191   2.752  12.128  0.0364  0.1884  0.0556
16728TIP3    H171675   0.108   2.707  12.143 -0.0366  0.8074  1.7890
16728TIP3    H271676   0.238   2.697  12.066 -1.4576 -0.4375 -0.5691
16729TIP3   OH271677   1.755   6.363   5.463 -0.0522  0.2797 -0.8840
16729TIP3    H171678   1.837   6.344   5.417 -0.0001  0.6458 -0.9484
16729TIP3    H271679   1.781   6.419   5.536 -0.0833 -0.6494 -0.1549
16730TIP3   OH271680   4.259   4.941  16.815  0.5418  0.1700  0.0609
16730TIP3    H171681   4.242   4.958  16.722 -1.2668  0.7308  0.4493
16730TIP3    H271682   4.293   5.023  16.849  1.1859 -0.0293 -0.0833
16731TIP3   OH271683   0.670   5.526  12.869  0.2807  0.3958 -0.0148
16731TIP3    H171684   0.695   5.501  12.958  0.6491 -0.0237 -0.2342
16731TIP3    H271685   0.743   5.498  12.815  1.0933  2.6675 -0.1958
16732TIP3   OH271686   5.562   5.055   0.848  0.3991  0.0431 -0.3320
16732TIP3    H171687   5.487   5.064   0.790  0.3177  3.0371  0.0620
16732TIP3    H271688   5.525   5.031   0.933  0.0354  0.2332 -0.4370
16733TIP3   OH271689   0.503   2.339   5.231 -0.3544  0.2799 -0.1807
16733TIP3    H171690   0.455   2.262   5.261 -1.2271  1.1575  0.7396
16733TIP3    H271691   0.437   2.393   5.186  0.1275  0.7379 -0.3517
16734TIP3   OH271692   2.171   2.461   4.758 -0.1560  0.3913 -0.0057
16734TIP3    H171693   2.208   2.427   4.677 -1.9072  0.2623 -0.7912
16734TIP3    H271694   2.146   2.551   4.738  1.5102  1.1379  1.1063
16735TIP3   OH271695   1.158   0.487   6.213 -0.0352 -0.1474 -0.4835
16735TIP3    H171696   1.080   0.539   6.236 -0.2230 -0.4188 -0.5069
16735TIP3    H271697   1.126   0.423   6.150 -0.2669 -1.6577  1.1071
16736TIP3   OH271698   4.476   6.708   1.302 -0.2477  0.3000  0.6163
16736TIP3    H171699   4.554   6.763   1.296 -1.4339  1.9471 -0.7915
16736TIP3    H271700   4.409   6.755   1.252 -1.5646 -2.0851 -0.0574
16737TIP3   OH271701   5.081   1.690   2.071 -0.1183  0.1911  0.2313
16737TIP3    H171702   5.165   1.645   2.063  0.8802  2.0016  0.0354
16737TIP3    H271703   5.088   1.741   2.152 -2.0263 -1.5297  1.6000
16738TIP3   OH271704   3.022   5.075  11.161 -0.1170 -0.3124 -0.4649
16738TIP3    H171705   3.059   5.011  11.101 -0.2898 -0.1249 -0.7710
16738TIP3    H271706   3.060   5.052  11.246 -0.1951 -0.8377 -0.5643
16739TIP3   OH271707   3.802   3.534  14.249  0.6981  0.4484 -0.3408
16739TIP3    H171708   3.712   3.527  14.216  0.8699  2.4613 -1.4344
16739TIP3    H271709   3.839   3.447  14.237 -0.5841  0.0285 -1.5368
16740TIP3   OH271710   3.017   1.801   2.755  0.6067 -0.5125  0.0984
16740TIP3    H171711   2.999   1.893   2.775  1.1626 -0.1383 -1.0163
16740TIP3    H271712   2.940   1.754   2.788  0.9008  0.1795  1.8348
16741TIP3   OH271713   3.816   2.189   3.679  0.0773 -0.3559 -0.4127
16741TIP3    H171714   3.908   2.213   3.670  0.4091 -1.5015 -0.3280
16741TIP3    H271715   3.800   2.189   3.774 -0.3611  1.0333 -0.4736
16742TIP3   OH271716   1.968   5.866  16.665  0.6262  0.3433 -0.7139
16742TIP3    H171717   2.008   5.953  16.668  0.9221  0.1899 -0.1870
16742TIP3    H271718   2.036   5.807  16.697  0.9642 -0.2875 -2.4829
16743TIP3   OH271719   2.965   2.691   5.169 -0.5807  0.6458 -0.0047
16743TIP3    H171720   2.961   2.744   5.090  0.0860  0.3326 -0.2544
16743TIP3    H271721   3.055   2.699   5.200 -0.9493  1.1330  0.9849
16744TIP3   OH271722   5.064   5.959   2.763 -0.6361  0.5089  0.0871
16744TIP3    H171723   4.991   6.015   2.789 -1.5085  0.4418 -2.0206
16744TIP3    H271724   5.107   6.007   2.693  0.3793 -0.1915  0.2032
16745TIP3   OH271725   5.552   6.512   3.879 -1.0200 -0.3797  0.5373
16745TIP3    H171726   5.499   6.578   3.834  2.1596  0.5808 -2.1461
16745TIP3    H271727   5.580   6.555   3.960 -0.7852  0.7900 -0.1430
16746TIP3   OH271728   3.893   4.055  11.550  0.3534  0.7661  0.0552
16746TIP3    H171729   3.840   4.039  11.629  1.1957 -0.5781  0.3809
16746TIP3    H271730   3.881   3.976  11.497 -0.0542  1.5768 -1.1102
16747TIP3   OH271731   3.958   4.802  14.896  0.5391  0.7942 -0.3345
16747TIP3    H171732   3.953   4.736  14.965 -1.8970 -1.9970 -2.8839
16747TIP3    H271733   3.930   4.756  14.817 -0.3183  4.6541 -2.5360
16748TIP3   OH271734   3.779   5.984   2.186 -1.1478 -0.5556 -0.1631
16748TIP3    H171735   3.704   6.044   2.190 -0.5818  0.1128  1.7438
16748TIP3    H271736   3.818   5.990   2.273  0.9603 -1.1056 -1.0208
16749TIP3   OH271737   4.783   1.280  12.092 -0.0248  0.7764  0.5957
16749TIP3    H171738   4.876   1.272  12.071  0.4066  1.3329  2.1658
16749TIP3    H271739   4.779   1.349  12.158 -1.4150 -0.1094  1.4947
16750TIP3   OH271740   0.044   1.807  15.048  0.4785 -0.5936  0.2597
16750TIP3    H171741   0.115   1.751  15.078  0.9434  0.3029  0.9004
16750TIP3    H271742   0.085   1.867  14.986  0.0618 -0.7465 -0.1642
16751TIP3   OH271743   4.386   2.336   5.471 -0.2477  0.0350  0.3333
16751TIP3    H171744   4.415   2.426   5.485 -0.9564  0.3629 -0.2245
16751TIP3    H271745   4.336   2.339   5.389  0.9243 -1.1485 -0.4789
16752TIP3   OH271746   4.819   6.376  15.267 -0.1347 -0.1473 -0.1479
16752TIP3    H171747   4.848   6.465  15.290  1.1767 -0.4490 -0.5425
16752TIP3    H271748   4.739   6.390  15.216 -0.4587  0.7522  0.5644
16753TIP3   OH271749   2.368   6.354  16.728 -0.2853 -0.5593 -0.0941
16753TIP3    H171750   2.332   6.442  16.737  0.6198 -0.2957  1.4723
16753TIP3    H271751   2.306   6.298  16.775  0.4745 -0.3201  1.2791
16754TIP3   OH271752   3.556   0.551  12.074  0.3660 -0.1183 -0.4762
16754TIP3    H171753   3.592   0.606  12.005  0.3715 -0.0841 -0.4460
16754TIP3    H271754   3.477   0.513  12.036  2.1870 -2.9405 -1.8317
16755TIP3   OH271755   1.249   0.142   0.882 -0.1165 -0.1499  0.2013
16755TIP3    H171756   1.265   0.072   0.819 -1.9836 -1.2412  0.8510
16755TIP3    H271757   1.286   0.221   0.842  2.3204 -1.5137 -0.4244
16756TIP3   OH271758   4.891   6.707   5.745  0.6846 -0.0998 -0.0914
16756TIP3    H171759   4.854   6.789   5.713 -0.9315 -0.3033  1.1396
16756TIP3    H271760   4.853   6.695   5.832  0.9625 -2.0953 -0.1921
16757TIP3   OH271761   6.567   6.232  15.325 -0.7793  0.6076  0.0113
16757TIP3    H171762   6.568   6.324  15.351 -2.2761  0.2013  1.7016
16757TIP3    H271763   6.610   6.185  15.397 -1.4855 -0.1571 -0.0384
16758TIP3   OH271764   5.290   0.173   3.125  0.1398 -0.1912  0.2185
16758TIP3    H171765   5.246   0.227   3.059  0.4370 -0.8969 -0.5744
16758TIP3    H271766   5.306   0.089   3.081  1.6910 -0.1772  0.6873
16759TIP3   OH271767   4.457   4.434  15.794 -0.4194  0.8051  0.3498
16759TIP3    H171768   4.428   4.493  15.864 -0.7450  1.3591 -0.2395
16759TIP3    H271769   4.441   4.346  15.829  1.2857  1.0057  1.7552
16760TIP3   OH271770   4.846   3.223   0.791 -0.1045  0.3131 -0.2695
16760TIP3    H171771   4.795   3.290   0.744  1.1940  0.8134 -1.0066
16760TIP3    H271772   4.936   3.238   0.764  0.5064 -0.3030  1.3328
16761TIP3   OH271773   6.260   4.824  16.702  0.0669  0.0686  0.3719
16761TIP3    H171774   6.306   4.864  16.627  1.4955 -1.2587  0.4841
16761TIP3    H271775   6.321   4.833  16.775 -0.5501 -0.2752  0.9417
16762TIP3   OH271776   6.174   0.826   0.909  0.3664 -0.4517 -0.2937
16762TIP3    H171777   6.110   0.778   0.857 -1.1213  0.2016  0.8806
16762TIP3    H271778   6.228   0.758   0.949 -0.9427 -1.1263  0.3892
16763TIP3   OH271779   3.432   4.421   2.939  0.3723 -0.1338  0.2178
16763TIP3    H171780   3.400   4.479   2.870 -1.2373 -2.2461 -0.9172
16763TIP3    H271781   3.435   4.476   3.017  0.8525  1.9628 -1.1912
16764TIP3   OH271782   0.612   5.731   3.140 -0.2912 -0.1239 -0.0792
16764TIP3    H171783   0.544   5.670   3.112 -0.0990 -0.0637 -0.6777
16764TIP3    H271784   0.565   5.794   3.195 -0.8783  0.3633 -1.1088
16765TIP3   OH271785   1.102   6.746  15.796  0.0011  0.3857 -0.3071
16765TIP3    H171786   1.079   6.733  15.704 -0.3378  1.8593 -0.4517
16765TIP3    H271787   1.019   6.767  15.838  0.4802  1.9143 -0.0893
16766TIP3   OH271788   6.047   1.029  16.342  0.2177 -0.1031  0.2930
16766TIP3    H171789   6.073   0.950  16.294 -1.0021 -0.6393  0.4864
16766TIP3    H271790   6.122   1.088  16.332  0.7155 -0.8740 -0.7493
16767TIP3   OH271791   2.266   0.042   1.562 -0.1388  0.1791  0.3795
16767TIP3    H171792   2.233  -0.044   1.588 -0.1740  0.1594  0.2722
16767TIP3    H271793   2.188   0.097   1.557 -0.4033 -0.2835 -1.5144
16768TIP3   OH271794   4.586   2.575   2.379  0.0483  0.0721  0.1340
16768TIP3    H171795   4.583   2.479   2.369 -1.0128  0.0442  0.6195
16768TIP3    H271796   4.495   2.601   2.389  0.4485  0.9052  2.1152
16769TIP3   OH271797   6.103   5.074   2.114 -0.3447 -0.0593 -0.3660
16769TIP3    H171798   6.187   5.056   2.073  0.0624 -1.0655  0.8533
16769TIP3    H271799   6.093   5.169   2.107  0.0616 -0.0976 -2.0398
16770TIP3   OH271800   4.200   0.667   3.660 -0.2210  0.5385  0.3427
16770TIP3    H171801   4.225   0.684   3.751  0.1842  1.0984  0.1302
16770TIP3    H271802   4.183   0.754   3.623 -0.4210  0.3108 -0.1055
16771TIP3   OH271803   6.398   0.532   0.716 -0.2530  0.2018 -0.7830
16771TIP3    H171804   6.483   0.495   0.694 -0.4098 -0.3225 -0.5265
16771TIP3    H271805   6.340   0.501   0.646 -0.0860  1.1436 -1.3455
16772TIP3   OH271806   4.176   6.222  12.927 -0.0704  0.1718 -0.5486
16772TIP3    H171807   4.224   6.191  13.004 -1.2344 -1.0385 -0.2734
16772TIP3    H271808   4.101   6.269  12.963  0.4211  1.2934 -0.9671
16773TIP3   OH271809   4.074   3.676  11.878 -0.3034 -0.6609 -0.7281
16773TIP3    H171810   4.080   3.749  11.816  0.6907 -0.3188 -0.2466
16773TIP3    H271811   4.107   3.601  11.829  0.2038 -0.4506 -0.7167
16774TIP3   OH271812   1.606   3.614  14.143 -0.0304  0.4072 -0.3600
16774TIP3    H171813   1.635   3.561  14.068  0.6110  0.7865 -0.3855
16774TIP3    H271814   1.513   3.630  14.125  0.1379  0.5864 -1.1400
16775TIP3   OH271815   5.774   6.383   3.228  0.2214 -0.0760  0.0956
16775TIP3    H171816   5.759   6.442   3.302 -0.5947 -1.6624  1.2685
16775TIP3    H271817   5.842   6.425   3.176 -2.5160  3.5266 -0.9721
16776TIP3   OH271818   2.089   6.101  16.655  0.1697 -0.2755 -0.2409
16776TIP3    H171819   2.044   6.165  16.600 -1.5180 -0.1519  1.1829
16776TIP3    H271820   2.113   6.149  16.734  1.2201 -0.8010 -0.2161
16777TIP3   OH271821   0.970   2.435   1.135 -0.4337  0.0922  0.1823
16777TIP3    H171822   0.897   2.434   1.196 -0.3219  0.1354  0.3179
16777TIP3    H271823   1.009   2.348   1.143 -1.1861 -0.3528 -0.7645
16778TIP3   OH271824   5.068   6.442  16.796  0.3273 -0.2583 -0.1259
16778TIP3    H171825   5.089   6.511  16.733 -1.0234  0.1200 -0.1773
16778TIP3    H271826   5.099   6.361  16.755  1.2442  0.2164 -0.3912
16779TIP3   OH271827   6.666   2.593  14.628 -0.1030 -0.4076 -0.1929
16779TIP3    H171828   6.654   2.654  14.701 -0.0932  0.8809 -1.2302
16779TIP3    H271829   6.582   2.549  14.619 -0.0915 -0.6075  0.6101
16780TIP3   OH271830   0.688   4.834   3.444  0.0106 -0.5315 -0.5254
16780TIP3    H171831   0.718   4.923   3.428  1.2226 -0.8676 -0.1918
16780TIP3    H271832   0.714   4.785   3.366 -2.3925 -0.2395 -1.6235
16781TIP3   OH271833   0.434   2.954  11.845  0.0870 -0.0172 -0.2449
16781TIP3    H171834   0.433   3.050  11.841  1.8921  0.0213 -0.6067
16781TIP3    H271835   0.490   2.934  11.920 -1.3433 -0.8204  0.6551
16782TIP3   OH271836   2.899   1.442  12.595  0.1203  0.2857  0.1972
16782TIP3    H171837   2.929   1.532  12.591  0.1086  0.4465  2.6277
16782TIP3    H271838   2.858   1.433  12.681 -0.3234 -1.9064 -0.1719
16783TIP3   OH271839   2.079   3.229   2.682  0.2928  0.1141  0.4249
16783TIP3    H171840   2.128   3.249   2.762  0.5405  0.5718  0.1637
16783TIP3    H271841   2.074   3.133   2.680 -1.1908  0.1183  1.8687
16784TIP3   OH271842   5.157   1.779   0.081  0.3086 -0.0463  0.1610
16784TIP3    H171843   5.105   1.703   0.109  0.5918  0.2722  1.6383
16784TIP3    H271844   5.245   1.761   0.115 -0.1904  2.1118  2.8952
16785TIP3   OH271845   3.898   5.963   1.953 -0.2144 -0.2016 -0.1326
16785TIP3    H171846   3.930   5.874   1.938  1.0040  0.1400  0.3415
16785TIP3    H271847   3.864   5.962   2.042 -1.1580 -0.4493 -0.4847
16786TIP3   OH271848   5.220   0.225   2.745 -0.3051  0.2857  0.0411
16786TIP3    H171849   5.285   0.175   2.697 -0.8835  1.2656 -1.8593
16786TIP3    H271850   5.154   0.160   2.771 -0.1758 -0.2079 -0.8353
16787TIP3   OH271851   3.157   1.463   5.056 -0.2087 -0.1314 -0.0410
16787TIP3    H171852   3.209   1.458   5.137  1.7225 -1.0991 -1.2723
16787TIP3    H271853   3.110   1.546   5.063  1.5849  0.8427  1.1194
16788TIP3   OH271854   3.063   1.969   4.993 -0.1447  0.6431  0.1839
16788TIP3    H171855   3.009   1.896   5.026 -0.2278  0.8618  0.5352
16788TIP3    H271856   3.017   2.048   5.021 -0.3929  0.8404 -0.7507
16789TIP3   OH271857   5.577   5.666   2.894 -0.7173 -0.3739 -0.4359
16789TIP3    H171858   5.495   5.715   2.909 -0.3894 -0.3704  1.6010
16789TIP3    H271859   5.646   5.728   2.918 -0.1915 -0.9380 -0.4848
16790TIP3   OH271860   3.137   3.780   4.392  0.8461  0.0514  0.0365
16790TIP3    H171861   3.181   3.754   4.472 -0.9629 -0.9674  0.7480
16790TIP3    H271862   3.161   3.872   4.380  0.8721  0.3200  1.9492
16791TIP3   OH271863   1.879   5.671  16.888 -0.5944  0.1686  0.0396
16791TIP3    H171864   1.903   5.580  16.871  1.1436  0.6890 -0.5465
16791TIP3    H271865   1.953   5.706  16.938 -0.3896  1.6895 -1.2377
16792TIP3   OH271866   5.301   2.577   3.119  0.2501 -0.0033  0.2075
16792TIP3    H171867   5.351   2.652   3.088  0.2504  0.1723  0.6338
16792TIP3    H271868   5.209   2.602   3.106  0.1760  0.8490  2.0882
16793TIP3   OH271869   0.946   6.822   2.157 -0.2213 -0.3074  0.0488
16793TIP3    H171870   1.021   6.864   2.115 -0.1952 -0.1936  0.2071
16793TIP3    H271871   0.898   6.781   2.085 -0.4390  0.2905 -0.1575
16794TIP3   OH271872   1.417   5.317   1.966 -0.2568 -0.5672  0.5813
16794TIP3    H171873   1.469   5.360   2.034  1.4753  1.2097 -1.7115
16794TIP3    H271874   1.464   5.236   1.946  0.9695  0.3776 -0.5345
16795TIP3   OH271875   5.876   5.800  15.386  0.1970 -0.2448  0.6548
16795TIP3    H171876   5.915   5.869  15.331 -0.3539 -0.2003  0.3146
16795TIP3    H271877   5.948   5.771  15.441  0.4950  0.4518  0.6478
16796TIP3   OH271878   0.953   3.959   0.604  0.1291  0.6568  0.6114
16796TIP3    H171879   0.978   3.928   0.690 -0.6198  0.5413  0.8001
16796TIP3    H271880   1.035   3.967   0.555  0.6488  1.5611  1.5972
16797TIP3   OH271881   5.829   5.777  13.721 -0.7900 -0.0302 -0.2940
16797TIP3    H171882   5.773   5.714  13.766 -0.3367  2.0444  3.6358
16797TIP3    H271883   5.917   5.759  13.754  0.0441  0.1534 -2.2677
16798TIP3   OH271884   2.424   0.163   2.519  0.5005 -0.6482  0.3277
16798TIP3    H171885   2.346   0.108   2.525 -0.5130  0.8527  1.5425
16798TIP3    H271886   2.492   0.113   2.566  0.8315 -2.7476 -2.1895
16799TIP3   OH271887   6.610   4.370  16.807 -0.3083  0.4297  0.2366
16799TIP3    H171888   6.691   4.413  16.836 -0.8108  1.4210  0.1987
16799TIP3    H271889   6.636   4.320  16.730  0.5151 -0.2298  0.9061
16800TIP3   OH271890   1.505   3.545   1.228  0.7596 -0.0957 -0.3537
16800TIP3    H171891   1.557   3.621   1.202  1.4497 -0.6341 -0.5720
16800TIP3    H271892   1.477   3.565   1.318  1.9827 -0.1205  0.0464
16801TIP3   OH271893   6.515   2.308   2.368 -0.4242 -0.1304  0.3314
16801TIP3    H171894   6.575   2.365   2.417 -0.0700 -0.6657  0.5324
16801TIP3    H271895   6.503   2.353   2.284  1.1805 -0.5708 -0.1668
16802TIP3   OH271896   1.210   2.974  14.953  0.1889  0.0461  0.3575
16802TIP3    H171897   1.273   3.043  14.975  0.3282 -0.3088  1.1105
16802TIP3    H271898   1.224   2.958  14.860  2.0747 -0.8662  0.7437
16803TIP3   OH271899   0.522   3.207  11.200  0.1650  0.3817 -0.8823
16803TIP3    H171900   0.579   3.134  11.226 -0.6295  0.0760  0.0632
16803TIP3    H271901   0.582   3.281  11.191  0.8292 -0.1223 -0.7320
16804TIP3   OH271902   6.780   0.296   0.853 -0.0401  0.0167  0.1163
16804TIP3    H171903   6.724   0.295   0.775  0.6877 -1.0890 -0.4104
16804TIP3    H271904   6.867   0.318   0.820  0.0547  0.6770  0.7861
16805TIP3   OH271905   0.514   0.292  15.305 -0.3325  0.0331 -0.1515
16805TIP3    H171906   0.491   0.378  15.340 -1.4526 -0.7544  1.1078
16805TIP3    H271907   0.440   0.235  15.329 -1.0987 -0.6435 -3.5817
16806TIP3   OH271908   2.016   1.385  14.576  0.7466  0.2429  0.2044
16806TIP3    H171909   2.081   1.454  14.586  0.1304  1.0373 -1.0419
16806TIP3    H271910   2.012   1.369  14.482 -1.9295  1.3115  0.0534
16807TIP3   OH271911   1.444   6.058  14.912 -0.0290 -0.7078  0.4896
16807TIP3    H171912   1.511   6.100  14.967 -0.4251  1.6949 -0.7406
16807TIP3    H271913   1.371   6.042  14.972 -1.0088  3.1751  0.5579
16808TIP3   OH271914   5.914   0.742  11.581  0.0356 -0.0063 -0.0819
16808TIP3    H171915   5.843   0.695  11.538  0.0910  1.0482 -1.3916
16808TIP3    H271916   5.988   0.682  11.576  0.1543  0.2219 -1.8974
16809TIP3   OH271917   0.606   4.117  16.449  0.1047 -0.1789 -0.3116
16809TIP3    H171918   0.633   4.142  16.537 -0.6910  0.6910 -0.3020
16809TIP3    H271919   0.514   4.142  16.444 -0.7745 -3.0476 -0.3469
16810TIP3   OH271920   0.805   5.419   4.930 -0.1489 -0.4419  0.7059
16810TIP3    H171921   0.799   5.376   4.844  0.1191  1.2418 -0.1971
16810TIP3    H271922   0.891   5.394   4.963 -0.0337 -0.6721  0.2480
16811TIP3   OH271923   1.232   3.437  15.965 -0.2808 -0.1526 -0.0120
16811TIP3    H171924   1.282   3.503  16.013  2.5255 -1.4577 -0.9517
16811TIP3    H271925   1.219   3.475  15.878  1.4308 -0.8045 -0.5876
16812TIP3   OH271926   6.839   6.120   3.536  0.2077 -0.3374  0.0878
16812TIP3    H171927   6.770   6.062   3.570  0.5855 -1.5638 -1.1164
16812TIP3    H271928   6.796   6.172   3.468 -0.1246  0.8045  1.1488
16813TIP3   OH271929   2.927   1.844  15.196  0.6832  0.4410  0.2584
16813TIP3    H171930   2.897   1.769  15.247 -0.6301  0.9999  0.3408
16813TIP3    H271931   2.990   1.888  15.253  0.8547 -0.1397  0.5271
16814TIP3   OH271932   5.769   4.404   0.432 -0.1240 -0.4773  0.2456
16814TIP3    H171933   5.720   4.391   0.351  0.8603  0.7574 -0.5974
16814TIP3    H271934   5.753   4.496   0.455  1.6334 -0.0873  0.0311
16815TIP3   OH271935   0.546   4.309  14.076  0.7273  0.4021 -0.3257
16815TIP3    H171936   0.635   4.277  14.090  0.1541 -1.4599 -0.7483
16815TIP3    H271937   0.490   4.236  14.101 -0.7275  1.7085  0.3805
16816TIP3   OH271938   6.158   5.067   3.888  0.2965  0.1374 -0.0308
16816TIP3    H171939   6.152   5.160   3.909 -1.4998  0.3367 -1.2211
16816TIP3    H271940   6.224   5.033   3.948  0.4227  2.0140  0.9639
16817TIP3   OH271941   3.126   4.107  11.736  0.5432  0.3304  0.2234
16817TIP3    H171942   3.159   4.022  11.767 -0.2264 -0.1150 -0.1475
16817TIP3    H271943   3.147   4.167  11.807  0.5929 -0.2866  0.7479
16818TIP3   OH271944   0.379   6.094  11.207 -0.4593  0.4357  0.0630
16818TIP3    H171945   0.449   6.035  11.178 -0.6608  0.6033 -0.7674
16818TIP3    H271946   0.379   6.085  11.303  0.3270  0.0166  0.0318
16819TIP3   OH271947   6.164   4.928  15.294  0.5279 -0.3648  0.6832
16819TIP3    H171948   6.163   4.833  15.312  1.4762 -0.7204 -0.9501
16819TIP3    H271949   6.072   4.953  15.294  0.2276 -1.3984  0.6507
16820TIP3   OH271950   3.516   3.896   2.034  0.0747  0.4456  0.4548
16820TIP3    H171951   3.515   3.882   1.940 -0.4343  1.4090  0.3017
16820TIP3    H271952   3.544   3.988   2.044  1.2911  0.0221  1.2910
16821TIP3   OH271953   3.785   4.835   0.574 -0.5813  0.2318  0.2156
16821TIP3    H171954   3.794   4.885   0.493  0.0133  1.3084  0.9118
16821TIP3    H271955   3.746   4.897   0.636 -1.0489 -0.5782  0.7453
16822TIP3   OH271956   3.229   2.689   5.670 -0.3905  0.1379 -0.3183
16822TIP3    H171957   3.304   2.740   5.698  0.1197 -0.8289  0.1271
16822TIP3    H271958   3.205   2.725   5.585  0.6283  0.4120 -0.4991
16823TIP3   OH271959   1.748   5.398   6.120  0.3260  0.5458  0.2476
16823TIP3    H171960   1.763   5.473   6.177  0.6085 -0.8335  2.1124
16823TIP3    H271961   1.726   5.327   6.180  0.6480 -1.0127 -1.3871
16824TIP3   OH271962   6.776   1.307  11.837 -0.2210  0.2483  0.4029
16824TIP3    H171963   6.834   1.246  11.793 -1.7904 -0.5176 -0.7226
16824TIP3    H271964   6.699   1.254  11.859 -1.0268  1.4938  0.6710
16825TIP3   OH271965   2.933   2.212   2.071 -0.3000 -0.1604  0.6124
16825TIP3    H171966   2.982   2.135   2.042 -0.9722 -0.4037  0.0818
16825TIP3    H271967   2.989   2.253   2.136  1.9975  1.2512 -2.0636
16826TIP3   OH271968   4.414   2.594   4.365  0.1750 -0.9100  0.4503
16826TIP3    H171969   4.414   2.639   4.449  0.4198 -1.1005  0.5548
16826TIP3    H271970   4.368   2.511   4.382  0.5871 -1.1289  0.4963
16827TIP3   OH271971   2.774   3.348   0.983  0.6793 -0.0614 -0.2961
16827TIP3    H171972   2.774   3.416   0.915 -0.7048  0.3994  0.1372
16827TIP3    H271973   2.810   3.391   1.060  0.8975 -0.1665 -0.3382
16828TIP3   OH271974   0.381   0.769  10.368 -0.1940  0.4143 -0.0905
16828TIP3    H171975   0.357   0.677  10.362 -0.4330  0.4570  0.1901
16828TIP3    H271976   0.457   0.778  10.310 -0.7434  0.2384 -0.8541
16829TIP3   OH271977   6.241   4.976  11.920  0.1326  0.1285  0.3537
16829TIP3    H171978   6.264   4.995  11.829  1.9657 -1.2486  0.4716
16829TIP3    H271979   6.162   4.922  11.914 -0.2552  0.7568 -0.3565
16830TIP3   OH271980   0.506   1.328   0.541  0.5084  0.2312  0.1047
16830TIP3    H171981   0.519   1.423   0.542 -0.6680  0.4340 -1.2033
16830TIP3    H271982   0.439   1.313   0.607 -0.0049  0.4324 -0.3678
16831TIP3   OH271983   6.572   5.227  15.646 -0.4148 -0.3577  0.3507
16831TIP3    H171984   6.641   5.286  15.678 -2.0058  0.5345  2.3899
16831TIP3    H271985   6.536   5.272  15.569  1.1639 -0.7949 -0.6876
16832TIP3   OH271986   1.198   1.797  14.517 -0.3902  0.2084  0.0070
16832TIP3    H171987   1.203   1.825  14.608  0.1173 -1.6230  0.5848
16832TIP3    H271988   1.106   1.775  14.503 -0.2834 -0.5242  0.4167
16833TIP3   OH271989   4.760   2.941  11.016 -0.2475 -0.3751  0.0767
16833TIP3    H171990   4.823   2.995  10.968  0.4812 -1.6000 -0.4015
16833TIP3    H271991   4.674   2.975  10.989  0.1802  1.2375  0.6432
16834TIP3   OH271992   3.976   3.316   0.415 -0.1791 -0.0967 -0.0565
16834TIP3    H171993   3.981   3.236   0.467  1.1622  0.0434  0.0728
16834TIP3    H271994   4.054   3.313   0.360 -0.8017  0.4883 -0.9886
16835TIP3   OH271995   2.192   5.719  11.749 -0.0070  0.0624  0.4757
16835TIP3    H171996   2.099   5.715  11.770 -0.4580 -1.9864 -1.5485
16835TIP3    H271997   2.196   5.771  11.669  0.6574  0.3781  0.7054
16836TIP3   OH271998   2.882   2.767  13.513  0.0646  0.0947 -0.2846
16836TIP3    H171999   2.800   2.791  13.469  0.2539 -1.6992 -1.7537
16836TIP3    H272000   2.939   2.737  13.442  1.4667 -0.1369  0.8949
16837TIP3   OH272001   6.072   3.640  13.843  0.5848  0.0055 -0.2159
16837TIP3    H172002   6.160   3.674  13.860  0.6633 -0.3522  0.1090
16837TIP3    H272003   6.060   3.570  13.907 -0.2932  0.6429  0.3448
16838TIP3   OH272004   0.680   4.527   2.826 -0.4320 -0.3281 -0.4294
16838TIP3    H172005   0.707   4.437   2.811 -1.4739 -0.6763 -0.2782
16838TIP3    H272006   0.720   4.551   2.910 -0.3177 -0.7187 -0.3724
16839TIP3   OH272007   1.812   5.699  13.020  0.3203  0.3190 -0.1921
16839TIP3    H172008   1.838   5.747  12.941 -0.0967  0.4227 -0.2648
16839TIP3    H272009   1.851   5.612  13.009 -0.5589  0.0167 -0.9723
16840TIP3   OH272010   0.866   1.901  14.223 -0.1371  0.4066  0.1858
16840TIP3    H172011   0.869   1.816  14.266 -2.6414  0.0655 -0.1259
16840TIP3    H272012   0.865   1.880  14.129 -0.8321  0.7524  0.1104
16841TIP3   OH272013   5.036   3.493   0.600  0.6539  0.1517  0.6806
16841TIP3    H172014   5.104   3.533   0.547  1.3121 -0.8527  0.7474
16841TIP3    H272015   5.078   3.418   0.643 -0.3299 -0.1461  1.1810
16842TIP3   OH272016   6.207   2.935   5.251  0.3857  0.0395  0.4814
16842TIP3    H172017   6.130   2.878   5.245  1.0117 -0.6580 -1.8998
16842TIP3    H272018   6.171   3.023   5.258 -0.6102 -0.3601  0.5616
16843TIP3   OH272019   2.380   2.308  11.593  0.1598 -0.0384 -0.5143
16843TIP3    H172020   2.428   2.368  11.536  0.0393 -1.3677 -2.1046
16843TIP3    H272021   2.352   2.362  11.667  0.4403  1.7481 -1.6449
16844TIP3   OH272022   3.818   6.814  11.772 -0.3254  0.0243 -0.2554
16844TIP3    H172023   3.729   6.806  11.738 -1.0721  2.1367  0.9791
16844TIP3    H272024   3.806   6.846  11.862  1.6489 -1.5239  0.6406
16845TIP3   OH272025   6.447   0.760  11.849 -0.1535 -0.1960  0.4160
16845TIP3    H172026   6.352   0.753  11.861 -0.2987  0.1987 -0.4261
16845TIP3    H272027   6.478   0.802  11.929 -1.2370  3.5391 -0.8791
16846TIP3   OH272028   2.669   4.503   4.727 -0.3764 -0.1922 -0.3659
16846TIP3    H172029   2.635   4.471   4.811  0.0418 -1.3927 -0.6289
16846TIP3    H272030   2.596   4.491   4.666  0.2586 -2.1831 -0.7974
16847TIP3   OH272031   6.845   0.850   3.592  0.4785  0.2276 -0.1466
16847TIP3    H172032   6.902   0.776   3.612 -0.7516 -0.9660 -0.9042
16847TIP3    H272033   6.824   0.888   3.678 -1.0606 -1.9973  0.5461
16848TIP3   OH272034   3.918   1.994  11.775 -0.0460  0.1651 -0.9103
16848TIP3    H172035   4.010   2.016  11.768  0.5061 -0.9599  1.6104
16848TIP3    H272036   3.877   2.071  11.815  0.2209 -0.1048 -0.1027
16849TIP3   OH272037   0.967   1.465  11.126 -0.4086 -0.0379 -0.0519
16849TIP3    H172038   0.972   1.375  11.159 -1.3955 -0.0261  0.1503
16849TIP3    H272039   1.045   1.474  11.071 -0.5774 -1.1849 -0.5125
16850TIP3   OH272040   2.346   3.396  15.577 -0.0333  0.4456 -0.7431
16850TIP3    H172041   2.288   3.326  15.547 -2.6085  2.5736 -1.1254
16850TIP3    H272042   2.415   3.351  15.625 -1.9397 -2.2983 -0.3297
16851TIP3   OH272043   0.157   5.601   4.699  0.1188 -0.2627  0.0920
16851TIP3    H172044   0.068   5.566   4.696  0.8523 -2.2101 -0.8396
16851TIP3    H272045   0.157   5.673   4.637 -1.1426  0.6815  1.1392
16852TIP3   OH272046   6.663   0.306   2.044  0.2746 -0.4729 -0.0744
16852TIP3    H172047   6.709   0.247   2.104  0.1548  0.0900  0.5755
16852TIP3    H272048   6.590   0.340   2.094  0.5347  0.4954 -0.3295
16853TIP3   OH272049   2.817   0.577  12.657 -0.0435  0.2572 -0.6666
16853TIP3    H172050   2.827   0.486  12.684  0.0746  0.6977  0.8780
16853TIP3    H272051   2.741   0.609  12.706  1.0506  1.5050  0.2764
16854TIP3   OH272052   3.794   3.194  11.393  0.7497 -0.3087 -0.1702
16854TIP3    H172053   3.833   3.174  11.478 -1.0647 -0.4560  0.6792
16854TIP3    H272054   3.770   3.287  11.399  2.0611  0.1291 -1.1644
16855TIP3   OH272055   3.745   0.774   1.964  0.1385  1.0460 -0.1102
16855TIP3    H172056   3.746   0.703   2.028  0.2171 -0.4302 -1.6626
16855TIP3    H272057   3.806   0.839   1.998  1.4272 -0.4395  0.5337
16856TIP3   OH272058   6.282   1.668   2.759 -0.3824  0.0998  0.5866
16856TIP3    H172059   6.295   1.762   2.768 -0.2129  0.1791 -0.3631
16856TIP3    H272060   6.307   1.649   2.668 -0.1652 -0.8978  0.8399
16857TIP3   OH272061   4.597   0.655   3.034 -0.7830  0.2017  0.4051
16857TIP3    H172062   4.517   0.603   3.044  0.3640 -2.2812 -2.1165
16857TIP3    H272063   4.666   0.602   3.073 -0.0743  1.6590  1.2528
16858TIP3   OH272064   4.743   3.246   4.186  0.0559 -0.0032 -0.0927
16858TIP3    H172065   4.742   3.214   4.096  0.8300 -2.6115  0.7366
16858TIP3    H272066   4.816   3.200   4.227 -0.0706  1.3648  1.8115
16859TIP3   OH272067   6.313   1.480   1.872  0.6354 -0.5265  0.5087
16859TIP3    H172068   6.335   1.573   1.859  1.3502 -1.0292 -2.8240
16859TIP3    H272069   6.388   1.432   1.837 -0.7175 -2.3285 -0.0929
16860TIP3   OH272070   2.889   3.297  16.921 -0.1521  0.2279 -0.4908
16860TIP3    H172071   2.840   3.310  16.841  2.1820  0.9192 -1.9056
16860TIP3    H272072   2.895   3.384  16.960  0.5148  0.2780 -0.6953
16861TIP3   OH272073   3.593   5.537  13.815  0.0572 -0.2840 -0.2244
16861TIP3    H172074   3.550   5.520  13.731  0.4265  0.4011 -0.5590
16861TIP3    H272075   3.605   5.632  13.817 -0.3217 -0.2451  0.7895
16862TIP3   OH272076   6.273   1.679  10.803  0.0771  0.1610 -0.1052
16862TIP3    H172077   6.255   1.645  10.715 -1.5444  0.4112  0.0998
16862TIP3    H272078   6.274   1.601  10.859 -0.4844  0.1480 -0.1102
16863TIP3   OH272079   2.057   5.934  12.562  0.0499 -0.3066  0.2332
16863TIP3    H172080   2.152   5.922  12.574  0.0299  0.9112  1.9558
16863TIP3    H272081   2.021   5.846  12.570  1.0012 -0.7543 -0.1648
16864TIP3   OH272082   0.753   0.069  15.560 -0.3113 -0.2574  0.1012
16864TIP3    H172083   0.666   0.103  15.581 -0.4322 -0.8250  0.5426
16864TIP3    H272084   0.803   0.079  15.641 -0.0778 -0.2885 -0.0378
16865TIP3   OH272085   4.228   3.879   5.105 -0.7259 -0.0409  0.0670
16865TIP3    H172086   4.309   3.829   5.099 -0.9805 -0.3550 -0.8477
16865TIP3    H272087   4.249   3.952   5.164  0.0325 -0.4640  0.3328
16866TIP3   OH272088   5.920   5.411  13.994 -0.3149 -0.1150  0.2389
16866TIP3    H172089   5.850   5.471  14.018  0.7707  0.8221  1.1758
16866TIP3    H272090   5.989   5.428  14.058 -0.2481 -2.9155  1.0534
16867TIP3   OH272091   2.190   3.468  10.332 -0.3195 -0.2337 -0.0577
16867TIP3    H172092   2.162   3.555  10.360  0.3543  0.1322 -0.5124
16867TIP3    H272093   2.119   3.410  10.360 -1.2833  0.6045 -0.6946
16868TIP3   OH272094   4.768   6.622  13.512 -0.0299  0.2212  0.0053
16868TIP3    H172095   4.694   6.562  13.518 -1.3162  1.7826  0.3215
16868TIP3    H272096   4.765   6.655  13.423  0.4927  0.0534 -0.0779
16869TIP3   OH272097   2.130   1.722  11.749 -0.3032 -0.1192  0.1436
16869TIP3    H172098   2.214   1.752  11.713 -0.5701  0.2107 -0.2194
16869TIP3    H272099   2.094   1.667  11.680 -0.1787 -0.6394  0.4885
16870TIP3   OH272100   4.398   6.509  16.861 -0.5249 -0.4283 -0.1043
16870TIP3    H172101   4.328   6.570  16.836 -0.2613  0.7487  1.7517
16870TIP3    H272102   4.453   6.502  16.784 -0.5448  1.7789 -0.3793
16871TIP3   OH272103   5.856   2.913  11.330 -0.2332  0.0161 -0.1089
16871TIP3    H172104   5.873   2.988  11.274 -0.6744  1.4022  1.5321
16871TIP3    H272105   5.929   2.910  11.392 -0.2221 -0.9012 -0.1456
16872TIP3   OH272106   4.883   6.350   5.915  0.0345  0.5679 -0.5190
16872TIP3    H172107   4.902   6.405   5.992  2.4003  0.7586 -1.1553
16872TIP3    H272108   4.815   6.289   5.945  0.3564  1.1224  1.4849
16873TIP3   OH272109   5.693   1.812  11.168  0.8023  0.1873  0.0700
16873TIP3    H172110   5.655   1.899  11.179  1.7089  0.4874  0.9061
16873TIP3    H272111   5.786   1.823  11.186  0.6651 -1.2850  2.1353
16874TIP3   OH272112   6.081   2.834  15.857  0.2112  0.3398 -0.1373
16874TIP3    H172113   6.066   2.871  15.770 -0.8939  0.1001 -0.0671
16874TIP3    H272114   6.115   2.746  15.840  1.1970  0.7354 -0.3054
16875TIP3   OH272115   2.348   5.984   5.695 -0.3749 -0.3420 -0.3811
16875TIP3    H172116   2.404   5.977   5.618 -1.0678 -2.4578 -0.7844
16875TIP3    H272117   2.308   6.070   5.688  0.1892 -0.1639 -1.9672
16876TIP3   OH272118   5.345   5.454   3.857  0.2344 -0.3278 -0.0274
16876TIP3    H172119   5.339   5.550   3.854 -0.0720 -0.3662 -0.9788
16876TIP3    H272120   5.439   5.437   3.860  0.2756  0.0115  1.1729
16877TIP3   OH272121   1.936   4.678  12.107  0.0542  0.1380 -0.5524
16877TIP3    H172122   1.998   4.682  12.179 -0.0546 -1.4145 -0.3368
16877TIP3    H272123   1.932   4.585  12.083 -0.7719  0.4577 -1.8004
16878TIP3   OH272124   5.509   6.007  13.352 -0.6571 -0.1808  0.5184
16878TIP3    H172125   5.585   6.045  13.308  0.2755 -1.5214  0.9084
16878TIP3    H272126   5.536   6.000  13.443 -2.3193  1.9287  1.2420
16879TIP3   OH272127   6.323   5.039  13.173 -0.3592 -0.1840  0.3534
16879TIP3    H172128   6.251   5.101  13.182 -2.1262 -2.0380 -0.2718
16879TIP3    H272129   6.296   4.963  13.224  0.8853 -1.1659 -0.3866
16880TIP3   OH272130   1.730   4.960  11.156  1.0277 -0.7147  0.6032
16880TIP3    H172131   1.765   5.000  11.077  0.7700  0.0258  0.8508
16880TIP3    H272132   1.799   4.971  11.221  0.2929  1.0311  1.1806
16881TIP3   OH272133   1.326   3.723  12.325 -0.3699  0.2122 -0.1613
16881TIP3    H172134   1.295   3.813  12.334 -0.3180  0.4158 -1.6777
16881TIP3    H272135   1.359   3.699  12.412 -0.8275  1.4848  0.3771
16882TIP3   OH272136   5.861   3.454  11.702 -0.1126 -0.2825  0.2900
16882TIP3    H172137   5.890   3.419  11.618 -0.3120 -0.7528  0.4146
16882TIP3    H272138   5.798   3.523  11.680 -0.2595 -0.4908  0.0576
16883TIP3   OH272139   0.623   2.622  12.218  0.1616  0.4151 -0.1724
16883TIP3    H172140   0.628   2.650  12.309  0.7285  2.3726 -0.7593
16883TIP3    H272141   0.701   2.569  12.205  0.7483  1.1907  0.1445
16884TIP3   OH272142   3.044   6.088  13.398  0.2715 -0.4285 -0.0962
16884TIP3    H172143   3.017   6.175  13.428 -0.6542 -0.1120 -1.7158
16884TIP3    H272144   3.117   6.065  13.455  0.2826  1.2344  0.6342
16885TIP3   OH272145   0.265   3.927   3.924  0.5909  0.8381 -0.2831
16885TIP3    H172146   0.203   3.971   3.866 -0.5603  0.6875  0.7760
16885TIP3    H272147   0.339   3.987   3.931  0.1107  1.4992 -0.7753
16886TIP3   OH272148   3.189   2.772  11.740 -0.5267 -0.2216  0.4202
16886TIP3    H172149   3.200   2.711  11.668  1.1207 -1.4931  1.6693
16886TIP3    H272150   3.106   2.746  11.782 -0.3476 -0.9318  0.3293
16887TIP3   OH272151   6.039   5.440  12.385 -0.0957  0.4660 -0.2971
16887TIP3    H172152   6.047   5.455  12.291 -0.9787 -0.9223 -0.6227
16887TIP3    H272153   5.975   5.370  12.393 -1.0170  1.4186  1.4042
16888TIP3   OH272154   2.803   0.172   4.202  0.4463 -0.4027 -0.3673
16888TIP3    H172155   2.816   0.088   4.157  1.9920  0.2473 -1.1979
16888TIP3    H272156   2.730   0.156   4.263 -0.9770 -1.6380 -2.2866
16889TIP3   OH272157   6.406   0.590   1.861  0.0511 -0.1716  0.3106
16889TIP3    H172158   6.487   0.541   1.849  0.2318  0.4952 -1.4862
16889TIP3    H272159   6.374   0.606   1.772  0.0424  2.9749  0.7630
16890TIP3   OH272160   0.239   1.892   0.979  0.2387  0.0854 -0.2210
16890TIP3    H172161   0.306   1.886   1.047 -0.4800  0.4625  0.5344
16890TIP3    H272162   0.198   1.977   0.992 -0.0708  0.0643 -0.9819
16891TIP3   OH272163   2.609   3.530   5.838  0.1663  1.5774 -0.3157
16891TIP3    H172164   2.680   3.487   5.790 -0.3245 -0.4132  0.6515
16891TIP3    H272165   2.531   3.516   5.785  0.1251  1.9668 -0.3643
16892TIP3   OH272166   3.475   4.710  15.513 -0.2855  0.2026 -0.4557
16892TIP3    H172167   3.389   4.727  15.552 -0.5092  2.3344 -1.6698
16892TIP3    H272168   3.538   4.744  15.576 -0.2770 -1.5430  0.5268
16893TIP3   OH272169   0.504   4.858   3.093 -0.5414  0.4448  0.0178
16893TIP3    H172170   0.587   4.880   3.136 -1.2090  0.4278  1.3545
16893TIP3    H272171   0.498   4.921   3.021  0.8708  0.1153 -0.4353
16894TIP3   OH272172   2.054   2.517   3.648  0.2557 -0.2486 -0.0607
16894TIP3    H172173   2.001   2.511   3.727  1.2258 -0.7392  0.5713
16894TIP3    H272174   2.107   2.437   3.649 -0.1092 -0.5403 -1.5039
16895TIP3   OH272175   6.794   6.254  15.175  0.2844 -0.2024 -0.0570
16895TIP3    H172176   6.712   6.230  15.218 -0.0184  0.2669 -0.3671
16895TIP3    H272177   6.769   6.277  15.086  0.8585 -0.7987 -0.3823
16896TIP3   OH272178   1.297   0.342  13.872  0.1111  0.0777 -0.2524
16896TIP3    H172179   1.300   0.338  13.776 -0.7663  0.5300 -0.3154
16896TIP3    H272180   1.243   0.267  13.897 -0.3806  0.4413 -0.1855
16897TIP3   OH272181   0.588   6.659  16.787  0.4759 -0.4506 -0.6560
16897TIP3    H172182   0.672   6.656  16.834 -0.2672  1.6354  0.9420
16897TIP3    H272183   0.525   6.689  16.852 -1.0150  0.6017 -2.5062
16898TIP3   OH272184   0.470   0.902   5.894 -0.3360 -0.4360 -0.4753
16898TIP3    H172185   0.476   0.823   5.948 -1.1108  0.4817  1.0254
16898TIP3    H272186   0.504   0.972   5.950 -0.4142  0.4315 -1.4754
16899TIP3   OH272187   1.393   3.731  16.947  0.4043 -0.8099  0.3999
16899TIP3    H172188   1.387   3.742  16.853  0.8710  0.0468  0.4573
16899TIP3    H272189   1.327   3.666  16.969 -1.4284  0.7611 -0.2159
16900TIP3   OH272190   5.762   1.413  15.009 -0.1651 -0.2385  0.0314
16900TIP3    H172191   5.828   1.374  14.951 -0.9977  0.5558 -1.5068
16900TIP3    H272192   5.726   1.486  14.959 -1.0543  0.3785  1.5027
16901TIP3   OH272193   2.337   3.011  13.679  0.3848 -0.1758  0.0665
16901TIP3    H172194   2.251   3.038  13.646  0.6494 -0.0530 -0.5319
16901TIP3    H272195   2.327   2.918  13.698  0.5440 -0.5277 -1.4542
16902TIP3   OH272196   4.390   6.288   3.912 -0.2124 -0.2319  0.0073
16902TIP3    H172197   4.356   6.369   3.951  1.1803  0.2948  0.1928
16902TIP3    H272198   4.434   6.316   3.832 -1.9445 -1.1585 -1.3431
16903TIP3   OH272199   3.491   1.870  15.831  0.2952 -0.0825 -0.4229
16903TIP3    H172200   3.569   1.864  15.776  1.0645  0.9167  0.5195
16903TIP3    H272201   3.500   1.954  15.877  0.1547 -1.2692  1.9098
16904TIP3   OH272202   5.097   2.523   0.138 -0.6015 -0.0652 -0.9873
16904TIP3    H172203   5.116   2.438   0.100 -1.0120 -0.1570 -0.9908
16904TIP3    H272204   5.156   2.584   0.092  0.8414 -0.5659  0.1223
16905TIP3   OH272205   1.498   3.665  11.040  0.3404 -0.2300  0.3123
16905TIP3    H172206   1.513   3.721  10.965  0.1747 -1.2200 -0.4797
16905TIP3    H272207   1.432   3.710  11.092 -0.3157 -0.0322 -0.6784
16906TIP3   OH272208   2.282   1.224   2.817 -0.7369  0.5274 -0.5628
16906TIP3    H172209   2.226   1.206   2.742 -0.5877  2.5903 -1.2119
16906TIP3    H272210   2.232   1.284   2.872 -0.3368  0.0252  0.3893
16907TIP3   OH272211   5.363   4.836  14.129 -0.6523 -0.3519  0.6032
16907TIP3    H172212   5.383   4.923  14.094 -0.4528 -0.4376  0.5001
16907TIP3    H272213   5.428   4.779  14.088  0.2630 -0.2947  1.9192
16908TIP3   OH272214   2.335   3.862   1.651 -0.0405 -0.1384 -0.2879
16908TIP3    H172215   2.279   3.904   1.716  0.8413  1.1966 -0.3583
16908TIP3    H272216   2.275   3.840   1.579 -0.6042  0.6076 -0.0634
16909TIP3   OH272217   2.294   0.272   3.168  0.3199 -0.0810 -0.0971
16909TIP3    H172218   2.315   0.187   3.130 -0.2542 -0.3804  0.2323
16909TIP3    H272219   2.378   0.304   3.202  0.1800 -1.5947  1.8813
16910TIP3   OH272220   5.296   1.819  14.028 -0.3094  0.0270  0.8209
16910TIP3    H172221   5.305   1.883  14.099  1.6782 -2.0214  2.5728
16910TIP3    H272222   5.365   1.755  14.045  0.9093 -0.1353 -3.5446
16911TIP3   OH272223   2.734   1.452  13.929  0.4904 -0.1854  0.0510
16911TIP3    H172224   2.643   1.480  13.924  0.0818 -0.9468  2.0216
16911TIP3    H272225   2.755   1.459  14.022  2.8643  1.1727 -0.5167
16912TIP3   OH272226   5.027   0.491  14.151 -0.1055  0.2999  0.3603
16912TIP3    H172227   5.015   0.399  14.127 -0.8609  0.5970 -0.4292
16912TIP3    H272228   5.070   0.530  14.076  3.3013 -0.0622  1.9196
16913TIP3   OH272229   1.303   5.791   4.660  0.4012 -0.3315 -0.6412
16913TIP3    H172230   1.217   5.748   4.657 -0.7657  1.6674  1.4598
16913TIP3    H272231   1.365   5.718   4.664 -1.3489 -1.8524  0.6796
16914TIP3   OH272232   5.500   0.137   6.238  0.1046 -0.4043  0.2861
16914TIP3    H172233   5.444   0.080   6.184 -0.0832 -0.2627  0.3295
16914TIP3    H272234   5.469   0.225   6.219 -0.1296 -0.3725  0.8151
16915TIP3   OH272235   5.373   5.898   1.594 -0.1038 -0.0864  0.0387
16915TIP3    H172236   5.298   5.908   1.535  0.4115 -0.5462 -0.7102
16915TIP3    H272237   5.428   5.974   1.576 -0.3546  0.2235  0.5519
16916TIP3   OH272238   0.310   1.510  15.630 -0.0377 -0.0972 -0.1024
16916TIP3    H172239   0.235   1.456  15.607  1.6337 -3.1242  0.9546
16916TIP3    H272240   0.300   1.526  15.724  1.0494 -1.4234  0.2826
16917TIP3   OH272241   3.385   3.343  11.889  0.4299  0.0947  0.2798
16917TIP3    H172242   3.371   3.434  11.918 -2.1399 -0.8571  2.4352
16917TIP3    H272243   3.468   3.318  11.931 -0.1447  0.6999  1.8876
16918TIP3   OH272244   4.858   5.179  16.019 -0.4843 -0.1440 -0.2863
16918TIP3    H172245   4.888   5.260  15.977 -1.0698  2.2400  3.4271
16918TIP3    H272246   4.937   5.143  16.059 -0.7588  0.4214  0.7888
16919TIP3   OH272247   0.919   5.245   4.121 -0.2147  0.4988  0.3925
16919TIP3    H172248   0.975   5.280   4.052 -2.1583  3.2336  0.0692
16919TIP3    H272249   0.830   5.257   4.089 -1.2227  1.9146  3.3468
16920TIP3   OH272250   4.563   5.464   5.873 -0.2397 -0.3112 -0.5712
16920TIP3    H172251   4.531   5.552   5.853  1.6516  0.2138 -1.5571
16920TIP3    H272252   4.576   5.423   5.788  0.0919 -1.0746 -0.1617
16921TIP3   OH272253   5.900   5.215  16.373  0.0803 -0.1476 -0.0322
16921TIP3    H172254   5.915   5.303  16.407  1.7002  0.9082 -3.1322
16921TIP3    H272255   5.935   5.157  16.441 -2.3043  1.3716  2.7584
16922TIP3   OH272256   6.555   6.589  14.489 -0.3359  0.1261  0.0379
16922TIP3    H172257   6.518   6.515  14.440 -1.1902  0.2419  0.5023
16922TIP3    H272258   6.492   6.660  14.476 -1.3431 -0.2438  2.4594
16923TIP3   OH272259   3.111   6.407   0.597  0.8871 -0.5437  0.1639
16923TIP3    H172260   3.174   6.336   0.604  0.0501 -1.2449  0.9418
16923TIP3    H272261   3.080   6.420   0.687  0.3306  0.1507 -0.1174
16924TIP3   OH272262   6.823   4.307   2.031 -0.5151  0.2772 -0.2268
16924TIP3    H172263   6.900   4.285   2.083 -0.3835  0.1816 -0.4591
16924TIP3    H272264   6.820   4.403   2.033  1.1712  0.4647 -2.3885
16925TIP3   OH272265   0.181   4.678  10.844 -0.1274  0.0415 -1.0138
16925TIP3    H172266   0.259   4.637  10.881  0.4614  1.3931 -0.6847
16925TIP3    H272267   0.183   4.768  10.877 -1.1505  0.4601 -2.0115
16926TIP3   OH272268   0.499   2.281  16.637 -0.1449  0.0057  0.5970
16926TIP3    H172269   0.585   2.244  16.620  0.1925  1.2895 -0.6716
16926TIP3    H272270   0.440   2.229  16.582 -0.1727 -0.6994  1.2667
16927TIP3   OH272271   0.408   1.288  16.366  0.1165 -0.2119  0.2807
16927TIP3    H172272   0.429   1.381  16.366 -1.2793  0.1617 -1.5485
16927TIP3    H272273   0.354   1.275  16.444 -1.8102  1.1045 -0.7573
16928TIP3   OH272274   4.746   4.262  16.025 -0.3188  0.6770  0.3447
16928TIP3    H172275   4.667   4.241  16.076 -0.9614  1.3376 -0.3434
16928TIP3    H272276   4.756   4.188  15.965  0.3191 -0.0028  1.2700
16929TIP3   OH272277   5.820   0.586  15.779  0.1408  0.1451 -0.2652
16929TIP3    H172278   5.862   0.541  15.852 -0.1023 -0.5478 -0.5460
16929TIP3    H272279   5.768   0.654  15.820 -1.1532 -1.1567  0.3379
16930TIP3   OH272280   0.976   4.340  13.812 -0.1849 -0.0911 -0.0970
16930TIP3    H172281   0.964   4.323  13.906 -0.1452 -0.4790 -0.1591
16930TIP3    H272282   1.053   4.287  13.788  0.2043  0.5108 -0.2109
16931TIP3   OH272283   3.023   1.381  13.933 -0.3269 -0.0191 -0.2949
16931TIP3    H172284   3.014   1.303  13.987  0.4995 -0.2661 -0.4870
16931TIP3    H272285   2.937   1.394  13.893 -0.6277 -0.4895  0.1949
16932TIP3   OH272286   5.647   0.566   1.644 -0.0520 -0.2001  0.1323
16932TIP3    H172287   5.575   0.503   1.639 -1.9817  1.5955  2.7256
16932TIP3    H272288   5.723   0.517   1.613 -1.8439 -3.0587 -0.1727
16933TIP3   OH272289   1.516   4.191   3.067 -0.1512 -0.4656 -0.1530
16933TIP3    H172290   1.507   4.271   3.118 -1.6364 -2.1432  2.4462
16933TIP3    H272291   1.538   4.123   3.131  1.8884 -2.0894 -2.3366
16934TIP3   OH272292   1.454   3.865   5.917  0.5312 -0.0905 -0.5139
16934TIP3    H172293   1.455   3.769   5.925 -2.2531 -0.1052  0.7125
16934TIP3    H272294   1.487   3.897   6.001 -1.4964 -0.0502  0.3131
16935TIP3   OH272295   0.117   5.781  11.210 -0.0283  0.5555  0.0317
16935TIP3    H172296   0.096   5.750  11.298 -0.0378  1.6997  0.4478
16935TIP3    H272297   0.059   5.855  11.196  0.6497  0.9946 -0.5533
16936TIP3   OH272298   4.069   2.694  16.471 -0.7253  0.3556  0.2161
16936TIP3    H172299   4.079   2.788  16.488  0.7228 -0.0395  1.8808
16936TIP3    H272300   4.110   2.680  16.386  0.2938  1.0328  0.5757
16937TIP3   OH272301   0.406   4.950   2.769 -0.1990  0.1930 -0.3217
16937TIP3    H172302   0.497   4.968   2.794  0.5374 -1.8469 -1.3374
16937TIP3    H272303   0.402   4.855   2.759 -2.1515  0.3413 -1.4546
16938TIP3   OH272304   4.665   4.552   0.649  0.0536 -0.7158  0.9169
16938TIP3    H172305   4.571   4.540   0.636 -0.2039  0.3720  1.6433
16938TIP3    H272306   4.700   4.463   0.656 -0.4832 -1.2405 -2.0466
16939TIP3   OH272307   3.509   1.383  14.071  0.3158 -0.7848 -0.5593
16939TIP3    H172308   3.532   1.334  14.150  0.1147 -1.4899 -0.9295
16939TIP3    H272309   3.414   1.389  14.073  0.3354 -0.4951 -0.5637
16940TIP3   OH272310   3.146   0.757  11.721 -0.2193  1.1396 -0.3744
16940TIP3    H172311   3.132   0.697  11.794  0.3812  1.5858  0.1227
16940TIP3    H272312   3.241   0.770  11.719 -0.3314  1.9981 -0.5300
16941TIP3   OH272313   1.980   2.653   3.412  0.1243 -0.1807  0.1082
16941TIP3    H172314   2.019   2.612   3.490  0.4961 -1.5616 -0.7622
16941TIP3    H272315   1.947   2.579   3.361 -2.2635  0.8400  0.0589
16942TIP3   OH272316   2.531   2.779  10.508 -0.6517  0.4363 -0.0481
16942TIP3    H172317   2.450   2.738  10.539 -0.4432  0.3181  0.3446
16942TIP3    H272318   2.578   2.801  10.587  1.2386 -2.5268 -0.1833
16943TIP3   OH272319   1.458   5.897  12.166 -0.0824  0.1827 -0.1024
16943TIP3    H172320   1.497   5.983  12.147  0.2492  0.8254  2.9327
16943TIP3    H272321   1.438   5.860  12.080  3.0093  1.7810 -1.6701
16944TIP3   OH272322   1.923   0.125  10.547  0.3364 -0.4258 -0.2042
16944TIP3    H172323   1.837   0.084  10.556  0.5575 -1.2129 -1.4604
16944TIP3    H272324   1.974   0.090  10.620 -0.7796  1.1396  1.4210
16945TIP3   OH272325   6.640   5.132   2.177  0.1855 -0.6392  0.7978
16945TIP3    H172326   6.726   5.127   2.220  0.5471 -0.7519  0.0849
16945TIP3    H272327   6.659   5.169   2.091 -0.2093 -2.2599 -0.0355
16946TIP3   OH272328   1.979   2.783   0.367  0.0252 -0.1592  0.3678
16946TIP3    H172329   2.049   2.754   0.309 -1.7109 -0.0426 -1.9134
16946TIP3    H272330   2.000   2.875   0.385  1.0343 -0.4299  0.6479
16947TIP3   OH272331   3.042   2.824   0.708  0.0252 -0.0895  0.4645
16947TIP3    H172332   2.956   2.803   0.671 -0.8678  0.8042  1.8813
16947TIP3    H272333   3.075   2.741   0.741  1.1553 -1.0558 -2.7259
16948TIP3   OH272334   5.915   1.065   2.862  0.1915  0.3248  0.2673
16948TIP3    H172335   5.861   1.034   2.789  0.5192 -1.0918  0.6006
16948TIP3    H272336   6.000   1.023   2.849  0.0330 -0.5859  1.8474
16949TIP3   OH272337   5.069   2.135  13.476  0.1677 -0.7546 -0.4567
16949TIP3    H172338   4.979   2.110  13.457  0.4181 -2.0732  0.0048
16949TIP3    H272339   5.122   2.059  13.450  1.1053 -0.1593 -0.3469
16950TIP3   OH272340   1.540   3.083   6.287 -0.7667 -0.2716  0.3338
16950TIP3    H172341   1.568   3.060   6.198 -0.8198 -0.6738  0.4172
16950TIP3    H272342   1.470   3.021   6.307 -0.6587 -0.2778  0.7084
16951TIP3   OH272343   1.965   4.025  14.059  0.1880  0.0512  0.5716
16951TIP3    H172344   1.874   4.027  14.030  0.6270  0.6744 -0.9080
16951TIP3    H272345   1.999   3.942  14.026  0.4306  0.3183  0.1282
16952TIP3   OH272346   2.639   4.360  13.165  0.5931 -0.2172  0.7638
16952TIP3    H172347   2.720   4.394  13.128  1.4436 -0.0408  2.7027
16952TIP3    H272348   2.581   4.436  13.171  0.7228 -0.0997  0.5307
16953TIP3   OH272349   4.145   0.255   4.494 -0.3439 -0.4374  0.2610
16953TIP3    H172350   4.066   0.208   4.524 -0.0091  0.2419  2.3679
16953TIP3    H272351   4.211   0.186   4.485 -0.8018 -0.8302 -0.2080
16954TIP3   OH272352   6.307   3.114  10.676 -0.5389  0.1107 -0.0320
16954TIP3    H172353   6.380   3.129  10.616 -0.3585 -0.8087 -0.0606
16954TIP3    H272354   6.236   3.169  10.642  0.2722  1.3859  0.2725
16955TIP3   OH272355   3.731   0.903   1.714  0.1378 -0.3945  0.1228
16955TIP3    H172356   3.731   0.870   1.804 -0.1526  0.0651  0.2913
16955TIP3    H272357   3.750   0.996   1.722  1.8225 -0.6553 -0.4146
16956TIP3   OH272358   4.235   0.424  13.381  0.2337 -0.3489  0.3479
16956TIP3    H172359   4.321   0.393  13.411 -0.0618 -0.8203  0.7252
16956TIP3    H272360   4.229   0.513  13.413  1.4220  0.4187 -1.4033
16957TIP3   OH272361   2.212   2.329   0.682  0.0864 -0.1743 -0.0605
16957TIP3    H172362   2.290   2.376   0.654 -0.8412  0.3913 -1.8839
16957TIP3    H272363   2.222   2.241   0.646  0.3970 -0.4682  0.7138
16958TIP3   OH272364   2.924   0.855  15.811 -0.5474  0.6093 -0.1754
16958TIP3    H172365   2.965   0.881  15.893 -1.7264  3.6679 -0.4057
16958TIP3    H272366   2.995   0.860  15.747 -0.0003 -0.0884  0.3667
16959TIP3   OH272367   6.331   0.184   4.503  0.1487  0.5448 -0.3175
16959TIP3    H172368   6.239   0.158   4.507  0.9093 -2.4675  0.1366
16959TIP3    H272369   6.351   0.215   4.592 -0.7755  2.9517 -0.8639
16960TIP3   OH272370   6.111   6.609  14.230 -0.2025  0.0696  0.0313
16960TIP3    H172371   6.128   6.518  14.255 -0.6198  0.1419  0.6130
16960TIP3    H272372   6.189   6.657  14.258  0.5929 -0.2930 -1.4524
16961TIP3   OH272373   4.373   3.253  11.408 -0.0350 -0.5912 -0.0257
16961TIP3    H172374   4.457   3.239  11.452  1.4556  0.9932 -2.1650
16961TIP3    H272375   4.358   3.347  11.414 -0.7042 -0.5994 -1.2592
16962TIP3   OH272376   4.213   3.449  16.612 -0.5932 -1.2369  0.0498
16962TIP3    H172377   4.191   3.539  16.636 -2.0281 -1.5824  0.1584
16962TIP3    H272378   4.282   3.458  16.547 -2.1297  0.0609 -1.5106
16963TIP3   OH272379   4.957   1.354  16.783  0.3810 -0.7207  0.8459
16963TIP3    H172380   4.959   1.275  16.729 -0.5923  0.5438 -1.1610
16963TIP3    H272381   4.874   1.349  16.829  0.0847 -0.6327  0.3304
16964TIP3   OH272382   3.794   6.149  15.170  0.2846  0.0728 -0.5371
16964TIP3    H172383   3.750   6.074  15.129 -0.8002  0.3446  0.0992
16964TIP3    H272384   3.870   6.111  15.214  1.7681 -0.1859 -3.0901
16965TIP3   OH272385   2.486   6.836  17.011  0.5496 -0.2728 -0.4337
16965TIP3    H172386   2.414   6.852  16.949 -0.3512  0.4134  0.7615
16965TIP3    H272387   2.450   6.860  17.096  1.9182 -0.7859  0.3115
16966TIP3   OH272388   3.242   6.227  12.887 -0.1327 -0.3420  0.2485
16966TIP3    H172389   3.238   6.298  12.823  0.3296 -0.6133 -0.0808
16966TIP3    H272390   3.165   6.173  12.868  0.3310 -0.7617 -0.4806
16967TIP3   OH272391   4.334   4.755  10.899  0.6129  0.2386  0.0990
16967TIP3    H172392   4.339   4.840  10.856 -0.4326  1.2829  1.9065
16967TIP3    H272393   4.357   4.692  10.831  0.7509  1.9061 -1.4700
16968TIP3   OH272394   3.600   2.824  11.129 -0.9678 -0.6176 -0.3870
16968TIP3    H172395   3.512   2.858  11.115 -0.4500  0.0479 -2.3184
16968TIP3    H272396   3.638   2.817  11.041  0.3025 -2.5787  0.2359
16969TIP3   OH272397   4.317   1.404  16.387  0.2842  0.3219 -0.2920
16969TIP3    H172398   4.297   1.313  16.366  1.8399 -0.0840 -0.1089
16969TIP3    H272399   4.357   1.401  16.474 -1.7587  1.4744  0.7868
16970TIP3   OH272400   6.689   1.964   0.399 -0.1178  0.1723  0.4224
16970TIP3    H172401   6.699   1.896   0.333 -0.1474  0.0877  0.5038
16970TIP3    H272402   6.769   2.017   0.392 -0.4639  0.6164 -0.1905
16971TIP3   OH272403   3.407   4.856   2.123 -0.2983 -0.2034 -0.5331
16971TIP3    H172404   3.442   4.775   2.161  1.4146  0.9344  0.4493
16971TIP3    H272405   3.444   4.858   2.035 -0.7254 -0.7142 -0.7269
16972TIP3   OH272406   2.457   3.904  16.329 -0.1521  0.2434 -0.2773
16972TIP3    H172407   2.409   3.871  16.405 -2.3965 -4.5721 -3.2657
16972TIP3    H272408   2.520   3.835  16.308  0.2746  1.2798 -2.8309
16973TIP3   OH272409   0.794   4.784   0.515  0.1218  0.2606  0.3347
16973TIP3    H172410   0.819   4.875   0.526  0.0531  0.1567  1.5565
16973TIP3    H272411   0.873   4.734   0.535  0.3725  0.0479 -1.0690
16974TIP3   OH272412   3.069   4.516   0.390  0.6369  0.5779  0.3545
16974TIP3    H172413   3.084   4.434   0.438 -0.3838  0.2336  0.1057
16974TIP3    H272414   3.077   4.584   0.456  0.6870  0.2174  0.7253
16975TIP3   OH272415   2.884   5.333  14.345  0.6667  0.1232 -0.3290
16975TIP3    H172416   2.923   5.387  14.277 -2.3321  2.6502 -0.2643
16975TIP3    H272417   2.890   5.387  14.424 -2.8759  0.7721 -0.3722
16976TIP3   OH272418   4.445   5.430  12.723  0.6793  0.2702  0.3161
16976TIP3    H172419   4.404   5.363  12.778  0.9797 -0.2660 -0.1001
16976TIP3    H272420   4.401   5.422  12.639  0.4534  0.8633  0.3725
16977TIP3   OH272421   1.561   4.638  14.078 -0.1588 -0.1234 -0.2078
16977TIP3    H172422   1.537   4.711  14.134 -1.1562 -0.7173  0.1537
16977TIP3    H272423   1.517   4.655  13.995 -0.8394 -0.5774  0.0518
16978TIP3   OH272424   3.360   1.962   0.521  0.7180 -0.2843  0.2076
16978TIP3    H172425   3.316   1.895   0.468 -0.2392  0.3808  0.1503
16978TIP3    H272426   3.433   1.991   0.466 -2.0195  2.6629 -2.2734
16979TIP3   OH272427   0.916   3.227  14.726 -0.2171 -0.4162  0.0337
16979TIP3    H172428   0.909   3.141  14.685  3.6361 -0.5257 -0.6768
16979TIP3    H272429   0.884   3.288  14.659 -0.9455 -1.0947 -0.2589
16980TIP3   OH272430   1.551   0.947  14.880 -0.5917  0.3701  0.0397
16980TIP3    H172431   1.564   0.853  14.876 -0.4814  0.3642  0.5151
16980TIP3    H272432   1.485   0.965  14.813 -0.9849 -0.1115  0.2968
16981TIP3   OH272433   1.197   5.584  10.736 -0.8069 -0.0200 -0.3179
16981TIP3    H172434   1.210   5.678  10.724 -1.8835  0.2985  0.7976
16981TIP3    H272435   1.103   5.575  10.751 -0.7725 -1.3288 -0.7871
16982TIP3   OH272436   2.327   2.437   1.830 -0.1751  0.3422 -0.7015
16982TIP3    H172437   2.379   2.513   1.805  1.5372 -0.4274  0.3921
16982TIP3    H272438   2.334   2.433   1.926 -1.3604 -0.4241 -0.6208
16983TIP3   OH272439   3.665   0.141  16.670  0.1442 -0.3641  0.2145
16983TIP3    H172440   3.679   0.145  16.764  0.0131 -0.0958  0.2226
16983TIP3    H272441   3.702   0.222  16.636  0.0264 -0.3749  0.0580
16984TIP3   OH272442   3.460   5.418  14.493 -0.4813  0.5272  0.1039
16984TIP3    H172443   3.386   5.357  14.489  0.5268 -0.7272  0.1310
16984TIP3    H272444   3.443   5.470  14.572 -2.1482  1.3751 -0.7453
16985TIP3   OH272445   6.589   3.060   1.341 -0.3264 -0.2681 -0.0794
16985TIP3    H172446   6.568   3.132   1.402  0.7309  0.9777 -1.1145
16985TIP3    H272447   6.684   3.055   1.342 -0.3417 -0.8854 -0.9079
16986TIP3   OH272448   0.212   1.941   5.466  0.5774  0.2532 -0.3104
16986TIP3    H172449   0.280   1.892   5.512  1.1653  1.4129  0.0909
16986TIP3    H272450   0.159   1.874   5.423  1.2576 -0.7347  0.3548
16987TIP3   OH272451   6.847   2.074  15.347 -0.5238  0.1063 -0.1266
16987TIP3    H172452   6.818   1.998  15.296 -0.1841 -0.8824  1.1096
16987TIP3    H272453   6.940   2.081  15.329 -0.7940  1.0120 -1.2161
16988TIP3   OH272454   0.683   3.283   4.121  0.2407  0.5119 -0.3649
16988TIP3    H172455   0.645   3.331   4.048  0.7939  0.3016 -0.7969
16988TIP3    H272456   0.615   3.286   4.189 -0.4588  0.3383 -1.0354
16989TIP3   OH272457   5.446   5.393  11.428 -0.2334 -0.4193 -0.1312
16989TIP3    H172458   5.362   5.440  11.425  1.2076  2.4011 -0.4252
16989TIP3    H272459   5.430   5.313  11.380 -2.5080  0.4761 -1.0395
16990TIP3   OH272460   4.813   0.606   4.921 -0.5214  0.4549  0.1803
16990TIP3    H172461   4.894   0.655   4.939  0.5024 -1.0142 -0.2279
16990TIP3    H272462   4.791   0.631   4.831  1.6048 -1.8726 -1.1028
16991TIP3   OH272463   1.232   6.693   6.654  0.2554 -0.1709  0.2916
16991TIP3    H172464   1.153   6.744   6.666  0.2391 -0.2477  0.5307
16991TIP3    H272465   1.285   6.744   6.593  1.2680  1.3518  2.2950
16992TIP3   OH272466   6.200   0.307   6.159  0.9132 -0.2877 -0.3760
16992TIP3    H172467   6.176   0.338   6.246  3.6158  0.5903  0.1566
16992TIP3    H272468   6.169   0.216   6.156 -0.1267 -0.0034  1.0948
16993TIP3   OH272469   2.680   2.567  11.958  0.1338  0.0370  0.0189
16993TIP3    H172470   2.669   2.594  12.050  0.5387  2.0749 -0.4897
16993TIP3    H272471   2.691   2.472  11.963 -1.2897 -0.1035  1.9480
16994TIP3   OH272472   4.103   5.112   5.014  0.0465  0.1377 -0.4886
16994TIP3    H172473   4.010   5.130   5.024  0.1859  1.1760 -0.8813
16994TIP3    H272474   4.134   5.181   4.955  1.0312 -0.2751 -0.4667
16995TIP3   OH272475   4.936   2.091  11.842 -0.1958  0.0981  0.5078
16995TIP3    H172476   4.982   2.132  11.769 -1.1636 -0.4488 -0.4443
16995TIP3    H272477   4.911   2.004  11.809  0.1116 -0.5108  1.7996
16996TIP3   OH272478   4.653   3.179   0.372  0.6537 -0.1381 -0.2552
16996TIP3    H172479   4.682   3.089   0.360  0.5832  0.0219 -1.8330
16996TIP3    H272480   4.734   3.229   0.382  0.8069 -0.1084 -1.5194
16997TIP3   OH272481   5.019   6.828   4.912 -0.3206  0.2568  0.3619
16997TIP3    H172482   5.060   6.831   4.998 -0.0124  1.8377  0.1947
16997TIP3    H272483   5.091   6.810   4.851 -0.2758  0.6484  0.2965
16998TIP3   OH272484   2.855   1.284  13.164 -0.4886 -0.0102  0.0897
16998TIP3    H172485   2.852   1.379  13.181 -1.9832  0.0272 -0.2334
16998TIP3    H272486   2.763   1.258  13.162 -0.3374 -0.7765 -3.6266
16999TIP3   OH272487   6.341   1.048   5.697  0.3113  0.4066 -0.1684
16999TIP3    H172488   6.425   1.087   5.723  0.7457 -0.0794 -0.7890
16999TIP3    H272489   6.343   0.960   5.734 -0.4447  0.7858  0.7989
17000TIP3   OH272490   2.639   4.718   0.679 -0.1005 -0.7779 -0.5290
17000TIP3    H172491   2.696   4.650   0.643  0.2008 -1.2653  0.8334
17000TIP3    H272492   2.688   4.799   0.665 -0.0275 -0.9447 -1.2768
17001TIP3   OH272493   6.217   2.353   0.860 -0.9056  0.1808  0.2474
17001TIP3    H172494   6.231   2.269   0.816 -3.0532 -0.0610 -0.1166
17001TIP3    H272495   6.289   2.361   0.922 -0.0720 -1.4256 -0.4612
17002TIP3   OH272496   5.663   3.323   6.420  0.3303  0.0269  0.4378
17002TIP3    H172497   5.639   3.231   6.421  0.8206 -0.1257  2.4329
17002TIP3    H272498   5.587   3.369   6.456  0.2947  0.3631 -0.0459
17003TIP3   OH272499   4.192   0.421  12.256 -0.0446  0.2351  0.5247
17003TIP3    H172500   4.107   0.418  12.300  0.3358  0.1126  1.2766
17003TIP3    H272501   4.251   0.376  12.316  0.5666  0.3699  0.0341
17004TIP3   OH272502   1.746   5.858  12.277 -0.0797 -0.3770  0.2302
17004TIP3    H172503   1.660   5.843  12.316 -1.3657 -0.0532 -2.2787
17004TIP3    H272504   1.771   5.945  12.307 -0.5174 -0.5515  1.1441
17005TIP3   OH272505   4.945   1.476   3.865 -0.2525  0.0342  0.2175
17005TIP3    H172506   5.034   1.512   3.858 -0.9294  1.6520 -0.7009
17005TIP3    H272507   4.957   1.382   3.860  1.5670  0.1066  1.9086
17006TIP3   OH272508   1.430   2.573  16.565  0.1547 -0.1824 -0.1635
17006TIP3    H172509   1.424   2.501  16.502 -0.9584 -1.3219  1.1715
17006TIP3    H272510   1.479   2.537  16.638  3.8405  1.9340 -1.3103
17007TIP3   OH272511   5.781   0.778  16.804  0.5862  0.0720 -0.4698
17007TIP3    H172512   5.860   0.765  16.855  0.0841  2.5614  1.0906
17007TIP3    H272513   5.797   0.857  16.753 -0.5640  0.1221 -0.7878
17008TIP3   OH272514   1.540   1.441   2.761  0.5925 -0.6847 -0.4849
17008TIP3    H172515   1.479   1.422   2.832 -1.2152  0.7501 -1.5527
17008TIP3    H272516   1.584   1.358   2.744 -1.3631 -1.9064  0.0943
17009TIP3   OH272517   2.433   0.744   6.672 -0.2504  0.3318 -1.3698
17009TIP3    H172518   2.402   0.716   6.758  3.0394 -0.4583 -0.2798
17009TIP3    H272519   2.453   0.663   6.626  0.9458  0.7728 -1.6564
17010TIP3   OH272520   1.697   4.882   3.024 -0.2030 -0.1197 -0.0393
17010TIP3    H172521   1.658   4.873   3.110  0.5352  0.0637  0.3240
17010TIP3    H272522   1.733   4.795   3.005 -0.7914 -0.2944 -0.3806
17011TIP3   OH272523   1.550   2.923   3.050 -0.3856  0.2689 -0.5860
17011TIP3    H172524   1.635   2.886   3.029 -0.9941 -0.7457 -1.3451
17011TIP3    H272525   1.487   2.857   3.021 -1.5155  1.8996 -2.0993
17012TIP3   OH272526   3.972   0.584   2.946 -0.0653  0.4460 -0.0216
17012TIP3    H172527   4.037   0.651   2.924 -0.0056 -0.0530 -1.4729
17012TIP3    H272528   3.943   0.550   2.861 -1.5011 -0.0314  0.6339
17013TIP3   OH272529   5.977   1.318   5.884 -0.4384 -0.5834  0.0388
17013TIP3    H172530   5.920   1.379   5.931  2.0978  0.6623  1.7392
17013TIP3    H272531   5.994   1.360   5.800 -0.0043  0.3050  0.5592
17014TIP3   OH272532   4.464   4.936  11.643  0.2604 -0.3953  0.3167
17014TIP3    H172533   4.519   4.920  11.720 -0.4882 -0.0019  0.9612
17014TIP3    H272534   4.519   4.987  11.584  0.8052 -0.5849  0.6502
17015TIP3   OH272535   4.122   6.740   4.836  0.1034  0.4441  0.1037
17015TIP3    H172536   4.191   6.791   4.878 -1.5008  1.2030  1.9481
17015TIP3    H272537   4.118   6.659   4.887 -0.1450  0.2442 -0.2272
17016TIP3   OH272538   5.355   2.528  11.594 -0.4029  0.1904 -0.0435
17016TIP3    H172539   5.416   2.531  11.668  0.5657  1.7635 -0.8476
17016TIP3    H272540   5.287   2.466  11.621  0.6406 -0.3033  1.5901
17017TIP3   OH272541   1.322   1.132   6.239 -0.1906 -0.0615  0.1644
17017TIP3    H172542   1.314   1.105   6.331 -0.3994 -1.1327 -0.1514
17017TIP3    H272543   1.317   1.227   6.241 -0.5100 -0.0886  1.2359
17018TIP3   OH272544   2.754   3.595  12.050  0.0888 -0.1751  0.3106
17018TIP3    H172545   2.819   3.657  12.017 -0.6421  1.1985  1.3624
17018TIP3    H272546   2.694   3.581  11.976  0.0260  0.7119  0.1813
17019TIP3   OH272547   2.078   3.309  11.337 -0.1605 -0.0364  0.2846
17019TIP3    H172548   2.056   3.330  11.427 -0.9707  1.1085 -0.1600
17019TIP3    H272549   2.002   3.337  11.286  1.1611  1.3713 -0.9927
17020TIP3   OH272550   4.286   3.354  13.165 -0.5355  0.0441 -0.0446
17020TIP3    H172551   4.321   3.352  13.254 -0.4530  0.9017 -0.0506
17020TIP3    H272552   4.201   3.397  13.174 -0.5344  0.1183 -0.3795
17021TIP3   OH272553   0.321   0.680   0.060  0.0234  0.1251 -0.2713
17021TIP3    H172554   0.354   0.610   0.116 -0.4595  0.4948  0.4907
17021TIP3    H272555   0.316   0.757   0.118  0.1051  0.6715 -0.9748
17022TIP3   OH272556   1.361   5.461  10.540  0.1875 -0.1729  0.0430
17022TIP3    H172557   1.381   5.373  10.571 -0.2393 -0.6167 -0.8882
17022TIP3    H272558   1.308   5.500  10.610  0.0729 -0.7918  0.3035
17023TIP3   OH272559   3.834   1.798  12.488 -0.3542 -0.6315 -0.0395
17023TIP3    H172560   3.875   1.772  12.406 -0.7390 -0.2198 -0.3664
17023TIP3    H272561   3.821   1.716  12.535  0.2474 -0.8284 -0.2061
17024TIP3   OH272562   5.234   1.642   5.083  0.4628 -0.3242 -0.2487
17024TIP3    H172563   5.190   1.724   5.063  1.4330  0.1789 -0.3864
17024TIP3    H272564   5.323   1.654   5.050  0.8924 -1.0675  0.5849
17025TIP3   OH272565   0.227   1.837   2.664  0.0815  0.2862 -0.2652
17025TIP3    H172566   0.200   1.757   2.617 -0.4581 -1.5324  2.8493
17025TIP3    H272567   0.201   1.908   2.606 -2.0157 -1.7023 -2.0050
17026TIP3   OH272568   3.469   5.981  12.272  0.2212  0.1168 -0.3775
17026TIP3    H172569   3.552   5.945  12.242  0.7947 -0.0082  1.2614
17026TIP3    H272570   3.436   5.916  12.335  0.2709  1.4628  1.0935
17027TIP3   OH272571   2.041   3.733  14.344  0.1774  0.0546  0.2796
17027TIP3    H172572   1.958   3.753  14.300  1.0818  0.3756 -1.3817
17027TIP3    H272573   2.093   3.813  14.333  0.7971 -0.2269  1.0957
17028TIP3   OH272574   2.853   0.953  15.409 -0.0494  0.3191  0.4902
17028TIP3    H172575   2.908   1.018  15.365  0.5667 -0.5279 -0.0051
17028TIP3    H272576   2.847   0.984  15.500  1.3610  0.3506  0.5895
17029TIP3   OH272577   1.055   0.900   1.741  0.3967  0.0076 -0.5081
17029TIP3    H172578   1.017   0.919   1.656  0.1860  0.0804 -0.3984
17029TIP3    H272579   1.143   0.867   1.722  0.1343 -0.5356 -0.7829
17030TIP3   OH272580   2.314   2.706  15.450  0.2654  0.0522 -0.3409
17030TIP3    H172581   2.242   2.663  15.404  1.1959 -1.2104 -0.6670
17030TIP3    H272582   2.329   2.651  15.527  1.1848  0.0327 -0.5257
17031TIP3   OH272583   4.542   4.599   1.062 -0.1314  0.2664  0.5204
17031TIP3    H172584   4.580   4.538   1.125 -0.6235  0.2173  0.7797
17031TIP3    H272585   4.536   4.548   0.980  1.3435  0.6108  0.1699
17032TIP3   OH272586   3.288   1.656  12.634  0.3152  0.8626 -0.0707
17032TIP3    H172587   3.351   1.712  12.590  0.9972 -0.5793 -1.0440
17032TIP3    H272588   3.206   1.671  12.586  1.1715 -1.1070 -2.4147
17033TIP3   OH272589   2.598   6.527  11.894  0.1306 -0.5407 -0.0368
17033TIP3    H172590   2.643   6.458  11.847 -1.8324 -2.0168  0.0912
17033TIP3    H272591   2.666   6.589  11.918  1.4491 -0.5362 -3.3520
17034TIP3   OH272592   5.016   4.425  12.130  0.3312 -0.0026 -0.2204
17034TIP3    H172593   5.030   4.330  12.128  1.1089  0.0453  1.5083
17034TIP3    H272594   4.955   4.439  12.202 -1.7394  0.6527 -1.9889
17035TIP3   OH272595   4.185   2.073  11.705 -0.6195 -0.0704 -0.0319
17035TIP3    H172596   4.192   2.160  11.665  2.2631 -1.2588 -2.4381
17035TIP3    H272597   4.268   2.060  11.749 -0.5837 -1.9800 -0.5783
17036TIP3   OH272598   5.522   1.242   3.282  0.0322 -0.1828 -0.1876
17036TIP3    H172599   5.584   1.242   3.355  0.1277 -0.3245 -0.2673
17036TIP3    H272600   5.438   1.219   3.321  0.3405 -1.6374 -0.3313
17037TIP3   OH272601   4.768   5.906  14.052  0.1758 -0.5418 -0.4283
17037TIP3    H172602   4.798   5.897  14.143 -0.7676  0.4009 -0.0108
17037TIP3    H272603   4.685   5.859  14.049  0.6052 -1.2939 -1.0397
17038TIP3   OH272604   2.160   0.689   0.674  0.5340 -0.2478  0.0104
17038TIP3    H172605   2.236   0.685   0.731  0.1024 -0.5891  0.5694
17038TIP3    H272606   2.090   0.722   0.730  0.7009  1.9326 -0.9599
17039TIP3   OH272607   4.790   5.127   1.684 -0.4789  0.0684  0.3573
17039TIP3    H172608   4.865   5.107   1.628  0.2462 -2.1613  1.9762
17039TIP3    H272609   4.794   5.061   1.753 -2.8661  1.0689  1.5505
17040TIP3   OH272610   2.983   5.039  13.026 -0.1588  0.2003 -0.0563
17040TIP3    H172611   3.023   4.952  13.017 -0.2776  0.2140 -0.7880
17040TIP3    H272612   2.901   5.032  12.977 -1.1318  0.1371  1.5215
17041TIP3   OH272613   0.148   5.253  10.065  0.2012 -0.1964  0.1981
17041TIP3    H172614   0.103   5.316  10.121 -1.6651  0.3111 -1.7589
17041TIP3    H272615   0.134   5.168  10.108 -0.7398  0.2313  0.7658
17042TIP3   OH272616   5.579   4.321   1.023  0.1693 -0.5444  0.2388
17042TIP3    H172617   5.624   4.238   1.036  0.5110 -0.4374 -0.2076
17042TIP3    H272618   5.496   4.297   0.983 -0.4040 -0.7802  1.5391
17043TIP3   OH272619   5.648   5.594   0.644 -0.2905 -0.2525  0.0383
17043TIP3    H172620   5.644   5.606   0.549 -2.4595  2.1385  0.3178
17043TIP3    H272621   5.729   5.637   0.669  1.9825 -3.5956 -0.8998
17044TIP3   OH272622   0.396   4.813  12.501 -0.4040 -0.4615  0.0790
17044TIP3    H172623   0.319   4.763  12.474  0.8496 -1.5225 -1.7222
17044TIP3    H272624   0.404   4.882  12.434 -0.9149  0.9391  1.3943
17045TIP3   OH272625   6.177   6.716   1.251 -0.1039 -0.3078  0.3331
17045TIP3    H172626   6.133   6.787   1.298 -1.2808 -0.7018 -0.1511
17045TIP3    H272627   6.263   6.710   1.294 -0.0785  1.2027  0.5739
17046TIP3   OH272628   0.005   5.288  14.509  0.2116 -0.2147  0.1375
17046TIP3    H172629  -0.052   5.305  14.434  0.3310 -0.6772 -0.0660
17046TIP3    H272630  -0.054   5.283  14.584 -0.0389 -0.8514 -0.0961
17047TIP3   OH272631   2.533   6.326   2.084 -0.0975  0.2566 -0.5595
17047TIP3    H172632   2.500   6.237   2.080 -0.8363  0.5701 -2.4421
17047TIP3    H272633   2.571   6.342   1.998 -0.5379  1.9513 -0.4924
17048TIP3   OH272634   2.856   1.688   2.182  0.3923 -0.4869 -0.2138
17048TIP3    H172635   2.815   1.750   2.123 -1.5503 -0.9688  0.5728
17048TIP3    H272636   2.818   1.706   2.268  1.4807 -1.2861  0.4747
17049TIP3   OH272637   2.110   1.752   2.330  0.5019 -0.1051  0.3812
17049TIP3    H172638   2.038   1.795   2.285  0.2235 -0.3177  0.6157
17049TIP3    H272639   2.176   1.737   2.262  1.1018  1.6994  0.4951
17050TIP3   OH272640   5.177   4.054  15.101 -0.5871 -0.2087 -0.1353
17050TIP3    H172641   5.258   4.013  15.129 -0.2707  0.5471  0.0840
17050TIP3    H272642   5.156   4.013  15.017  0.4367  0.1371 -0.5662
17051TIP3   OH272643   3.088   2.976   0.073 -0.4404 -0.5380 -0.2119
17051TIP3    H172644   3.143   2.941   0.143  0.1199  1.1635  0.2565
17051TIP3    H272645   3.149   3.024   0.017 -1.4479  1.7807  0.5635
17052TIP3   OH272646   4.397   2.915  14.162  0.1615 -0.5025  0.1626
17052TIP3    H172647   4.481   2.948  14.131  0.5230  0.0241  1.6543
17052TIP3    H272648   4.407   2.820  14.163 -0.1676 -0.6198 -2.1226
17053TIP3   OH272649   3.429   4.570   1.114 -0.3684 -0.0535  0.1906
17053TIP3    H172650   3.402   4.482   1.138 -0.6178  0.3564  1.4893
17053TIP3    H272651   3.524   4.566   1.108 -0.4337 -0.6114 -0.6672
17054TIP3   OH272652   2.525   6.452  15.656 -0.5155  0.5711  0.3061
17054TIP3    H172653   2.433   6.439  15.677 -0.4331 -0.3250  0.1711
17054TIP3    H272654   2.552   6.370  15.614  0.7499  0.1749  1.8053
17055TIP3   OH272655   6.340   5.930  14.432  0.5101 -0.0287 -0.1237
17055TIP3    H172656   6.301   5.905  14.516 -0.4584 -0.0259 -0.5614
17055TIP3    H272657   6.381   6.015  14.450 -1.0305  0.7234 -0.0227
17056TIP3   OH272658   5.119   3.740  14.028 -0.4162 -0.2177 -0.1063
17056TIP3    H172659   5.163   3.669  13.981  2.2630  0.7115  0.8208
17056TIP3    H272660   5.082   3.698  14.106  1.7059 -0.5665  0.7787
17057TIP3   OH272661   6.482   2.275   3.735 -0.2251 -0.0120  0.6468
17057TIP3    H172662   6.493   2.318   3.820  0.3727  0.2449  0.4407
17057TIP3    H272663   6.389   2.288   3.714 -0.1614  0.7677  0.8109
17058TIP3   OH272664   4.416   3.682  13.091  0.0592 -0.6072  0.2178
17058TIP3    H172665   4.463   3.708  13.170 -0.3055 -0.0165  0.2489
17058TIP3    H272666   4.351   3.619  13.122  0.2900 -0.8038  0.3019
17059TIP3   OH272667   2.937   4.844   2.644  0.2137  0.1706 -0.7201
17059TIP3    H172668   2.861   4.866   2.589 -0.6542 -1.2998 -0.1597
17059TIP3    H272669   2.976   4.768   2.602  0.9294  0.4381 -0.5598
17060TIP3   OH272670   0.668   3.069  15.552  0.4480 -0.3366  0.2771
17060TIP3    H172671   0.577   3.097  15.558  0.7012  0.2455  2.7117
17060TIP3    H272672   0.663   2.973  15.544 -0.3776 -0.2381 -0.4502
17061TIP3   OH272673   6.483   6.804   0.266 -0.4221 -0.4354  0.2829
17061TIP3    H172674   6.474   6.822   0.360 -0.3413  1.2760 -0.0181
17061TIP3    H272675   6.572   6.834   0.245 -0.6214 -0.3539 -0.4504
17062TIP3   OH272676   4.217   0.007  13.727  0.2182 -0.1923  0.1833
17062TIP3    H172677   4.125   0.014  13.752 -0.3920 -1.7890 -1.4274
17062TIP3    H272678   4.264  -0.003  13.810 -0.9096  1.5963  1.0996
17063TIP3   OH272679   2.730   5.900  15.431 -0.6112 -0.2564 -0.3581
17063TIP3    H172680   2.764   5.827  15.379 -0.4025  0.8554 -1.8577
17063TIP3    H272681   2.669   5.944  15.372 -0.0478  1.3189  0.1860
17064TIP3   OH272682   4.217   4.079   0.985  0.5237 -0.1225  0.1887
17064TIP3    H172683   4.219   4.145   0.916  2.6561  1.0602  1.2646
17064TIP3    H272684   4.168   4.121   1.056 -1.5954 -1.3016 -0.5118
17065TIP3   OH272685   1.686   3.768   4.065  0.1828  0.0624 -0.1713
17065TIP3    H172686   1.754   3.820   4.107  1.7936 -0.7817 -1.6231
17065TIP3    H272687   1.678   3.690   4.121 -1.4201  1.2613  1.3680
17066TIP3   OH272688   2.022   1.676  11.266 -0.3254  0.0518  0.0705
17066TIP3    H172689   2.045   1.727  11.188 -1.1818 -0.2164 -0.3768
17066TIP3    H272690   2.078   1.598  11.261 -0.3447  0.0569 -0.2594
17067TIP3   OH272691   5.634   0.224   1.064  0.0988  0.7257 -0.0972
17067TIP3    H172692   5.661   0.251   1.152  0.9711  2.1548 -0.7744
17067TIP3    H272693   5.691   0.273   1.005  1.6112 -2.3943 -1.4628
17068TIP3   OH272694   1.214   2.465  14.251  0.2617 -0.3080  0.0320
17068TIP3    H172695   1.192   2.390  14.306  2.5485 -1.7305 -0.8742
17068TIP3    H272696   1.180   2.442  14.165  0.7926 -0.2032 -0.2038
17069TIP3   OH272697   0.910   6.095   1.773  0.0700 -0.3519 -0.8852
17069TIP3    H172698   0.819   6.086   1.799  0.2587  1.2467  0.4412
17069TIP3    H272699   0.945   6.006   1.780 -1.0542 -0.7565 -0.0984
17070TIP3   OH272700   1.990   3.446  16.943  0.4451 -0.5982 -0.5259
17070TIP3    H172701   1.972   3.514  16.878  0.8850  0.2007  0.1842
17070TIP3    H272702   1.922   3.380  16.928  0.6744 -0.5396 -1.9494
17071TIP3   OH272703   4.644   2.231  12.506  0.5207 -0.1429 -0.0673
17071TIP3    H172704   4.723   2.286  12.503  0.8580 -0.6551 -1.6934
17071TIP3    H272705   4.615   2.226  12.415 -1.4582  0.0813  0.4986
17072TIP3   OH272706   4.453   4.879  15.597 -1.0480 -0.4726  0.8646
17072TIP3    H172707   4.453   4.860  15.503 -1.3003 -1.8208  1.1256
17072TIP3    H272708   4.545   4.895  15.618 -0.4785 -3.4473  0.9930
17073TIP3   OH272709   0.371   1.080  14.751 -0.7915  0.3920 -0.1831
17073TIP3    H172710   0.449   1.129  14.724 -0.8231 -0.0442 -1.0694
17073TIP3    H272711   0.297   1.134  14.721 -0.8344  0.4646  0.0474
17074TIP3   OH272712   0.800   6.696  11.094 -0.0725  0.1253  0.3893
17074TIP3    H172713   0.855   6.630  11.054 -0.8338 -0.8890  0.9657
17074TIP3    H272714   0.815   6.775  11.042 -0.1175 -0.8242 -1.1141
17075TIP3   OH272715   3.243   2.237  13.936  0.1437 -0.0129  1.0638
17075TIP3    H172716   3.182   2.302  13.971  1.5985  2.3340 -0.4937
17075TIP3    H272717   3.315   2.235  13.999  0.4534  0.4836  0.7313
17076TIP3   OH272718   4.280   6.423  12.097 -0.4253  0.3675 -0.8280
17076TIP3    H172719   4.222   6.390  12.028  0.8174 -2.3874 -0.6739
17076TIP3    H272720   4.232   6.405  12.178 -0.4145  0.4089 -0.8131
17077TIP3   OH272721   0.168   2.212   1.968  0.0745 -0.0080  1.1317
17077TIP3    H172722   0.222   2.135   1.985  0.5093  0.1894  0.6546
17077TIP3    H272723   0.227   2.286   1.978 -0.3748  0.2792  1.7200
17078TIP3   OH272724   6.197   5.517  14.529  0.3554 -0.2510  0.7831
17078TIP3    H172725   6.135   5.447  14.510 -1.7631  1.6232  0.2532
17078TIP3    H272726   6.222   5.551  14.443  1.4310 -0.3647  1.0298
17079TIP3   OH272727   0.986   4.734  14.619 -0.8964 -0.2329 -0.2745
17079TIP3    H172728   0.948   4.778  14.543 -0.7402  1.2488  0.4491
17079TIP3    H272729   0.923   4.666  14.642 -2.0243  0.7214 -0.4482
17080TIP3   OH272730   3.363   2.360   5.139  0.4466  0.0941 -0.0798
17080TIP3    H172731   3.340   2.354   5.046 -0.6542 -0.1750  0.1926
17080TIP3    H272732   3.301   2.301   5.182  0.2801  0.9737  0.9230
17081TIP3   OH272733   1.226   5.435  14.210 -0.5654  0.3018  0.1313
17081TIP3    H172734   1.237   5.436  14.305 -2.6191 -3.0170  0.5759
17081TIP3    H272735   1.132   5.446  14.197 -0.2326  1.3526 -1.5932
17082TIP3   OH272736   6.123   6.772   5.387  0.3558  0.3171  0.4522
17082TIP3    H172737   6.044   6.725   5.359  0.5363 -0.2404  0.8646
17082TIP3    H272738   6.188   6.751   5.319 -0.2646  1.9969 -0.7011
17083TIP3   OH272739   2.135   2.863   2.277  0.4819 -0.1048 -0.1161
17083TIP3    H172740   2.127   2.885   2.184  1.0214  0.4711 -0.0353
17083TIP3    H272741   2.217   2.815   2.284 -0.1254 -1.1751 -0.1041
17084TIP3   OH272742   2.277   4.618  11.546  0.4689  0.8039 -0.4881
17084TIP3    H172743   2.367   4.607  11.577  1.2714 -2.1233 -3.3349
17084TIP3    H272744   2.242   4.528  11.540 -1.8856  1.6998 -1.5716
17085TIP3   OH272745   0.873   2.012  16.494 -0.1557 -0.1183 -0.4403
17085TIP3    H172746   0.784   1.977  16.484 -0.7393  0.7029  1.3963
17085TIP3    H272747   0.887   2.066  16.416 -2.0113  1.2058  0.0703
17086TIP3   OH272748   1.347   5.220  13.448 -0.1153  0.3460  0.1804
17086TIP3    H172749   1.330   5.301  13.497 -0.1362 -0.4745  1.5816
17086TIP3    H272750   1.274   5.163  13.470  1.4245 -1.1643  1.7258
17087TIP3   OH272751   0.429   6.010  15.060 -0.0263 -0.0221  0.0961
17087TIP3    H172752   0.399   5.971  15.143 -0.1007 -0.9713 -0.3660
17087TIP3    H272753   0.524   6.010  15.068 -0.0623  1.3400  0.8197
17088TIP3   OH272754   3.584   1.366   5.070 -0.5405 -0.5692 -0.4544
17088TIP3    H172755   3.527   1.360   4.993  0.3109  1.1220 -1.2741
17088TIP3    H272756   3.656   1.306   5.051 -0.4576 -0.3418 -0.8707
17089TIP3   OH272757   3.492   6.819  11.974 -0.2493 -0.2666  0.0507
17089TIP3    H172758   3.564   6.882  11.971 -1.6117  1.3037 -1.5494
17089TIP3    H272759   3.508   6.760  11.900  0.0922 -0.7436  0.5001
17090TIP3   OH272760   4.459   1.404  16.644 -0.2791 -0.0878  0.3005
17090TIP3    H172761   4.433   1.318  16.677 -0.3667  0.4287  1.6239
17090TIP3    H272762   4.479   1.455  16.722  0.7196  0.8051 -0.5040
17091TIP3   OH272763   0.047   4.030   2.933  0.1883 -0.2893  0.0815
17091TIP3    H172764  -0.039   4.062   2.907 -0.2833 -0.8664  0.8747
17091TIP3    H272765   0.094   4.018   2.851  0.0116  1.3692 -0.3011
17092TIP3   OH272766   0.028   1.116  16.903  0.6404  0.6822 -0.0326
17092TIP3    H172767  -0.053   1.131  16.952  0.2707  0.0580 -0.4361
17092TIP3    H272768   0.070   1.202  16.900  0.2889  0.8859  0.7009
17093TIP3   OH272769   0.349   4.516   1.908 -0.0697 -0.0615 -0.0698
17093TIP3    H172770   0.361   4.608   1.930  0.0028  0.3307 -1.6548
17093TIP3    H272771   0.432   4.490   1.868  0.0473 -0.9289  0.7163
17094TIP3   OH272772   4.390   2.332  16.990 -0.4324 -0.4471  0.3333
17094TIP3    H172773   4.354   2.322  16.902  1.1892 -2.9494 -0.1739
17094TIP3    H272774   4.322   2.377  17.039 -1.8356  0.0513 -1.9263
17095TIP3   OH272775   4.087   1.992   1.515 -0.1602 -0.4945 -0.3739
17095TIP3    H172776   4.006   2.028   1.479  0.0906 -1.0254 -1.5074
17095TIP3    H272777   4.101   2.041   1.596 -1.3713 -0.0902 -0.3941
17096TIP3   OH272778   4.406   4.915  13.373  0.2084  0.3233 -0.8562
17096TIP3    H172779   4.339   4.965  13.419  0.9438  2.1360 -1.6598
17096TIP3    H272780   4.387   4.824  13.395 -0.1704  1.0002  2.0870
17097TIP3   OH272781   2.675   4.740   1.725 -0.3230  0.0324  0.0977
17097TIP3    H172782   2.649   4.796   1.652 -0.3319  0.2500  0.2665
17097TIP3    H272783   2.692   4.655   1.685  0.9237  0.4674 -0.3502
17098TIP3   OH272784   5.329   6.732  14.804 -0.1813 -0.0187  0.2535
17098TIP3    H172785   5.355   6.766  14.889  1.5199  0.5121 -0.4462
17098TIP3    H272786   5.305   6.641  14.821 -3.2349  0.9605  1.8553
17099TIP3   OH272787   2.244   4.775  15.463 -0.1635  0.1818 -0.3361
17099TIP3    H172788   2.220   4.736  15.379 -0.4108  1.1840 -0.7510
17099TIP3    H272789   2.165   4.767  15.517  0.6027 -2.2937  0.5479
17100TIP3   OH272790   4.731   4.017   2.087  0.5767  0.0463 -0.2689
17100TIP3    H172791   4.781   3.998   2.008  0.2769 -0.4045 -0.3537
17100TIP3    H272792   4.797   4.035   2.154  0.8390  0.0099 -0.5151
17101TIP3   OH272793   6.572   4.637   1.405 -0.1128 -0.4729  0.1403
17101TIP3    H172794   6.582   4.545   1.429  0.4075 -0.5218 -0.2420
17101TIP3    H272795   6.491   4.664   1.448 -0.8094 -1.3740 -0.5590
17102TIP3   OH272796   5.857   1.955   5.640 -0.0023  0.3519 -0.5582
17102TIP3    H172797   5.798   2.015   5.595 -2.6433 -1.4636  0.2102
17102TIP3    H272798   5.867   1.881   5.580  0.5323  0.1225 -0.1976
17103TIP3   OH272799   3.708   6.137   0.259  0.0710  0.0093 -0.5882
17103TIP3    H172800   3.691   6.106   0.170 -0.0571  0.4827 -0.7345
17103TIP3    H272801   3.804   6.142   0.264  0.1605 -1.7801 -0.0718
17104TIP3   OH272802   0.511   2.246   1.582 -0.7856  0.3206 -0.6746
17104TIP3    H172803   0.509   2.152   1.599  0.7853  0.2482 -0.7728
17104TIP3    H272804   0.590   2.277   1.625 -0.9035  1.4775 -1.2436
17105TIP3   OH272805   5.442   6.264  15.878 -0.3198  0.1538  0.4313
17105TIP3    H172806   5.411   6.354  15.868 -0.8053  0.2451  2.4034
17105TIP3    H272807   5.524   6.272  15.927  0.4656 -0.3999 -0.7524
17106TIP3   OH272808   4.222   3.384   4.550  0.0281 -0.2486 -0.0110
17106TIP3    H172809   4.222   3.351   4.640  1.7334  0.5289  0.3284
17106TIP3    H272810   4.250   3.309   4.498 -0.3286 -0.5272  0.1952
17107TIP3   OH272811   0.879   1.101  10.710 -0.5416  0.2472  0.2017
17107TIP3    H172812   0.816   1.029  10.709  1.8663 -2.0343  1.4451
17107TIP3    H272813   0.908   1.109  10.619 -0.7471 -0.4137  0.0756
17108TIP3   OH272814   6.184   0.468   2.612 -0.3495 -0.3596 -0.5975
17108TIP3    H172815   6.263   0.416   2.625  0.5189  1.2172  0.8988
17108TIP3    H272816   6.141   0.469   2.697 -1.2841 -0.1028 -1.0554
17109TIP3   OH272817   4.217   3.051  11.966 -0.1678  0.2505  0.3697
17109TIP3    H172818   4.173   3.080  12.046  1.0625 -0.3232  1.2803
17109TIP3    H272819   4.310   3.066  11.983  0.1778 -0.6929 -0.6118
17110TIP3   OH272820   3.713   2.387  15.916 -0.3014  0.1187 -0.2380
17110TIP3    H172821   3.675   2.457  15.969  1.2206  0.9380 -0.1849
17110TIP3    H272822   3.804   2.381  15.945 -0.7713 -3.0903  1.0358
17111TIP3   OH272823   4.091   4.288  12.920  0.2989 -0.6781 -0.1947
17111TIP3    H172824   4.153   4.216  12.927 -0.0103 -1.0173 -0.8961
17111TIP3    H272825   4.076   4.299  12.826  0.2432  0.2190 -0.0929
17112TIP3   OH272826   3.648   3.544   2.624 -0.2414  0.4850 -0.6139
17112TIP3    H172827   3.611   3.491   2.553  0.7620  0.6514 -1.2888
17112TIP3    H272828   3.736   3.508   2.637 -0.7883 -0.2682  1.3262
17113TIP3   OH272829   1.883   3.665   1.099 -0.4253  0.3810  0.7416
17113TIP3    H172830   1.960   3.721   1.106 -0.2154 -0.1308  3.8894
17113TIP3    H272831   1.839   3.674   1.184 -2.9411 -0.6197 -0.3605
17114TIP3   OH272832   1.272   6.372   0.038 -0.5808 -0.1814  0.6022
17114TIP3    H172833   1.179   6.366   0.062 -0.1670 -0.2609  2.3190
17114TIP3    H272834   1.284   6.303  -0.027 -2.3228  1.6561 -1.8612
17115TIP3   OH272835   6.531   4.040   0.629  0.1787  0.4886  0.3844
17115TIP3    H172836   6.596   3.983   0.670 -0.7374 -2.6580 -2.0522
17115TIP3    H272837   6.504   4.101   0.698  0.2898 -2.9324  3.7962
17116TIP3   OH272838   4.655   0.294  15.787 -0.5839  0.1454 -0.5434
17116TIP3    H172839   4.690   0.380  15.810  1.2515 -0.8805  0.7330
17116TIP3    H272840   4.624   0.258  15.870  0.6989 -1.2700 -0.6442
17117TIP3   OH272841   0.678   4.985  13.924 -0.0246 -0.3276  0.1414
17117TIP3    H172842   0.598   5.014  13.880  0.2285  0.3301  0.1095
17117TIP3    H272843   0.746   4.992  13.856 -0.1176 -1.8616 -0.1371
17118TIP3   OH272844   0.895   3.170   4.234  0.0744  0.0887 -0.3718
17118TIP3    H172845   0.982   3.209   4.235 -0.5227  1.5140 -1.4621
17118TIP3    H272846   0.841   3.233   4.187 -2.3771  0.9233  3.2302
17119TIP3   OH272847   3.999   0.987  11.870  0.5781  0.1307 -0.0767
17119TIP3    H172848   4.058   0.966  11.943  0.9165  1.6838  0.1380
17119TIP3    H272849   3.963   0.903  11.843  1.3445 -0.6136  1.1244
17120TIP3   OH272850   3.765   2.231  11.485 -0.7540  0.3414 -0.1710
17120TIP3    H172851   3.698   2.244  11.419 -1.7619 -1.1047  0.5220
17120TIP3    H272852   3.836   2.186  11.440 -0.4781  1.3439 -0.7648
17121TIP3   OH272853   6.717   1.828   4.391 -0.0345  0.1084  0.1632
17121TIP3    H172854   6.667   1.796   4.316  1.0571 -0.0973 -0.5123
17121TIP3    H272855   6.787   1.881   4.352  0.5433  0.0120  1.0333
17122TIP3   OH272856   3.628   2.833  15.449  0.4775  0.2238  0.2894
17122TIP3    H172857   3.692   2.854  15.516  0.9523 -1.9788  0.5859
17122TIP3    H272858   3.678   2.790  15.380 -0.5431 -0.8374  0.1756
17123TIP3   OH272859   5.179   4.720  13.678  0.3346 -0.0628 -0.2688
17123TIP3    H172860   5.223   4.766  13.607  0.3499  0.4447  0.0622
17123TIP3    H272861   5.158   4.634  13.642 -0.6515  0.5663 -1.2651
17124TIP3   OH272862   2.050   4.376   2.657  0.2150 -0.1076  0.2458
17124TIP3    H172863   1.975   4.389   2.599 -0.9920  0.8993  1.9268
17124TIP3    H272864   2.126   4.384   2.601 -0.9062 -0.2229 -1.3654
17125TIP3   OH272865   4.518   5.579  10.311 -0.5848 -0.2743 -0.1469
17125TIP3    H172866   4.598   5.630  10.320 -0.4215 -0.5853  0.1733
17125TIP3    H272867   4.447   5.643  10.323 -0.3966  0.1354 -1.1383
17126TIP3   OH272868   6.684   0.345   3.142  0.3149  1.0415  0.0218
17126TIP3    H172869   6.718   0.290   3.213 -1.5633 -4.4100 -2.7860
17126TIP3    H272870   6.597   0.371   3.172 -0.2488 -0.7483  0.0505
17127TIP3   OH272871   4.815   3.833   2.330  0.2760 -0.0508 -0.0468
17127TIP3    H172872   4.832   3.923   2.357  1.2861 -0.0185 -0.7514
17127TIP3    H272873   4.731   3.811   2.371 -1.4886  2.1747 -2.2006
17128TIP3   OH272874   4.106   3.762  11.263  0.0096  0.7981  0.4507
17128TIP3    H172875   4.053   3.768  11.342  0.9622 -0.0741  1.1974
17128TIP3    H272876   4.145   3.849  11.253 -0.5269  1.0599  0.6404
17129TIP3   OH272877   1.338   3.909   3.647  0.3072 -0.2051 -0.1963
17129TIP3    H172878   1.304   3.845   3.710 -0.1341 -0.0876 -0.3115
17129TIP3    H272879   1.374   3.856   3.576 -1.2036 -0.3480 -0.9040
17130TIP3   OH272880   0.366   5.740   3.554 -0.4511 -0.4753 -0.5552
17130TIP3    H172881   0.322   5.705   3.476  1.0852 -0.2478 -1.5705
17130TIP3    H272882   0.446   5.780   3.520 -0.7020  1.4209  0.9233
17131TIP3   OH272883   1.259   2.869   6.473  0.3765 -0.0722 -0.4858
17131TIP3    H172884   1.322   2.921   6.524  0.4003  1.4314 -1.9228
17131TIP3    H272885   1.226   2.804   6.534  2.6783 -0.3571  0.5811
17132TIP3   OH272886   0.124   1.659   2.488 -0.5549 -0.4015 -0.6003
17132TIP3    H172887   0.091   1.601   2.419 -2.1804 -1.1664  0.7411
17132TIP3    H272888   0.060   1.730   2.492  0.1315  0.2282 -0.6038
17133TIP3   OH272889   5.062   0.889   3.227  0.3754  0.0477 -0.2866
17133TIP3    H172890   5.113   0.829   3.172  2.6643  2.0492 -0.5239
17133TIP3    H272891   5.052   0.967   3.173 -2.2272  0.0752  0.1387
17134TIP3   OH272892   2.968   4.721   6.692  0.0858  0.7527 -0.5495
17134TIP3    H172893   3.056   4.752   6.670 -0.3900  1.4892 -1.4794
17134TIP3    H272894   2.910   4.789   6.659 -0.7481  1.8877  2.9225
17135TIP3   OH272895   6.199   6.158   0.629 -0.1096  0.3938  0.1240
17135TIP3    H172896   6.277   6.134   0.580 -0.9162  0.3719 -1.2027
17135TIP3    H272897   6.140   6.194   0.563 -1.2542  0.3202  1.0816
17136TIP3   OH272898   5.692   6.019  15.663 -0.1108  0.8494 -0.9893
17136TIP3    H172899   5.711   6.028  15.756  1.2985  0.2368 -1.1983
17136TIP3    H272900   5.598   6.036  15.657 -0.3204  0.4716  0.5995
17137TIP3   OH272901   3.340   4.153  15.071  0.5799 -0.4015  0.1085
17137TIP3    H172902   3.426   4.191  15.056 -0.1448  0.6269 -1.7773
17137TIP3    H272903   3.345   4.117  15.159  3.4596 -1.8359 -0.5178
17138TIP3   OH272904   3.110   5.245  14.086  0.1846 -0.0930 -0.7725
17138TIP3    H172905   3.026   5.268  14.046 -0.1985  0.2699  0.2069
17138TIP3    H272906   3.099   5.155  14.115  0.0972 -0.0184 -0.5694
17139TIP3   OH272907   1.222   2.641   3.787  0.1114 -0.5772 -0.0905
17139TIP3    H172908   1.231   2.684   3.872  1.8735  0.3463 -0.6779
17139TIP3    H272909   1.155   2.691   3.741  0.5045  0.1166  0.0795
17140TIP3   OH272910   3.792   0.841  12.543  0.5062 -0.1245  0.0068
17140TIP3    H172911   3.795   0.803  12.455 -1.9478  0.6344 -0.4929
17140TIP3    H272912   3.814   0.933  12.530  1.9223 -0.3807  0.4951
17141TIP3   OH272913   2.813   2.480   5.025 -0.1657  0.6193 -0.1197
17141TIP3    H172914   2.866   2.555   5.055  0.6175  0.7149 -1.6425
17141TIP3    H272915   2.787   2.504   4.936 -0.8458 -0.4517 -0.2184
17142TIP3   OH272916   0.239   3.327   3.844 -0.1992 -0.1347 -0.6500
17142TIP3    H172917   0.329   3.346   3.820  0.1178 -0.4784  0.2290
17142TIP3    H272918   0.213   3.400   3.900 -0.1352 -0.5292 -0.1010
17143TIP3   OH272919   6.270   4.073  16.511  0.1899  0.1421 -0.2226
17143TIP3    H172920   6.309   4.029  16.586 -0.5882  1.0806  0.7696
17143TIP3    H272921   6.301   4.163  16.517 -0.9295  0.5548 -0.2254
17144TIP3   OH272922   3.297   0.184   0.823  0.1576  0.4997 -0.5586
17144TIP3    H172923   3.244   0.246   0.873 -1.0865 -1.8763  1.2942
17144TIP3    H272924   3.372   0.166   0.880  0.6147  0.4562 -1.1715
17145TIP3   OH272925   0.534   0.064  13.201  0.8676  0.1618  0.0367
17145TIP3    H172926   0.563  -0.027  13.198  2.7989  0.7454 -0.7593
17145TIP3    H272927   0.614   0.114  13.217 -0.1816  1.7252  0.6729
17146TIP3   OH272928   1.994   2.576   2.473  0.4853 -0.0962 -0.0151
17146TIP3    H172929   2.031   2.490   2.451  1.3005 -0.3521  2.1213
17146TIP3    H272930   1.899   2.562   2.472  0.6157 -1.2793  1.0760
17147TIP3   OH272931   0.724   5.750  13.152 -0.4577 -0.4771 -0.5716
17147TIP3    H172932   0.682   5.819  13.101 -2.1328 -0.3656  0.8624
17147TIP3    H272933   0.725   5.674  13.094  1.0933  0.5872 -2.0440
17148TIP3   OH272934   3.487   0.714  12.631  0.1986 -0.3704  0.1085
17148TIP3    H172935   3.503   0.749  12.544 -1.0358 -1.1811 -0.4703
17148TIP3    H272936   3.574   0.700  12.668  0.8122 -1.7408 -1.7111
17149TIP3   OH272937   5.005   4.668  11.760  0.3965 -0.1025  0.1103
17149TIP3    H172938   4.936   4.616  11.802  0.3979 -2.1851 -2.2778
17149TIP3    H272939   4.961   4.749  11.734  0.0411  0.6210  2.6078
17150TIP3   OH272940   2.755   6.076  11.067 -0.4533 -0.1857  0.1494
17150TIP3    H172941   2.714   6.069  10.981  2.5310 -0.1621 -1.4227
17150TIP3    H272942   2.811   5.999  11.074  2.4001  1.7236  0.2084
17151TIP3   OH272943   3.332   6.083  11.398  0.5269 -0.5225 -0.0571
17151TIP3    H172944   3.378   6.002  11.378 -0.2882 -0.6949 -1.3260
17151TIP3    H272945   3.391   6.130  11.457  0.7869 -2.2384  1.1245
17152TIP3   OH272946   4.517   1.797  15.215  0.6793 -0.2749 -0.4217
17152TIP3    H172947   4.610   1.806  15.236  0.2696  1.7577  0.8169
17152TIP3    H272948   4.515   1.748  15.133  2.9838  1.5130 -1.6753
17153TIP3   OH272949   3.197   6.388   4.537 -0.0232 -0.0585  0.1922
17153TIP3    H172950   3.217   6.470   4.582 -1.3877 -0.5399  1.7968
17153TIP3    H272951   3.118   6.406   4.488 -0.8404 -0.6111  1.2612
17154TIP3   OH272952   1.669   2.252   2.461  1.0187 -0.0605  0.2195
17154TIP3    H172953   1.702   2.206   2.383 -0.6436  2.0785 -1.9009
17154TIP3    H272954   1.574   2.252   2.450  0.6233 -0.8622  3.0410
17155TIP3   OH272955   5.734   6.660   1.115  0.0625  0.1454  0.2911
17155TIP3    H172956   5.764   6.750   1.126  0.9222  0.0569 -1.1005
17155TIP3    H272957   5.753   6.639   1.023 -0.7716 -1.2173  0.3990
17156TIP3   OH272958   1.946   4.805   0.391  0.3393  0.1481 -0.0921
17156TIP3    H172959   1.908   4.809   0.479  0.8535  0.0094  0.1378
17156TIP3    H272960   1.999   4.726   0.391  0.8621  0.4891 -0.3088
17157TIP3   OH272961   0.039   4.315   0.084 -0.4620  0.4799 -0.5920
17157TIP3    H172962   0.031   4.410   0.085  1.4322  0.6917  1.2556
17157TIP3    H272963   0.092   4.295   0.161 -1.4549 -2.1483 -0.4974
17158TIP3   OH272964   4.828   3.498   0.197  0.1324 -0.7837 -0.0772
17158TIP3    H172965   4.765   3.535   0.135 -1.2801 -4.0213 -0.7694
17158TIP3    H272966   4.908   3.487   0.145 -0.1867 -0.9591 -0.5385
17159TIP3   OH272967   2.354   1.111   2.125 -0.1928 -0.0870  0.1449
17159TIP3    H172968   2.285   1.045   2.127 -0.7309  0.1927 -3.5064
17159TIP3    H272969   2.312   1.190   2.092  1.6618  0.3025 -1.5112
17160TIP3   OH272970   2.491   0.248   5.603 -0.6375 -0.3033  0.9852
17160TIP3    H172971   2.472   0.279   5.692 -2.7338  1.7229 -0.0709
17160TIP3    H272972   2.547   0.315   5.565 -1.4296 -0.0953  0.1437
17161TIP3   OH272973   2.806   0.449   6.247 -0.2116 -0.3433 -0.0902
17161TIP3    H172974   2.736   0.510   6.268  0.4820  0.1636  0.8248
17161TIP3    H272975   2.844   0.483   6.166  1.1117  1.3605  1.1492
17162TIP3   OH272976   6.537   6.372  13.069  0.3900  0.2949 -0.0510
17162TIP3    H172977   6.508   6.425  12.995  2.6203  0.9056 -0.5505
17162TIP3    H272978   6.520   6.427  13.146 -1.9411 -0.3455 -0.0303
17163TIP3   OH272979   3.593   2.693   5.504 -0.2909 -0.3033 -0.6281
17163TIP3    H172980   3.618   2.622   5.564 -0.6294 -0.3867 -0.5850
17163TIP3    H272981   3.533   2.651   5.442 -1.2891  0.1665 -0.0027
17164TIP3   OH272982   2.398   4.058  16.618  0.2470  0.0418  0.0181
17164TIP3    H172983   2.403   3.963  16.607 -0.3616 -0.0644  0.6005
17164TIP3    H272984   2.489   4.085  16.635  0.1803 -0.6690  1.6174
17165TIP3   OH272985   2.341   3.447   4.962  0.4071 -0.0577  0.1148
17165TIP3    H172986   2.416   3.471   5.015  0.2189  0.2230  0.2547
17165TIP3    H272987   2.362   3.359   4.929  0.3235 -0.4234  1.0173
17166TIP3   OH272988   5.541   6.330   4.919  0.1761 -0.0890 -0.5537
17166TIP3    H172989   5.474   6.394   4.945 -0.0077  0.1749 -1.6307
17166TIP3    H272990   5.524   6.315   4.826  0.7810 -1.0400 -0.5176
17167TIP3   OH272991   2.348   5.889  12.565 -0.7750 -0.2169 -0.7165
17167TIP3    H172992   2.401   5.847  12.498  0.1347  1.8271 -1.3615
17167TIP3    H272993   2.406   5.898  12.640 -1.9076 -2.8716  0.6116
17168TIP3   OH272994   2.674   3.029   0.824  0.1139 -0.3831  0.2791
17168TIP3    H172995   2.593   3.024   0.774 -1.4123 -0.5803  2.6252
17168TIP3    H272996   2.659   2.973   0.900  2.8676 -1.2383  0.2752
17169TIP3   OH272997   6.108   3.856   2.986  0.5483  0.2096  0.0282
17169TIP3    H172998   6.166   3.899   2.923  1.4463 -0.1897  0.5597
17169TIP3    H272999   6.165   3.796   3.034  0.3124  1.7415  2.4358
17170TIP3   OH273000   4.025   2.101   5.107 -0.9362  0.3499 -0.2844
17170TIP3    H173001   4.062   2.067   5.025 -0.5728 -1.4106  0.5801
17170TIP3    H273002   4.075   2.181   5.124  0.0480 -0.1038 -0.9762
17171TIP3   OH273003   5.623   5.749   4.855 -0.3817  0.4857  0.1358
17171TIP3    H173004   5.627   5.654   4.845  1.1673  0.4200  1.0473
17171TIP3    H273005   5.639   5.782   4.767 -1.9953 -0.0639 -0.4072
17172TIP3   OH273006   0.609   0.069   0.043  0.0469 -0.0331  0.5945
17172TIP3    H173007   0.669   0.061   0.118  2.6882  2.1846 -1.0784
17172TIP3    H273008   0.630   0.154   0.005 -0.6495 -1.3255 -3.0732
17173TIP3   OH273009   5.450   0.965  16.020  0.0589 -0.0396  0.0474
17173TIP3    H173010   5.404   0.921  15.949  1.0405 -0.1536 -0.5254
17173TIP3    H273011   5.405   1.049  16.029 -1.3827 -0.8474  0.6854
17174TIP3   OH273012   2.631   6.248   0.153 -0.4793 -0.4066  0.7175
17174TIP3    H173013   2.611   6.262   0.246  4.8768 -1.0385  2.3134
17174TIP3    H273014   2.667   6.332   0.124  0.9046 -1.1124  0.2976
17175TIP3   OH273015   5.214   1.101   2.659 -0.2505  0.5217 -0.0212
17175TIP3    H173016   5.169   1.078   2.740  0.8901  1.0257  0.7881
17175TIP3    H273017   5.162   1.062   2.590 -0.8116 -0.6067  1.0122
17176TIP3   OH273018   5.289   6.642  16.218  0.0287  0.0618 -0.0828
17176TIP3    H173019   5.240   6.723  16.234  0.2489 -0.0366  1.2136
17176TIP3    H273020   5.265   6.616  16.129  0.7558  2.1070 -0.9321
17177TIP3   OH273021   0.571   2.716  16.834  0.6621  0.3945 -0.4381
17177TIP3    H173022   0.543   2.696  16.745  0.1034  0.2330 -0.2358
17177TIP3    H273023   0.638   2.650  16.854  0.6790  0.3365 -0.6839
17178TIP3   OH273024   0.779   3.712   1.501 -0.8411 -0.3558  0.2928
17178TIP3    H173025   0.785   3.731   1.407 -2.4508 -1.3568 -0.0646
17178TIP3    H273026   0.821   3.787   1.544  0.4338 -0.1548 -1.2227
17179TIP3   OH273027   4.832   2.717   3.470 -0.4207 -0.2741  0.4195
17179TIP3    H173028   4.861   2.628   3.450 -1.1345 -0.8802  1.9134
17179TIP3    H273029   4.820   2.717   3.565 -0.5690  1.3786  0.4160
17180TIP3   OH273030   4.109   0.246   4.997 -0.0407 -0.4233  0.1578
17180TIP3    H173031   4.055   0.246   4.918  2.2105  0.4412 -1.4698
17180TIP3    H273032   4.063   0.304   5.058 -0.9545  0.2574 -1.1454
17181TIP3   OH273033   1.881   1.305   2.961 -0.4750  0.7541 -0.0824
17181TIP3    H173034   1.970   1.337   2.974 -0.0870 -0.1677 -0.3852
17181TIP3    H273035   1.836   1.325   3.043 -0.2283  1.9640 -0.2238
17182TIP3   OH273036   3.366   2.070  14.314 -0.0193 -0.1353 -0.8078
17182TIP3    H173037   3.323   1.991  14.281 -1.5039  0.2847  0.0445
17182TIP3    H273038   3.392   2.047  14.404  0.1849  0.1170 -0.8017
17183TIP3   OH273039   1.609   2.219   3.581 -0.3745  0.3802 -0.5102
17183TIP3    H173040   1.515   2.202   3.587 -0.1633 -0.4114  2.6618
17183TIP3    H273041   1.649   2.132   3.582  0.4130  0.7321 -0.6080
17184TIP3   OH273042   5.908   3.832  11.816  0.3675  0.0835  0.1563
17184TIP3    H173043   5.942   3.743  11.800 -0.3080  0.1402 -1.9026
17184TIP3    H273044   5.816   3.819  11.836  0.8492  0.1607  2.7503
17185TIP3   OH273045   6.292   0.462   0.467  0.2754 -0.4015 -0.6180
17185TIP3    H173046   6.202   0.492   0.452  0.5198  1.8128  1.7116
17185TIP3    H273047   6.344   0.509   0.402 -0.1286 -1.1206 -1.4813
17186TIP3   OH273048   4.505   5.007   4.973 -0.1902  0.1843  0.3666
17186TIP3    H173049   4.519   5.066   5.046  1.9292  0.4021 -0.1501
17186TIP3    H273050   4.496   4.921   5.013 -0.5233  0.4913  0.9596
17187TIP3   OH273051   2.515   5.962   5.921 -0.1663 -0.4680 -0.9134
17187TIP3    H173052   2.451   5.946   5.851 -1.4570  1.1618 -0.1707
17187TIP3    H273053   2.464   6.003   5.991  1.3072 -1.0931  0.5823
17188TIP3   OH273054   2.460   5.346  12.650 -0.0553 -0.0354  0.2380
17188TIP3    H173055   2.467   5.269  12.594 -1.0947 -0.2893  0.4370
17188TIP3    H273056   2.498   5.318  12.734 -1.3219 -0.6675  0.6196
17189TIP3   OH273057   5.844   4.935   3.710 -0.0418 -0.1220 -0.2962
17189TIP3    H173058   5.925   4.953   3.662  0.9412 -0.2570  1.2427
17189TIP3    H273059   5.839   5.004   3.776  0.9468 -2.2551  2.1977
17190TIP3   OH273060   5.840   3.976  13.378 -0.0759  0.1984 -0.5420
17190TIP3    H173061   5.861   4.004  13.289 -1.5876  2.5387 -0.2670
17190TIP3    H273062   5.900   4.026  13.433 -0.4557  0.2670 -0.1844
17191TIP3   OH273063   4.920   0.069  15.226  0.1112  0.2338  0.4908
17191TIP3    H173064   4.909   0.091  15.133  1.1084 -0.7029  0.1330
17191TIP3    H273065   4.841   0.104  15.268 -0.1740  1.0249 -0.6365
17192TIP3   OH273066   4.477   5.941   4.949  0.5011  0.0872  0.4035
17192TIP3    H173067   4.520   5.878   5.007 -1.0047  0.0343  1.5295
17192TIP3    H273068   4.530   6.021   4.957  1.7560 -0.6624 -0.1433
17193TIP3   OH273069   0.223   0.230   1.332 -0.0063 -0.0680  0.3019
17193TIP3    H173070   0.155   0.197   1.273 -0.9227  1.2100  0.5985
17193TIP3    H273071   0.287   0.272   1.274 -0.0810 -0.2318  0.1000
17194TIP3   OH273072   5.845   5.216   5.012 -0.0751  0.4039  0.0584
17194TIP3    H173073   5.832   5.310   5.024 -0.5294  0.2131  1.1532
17194TIP3    H273074   5.786   5.192   4.941 -1.2963  0.6300  0.9817
17195TIP3   OH273075   2.535   3.284   1.972  0.1240 -0.4785  0.0586
17195TIP3    H173076   2.554   3.324   1.887 -0.1883  1.0634  0.6849
17195TIP3    H273077   2.591   3.332   2.034 -0.6718 -0.6452  0.9162
17196TIP3   OH273078   4.742   1.737  12.874 -0.0812  0.3121  1.1828
17196TIP3    H173079   4.838   1.734  12.882 -0.1146  0.0170  1.4895
17196TIP3    H273080   4.721   1.830  12.885  0.1254  0.3019  1.7302
17197TIP3   OH273081   5.809   5.002   4.331 -0.1638  0.0786 -0.1372
17197TIP3    H173082   5.746   5.031   4.396 -0.5386  0.5639 -0.7126
17197TIP3    H273083   5.840   4.918   4.365 -2.0460 -0.7996 -0.4590
17198TIP3   OH273084   5.850   0.880   3.744  0.0780  0.3081 -0.2564
17198TIP3    H173085   5.906   0.932   3.802  1.1525 -1.0302 -0.0425
17198TIP3    H273086   5.842   0.795   3.788 -2.2487  0.4917 -0.2395
17199TIP3   OH273087   5.785   0.920  13.468  0.3671  0.1013  0.0052
17199TIP3    H173088   5.753   0.860  13.401  0.0729  0.3359 -0.0692
17199TIP3    H273089   5.865   0.879  13.501 -0.2985 -0.7619  0.5747
17200TIP3   OH273090   0.884   3.352  16.627 -0.3049  0.0648 -0.0669
17200TIP3    H173091   0.937   3.404  16.567 -1.2110  0.4603 -0.5524
17200TIP3    H273092   0.813   3.317  16.573  0.3878 -1.8752  0.2077
17201TIP3   OH273093   5.338   3.536  14.921 -0.0949 -0.4108  0.7339
17201TIP3    H173094   5.275   3.543  14.849 -0.1802 -2.4959  0.5509
17201TIP3    H273095   5.292   3.487  14.989  0.7157 -0.3511  1.3422
17202TIP3   OH273096   0.579   0.225   1.870 -0.3152 -0.1127 -0.1746
17202TIP3    H173097   0.534   0.289   1.925  0.2718  2.0527 -2.0459
17202TIP3    H273098   0.557   0.251   1.780  0.9068 -1.8467 -1.0390
17203TIP3   OH273099   5.437   2.475  13.369 -0.1075 -0.3261  0.2401
17203TIP3    H173100   5.409   2.403  13.426 -1.4828  0.7631  1.0233
17203TIP3    H273101   5.527   2.453  13.344 -0.9090 -2.9652 -0.6455
17204TIP3   OH273102   3.504   6.225  15.742 -0.2870 -0.1333 -0.2556
17204TIP3    H173103   3.518   6.308  15.788  0.3998 -0.5957  0.3912
17204TIP3    H273104   3.559   6.231  15.664 -0.4291  0.1214 -0.3369
17205TIP3   OH273105   6.214   2.265  13.151 -0.0985 -0.3187 -0.0018
17205TIP3    H173106   6.214   2.197  13.083  0.7915  0.5846 -0.9562
17205TIP3    H273107   6.132   2.252  13.198 -1.6789  0.1122 -2.4194
17206TIP3   OH273108   4.073   0.302  14.628  0.7081  0.3799 -0.3236
17206TIP3    H173109   4.033   0.342  14.705  0.0677  1.8061 -1.3630
17206TIP3    H273110   4.000   0.259  14.582  1.0871 -0.4747 -0.1488
17207TIP3   OH273111   5.832   4.966   5.157  0.7533 -0.5908  0.2968
17207TIP3    H173112   5.778   5.000   5.228  2.4128  0.3799  1.1307
17207TIP3    H273113   5.830   5.035   5.090  2.5536  0.3711  1.1812
17208TIP3   OH273114   6.543   5.326  14.499  0.1885  0.4222 -0.1142
17208TIP3    H173115   6.461   5.294  14.462  1.0896 -1.1376 -0.8751
17208TIP3    H273116   6.518   5.401  14.553 -2.0009 -1.2294  1.3137
17209TIP3   OH273117   3.382   0.532   3.866  0.3383  0.6564 -0.6928
17209TIP3    H173118   3.297   0.495   3.846 -1.1723  2.8868  1.1036
17209TIP3    H273119   3.415   0.479   3.939 -0.3331  0.8901 -0.2196
17210TIP3   OH273120   1.280   1.202  12.731  0.2233  0.2690  0.3681
17210TIP3    H173121   1.289   1.109  12.749  0.0068  0.9113  4.8118
17210TIP3    H273122   1.194   1.210  12.689 -1.6723 -1.2986  3.6086
17211TIP3   OH273123   5.268   1.773   5.877 -0.3754  0.2928  0.3146
17211TIP3    H173124   5.279   1.856   5.924  0.6702  1.1069 -1.2906
17211TIP3    H273125   5.210   1.722   5.933  0.7588  1.2262  2.4627
17212TIP3   OH273126   0.073   0.247  13.891  0.2682  0.1652  0.1912
17212TIP3    H173127   0.028   0.282  13.968  2.7276  1.1216  1.2891
17212TIP3    H273128   0.056   0.311  13.822  0.4597  0.8257  0.7525
17213TIP3   OH273129   4.914   4.213  12.754 -0.2150 -0.3266 -0.5193
17213TIP3    H173130   4.837   4.225  12.810 -0.4070  1.1616 -1.0610
17213TIP3    H273131   4.949   4.301  12.743  1.6736 -0.9929 -0.1731
17214TIP3   OH273132   1.904   0.396   5.248 -0.3244  0.0242  0.0804
17214TIP3    H173133   1.941   0.365   5.166  0.4262 -0.6005  0.6386
17214TIP3    H273134   1.862   0.319   5.286 -0.0431  0.1345  0.6226
17215TIP3   OH273135   1.173   5.886  11.855 -0.1693 -0.3987  0.5037
17215TIP3    H173136   1.204   5.803  11.891 -0.2692  0.1334  1.8959
17215TIP3    H273137   1.169   5.944  11.931 -1.0680  0.5907 -0.2789
17216TIP3   OH273138   2.718   3.737  13.562  0.7600  0.0565  0.6877
17216TIP3    H173139   2.637   3.685  13.563 -0.3706  1.7528  1.6741
17216TIP3    H273140   2.788   3.672  13.570 -0.5791 -1.3303  1.7638
17217TIP3   OH273141   0.381   0.646  13.330 -0.2592  0.3810 -0.7004
17217TIP3    H173142   0.439   0.575  13.303  0.9692  1.6583 -1.5964
17217TIP3    H273143   0.332   0.669  13.251 -0.8101  0.3768 -0.3624
17218TIP3   OH273144   3.927   0.738   5.544  0.3045  0.4945 -0.2050
17218TIP3    H173145   3.839   0.703   5.558  0.3477 -0.5375 -2.1207
17218TIP3    H273146   3.944   0.793   5.621 -1.4729 -0.3326  0.8387
17219TIP3   OH273147   3.238   0.027  14.297  0.0106 -0.1986  0.3454
17219TIP3    H173148   3.191  -0.017  14.368  0.7216 -0.1715  0.8467
17219TIP3    H273149   3.278  -0.044  14.247  0.6426 -0.1687  0.7893
17220TIP3   OH273150   5.073   3.121   0.102 -0.5006  0.1646 -0.1780
17220TIP3    H173151   5.055   3.134   0.009  0.7030  0.2907 -0.4076
17220TIP3    H273152   5.140   3.053   0.105 -0.4798  0.2052  0.5983
17221TIP3   OH273153   6.189   4.636   0.060  0.2708  0.1616 -0.4785
17221TIP3    H173154   6.282   4.647   0.043  0.0546  1.9766 -0.6818
17221TIP3    H273155   6.167   4.708   0.119 -0.1880 -2.6201  3.0737
17222TIP3   OH273156   1.532   2.166   3.265  0.0573  0.3205 -0.6268
17222TIP3    H173157   1.533   2.243   3.322 -0.3294  1.6907 -2.3936
17222TIP3    H273158   1.440   2.141   3.260  0.1175  0.0664 -0.4695
17223TIP3   OH273159   6.214   0.091  15.353 -0.5167  0.6079 -0.1290
17223TIP3    H173160   6.217   0.052  15.265 -0.7657  0.6955 -0.1763
17223TIP3    H273161   6.304   0.117  15.371  0.8139 -4.2137  1.8097
17224TIP3   OH273162   4.982   3.069   5.087  0.0290  0.0421  0.4012
17224TIP3    H173163   4.962   3.098   5.176 -0.1111  2.0349 -0.2277
17224TIP3    H273164   5.063   3.116   5.065  1.3265 -2.1581  0.2413
17225TIP3   OH273165   0.413   3.189   0.647  0.3063 -0.2500  0.3680
17225TIP3    H173166   0.478   3.210   0.714  0.1979  0.8505  0.1399
17225TIP3    H273167   0.456   3.213   0.564  0.3039 -1.2620  0.0651
17226TIP3   OH273168   3.435   0.982  13.963 -0.3462 -0.0149  0.5489
17226TIP3    H173169   3.446   0.898  14.009 -0.5604 -0.2281  0.2178
17226TIP3    H273170   3.359   1.022  14.004 -2.1654 -1.3804 -1.3156
17227TIP3   OH273171   5.059   2.702   2.120 -0.3029 -0.1274 -0.0201
17227TIP3    H173172   4.981   2.712   2.174 -0.9568 -1.3336 -0.7035
17227TIP3    H273173   5.048   2.763   2.048 -0.2172  0.2921  0.3207
17228TIP3   OH273174   0.994   5.374  10.450  0.1810 -0.8756  0.0420
17228TIP3    H173175   1.042   5.293  10.468 -0.3097 -1.2896 -0.4764
17228TIP3    H273176   1.047   5.420  10.385  0.5900 -0.6569  0.5290
17229TIP3   OH273177   4.065   3.248   5.291 -0.1046  0.0308  0.0557
17229TIP3    H173178   3.973   3.274   5.295 -0.5151 -1.3848  0.2729
17229TIP3    H273179   4.070   3.167   5.342  0.9866 -0.6724 -1.1004
17230TIP3   OH273180   5.194   0.425   1.781  0.2838 -0.1798  0.3716
17230TIP3    H173181   5.221   0.391   1.696 -0.6225 -1.1825  0.4689
17230TIP3    H273182   5.101   0.445   1.772  0.0631 -0.7222  1.2428
17231TIP3   OH273183   3.962   5.747  12.115 -0.0573  0.3615 -0.5024
17231TIP3    H173184   4.053   5.757  12.142  0.3481 -0.7369 -1.3810
17231TIP3    H273185   3.941   5.655  12.134 -0.3874  0.1008 -1.9860
17232TIP3   OH273186   3.431   0.617   3.583  0.0967  0.0675  0.0883
17232TIP3    H173187   3.519   0.596   3.551  0.0328 -1.0764  0.6336
17232TIP3    H273188   3.426   0.578   3.670 -1.4353 -1.1504 -0.4980
17233TIP3   OH273189   3.810   3.333   1.851  0.6762 -0.6007  0.0369
17233TIP3    H173190   3.764   3.249   1.846 -0.1273 -0.1882  0.1648
17233TIP3    H273191   3.768   3.378   1.925  0.4143  0.2984 -0.6444
17234TIP3   OH273192   4.754   5.052   1.176 -0.4091 -0.3887  0.1393
17234TIP3    H173193   4.715   4.986   1.118  1.8583 -0.4458 -1.4372
17234TIP3    H273194   4.717   5.033   1.262 -2.7355 -1.2650 -0.9855
17235TIP3   OH273195   0.876   5.012   1.957 -0.0389 -0.1908  0.4666
17235TIP3    H173196   0.933   5.057   1.894 -0.4815  0.6089  0.6219
17235TIP3    H273197   0.799   5.069   1.965 -1.7256 -2.1133 -1.1032
17236TIP3   OH273198   5.297   3.651  13.265  0.6119 -1.0191  0.3251
17236TIP3    H173199   5.233   3.588  13.233  0.8349 -0.7473 -0.7152
17236TIP3    H273200   5.381   3.606  13.257  0.9505 -0.1258 -1.8534
17237TIP3   OH273201   3.377   6.224   2.623  0.3442  0.0549 -0.2833
17237TIP3    H173202   3.282   6.212   2.621  0.5392 -1.9040 -0.1792
17237TIP3    H273203   3.404   6.190   2.708  0.9491  2.8950  0.7748
17238TIP3   OH273204   4.195   2.510   4.906 -0.3495 -0.2983 -0.4400
17238TIP3    H173205   4.187   2.418   4.883 -2.0576 -0.0739 -0.8909
17238TIP3    H273206   4.237   2.510   4.992 -1.7032 -1.5773  0.2504
17239TIP3   OH273207   2.529   1.727   3.948 -0.1785 -0.4901 -0.2968
17239TIP3    H173208   2.538   1.697   4.039 -0.3004  0.3893  0.0119
17239TIP3    H273209   2.548   1.649   3.895  0.3780 -0.8863  0.4712
17240TIP3   OH273210   2.241   3.032  13.100  0.1364  0.7190  0.0537
17240TIP3    H173211   2.304   3.074  13.041  0.0432  0.8984  0.0835
17240TIP3    H273212   2.264   2.939  13.096 -1.8441  0.2304 -2.7195
17241TIP3   OH273213   6.178   5.290  13.014  0.1150  0.2132  0.3931
17241TIP3    H173214   6.209   5.372  13.052 -0.6487  0.9684 -0.5580
17241TIP3    H273215   6.249   5.262  12.956  0.0498  0.6301  0.1093
17242TIP3   OH273216   5.906   3.093  15.912 -0.0526  0.0223 -0.3865
17242TIP3    H173217   5.969   3.165  15.912 -0.4573  0.4426  2.0669
17242TIP3    H273218   5.937   3.032  15.978 -0.5398 -1.3504 -1.3714
17243TIP3   OH273219   4.208   1.660  16.420 -0.3740 -0.2187  0.5287
17243TIP3    H173220   4.287   1.686  16.373 -0.8581  0.1890 -0.0613
17243TIP3    H273221   4.195   1.568  16.397 -0.4673 -0.0903  0.0666
17244TIP3   OH273222   4.737   1.117  14.693  0.1169  0.2096 -0.0746
17244TIP3    H173223   4.794   1.103  14.769  2.3750 -0.1395 -1.7462
17244TIP3    H273224   4.749   1.038  14.639 -2.8804 -0.4147  0.0066
17245TIP3   OH273225   4.142   4.245   4.338  0.8819  0.1209 -0.4093
17245TIP3    H173226   4.178   4.315   4.284 -0.3575  0.6951 -0.5074
17245TIP3    H273227   4.158   4.165   4.288 -0.7871  0.7007 -1.9348
17246TIP3   OH273228   0.614   2.028  14.418 -0.0903 -0.1170  0.0590
17246TIP3    H173229   0.668   2.035  14.339  0.4631  0.5685  0.4857
17246TIP3    H273230   0.654   1.957  14.469  0.3308  0.2944  0.3085
17247TIP3   OH273231   3.960   4.582   1.668  0.1004  0.0641 -0.3635
17247TIP3    H173232   3.936   4.510   1.610 -2.0991 -0.3119  0.9102
17247TIP3    H273233   3.926   4.660   1.625 -0.8517 -0.1240  0.0368
17248TIP3   OH273234   6.106   1.385  16.941 -0.2176 -0.1324 -0.2057
17248TIP3    H173235   6.153   1.302  16.934  1.5070  0.8971 -1.6264
17248TIP3    H273236   6.107   1.405  17.035  2.1516 -0.2406 -0.1436
17249TIP3   OH273237   6.506   4.047  16.676 -0.1611 -0.2528 -0.3362
17249TIP3    H173238   6.468   4.133  16.695  0.1741  0.0327 -0.9535
17249TIP3    H273239   6.598   4.056  16.699 -0.3626 -0.8441  0.8215
17250TIP3   OH273240   2.643   6.117   4.482  0.5184 -0.0254  0.3716
17250TIP3    H173241   2.584   6.060   4.531 -1.2159  0.7993 -0.6239
17250TIP3    H273242   2.653   6.074   4.397 -1.8198  1.5937 -0.8578
17251TIP3   OH273243   4.556   5.780  14.564 -0.0921  0.0393 -0.0272
17251TIP3    H173244   4.649   5.758  14.552 -0.3356 -1.1094  0.1514
17251TIP3    H273245   4.516   5.700  14.596 -0.5645  1.3546  3.0912
17252TIP3   OH273246   0.233   5.452  13.103  0.5374  0.7153  0.3001
17252TIP3    H173247   0.235   5.531  13.048  1.9960  0.7782  0.4071
17252TIP3    H273248   0.315   5.455  13.152 -0.7666  0.7585  2.6361
17253TIP3   OH273249   2.660   1.255   2.116  0.1944  0.2995 -0.3839
17253TIP3    H173250   2.597   1.192   2.080  0.4744  0.4960 -1.2308
17253TIP3    H273251   2.704   1.208   2.187 -0.9720  0.1900  0.3048
17254TIP3   OH273252   5.858   0.674   4.885 -0.6132 -0.5359  0.5516
17254TIP3    H173253   5.787   0.673   4.949 -1.4732 -1.3861 -0.3787
17254TIP3    H273254   5.820   0.636   4.806  1.2537 -2.3315  0.4316
17255TIP3   OH273255   0.461   6.564   2.261 -0.3817  0.3148  0.9250
17255TIP3    H173256   0.459   6.468   2.257  1.1897  0.2831  0.2536
17255TIP3    H273257   0.426   6.591   2.176 -0.6492  0.3419  1.0422
17256TIP3   OH273258   1.539   4.354   4.884  0.2749  0.1151 -0.3909
17256TIP3    H173259   1.478   4.316   4.947 -1.4777  2.0051 -0.8470
17256TIP3    H273260   1.519   4.309   4.802  1.2205 -0.9833 -0.0373
17257TIP3   OH273261   0.925   1.539  10.495 -0.1058 -0.6087 -1.0303
17257TIP3    H173262   0.934   1.495  10.580  0.5196 -0.5835 -1.0788
17257TIP3    H273263   0.831   1.548  10.483 -0.2445 -1.9541 -1.0356
17258TIP3   OH273264   2.683   3.606   2.246 -0.1314 -0.0456 -0.5013
17258TIP3    H173265   2.695   3.579   2.155 -0.9758 -0.4632 -0.5022
17258TIP3    H273266   2.688   3.524   2.296 -0.3566  0.0879 -0.2562
17259TIP3   OH273267   3.116   0.637   0.807  0.0490 -0.1565  0.3121
17259TIP3    H173268   3.185   0.572   0.796 -0.2338 -0.1387 -2.1924
17259TIP3    H273269   3.065   0.606   0.881  1.3976 -1.3990  0.7615
17260TIP3   OH273270   6.253   4.307  16.294 -0.2057 -0.1232 -0.0492
17260TIP3    H173271   6.169   4.272  16.266  1.0250 -0.7058 -3.4148
17260TIP3    H273272   6.248   4.401  16.275 -0.3701  0.0006  0.5763
17261TIP3   OH273273   4.762   0.131   0.890 -0.0619  0.1813 -0.0050
17261TIP3    H173274   4.704   0.152   0.963  0.3362  2.2093 -0.2024
17261TIP3    H273275   4.703   0.116   0.816 -0.4628 -1.8457  0.6687
17262TIP3   OH273276   3.877   5.846   0.074  0.1984  0.5750 -0.3815
17262TIP3    H173277   3.908   5.759   0.103 -2.5517 -0.2795  0.3108
17262TIP3    H273278   3.875   5.840  -0.021 -2.2806 -1.1552 -0.3425
17263TIP3   OH273279   1.396   2.885  15.771  0.2575  0.5286 -0.6005
17263TIP3    H173280   1.361   2.810  15.820  0.5955  0.2417 -0.7920
17263TIP3    H273281   1.488   2.862  15.755  0.2868  0.8591 -0.9061
17264TIP3   OH273282   4.692   3.868   5.982 -0.0082 -0.1712 -0.4709
17264TIP3    H173283   4.745   3.927   6.037  0.9808 -2.3283  1.0258
17264TIP3    H273284   4.601   3.894   6.000  0.3912  0.8450  0.1849
17265TIP3   OH273285   2.451   1.585   1.196 -0.0645  0.4910  0.4005
17265TIP3    H173286   2.477   1.672   1.165 -1.2846  1.7253  2.5728
17265TIP3    H273287   2.362   1.596   1.228  0.5253 -0.9452  2.8347
17266TIP3   OH273288   4.569   5.661  13.523  0.3531  0.2499 -0.3245
17266TIP3    H173289   4.613   5.716  13.459  2.5678  2.5154  2.8321
17266TIP3    H273290   4.476   5.667  13.500  0.6913  3.7908 -1.3765
17267TIP3   OH273291   1.289   5.358  12.280 -0.6250  0.1707 -0.2562
17267TIP3    H173292   1.210   5.304  12.288 -0.4735 -0.0320 -0.1211
17267TIP3    H273293   1.361   5.295  12.284 -0.4474  0.3854 -0.0927
17268TIP3   OH273294   2.136   1.615  14.121 -0.5157  0.3353 -0.7164
17268TIP3    H173295   2.098   1.531  14.144  0.9700 -0.1332  0.2074
17268TIP3    H273296   2.138   1.616  14.025  1.8401 -1.8843 -0.8112
17269TIP3   OH273297   1.678   4.702  13.792 -0.0054  0.4210  0.3755
17269TIP3    H173298   1.736   4.640  13.835  0.1239  0.3585  0.1167
17269TIP3    H273299   1.591   4.663  13.798  0.3550 -0.8892 -1.7152
17270TIP3   OH273300   1.795   5.149  11.356  0.3665 -0.4772 -0.9916
17270TIP3    H173301   1.804   5.243  11.346 -2.1093 -0.0828 -0.1954
17270TIP3    H273302   1.819   5.132  11.447  1.1396 -0.6935 -1.2270
17271TIP3   OH273303   5.837   6.711  14.181 -0.5319 -0.0781  0.0322
17271TIP3    H173304   5.837   6.761  14.100  1.7750 -0.1796 -0.1038
17271TIP3    H273305   5.927   6.679  14.189 -1.6039 -3.2369  0.7191
17272TIP3   OH273306   5.567   6.276  14.146  0.2031  0.4533  0.2342
17272TIP3    H173307   5.597   6.365  14.167 -1.7678  0.5901  3.0372
17272TIP3    H273308   5.615   6.253  14.067  0.2967  4.2886 -1.0661
17273TIP3   OH273309   4.374   2.136  15.783 -0.3847 -0.2347 -0.1428
17273TIP3    H173310   4.458   2.154  15.825 -0.7765 -0.2865  0.6932
17273TIP3    H273311   4.317   2.208  15.812 -0.1428  0.8867 -2.2300
17274TIP3   OH273312   0.470   3.671   4.947 -0.5295  0.1575  0.3219
17274TIP3    H173313   0.511   3.590   4.915 -1.1500 -0.4363  0.9827
17274TIP3    H273314   0.484   3.669   5.042  0.6212  1.5102  0.2133
17275TIP3   OH273315   6.103   2.638  16.163  0.2175  0.3379  0.0627
17275TIP3    H173316   6.155   2.600  16.092 -0.8959 -0.0641 -0.5571
17275TIP3    H273317   6.024   2.583  16.167 -1.0315  2.0237 -0.2617
17276TIP3   OH273318   4.529   6.005  15.217 -0.3300 -0.0051  0.4636
17276TIP3    H173319   4.591   5.979  15.285  0.4700  0.1459 -0.1905
17276TIP3    H273320   4.582   6.012  15.137 -1.1882  0.1412 -0.1085
17277TIP3   OH273321   0.783   0.350   2.611  0.6864  0.0602  0.5997
17277TIP3    H173322   0.690   0.374   2.612  0.9610  1.2915 -0.4053
17277TIP3    H273323   0.824   0.411   2.672  0.9879  0.3328  0.1369
17278TIP3   OH273324   4.492   3.202  12.940 -0.1800 -0.1825 -0.5992
17278TIP3    H173325   4.433   3.228  13.011  1.2417 -1.9689  1.3653
17278TIP3    H273326   4.446   3.129  12.898 -0.8611  0.6364 -1.2959
17279TIP3   OH273327   2.970   6.371  14.611 -0.4797 -0.7302  0.6739
17279TIP3    H173328   2.954   6.402  14.700  0.6957 -3.9730  2.1845
17279TIP3    H273329   3.057   6.330  14.616 -0.5733 -1.3635 -1.8601
17280TIP3   OH273330   4.566   3.543  12.304 -0.9835 -0.2073  0.4290
17280TIP3    H173331   4.506   3.584  12.366 -0.3454  0.9339  0.3214
17280TIP3    H273332   4.629   3.612  12.283 -1.2814 -0.5188 -1.6404
17281TIP3   OH273333   1.940   0.068  16.871 -0.3745 -0.2426 -0.3700
17281TIP3    H173334   1.910   0.115  16.949 -1.2877  0.2350 -0.9898
17281TIP3    H273335   1.990   0.133  16.821  2.3281 -1.1825  0.9312
17282TIP3   OH273336   4.948   0.016   1.057 -0.6785 -0.0425 -0.0999
17282TIP3    H173337   4.894   0.083   1.014 -0.1324  0.1312 -0.5237
17282TIP3    H273338   4.897  -0.065   1.047 -0.0255 -0.2542 -2.1897
17283TIP3   OH273339   1.332   4.064   1.085  0.4434 -0.4738 -0.3163
17283TIP3    H173340   1.298   3.999   1.146 -2.8923 -0.5630 -2.0485
17283TIP3    H273341   1.320   4.147   1.130  0.5903 -0.7384  0.2183
17284TIP3   OH273342   2.544   3.751  14.213 -0.1205 -1.0501  0.3040
17284TIP3    H173343   2.569   3.826  14.160 -1.6044 -1.0781 -0.4679
17284TIP3    H273344   2.596   3.761  14.293  0.0557  0.5455  0.0325
17285TIP3   OH273345   3.083   5.811   6.209  0.6710  0.1829  0.0655
17285TIP3    H173346   3.041   5.769   6.284 -0.3200 -0.1251 -0.6502
17285TIP3    H273347   3.145   5.873   6.248 -0.0579  0.2603  1.1397
17286TIP3   OH273348   5.059   1.086   1.324  0.3645  0.3341 -0.4823
17286TIP3    H173349   5.055   1.171   1.368  0.3662  0.0809  0.0107
17286TIP3    H273350   5.153   1.073   1.307  0.1980  1.4780 -2.6437
17287TIP3   OH273351   6.251   4.266   0.617  0.5948  0.6003 -0.2411
17287TIP3    H173352   6.232   4.304   0.531  0.0145 -0.3103 -0.5305
17287TIP3    H273353   6.170   4.222   0.642  0.6319  1.1783  0.9610
17288TIP3   OH273354   1.001   6.461  13.777 -0.4151  0.1403  0.3505
17288TIP3    H173355   0.986   6.527  13.709  2.1327  1.5048  0.9751
17288TIP3    H273356   1.037   6.386  13.730 -3.5431 -1.0487 -0.3983
17289TIP3   OH273357   0.751   4.755  10.667  0.5548  0.1688 -0.0594
17289TIP3    H173358   0.801   4.750  10.585 -0.1624 -0.5701 -0.4611
17289TIP3    H273359   0.771   4.674  10.713 -0.0794 -0.0228 -0.1131
17290TIP3   OH273360   3.688   3.997  12.696 -0.5571  0.0113  0.3099
17290TIP3    H173361   3.633   3.970  12.769  0.5579 -0.7387  0.8819
17290TIP3    H273362   3.745   4.065  12.732  0.1635 -0.5330  0.2143
17291TIP3   OH273363   3.747   4.028   1.518 -0.0080 -0.4974  0.6151
17291TIP3    H173364   3.804   3.972   1.465  1.0076  1.1158 -0.0713
17291TIP3    H273365   3.672   4.046   1.462 -0.6191 -1.5768  1.0465
17292TIP3   OH273366   4.105   3.159  11.419  0.0018  0.1340 -0.0344
17292TIP3    H173367   4.066   3.244  11.440  1.2182  0.8366 -0.5532
17292TIP3    H273368   4.193   3.163  11.455  0.4378 -0.4986 -0.9895
17293TIP3   OH273369   0.834   0.987  12.143  0.2125  0.0397 -0.1318
17293TIP3    H173370   0.798   1.067  12.180  0.3218 -0.0004  0.0649
17293TIP3    H273371   0.840   1.004  12.049 -0.0690  0.1429 -0.1343
17294TIP3   OH273372   1.192   2.714   4.635  0.6437  0.1083  0.7792
17294TIP3    H173373   1.262   2.743   4.577  0.4525  1.1186  1.0300
17294TIP3    H273374   1.204   2.766   4.715  0.3159 -0.5577  1.2791
17295TIP3   OH273375   6.337   5.820  10.886 -0.2606  0.1426  0.1422
17295TIP3    H173376   6.336   5.791  10.795  2.0403  0.7310 -0.1397
17295TIP3    H273377   6.315   5.742  10.936 -2.7080  0.0676 -0.8868
17296TIP3   OH273378   3.042   3.649   0.134 -0.3574  0.5214  0.4633
17296TIP3    H173379   2.954   3.653   0.172 -0.8913 -0.3556 -0.6261
17296TIP3    H273380   3.049   3.727   0.079 -0.0284  1.1623  1.3868
17297TIP3   OH273381   3.027   3.419   4.137 -0.3887  0.0842  0.1333
17297TIP3    H173382   3.122   3.420   4.144 -0.2094 -1.1334 -1.5331
17297TIP3    H273383   2.997   3.482   4.203  1.4287 -1.3511  2.4524
17298TIP3   OH273384   4.209   0.959  13.161  0.1121  0.4588 -0.0608
17298TIP3    H173385   4.276   1.017  13.196 -0.1405  0.4226  0.4946
17298TIP3    H273386   4.178   0.909  13.237 -0.8592  0.7996 -0.2192
17299TIP3   OH273387   1.130   5.788   4.261  0.0097 -0.3001  0.0005
17299TIP3    H173388   1.218   5.773   4.227  0.3784 -2.6027  1.6445
17299TIP3    H273389   1.144   5.831   4.346 -0.4062 -0.8094  0.3384
17300TIP3   OH273390   2.561   3.528  13.984 -0.2989 -0.4803  0.6477
17300TIP3    H173391   2.585   3.585  14.057  0.5446  2.0678 -1.4738
17300TIP3    H273392   2.641   3.477  13.966 -0.0228 -0.0348  0.5938
17301TIP3   OH273393   1.060   5.621  15.503  0.2451  0.0492  0.1539
17301TIP3    H173394   1.089   5.531  15.488 -2.2294 -0.4201 -2.7527
17301TIP3    H273395   1.085   5.639  15.594  1.9291 -3.0772  0.4603
17302TIP3   OH273396   4.219   6.526   1.137 -0.0942  0.3135 -0.9086
17302TIP3    H173397   4.276   6.463   1.181  0.6889  0.9263 -1.0220
17302TIP3    H273398   4.262   6.544   1.054 -0.9661  0.0504 -1.4295
17303TIP3   OH273399   0.034   2.882  10.960 -0.2299  0.2457  0.2422
17303TIP3    H173400   0.099   2.952  10.956 -0.5321  0.5308  0.3286
17303TIP3    H273401   0.074   2.809  10.912  0.6564  0.0086  1.2854
17304TIP3   OH273402   4.024   6.444  11.170  0.1227  0.9398 -0.6891
17304TIP3    H173403   4.051   6.372  11.112  0.7933  0.6689 -0.0690
17304TIP3    H273404   3.989   6.510  11.111  0.6076  0.5924 -1.3894
17305TIP3   OH273405   5.462   5.957  11.287  0.5371 -0.1502  0.9726
17305TIP3    H173406   5.393   6.011  11.249  1.3103  0.1552 -0.0236
17305TIP3    H273407   5.450   5.870  11.247 -0.6357 -0.7358  2.4877
17306TIP3   OH273408   1.976   3.104   2.304  0.1323 -0.1977  0.5458
17306TIP3    H173409   1.969   3.059   2.220 -1.2832 -0.1114  0.5870
17306TIP3    H273410   2.066   3.088   2.333  0.8758  0.3417 -1.2957
17307TIP3   OH273411   2.041   0.736   1.414  0.2614 -0.0831 -0.1281
17307TIP3    H173412   2.065   0.723   1.506 -1.6243  0.7380  0.5182
17307TIP3    H273413   2.049   0.649   1.375  0.5349 -0.5528  0.9312
17308TIP3   OH273414   6.612   5.924   2.931 -0.0469 -0.4068 -1.0119
17308TIP3    H173415   6.556   5.995   2.900 -0.4902 -0.4487 -0.3470
17308TIP3    H273416   6.643   5.954   3.016  0.0526 -0.8572 -0.8877
17309TIP3   OH273417   4.580   2.845   0.702 -0.3418  0.0585 -0.1021
17309TIP3    H173418   4.646   2.848   0.772 -0.7362 -1.0130  0.3474
17309TIP3    H273419   4.612   2.907   0.636  0.8070 -0.0051  0.3632
17310TIP3   OH273420   6.392   4.856  15.138 -0.1072 -0.1535 -0.1766
17310TIP3    H173421   6.318   4.883  15.192  0.8443  1.9166  0.1730
17310TIP3    H273422   6.369   4.885  15.050  0.5975  1.2581  0.0739
17311TIP3   OH273423   0.920   4.256   3.251  0.1668  0.3393  0.2309
17311TIP3    H173424   0.845   4.225   3.303 -1.7343  3.2633 -0.5373
17311TIP3    H273425   0.910   4.211   3.167  0.7678 -1.1335  0.9045
17312TIP3   OH273426   5.091   5.485  12.795 -0.4101 -0.3822  0.1792
17312TIP3    H173427   5.093   5.568  12.747  0.5902 -0.8712 -0.6654
17312TIP3    H273428   5.181   5.473  12.826 -0.4894 -1.2541  0.0954
17313TIP3   OH273429   4.662   6.048   4.493 -0.3965 -0.3085  0.1365
17313TIP3    H173430   4.626   5.994   4.564  0.9145  2.2033  2.9285
17313TIP3    H273431   4.595   6.114   4.476 -0.1993 -0.1626 -0.0802
17314TIP3   OH273432   4.011   1.131  16.496  0.1286 -0.0382  0.6458
17314TIP3    H173433   4.029   1.158  16.587 -0.7967  2.7974  0.0825
17314TIP3    H273434   3.986   1.212  16.452  1.8629 -1.0664 -2.5287
17315TIP3   OH273435   1.171   4.294   1.191  0.2483 -0.3986 -0.0070
17315TIP3    H173436   1.132   4.214   1.226  0.0906  0.2221  1.3081
17315TIP3    H273437   1.152   4.361   1.257  3.2627  0.0186  0.6110
17316TIP3   OH273438   3.982   1.869   2.372  0.2705 -0.2088 -0.3878
17316TIP3    H173439   3.968   1.774   2.380 -0.6687 -0.1161 -0.8184
17316TIP3    H273440   3.933   1.907   2.445 -1.1825  0.0773 -1.4870
17317TIP3   OH273441   4.512   6.329  14.670  0.3937  0.2779 -0.0787
17317TIP3    H173442   4.453   6.303  14.600 -0.2980 -1.7300  1.1592
17317TIP3    H273443   4.455   6.357  14.741  0.9770  0.0586  0.4890
17318TIP3   OH273444   4.559   4.748   4.467  0.0414  0.4802  0.3258
17318TIP3    H173445   4.648   4.784   4.474  0.3915 -0.4992  0.9528
17318TIP3    H273446   4.507   4.802   4.525  0.6638 -0.3042  1.6496
17319TIP3   OH273447   0.107   4.047   2.660 -0.3264 -0.3642 -0.4376
17319TIP3    H173448   0.020   4.031   2.622 -0.1731 -0.9527 -0.5411
17319TIP3    H273449   0.163   4.066   2.584 -0.1922 -0.7647 -0.4385
17320TIP3   OH273450   4.559   5.975  13.502 -0.2041 -0.0705  0.2176
17320TIP3    H173451   4.588   5.919  13.430 -0.9726  0.1712 -0.2850
17320TIP3    H273452   4.559   5.917  13.578 -0.3429 -0.5818 -0.1689
17321TIP3   OH273453   4.915   0.903  12.935 -0.8085  0.0018  0.0412
17321TIP3    H173454   4.932   0.977  12.994 -1.5114 -0.7214  1.1922
17321TIP3    H273455   4.859   0.844  12.986 -1.5710 -0.5827 -1.4213
17322TIP3   OH273456   4.028   3.906  15.983  0.2515 -0.4597 -0.2260
17322TIP3    H173457   3.982   3.907  16.067  2.6866  0.1723  1.1901
17322TIP3    H273458   4.098   3.843  15.995  0.3862 -0.6820 -1.9759
17323TIP3   OH273459   5.988   3.196   4.579  0.1848  0.3902 -0.3980
17323TIP3    H173460   6.064   3.231   4.532 -0.0699 -0.9895 -1.9477
17323TIP3    H273461   5.916   3.254   4.554  0.3431  0.5355 -0.5190
17324TIP3   OH273462   4.154   0.486  14.877 -0.6129 -0.5729  0.0261
17324TIP3    H173463   4.184   0.428  14.947 -0.8308 -0.0323  0.5843
17324TIP3    H273464   4.074   0.526  14.912 -0.4164  0.1327 -0.3003
17325TIP3   OH273465   2.206   5.901   3.062  0.3448  0.2014 -0.2653
17325TIP3    H173466   2.204   5.862   2.975  3.4458  0.4401 -0.5537
17325TIP3    H273467   2.178   5.831   3.121 -1.0095 -0.1980 -1.3350
17326TIP3   OH273468   1.506   3.638   0.858  0.7237  0.4243  0.2327
17326TIP3    H173469   1.574   3.573   0.877 -0.3754 -1.0109 -0.5140
17326TIP3    H273470   1.553   3.710   0.817  2.1380  0.6353  2.1148
17327TIP3   OH273471   5.940   2.675   6.033  0.3955 -0.1124 -0.6391
17327TIP3    H173472   5.966   2.636   6.117 -0.8913  1.1487  0.4218
17327TIP3    H273473   5.866   2.622   6.004 -1.7435  1.7047  1.1024
17328TIP3   OH273474   2.416   0.771   1.509  0.5247 -0.1502  0.2727
17328TIP3    H173475   2.427   0.863   1.486 -0.3765 -0.3533 -1.0548
17328TIP3    H273476   2.385   0.772   1.600 -1.7555  0.9882 -0.4536
17329TIP3   OH273477   3.587   1.512   2.831  0.0700  0.0735 -0.0169
17329TIP3    H173478   3.493   1.514   2.846  0.4056 -0.5463  2.7235
17329TIP3    H273479   3.625   1.557   2.907  1.9642  2.3561 -2.1387
17330TIP3   OH273480   6.075   5.961   2.870 -0.0260 -0.4397 -0.2410
17330TIP3    H173481   6.150   5.904   2.852 -1.7086 -2.2582 -2.1149
17330TIP3    H273482   6.027   5.917   2.940  0.9796  1.1203  1.5022
17331TIP3   OH273483   1.425   4.683   2.497  0.2374 -0.1637 -0.1581
17331TIP3    H173484   1.480   4.748   2.454 -0.1279  0.4476  0.2697
17331TIP3    H273485   1.472   4.662   2.578  0.6981 -0.9632 -0.6292
17332TIP3   OH273486   4.527   0.214  12.911  0.4862 -0.9218 -0.0158
17332TIP3    H173487   4.438   0.224  12.879 -0.1981 -2.1155  1.4019
17332TIP3    H273488   4.581   0.207  12.831 -1.0175 -2.8887 -0.9469
17333TIP3   OH273489   3.164   5.616  16.743 -0.9186  0.0846  0.0771
17333TIP3    H173490   3.194   5.528  16.764 -0.7358 -0.1608 -1.1199
17333TIP3    H273491   3.109   5.604  16.665 -1.7002  0.9059  0.4866
17334TIP3   OH273492   5.835   2.327   0.061  0.1967 -0.4718  0.2370
17334TIP3    H173493   5.910   2.385   0.067  0.0153 -0.2299  0.1702
17334TIP3    H273494   5.815   2.322  -0.032 -0.4568  0.2262  0.3291
17335TIP3   OH273495   1.036   6.481   4.409 -0.2333 -0.9381  0.1593
17335TIP3    H173496   0.973   6.516   4.346 -0.2982 -1.0525  0.1605
17335TIP3    H273497   1.109   6.543   4.406 -0.5225 -0.5803  0.4670
17336TIP3   OH273498   5.678   4.637  15.793  0.1953  0.3280 -0.6463
17336TIP3    H173499   5.705   4.685  15.715  3.3048  0.6980  0.5289
17336TIP3    H273500   5.704   4.546  15.776 -2.1298 -0.2956 -1.2797
17337TIP3   OH273501   3.476   3.637  16.743  0.3341  0.0041 -0.0090
17337TIP3    H173502   3.509   3.706  16.800  1.2959 -0.6342  0.2223
17337TIP3    H273503   3.417   3.586  16.798  2.8307 -1.8529  1.0773
17338TIP3   OH273504   1.828   4.274   2.070 -0.1097  0.3392 -0.6874
17338TIP3    H173505   1.892   4.260   1.999 -0.1363  0.5943 -0.7629
17338TIP3    H273506   1.816   4.187   2.108  0.1329  0.2522 -0.8021
17339TIP3   OH273507   3.231   3.607  11.768  0.3408  0.6875  0.0612
17339TIP3    H173508   3.181   3.526  11.776  0.2704  0.8462  1.6087
17339TIP3    H273509   3.273   3.601  11.682 -0.6902 -0.3815 -0.4008
17340TIP3   OH273510   3.938   6.252  14.820  0.5189 -0.4772 -0.1759
17340TIP3    H173511   3.907   6.341  14.839  1.8838  0.0869 -0.4894
17340TIP3    H273512   4.010   6.238  14.882 -0.1727 -1.6724  0.3887
17341TIP3   OH273513   5.323   4.141  13.757  0.9024 -0.6953  0.1404
17341TIP3    H173514   5.319   4.099  13.843 -0.1814 -1.5928 -0.3263
17341TIP3    H273515   5.388   4.090  13.709  1.2478 -0.4139  0.3026
17342TIP3   OH273516   1.199   1.295   1.660 -0.0893 -0.1411  0.1277
17342TIP3    H173517   1.271   1.276   1.720 -0.0312  0.6417  0.3151
17342TIP3    H273518   1.217   1.241   1.583 -0.4983 -1.6539  1.0341
17343TIP3   OH273519   0.828   0.736  14.132 -0.2397 -0.4147  0.0637
17343TIP3    H173520   0.896   0.793  14.168 -0.8486 -0.7817  1.9095
17343TIP3    H273521   0.873   0.683  14.067  0.9625  0.1890  0.3738
17344TIP3   OH273522   1.969   5.298   4.797  0.0065  0.0304 -0.1617
17344TIP3    H173523   1.986   5.220   4.743 -0.4827  0.0941 -0.4218
17344TIP3    H273524   2.055   5.331   4.820  0.2647  0.5530 -1.7161
17345TIP3   OH273525   4.421   4.909   1.599 -0.0057  0.0315 -0.1179
17345TIP3    H173526   4.427   4.865   1.514  0.7051  0.1125 -0.1180
17345TIP3    H273527   4.487   4.865   1.653  0.0447  0.4515  0.1697
17346TIP3   OH273528   2.574   4.604   6.414 -0.2995 -0.3496 -0.0608
17346TIP3    H173529   2.554   4.546   6.488 -2.0567  0.6712  0.3225
17346TIP3    H273530   2.500   4.594   6.355  0.7484 -0.6079 -1.3728
17347TIP3   OH273531   1.298   3.018  15.241 -0.2154  0.1567 -0.2122
17347TIP3    H173532   1.314   2.998  15.333 -0.0000 -1.1412 -0.4999
17347TIP3    H273533   1.372   3.074  15.216  1.6992 -2.2839 -0.4277
17348TIP3   OH273534   3.748   3.625  13.877 -0.2084  0.3923  0.1754
17348TIP3    H173535   3.820   3.660  13.930  0.7467 -0.6915 -0.3775
17348TIP3    H273536   3.778   3.635  13.787  0.0301 -1.6336 -0.0105
17349TIP3   OH273537   2.635   6.190  12.846 -0.3642 -0.3480  0.4809
17349TIP3    H173538   2.572   6.260  12.827 -0.0584 -0.4085 -0.8925
17349TIP3    H273539   2.701   6.198  12.777 -1.0604 -2.8567 -0.5618
17350TIP3   OH273540   6.234   6.112  12.799  0.6202 -0.0273 -0.0251
17350TIP3    H173541   6.246   6.039  12.739 -0.9971  0.8689 -1.5089
17350TIP3    H273542   6.318   6.118  12.845  1.6479 -1.2419 -1.6084
17351TIP3   OH273543   6.082   5.871  10.648 -0.0899 -0.0091  0.1918
17351TIP3    H173544   6.105   5.778  10.640  1.0575  0.2409  0.4413
17351TIP3    H273545   6.019   5.874  10.720 -0.0968 -0.5838  0.2129
17352TIP3   OH273546   2.056   5.828  17.051 -0.3689 -0.2176 -0.5510
17352TIP3    H173547   2.026   5.906  17.004  4.4580  1.4018 -1.4992
17352TIP3    H273548   2.054   5.853  17.143 -1.3804 -0.0280 -0.6129
17353TIP3   OH273549   4.167   0.388  14.191  0.1898 -0.1225  0.3102
17353TIP3    H173550   4.122   0.304  14.196  0.3851 -0.2956 -0.7205
17353TIP3    H273551   4.164   0.422  14.281 -1.2175 -0.5204  0.4402
17354TIP3   OH273552   2.561   4.969   0.357  0.2425  0.7490 -0.2024
17354TIP3    H173553   2.614   4.893   0.378 -0.4535  0.3777  0.2317
17354TIP3    H273554   2.496   4.938   0.295 -0.6923  0.7340  0.7589
17355TIP3   OH273555   4.883   4.103  15.438 -0.2280  1.0253 -0.1773
17355TIP3    H173556   4.973   4.071  15.431 -1.0099 -1.3482 -0.0847
17355TIP3    H273557   4.859   4.088  15.530 -1.7847 -1.6110 -0.9196
17356TIP3   OH273558   3.147   6.150   2.092  0.2294 -0.1124 -0.9220
17356TIP3    H173559   3.217   6.130   2.030 -0.2765 -2.9730 -0.6807
17356TIP3    H273560   3.068   6.160   2.038  0.2951  0.3005 -0.9488
17357TIP3   OH273561   3.028   1.074   3.168 -0.6232 -0.0024 -0.1584
17357TIP3    H173562   2.951   1.017   3.164 -0.3145 -0.4925  0.6092
17357TIP3    H273563   3.007   1.138   3.236 -0.2528 -0.2923  0.2316
17358TIP3   OH273564   3.447   3.858   4.321 -0.2183 -0.4262 -0.0359
17358TIP3    H173565   3.542   3.854   4.331 -0.5028 -1.0974  3.5503
17358TIP3    H273566   3.428   3.793   4.253  1.6667 -3.1446  1.8363
17359TIP3   OH273567   5.632   2.980   1.586  0.0213 -0.3943 -0.2228
17359TIP3    H173568   5.600   3.040   1.518  0.0637 -1.7177 -1.4675
17359TIP3    H273569   5.555   2.957   1.637 -0.9597 -2.7405 -2.5416
17360TIP3   OH273570   0.869   3.286  10.835  0.3499  0.1610  0.5187
17360TIP3    H173571   0.875   3.332  10.751  0.8597 -0.3276  0.2849
17360TIP3    H273572   0.797   3.330  10.881  0.9184  1.3052  0.3639
17361TIP3   OH273573   0.453   1.398   2.155  0.0561 -0.4401 -0.3427
17361TIP3    H173574   0.542   1.368   2.134  0.0827 -0.1319 -0.6851
17361TIP3    H273575   0.458   1.424   2.247  0.2593 -0.6496 -0.2936
17362TIP3   OH273576   6.454   0.866  15.017  0.1647 -0.3571 -0.2122
17362TIP3    H173577   6.537   0.906  15.039  0.0393 -0.0242 -0.3335
17362TIP3    H273578   6.421   0.831  15.100  0.2232 -0.1066 -0.0810
17363TIP3   OH273579   0.610   6.403  15.441 -0.2564 -0.5440  0.4252
17363TIP3    H173580   0.625   6.495  15.421 -2.1073 -0.5640 -1.4341
17363TIP3    H273581   0.691   6.359  15.417  0.2170  0.4592  0.1596
17364TIP3   OH273582   5.794   4.092   0.140 -0.2991 -0.1836  0.2511
17364TIP3    H173583   5.865   4.144   0.101  0.1888 -0.5849  0.5790
17364TIP3    H273584   5.755   4.046   0.066 -1.1371  1.0979 -0.1358
17365TIP3   OH273585   4.033   1.301  14.226  0.7753  0.2367 -0.2379
17365TIP3    H173586   4.001   1.386  14.195  3.5894  1.8208  0.8716
17365TIP3    H273587   4.016   1.241  14.153 -0.7815  1.8540 -1.2719
17366TIP3   OH273588   5.750   2.696  12.448  0.1683  0.1650  0.0490
17366TIP3    H173589   5.699   2.664  12.373  0.4584 -1.0544  0.3496
17366TIP3    H273590   5.796   2.773  12.415 -0.6167  0.3275 -0.6888
17367TIP3   OH273591   6.730   5.086   2.933  0.2369  0.1290 -0.3000
17367TIP3    H173592   6.787   5.021   2.974 -0.4400  1.1387  2.4999
17367TIP3    H273593   6.642   5.063   2.962 -0.0392  2.1207  0.6197
17368TIP3   OH273594   1.264   5.948  12.520  0.3086 -0.5674  0.0805
17368TIP3    H173595   1.204   5.908  12.583  1.6810 -1.5274  0.8206
17368TIP3    H273596   1.207   5.999  12.462 -1.2684 -1.8156  0.4600
17369TIP3   OH273597   6.410   2.358   1.866 -0.0457  0.1865 -0.1127
17369TIP3    H173598   6.429   2.339   1.774  0.2616 -0.9460  0.1673
17369TIP3    H273599   6.333   2.416   1.863 -0.4444 -0.3607 -1.0641
17370TIP3   OH273600   1.248   6.370   5.726 -0.4791 -0.3822 -0.5500
17370TIP3    H173601   1.301   6.306   5.677 -0.0394 -0.1801 -0.3442
17370TIP3    H273602   1.160   6.359   5.691 -0.0492  0.2417 -1.9047
17371TIP3   OH273603   6.271   6.504   2.136 -0.0963 -0.3604 -0.3537
17371TIP3    H173604   6.252   6.556   2.058  3.5092 -0.2111 -1.2992
17371TIP3    H273605   6.234   6.554   2.208 -2.3561  0.1752 -1.7707
17372TIP3   OH273606   2.414   5.925  16.123 -0.4500  0.0489 -0.2387
17372TIP3    H173607   2.321   5.949  16.124 -0.3324  0.5261 -0.4083
17372TIP3    H273608   2.458   5.997  16.169 -0.2667 -0.6597  0.7316
17373TIP3   OH273609   5.580   1.195  13.507 -0.0817  0.6700  0.7579
17373TIP3    H173610   5.613   1.277  13.469 -0.2014  1.1928  1.7426
17373TIP3    H273611   5.544   1.221  13.591 -2.3795  0.0064  0.0434
17374TIP3   OH273612   5.342   3.837   6.369 -0.1932  0.4866  0.9373
17374TIP3    H173613   5.358   3.824   6.276  0.1929 -1.6191  1.2444
17374TIP3    H273614   5.250   3.862   6.374 -0.4844 -0.3400  0.0430
17375TIP3   OH273615   3.235   5.736  14.343  0.2451  0.0815 -0.1689
17375TIP3    H173616   3.273   5.807  14.290  0.5645 -0.1135 -0.2019
17375TIP3    H273617   3.211   5.779  14.425 -0.4742  0.4394 -0.5495
17376TIP3   OH273618   5.896   2.125   0.269 -0.5902  0.1426  0.0821
17376TIP3    H173619   5.854   2.042   0.246 -1.8827  0.4493  1.2370
17376TIP3    H273620   5.888   2.179   0.190 -0.9222 -0.3614 -0.2309
17377TIP3   OH273621   2.653   2.614  15.606  0.9235 -0.5244  0.3426
17377TIP3    H173622   2.668   2.560  15.529  0.4723  0.1318 -0.2256
17377TIP3    H273623   2.563   2.595  15.633  0.1554  1.1165 -0.8675
17378TIP3   OH273624   1.416   3.327   6.282  0.0398  0.1429 -0.4422
17378TIP3    H173625   1.458   3.247   6.314 -2.4392 -1.1432 -0.1395
17378TIP3    H273626   1.322   3.309   6.289 -0.6101  2.2913 -2.3818
17379TIP3   OH273627   3.368   5.142   4.044 -0.3519  0.0572 -0.1663
17379TIP3    H173628   3.334   5.100   4.122 -0.0664  0.8167  0.3850
17379TIP3    H273629   3.456   5.106   4.033  0.2081  1.0585  0.7735
17380TIP3   OH273630   1.446   3.626  12.827  0.1019 -0.8246  0.1891
17380TIP3    H173631   1.371   3.616  12.885  0.2830  0.0692  0.6005
17380TIP3    H273632   1.511   3.565  12.861  0.7448  0.7184  1.8568
17381TIP3   OH273633   6.288   5.616   2.235  0.0732  0.1311 -0.0550
17381TIP3    H173634   6.203   5.648   2.204  0.5465 -0.3746 -1.9575
17381TIP3    H273635   6.350   5.641   2.167  1.0164 -1.7968  0.0243
17382TIP3   OH273636   2.464   3.759   2.916 -0.1568  0.7029  0.7853
17382TIP3    H173637   2.419   3.747   2.832  0.0345  0.7507  0.6757
17382TIP3    H273638   2.487   3.852   2.918  1.2716  0.3959  0.1617
17383TIP3   OH273639   2.539   5.719   3.336  0.0342  0.4592 -0.0029
17383TIP3    H173640   2.574   5.743   3.422 -1.5949  0.2688  0.7548
17383TIP3    H273641   2.445   5.732   3.345 -0.0747  1.3397 -2.0842
17384TIP3   OH273642   2.213   0.548  16.567  0.4378  0.2668 -0.0733
17384TIP3    H173643   2.277   0.580  16.630 -0.5946  0.1947  1.0680
17384TIP3    H273644   2.238   0.588  16.484  1.5877  0.7074  0.4659
17385TIP3   OH273645   0.211   1.843  12.267 -0.2882  0.8725 -0.0334
17385TIP3    H173646   0.231   1.936  12.274 -0.1786  0.9677 -1.3501
17385TIP3    H273647   0.116   1.839  12.267 -0.2921  0.9385  0.5097
17386TIP3   OH273648   0.440   3.264   0.351  0.8516 -0.2679  0.1609
17386TIP3    H173649   0.486   3.217   0.282  0.6932  0.5625 -0.5232
17386TIP3    H273650   0.467   3.356   0.340  0.2517 -0.0146  0.7286
17387TIP3   OH273651   2.560   3.968   3.845 -1.1345  0.6060  0.3933
17387TIP3    H173652   2.591   4.029   3.912  0.5189 -0.6780  0.8649
17387TIP3    H273653   2.510   4.022   3.784  0.1778  2.4204  0.8464
17388TIP3   OH273654   0.261   2.524  10.828  0.2486 -0.0560  0.7083
17388TIP3    H173655   0.215   2.456  10.778 -1.6131  1.5262  0.1710
17388TIP3    H273656   0.252   2.496  10.919  1.2195 -1.5057  0.3971
17389TIP3   OH273657   1.668   2.094  16.246  0.6556 -0.8579 -0.2878
17389TIP3    H173658   1.579   2.060  16.241  1.1893 -2.5518  0.9530
17389TIP3    H273659   1.673   2.136  16.332  0.8521 -0.1247 -0.6517
17390TIP3   OH273660   5.797   1.065   0.366 -0.1345 -0.1977  0.0202
17390TIP3    H173661   5.805   0.972   0.349  0.7206  0.2644 -2.4623
17390TIP3    H273662   5.887   1.095   0.379 -0.1608  0.6412 -1.5279
17391TIP3   OH273663   4.210   4.952   2.593  0.1187  0.0251 -0.0619
17391TIP3    H173664   4.229   4.859   2.582  0.2938  0.0232  0.2432
17391TIP3    H273665   4.114   4.955   2.600  0.1290 -0.1660  0.2110
17392TIP3   OH273666   4.979   6.829   1.404 -0.0100  0.0263  0.1413
17392TIP3    H173667   4.977   6.901   1.468  1.7503 -1.2185  1.7070
17392TIP3    H273668   5.012   6.869   1.324 -0.3902  1.2340  0.5579
17393TIP3   OH273669   6.363   6.704  14.167 -0.6520 -0.4029 -0.3402
17393TIP3    H173670   6.334   6.760  14.095 -1.5553 -1.5219 -0.8730
17393TIP3    H273671   6.446   6.743  14.195 -0.6677  0.5096 -1.4694
17394TIP3   OH273672   0.258   4.054  12.103  0.5737  0.2177  0.1807
17394TIP3    H173673   0.324   4.077  12.169  1.3309  0.3062 -0.5960
17394TIP3    H273674   0.176   4.091  12.137  1.3460  2.1853  0.0034
17395TIP3   OH273675   2.534   3.630  14.611 -0.1854  0.5018 -0.3036
17395TIP3    H173676   2.529   3.720  14.577 -2.9540  0.0863 -1.2807
17395TIP3    H273677   2.531   3.575  14.534 -1.7945 -0.4173  0.3617
17396TIP3   OH273678   2.281   6.758   1.948  0.2943  0.2770 -0.2245
17396TIP3    H173679   2.311   6.744   2.037 -1.1662 -0.5742  0.1579
17396TIP3    H273680   2.255   6.671   1.917 -0.9336  0.8376 -0.8239
17397TIP3   OH273681   6.808   0.065   2.143  0.9139  0.0911 -0.2445
17397TIP3    H173682   6.731   0.008   2.138  1.2602 -0.3469 -0.7480
17397TIP3    H273683   6.823   0.078   2.236 -1.7253  2.8697 -0.0305
17398TIP3   OH273684   4.666   0.456   3.975  0.1233 -0.0057 -0.4869
17398TIP3    H173685   4.630   0.438   4.062  0.8605  2.1303  0.3186
17398TIP3    H273686   4.599   0.425   3.915 -0.2563 -1.8779  0.7900
17399TIP3   OH273687   0.879   6.656   2.928 -0.1514 -0.4008  0.8612
17399TIP3    H173688   0.813   6.723   2.912 -1.0080 -1.2178  0.8472
17399TIP3    H273689   0.954   6.682   2.874 -0.8305  0.0162  0.0943
17400TIP3   OH273690   4.807   0.286   4.711 -0.3681 -0.3346 -0.2636
17400TIP3    H173691   4.865   0.346   4.663 -0.2280  0.5178  0.9284
17400TIP3    H273692   4.719   0.318   4.691 -0.3456 -0.4506 -0.5525
17401TIP3   OH273693   3.952   1.857   1.249  0.1180  0.3900 -0.5124
17401TIP3    H173694   3.872   1.898   1.217 -0.5990 -0.9685 -0.5594
17401TIP3    H273695   4.020   1.924   1.239 -1.0382  1.6396 -0.2728
17402TIP3   OH273696   0.493   5.737   0.958 -0.0362  0.0532 -0.0770
17402TIP3    H173697   0.520   5.685   1.033  0.5789 -0.6433 -0.7674
17402TIP3    H273698   0.575   5.773   0.923 -0.4313  1.4295  0.3228
17403TIP3   OH273699   1.423   4.817  15.594 -0.2996 -0.1996  0.0317
17403TIP3    H173700   1.518   4.830  15.600 -0.4873  2.8739 -1.4703
17403TIP3    H273701   1.412   4.758  15.519  0.4197 -1.0528  0.5779
17404TIP3   OH273702   0.522   5.232  13.047  0.3036 -0.0158 -0.2730
17404TIP3    H173703   0.551   5.169  13.113  0.1504 -1.9440 -1.9468
17404TIP3    H273704   0.440   5.267  13.081  0.1715 -1.0467  0.5169
17405TIP3   OH273705   2.562   4.636  13.546 -0.3948 -0.0993 -0.4139
17405TIP3    H173706   2.552   4.731  13.542 -0.5172 -0.0045  1.4280
17405TIP3    H273707   2.651   4.620  13.516 -0.5060  0.5403 -1.1311
17406TIP3   OH273708   0.766   5.535   3.950  0.5872 -0.2070 -0.2931
17406TIP3    H173709   0.707   5.498   4.016  0.0774  0.1074 -0.5679
17406TIP3    H273710   0.820   5.598   3.998 -0.1055  0.3724 -0.2608
17407TIP3   OH273711   0.348   6.073  10.591  0.2795 -0.4987  0.4262
17407TIP3    H173712   0.320   6.027  10.513 -1.0186 -1.0757  1.1998
17407TIP3    H273713   0.418   6.131  10.561  0.1953 -1.1174 -1.0380
17408TIP3   OH273714   0.072   6.064  11.521  0.9135  0.6090 -0.6871
17408TIP3    H173715  -0.023   6.051  11.518  1.1176 -0.8934 -1.7480
17408TIP3    H273716   0.099   6.060  11.429  2.0372  0.8973 -0.3843
17409TIP3   OH273717   6.057   6.695  11.690 -0.6073 -0.5187  0.2486
17409TIP3    H173718   6.002   6.675  11.614  0.2763 -0.8168 -0.3247
17409TIP3    H273719   6.044   6.789  11.705 -1.2469 -0.5835  0.1019
17410TIP3   OH273720   2.944   6.423   1.322  0.0041  0.2548 -0.3124
17410TIP3    H173721   2.906   6.338   1.302 -0.0647 -0.1102  1.2493
17410TIP3    H273722   3.008   6.405   1.391 -0.1475  1.4901  0.1842
17411TIP3   OH273723   0.579   3.689  13.907  0.5087  0.0057 -0.1317
17411TIP3    H173724   0.553   3.782  13.910  1.0454  0.2389 -1.7624
17411TIP3    H273725   0.673   3.690  13.924  0.4086 -0.3127  0.4602
17412TIP3   OH273726   4.312   0.031   4.386  0.9814  0.2894 -0.7482
17412TIP3    H173727   4.235   0.005   4.335  0.3215  0.2642  0.2198
17412TIP3    H273728   4.386   0.021   4.326  0.0028  2.6041 -2.4918
17413TIP3   OH273729   5.296   0.708   3.913 -0.2064  0.0880  0.3770
17413TIP3    H173730   5.229   0.740   3.974 -0.3900 -0.1090  0.2796
17413TIP3    H273731   5.343   0.640   3.963 -1.2195 -1.0230 -0.1407
17414TIP3   OH273732   1.564   0.922   4.815  0.1354 -0.5277  0.0482
17414TIP3    H173733   1.486   0.912   4.869 -1.3807  0.0618 -1.9116
17414TIP3    H273734   1.562   0.846   4.756  1.1603 -0.6061  0.0924
17415TIP3   OH273735   6.614   4.526   4.587  0.1501  0.5821 -0.1115
17415TIP3    H173736   6.558   4.451   4.565  1.1304 -0.9030  2.0640
17415TIP3    H273737   6.587   4.549   4.676  1.7136  1.0574  0.2530
17416TIP3   OH273738   0.038   2.953   0.355  0.1368 -0.1187  0.3482
17416TIP3    H173739   0.073   3.023   0.300 -0.7729  1.5464  1.7803
17416TIP3    H273740   0.113   2.897   0.373  1.2686  1.3262  0.3584
17417TIP3   OH273741   4.579   3.562  11.411  0.1556  0.2052 -0.3208
17417TIP3    H173742   4.619   3.490  11.460 -0.7592  0.1930  0.4356
17417TIP3    H273743   4.485   3.544  11.413 -0.0215  1.0012 -0.8020
17418TIP3   OH273744   3.709   5.421   3.955 -0.4173 -0.2591  0.0319
17418TIP3    H173745   3.664   5.477   3.892 -0.0819 -0.1435 -0.1075
17418TIP3    H273746   3.662   5.338   3.951  1.2101 -1.1738 -2.3656
17419TIP3   OH273747   5.999   0.650   0.754  0.5317  0.6217  0.4563
17419TIP3    H173748   5.924   0.603   0.790  0.3563  0.6963  0.1894
17419TIP3    H273749   6.074   0.594   0.774  0.1292 -0.6417 -1.3918
17420TIP3   OH273750   2.792   1.649   5.465  0.2791  0.2410 -0.7031
17420TIP3    H173751   2.789   1.673   5.558  0.7519  2.0987 -1.1094
17420TIP3    H273752   2.706   1.672   5.431  1.4541  4.1265 -1.6177
17421TIP3   OH273753   5.239   5.892  16.354  0.2883  0.2936  0.1796
17421TIP3    H173754   5.244   5.979  16.394  0.5836  0.2584  0.2235
17421TIP3    H273755   5.152   5.888  16.314 -0.7527 -0.3022  2.3250
17422TIP3   OH273756   5.027   5.250  16.865 -0.0886  0.3248  1.0183
17422TIP3    H173757   5.118   5.244  16.896 -0.0721 -1.3735  0.7671
17422TIP3    H273758   4.977   5.198  16.928 -1.1305  2.3295  1.9075
17423TIP3   OH273759   4.830   1.155  13.896 -0.3841  0.7220 -0.1288
17423TIP3    H173760   4.917   1.137  13.860 -0.9103  1.6629 -2.0317
17423TIP3    H273761   4.838   1.138  13.990  2.0889  1.6588 -0.1123
17424TIP3   OH273762   4.169   2.975  16.083  0.0279  0.2436  0.4716
17424TIP3    H173763   4.186   3.067  16.062 -0.9051  0.2536 -0.3094
17424TIP3    H273764   4.080   2.973  16.118 -0.7182 -0.5781 -1.3232
17425TIP3   OH273765   4.079   2.359  13.709 -0.6837 -0.2538  0.3253
17425TIP3    H173766   4.053   2.302  13.637 -0.1715 -0.7851  0.5529
17425TIP3    H273767   4.171   2.379  13.692 -0.6627 -0.0807  0.6362
17426TIP3   OH273768   3.646   1.385   3.312 -0.0021 -0.2502  0.1416
17426TIP3    H173769   3.629   1.293   3.293  0.2143 -0.3284  0.3251
17426TIP3    H273770   3.718   1.384   3.375  0.0086  0.0446  0.1366
17427TIP3   OH273771   4.840   6.084   2.857  0.0804 -0.3459  0.6645
17427TIP3    H173772   4.824   6.146   2.785  2.4916 -0.6682 -0.2287
17427TIP3    H273773   4.837   6.137   2.936 -1.6011  0.1965  0.2888
17428TIP3   OH273774   5.379   1.251   4.904 -0.2540 -0.3505 -0.2658
17428TIP3    H173775   5.288   1.264   4.931 -0.1575 -0.5230  0.1540
17428TIP3    H273776   5.431   1.298   4.970  0.0250 -1.4981  0.3555
17429TIP3   OH273777   3.579   0.193  13.173 -0.9246 -0.2412 -0.7884
17429TIP3    H173778   3.643   0.261  13.155  0.5296  0.2482  4.6565
17429TIP3    H273779   3.497   0.240  13.189 -0.8109 -0.1526 -0.4803
17430TIP3   OH273780   5.966   1.855  11.196  0.2430  0.0364  0.6579
17430TIP3    H173781   5.983   1.871  11.103  0.6754  0.6635  0.8377
17430TIP3    H273782   6.045   1.886  11.241  0.5094 -1.3212  1.1564
17431TIP3   OH273783   0.356   1.055  12.239 -0.0496 -0.0092  0.2139
17431TIP3    H173784   0.434   1.033  12.187 -0.5450 -1.3610  0.0120
17431TIP3    H273785   0.287   1.070  12.175 -0.4125 -0.6578  0.4486
17432TIP3   OH273786   2.419   2.868   4.789 -0.2450 -0.0005  0.1007
17432TIP3    H173787   2.470   2.940   4.826  1.3459 -0.1388 -1.6782
17432TIP3    H273788   2.433   2.795   4.849 -0.5888  0.7045  1.0654
17433TIP3   OH273789   3.544   5.215   1.572 -0.7403 -0.5630 -0.1642
17433TIP3    H173790   3.573   5.306   1.575 -0.2117 -0.7644  1.6509
17433TIP3    H273791   3.456   5.216   1.610 -1.2286 -0.6684 -1.2303
17434TIP3   OH273792   5.237   3.148   4.415 -0.1635 -0.3850 -0.0278
17434TIP3    H173793   5.149   3.111   4.403 -1.1786  1.5670  0.8256
17434TIP3    H273794   5.221   3.230   4.462  2.0589  0.4654 -0.6606
17435TIP3   OH273795   3.129   0.163  10.879 -0.3024  0.2236  0.1683
17435TIP3    H173796   3.196   0.100  10.906  0.7318  1.0180 -0.4284
17435TIP3    H273797   3.179   0.240  10.851 -1.5266  1.2556  0.7290
17436TIP3   OH273798   0.537   0.099   1.334  0.4922 -0.3575 -0.1515
17436TIP3    H173799   0.510   0.018   1.376  0.3909 -1.2481 -1.8166
17436TIP3    H273800   0.633   0.099   1.340  0.4219  0.2418  1.2725
17437TIP3   OH273801   3.834   3.633   1.443  0.0181 -0.3261 -0.0413
17437TIP3    H173802   3.924   3.647   1.413  0.2586 -1.2799  0.2201
17437TIP3    H273803   3.784   3.626   1.362 -0.1039  1.7116 -0.2151
17438TIP3   OH273804   4.415   4.413  16.965  0.1450 -0.2779  0.0007
17438TIP3    H173805   4.362   4.362  17.026  0.5609  0.1097  0.7025
17438TIP3    H273806   4.415   4.361  16.884 -1.1505 -0.3664  0.0334
17439TIP3   OH273807   1.154   4.859  12.447 -0.2719 -0.4545  0.6929
17439TIP3    H173808   1.188   4.841  12.535 -1.0913 -0.7197  0.9608
17439TIP3    H273809   1.074   4.807  12.441  0.2603 -1.1616 -0.5577
17440TIP3   OH273810   6.199   3.079  13.145  0.2503  0.7537  0.5680
17440TIP3    H173811   6.138   3.010  13.172 -1.0544  1.4682 -0.4302
17440TIP3    H273812   6.189   3.147  13.212  0.3340  0.6593  0.6772
17441TIP3   OH273813   3.706   3.238   0.404  0.1906 -0.5310  0.0539
17441TIP3    H173814   3.799   3.260   0.396 -0.1744  1.3594  0.4789
17441TIP3    H273815   3.679   3.214   0.315  0.3787  2.1660 -0.8270
17442TIP3   OH273816   3.872   4.957  11.201  0.0461  0.0301 -0.5255
17442TIP3    H173817   3.786   4.961  11.158  0.4843 -0.6756 -1.4825
17442TIP3    H273818   3.928   5.012  11.148  1.0400 -2.2382 -1.9788
17443TIP3   OH273819   5.803   2.445  14.549  0.6733 -0.6087  0.5187
17443TIP3    H173820   5.898   2.450  14.564  0.7373 -0.4466  0.0951
17443TIP3    H273821   5.789   2.501  14.472 -0.0532  1.0761  1.8313
17444TIP3   OH273822   0.441   1.686   2.574  0.0820 -0.0083 -0.1977
17444TIP3    H173823   0.392   1.736   2.640  0.7734  0.4615 -0.0221
17444TIP3    H273824   0.377   1.627   2.536 -0.5472  0.3723  0.2466
17445TIP3   OH273825   5.000   5.936  12.062  0.1064  0.0303  0.5276
17445TIP3    H173826   5.035   5.863  12.011  1.4528 -0.4548  2.0751
17445TIP3    H273827   4.942   5.894  12.126  1.1778  0.2625  1.6655
17446TIP3   OH273828   2.287   0.756   1.185  0.3473  0.8294  0.2661
17446TIP3    H173829   2.235   0.689   1.142  1.0018  0.1812  0.4682
17446TIP3    H273830   2.321   0.714   1.264  0.7451  1.4030  0.4112
17447TIP3   OH273831   5.057   5.555  16.619 -0.0937  0.1329 -0.1184
17447TIP3    H173832   5.001   5.618  16.573 -0.6671 -1.1307 -1.2074
17447TIP3    H273833   5.004   5.524  16.692 -0.2309  0.0634 -0.2486
17448TIP3   OH273834   3.068   4.947  13.737 -0.0493  0.1648  0.0214
17448TIP3    H173835   3.126   4.941  13.662 -0.6836 -0.1765 -0.4509
17448TIP3    H273836   3.063   5.041  13.757  0.9763  0.1688  0.3291
17449TIP3   OH273837   5.731   2.529   2.683  0.5654  0.0020 -0.1965
17449TIP3    H173838   5.723   2.434   2.673 -1.7553  0.2789 -2.2128
17449TIP3    H273839   5.800   2.554   2.622 -1.0916 -0.1539 -2.2453
17450TIP3   OH273840   3.117   0.212   2.811 -0.1785 -0.4124  0.4261
17450TIP3    H173841   3.186   0.166   2.762 -0.8302  0.5495 -1.4755
17450TIP3    H273842   3.035   0.180   2.773 -0.7092  0.3970  0.8644
17451TIP3   OH273843   4.837   3.379   3.645 -0.1643 -0.0712 -0.0035
17451TIP3    H173844   4.823   3.433   3.723  1.3479  1.2927 -0.6161
17451TIP3    H273845   4.874   3.298   3.678  1.3709  0.8616  0.6579
17452TIP3   OH273846   4.000   5.042  15.777  0.0470 -0.0032  0.6075
17452TIP3    H173847   3.946   5.006  15.848  0.9192 -0.2941  1.1445
17452TIP3    H273848   3.950   5.026  15.698 -1.5538  1.4837  1.2715
17453TIP3   OH273849   6.567   0.435  13.977  0.0691  0.0936 -0.0893
17453TIP3    H173850   6.661   0.444  13.989  0.0699  2.0508 -1.1231
17453TIP3    H273851   6.533   0.525  13.985 -1.3612 -0.1717 -2.3240
17454TIP3   OH273852   2.656   5.004   2.744 -0.4234 -0.0450 -0.1574
17454TIP3    H173853   2.563   4.991   2.722 -0.1816  0.6080 -1.7103
17454TIP3    H273854   2.699   5.012   2.659  0.8668  1.0056  0.5705
17455TIP3   OH273855   0.261   2.756   1.029 -0.0489 -0.5112 -0.5007
17455TIP3    H173856   0.324   2.808   1.078  0.4629  0.9781 -2.5778
17455TIP3    H273857   0.314   2.686   0.989  0.0333 -0.1513 -1.0324
17456TIP3   OH273858   3.821   4.481  12.362 -0.3866  0.1063  0.7338
17456TIP3    H173859   3.870   4.452  12.439 -0.7124 -3.8757 -0.3311
17456TIP3    H273860   3.737   4.434  12.369 -0.6965  0.2123 -1.6357
17457TIP3   OH273861   1.878   0.361   1.129 -0.4761 -0.0438  0.7560
17457TIP3    H173862   1.814   0.350   1.200 -1.5430 -0.1498 -0.1952
17457TIP3    H273863   1.873   0.279   1.080 -0.0870  0.2129  0.2858
17458TIP3   OH273864   0.959   3.551  12.102 -0.7977 -0.0830  0.2770
17458TIP3    H173865   0.986   3.563  12.193  0.3881 -0.7541  0.0298
17458TIP3    H273866   0.944   3.457  12.094  0.1976 -0.1828 -0.5074
17459TIP3   OH273867   1.230   3.900  12.888 -0.2979  0.9678 -0.1203
17459TIP3    H173868   1.181   3.928  12.811 -0.3766 -2.2916 -1.3947
17459TIP3    H273869   1.315   3.873  12.854 -0.7467 -1.6938  0.6102
17460TIP3   OH273870   2.109   5.933  14.937 -0.4563  0.1082  0.3277
17460TIP3    H173871   2.154   6.018  14.934  0.7065 -0.5135 -1.2203
17460TIP3    H273872   2.045   5.938  14.866  0.4201 -0.7159 -0.5393
17461TIP3   OH273873   3.029   4.970   2.375  0.2842 -0.2161  0.0755
17461TIP3    H173874   3.043   5.061   2.401 -0.7129 -0.1988  0.5745
17461TIP3    H273875   2.946   4.945   2.415 -0.3399 -0.8055 -1.4814
17462TIP3   OH273876   1.244   2.651  15.297 -0.1193  0.3048 -0.5300
17462TIP3    H173877   1.222   2.576  15.351 -1.5227  0.8761 -0.2723
17462TIP3    H273878   1.304   2.702  15.351 -1.1740  0.6560  0.3601
17463TIP3   OH273879   1.445   0.547  11.715  0.2117  0.1211  0.4455
17463TIP3    H173880   1.482   0.459  11.709 -0.0839 -0.0403  0.9068
17463TIP3    H273881   1.461   0.585  11.629 -0.0518 -0.5416  0.0918
17464TIP3   OH273882   1.095   2.755   2.885  0.4290  0.3475  0.1743
17464TIP3    H173883   1.005   2.723   2.878  0.3563  0.0087  2.2170
17464TIP3    H273884   1.148   2.676   2.890  0.6331  0.5384  1.1432
17465TIP3   OH273885   5.261   6.662  12.639  0.4080 -0.3613  0.5499
17465TIP3    H173886   5.174   6.622  12.630  0.2794 -0.1743  0.9095
17465TIP3    H273887   5.307   6.638  12.559  0.0169 -0.4470  0.3474
17466TIP3   OH273888   3.218   1.967  15.670  0.7942  0.3899 -0.2572
17466TIP3    H173889   3.166   1.975  15.589 -0.5453 -1.5538  0.3565
17466TIP3    H273890   3.297   2.018  15.652  0.0911  0.8349 -2.4226
17467TIP3   OH273891   0.150   0.380   4.259 -0.0311 -0.5180  0.1127
17467TIP3    H173892   0.079   0.433   4.297  0.7078 -0.3810  1.3799
17467TIP3    H273893   0.167   0.312   4.325  1.3911 -0.1986  0.1120
17468TIP3   OH273894   0.575   0.894   3.164  0.0861 -0.1824  0.1561
17468TIP3    H173895   0.609   0.925   3.080 -1.3462  1.4430  0.1241
17468TIP3    H273896   0.651   0.899   3.223  0.3736  1.7906 -0.2845
17469TIP3   OH273897   5.521   1.380   2.569 -0.5670 -0.7203 -0.2021
17469TIP3    H173898   5.471   1.371   2.487  0.3041 -1.0072 -0.7107
17469TIP3    H273899   5.511   1.472   2.593 -1.5687 -0.8293 -0.1431
17470TIP3   OH273900   3.405   6.715   3.476  0.2625 -0.8252 -0.7148
17470TIP3    H173901   3.443   6.691   3.392  0.1242  0.7006 -1.2512
17470TIP3    H273902   3.347   6.788   3.456 -1.4347 -1.8059  0.3942
17471TIP3   OH273903   6.086   6.557  14.988  0.2107 -0.3120  0.1626
17471TIP3    H173904   6.033   6.632  14.961  0.9948 -0.0007 -0.5399
17471TIP3    H273905   6.026   6.503  15.040 -0.5949  0.3818 -0.0282
17472TIP3   OH273906   2.481   3.644   0.447 -0.4293 -0.6393 -0.3790
17472TIP3    H173907   2.495   3.660   0.354 -0.4121 -0.4369 -0.3420
17472TIP3    H273908   2.386   3.635   0.456 -0.6858  1.6750 -0.0640
17473TIP3   OH273909   4.417   2.140   6.348 -0.0148 -0.7255  0.0396
17473TIP3    H173910   4.487   2.112   6.289  0.3778  1.4749 -0.6507
17473TIP3    H273911   4.462   2.188   6.418 -0.7913  1.2881 -0.7578
17474TIP3   OH273912   2.651   5.694   2.300  0.0191 -0.7293 -0.0308
17474TIP3    H173913   2.579   5.633   2.315 -0.4939 -0.2614 -0.5582
17474TIP3    H273914   2.688   5.666   2.216 -0.3682 -0.1725 -0.3922
17475TIP3   OH273915   5.041   0.933  15.450 -0.3019  0.2042 -0.5082
17475TIP3    H173916   5.106   1.000  15.471  1.2181 -1.2041 -0.5790
17475TIP3    H273917   5.036   0.934  15.355 -1.2853  1.1087 -0.4668
17476TIP3   OH273918   5.747   5.286   2.083  0.4626 -0.2950  0.1478
17476TIP3    H173919   5.828   5.323   2.116  0.5022 -0.4296  0.2029
17476TIP3    H273920   5.766   5.261   1.992  0.5627 -0.5768  0.2463
17477TIP3   OH273921   1.624   5.259   3.684  0.2718 -0.3987  0.3257
17477TIP3    H173922   1.681   5.310   3.742  0.0894 -0.7297  0.7987
17477TIP3    H273923   1.647   5.290   3.596 -0.7062  1.4114  0.6549
17478TIP3   OH273924   4.444   6.507   4.293  0.0614 -0.6928  0.0565
17478TIP3    H173925   4.538   6.524   4.284  0.0384 -1.0314 -1.0295
17478TIP3    H273926   4.439   6.421   4.336  0.2155  0.0936  1.7067
17479TIP3   OH273927   0.645   6.322   3.238  0.4335 -0.0522 -0.2116
17479TIP3    H173928   0.680   6.343   3.151  0.2144 -0.3025 -0.3616
17479TIP3    H273929   0.684   6.387   3.296 -0.4568  0.9745 -0.7184
17480TIP3   OH273930   5.983   5.998  12.463  0.1288  0.5733 -0.6513
17480TIP3    H173931   5.986   6.091  12.486 -0.4703  0.5031 -0.2644
17480TIP3    H273932   5.978   5.952  12.547 -1.3627  0.2824 -0.8624
17481TIP3   OH273933   4.337   1.404  14.688  0.4475  0.7610 -0.4963
17481TIP3    H173934   4.315   1.479  14.632 -1.2144  0.3185 -0.5025
17481TIP3    H273935   4.252   1.365  14.709  1.1338  0.1898  1.3442
17482TIP3   OH273936   0.708   0.803   1.565  0.1226 -0.2778 -0.1556
17482TIP3    H173937   0.738   0.740   1.500  2.1221 -0.0507  0.4877
17482TIP3    H273938   0.787   0.851   1.591 -0.9773  1.0436  0.9273
17483TIP3   OH273939   2.962   6.825  16.925  0.4924 -0.1534 -0.1211
17483TIP3    H173940   2.998   6.845  17.011  3.0644 -2.1012 -0.5989
17483TIP3    H273941   3.000   6.891  16.867 -0.6354  0.7028  0.0954
17484TIP3   OH273942   5.636   5.700   0.412 -0.4425 -0.0725  0.2324
17484TIP3    H173943   5.563   5.744   0.369 -1.1656 -0.8172  0.6497
17484TIP3    H273944   5.710   5.760   0.404 -1.0979  0.6825 -0.2294
17485TIP3   OH273945   6.299   6.551  12.608  0.0420  0.0368  0.3932
17485TIP3    H173946   6.316   6.458  12.621  0.6549  0.4733  3.4354
17485TIP3    H273947   6.212   6.554  12.569  0.5519 -1.7995 -1.0215
17486TIP3   OH273948   5.339   3.493  10.147 -0.4051  0.1304  0.0830
17486TIP3    H173949   5.343   3.552  10.071 -0.0253 -0.6933 -0.5573
17486TIP3    H273950   5.425   3.451  10.149 -0.8460 -0.7960  0.1863
17487TIP3   OH273951   3.370   0.374   2.800  0.1526 -0.0823 -0.1823
17487TIP3    H173952   3.427   0.450   2.791  0.3383 -0.1861  0.1181
17487TIP3    H273953   3.401   0.313   2.733  1.6370 -0.9134  1.1869
17488TIP3   OH273954   3.084   4.214   3.040  0.4634  0.2861  0.1603
17488TIP3    H173955   3.156   4.152   3.039  1.4281  1.3303  1.3138
17488TIP3    H273956   3.035   4.197   2.959  1.2451 -1.2965 -0.0076
17489TIP3   OH273957   4.551   5.609  16.337 -0.2589 -0.0662 -0.2292
17489TIP3    H173958   4.513   5.521  16.344 -1.6767  0.3200 -2.1857
17489TIP3    H273959   4.576   5.616  16.244 -0.1317  1.5857 -0.0872
17490TIP3   OH273960   0.683   3.875   5.069 -0.1376  0.3959 -0.3267
17490TIP3    H173961   0.645   3.953   5.109  0.0483  0.4196 -0.1965
17490TIP3    H273962   0.611   3.812   5.067  0.2606 -0.1635  1.5227
17491TIP3   OH273963   1.551   5.782  14.557  1.0165 -0.2416 -0.8031
17491TIP3    H173964   1.532   5.855  14.617  0.4919 -0.3591 -0.8249
17491TIP3    H273965   1.594   5.717  14.611  1.1388 -0.0750 -0.6984
17492TIP3   OH273966   2.490   5.435  12.364 -0.5380 -0.1276  0.1516
17492TIP3    H173967   2.436   5.413  12.288 -3.8595 -0.8150  2.4870
17492TIP3    H273968   2.545   5.358  12.378 -1.0918 -0.6737 -0.6127
17493TIP3   OH273969   2.375   0.349  14.893 -0.0027  0.0192  0.2914
17493TIP3    H173970   2.320   0.421  14.921  0.9242  0.1873  1.8397
17493TIP3    H273971   2.388   0.297  14.973 -2.1379 -2.9456 -1.1166
17494TIP3   OH273972   1.949   3.651   0.555 -0.1331  1.0054 -0.1920
17494TIP3    H173973   1.907   3.663   0.470 -1.3106 -0.1776  0.1876
17494TIP3    H273974   1.978   3.739   0.579  1.1465  1.2184 -2.2395
17495TIP3   OH273975   5.219   1.889   0.895 -0.0802  0.5594 -0.0067
17495TIP3    H173976   5.267   1.967   0.925  0.9606  0.0957 -0.4119
17495TIP3    H273977   5.179   1.854   0.974 -1.3803  2.0302  0.0389
17496TIP3   OH273978   6.623   1.503   2.104 -0.0216 -0.7968  0.3584
17496TIP3    H173979   6.644   1.410   2.118 -0.4832 -1.0971 -0.8437
17496TIP3    H273980   6.647   1.519   2.013  2.9437  1.0747  1.3214
17497TIP3   OH273981   5.441   0.215  10.690  0.1340  0.2939  0.7402
17497TIP3    H173982   5.347   0.236  10.686  0.1955  0.4727 -1.3134
17497TIP3    H273983   5.446   0.124  10.661  0.6209  0.4572  0.2876
17498TIP3   OH273984   4.199   6.206   4.907  0.4979  0.0861 -0.0435
17498TIP3    H173985   4.183   6.209   5.001  2.7117 -0.5364  0.4139
17498TIP3    H273986   4.193   6.113   4.885  0.0469  0.2232 -0.5269
17499TIP3   OH273987   0.619   0.331  11.610 -0.0798 -0.1694 -1.0862
17499TIP3    H173988   0.658   0.249  11.641  1.4448  0.6783 -0.6489
17499TIP3    H273989   0.528   0.308  11.591 -1.0557 -0.9703  3.4302
17500TIP3   OH273990   0.296   0.066   5.506  0.2042  0.3224  0.3245
17500TIP3    H173991   0.364   0.084   5.441 -1.3652  0.5577 -1.3239
17500TIP3    H273992   0.306   0.136   5.570  0.3625  1.4345 -0.8652
17501TIP3   OH273993   6.615   3.806   1.587  0.2347 -0.5518 -0.0680
17501TIP3    H173994   6.541   3.835   1.534  1.3368  1.1816 -0.7511
17501TIP3    H273995   6.604   3.852   1.670  1.1594  0.7476 -0.6156
17502TIP3   OH273996   3.096   3.183  10.932 -0.0157  0.0891 -0.0132
17502TIP3    H173997   3.147   3.102  10.937  0.6882  0.5931  1.9572
17502TIP3    H273998   3.152   3.243  10.883 -0.6013 -0.6008 -1.6107
17503TIP3   OH273999   4.446   6.241  13.910  0.2026 -0.1002  0.3127
17503TIP3    H174000   4.429   6.161  13.958  0.5104  0.2375  0.9889
17503TIP3    H274001   4.520   6.282  13.954  0.4047  0.2880 -0.3567
17504TIP3   OH274002   0.525   2.746   0.017 -0.0974 -0.4038 -0.2801
17504TIP3    H174003   0.550   2.744  -0.075 -0.2535 -0.7736 -0.3159
17504TIP3    H274004   0.601   2.709   0.063  0.3456  0.6223 -0.1718
17505TIP3   OH274005   6.170   4.073   4.420 -0.4040  0.2819  0.0878
17505TIP3    H174006   6.105   4.141   4.437 -1.4160 -0.5868 -0.1945
17505TIP3    H274007   6.126   3.991   4.443  0.8930 -0.2712  0.7101
17506TIP3   OH274008   1.817   3.603  16.020  0.8143  0.4826  0.2447
17506TIP3    H174009   1.800   3.656  16.098 -0.9382  0.8756 -0.3730
17506TIP3    H274010   1.758   3.639  15.953 -0.7142 -2.4287 -0.1165
17507TIP3   OH274011   2.395   2.266  13.347  0.5177  0.0315 -0.3715
17507TIP3    H174012   2.479   2.243  13.309  1.0866 -1.0981  1.4486
17507TIP3    H274013   2.336   2.197  13.318  1.4217 -1.9849  2.2960
17508TIP3   OH274014   1.614   4.217   0.043  0.3627 -0.3581 -0.1430
17508TIP3    H174015   1.581   4.197  -0.044 -0.7148  0.3849  0.0763
17508TIP3    H274016   1.538   4.210   0.101  1.1199 -1.1614  0.8021
17509TIP3   OH274017   6.245   4.013  11.310  0.5330  0.5794  0.1041
17509TIP3    H174018   6.201   3.957  11.374  3.0169 -2.0255 -0.3060
17509TIP3    H274019   6.200   3.995  11.228  1.6438 -1.3542 -0.1329
17510TIP3   OH274020   5.296   3.569  10.597  0.0900  0.4055 -0.3870
17510TIP3    H174021   5.282   3.664  10.603 -1.8968  0.1621 -0.5359
17510TIP3    H274022   5.325   3.554  10.507 -0.8522  0.7655 -0.7669
17511TIP3   OH274023   4.894   4.018   0.431  0.5191 -1.2571 -0.6928
17511TIP3    H174024   4.879   4.054   0.518 -0.5005 -0.8962 -1.0109
17511TIP3    H274025   4.979   4.055   0.405  0.4592 -0.7394 -0.1767
17512TIP3   OH274026   6.484   5.541  13.048 -0.6360 -0.1377  0.2968
17512TIP3    H174027   6.471   5.505  13.136 -1.0747  0.9210  0.6785
17512TIP3    H274028   6.399   5.530  13.005  0.0370 -2.2477 -0.6313
17513TIP3   OH274029   3.247   6.538   3.580  0.1080 -0.1692  0.1023
17513TIP3    H174030   3.266   6.616   3.528  1.6686 -0.7439 -0.2671
17513TIP3    H274031   3.330   6.490   3.581 -0.4686 -1.1990  1.3898
17514TIP3   OH274032   5.506   1.593   4.926 -0.0250  0.4843 -0.2862
17514TIP3    H174033   5.565   1.548   4.865  0.1796  0.5978 -0.1721
17514TIP3    H274034   5.425   1.604   4.876 -0.8003 -1.8482  0.3449
17515TIP3   OH274035   3.483   0.470   5.681 -0.3402  0.1972 -0.3078
17515TIP3    H174036   3.443   0.469   5.594 -0.0434  2.4239 -0.5310
17515TIP3    H274037   3.409   0.463   5.742 -0.4478 -3.2221 -0.6197
17516TIP3   OH274038   6.781   1.086   4.613  0.3821  0.4675  0.1229
17516TIP3    H174039   6.797   1.091   4.519  1.9112  1.4285  0.3939
17516TIP3    H274040   6.711   1.149   4.629 -1.0501 -0.8849 -0.5547
17517TIP3   OH274041   0.174   4.093  11.840 -0.0378 -0.2884 -0.3408
17517TIP3    H174042   0.205   4.070  11.927  2.8361 -0.7780 -1.3753
17517TIP3    H274043   0.216   4.176  11.820  0.9473 -1.1193 -1.9524
17518TIP3   OH274044   5.450   1.022   4.580  0.9611  0.7349 -0.5872
17518TIP3    H174045   5.417   1.043   4.492  1.9670  0.3141 -1.0810
17518TIP3    H274046   5.478   0.931   4.573 -1.1532 -0.0901  0.8547
17519TIP3   OH274047   3.099   5.370   4.648  1.1202 -0.6192 -0.2948
17519TIP3    H174048   3.067   5.280   4.657 -0.1780 -0.1741 -0.2607
17519TIP3    H274049   3.041   5.410   4.584 -0.3253  1.0788  1.9435
17520TIP3   OH274050   1.153   4.474   5.613  0.0591 -0.1153 -0.6455
17520TIP3    H174051   1.139   4.412   5.542 -0.3885 -1.3413  0.4872
17520TIP3    H274052   1.180   4.420   5.688  1.4067  1.2207 -0.1028
17521TIP3   OH274053   5.899   3.135  12.389 -0.2751 -0.1923  0.3008
17521TIP3    H174054   5.925   3.191  12.462  1.2989  0.5760 -0.7981
17521TIP3    H274055   5.940   3.050  12.408  0.9410  0.2769 -0.1281
17522TIP3   OH274056   1.598   5.704   4.643  0.1730  0.0445 -0.0456
17522TIP3    H174057   1.682   5.661   4.626 -0.1525  0.0190 -1.7879
17522TIP3    H274058   1.546   5.687   4.564 -1.3972  0.2589  0.8925
17523TIP3   OH274059   3.262   2.779  14.048  0.1090  0.2595 -0.6757
17523TIP3    H174060   3.313   2.829  13.984 -0.5807 -2.1550 -3.3355
17523TIP3    H274061   3.171   2.791  14.019 -0.7186  2.1572  2.2517
17524TIP3   OH274062   3.570   1.169  12.107 -0.0745 -0.6656 -0.1218
17524TIP3    H174063   3.475   1.169  12.113 -0.2702 -0.8237 -2.4573
17524TIP3    H274064   3.596   1.080  12.133 -0.3725 -0.1179  2.2244
17525TIP3   OH274065   6.356   4.643   2.543 -0.3230 -0.1712 -0.5747
17525TIP3    H174066   6.282   4.592   2.510 -1.7482  0.2250  1.7723
17525TIP3    H274067   6.326   4.734   2.538  0.6648  0.1386 -1.0966
17526TIP3   OH274068   5.467   3.859   2.683 -0.2601 -0.8248  0.0864
17526TIP3    H174069   5.547   3.825   2.723  0.2108 -1.0019 -0.9809
17526TIP3    H274070   5.400   3.792   2.701 -0.0266 -0.9700  0.4308
17527TIP3   OH274071   1.326   3.910   0.779  0.0762  0.0057  0.1552
17527TIP3    H174072   1.420   3.928   0.777  0.3170 -1.1313  0.6751
17527TIP3    H274073   1.320   3.815   0.775 -1.0859  0.0920 -0.5579
17528TIP3   OH274074   1.619   2.266   2.137 -0.3042  0.1179 -0.5600
17528TIP3    H174075   1.650   2.211   2.065  0.0492 -0.7804  0.2479
17528TIP3    H274076   1.629   2.356   2.105  2.0619 -0.1555 -0.7739
17529TIP3   OH274077   2.992   5.811   2.016 -0.1586  0.3446 -0.1761
17529TIP3    H174078   3.016   5.831   2.107 -2.9881 -0.8916  0.9941
17529TIP3    H274079   2.917   5.867   1.998 -0.1211  0.0166 -1.4841
17530TIP3   OH274080   4.570   2.295   2.274 -0.0489  0.4375  0.1520
17530TIP3    H174081   4.561   2.345   2.193  2.5680  0.4043 -0.2393
17530TIP3    H274082   4.547   2.206   2.250 -1.8411  0.8440  0.1505
17531TIP3   OH274083   5.300   5.846  12.396 -0.4802  0.2566  0.1509
17531TIP3    H174084   5.212   5.824  12.364  0.0189 -1.8681  0.0665
17531TIP3    H274085   5.348   5.871  12.318 -0.1913 -1.6472 -0.3324
17532TIP3   OH274086   4.504   3.930  15.181  0.0526 -0.0453 -0.1599
17532TIP3    H174087   4.513   3.843  15.141 -0.4940 -0.3772  0.4140
17532TIP3    H274088   4.422   3.965  15.144 -1.1112 -0.8507  1.5097
17533TIP3   OH274089   2.552   5.801   6.183 -0.2613  0.1214  0.3971
17533TIP3    H174090   2.585   5.774   6.097  0.4216  1.2804  0.2709
17533TIP3    H274091   2.463   5.766   6.187  0.0593 -0.8210 -0.3508
17534TIP3   OH274092   2.232   5.902  14.367  0.4069 -0.1795  0.1560
17534TIP3    H174093   2.291   5.862  14.302  1.3744  0.8012  0.4159
17534TIP3    H274094   2.145   5.888  14.330  0.7854 -1.5880 -0.2744
17535TIP3   OH274095   0.116   0.929   5.093  0.6816  0.3176  0.0070
17535TIP3    H174096   0.184   0.996   5.086  2.5357 -1.4009  0.2939
17535TIP3    H274097   0.062   0.942   5.015  1.4299  1.6735 -0.3241
17536TIP3   OH274098   2.022   3.879  11.210  0.0725 -1.1313 -0.3781
17536TIP3    H174099   2.020   3.784  11.196  1.1293 -1.3011  0.5062
17536TIP3    H274100   2.108   3.896  11.249 -0.1952  0.1634 -0.3064
17537TIP3   OH274101   5.407   0.898   2.878 -0.1743 -0.1439 -0.3413
17537TIP3    H174102   5.323   0.925   2.842 -0.3795 -1.5688 -0.9733
17537TIP3    H274103   5.396   0.908   2.973 -1.5895 -1.6918 -0.2952
17538TIP3   OH274104   4.170   5.995  13.330  0.2735 -0.9070  0.1243
17538TIP3    H174105   4.208   6.026  13.247 -0.4508 -0.1692  0.0534
17538TIP3    H274106   4.140   5.907  13.311  0.7093 -0.9907 -0.2054
17539TIP3   OH274107   4.367   2.563  16.346  0.4008 -0.4811 -0.2267
17539TIP3    H174108   4.292   2.598  16.297  1.0911  0.2083 -0.8027
17539TIP3    H274109   4.385   2.478  16.306  0.0978 -0.5308 -0.2597
17540TIP3   OH274110   4.855   2.664   0.194 -0.5837  0.7386 -0.2459
17540TIP3    H174111   4.930   2.619   0.157  1.4810  2.2335  1.7929
17540TIP3    H274112   4.850   2.746   0.146 -1.3565  0.3752 -0.8048
17541TIP3   OH274113   5.014   2.242   0.078 -0.5023 -0.0867 -0.5736
17541TIP3    H174114   5.015   2.149   0.057  0.8205 -0.2340  0.0259
17541TIP3    H274115   5.054   2.247   0.165 -1.0498  0.9876 -0.3755
17542TIP3   OH274116   3.174   3.887  11.024  0.0569 -0.6333 -0.0951
17542TIP3    H174117   3.180   3.910  10.932  1.5227 -1.2903 -0.1983
17542TIP3    H274118   3.104   3.822  11.029  0.3834 -1.0471 -0.8500
17543TIP3   OH274119   0.301   5.118   2.980 -0.0776  0.1796  0.1066
17543TIP3    H174120   0.348   5.094   2.900  1.4822  1.7614  0.4735
17543TIP3    H274121   0.304   5.214   2.981  0.6295  0.1977  2.4213
17544TIP3   OH274122   6.119   3.702   2.321  0.0930 -0.0049  0.5458
17544TIP3    H174123   6.069   3.730   2.244 -0.0732 -0.0740  0.6291
17544TIP3    H274124   6.113   3.775   2.382 -1.1233 -0.5704  1.1409
17545TIP3   OH274125   4.901   0.788  10.994  0.0214 -0.1521  0.4890
17545TIP3    H174126   4.919   0.863  11.051  1.4224  0.0676 -0.2017
17545TIP3    H274127   4.884   0.716  11.054  1.9355 -0.0340  1.2444
17546TIP3   OH274128   6.527   3.823   3.994 -1.1054 -0.0250 -0.1182
17546TIP3    H174129   6.512   3.858   4.082 -2.5984  0.9779 -0.7327
17546TIP3    H274130   6.596   3.879   3.958 -0.7158 -0.2344  0.2832
17547TIP3   OH274131   6.186   1.341  14.448 -0.0865 -0.3014  0.0247
17547TIP3    H174132   6.146   1.254  14.451  0.5706 -0.6680 -1.2423
17547TIP3    H274133   6.130   1.391  14.389  0.6689 -0.5061 -0.9079
17548TIP3   OH274134   6.679   6.541  11.271 -0.0869  0.4149 -0.1403
17548TIP3    H174135   6.654   6.449  11.273 -0.1964  0.4514  1.2475
17548TIP3    H274136   6.693   6.560  11.179  0.8264 -1.2291 -0.3947
17549TIP3   OH274137   4.978   3.181  15.767  0.5702  0.3869  0.0675
17549TIP3    H174138   5.015   3.122  15.833  0.1839  0.4309  0.3225
17549TIP3    H274139   5.028   3.262  15.777  1.5991 -0.1110 -0.7635
17550TIP3   OH274140   4.286   1.943   0.934 -0.1592  0.1196  0.3121
17550TIP3    H174141   4.339   1.922   0.857  0.5528  2.1704  0.1734
17550TIP3    H274142   4.343   1.999   0.987 -2.1584  2.4789  0.1356
17551TIP3   OH274143   4.356   3.286  13.439 -0.0765 -0.2346  0.1706
17551TIP3    H174144   4.379   3.252  13.525 -0.6138 -1.5691 -0.1897
17551TIP3    H274145   4.284   3.346  13.455 -2.0567 -2.5265  0.4396
17552TIP3   OH274146   3.377   0.354   1.570 -0.8651  0.1744  0.4162
17552TIP3    H174147   3.369   0.392   1.657  0.2563  2.5785 -0.4348
17552TIP3    H274148   3.411   0.425   1.516  3.1509 -2.4738 -1.0227
17553TIP3   OH274149   2.785   2.367  15.499  1.3397  0.0018  0.2778
17553TIP3    H174150   2.845   2.377  15.424  0.7157 -1.4221 -0.4555
17553TIP3    H274151   2.819   2.292  15.547 -1.0203 -2.2946 -1.3957
17554TIP3   OH274152   1.872   5.947  11.399  0.1385  0.4081 -0.2178
17554TIP3    H174153   1.845   6.032  11.363  1.4294  1.7949  1.8635
17554TIP3    H274154   1.967   5.955  11.410  0.0399 -0.5766  1.7519
17555TIP3   OH274155   6.644   3.152  11.293 -0.2598 -0.1312  0.1823
17555TIP3    H174156   6.571   3.124  11.238  1.1986 -4.7063  0.1631
17555TIP3    H274157   6.723   3.130  11.243  1.1807  1.5884  1.5303
17556TIP3   OH274158   6.855   3.794   0.381  0.1645 -0.0498  0.5556
17556TIP3    H174159   6.843   3.733   0.454  0.9102  0.1211  0.8368
17556TIP3    H274160   6.950   3.808   0.378  0.1070  0.1947 -0.2466
17557TIP3   OH274161   3.761   3.251   2.761 -0.3556  0.1905 -0.4250
17557TIP3    H174162   3.841   3.293   2.730 -0.1033  0.2817  0.3413
17557TIP3    H274163   3.789   3.165   2.793 -0.4918  0.3764  0.2151
17558TIP3   OH274164   5.713   2.818   6.159  0.1171 -0.0282  0.0453
17558TIP3    H174165   5.674   2.878   6.096  0.6418 -1.3114 -1.5709
17558TIP3    H274166   5.803   2.806   6.130 -0.4396 -2.9184 -0.7871
17559TIP3   OH274167   5.582   3.437   0.074  0.2640 -0.6683  0.3407
17559TIP3    H174168   5.636   3.359   0.060 -0.1976 -0.9108 -0.1028
17559TIP3    H274169   5.616   3.475   0.155  0.0913 -1.6635  0.8986
17560TIP3   OH274170   6.123   5.546  15.719 -0.2891 -0.0188  0.0249
17560TIP3    H174171   6.052   5.535  15.782 -0.6898 -2.0589 -0.7150
17560TIP3    H274172   6.180   5.470  15.733 -0.0501 -0.1796 -1.6271
17561TIP3   OH274173   5.544   6.829  11.762  0.5445 -0.0012  0.0281
17561TIP3    H174174   5.552   6.764  11.693  2.3350  0.4508 -0.2605
17561TIP3    H274175   5.552   6.913  11.717 -0.8382  0.4141  0.5020
17562TIP3   OH274176   5.640   1.543  11.112  0.1045 -0.6081  0.3112
17562TIP3    H174177   5.554   1.540  11.155 -1.0630  0.2031 -1.7919
17562TIP3    H274178   5.669   1.634  11.123  0.0545 -0.5400 -0.0906
17563TIP3   OH274179   3.238   0.493   5.889 -1.0619 -0.1113  0.1979
17563TIP3    H174180   3.203   0.433   5.954 -0.8242 -0.4081  0.0530
17563TIP3    H274181   3.164   0.515   5.833 -1.0900 -0.4778  0.0919
17564TIP3   OH274182   4.256   3.608   3.216  0.4220 -0.1397 -0.2191
17564TIP3    H174183   4.259   3.593   3.310  0.0520 -0.4871 -0.2609
17564TIP3    H274184   4.347   3.619   3.191  0.4216  1.9615  0.4951
17565TIP3   OH274185   4.651   0.037  12.482 -0.6243 -0.7426 -0.2041
17565TIP3    H174186   4.675   0.068  12.569 -0.9267  1.0723 -0.7170
17565TIP3    H274187   4.555   0.029  12.485 -1.0532  2.4908 -1.2175
17566TIP3   OH274188   6.123   0.056   3.775  0.4478  0.0358 -0.2758
17566TIP3    H174189   6.155   0.147   3.771  0.5310  0.0520  0.5422
17566TIP3    H274190   6.201   0.004   3.792  0.4379 -0.2275 -0.9855
17567TIP3   OH274191   3.014   0.004  13.848  0.6458  0.5022 -0.2755
17567TIP3    H174192   3.016   0.094  13.814 -1.7178 -0.6065 -3.9954
17567TIP3    H274193   2.932  -0.001  13.897 -0.8471 -0.2503 -2.6705
17568TIP3   OH274194   1.895   1.141   5.668 -0.5948 -0.1425 -0.2785
17568TIP3    H174195   1.805   1.127   5.638 -0.8551 -0.8480  0.7789
17568TIP3    H274196   1.929   1.053   5.685  0.0230  0.1601  0.0964
17569TIP3   OH274197   5.731   0.834   2.359 -0.8631 -0.2602 -0.2739
17569TIP3    H174198   5.662   0.786   2.314 -1.3167  0.1885 -0.0588
17569TIP3    H274199   5.709   0.826   2.452 -2.4254  2.5167 -0.2960
17570TIP3   OH274200   4.390   4.623   0.638  0.1001  0.1703  0.2832
17570TIP3    H174201   4.362   4.637   0.548 -0.3799 -1.1630  0.1979
17570TIP3    H274202   4.317   4.575   0.678  0.8645 -0.4277  0.9955
17571TIP3   OH274203   1.811   4.443  14.561 -0.6641 -0.1155  0.0733
17571TIP3    H174204   1.838   4.520  14.612 -1.7539  0.7190 -0.5737
17571TIP3    H274205   1.716   4.451  14.552 -0.5802 -0.5407 -1.5738
17572TIP3   OH274206   6.070   5.495  13.560 -0.0561  0.4032 -0.0272
17572TIP3    H174207   5.990   5.535  13.527 -0.1519 -1.0273 -1.6403
17572TIP3    H274208   6.040   5.437  13.630 -0.3036  0.5195 -0.0336
17573TIP3   OH274209   1.234   5.864  14.745 -0.4456 -0.3571 -0.1074
17573TIP3    H174210   1.242   5.919  14.667  1.5649 -1.3976 -0.7200
17573TIP3    H274211   1.261   5.777  14.715  1.4113 -0.5858  1.9249
17574TIP3   OH274212   0.144   5.709   2.392  0.0443  0.2481 -0.0952
17574TIP3    H174213   0.220   5.734   2.338 -0.0870 -1.2225 -1.0117
17574TIP3    H274214   0.181   5.655   2.462 -0.0251  0.4999  0.1370
17575TIP3   OH274215   1.955   1.668   2.647 -0.2119  0.3172 -0.1827
17575TIP3    H174216   2.018   1.708   2.708 -0.0023 -1.2326  0.6913
17575TIP3    H274217   1.999   1.672   2.562 -0.2745  2.0358 -0.1735
17576TIP3   OH274218   2.340   5.737   2.176  0.3016 -0.3257  0.0454
17576TIP3    H174219   2.369   5.768   2.091 -4.5748 -2.1656 -2.7418
17576TIP3    H274220   2.386   5.653   2.189  1.3269  0.1282 -0.5723
17577TIP3   OH274221   5.533   6.783  16.773 -0.0820 -0.0025  0.6761
17577TIP3    H174222   5.565   6.725  16.843  1.7154 -0.1585 -0.2186
17577TIP3    H274223   5.491   6.855  16.820 -0.1709 -0.7917  1.8754
17578TIP3   OH274224   1.181   0.890   5.265  0.1133 -0.3095 -0.4670
17578TIP3    H174225   1.150   0.921   5.180  0.2343 -0.8006 -0.6947
17578TIP3    H274226   1.130   0.811   5.282 -1.2133  0.7808  0.7778
17579TIP3   OH274227   5.900   3.325   2.775  0.3495  0.4225  0.0163
17579TIP3    H174228   5.933   3.262   2.711 -1.0291  1.2066 -1.5284
17579TIP3    H274229   5.977   3.375   2.801  1.3055 -1.2517  0.5834
17580TIP3   OH274230   5.346   1.743   6.268 -0.4149 -0.2957 -0.3341
17580TIP3    H174231   5.435   1.769   6.292  0.5192 -1.0048 -2.6600
17580TIP3    H274232   5.326   1.668   6.324  0.9178 -0.8071 -0.5162
17581TIP3   OH274233   1.720   0.306   6.571 -0.1134 -0.4461  0.2627
17581TIP3    H174234   1.636   0.300   6.616  0.2066  2.0485  1.3458
17581TIP3    H274235   1.778   0.247   6.620 -0.9632 -1.4821  0.0583
17582TIP3   OH274236   0.081   3.882  12.487  0.0602 -0.0768 -0.7826
17582TIP3    H174237   0.099   3.945  12.557  3.2277  1.1499 -2.4827
17582TIP3    H274238   0.108   3.798  12.524 -1.2161 -0.0027  0.4328
17583TIP3   OH274239   6.438   0.909   2.183 -0.0835  0.5448 -1.0143
17583TIP3    H174240   6.422   0.848   2.112 -0.1270  2.6659 -2.9338
17583TIP3    H274241   6.533   0.906   2.196 -0.2366 -1.0637  0.0643
17584TIP3   OH274242   1.903   0.278  11.751  0.5831  0.2568  0.3342
17584TIP3    H174243   1.864   0.263  11.664  1.3631  0.1282 -0.0012
17584TIP3    H274244   1.867   0.362  11.779 -0.9971 -0.4839  0.6387
17585TIP3   OH274245   0.006   1.474   0.810  0.5126 -0.7206 -0.1550
17585TIP3    H174246  -0.085   1.474   0.781  0.2883  0.3782  0.4828
17585TIP3    H274247   0.000   1.490   0.904  1.3670 -0.6771 -0.1063
17586TIP3   OH274248   3.533   0.268   4.315  0.3241  0.2915 -0.1965
17586TIP3    H174249   3.555   0.175   4.310 -0.3112  0.0984  0.3739
17586TIP3    H274250   3.572   0.306   4.237  0.7347 -0.4260 -0.3534
17587TIP3   OH274251   2.125   1.382  11.872  0.4345  0.4863  0.0420
17587TIP3    H174252   2.040   1.423  11.857 -0.8405 -1.3802  1.6343
17587TIP3    H274253   2.142   1.332  11.792  0.4050  1.3878 -0.5508
17588TIP3   OH274254   6.172   0.408  11.941 -0.3547  0.4312 -0.2037
17588TIP3    H174255   6.217   0.341  11.891 -1.3818 -1.3161  1.1049
17588TIP3    H274256   6.242   0.464  11.974  0.8192 -1.5209  0.8072
17589TIP3   OH274257   0.504   0.128   3.654  0.5340 -0.0562  0.9484
17589TIP3    H174258   0.584   0.180   3.666  0.0712  0.5927  1.2683
17589TIP3    H274259   0.501   0.112   3.559  0.6527  0.5562  0.8365
17590TIP3   OH274260   0.996   1.270   3.099 -0.2464  0.2444  0.3839
17590TIP3    H174261   1.083   1.259   3.138 -0.7771 -0.3386  1.4631
17590TIP3    H274262   0.958   1.343   3.146  0.2136  1.5414 -1.1715
17591TIP3   OH274263   1.965   0.458  16.511  0.3943 -0.2122  0.0693
17591TIP3    H174264   2.053   0.480  16.541  0.4968 -1.0728  0.4229
17591TIP3    H274265   1.917   0.436  16.591  0.3183 -1.3071 -0.2572
17592TIP3   OH274266   4.726   2.984   1.362 -0.1014 -0.2111  0.7721
17592TIP3    H174267   4.690   2.960   1.276  1.3869  0.2690 -0.0198
17592TIP3    H274268   4.649   3.006   1.415 -1.0005  0.6762 -0.8201
17593TIP3   OH274269   0.788   6.814   0.267  0.4079 -0.0973 -0.4568
17593TIP3    H174270   0.834   6.738   0.232  1.7134  0.8205 -0.7920
17593TIP3    H274271   0.725   6.777   0.330 -2.0263 -1.8118 -3.6040
17594TIP3   OH274272   1.987   1.289  15.506 -0.5169  0.1169 -0.1269
17594TIP3    H174273   2.016   1.222  15.568 -0.6769  0.2962  0.1455
17594TIP3    H274274   2.049   1.282  15.433 -0.8932 -0.7292 -0.3778
17595TIP3   OH274275   2.951   6.372   0.043  0.2368  0.1537  0.0772
17595TIP3    H174276   2.888   6.436   0.078 -1.6534 -1.0091 -1.0436
17595TIP3    H274277   3.015   6.425  -0.004  0.3054  1.4026  1.4815
17596TIP3   OH274278   4.501   1.122  12.675 -0.0770 -0.4646  0.2078
17596TIP3    H174279   4.439   1.055  12.703 -0.7175  0.9489  2.5078
17596TIP3    H274280   4.459   1.163  12.599 -0.1373 -1.9537 -0.6048
17597TIP3   OH274281   2.536   3.948  14.038 -0.2019  0.5602 -0.2397
17597TIP3    H174282   2.450   3.926  14.001  0.0958 -0.4961 -0.3187
17597TIP3    H274283   2.599   3.902  13.983  0.2497 -1.0705  1.5341
17598TIP3   OH274284   0.391   3.250  12.903 -0.0504  0.2956 -0.5462
17598TIP3    H174285   0.460   3.238  12.969 -0.2692 -2.3508 -0.6759
17598TIP3    H274286   0.310   3.256  12.954  0.0592  1.3734 -0.4794
17599TIP3   OH274287   0.662   2.701   4.075  0.3695  0.1933  0.1272
17599TIP3    H174288   0.648   2.796   4.075  0.0419  0.2003 -2.0388
17599TIP3    H274289   0.757   2.691   4.066  0.7613  0.2312  3.2621
17600TIP3   OH274290   0.339   1.284  12.390 -0.0103 -0.1659 -0.4192
17600TIP3    H174291   0.344   1.372  12.353  4.1317  0.2037  0.4958
17600TIP3    H274292   0.333   1.226  12.314 -0.5808  0.8095 -1.1422
17601TIP3   OH274293   3.823   2.817   5.018  0.1853 -0.0564  0.0471
17601TIP3    H174294   3.886   2.791   4.950 -0.2545  0.3120 -0.5140
17601TIP3    H274295   3.877   2.835   5.095  0.7530  0.0375 -0.3617
17602TIP3   OH274296   3.498   1.108  16.773 -0.5846  0.7996  0.3589
17602TIP3    H174297   3.421   1.088  16.719  0.3364  2.0095 -1.4970
17602TIP3    H274298   3.568   1.126  16.710  1.4073 -0.7624  1.9781
17603TIP3   OH274299   6.420   0.928   5.201  0.0376 -0.3070 -0.1569
17603TIP3    H174300   6.430   1.003   5.259  3.1459 -1.4093  0.9136
17603TIP3    H274301   6.366   0.867   5.250 -2.1044  0.9036 -0.8433
17604TIP3   OH274302   1.077   1.463   2.254  0.2925  0.2299 -0.1870
17604TIP3    H174303   1.083   1.558   2.244  1.0549  0.3382  1.1828
17604TIP3    H274304   1.120   1.428   2.175  1.0951  1.0178 -0.1060
17605TIP3   OH274305   3.326   4.400  11.938 -0.1240 -0.0068  0.1336
17605TIP3    H174306   3.235   4.377  11.957 -0.1144 -1.0610 -0.9802
17605TIP3    H274307   3.371   4.316  11.930  0.5738  0.4529 -1.0435
17606TIP3   OH274308   2.496   2.772  14.228 -0.0031  0.5471 -0.1776
17606TIP3    H174309   2.579   2.741  14.265 -1.4455 -0.8888  1.9910
17606TIP3    H274310   2.487   2.862  14.261  0.2101  0.3610  0.3923
17607TIP3   OH274311   1.572   0.860  12.214 -0.6389  0.1828  0.2276
17607TIP3    H174312   1.666   0.866  12.194 -0.6495  0.0813  0.1471
17607TIP3    H274313   1.550   0.768  12.197 -0.4173 -0.1683  1.6872
17608TIP3   OH274314   2.384   4.609   0.690 -0.4737  0.4342 -0.3665
17608TIP3    H174315   2.474   4.613   0.658 -0.7540 -0.6692 -1.3536
17608TIP3    H274316   2.331   4.638   0.616 -1.0403 -0.7949 -0.4700
17609TIP3   OH274317   4.177   1.238  16.783  0.4504  0.1607  0.2429
17609TIP3    H174318   4.129   1.176  16.838  0.2881  0.7572  0.7848
17609TIP3    H274319   4.255   1.189  16.755  0.0959 -0.4357  0.2919
17610TIP3   OH274320   5.399   1.305  10.614 -0.3024 -0.1371  0.0303
17610TIP3    H174321   5.421   1.352  10.534  1.4347  3.5660  2.4288
17610TIP3    H274322   5.306   1.324  10.627 -0.0331  1.2427  0.0601
17611TIP3   OH274323   4.515   3.698   1.900  0.2803  0.0477 -0.5181
17611TIP3    H174324   4.466   3.767   1.945 -0.1948 -1.0656  0.7416
17611TIP3    H274325   4.474   3.691   1.814 -1.2560 -0.2780  0.2106
17612TIP3   OH274326   2.773   6.505  15.761 -0.4676  0.1516  0.5813
17612TIP3    H174327   2.692   6.488  15.713 -0.2063  0.1999  0.1160
17612TIP3    H274328   2.803   6.418  15.788 -0.8576  0.1613  1.0703
17613TIP3   OH274329   4.921   5.974   4.157  0.7715  0.0042 -0.7609
17613TIP3    H174330   4.978   5.987   4.233  0.6447 -0.5553 -0.5659
17613TIP3    H274331   4.919   6.059   4.114  1.2091  0.2070 -0.3887
17614TIP3   OH274332   3.831   0.846   5.297  0.2239 -0.0426 -0.8464
17614TIP3    H174333   3.772   0.910   5.337 -0.4143 -0.9468 -0.2884
17614TIP3    H274334   3.896   0.827   5.364  0.5077  0.1346 -1.0673
17615TIP3   OH274335   6.616   5.095  15.300 -0.1125  0.3011 -0.1827
17615TIP3    H174336   6.522   5.112  15.301 -0.1577  0.2112 -1.6965
17615TIP3    H274337   6.626   5.012  15.346 -0.8632 -0.1248 -0.7773
17616TIP3   OH274338   6.234   2.710  12.966 -0.3332 -0.2017  0.0136
17616TIP3    H174339   6.152   2.668  12.994 -0.2024 -0.5241 -0.0860
17616TIP3    H274340   6.256   2.769  13.037 -1.4916  1.0648 -0.6384
17617TIP3   OH274341   6.345   4.237  13.029  0.1281  0.4548 -0.4513
17617TIP3    H174342   6.385   4.318  12.998 -0.8372  1.0447 -0.2148
17617TIP3    H274343   6.408   4.202  13.092  0.4712  1.1348 -0.4052
17618TIP3   OH274344   5.824   0.134   1.603  0.0975  0.4743  0.2833
17618TIP3    H174345   5.733   0.103   1.608 -0.0780  1.0322  0.5867
17618TIP3    H274346   5.818   0.229   1.612  0.6709  0.5630 -0.1881
17619TIP3   OH274347   5.260   1.419  12.624 -0.1826 -0.1096 -0.3851
17619TIP3    H174348   5.258   1.429  12.529 -0.3140 -1.6807 -0.5808
17619TIP3    H274349   5.197   1.484  12.657  1.2554  1.7858 -1.1977
17620TIP3   OH274350   3.776   4.744   1.860 -0.3762 -0.0925  0.1607
17620TIP3    H174351   3.832   4.668   1.844 -1.3222 -0.6896 -0.4238
17620TIP3    H274352   3.835   4.810   1.896  0.4567 -1.1291  0.7757
17621TIP3   OH274353   0.124   5.053  16.842  0.3130 -0.4342 -0.6861
17621TIP3    H174354   0.090   4.981  16.895  2.1031 -1.5435 -0.9387
17621TIP3    H274355   0.090   5.037  16.754  1.3324 -1.4726 -0.9142
17622TIP3   OH274356   3.073   0.908   1.361 -0.0255 -0.0430  0.1859
17622TIP3    H174357   3.033   0.945   1.439  0.5987  0.0627  0.4598
17622TIP3    H274358   3.012   0.840   1.333 -2.7206  2.9311 -1.9519
17623TIP3   OH274359   0.752   4.353   3.652  0.3772  0.5229  0.0159
17623TIP3    H174360   0.816   4.407   3.607  2.2266 -0.3252  1.4978
17623TIP3    H274361   0.670   4.403   3.646  1.1491  1.6703 -1.8568
17624TIP3   OH274362   1.287   1.739   5.866  0.6853  0.4015  0.3741
17624TIP3    H174363   1.224   1.785   5.921  2.2854  0.5981  2.1111
17624TIP3    H274364   1.310   1.661   5.915  0.3887 -0.6861 -1.1294
17625TIP3   OH274365   4.269   6.107  12.691  0.1220 -0.7938 -0.5425
17625TIP3    H174366   4.238   6.153  12.769  1.3879  0.1799 -0.5826
17625TIP3    H274367   4.208   6.034  12.681 -1.5879  0.5087 -0.1093
17626TIP3   OH274368   1.482   4.437   3.211  0.1608  0.3441 -0.8983
17626TIP3    H174369   1.427   4.480   3.276 -1.0624 -1.7117 -0.4742
17626TIP3    H274370   1.569   4.437   3.250  0.3722  2.8793 -1.1993
17627TIP3   OH274371   1.167   2.431  15.782 -0.5067  0.2679  0.2907
17627TIP3    H174372   1.157   2.393  15.869 -1.3807 -0.4285 -0.1048
17627TIP3    H274373   1.261   2.428  15.766 -0.4826 -1.1611  0.5377
17628TIP3   OH274374   1.973   4.620   5.846 -0.1222 -0.1230  0.4226
17628TIP3    H174375   1.974   4.651   5.936 -0.1530  0.6420  0.1724
17628TIP3    H274376   1.983   4.700   5.794  2.2704 -0.7664 -0.2071
17629TIP3   OH274377   6.399   3.995   3.106 -0.2964  0.1678 -0.3064
17629TIP3    H174378   6.310   4.026   3.122 -0.7547 -1.1276 -0.2361
17629TIP3    H274379   6.392   3.899   3.108  1.0891  0.0442 -0.3466
17630TIP3   OH274380   2.219   1.604   6.325 -0.1026  0.1389 -0.1926
17630TIP3    H174381   2.153   1.554   6.278  1.2890 -0.5261 -1.5549
17630TIP3    H274382   2.262   1.540   6.381  0.3639  0.2165 -0.4522
17631TIP3   OH274383   0.975   3.113   4.725 -0.0666 -0.1267 -0.6256
17631TIP3    H174384   0.981   3.208   4.738  1.2424 -0.4175  1.2479
17631TIP3    H274385   1.065   3.085   4.710 -0.3283 -1.1724 -0.3309
17632TIP3   OH274386   6.341   5.146   2.359 -0.2202  0.3016  0.1191
17632TIP3    H174387   6.396   5.069   2.371 -0.6912  0.1076  1.1014
17632TIP3    H274388   6.386   5.198   2.292  2.9750  1.7900  3.1562
17633TIP3   OH274389   1.517   1.619  11.183  0.1775 -0.1207  0.0655
17633TIP3    H174390   1.572   1.581  11.251 -1.3940 -0.6776  1.0940
17633TIP3    H274391   1.435   1.570  11.188 -0.3046  0.4255 -1.6447
17634TIP3   OH274392   1.022   1.206  12.616  0.1613  0.0996 -0.0657
17634TIP3    H174393   0.942   1.203  12.668 -0.3037 -1.6203 -0.8300
17634TIP3    H274394   1.002   1.156  12.537  0.8859  2.5274 -1.9023
17635TIP3   OH274395   3.513   0.066   0.479  0.3828 -0.3166  0.7954
17635TIP3    H174396   3.434   0.025   0.514 -0.0914 -0.0938  0.0245
17635TIP3    H274397   3.578  -0.004   0.477 -0.4349 -1.0789 -0.5512
17636TIP3   OH274398   4.826   2.472   2.670  0.0760  0.4000  0.1441
17636TIP3    H174399   4.856   2.417   2.743  1.1124  2.4753  1.3852
17636TIP3    H274400   4.793   2.410   2.605 -1.2829 -1.5383  2.5138
17637TIP3   OH274401   0.447   4.795   3.604 -0.3075  0.2585  0.4263
17637TIP3    H174402   0.392   4.721   3.578  0.8957 -0.8101  0.8081
17637TIP3    H274403   0.526   4.785   3.551  0.1260  0.9309  0.9310
17638TIP3   OH274404   3.244   1.369  13.718 -0.5201  0.4141 -0.3043
17638TIP3    H174405   3.149   1.379  13.729 -0.7995 -0.7070 -1.5335
17638TIP3    H274406   3.254   1.286  13.672  0.9236  1.6467 -2.3604
17639TIP3   OH274407   1.003   5.408  13.441  0.2681 -0.1279  0.5294
17639TIP3    H174408   0.950   5.330  13.426  0.4748 -0.3642  1.0124
17639TIP3    H274409   1.026   5.439  13.354 -0.7854  0.0635  0.3030
17640TIP3   OH274410   2.377   3.303  13.652  0.6749  0.0319 -0.2920
17640TIP3    H174411   2.312   3.351  13.704 -0.9440 -1.1533 -1.1553
17640TIP3    H274412   2.375   3.214  13.687 -0.7124 -0.8978 -2.5145
17641TIP3   OH274413   4.472   2.755  13.509 -0.1118 -0.7445 -0.3284
17641TIP3    H174414   4.466   2.688  13.441 -1.0203  1.1413 -2.2551
17641TIP3    H274415   4.562   2.786  13.505 -0.6494  0.7625 -2.2248
17642TIP3   OH274416   2.863   6.206  11.277  0.0267  0.2060 -0.0651
17642TIP3    H174417   2.817   6.174  11.199  0.9858  1.6990 -1.3225
17642TIP3    H274418   2.878   6.299  11.258  1.4155  0.3052  1.3531
17643TIP3   OH274419   6.402   0.809   0.732  0.2864 -0.8315  0.1206
17643TIP3    H174420   6.390   0.793   0.825 -1.4715 -2.6650 -0.3475
17643TIP3    H274421   6.410   0.721   0.693  1.9104 -0.0906 -1.3839
17644TIP3   OH274422   4.230   0.730   2.439  0.1590  0.6097 -0.5347
17644TIP3    H174423   4.171   0.797   2.474 -2.2675 -1.3109 -0.6753
17644TIP3    H274424   4.280   0.700   2.515 -0.4845  0.8943  0.0097
17645TIP3   OH274425   5.368   1.249  13.993 -0.0126  0.3623  0.4366
17645TIP3    H174426   5.366   1.206  13.908 -0.5936 -2.8478  1.9208
17645TIP3    H274427   5.420   1.328  13.979  0.5401 -0.4239 -2.6902
17646TIP3   OH274428   4.221   0.426   1.288  0.5211  0.2478  0.5140
17646TIP3    H174429   4.304   0.432   1.242  0.4018 -0.0986  0.2524
17646TIP3    H274430   4.221   0.502   1.347  0.4306  1.0190 -0.4461
17647TIP3   OH274431   5.575   6.262   4.341  0.3380  0.6470  0.2443
17647TIP3    H174432   5.495   6.296   4.301 -1.0528 -0.1184  2.1783
17647TIP3    H274433   5.628   6.339   4.358  0.1973  1.1380 -1.3906
17648TIP3   OH274434   4.121   2.864   1.379  0.0622 -0.5166 -0.1844
17648TIP3    H174435   4.144   2.902   1.464  0.3294 -0.6404 -0.1998
17648TIP3    H274436   4.183   2.904   1.317  0.2411 -0.8540 -0.2250
17649TIP3   OH274437   1.689   1.881  11.317  0.2650 -0.3966  0.2040
17649TIP3    H174438   1.596   1.872  11.293  0.2623 -0.2462  0.1555
17649TIP3    H274439   1.717   1.962  11.273  0.8737 -1.3343 -1.2278
17650TIP3   OH274440   5.209   0.421  11.911  0.1149 -0.4535 -0.4243
17650TIP3    H174441   5.212   0.497  11.968 -2.5643  0.4701 -1.3221
17650TIP3    H274442   5.172   0.351  11.965  1.3260 -0.7572  0.0310
17651TIP3   OH274443   1.001   4.863   2.653  0.4114  0.1072  0.3502
17651TIP3    H174444   1.040   4.784   2.689  0.4103  0.4886  1.2290
17651TIP3    H274445   0.913   4.836   2.626  0.4209 -0.1981  0.6200
17652TIP3   OH274446   5.265   6.733   1.975  0.0709  0.3885 -0.2538
17652TIP3    H174447   5.189   6.675   1.965 -1.0727  1.5638  1.0981
17652TIP3    H274448   5.339   6.674   1.987 -0.2238 -0.8519 -3.4880
17653TIP3   OH274449   6.350   2.351   5.812  0.0390 -0.0788 -0.3397
17653TIP3    H174450   6.343   2.438   5.773  0.4914 -0.8677 -2.3074
17653TIP3    H274451   6.438   2.322   5.788  0.0292 -0.9422  0.6086
17654TIP3   OH274452   4.590   0.553  11.766  0.1127  0.8981  0.7498
17654TIP3    H174453   4.666   0.585  11.814  0.0474 -1.9386  3.0165
17654TIP3    H274454   4.626   0.513  11.687  0.4720  3.3673 -0.4060
17655TIP3   OH274455   0.769   1.184   4.459  0.2446  0.6607  0.2907
17655TIP3    H174456   0.808   1.271   4.453  0.5211  0.8148  3.0033
17655TIP3    H274457   0.685   1.199   4.503  0.0739 -0.3987  0.3421
17656TIP3   OH274458   4.537   3.825  12.027  0.0915 -0.2146 -0.6609
17656TIP3    H174459   4.605   3.843  11.961  0.6964 -0.4498 -0.1131
17656TIP3    H274460   4.586   3.800  12.105 -0.6424 -1.7171 -0.6435
17657TIP3   OH274461   6.043   1.010   5.420 -0.4589  0.0385  0.3059
17657TIP3    H174462   5.952   1.037   5.431 -0.5180 -0.2329  0.4928
17657TIP3    H274463   6.042   0.916   5.436 -0.4142 -0.2426 -1.2120
17658TIP3   OH274464   3.137   6.144  15.158 -0.7622 -0.2844  0.2596
17658TIP3    H174465   3.150   6.193  15.077  1.2147 -1.3406 -0.1354
17658TIP3    H274466   3.156   6.207  15.228  3.5948 -0.7294 -0.2501
17659TIP3   OH274467   6.106   0.106   0.011 -0.5501  0.8074 -0.0634
17659TIP3    H174468   6.126   0.059   0.093 -1.0438 -0.0762 -0.4390
17659TIP3    H274469   6.019   0.076  -0.013  0.2196 -0.2285 -1.7869
17660TIP3   OH274470   0.351   5.763  14.041  0.0533 -0.6610 -0.0919
17660TIP3    H174471   0.397   5.699  13.986 -0.1527 -0.3970 -0.5738
17660TIP3    H274472   0.296   5.812  13.980 -0.5856 -0.7197  0.4280
17661TIP3   OH274473   1.449   4.685   0.681  0.0852 -0.1019  0.5985
17661TIP3    H174474   1.487   4.598   0.696  0.7532 -0.0390 -0.5442
17661TIP3    H274475   1.525   4.743   0.678  0.0633 -0.0643 -2.3782
17662TIP3   OH274476   6.425   4.762  16.333 -0.4667 -0.1660 -0.5097
17662TIP3    H174477   6.442   4.683  16.384  1.6692  0.1883 -0.5993
17662TIP3    H274478   6.431   4.833  16.397 -1.4560  0.0189 -0.6035
17663TIP3   OH274479   4.755   0.546  12.447  0.7967 -0.8491 -1.1802
17663TIP3    H174480   4.762   0.575  12.356  1.4850 -0.5758 -1.0458
17663TIP3    H274481   4.843   0.518  12.471  0.6556 -0.7775 -0.5483
17664TIP3   OH274482   3.997   6.028   2.623 -0.4090 -0.3849 -0.0525
17664TIP3    H174483   3.934   6.097   2.643 -0.2318 -0.6217  1.4396
17664TIP3    H274484   4.019   6.041   2.531 -1.2610  0.8199 -0.1025
17665TIP3   OH274485   0.495   3.899   1.266  0.0486 -0.3190 -0.3563
17665TIP3    H174486   0.509   3.809   1.235 -0.2147 -0.6065  0.3301
17665TIP3    H274487   0.581   3.940   1.261  0.4361 -1.0050  0.5468
17666TIP3   OH274488   1.545   4.226  15.182 -0.1278  0.8598 -0.0734
17666TIP3    H174489   1.632   4.238  15.220 -0.5430  0.3357  1.1030
17666TIP3    H274490   1.560   4.221  15.088  1.1054  0.8353  0.1080
17667TIP3   OH274491   1.295   5.467   3.377  0.4668 -0.1969 -0.1661
17667TIP3    H174492   1.359   5.537   3.389  1.0780 -0.7183 -0.3061
17667TIP3    H274493   1.210   5.508   3.392  0.8981  0.2302  1.2902
17668TIP3   OH274494   0.307   0.258  16.568  0.1671  0.0080 -0.1071
17668TIP3    H174495   0.398   0.271  16.593  0.6021  0.4730 -1.8133
17668TIP3    H274496   0.270   0.346  16.565 -0.3882 -0.1930  0.7340
17669TIP3   OH274497   4.522   2.852   1.788 -0.0763  0.4243 -0.2036
17669TIP3    H174498   4.485   2.828   1.873  2.4362 -2.9434  0.1327
17669TIP3    H274499   4.603   2.898   1.809  0.2606  0.1082 -0.7789
17670TIP3   OH274500   4.754   5.049  13.574 -0.4913  0.5103  0.0234
17670TIP3    H174501   4.787   5.136  13.597 -1.0370  0.9248 -0.7312
17670TIP3    H274502   4.832   4.993  13.577  0.0761  1.2392 -0.5465
17671TIP3   OH274503   6.026   3.350   3.921 -0.3062  0.4146 -0.3184
17671TIP3    H174504   6.117   3.377   3.909  0.1868 -1.6448 -1.9039
17671TIP3    H274505   6.023   3.314   4.010  0.7405 -0.4346 -0.5992
17672TIP3   OH274506   0.784   6.549   0.490 -0.0911 -0.4254  0.0221
17672TIP3    H174507   0.809   6.513   0.405  0.2092 -0.4997  0.1404
17672TIP3    H274508   0.695   6.516   0.505 -0.1018 -0.5026 -0.2104
17673TIP3   OH274509   0.765   1.999  12.630 -0.3458 -0.6143  0.1476
17673TIP3    H174510   0.770   1.905  12.608 -0.1256 -0.6408  0.3073
17673TIP3    H274511   0.695   2.032  12.574  0.0676 -0.7260 -0.4582
17674TIP3   OH274512   3.267   3.836   3.769 -0.0614  0.3420  0.0245
17674TIP3    H174513   3.246   3.840   3.863 -0.1310  3.8508  0.0216
17674TIP3    H274514   3.184   3.815   3.727 -0.2797 -0.1829  0.6993
17675TIP3   OH274515   5.663   4.615   2.527  0.2965  0.3268  0.1641
17675TIP3    H174516   5.591   4.552   2.519 -0.7147  1.4172  0.2870
17675TIP3    H274517   5.742   4.562   2.520 -0.4989 -1.0615  1.1007
17676TIP3   OH274518   6.626   1.199  15.741  0.3439 -0.0354 -0.5089
17676TIP3    H174519   6.663   1.179  15.656  0.3083 -0.6385 -0.3900
17676TIP3    H274520   6.568   1.125  15.760  0.6018 -0.0733  0.1780
17677TIP3   OH274521   1.240   6.200   1.951 -0.3059 -0.1349  0.5119
17677TIP3    H174522   1.270   6.110   1.951  1.6332  0.4744  0.1991
17677TIP3    H274523   1.271   6.236   2.035 -0.4297  0.4384  0.3212
17678TIP3   OH274524   0.575   4.483  10.560 -0.4220 -0.2585 -0.1994
17678TIP3    H174525   0.663   4.511  10.535 -0.1388 -0.4730  0.5328
17678TIP3    H274526   0.558   4.406  10.505 -1.6553  1.9051 -3.0442
17679TIP3   OH274527   1.946   3.998  15.183 -0.4534  0.0092 -0.1415
17679TIP3    H174528   1.959   4.063  15.252  1.6067  0.6247 -1.0638
17679TIP3    H274529   1.970   3.915  15.223 -0.3779  0.2023  0.2147
17680TIP3   OH274530   2.896   5.069   3.656 -0.3254 -0.5149 -0.2375
17680TIP3    H174531   2.891   5.164   3.658 -0.3053 -0.5320  0.8518
17680TIP3    H274532   2.947   5.045   3.733  0.2598 -1.3748 -0.8648
17681TIP3   OH274533   6.547   6.474   6.083 -0.3248 -0.4019 -0.3513
17681TIP3    H174534   6.616   6.441   6.140 -1.0055 -0.5775  0.3809
17681TIP3    H274535   6.588   6.480   5.997  0.6392 -0.3820  0.0992
17682TIP3   OH274536   3.830   4.755   4.475 -0.2270  0.4010 -0.1710
17682TIP3    H174537   3.912   4.710   4.455  0.6619  2.2830 -1.0623
17682TIP3    H274538   3.856   4.824   4.536 -1.0053  1.4142 -0.9516
17683TIP3   OH274539   1.584   4.084   4.186 -0.1922 -0.0056  0.4629
17683TIP3    H174540   1.669   4.120   4.160 -0.8211  0.2268 -1.4818
17683TIP3    H274541   1.546   4.051   4.104 -1.1128 -2.0089  1.6062
17684TIP3   OH274542   5.390   2.002  14.292  0.3002  0.0403 -0.6917
17684TIP3    H174543   5.334   2.057  14.237  1.0497 -0.0270 -1.5514
17684TIP3    H274544   5.479   2.028  14.268  0.6645 -1.3921 -0.9608
17685TIP3   OH274545   6.006   1.466   4.177 -0.3455 -0.2869  0.0190
17685TIP3    H174546   5.938   1.400   4.193 -0.3203 -0.9844 -2.4305
17685TIP3    H274547   6.065   1.425   4.115 -1.2903  2.5857 -3.0436
17686TIP3   OH274548   5.522   1.626  14.493 -0.6164  0.4247 -0.8283
17686TIP3    H174549   5.568   1.683  14.554 -0.5413  0.1917 -0.6689
17686TIP3    H274550   5.592   1.584  14.442 -0.5683 -1.0347  0.3815
17687TIP3   OH274551   0.138   2.013  11.340  0.0802  0.1059  0.3252
17687TIP3    H174552   0.220   2.006  11.388  0.2368  1.1436  0.2258
17687TIP3    H274553   0.142   2.098  11.297 -1.4113  0.5615  1.0016
17688TIP3   OH274554   2.366   3.718   3.201 -0.2501  0.2113  0.4150
17688TIP3    H174555   2.349   3.726   3.108 -0.0773 -0.3454  0.3341
17688TIP3    H274556   2.447   3.668   3.207 -0.1580  0.4055  0.8596
17689TIP3   OH274557   3.530   3.444  13.443 -0.5207  0.0927 -0.2639
17689TIP3    H174558   3.542   3.426  13.537  0.9985  1.0560 -0.2357
17689TIP3    H274559   3.566   3.367  13.399 -0.7185 -0.1144 -0.0654
17690TIP3   OH274560   2.841   2.384  13.034 -0.1400 -0.1505 -0.0147
17690TIP3    H174561   2.836   2.475  13.004  0.5185 -1.1087 -3.4398
17690TIP3    H274562   2.758   2.345  13.008  1.1996 -1.5012 -2.7341
17691TIP3   OH274563   4.811   0.753   3.774  0.5310  0.1127  0.5803
17691TIP3    H174564   4.785   0.687   3.711 -0.4482  1.1922 -0.1781
17691TIP3    H274565   4.848   0.703   3.847  1.1710 -1.1856 -0.5775
17692TIP3   OH274566   6.589   0.345   0.666 -0.2706 -0.0556  0.0056
17692TIP3    H174567   6.495   0.332   0.680 -0.2387 -0.2959  0.0050
17692TIP3    H274568   6.607   0.299   0.584 -0.4859  1.4578 -0.9145
17693TIP3   OH274569   2.602   5.758  13.456  0.3199  0.1328 -0.1558
17693TIP3    H174570   2.633   5.837  13.411 -0.8219  0.6553 -0.0708
17693TIP3    H274571   2.672   5.694  13.444  0.7664  0.7954 -1.2337
17694TIP3   OH274572   5.434   5.029  11.001 -0.2648 -0.4131  0.1611
17694TIP3    H174573   5.465   4.972  10.931  0.1768 -1.1291  0.9196
17694TIP3    H274574   5.441   4.976  11.081 -1.5180  0.1017  0.6511
17695TIP3   OH274575   1.977   3.817  11.807  0.1731  0.0850  0.5880
17695TIP3    H174576   1.999   3.726  11.784 -0.4812 -0.5295  2.1935
17695TIP3    H274577   1.883   3.814  11.827 -0.0208  1.2925 -0.0455
17696TIP3   OH274578   6.079   2.985  15.025 -0.1502  0.6431 -0.1986
17696TIP3    H174579   6.159   2.944  15.059 -0.8054 -0.6216 -0.1153
17696TIP3    H274580   6.052   3.045  15.094  0.5384  0.8419 -0.0857
17697TIP3   OH274581   0.191   3.224  16.234 -0.1064  0.2699 -0.3233
17697TIP3    H174582   0.264   3.245  16.176  0.8943  1.7122  1.3653
17697TIP3    H274583   0.228   3.230  16.322 -2.4491  2.0428  0.6488
17698TIP3   OH274584   0.935   2.449  16.380  0.3680 -0.3533  0.5139
17698TIP3    H174585   0.953   2.526  16.326 -0.3537  0.2593  1.1218
17698TIP3    H274586   0.935   2.482  16.470  3.0532 -1.6199  1.0839
17699TIP3   OH274587   3.565   4.646  14.228 -0.1370  0.2715 -1.0888
17699TIP3    H174588   3.489   4.606  14.184 -0.4275 -0.0459 -0.3112
17699TIP3    H274589   3.593   4.715  14.168 -1.2066  0.5686 -1.2803
17700TIP3   OH274590   4.709   0.408  13.815 -0.0681 -0.1842  0.1283
17700TIP3    H174591   4.803   0.404  13.831  0.0276  0.4838 -0.2522
17700TIP3    H274592   4.685   0.318  13.790  0.6474 -0.1495 -0.7408
17701TIP3   OH274593   5.903   3.282   5.809  0.9372  0.4475  0.0604
17701TIP3    H174594   5.884   3.195   5.844  2.2718  0.1164  0.0134
17701TIP3    H274595   5.818   3.315   5.780  0.0562  0.0020  1.9464
17702TIP3   OH274596   1.022   3.621  14.968  0.0150 -0.2868 -0.4225
17702TIP3    H174597   0.931   3.612  14.942  0.2055 -0.5637 -1.0044
17702TIP3    H274598   1.048   3.706  14.934 -0.4317  0.4585  1.0061
17703TIP3   OH274599   6.221   6.136   0.138  0.3020  0.3700  0.4113
17703TIP3    H174600   6.284   6.170   0.201  0.5524  2.1071 -0.7018
17703TIP3    H274601   6.262   6.152   0.053 -0.8650 -0.1331 -0.2706
17704TIP3   OH274602   3.279   4.945  11.214 -0.3142 -0.1374 -0.2829
17704TIP3    H174603   3.255   4.864  11.259 -0.8300 -0.0718 -0.4344
17704TIP3    H274604   3.251   4.931  11.123 -3.6258  1.4646  0.3170
17705TIP3   OH274605   3.348   4.731  13.204 -0.4523 -0.3460 -0.4099
17705TIP3    H174606   3.357   4.746  13.298  0.0151 -1.6445 -0.2174
17705TIP3    H274607   3.379   4.641  13.192  2.0128  0.6434 -2.1957
17706TIP3   OH274608   3.026   5.148   3.906 -0.0424 -0.0686 -0.3075
17706TIP3    H174609   2.985   5.074   3.952  2.9291 -1.7010 -0.0379
17706TIP3    H274610   3.056   5.206   3.976  0.4412 -0.2487 -0.3594
17707TIP3   OH274611   1.544   2.660   3.925 -0.0594 -0.3965  0.1992
17707TIP3    H174612   1.502   2.677   3.841 -2.8561 -1.2694  1.2959
17707TIP3    H274613   1.574   2.745   3.955 -0.2341  0.1363 -1.0715
17708TIP3   OH274614   6.754   6.831   0.257  0.1802 -0.5291  0.3148
17708TIP3    H174615   6.763   6.867   0.169 -1.0708 -1.1366 -0.0895
17708TIP3    H274616   6.806   6.889   0.312  2.3672 -1.0999 -1.0364
17709TIP3   OH274617   6.472   1.180   4.253 -0.2114  0.5750  0.0533
17709TIP3    H174618   6.382   1.186   4.286 -0.6317 -0.6266 -0.8175
17709TIP3    H274619   6.486   1.086   4.240  1.1290  0.7643  0.0550
17710TIP3   OH274620   0.947   0.295   3.507 -0.0044 -0.7023  0.4311
17710TIP3    H174621   1.019   0.357   3.519  1.0518 -1.6473 -0.8157
17710TIP3    H274622   0.941   0.283   3.412 -1.3737 -1.1524  0.5544
17711TIP3   OH274623   2.448   2.322  14.850  0.2346  0.1643  0.0993
17711TIP3    H174624   2.527   2.268  14.851  0.3399  0.2529 -1.1452
17711TIP3    H274625   2.474   2.400  14.800 -0.4770  0.4661  0.1916
17712TIP3   OH274626   1.915   6.606   0.150 -0.1277  0.3006  0.3467
17712TIP3    H174627   1.855   6.544   0.109 -0.2348 -0.1000  1.0981
17712TIP3    H274628   1.975   6.551   0.200  0.6323  0.7220 -0.0881
17713TIP3   OH274629   6.605   1.424  13.711  0.6304  0.4513  0.1550
17713TIP3    H174630   6.567   1.489  13.771 -0.1223 -0.6581  0.9141
17713TIP3    H274631   6.684   1.394  13.755  1.8533  1.9310 -0.9068
17714TIP3   OH274632   0.541   1.012   4.897 -1.2055 -0.6372  0.3360
17714TIP3    H174633   0.613   1.073   4.912 -1.3317 -0.3998 -0.0236
17714TIP3    H274634   0.575   0.927   4.927 -0.5824 -0.6340 -0.3223
17715TIP3   OH274635   0.188   4.915  10.986  0.3467 -0.0469 -0.2779
17715TIP3    H174636   0.124   4.983  10.968 -1.2559 -0.7106  2.4253
17715TIP3    H274637   0.179   4.897  11.079  2.2711 -2.4178 -0.4451
17716TIP3   OH274638   0.362   6.740  15.134  0.4552 -0.0362  0.3275
17716TIP3    H174639   0.334   6.744  15.043 -1.1850  0.7546  0.8282
17716TIP3    H274640   0.442   6.687  15.132  0.1307 -0.5365 -1.4788
17717TIP3   OH274641   1.097   5.220   1.870  0.1963 -0.0243  0.2037
17717TIP3    H174642   1.136   5.223   1.957 -0.0638  1.8301  0.2984
17717TIP3    H274643   1.046   5.301   1.863 -1.3068 -0.9904 -0.9864
17718TIP3   OH274644   6.855   6.301   0.128 -0.2310  0.1017  0.0132
17718TIP3    H174645   6.796   6.281   0.055  0.1869  1.6810 -0.8120
17718TIP3    H274646   6.847   6.396   0.139  0.3924  0.0115  1.4571
17719TIP3   OH274647   1.275   2.271  13.944 -0.3454  0.4524 -0.4895
17719TIP3    H174648   1.357   2.233  13.912 -0.0821  1.2150 -0.7467
17719TIP3    H274649   1.222   2.195  13.969  0.4154 -0.0517 -0.3658
17720TIP3   OH274650   0.560   5.329   5.689 -0.2555 -0.4069  1.0429
17720TIP3    H174651   0.636   5.373   5.727 -1.4129  1.3423  1.4862
17720TIP3    H274652   0.486   5.363   5.739 -1.5567 -0.1952 -0.9168
17721TIP3   OH274653   3.370   0.190   1.349  0.2450 -0.0374  0.1594
17721TIP3    H174654   3.373   0.226   1.438 -1.0431 -2.1839  1.1332
17721TIP3    H274655   3.396   0.098   1.359  1.8867  0.0967 -1.9968
17722TIP3   OH274656   4.710   3.179  12.412 -0.1461 -0.2341  0.1412
17722TIP3    H174657   4.635   3.203  12.357  0.4210 -1.0726 -1.0508
17722TIP3    H274658   4.699   3.231  12.491 -1.0530  0.9704 -0.7290
17723TIP3   OH274659   3.270   6.006  15.756 -0.0565  0.5230 -0.2835
17723TIP3    H174660   3.225   6.040  15.678  0.4398  1.1219 -0.3165
17723TIP3    H274661   3.307   6.084  15.797  1.5266 -0.0268 -0.6173
17724TIP3   OH274662   4.303   4.063  12.585  0.6513  0.0947 -0.0988
17724TIP3    H174663   4.297   4.052  12.680 -1.4097  0.4176 -0.1488
17724TIP3    H274664   4.213   4.062  12.555  0.9824  3.5044 -1.6730
17725TIP3   OH274665   3.409   0.150   2.662  0.2520 -0.3558  0.0450
17725TIP3    H174666   3.388   0.058   2.644 -0.2970  0.2370 -3.0154
17725TIP3    H274667   3.475   0.172   2.595  1.7520  1.0365  1.8742
17726TIP3   OH274668   1.723   5.849  17.040  0.0770 -0.3300 -0.5915
17726TIP3    H174669   1.703   5.914  16.973  0.1776  1.3491  0.9351
17726TIP3    H274670   1.794   5.798  17.003  1.4989  1.8261 -1.0174
17727TIP3   OH274671   6.408   4.383   1.114 -0.2334  0.3228  0.2169
17727TIP3    H174672   6.336   4.410   1.056 -0.2198  1.6744  0.8092
17727TIP3    H274673   6.448   4.464   1.143  1.2351 -0.4005  0.3122
17728TIP3   OH274674   3.764   6.702  11.111 -0.2631 -0.1925  0.1826
17728TIP3    H174675   3.699   6.636  11.085 -1.5964  0.9172  0.5931
17728TIP3    H274676   3.846   6.672  11.072  0.5050 -4.9539  4.3191
17729TIP3   OH274677   4.118   6.281   1.730 -0.4002 -0.3176 -0.2341
17729TIP3    H174678   4.074   6.196   1.727  0.0833 -0.6067  0.5539
17729TIP3    H274679   4.204   6.264   1.690 -0.7479  0.0947 -1.1850
17730TIP3   OH274680   4.811   2.540   4.846 -0.8299 -0.2695 -0.6379
17730TIP3    H174681   4.904   2.519   4.841 -0.9129 -0.7890 -0.1569
17730TIP3    H274682   4.776   2.514   4.761 -0.2830  1.2662 -1.3500
17731TIP3   OH274683   2.041   2.406  13.341 -0.4307  0.3128 -0.8065
17731TIP3    H174684   2.117   2.450  13.379  1.0309 -2.5832 -0.0839
17731TIP3    H274685   2.042   2.430  13.249  0.3782  1.6127 -0.4783
17732TIP3   OH274686   2.048   6.447   1.464 -0.3823 -0.3076  0.2252
17732TIP3    H174687   2.120   6.421   1.406 -0.0249 -0.8226  0.8849
17732TIP3    H274688   2.011   6.525   1.423  0.3471 -0.2237 -0.2913
17733TIP3   OH274689   3.237   1.131   4.419 -0.4939 -0.6482 -0.3239
17733TIP3    H174690   3.227   1.052   4.366  1.1695 -0.8236 -0.4479
17733TIP3    H274691   3.283   1.193   4.362 -1.6457  0.3833 -0.1778
17734TIP3   OH274692   4.112   5.581  11.295  0.2793  0.3892 -0.0716
17734TIP3    H174693   4.018   5.599  11.299 -0.0316 -1.1896  0.8202
17734TIP3    H274694   4.142   5.626  11.216 -1.9133 -1.7123 -2.3141
17735TIP3   OH274695   5.283   2.886   2.904  0.2371  0.6612  0.2429
17735TIP3    H174696   5.370   2.920   2.882 -1.1231  2.2908 -3.3555
17735TIP3    H274697   5.270   2.813   2.844 -0.8436  0.3620  0.8187
17736TIP3   OH274698   2.710   3.277   5.542 -0.0407 -0.3250 -0.2900
17736TIP3    H174699   2.739   3.265   5.632 -1.2853 -0.8012  0.0567
17736TIP3    H274700   2.720   3.370   5.525  0.3309 -0.2587  0.2843
17737TIP3   OH274701   0.301   1.440  15.343 -0.0073  0.0938  0.4414
17737TIP3    H174702   0.280   1.419  15.434 -0.2611 -2.4862 -0.1204
17737TIP3    H274703   0.396   1.432  15.338 -0.0543 -0.4355  0.3478
17738TIP3   OH274704   0.471   4.875  11.035  0.3264 -0.6637  0.1174
17738TIP3    H174705   0.472   4.918  10.949  0.0236 -2.0770 -0.6380
17738TIP3    H274706   0.379   4.876  11.060  0.6322  1.3166  1.2893
17739TIP3   OH274707   4.399   3.564  16.419  0.8169 -0.2828 -0.3163
17739TIP3    H174708   4.482   3.517  16.432  0.3092 -1.5589 -1.4105
17739TIP3    H274709   4.364   3.528  16.338 -1.8831 -1.4209  1.2080
17740TIP3   OH274710   0.110   0.486   0.028 -0.4377  0.4943 -0.6279
17740TIP3    H174711   0.187   0.542   0.041 -0.4330  0.6883 -1.4404
17740TIP3    H274712   0.043   0.524   0.084  0.3986 -0.4361  1.1307
17741TIP3   OH274713   6.114   6.265   2.782  0.2784  0.2231  0.0015
17741TIP3    H174714   6.094   6.270   2.876 -1.3262  0.3840 -0.3147
17741TIP3    H274715   6.053   6.199   2.748  1.6983 -0.7793 -0.7408
17742TIP3   OH274716   1.164   6.658   0.922 -0.7943 -0.2149 -0.2974
17742TIP3    H174717   1.079   6.615   0.928 -0.6422 -0.5373 -0.4289
17742TIP3    H274718   1.179   6.694   1.010 -0.9274 -0.4192 -0.1900
17743TIP3   OH274719   2.829   2.824  16.501  0.3596  0.4656 -0.1684
17743TIP3    H174720   2.863   2.759  16.440  0.3256  1.0442 -0.8169
17743TIP3    H274721   2.885   2.816  16.578  0.9784  0.3399 -0.6226
17744TIP3   OH274722   0.209   1.571   2.877  0.1480 -0.1297 -0.2063
17744TIP3    H174723   0.173   1.546   2.962  0.6078  0.4240  0.1634
17744TIP3    H274724   0.171   1.509   2.815 -0.1686 -0.5582  0.4095
17745TIP3   OH274725   0.841   6.266   2.381 -0.2638 -0.0388 -0.1438
17745TIP3    H174726   0.802   6.347   2.349  0.5677 -0.1517 -1.5213
17745TIP3    H274727   0.858   6.283   2.474  0.7880  1.7474 -0.6042
17746TIP3   OH274728   4.511   5.091  10.395  0.0068 -0.3355  0.6711
17746TIP3    H174729   4.427   5.047  10.385  0.2587 -0.4735 -1.3107
17746TIP3    H274730   4.576   5.024  10.372  0.5807  0.1292  0.9160
17747TIP3   OH274731   6.530   0.192  10.903 -0.1828  0.1144 -0.2468
17747TIP3    H174732   6.556   0.275  10.865 -1.1581  0.5117 -0.0897
17747TIP3    H274733   6.477   0.150  10.835 -0.7367  0.1919  0.1256
17748TIP3   OH274734   6.571   6.308   3.846 -0.6947  0.0106 -0.0945
17748TIP3    H174735   6.517   6.386   3.856 -1.6050 -0.6079 -0.1183
17748TIP3    H274736   6.519   6.248   3.794 -0.0088 -0.6233 -0.0744
17749TIP3   OH274737   4.467   6.162   3.463  0.2760 -0.0939  0.2423
17749TIP3    H174738   4.543   6.157   3.405  0.2350  1.1412  0.0510
17749TIP3    H274739   4.412   6.231   3.425  1.5387  2.7863  3.1676
17750TIP3   OH274740   5.157   2.535  14.242  0.1937  0.0524 -0.1489
17750TIP3    H174741   5.112   2.529  14.158  0.0244  0.2014 -0.0677
17750TIP3    H274742   5.233   2.591  14.225  0.5017 -0.4197 -0.3511
17751TIP3   OH274743   1.834   2.811  16.820 -0.8486  0.3366  0.0734
17751TIP3    H174744   1.916   2.762  16.826 -0.2912  0.9989 -1.6126
17751TIP3    H274745   1.768   2.752  16.858 -0.0595 -1.4037 -1.1232
17752TIP3   OH274746   1.363   1.762   1.646 -0.2597  0.2638 -0.0906
17752TIP3    H174747   1.270   1.761   1.670 -0.2767  1.0759 -0.0732
17752TIP3    H274748   1.406   1.711   1.715 -0.7350 -0.4764 -0.3302
17753TIP3   OH274749   2.669   6.367   5.771 -0.5422  0.2944  0.4249
17753TIP3    H174750   2.649   6.396   5.859  0.5099  1.0560  0.4397
17753TIP3    H274751   2.689   6.274   5.779 -2.0860 -0.0215  0.7035
17754TIP3   OH274752   4.648   2.664   0.388  0.2249  0.5263  0.0305
17754TIP3    H174753   4.579   2.727   0.368 -0.6746 -0.7338 -1.0237
17754TIP3    H274754   4.705   2.666   0.311 -0.2838 -0.5178 -0.3991
17755TIP3   OH274755   1.521   1.509   4.232 -0.3034 -0.1989  0.0693
17755TIP3    H174756   1.516   1.488   4.139 -0.4050  0.3083 -0.0442
17755TIP3    H274757   1.496   1.428   4.277  1.4233 -0.9964 -0.2985
17756TIP3   OH274758   3.072   1.241  10.939  0.3200  0.5562 -0.6848
17756TIP3    H174759   3.130   1.171  10.908  1.2275  1.5700 -1.3852
17756TIP3    H274760   2.987   1.199  10.950  0.7811 -0.6023 -1.3398
17757TIP3   OH274761   6.274   2.379   2.499 -0.2124 -0.2576 -0.6549
17757TIP3    H174762   6.361   2.340   2.514  0.6794  1.4196 -1.1461
17757TIP3    H274763   6.285   2.430   2.418 -0.0993  4.1251  1.8271
17758TIP3   OH274764   2.297   2.542  12.018  0.5381 -0.0136 -0.5362
17758TIP3    H174765   2.223   2.564  12.075  0.3366  1.8299 -1.4264
17758TIP3    H274766   2.340   2.469  12.062 -0.6726  0.1431  1.0064
17759TIP3   OH274767   0.889   4.826  16.579  0.4520  0.1631 -0.8418
17759TIP3    H174768   0.852   4.903  16.622  0.8379  0.1605 -0.5014
17759TIP3    H274769   0.970   4.858  16.538  0.2585  0.0914 -1.2898
17760TIP3   OH274770   6.264   4.097   1.508 -0.1893  0.1933  0.8486
17760TIP3    H174771   6.180   4.113   1.551 -0.7986  0.0790 -0.2508
17760TIP3    H274772   6.275   4.171   1.448 -0.3543 -0.6457 -0.2580
17761TIP3   OH274773   4.349   6.665  14.715  0.6883  0.1742 -0.3702
17761TIP3    H174774   4.428   6.682  14.766 -0.2412  1.7569  0.6615
17761TIP3    H274775   4.303   6.596  14.763  0.3273  0.9228  0.3907
17762TIP3   OH274776   2.575   2.894  12.929 -0.1509  0.2758  0.5721
17762TIP3    H174777   2.642   2.922  12.991 -0.4390  1.9130  0.1816
17762TIP3    H274778   2.563   2.801  12.947  1.8485  0.0624  0.9949
17763TIP3   OH274779   4.958   6.560  12.532  0.1471  0.0086 -0.1825
17763TIP3    H174780   5.000   6.474  12.526  1.1218  0.5499 -2.3206
17763TIP3    H274781   4.907   6.567  12.452 -2.1002  0.3964  1.2180
17764TIP3   OH274782   6.132   2.459  12.798 -0.5210 -0.2274 -0.2209
17764TIP3    H174783   6.085   2.507  12.730  0.1444  0.3920 -0.2638
17764TIP3    H274784   6.097   2.494  12.880  0.5411  0.9785 -0.2421
17765TIP3   OH274785   2.074   2.123  13.400 -0.4058  0.3679 -0.0215
17765TIP3    H174786   2.068   2.205  13.351 -0.7686  0.7496  0.6470
17765TIP3    H274787   2.122   2.146  13.479  0.2581 -0.2660 -0.2297
17766TIP3   OH274788   1.985   6.642   2.612  0.3072  0.3643  0.7077
17766TIP3    H174789   1.936   6.698   2.673 -2.4955  0.0878 -1.0721
17766TIP3    H274790   1.963   6.677   2.525  0.4687 -1.9548 -0.3367
17767TIP3   OH274791   1.149   5.291   3.222  0.1782 -0.3661 -0.1101
17767TIP3    H174792   1.171   5.290   3.129  1.7830 -1.7887  0.2443
17767TIP3    H274793   1.212   5.351   3.261 -0.5238  0.2689  0.0922
17768TIP3   OH274794   2.263   4.292  16.264 -0.1893 -0.0341  0.6919
17768TIP3    H174795   2.184   4.342  16.283  0.7330  2.0005 -0.4530
17768TIP3    H274796   2.231   4.212  16.222 -1.6721  0.2598  1.2033
17769TIP3   OH274797   2.610   0.105  16.334 -0.0360 -0.7710  0.2178
17769TIP3    H174798   2.550   0.134  16.266 -1.6160 -3.5928  0.2797
17769TIP3    H274799   2.565   0.124  16.416  0.3144 -0.5480  0.3624
17770TIP3   OH274800   0.955   0.896  13.546 -0.0895 -0.1659 -0.7125
17770TIP3    H174801   0.879   0.933  13.502  1.6428  1.6272 -2.4636
17770TIP3    H274802   1.009   0.860  13.475  1.3938  0.0496  0.2438
17771TIP3   OH274803   1.221   5.869   2.305  0.2661  0.1829  0.0890
17771TIP3    H174804   1.173   5.925   2.365 -1.7455 -2.3527  1.0417
17771TIP3    H274805   1.160   5.854   2.232  1.3066  0.3557 -0.8424
17772TIP3   OH274806   6.064   1.134   5.678 -0.5262  0.0912 -0.1181
17772TIP3    H174807   6.063   1.093   5.591 -2.2084  0.6008 -0.3806
17772TIP3    H274808   6.155   1.127   5.707  0.0877 -0.0254 -1.9434
17773TIP3   OH274809   1.878   4.282  15.649  0.2065 -0.3242 -0.4581
17773TIP3    H174810   1.863   4.188  15.646 -1.2617 -0.1096 -0.9741
17773TIP3    H274811   1.832   4.312  15.727 -1.9847  0.3170 -1.8864
17774TIP3   OH274812   6.180   3.639  13.551 -0.5277  0.2813  0.1479
17774TIP3    H174813   6.123   3.604  13.619  0.2556 -0.7662  0.3016
17774TIP3    H274814   6.235   3.703  13.595  0.4739 -0.9147  0.6977
17775TIP3   OH274815   4.186   6.686  12.660 -0.2337 -0.1726 -0.5746
17775TIP3    H174816   4.196   6.591  12.667 -2.1093 -0.4079 -0.5798
17775TIP3    H274817   4.269   6.721  12.693  0.9617 -1.8149 -1.6274
17776TIP3   OH274818   0.974   1.363   5.787  0.3713  0.4943  0.2822
17776TIP3    H174819   1.001   1.290   5.843 -1.3209  0.5157  1.1837
17776TIP3    H274820   0.887   1.387   5.819 -0.1757  1.2590 -1.6385
17777TIP3   OH274821   2.220   5.449  12.542  0.3920 -0.2344  0.2319
17777TIP3    H174822   2.315   5.439  12.544  0.5437  0.6902 -1.0288
17777TIP3    H274823   2.197   5.430  12.451 -0.6490 -0.5247  0.5467
17778TIP3   OH274824   6.609   5.951   6.203  0.1629 -0.0181 -0.5965
17778TIP3    H174825   6.534   5.973   6.258  0.7616 -2.5819  1.3947
17778TIP3    H274826   6.581   5.875   6.153  0.6448  0.4858 -1.6584
17779TIP3   OH274827   0.495   3.024  13.319 -0.0812 -0.3250 -0.2148
17779TIP3    H174828   0.564   2.957  13.312  0.1945 -0.0972  0.2324
17779TIP3    H274829   0.415   2.975  13.338  0.1201 -0.5320  0.1100
17780TIP3   OH274830   5.476   4.476  10.201  0.0715 -0.4563 -0.1834
17780TIP3    H174831   5.533   4.459  10.276 -1.4714  1.6990  1.6450
17780TIP3    H274832   5.388   4.478  10.238 -0.6850  1.4500 -1.8774
17781TIP3   OH274833   3.938   1.831   3.196 -0.4756 -0.6160 -0.3362
17781TIP3    H174834   4.002   1.902   3.185 -0.2057 -0.6220  1.0546
17781TIP3    H274835   3.930   1.793   3.108  0.1515  0.4672 -0.8913
17782TIP3   OH274836   4.236   0.545   0.351  0.1620  0.1650  0.0988
17782TIP3    H174837   4.266   0.608   0.417 -0.7944  0.2312  0.4851
17782TIP3    H274838   4.219   0.465   0.400 -0.0608  0.0586 -0.1536
17783TIP3   OH274839   2.777   5.180   5.261 -0.5027  0.5059  0.8911
17783TIP3    H174840   2.818   5.242   5.200  0.9467  0.8579  2.1522
17783TIP3    H274841   2.831   5.185   5.340 -1.6539 -0.7701  1.8099
17784TIP3   OH274842   0.379   0.436   3.357  0.3551 -0.0934  0.1535
17784TIP3    H174843   0.342   0.491   3.427  2.2139  0.2466  0.9203
17784TIP3    H274844   0.376   0.492   3.279 -2.0614 -0.5927 -0.2090
17785TIP3   OH274845   0.390   2.828   3.524 -0.0097 -0.3111  0.1138
17785TIP3    H174846   0.335   2.800   3.597  1.7355 -2.0713  0.8148
17785TIP3    H274847   0.331   2.823   3.448 -0.8435 -2.1970  0.8188
17786TIP3   OH274848   2.284   4.290   4.189  0.2601 -0.0479 -0.0270
17786TIP3    H174849   2.312   4.251   4.272 -1.9002 -0.8783  0.3669
17786TIP3    H274850   2.191   4.307   4.201  0.7440  4.1051 -0.6529
17787TIP3   OH274851   4.616   0.614   6.542 -0.4617 -0.0223 -0.0591
17787TIP3    H174852   4.569   0.610   6.625  1.2162 -1.7106  0.8842
17787TIP3    H274853   4.587   0.537   6.493 -1.0392  0.6731 -0.8355
17788TIP3   OH274854   3.293   5.622   4.461 -0.2485 -0.3531  0.0722
17788TIP3    H174855   3.248   5.548   4.419 -1.3587 -0.2314  0.9875
17788TIP3    H274856   3.373   5.584   4.497  0.1241 -0.7015 -1.0916
17789TIP3   OH274857   3.222   1.099   5.532 -0.0087  0.2653 -0.6102
17789TIP3    H174858   3.217   1.186   5.494 -0.7126  1.0158  1.1180
17789TIP3    H274859   3.188   1.109   5.621 -4.2469 -2.4923 -1.5803
17790TIP3   OH274860   6.483   2.895  15.065  0.3694  0.1870  0.1796
17790TIP3    H174861   6.548   2.925  15.129 -1.9700  1.3217  2.2064
17790TIP3    H274862   6.407   2.871  15.118 -0.9245 -1.0211 -2.0808
17791TIP3   OH274863   0.651   0.271   0.624  0.0103 -0.1022 -0.3042
17791TIP3    H174864   0.589   0.260   0.697 -1.0454  1.2621 -0.9384
17791TIP3    H274865   0.603   0.240   0.547 -0.4489  2.1758 -1.0124
17792TIP3   OH274866   2.562   0.262  13.576  0.6102  0.5048 -0.1168
17792TIP3    H174867   2.637   0.220  13.535  0.4256  1.8392 -1.9255
17792TIP3    H274868   2.490   0.199  13.567  0.5760  0.7498 -1.8880
17793TIP3   OH274869   1.887   4.751   5.258  0.3310  0.6145  0.6797
17793TIP3    H174870   1.811   4.743   5.201  0.8481 -1.2099  0.1930
17793TIP3    H274871   1.954   4.790   5.201  1.1056 -1.9633 -0.3316
17794TIP3   OH274872   6.552   0.471   4.011 -0.1330  0.0417 -0.5114
17794TIP3    H174873   6.515   0.439   4.093  0.6625  0.8040  0.1616
17794TIP3    H274874   6.483   0.527   3.974 -1.0516 -1.4088 -1.0967
17795TIP3   OH274875   6.087   5.298  16.208 -0.1090 -0.0774 -0.4781
17795TIP3    H174876   6.079   5.255  16.123 -1.7586 -0.1475 -0.3291
17795TIP3    H274877   6.012   5.266  16.257  0.5536  0.3463  0.8422
17796TIP3   OH274878   6.665   3.960   3.737 -0.2945  0.4763 -0.0939
17796TIP3    H174879   6.647   3.868   3.720 -0.9417  1.0117 -2.6279
17796TIP3    H274880   6.601   4.008   3.685  2.2925  2.3726 -1.7872
17797TIP3   OH274881   2.826   4.838  13.802 -0.1815  0.0466  0.3479
17797TIP3    H174882   2.902   4.884  13.765 -1.3808  1.3869 -0.5571
17797TIP3    H274883   2.816   4.875  13.890 -0.1265  0.2771  0.2578
17798TIP3   OH274884   2.363   5.314   3.219 -0.6710  0.3518  0.2160
17798TIP3    H174885   2.430   5.264   3.266 -0.9237  0.2665  0.4889
17798TIP3    H274886   2.344   5.260   3.142  0.9448  1.2841 -0.8910
17799TIP3   OH274887   0.670   2.518  10.827  0.1054  0.0487  0.3267
17799TIP3    H174888   0.664   2.474  10.742  2.1350  0.0516  0.1299
17799TIP3    H274889   0.711   2.454  10.885  0.3084  0.6302  0.8416
17800TIP3   OH274890   5.417   6.758   3.789  0.1801 -0.5076  0.0837
17800TIP3    H174891   5.329   6.727   3.770  0.0282  0.0790 -0.2166
17800TIP3    H274892   5.409   6.854   3.787  0.4077 -0.4201  1.9862
17801TIP3   OH274893   4.554   4.693   3.354  0.0865 -0.4867 -0.0878
17801TIP3    H174894   4.487   4.684   3.287  0.1790 -0.7667 -0.1413
17801TIP3    H274895   4.620   4.628   3.332  0.6014  0.0940 -0.3011
17802TIP3   OH274896   0.879   3.056  11.797 -0.2923 -0.3880  0.2355
17802TIP3    H174897   0.818   3.128  11.816  1.5591  1.4084 -0.1550
17802TIP3    H274898   0.949   3.098  11.746  0.8318 -2.5287 -0.0893
17803TIP3   OH274899   2.626   1.216  11.940 -0.6510  0.1291  0.0715
17803TIP3    H174900   2.574   1.249  11.867 -1.9254 -1.4425  0.2117
17803TIP3    H274901   2.563   1.203  12.011 -0.1005 -1.7885  0.2653
17804TIP3   OH274902   1.246   5.449  13.576  0.0188 -0.5697  0.3667
17804TIP3    H174903   1.180   5.447  13.507  0.9800 -2.9775 -0.5850
17804TIP3    H274904   1.196   5.444  13.658 -1.0166 -0.4224 -0.2433
17805TIP3   OH274905   2.015   1.587  12.292  0.2327  0.3309 -0.4139
17805TIP3    H174906   1.961   1.658  12.257  2.5701  1.8746 -1.1035
17805TIP3    H274907   2.101   1.600  12.252  0.7336 -3.0432 -0.6923
17806TIP3   OH274908   1.104   1.524   4.700  0.2209 -0.0070 -0.1512
17806TIP3    H174909   1.041   1.523   4.772 -0.1574 -2.6076 -0.4266
17806TIP3    H274910   1.190   1.524   4.742  0.0155 -0.0395  0.2689
17807TIP3   OH274911   5.449   3.862   0.826 -0.6306 -0.0238 -0.4129
17807TIP3    H174912   5.543   3.867   0.840 -0.5437  1.4762 -1.3954
17807TIP3    H274913   5.412   3.861   0.915  0.3012 -1.5564  0.0071
17808TIP3   OH274914   3.968   3.669  11.547  0.1916  0.8846 -0.6651
17808TIP3    H174915   3.892   3.713  11.508 -0.6416  0.5477  0.5439
17808TIP3    H274916   3.990   3.723  11.623  0.9735  0.7963 -0.8195
17809TIP3   OH274917   4.138   1.622   0.296 -0.2222 -0.1440  0.3180
17809TIP3    H174918   4.064   1.565   0.314 -0.7810  0.2249 -0.7540
17809TIP3    H274919   4.163   1.602   0.206  0.4522  0.3309  0.3881
17810TIP3   OH274920   1.466   6.309  12.672 -0.3413 -0.0357  0.6096
17810TIP3    H174921   1.398   6.301  12.738 -2.0002 -0.5847 -1.0725
17810TIP3    H274922   1.420   6.297  12.589  1.1350  3.3366 -0.8766
17811TIP3   OH274923   3.333   1.266  16.280 -0.2214 -0.1699 -0.0315
17811TIP3    H174924   3.364   1.265  16.189  2.0896  0.3677  0.6933
17811TIP3    H274925   3.305   1.356  16.295  0.3092 -0.0243  0.0792
17812TIP3   OH274926   4.271   0.748  15.337  0.3410  0.1961  0.5380
17812TIP3    H174927   4.342   0.809  15.318  0.7527 -0.8834 -1.7672
17812TIP3    H274928   4.306   0.662  15.312 -1.5570 -0.4377 -0.1127
17813TIP3   OH274929   0.259   5.659  12.914  0.4726 -0.6492  0.5563
17813TIP3    H174930   0.186   5.644  12.854 -0.2152  2.1205  0.5906
17813TIP3    H274931   0.326   5.702  12.861  1.5250 -1.7859  0.8945
17814TIP3   OH274932   1.500   6.496   0.079  0.3578  0.1092 -0.4629
17814TIP3    H174933   1.487   6.517   0.171  0.1523  0.1816 -0.5083
17814TIP3    H274934   1.418   6.454   0.052  0.4346  0.0484 -0.6008
17815TIP3   OH274935   6.605   1.715  12.680  0.1542  0.5533  0.7707
17815TIP3    H174936   6.656   1.783  12.637 -0.9125  0.4800 -0.6913
17815TIP3    H274937   6.518   1.753  12.692 -0.3855 -0.4392  0.1576
17816TIP3   OH274938   5.682   1.938   2.563 -0.4246 -0.2002  0.7215
17816TIP3    H174939   5.641   1.865   2.515  0.5159  0.4668 -1.1881
17816TIP3    H274940   5.646   2.017   2.522 -2.3718  0.5324  3.5601
17817TIP3   OH274941   4.834   6.007   0.425  0.1395  0.2631  0.0840
17817TIP3    H174942   4.921   6.040   0.401 -0.3325  0.7089 -1.0838
17817TIP3    H274943   4.774   6.075   0.394 -0.8191 -1.3377 -1.7546
17818TIP3   OH274944   5.092   5.819  14.653 -0.0344 -0.0301  0.0880
17818TIP3    H174945   5.108   5.775  14.737  0.3285 -0.2694 -0.1047
17818TIP3    H274946   5.039   5.895  14.676  1.0522  0.5706  0.7037
17819TIP3   OH274947   3.856   6.839  13.187  0.2537  0.3786  0.1945
17819TIP3    H174948   3.858   6.862  13.094  0.3592 -0.2255  0.0465
17819TIP3    H274949   3.919   6.900  13.227  0.9974 -0.0468 -0.2934
17820TIP3   OH274950   4.322   6.610   0.402 -0.7711  0.2608  0.3455
17820TIP3    H174951   4.233   6.633   0.376 -0.8366 -0.0610  0.2769
17820TIP3    H274952   4.323   6.514   0.402 -0.3802  0.2634  0.1935
17821TIP3   OH274953   6.393   6.499   0.876 -0.5909 -0.1990 -0.0397
17821TIP3    H174954   6.435   6.415   0.892 -1.0875 -0.3970  0.2165
17821TIP3    H274955   6.466   6.562   0.875  0.0592 -0.8732 -2.3645
17822TIP3   OH274956   3.098   2.520  15.042  0.1707 -0.4109 -0.9156
17822TIP3    H174957   3.083   2.426  15.053 -0.5460 -0.0819  1.5500
17822TIP3    H274958   3.176   2.539  15.094  0.0477  0.4339 -1.0159
17823TIP3   OH274959   5.818   5.368   5.444 -0.6155 -0.1350  0.3721
17823TIP3    H174960   5.751   5.353   5.378  0.1777 -1.7642 -0.1277
17823TIP3    H274961   5.779   5.335   5.526 -0.6519 -0.5193  0.2017
17824TIP3   OH274962   4.975   1.456  11.455 -0.2523 -0.0362  0.1088
17824TIP3    H174963   4.919   1.463  11.378 -1.6113 -3.2277  0.6642
17824TIP3    H274964   4.980   1.546  11.488 -1.9265  0.9757 -2.0902
17825TIP3   OH274965   0.276   6.249   3.759 -0.5654  0.2538 -0.5843
17825TIP3    H174966   0.224   6.172   3.735 -1.7901  0.8722  0.0375
17825TIP3    H274967   0.349   6.213   3.811 -1.4929 -0.4281  0.2785
17826TIP3   OH274968   3.360   3.107   5.727  0.2386 -0.0316 -0.0813
17826TIP3    H174969   3.412   3.027   5.718 -0.5226 -0.4896 -0.5037
17826TIP3    H274970   3.270   3.077   5.738  0.0238  0.7557  0.4454
17827TIP3   OH274971   6.682   4.876  13.706  0.1775 -0.4615 -0.3260
17827TIP3    H174972   6.694   4.873  13.801 -0.9741 -0.7260 -0.1835
17827TIP3    H274973   6.770   4.860  13.671  0.5413 -0.7734  0.6856
17828TIP3   OH274974   2.620   3.341  11.930  0.6267 -0.6031 -0.1650
17828TIP3    H174975   2.675   3.334  11.852  0.5929  0.8243 -0.3599
17828TIP3    H274976   2.542   3.387  11.899  1.0050  0.8125  0.8694
17829TIP3   OH274977   5.007   3.966   5.292 -0.1169  0.8162  0.1797
17829TIP3    H174978   4.941   3.899   5.273  0.1892 -0.5679  3.2497
17829TIP3    H274979   5.050   3.982   5.209  0.2122 -3.3497 -0.6612
17830TIP3   OH274980   0.090   3.334   1.548 -0.3253  0.2459 -0.3644
17830TIP3    H174981   0.064   3.324   1.640 -0.3928 -1.8192 -0.5737
17830TIP3    H274982   0.172   3.384   1.552 -0.6104  0.6480  0.7838
17831TIP3   OH274983   4.502   0.818   1.297  0.1663  1.0015  0.0953
17831TIP3    H174984   4.564   0.819   1.225  1.6044 -1.7136  1.1421
17831TIP3    H274985   4.470   0.728   1.300 -0.1751  1.1232  2.5240
17832TIP3   OH274986   4.272   2.462   1.759  0.2353  0.0331  0.6335
17832TIP3    H174987   4.338   2.395   1.777 -0.1187  0.2077  2.9669
17832TIP3    H274988   4.191   2.413   1.746  0.7030 -0.1642 -1.9422
17833TIP3   OH274989   2.343   3.310   0.224  0.4932  0.0718  0.4469
17833TIP3    H174990   2.355   3.313   0.129  0.9942  1.2353  0.5297
17833TIP3    H274991   2.249   3.321   0.238  0.6496  2.1076  0.1394
17834TIP3   OH274992   3.935   6.128  12.347 -0.3767  0.0876  0.8863
17834TIP3    H174993   4.026   6.153  12.361 -0.2195  0.9634 -1.2810
17834TIP3    H274994   3.940   6.048  12.295 -0.8218  0.5907  0.0531
17835TIP3   OH274995   6.493   3.995  11.435 -0.7095  0.5100 -0.1854
17835TIP3    H174996   6.488   4.077  11.484  0.3430  0.3962  0.1343
17835TIP3    H274997   6.409   3.990  11.389 -1.1093  1.3656  0.4147
17836TIP3   OH274998   4.577   0.160  16.013 -0.0719  0.6405  0.4666
17836TIP3    H174999   4.533   0.084  15.974  0.2389  0.4738  0.4392
17836TIP3    H275000   4.506   0.214  16.046 -0.2979  0.3449  0.4698
17837TIP3   OH275001   1.115   3.106  14.425  0.6456  1.2855 -0.7931
17837TIP3    H175002   1.041   3.055  14.459  1.7503 -0.8525 -1.4613
17837TIP3    H275003   1.137   3.167  14.497  0.7074 -0.7188  0.9823
17838TIP3   OH275004   0.385   3.707   3.779 -0.1090 -0.5016  0.3490
17838TIP3    H175005   0.463   3.692   3.833 -0.3545 -1.0804  0.5538
17838TIP3    H275006   0.336   3.774   3.826  1.0430  1.0871 -0.6122
17839TIP3   OH275007   1.038   3.950   1.840  0.1007  0.1036 -0.0572
17839TIP3    H175008   1.103   3.886   1.871  0.1790  0.2353  0.0500
17839TIP3    H275009   0.986   3.969   1.918 -1.9235 -2.1782 -0.7202
17840TIP3   OH275010   4.054   0.566  16.014 -0.0649 -0.1560  0.0694
17840TIP3    H175011   4.047   0.494  15.951  0.0884  0.7083 -0.9672
17840TIP3    H275012   4.023   0.529  16.096  2.0604 -2.0711  0.1012
17841TIP3   OH275013   5.577   4.970   3.972 -0.7352 -0.0749  0.2265
17841TIP3    H175014   5.496   4.925   3.950 -0.0972 -0.8703 -0.5303
17841TIP3    H275015   5.646   4.905   3.959  0.1029  0.7989  0.1475
17842TIP3   OH275016   3.641   1.527  12.198  0.0689  0.3997 -0.2976
17842TIP3    H175017   3.669   1.450  12.148  1.7318  1.6124 -1.3626
17842TIP3    H275018   3.722   1.574  12.217 -0.8350  1.5094  1.0036
17843TIP3   OH275019   2.327   1.417  16.311  0.0771 -0.6203  0.3285
17843TIP3    H175020   2.401   1.446  16.257 -0.3142  0.8731  0.5395
17843TIP3    H275021   2.263   1.384  16.248  1.5057 -3.5179  0.2333
17844TIP3   OH275022   4.115   6.745  15.335  0.2042 -0.2433 -0.1186
17844TIP3    H175023   4.042   6.757  15.396  0.6522 -0.3262  0.4390
17844TIP3    H275024   4.146   6.656  15.351  0.6103 -0.1116 -0.1487
17845TIP3   OH275025   5.859   0.181  15.932  0.3283 -0.0283  0.0063
17845TIP3    H175026   5.807   0.221  15.863  0.2878  0.7470  0.4757
17845TIP3    H275027   5.868   0.249  15.999 -0.0217 -0.8971  0.9780
17846TIP3   OH275028   4.789   5.051  12.681 -0.1813  0.2977 -0.2602
17846TIP3    H175029   4.838   4.985  12.633  0.0915  0.8702 -0.7925
17846TIP3    H275030   4.712   5.005  12.715  0.0428 -0.2992 -0.5561
17847TIP3   OH275031   1.292   1.803   2.275  0.4413  0.1498  0.4759
17847TIP3    H175032   1.322   1.891   2.255  0.3038 -0.2628 -1.8609
17847TIP3    H275033   1.220   1.787   2.213  0.6855 -1.7028  0.6069
17848TIP3   OH275034   2.505   5.789   1.929  0.1461 -0.3342 -0.6686
17848TIP3    H175035   2.491   5.879   1.959 -1.5758 -0.5770 -0.5997
17848TIP3    H275036   2.599   5.775   1.938  0.7634  2.0303 -2.3806
17849TIP3   OH275037   0.058   4.870  11.952  0.8579 -0.0354 -0.1103
17849TIP3    H175038   0.010   4.826  11.882 -0.8345  1.9280 -0.2859
17849TIP3    H275039   0.054   4.809  12.026 -1.3760 -0.2656 -0.3426
17850TIP3   OH275040   6.159   5.581  15.113  0.1182  0.2590  0.2974
17850TIP3    H175041   6.065   5.576  15.130 -0.0691 -0.0171 -0.7862
17850TIP3    H275042   6.184   5.670  15.141 -0.6898  0.7480 -0.5192
17851TIP3   OH275043   4.469   1.696   5.317 -0.0641 -0.0938  0.3337
17851TIP3    H175044   4.518   1.777   5.332 -0.2398  0.3749 -1.4045
17851TIP3    H275045   4.385   1.711   5.360 -0.6563  1.2898 -1.1743
17852TIP3   OH275046   0.074   4.763  10.513 -0.2688 -0.0855  0.0889
17852TIP3    H175047   0.127   4.717  10.448 -0.3202 -2.0721  1.3750
17852TIP3    H275048  -0.013   4.724  10.506 -1.2836  2.1736 -1.0384
17853TIP3   OH275049   2.059   1.986   5.662 -0.1003 -0.2802  0.2588
17853TIP3    H175050   2.081   1.898   5.630  0.9343 -0.2386  0.8331
17853TIP3    H275051   2.130   2.042   5.631 -0.4652  0.2532  0.3717
17854TIP3   OH275052   1.147   4.240   0.366  0.0227  0.3972 -0.0956
17854TIP3    H175053   1.057   4.270   0.374 -0.8350 -1.6024 -1.5098
17854TIP3    H275054   1.151   4.161   0.421  0.3280 -0.6525 -1.5800
17855TIP3   OH275055   1.661   6.125  15.087  0.1203 -0.2675 -0.0396
17855TIP3    H175056   1.657   6.118  15.182  0.7062 -1.4658 -0.0859
17855TIP3    H275057   1.754   6.119  15.066 -0.0014 -0.0039 -0.6947
17856TIP3   OH275058   5.425   0.328   4.872 -0.3077 -0.0409  0.4290
17856TIP3    H175059   5.402   0.253   4.817 -1.1520  0.0277  0.6787
17856TIP3    H275060   5.462   0.289   4.951  0.0161 -0.1622  0.2245
17857TIP3   OH275061   2.733   1.944  15.796 -0.3242 -0.0194 -0.1854
17857TIP3    H175062   2.800   1.924  15.862 -0.4914  0.5415  0.1612
17857TIP3    H275063   2.651   1.918  15.837 -0.4302  0.3494 -0.1608
17858TIP3   OH275064   5.622   2.827  17.041  0.4419  0.6489 -0.0038
17858TIP3    H175065   5.667   2.894  17.092  0.9593 -0.3410  0.8691
17858TIP3    H275066   5.681   2.752  17.042  0.3102  0.4724 -1.7874
17859TIP3   OH275067   6.091   6.025  15.902  0.0947  0.2209 -0.1436
17859TIP3    H175068   6.002   6.056  15.887 -0.2302 -0.4191  0.4688
17859TIP3    H275069   6.137   6.047  15.820 -1.1789 -1.4754 -1.3960
17860TIP3   OH275070   6.443   2.059   0.242  0.3651  0.5686 -0.4057
17860TIP3    H175071   6.516   2.016   0.285  0.5341 -0.2192 -1.4317
17860TIP3    H275072   6.367   2.038   0.296  0.5893 -0.2838 -0.4117
17861TIP3   OH275073   5.226   4.405   3.869 -0.3740  0.0321  0.4892
17861TIP3    H175074   5.319   4.390   3.883 -0.5170 -0.7614  0.6610
17861TIP3    H275075   5.202   4.475   3.930  0.1899  0.5151  0.1576
17862TIP3   OH275076   1.850   1.628  16.094  0.1302  0.1712 -0.1045
17862TIP3    H175077   1.865   1.565  16.023  0.0861 -0.2043  0.2180
17862TIP3    H275078   1.858   1.576  16.174  1.6042  0.8814  0.2226
17863TIP3   OH275079   5.793   1.328   2.140 -0.2610  0.4188  0.3204
17863TIP3    H175080   5.783   1.420   2.117  2.9804  0.5501 -1.1583
17863TIP3    H275081   5.772   1.281   2.059  0.4761  0.0847  0.3119
17864TIP3   OH275082   0.834   6.172   4.140  0.2373  0.0383  0.2124
17864TIP3    H175083   0.871   6.117   4.070  1.1153  0.5828  0.2377
17864TIP3    H275084   0.824   6.112   4.214  1.0318 -0.1390  0.1898
17865TIP3   OH275085   0.581   1.447  14.533 -0.1120 -0.2896  0.5775
17865TIP3    H175086   0.627   1.449  14.449 -0.0220  0.8407  0.6366
17865TIP3    H275087   0.503   1.501  14.519  0.3883  0.7035  1.4650
17866TIP3   OH275088   5.585   2.574  15.711 -0.1471 -0.5909  0.5654
17866TIP3    H175089   5.662   2.619  15.747 -0.8831  0.6217  0.6995
17866TIP3    H275090   5.513   2.636  15.725 -0.8304 -0.9260 -1.1962
17867TIP3   OH275091   1.482   6.257  13.741 -0.0396 -0.1014  0.0489
17867TIP3    H175092   1.476   6.330  13.803 -0.4908 -0.4743  0.4588
17867TIP3    H275093   1.521   6.186  13.792  2.7764  0.5481 -1.0236
17868TIP3   OH275094   5.591   0.535   5.352  0.3653  0.3673 -0.0149
17868TIP3    H175095   5.683   0.553   5.332 -0.0441 -0.4286 -3.1166
17868TIP3    H275096   5.589   0.441   5.370  0.0346  0.1389 -1.1518
17869TIP3   OH275097   1.804   5.299  11.976 -0.5467 -0.1373 -0.1013
17869TIP3    H175098   1.825   5.303  12.070 -1.9596 -0.1233  0.2346
17869TIP3    H275099   1.730   5.359  11.965 -0.9106 -0.7440 -1.0764
17870TIP3   OH275100   1.929   4.857   4.671 -0.6241  0.2314 -0.1109
17870TIP3    H175101   1.983   4.935   4.673 -0.0899 -0.1339 -0.2216
17870TIP3    H275102   1.844   4.887   4.638 -1.1998  1.2330  2.0938
17871TIP3   OH275103   2.381   4.730   5.952  0.4205  0.0983 -0.5412
17871TIP3    H175104   2.303   4.774   5.983  0.7355 -1.2514  2.4365
17871TIP3    H275105   2.442   4.733   6.025  2.7324  0.0301 -2.3403
17872TIP3   OH275106   1.829   6.278   2.650  0.6721  0.3219  0.4158
17872TIP3    H175107   1.848   6.339   2.579 -0.3051 -1.3604 -1.3838
17872TIP3    H275108   1.886   6.203   2.633 -0.9569 -0.9305  0.2123
17873TIP3   OH275109   1.377   1.205   5.929  0.0149 -0.1840  0.0971
17873TIP3    H175110   1.310   1.274   5.929 -1.9220 -1.9328 -1.3368
17873TIP3    H275111   1.447   1.240   5.985 -1.4478  2.3431  0.5255
17874TIP3   OH275112   3.523   2.149  16.691  0.0598  0.7453 -0.6800
17874TIP3    H175113   3.446   2.099  16.666  0.2894  0.1194 -0.1630
17874TIP3    H275114   3.513   2.234  16.647 -1.4030  1.0411  0.1866
17875TIP3   OH275115   6.600   5.770  12.939 -0.3205 -0.2526  0.6894
17875TIP3    H175116   6.615   5.711  13.013  0.0770  0.4605  1.1917
17875TIP3    H275117   6.527   5.731  12.892  0.2268 -1.4018  0.7404
17876TIP3   OH275118   3.327   4.029   1.384 -1.0448 -0.2973  0.0994
17876TIP3    H175119   3.416   3.994   1.376 -0.8326  0.3972 -0.8793
17876TIP3    H275120   3.328   4.107   1.328 -2.0721  0.1162  0.6419
17877TIP3   OH275121   3.365   5.456  16.133  0.5464  0.7957  0.0069
17877TIP3    H175122   3.347   5.418  16.219 -1.0968  1.4611  0.0007
17877TIP3    H275123   3.323   5.395  16.072  0.8800  0.8213 -0.2468
17878TIP3   OH275124   2.651   5.109   1.735 -0.1012 -0.1636 -0.3567
17878TIP3    H175125   2.560   5.088   1.752 -0.1734  0.1905 -0.3070
17878TIP3    H275126   2.701   5.045   1.787 -0.3021 -1.4368 -1.6482
17879TIP3   OH275127   5.314   1.947  10.607  0.1371 -0.0637  0.8795
17879TIP3    H175128   5.386   1.953  10.543  0.8092  1.5645  1.7113
17879TIP3    H275129   5.248   2.008  10.574  0.1635  0.2107  1.3264
17880TIP3   OH275130   3.251   5.841  12.019  0.4329 -0.2463  0.1668
17880TIP3    H175131   3.247   5.757  12.065  0.9071  0.4699  1.5809
17880TIP3    H275132   3.160   5.865  12.006  0.2498  0.0091  1.6999
17881TIP3   OH275133   6.273   0.484  13.968 -0.1051 -0.3467  0.9580
17881TIP3    H175134   6.346   0.442  13.921 -0.1818 -1.6939  1.9824
17881TIP3    H275135   6.299   0.482  14.060 -1.5086 -1.0801  1.3722
17882TIP3   OH275136   5.150   4.339   3.362 -0.0533 -0.0201 -0.1249
17882TIP3    H175137   5.201   4.327   3.442  1.2342 -0.4684 -0.9881
17882TIP3    H275138   5.119   4.430   3.366  0.3368  0.0840  0.6741
17883TIP3   OH275139   5.379   4.093  11.555  0.0848  0.3912 -0.1411
17883TIP3    H175140   5.321   4.162  11.585  0.9275  0.3443  1.7551
17883TIP3    H275141   5.447   4.138  11.505 -0.8149  0.6045 -1.1803
17884TIP3   OH275142   1.657   4.367   4.434 -0.8634  0.2522 -0.2112
17884TIP3    H175143   1.619   4.285   4.467  0.5387 -0.5427 -0.4819
17884TIP3    H275144   1.592   4.434   4.455 -2.5813 -1.0861 -0.9948
17885TIP3   OH275145   3.249   5.555   1.679 -0.8139  0.0068  0.3075
17885TIP3    H175146   3.230   5.468   1.712 -0.8861  0.1700  0.7103
17885TIP3    H275147   3.304   5.594   1.747 -0.1433  0.0068 -0.2203
17886TIP3   OH275148   6.439   2.016  12.846  0.5918  0.1771  0.2412
17886TIP3    H175149   6.449   2.066  12.766  1.1837  0.8738  0.7320
17886TIP3    H275150   6.367   2.058  12.893 -0.5384 -0.9462 -0.4314
17887TIP3   OH275151   6.148   5.337   3.982  0.0908  0.2807  0.0389
17887TIP3    H175152   6.187   5.337   4.069 -0.8869 -0.7615  0.4997
17887TIP3    H275153   6.106   5.423   3.973 -0.2980  0.1715  0.8197
17888TIP3   OH275154   6.618   4.969   4.552  0.2050  0.2577 -0.0973
17888TIP3    H175155   6.645   4.993   4.463  0.5098  1.0632  0.2080
17888TIP3    H275156   6.695   4.930   4.591 -0.8053 -3.3093 -1.2554
17889TIP3   OH275157   5.538   4.243   5.118  0.2643  0.3547  0.0510
17889TIP3    H175158   5.500   4.236   5.206  1.9096  1.4817  0.8893
17889TIP3    H275159   5.632   4.247   5.132  0.7450 -1.6302 -1.9257
17890TIP3   OH275160   2.722   0.738   3.848 -0.2285  0.0544  0.0407
17890TIP3    H175161   2.665   0.743   3.771 -0.4605  1.0299  0.2601
17890TIP3    H275162   2.672   0.782   3.917  0.6406  0.5986  0.3301
17891TIP3   OH275163   5.466   1.259   4.372 -0.2565 -0.3456  0.9322
17891TIP3    H175164   5.464   1.329   4.437 -0.7384  0.0772  0.4714
17891TIP3    H275165   5.411   1.291   4.300 -0.7288 -1.3251  0.8422
17892TIP3   OH275166   5.705   2.828  14.390 -0.0485  0.1892  0.3445
17892TIP3    H175167   5.792   2.822  14.430 -0.2469 -1.5097  0.5726
17892TIP3    H275168   5.694   2.746  14.342 -1.3366  0.5905 -0.1026
17893TIP3   OH275169   3.533   0.463  14.395  0.3667 -0.3891 -0.0189
17893TIP3    H175170   3.618   0.507  14.403  0.7415 -0.9787 -0.6272
17893TIP3    H275171   3.553   0.370  14.404 -0.2903 -0.5065  0.3125
17894TIP3   OH275172   0.401   4.965   2.121  0.2314  0.1498 -0.4074
17894TIP3    H175173   0.358   5.044   2.154 -0.0971  0.6137 -1.9019
17894TIP3    H275174   0.427   4.917   2.200 -0.5570  1.2056  0.5133
17895TIP3   OH275175   6.386   4.270  11.576  0.2989  0.4523  0.3331
17895TIP3    H175176   6.463   4.326  11.560  1.1140 -1.1620 -2.0827
17895TIP3    H275177   6.313   4.319  11.537  1.2953 -0.7210 -3.5073
17896TIP3   OH275178   6.784   5.855   2.692 -0.3682  0.5848  0.0892
17896TIP3    H175179   6.737   5.878   2.772 -1.8441  0.5009 -0.7246
17896TIP3    H275180   6.745   5.771   2.665  1.5666 -0.4822  0.3932
17897TIP3   OH275181   2.505   3.083   5.481  0.4748  0.0031  0.4490
17897TIP3    H175182   2.544   3.151   5.537  0.9958 -0.6212  0.8562
17897TIP3    H275183   2.510   3.120   5.393  0.7355  0.5048  0.6670
17898TIP3   OH275184   3.602   1.448  14.864  0.0390  0.3567  0.6241
17898TIP3    H175185   3.667   1.518  14.852  0.5537 -0.1436  0.4089
17898TIP3    H275186   3.622   1.412  14.951  0.6077 -0.3527  0.2078
17899TIP3   OH275187   5.023   5.283  16.564 -0.2036  0.3789  0.1627
17899TIP3    H175188   4.996   5.268  16.655 -2.2539  0.0032 -0.4392
17899TIP3    H275189   5.052   5.374  16.562  0.3811  0.2354  1.2913
17900TIP3   OH275190   4.746   6.712   5.999  0.0052  0.2433 -0.5226
17900TIP3    H175191   4.655   6.684   5.991  0.3476 -0.9913 -0.2997
17900TIP3    H275192   4.748   6.767   6.077 -0.6242  0.6087 -0.7616
17901TIP3   OH275193   3.052   0.377   3.350 -0.3136  0.1568  0.3821
17901TIP3    H175194   3.142   0.384   3.382 -0.3351  1.6057  0.1991
17901TIP3    H275195   3.051   0.298   3.295  0.6232 -0.3305  1.0461
17902TIP3   OH275196   6.643   3.271   2.659  0.1105 -0.2333 -0.3317
17902TIP3    H175197   6.680   3.324   2.588 -1.5063  0.6925 -0.5572
17902TIP3    H275198   6.558   3.243   2.625 -0.4205 -0.3029  0.9907
17903TIP3   OH275199   0.417   0.473  13.559 -0.2458  0.5208 -0.3233
17903TIP3    H175200   0.380   0.548  13.512 -1.5958  1.0117  1.4209
17903TIP3    H275201   0.414   0.499  13.651  0.6977 -1.0922  0.1976
17904TIP3   OH275202   5.569   5.241  14.433 -0.1635  0.0797 -0.6276
17904TIP3    H175203   5.586   5.286  14.350  2.8005  1.8911  0.8021
17904TIP3    H275204   5.491   5.284  14.468  1.2029  2.5850 -0.4365
17905TIP3   OH275205   3.779   1.522   2.623  0.0449 -0.2596 -0.8113
17905TIP3    H175206   3.732   1.541   2.704  0.8882  1.8793 -0.7420
17905TIP3    H275207   3.820   1.437   2.638 -2.5331 -1.4895 -0.3395
17906TIP3   OH275208   6.236   1.091   1.465 -0.5024  0.4147 -0.1966
17906TIP3    H175209   6.243   1.138   1.382  0.7737  3.4372  1.4408
17906TIP3    H275210   6.150   1.116   1.499  0.3683  2.1398  0.8947
17907TIP3   OH275211   1.227   2.427   1.649 -0.5812 -0.9706 -0.2007
17907TIP3    H175212   1.279   2.375   1.587  0.5274 -0.8712  0.6175
17907TIP3    H275213   1.201   2.366   1.717 -0.9418 -0.8604 -0.2356
17908TIP3   OH275214   2.792   5.548  15.655  0.3289 -0.0359  0.2404
17908TIP3    H175215   2.793   5.452  15.649 -0.8612 -0.1879  1.7071
17908TIP3    H275216   2.884   5.573  15.660  0.6301 -1.2452  1.4171
17909TIP3   OH275217   0.116   3.521   3.395 -0.6797 -0.2742 -0.1598
17909TIP3    H175218   0.188   3.459   3.384 -0.7486 -0.5595  0.8153
17909TIP3    H275219   0.135   3.565   3.478 -1.5108 -0.2188  0.0178
17910TIP3   OH275220   1.949   6.409  12.568  0.2564 -0.1302 -0.1110
17910TIP3    H175221   2.031   6.460  12.567  0.1964  0.0410  1.4167
17910TIP3    H275222   1.977   6.320  12.547  0.7644  0.0286 -0.1371
17911TIP3   OH275223   6.834   0.852  16.280  0.2462  0.2012 -0.3488
17911TIP3    H175224   6.846   0.946  16.296  3.0438  0.2175 -2.0107
17911TIP3    H275225   6.866   0.810  16.360 -2.8116  0.5610  1.2367
17912TIP3   OH275226   5.839   2.639  12.104  0.5254  0.4229 -0.2422
17912TIP3    H175227   5.841   2.581  12.028 -2.0547 -0.5294  0.3073
17912TIP3    H275228   5.779   2.709  12.079  0.6868  0.8074  0.4259
17913TIP3   OH275229   6.601   1.471  13.429  0.3808 -0.0772 -0.0449
17913TIP3    H175230   6.522   1.523  13.414  1.1928  1.8757  1.9066
17913TIP3    H275231   6.584   1.425  13.511 -0.0590 -2.5043 -1.4124
17914TIP3   OH275232   3.657   3.828   3.093 -0.0302 -0.2796 -0.5467
17914TIP3    H175233   3.596   3.821   3.166  0.3844  0.1608 -0.1460
17914TIP3    H275234   3.675   3.737   3.067  0.8024 -0.5087  0.7452
17915TIP3   OH275235   1.827   1.050   1.753 -0.1404  0.5461  0.0106
17915TIP3    H175236   1.733   1.036   1.741  0.0055 -0.8160  0.2822
17915TIP3    H275237   1.869   0.990   1.691  0.5763  2.2531 -1.2311
17916TIP3   OH275238   0.736   2.085   3.394  0.1792  0.0576 -0.3502
17916TIP3    H175239   0.783   2.168   3.399  1.4173 -0.6511  0.1840
17916TIP3    H275240   0.786   2.025   3.449 -1.0928 -0.8673 -0.1361
17917TIP3   OH275241   4.228   1.232  13.450  0.1171 -0.6263 -0.0755
17917TIP3    H175242   4.184   1.298  13.396 -1.6590 -1.1360  0.6658
17917TIP3    H275243   4.156   1.180  13.487  1.3715 -1.4934  1.2314
17918TIP3   OH275244   1.812   1.098   1.440  0.0676 -0.0187  0.1255
17918TIP3    H175245   1.749   1.157   1.482  0.8748 -0.1584  1.6061
17918TIP3    H275246   1.794   1.012   1.477 -0.5601 -0.5891 -1.4090
17919TIP3   OH275247   1.630   2.529   4.306  0.2025 -0.5741  0.2468
17919TIP3    H175248   1.681   2.536   4.387 -0.0534 -0.2538  0.3842
17919TIP3    H275249   1.662   2.602   4.252 -0.8633  0.3135  0.7655
17920TIP3   OH275250   1.413   6.706   6.144 -0.0853  0.0982  0.3907
17920TIP3    H175251   1.491   6.713   6.200  0.2919 -2.0440  0.2459
17920TIP3    H275252   1.437   6.753   6.064  0.8234  0.0124  0.5958
17921TIP3   OH275253   3.858   6.172  16.793  0.3438 -0.0428  0.0233
17921TIP3    H175254   3.940   6.122  16.793  0.0229 -0.5787  0.1844
17921TIP3    H275255   3.882   6.258  16.757  0.5245 -0.9627 -2.2612
17922TIP3   OH275256   4.799   1.644  16.023  0.0781 -0.3734 -0.0051
17922TIP3    H175257   4.808   1.585  16.098  0.4959  0.0240  0.2616
17922TIP3    H275258   4.705   1.647  16.005  0.0445 -1.0941 -0.0043
17923TIP3   OH275259   2.999   0.864  14.416 -0.3543 -0.3584  0.6614
17923TIP3    H175260   3.029   0.950  14.389 -0.2834 -0.4447  0.4582
17923TIP3    H275261   3.078   0.809  14.412 -0.2335 -0.2562  1.5562
17924TIP3   OH275262   1.176   6.103  16.412 -0.1182  0.0094  0.2861
17924TIP3    H175263   1.143   6.124  16.324 -0.7452 -0.2505  0.4582
17924TIP3    H275264   1.196   6.010  16.408 -1.1884 -0.2582  0.7369
17925TIP3   OH275265   6.413   3.627   2.598 -0.7791  0.1251 -0.1171
17925TIP3    H175266   6.349   3.693   2.571 -1.5426 -0.2783  0.6599
17925TIP3    H275267   6.453   3.598   2.516 -0.9401  1.0362 -0.5312
17926TIP3   OH275268   1.208   4.011   3.387 -0.3086  0.0464 -0.4538
17926TIP3    H175269   1.241   3.957   3.459  1.6269 -0.1811 -1.4492
17926TIP3    H275270   1.232   3.964   3.308 -2.6035  0.1817 -1.2998
17927TIP3   OH275271   1.080   1.505  16.314  0.7015  0.3551  0.7152
17927TIP3    H175272   1.109   1.459  16.235 -0.3408  2.2277 -0.8686
17927TIP3    H275273   1.122   1.458  16.386  0.9593 -2.0091 -0.8631
17928TIP3   OH275274   6.476   2.936   4.593  0.8193 -0.2484  0.6390
17928TIP3    H175275   6.482   2.849   4.555  0.6210 -0.9123  2.0456
17928TIP3    H275276   6.433   2.989   4.526  1.2235 -1.1485 -0.3515
17929TIP3   OH275277   3.376   4.113   3.632  0.0800  0.2811 -0.2307
17929TIP3    H175278   3.282   4.129   3.640  0.2773  0.7114  1.4734
17929TIP3    H275279   3.414   4.200   3.621  0.2881  0.0973 -1.0431
17930TIP3   OH275280   3.530   4.641   6.655  0.0482  0.1722  0.6758
17930TIP3    H175281   3.625   4.649   6.666  0.1477 -1.9017  1.8099
17930TIP3    H275282   3.502   4.728   6.628  2.1753  1.0447  1.0587
17931TIP3   OH275283   1.529   2.661   0.529  0.2461  0.0465  0.5082
17931TIP3    H175284   1.581   2.697   0.456 -0.1659 -2.2059 -1.0078
17931TIP3    H275285   1.438   2.676   0.502  0.0810  0.3482  1.2148
17932TIP3   OH275286   1.397   2.243   5.762 -0.6812  0.0429 -0.1031
17932TIP3    H175287   1.438   2.215   5.681 -0.7293 -0.0584 -0.0926
17932TIP3    H275288   1.324   2.299   5.734 -1.2186 -0.6760 -0.1601
17933TIP3   OH275289   5.055   4.661   2.984 -0.2751 -0.0675 -0.1227
17933TIP3    H175290   5.149   4.671   2.973 -0.1902 -0.2089  0.4381
17933TIP3    H275291   5.029   4.603   2.911 -0.3170  1.7625 -1.6353
17934TIP3   OH275292   4.029   4.152  11.023  0.1766  0.1832 -0.1127
17934TIP3    H175293   4.044   4.059  11.005  1.3834  0.6963 -2.0666
17934TIP3    H275294   4.040   4.195  10.938  0.5890  2.2304  0.9073
17935TIP3   OH275295   5.383   4.066   5.898 -0.1495 -0.1237  0.0889
17935TIP3    H175296   5.461   4.022   5.865 -0.3301  0.4511 -1.1313
17935TIP3    H275297   5.310   4.015   5.862 -0.3486  0.3276 -0.1423
17936TIP3   OH275298   2.771   3.953   3.592  0.2081  0.2947  0.2126
17936TIP3    H175299   2.710   3.925   3.525  0.5298  0.4117 -0.1306
17936TIP3    H275300   2.716   3.994   3.659 -0.2116 -0.7017  0.4865
17937TIP3   OH275301   3.564   2.552  16.083 -0.6634 -0.3305 -0.2068
17937TIP3    H175302   3.482   2.504  16.071  0.0185 -1.0491 -2.4720
17937TIP3    H275303   3.550   2.635  16.038  0.1682 -0.9067 -1.6076
17938TIP3   OH275304   2.749   5.977  13.373 -0.6607 -0.0168 -0.1437
17938TIP3    H175305   2.751   5.964  13.278 -0.0171 -1.3636  0.0308
17938TIP3    H275306   2.840   5.970  13.400 -0.7889  0.7957  0.5336
17939TIP3   OH275307   2.817   4.694  12.621  0.5465  0.5840  0.0132
17939TIP3    H175308   2.760   4.771  12.615  0.5161  0.5717  0.1538
17939TIP3    H275309   2.905   4.730  12.632  0.3190  0.5972  2.1401
17940TIP3   OH275310   3.062   1.267  11.380 -0.0331 -0.6528 -0.2530
17940TIP3    H175311   3.134   1.206  11.373  0.4861 -0.3876  1.8866
17940TIP3    H275312   2.986   1.213  11.403  0.4369 -0.5696  1.6926
17941TIP3   OH275313   2.701   3.388   1.401  0.0902  0.4317  0.3161
17941TIP3    H175314   2.721   3.295   1.411  0.9708  0.4747 -0.8090
17941TIP3    H275315   2.607   3.390   1.380  0.2994 -0.3249 -0.8263
17942TIP3   OH275316   6.806   4.085  10.256 -0.1066  1.0587  0.3368
17942TIP3    H175317   6.784   3.998  10.223  3.0382 -0.2739  1.3613
17942TIP3    H275318   6.746   4.099  10.330 -1.5597  0.4087 -0.6771
17943TIP3   OH275319   1.700   5.784  12.006  0.9898  0.1278  0.4754
17943TIP3    H175320   1.714   5.821  12.093  1.1299 -0.7411  0.8325
17943TIP3    H275321   1.638   5.843  11.964 -0.7690 -0.5730  1.9486
17944TIP3   OH275322   5.082   1.726   6.520 -0.4410 -0.1306  0.0540
17944TIP3    H175323   5.009   1.774   6.559 -0.0040  0.6441 -0.0551
17944TIP3    H275324   5.040   1.658   6.466 -1.1055  0.7137 -0.5240
17945TIP3   OH275325   0.630   6.649  12.515 -0.2545  0.4518 -0.0264
17945TIP3    H175326   0.641   6.637  12.609 -0.0368 -0.3468 -0.1470
17945TIP3    H275327   0.617   6.560  12.481  0.2681  0.6696 -0.8246
17946TIP3   OH275328   5.313   2.505   0.594  0.3758 -0.8800  0.0620
17946TIP3    H175329   5.294   2.586   0.640 -0.1248 -1.0185  0.1099
17946TIP3    H275330   5.252   2.504   0.520 -1.0305 -2.1427  1.1739
17947TIP3   OH275331   6.446   1.983   5.247 -0.1672 -0.3989 -0.0844
17947TIP3    H175332   6.478   1.893   5.249  1.0442  0.0196  0.4858
17947TIP3    H275333   6.493   2.024   5.174  0.1312  0.0578  0.3584
17948TIP3   OH275334   6.138   6.625   0.573  0.2334 -0.5290 -0.2865
17948TIP3    H175335   6.123   6.564   0.645  0.3776  0.4854  0.6355
17948TIP3    H275336   6.216   6.592   0.528 -1.7318 -3.0801 -2.1155
17949TIP3   OH275337   5.832   4.536   1.387 -0.2639  0.5597 -0.2674
17949TIP3    H175338   5.825   4.463   1.326 -0.9692  0.9070 -0.6060
17949TIP3    H275339   5.830   4.495   1.474 -5.5260  0.3264 -0.1553
17950TIP3   OH275340   6.146   3.664   1.153  0.6845 -0.0711  0.6855
17950TIP3    H175341   6.064   3.639   1.196 -1.1377  3.2169 -0.4611
17950TIP3    H275342   6.150   3.609   1.075 -1.2538  0.6052  0.0394
17951TIP3   OH275343   1.858   3.971  16.797  0.4185  0.4381  0.0282
17951TIP3    H175344   1.865   3.943  16.888  0.2899  0.0766 -0.0719
17951TIP3    H275345   1.862   4.067  16.801  2.9561  0.3794  0.2023
17952TIP3   OH275346   3.981   4.244  12.231  0.5177  0.4166  0.0863
17952TIP3    H175347   4.049   4.185  12.262 -0.1461  0.1790  1.1481
17952TIP3    H275348   4.028   4.319  12.194  1.3609  0.6554  1.5724
17953TIP3   OH275349   6.493   4.460  13.395 -0.0729  0.3879 -1.1243
17953TIP3    H175350   6.584   4.443  13.370 -0.6062 -0.6595 -2.5009
17953TIP3    H275351   6.486   4.555  13.397  0.6878  0.5005 -2.5341
17954TIP3   OH275352   0.935   4.531   2.561  0.1583  0.1991 -0.2699
17954TIP3    H175353   1.030   4.536   2.547  0.6354  3.0865  2.6808
17954TIP3    H275354   0.905   4.621   2.548 -1.8636 -0.3040  0.6547
17955TIP3   OH275355   3.913   1.069   0.135  0.2927  0.0332  0.7511
17955TIP3    H175356   4.007   1.049   0.143  0.3386  0.3676  1.0701
17955TIP3    H275357   3.906   1.162   0.156  0.0165  0.2577 -0.3000
17956TIP3   OH275358   5.162   5.116  12.356 -0.0124  0.3270  0.0658
17956TIP3    H175359   5.144   5.046  12.293  2.3488  0.2696 -0.6279
17956TIP3    H275360   5.096   5.183  12.337 -0.9081 -0.7537 -0.7614
17957TIP3   OH275361   2.811   4.438  11.546  0.6404 -0.0846 -0.0162
17957TIP3    H175362   2.805   4.491  11.466  0.8631 -1.8350 -1.2679
17957TIP3    H275363   2.875   4.370  11.524 -0.8085 -1.8257  0.9030
17958TIP3   OH275364   2.515   1.907   5.522 -0.0856 -0.4264  0.0445
17958TIP3    H175365   2.597   1.890   5.568 -0.2829  1.5549  1.2067
17958TIP3    H275366   2.459   1.832   5.543  0.5024 -0.4814  1.4550
17959TIP3   OH275367   2.699   5.917   0.863 -0.2368 -0.4586 -0.2600
17959TIP3    H175368   2.657   5.836   0.837  1.4470 -1.0830 -1.2111
17959TIP3    H275369   2.650   5.947   0.940 -1.7701 -1.5973 -0.7543
17960TIP3   OH275370   3.795   3.256   5.363 -0.4529  0.2808 -0.2740
17960TIP3    H175371   3.753   3.211   5.436  0.4057  0.0794  0.0962
17960TIP3    H275372   3.735   3.242   5.289 -1.7494  1.1771  0.5462
17961TIP3   OH275373   2.721   5.442   0.844 -0.2580  0.0404  0.7606
17961TIP3    H175374   2.810   5.476   0.829 -0.3060  0.2481  0.9407
17961TIP3    H275375   2.723   5.354   0.806  0.4754 -0.5406  2.0892
17962TIP3   OH275376   1.579   1.855   1.394  0.4011  0.5425  0.0206
17962TIP3    H175377   1.651   1.860   1.458 -0.8924  1.3395  1.4749
17962TIP3    H275378   1.506   1.898   1.437 -1.2557 -1.0985 -1.0345
17963TIP3   OH275379   2.179   6.652   3.591  0.2949 -0.0863  0.1865
17963TIP3    H175380   2.097   6.621   3.629 -0.5488 -0.1870 -1.5996
17963TIP3    H275381   2.244   6.636   3.658 -1.2676  0.7678  1.9996
17964TIP3   OH275382   1.143   1.409  10.747 -0.0814  0.1897 -0.4512
17964TIP3    H175383   1.165   1.470  10.817 -0.6350  0.0525 -0.1551
17964TIP3    H275384   1.049   1.416  10.737 -0.0646 -0.1340 -0.8662
17965TIP3   OH275385   0.216   2.518   3.199 -0.1540  0.2743 -0.3631
17965TIP3    H175386   0.140   2.504   3.255  0.6317  1.1757  0.9937
17965TIP3    H275387   0.265   2.436   3.204  0.1769  0.5169  0.7459
17966TIP3   OH275388   4.970   0.723   2.952 -0.3292 -0.8015 -0.3284
17966TIP3    H175389   5.059   0.689   2.954  0.3517  0.9177 -0.0326
17966TIP3    H275390   4.928   0.685   3.030  0.1539 -1.5511 -0.4230
17967TIP3   OH275391   4.125   6.724  11.448 -0.1424  0.9456 -0.2518
17967TIP3    H175392   4.031   6.725  11.430 -0.0828  1.2135 -0.5729
17967TIP3    H275393   4.156   6.641  11.412 -0.3258  0.6768  0.2192
17968TIP3   OH275394   5.857   2.384  10.970  0.2478 -0.1853  0.1921
17968TIP3    H175395   5.818   2.435  11.041  1.3428 -2.1310  2.3156
17968TIP3    H275396   5.786   2.376  10.905 -1.3000  0.4222  1.7217
17969TIP3   OH275397   5.646   5.482  14.692 -0.4075 -0.3976  0.0378
17969TIP3    H175398   5.561   5.521  14.670 -0.6554 -0.5805  0.6418
17969TIP3    H275399   5.697   5.555  14.728 -0.2564 -0.2583 -0.4473
17970TIP3   OH275400   6.234   3.296   1.669  0.0655 -0.5162  0.0967
17970TIP3    H175401   6.157   3.298   1.726  1.0269 -0.5672  1.4146
17970TIP3    H275402   6.309   3.299   1.728  1.1028  0.6503 -1.1925
17971TIP3   OH275403   2.285   3.554  15.131  0.1749  0.4734 -0.3428
17971TIP3    H175404   2.221   3.570  15.062  1.4269  1.1669 -1.3903
17971TIP3    H275405   2.347   3.627  15.123 -0.0302  0.9974  2.0026
17972TIP3   OH275406   4.956   0.988   0.803  0.0102 -0.5372 -0.1399
17972TIP3    H175407   5.006   0.918   0.845  1.6330  0.7781  0.2058
17972TIP3    H275408   4.999   1.000   0.718  1.7140  1.9564  0.9378
17973TIP3   OH275409   1.530   6.779  15.054  0.0053  0.1370 -0.2757
17973TIP3    H175410   1.480   6.803  14.976  0.0116  0.6558 -0.1276
17973TIP3    H275411   1.576   6.860  15.078 -1.2079  0.4429  1.1597
17974TIP3   OH275412   3.258   4.603   1.459  0.0421  0.0743 -0.1247
17974TIP3    H175413   3.174   4.589   1.503 -0.6188 -1.7312 -1.8063
17974TIP3    H275414   3.234   4.633   1.371  1.2166  0.8284 -0.2017
17975TIP3   OH275415   2.801   0.919  12.503  0.0967 -0.5496  0.1948
17975TIP3    H175416   2.794   0.982  12.575 -0.5822  1.5858 -1.6649
17975TIP3    H275417   2.711   0.891  12.487  0.0455  0.2085 -0.8677
17976TIP3   OH275418   3.029   0.356  12.764 -0.5821  0.0238  0.9029
17976TIP3    H175419   3.047   0.444  12.796 -0.4283  0.6468 -0.7812
17976TIP3    H275420   3.106   0.333  12.713 -1.4148 -0.2777 -0.2691
17977TIP3   OH275421   5.818   1.897  12.236 -0.6005 -0.2445  0.1880
17977TIP3    H175422   5.782   1.977  12.198 -0.1058 -0.4501 -0.7528
17977TIP3    H275423   5.905   1.923  12.268  0.2291 -0.7225 -1.5408
17978TIP3   OH275424   6.367   1.031  12.632  0.4593 -0.2991 -0.1662
17978TIP3    H175425   6.438   0.973  12.658  0.3780  0.8854  3.1645
17978TIP3    H275426   6.394   1.118  12.660 -1.9333  0.3204  0.4793
17979TIP3   OH275427   1.271   6.390   3.163 -0.7541 -0.5230  0.0621
17979TIP3    H175428   1.214   6.332   3.215 -2.4916  0.1662 -0.9893
17979TIP3    H275429   1.331   6.330   3.118 -0.9232 -1.3127  0.8513
17980TIP3   OH275430   0.903   3.229   5.909  0.3977 -0.0480  0.2964
17980TIP3    H175431   0.843   3.288   5.864 -0.2895 -0.0397  1.1886
17980TIP3    H275432   0.935   3.279   5.983  1.9539  0.1298 -0.4536
17981TIP3   OH275433   5.697   4.882  13.377 -0.3274 -0.0767  0.2485
17981TIP3    H175434   5.683   4.875  13.471 -2.2894 -1.6318 -0.0967
17981TIP3    H275435   5.761   4.813  13.358 -0.0366  0.1441  0.4274
17982TIP3   OH275436   2.080   3.389   2.415  0.3027 -0.9024 -0.3172
17982TIP3    H175437   2.079   3.338   2.496  1.8206  1.4494  1.2905
17982TIP3    H275438   2.043   3.473   2.439  0.9238 -0.0895 -2.0361
17983TIP3   OH275439   5.602   1.978   0.273  0.4716 -0.2293 -0.2666
17983TIP3    H175440   5.650   1.977   0.190 -1.9245 -1.9082 -1.7608
17983TIP3    H275441   5.625   2.062   0.313  2.0823  0.4253 -2.3832
17984TIP3   OH275442   2.038   1.216   1.875  0.3451 -0.6007 -0.1150
17984TIP3    H175443   2.005   1.261   1.952  0.5205 -0.7302  0.0373
17984TIP3    H275444   1.968   1.157   1.848  0.9212 -1.8304  0.9733
17985TIP3   OH275445   4.886   2.588   4.019 -0.3529 -0.2458  0.1233
17985TIP3    H175446   4.809   2.572   4.073  1.4058  1.6528  3.5217
17985TIP3    H275447   4.911   2.502   3.987 -1.5271 -1.5251  2.3911
17986TIP3   OH275448   5.696   1.646   5.130 -0.1014 -0.2742  1.2329
17986TIP3    H175449   5.773   1.611   5.083 -0.1556 -0.0288  0.9588
17986TIP3    H275450   5.630   1.659   5.062 -0.6635 -1.2201  1.5762
17987TIP3   OH275451   3.142   5.094  15.509 -0.0441  0.3700  0.1768
17987TIP3    H175452   3.196   5.174  15.516  1.4501 -0.5680 -0.1000
17987TIP3    H275453   3.110   5.095  15.419  0.6093  0.2865 -0.0649
17988TIP3   OH275454   6.832   0.321   5.371 -0.5662 -0.2383 -0.1869
17988TIP3    H175455   6.820   0.373   5.291 -0.7327 -0.5228 -0.3499
17988TIP3    H275456   6.885   0.376   5.428 -0.4874 -0.0123 -0.4766
17989TIP3   OH275457   0.633   4.843   5.207  0.2468  0.4960 -0.8706
17989TIP3    H175458   0.564   4.870   5.146  1.3588  1.8312 -1.5949
17989TIP3    H275459   0.673   4.925   5.236  1.5038 -0.2458 -0.4491
17990TIP3   OH275460   3.986   6.515   1.753 -0.2693 -0.8104  0.5480
17990TIP3    H175461   4.048   6.446   1.728  0.3500  0.1041 -0.5104
17990TIP3    H275462   4.027   6.560   1.826  1.0046  0.6286 -0.9645
17991TIP3   OH275463   0.212   0.141   2.681 -0.1675  0.0328  0.2835
17991TIP3    H175464   0.206   0.065   2.739  2.1649 -0.3091  0.1788
17991TIP3    H275465   0.286   0.192   2.715 -0.3995  1.1834 -0.8460
17992TIP3   OH275466   6.509   2.948   2.656 -0.0714 -0.1263  0.2615
17992TIP3    H175467   6.479   2.859   2.639  0.7189 -0.3854  0.1847
17992TIP3    H275468   6.595   2.937   2.696  1.7037  0.6470 -3.0404
17993TIP3   OH275469   2.628   3.471   3.856  0.7381 -0.8888  0.3128
17993TIP3    H175470   2.597   3.462   3.765 -0.3190 -1.6247  0.7240
17993TIP3    H275471   2.565   3.531   3.896  1.2594 -0.4911  0.5417
17994TIP3   OH275472   4.423   1.063  14.691 -0.4831  0.5069  0.1493
17994TIP3    H175473   4.459   0.989  14.740  1.9427  1.1392 -0.5270
17994TIP3    H275474   4.389   1.025  14.611  1.8275  0.1913 -0.7312
17995TIP3   OH275475   0.568   2.346   2.316 -0.0520  0.4731 -0.0029
17995TIP3    H175476   0.569   2.252   2.301  2.9537  0.5043 -0.4900
17995TIP3    H275477   0.581   2.356   2.410  0.0746  0.3989 -0.0126
17996TIP3   OH275478   4.982   4.450  13.581  0.0625  0.1018  0.3626
17996TIP3    H175479   5.068   4.429  13.618  0.8444  0.3860 -1.1880
17996TIP3    H275480   4.943   4.365  13.561  0.9548 -0.0216 -0.9788
17997TIP3   OH275481   5.461   1.154   0.945 -0.1678  0.1333  0.4375
17997TIP3    H175482   5.445   1.172   0.853 -1.5909  0.0786  0.6529
17997TIP3    H275483   5.462   1.058   0.951  1.5855  0.1143  0.2299
17998TIP3   OH275484   5.116   6.171   5.578  0.0443 -0.3007 -0.1310
17998TIP3    H175485   5.185   6.107   5.560  0.7400  0.5148 -0.3870
17998TIP3    H275486   5.115   6.227   5.501 -3.0948 -2.1680 -1.6647
17999TIP3   OH275487   4.000   1.977  12.841  0.3605  0.5240  0.2746
17999TIP3    H175488   3.961   2.020  12.764 -0.7263 -0.1855  0.4133
17999TIP3    H275489   3.962   2.024  12.916  0.1022  0.1133  0.4031
18000TIP3   OH275490   2.076   2.809  11.845 -0.4493  0.7342  0.1537
18000TIP3    H175491   2.047   2.738  11.903  1.6976 -0.1071  0.3208
18000TIP3    H275492   2.171   2.812  11.858  0.1902  0.3434 -3.4899
18001TIP3   OH275493   2.568   6.434   6.746  0.1644 -0.3244  0.0510
18001TIP3    H175494   2.537   6.493   6.814 -0.6162 -1.1830  0.4636
18001TIP3    H275495   2.582   6.350   6.791 -0.8014 -1.0334 -0.9107
18002TIP3   OH275496   5.311   4.331  15.502 -0.2095  0.0660 -0.2456
18002TIP3    H175497   5.332   4.238  15.506  1.0601  0.2037 -2.2330
18002TIP3    H275498   5.349   4.368  15.581  0.8219 -0.8539 -0.2943
18003TIP3   OH275499   1.137   2.896  16.124  0.0055  0.3729  0.3249
18003TIP3    H175500   1.141   2.990  16.107  1.1140  0.7142  2.2096
18003TIP3    H275501   1.164   2.887  16.215  2.3121 -1.9719 -0.4632
18004TIP3   OH275502   5.269   4.950  11.594 -0.5558 -0.2018 -0.0959
18004TIP3    H175503   5.183   4.992  11.595 -0.0418  0.9296 -0.9693
18004TIP3    H275504   5.253   4.864  11.557 -1.0732  0.6603 -2.0057
18005TIP3   OH275505   6.055   3.832   4.428 -0.7891  0.0371 -0.4319
18005TIP3    H175506   5.967   3.824   4.392 -0.7049 -0.9121 -0.4555
18005TIP3    H275507   6.096   3.747   4.411  0.5707  0.8593 -1.5541
18006TIP3   OH275508   5.301   0.822  14.437 -0.3754 -0.5354 -0.4526
18006TIP3    H175509   5.388   0.833  14.476 -0.2691  0.8988 -1.0388
18006TIP3    H275510   5.315   0.763  14.363  0.5977  1.5531 -2.0191
18007TIP3   OH275511   1.587   0.058  16.116 -0.2480  0.1083 -0.2294
18007TIP3    H175512   1.625   0.144  16.101  2.0512 -0.8953 -0.5845
18007TIP3    H275513   1.611   0.036  16.206  1.1471 -1.0136 -0.8242
18008TIP3   OH275514   4.799   1.670   5.253 -0.0518 -0.4083 -0.3919
18008TIP3    H175515   4.784   1.667   5.159 -0.4924 -0.3273 -0.3288
18008TIP3    H275516   4.863   1.740   5.265 -0.2123 -0.2230 -0.6095
18009TIP3   OH275517   4.655   1.734   2.220  0.4754  0.4141  0.2952
18009TIP3    H175518   4.621   1.709   2.306 -0.9433 -1.1029 -0.6475
18009TIP3    H275519   4.713   1.808   2.237 -0.9168  1.0875  2.3751
18010TIP3   OH275520   4.758   2.706   2.552 -0.4676 -0.5397 -0.3953
18010TIP3    H175521   4.801   2.639   2.605 -2.2414  0.3727  2.4194
18010TIP3    H275522   4.695   2.658   2.498 -0.3173 -1.3230  0.1113
18011TIP3   OH275523   1.421   1.275  14.510 -0.5043  0.3360  0.2320
18011TIP3    H175524   1.496   1.295  14.454 -0.1359 -0.3291  0.4800
18011TIP3    H275525   1.348   1.261  14.449 -0.9711  3.0026  0.0378
18012TIP3   OH275526   6.019   5.588   4.293 -0.7995 -0.6111 -0.5182
18012TIP3    H175527   6.081   5.533   4.341 -0.8444  0.6878  1.1291
18012TIP3    H275528   6.073   5.655   4.250 -0.9300 -0.4332 -0.4094
18013TIP3   OH275529   0.238   3.221   4.989 -0.1543 -0.4886 -0.0526
18013TIP3    H175530   0.234   3.140   5.040 -0.7903  0.0919  0.8561
18013TIP3    H275531   0.331   3.232   4.970 -0.1591 -1.9335 -1.0539
18014TIP3   OH275532   1.865   5.508   2.085  0.9036 -0.6048 -0.3299
18014TIP3    H175533   1.782   5.480   2.125  0.3655  0.9828 -0.2629
18014TIP3    H275534   1.920   5.534   2.159 -0.0494  2.2216 -0.5059
18015TIP3   OH275535   5.482   5.712  15.989 -0.1962  0.1798  0.1716
18015TIP3    H175536   5.508   5.655  15.917 -1.9422 -0.1326 -0.2664
18015TIP3    H275537   5.547   5.697  16.058  1.0126 -0.1446 -1.0150
18016TIP3   OH275538   4.315   1.928   1.366  0.3613  0.6186 -1.1670
18016TIP3    H175539   4.239   1.958   1.416 -0.8145 -1.2290 -1.7440
18016TIP3    H275540   4.389   1.976   1.404 -0.7714  0.8729  0.8755
18017TIP3   OH275541   0.448   1.402   5.557  0.4663  0.1841  0.2097
18017TIP3    H175542   0.514   1.373   5.621  0.4428 -1.3376 -0.4201
18017TIP3    H275543   0.461   1.345   5.482 -0.4290  1.0401 -0.6188
18018TIP3   OH275544   1.560   3.187   3.635 -0.2849 -0.5499  0.3935
18018TIP3    H175545   1.532   3.228   3.717 -2.0528  1.9306 -1.3233
18018TIP3    H275546   1.629   3.244   3.601 -0.3234 -0.9582 -0.3972
18019TIP3   OH275547   4.430   1.931  13.696  0.6421  0.1820 -0.0132
18019TIP3    H175548   4.467   1.909  13.782 -1.3330  1.9748  1.3767
18019TIP3    H275549   4.386   1.851  13.668  2.2817 -0.7964  0.0235
18020TIP3   OH275550   3.818   5.264   0.238  0.4703  0.1504 -0.0798
18020TIP3    H175551   3.836   5.173   0.258 -2.8844 -0.5470  0.2449
18020TIP3    H275552   3.803   5.305   0.323  1.0703  0.8234 -0.2842
18021TIP3   OH275553   5.299   1.230  17.033  0.0468  0.5413 -0.8820
18021TIP3    H175554   5.220   1.204  17.082  0.1138  1.7882 -0.0587
18021TIP3    H275555   5.275   1.314  16.992  0.6362  0.4527 -1.4184
18022TIP3   OH275556   6.209   1.214   3.109 -0.0747 -0.0042 -0.8144
18022TIP3    H175557   6.130   1.206   3.163  0.0178 -0.4459 -0.7416
18022TIP3    H275558   6.190   1.163   3.030 -0.1294  0.4684 -1.1102
18023TIP3   OH275559   4.695   3.749   1.018 -0.1517 -0.3367  0.7244
18023TIP3    H175560   4.717   3.782   1.105 -0.6115 -0.8075  1.0233
18023TIP3    H275561   4.735   3.812   0.958  0.6418 -0.3103  1.2661
18024TIP3   OH275562   5.658   6.583  16.912  0.0157  0.4346  0.3596
18024TIP3    H175563   5.683   6.491  16.923 -1.4142  0.0102  0.3047
18024TIP3    H275564   5.741   6.631  16.911  0.7674 -0.8176  0.7129
18025TIP3   OH275565   5.676   1.791  16.327  0.0444 -0.2630 -0.1554
18025TIP3    H175566   5.635   1.719  16.374  0.4069 -0.9350 -0.8459
18025TIP3    H275567   5.659   1.773  16.235  0.2141  0.4904 -0.3421
18026TIP3   OH275568   2.291   4.708  15.894 -0.0052  0.3091 -0.1053
18026TIP3    H175569   2.235   4.673  15.825 -0.0762 -2.7336  1.3181
18026TIP3    H275570   2.240   4.696  15.974  2.0738 -1.3446  1.0765
18027TIP3   OH275571   3.033   3.554  16.734 -0.2418 -0.2338  0.0875
18027TIP3    H175572   2.957   3.605  16.703  1.1534  0.7244 -2.0003
18027TIP3    H275573   3.050   3.492  16.663 -0.7288 -2.4003  1.7767
18028TIP3   OH275574   4.539   0.402  14.910 -0.1440  0.4516  0.9396
18028TIP3    H175575   4.548   0.364  14.997  1.7576  0.0422  0.6231
18028TIP3    H275576   4.621   0.450  14.896  0.0126 -0.2344 -0.9320
18029TIP3   OH275577   3.270   1.170   5.167  1.1457  0.4929 -0.0894
18029TIP3    H175578   3.358   1.145   5.197  1.1115 -1.4962 -1.4181
18029TIP3    H275579   3.238   1.091   5.123 -1.2102  1.2725  0.1264
18030TIP3   OH275580   3.773   1.340  12.063  0.7393  0.0056 -0.6083
18030TIP3    H175581   3.715   1.271  12.095  3.0506 -0.8961  2.0601
18030TIP3    H275582   3.811   1.306  11.982  0.2759 -0.9372 -0.4332
18031TIP3   OH275583   3.940   4.471   3.993  0.2386 -0.5342  0.7452
18031TIP3    H175584   3.878   4.439   4.058  0.1794 -0.2807  0.8166
18031TIP3    H275585   3.977   4.550   4.032  0.3898 -0.5217  0.5784
18032TIP3   OH275586   1.156   6.770  14.367  0.5692 -0.0545  0.6627
18032TIP3    H175587   1.249   6.788  14.375  0.5962 -0.0777  0.4088
18032TIP3    H275588   1.116   6.856  14.354  0.5481 -0.0391  0.8181
18033TIP3   OH275589   1.661   6.695  15.635  0.4783  0.2423 -0.1341
18033TIP3    H175590   1.638   6.773  15.585  1.8836  1.6260  1.2790
18033TIP3    H275591   1.654   6.723  15.727  2.6163 -0.7744  0.3847
18034TIP3   OH275592   1.099   5.221   0.982  0.0569  0.4615 -0.2742
18034TIP3    H175593   1.194   5.224   0.975 -0.0471  2.6630 -2.1588
18034TIP3    H275594   1.074   5.143   0.932  0.8749 -0.6904  1.0629
18035TIP3   OH275595   0.738   6.505   2.313 -0.4264 -0.4428  0.2046
18035TIP3    H175596   0.683   6.563   2.260  0.6917  0.5771  0.1379
18035TIP3    H275597   0.768   6.560   2.385  1.1662 -0.7252 -0.2062
18036TIP3   OH275598   5.010   6.279  14.602 -0.1680 -0.3125 -0.3033
18036TIP3    H175599   4.988   6.201  14.653 -0.0759  0.0949  0.3689
18036TIP3    H275600   4.991   6.254  14.511  0.0178 -1.1697 -0.1154
18037TIP3   OH275601   2.104   5.077   4.677 -0.7818 -0.0250  0.5189
18037TIP3    H175602   2.178   5.064   4.735 -1.1646  0.4169  1.1155
18037TIP3    H275603   2.143   5.088   4.590 -0.2865 -2.2025  0.4197
18038TIP3   OH275604   1.240   4.526  16.031  0.2550  0.2233  0.3805
18038TIP3    H175605   1.272   4.541  15.942 -0.9670  1.2662  0.0898
18038TIP3    H275606   1.145   4.539  16.025  0.1025 -0.0967  1.7517
18039TIP3   OH275607   0.352   2.029   1.831 -0.0297 -0.4011 -0.2008
18039TIP3    H175608   0.407   1.987   1.897  1.5339  0.4426 -0.9050
18039TIP3    H275609   0.387   1.999   1.748 -1.5160 -0.8739 -0.6938
18040TIP3   OH275610   6.768   6.010  11.824  0.3081 -0.4809 -0.0423
18040TIP3    H175611   6.852   5.991  11.864 -0.1497 -1.9837  0.2670
18040TIP3    H275612   6.730   5.924  11.804 -2.3481 -0.0369  2.3507
18041TIP3   OH275613   3.715   0.968   2.896  0.0343 -0.3800  0.6253
18041TIP3    H175614   3.712   1.042   2.835  0.2949 -0.0959  0.9611
18041TIP3    H275615   3.808   0.949   2.906  0.0818  0.4747  2.0327
18042TIP3   OH275616   6.065   3.958   5.170  0.1330  0.4200  0.1048
18042TIP3    H175617   6.041   4.029   5.110 -1.2927  0.7233  0.9764
18042TIP3    H275618   6.000   3.890   5.154  1.5629 -0.7752 -0.8060
18043TIP3   OH275619   3.338   3.019   2.078 -0.3964 -0.0612 -0.2516
18043TIP3    H175620   3.392   3.067   2.015  0.0948  0.6030  0.6702
18043TIP3    H275621   3.372   2.930   2.075 -1.3055 -0.4069 -1.9663
18044TIP3   OH275622   3.472   0.701  13.488  0.6449  0.7251 -0.3011
18044TIP3    H175623   3.490   0.791  13.513  1.4065  1.1414 -2.2007
18044TIP3    H275624   3.556   0.667  13.456 -0.0837  0.0603 -1.6235
18045TIP3   OH275625   1.003   2.910  11.362 -0.3984  0.0899  0.3981
18045TIP3    H175626   1.061   2.892  11.436  0.9818 -0.0112 -0.6575
18045TIP3    H275627   1.026   2.844  11.297  0.9531  2.2244 -1.4649
18046TIP3   OH275628   1.458   3.613  12.560  0.2611 -0.6292  0.1330
18046TIP3    H175629   1.459   3.631  12.654 -3.0910  1.2596 -0.0081
18046TIP3    H275630   1.383   3.554  12.548 -0.9034  1.0460 -1.4998
18047TIP3   OH275631   1.755   2.345  13.643 -0.1024 -0.1796  0.4629
18047TIP3    H175632   1.700   2.397  13.702  1.9077 -0.1660  2.4767
18047TIP3    H275633   1.806   2.409  13.594  1.7862 -0.1119  2.3631
18048TIP3   OH275634   4.031   2.852  14.743 -0.2632 -0.2487  0.0060
18048TIP3    H175635   3.968   2.801  14.794 -0.5380  1.1824  1.1572
18048TIP3    H275636   3.978   2.914  14.694  0.0666 -1.0286 -1.3795
18049TIP3   OH275637   1.510   4.942   5.786  0.1107  0.1814 -0.4740
18049TIP3    H175638   1.434   4.995   5.811 -0.1018 -0.5995  0.5733
18049TIP3    H275639   1.503   4.863   5.839  2.0497  0.3966  0.1616
18050TIP3   OH275640   4.629   0.066  10.858  0.1742  0.2938 -0.4113
18050TIP3    H175641   4.534   0.076  10.867  0.3007  1.0742  0.1704
18050TIP3    H275642   4.646   0.082  10.765  0.0155  2.9192 -0.0777
18051TIP3   OH275643   5.597   1.930  13.969  0.2230  0.1489  0.6159
18051TIP3    H175644   5.654   1.870  13.921  1.2873  1.2982  0.4017
18051TIP3    H275645   5.541   1.969  13.902 -0.7787 -0.8902  0.8110
18052TIP3   OH275646   1.458   1.085  16.597 -0.2272  0.5514 -0.1670
18052TIP3    H175647   1.490   1.005  16.554  3.0497  1.0377  1.0680
18052TIP3    H275648   1.366   1.066  16.616  0.2988 -2.8174 -0.2257
18053TIP3   OH275649   5.459   3.996   4.900  0.5698  0.3042 -0.7194
18053TIP3    H175650   5.477   4.078   4.945  2.8353 -0.7658  0.4751
18053TIP3    H275651   5.386   3.958   4.948  0.6295  0.8253 -0.2054
18054TIP3   OH275652   2.032   2.356  15.769 -0.0057  0.2321  0.4208
18054TIP3    H175653   1.998   2.318  15.850  1.5508  1.5138  1.7285
18054TIP3    H275654   2.116   2.312  15.755 -0.3407 -0.1054 -0.6169
18055TIP3   OH275655   3.401   5.305  16.389  0.1647 -0.7609 -0.0151
18055TIP3    H175656   3.471   5.242  16.372  0.3837 -1.3378  2.5661
18055TIP3    H275657   3.360   5.274  16.470  0.3936  2.4743  1.4945
18056TIP3   OH275658   3.127   1.762  16.178 -0.2222 -0.4140  0.0871
18056TIP3    H175659   3.159   1.794  16.094 -1.0815 -0.8619 -0.4388
18056TIP3    H275660   3.188   1.796  16.243  0.5641 -0.2197 -0.7410
18057TIP3   OH275661   4.225   1.071  11.686  0.1712  0.4124  0.2819
18057TIP3    H175662   4.136   1.068  11.723 -0.3278 -1.3671 -0.9589
18057TIP3    H275663   4.259   1.155  11.715 -1.5526  0.7148  1.6336
18058TIP3   OH275664   3.209   0.346  12.425 -0.1388  0.2283 -1.0548
18058TIP3    H175665   3.224   0.435  12.394  0.5257  0.9618  1.1794
18058TIP3    H275666   3.295   0.315  12.454 -0.5779 -0.6579 -0.6418
18059TIP3   OH275667   4.489   3.440  12.746  0.2614  0.1508  0.0436
18059TIP3    H175668   4.493   3.362  12.802  2.5361 -1.2542 -1.8968
18059TIP3    H275669   4.434   3.415  12.672 -0.0267  0.8522  0.0092
18060TIP3   OH275670   6.640   3.888  11.685  0.1788 -0.4998 -0.0865
18060TIP3    H175671   6.609   3.903  11.596  2.0237  1.3956 -0.4985
18060TIP3    H275672   6.644   3.793  11.694  1.3582 -0.7701 -2.5787
18061TIP3   OH275673   1.859   3.794   4.705  0.3713 -0.4979  0.1334
18061TIP3    H175674   1.795   3.723   4.699  1.3244 -1.3093 -0.8087
18061TIP3    H275675   1.903   3.779   4.789 -0.8669  0.2669  0.9516
18062TIP3   OH275676   0.750   6.721  11.363  0.3010  0.2687 -0.0924
18062TIP3    H175677   0.767   6.713  11.269  1.3769 -0.5152  0.1508
18062TIP3    H275678   0.691   6.796  11.370 -1.0473 -0.5929 -1.5140
18063TIP3   OH275679   5.900   1.366  15.574 -0.1355  0.2337  0.0457
18063TIP3    H175680   5.820   1.314  15.583 -0.2519  0.4223  0.0990
18063TIP3    H275681   5.870   1.450  15.538  0.1707 -0.0860 -0.9901
18064TIP3   OH275682   4.406   5.681  15.281  0.4613  0.1620 -0.6971
18064TIP3    H175683   4.468   5.687  15.354  0.3868 -0.0042 -0.6202
18064TIP3    H275684   4.460   5.655  15.206  0.0447 -3.2375  0.0115
18065TIP3   OH275685   1.528   0.332  16.486  0.1081 -0.2934 -0.2376
18065TIP3    H175686   1.451   0.365  16.533  0.5652 -1.3952  1.3509
18065TIP3    H275687   1.515   0.238  16.480  1.5164 -0.5675  0.4602
18066TIP3   OH275688   0.860   4.719   3.701 -0.3914  0.1860  0.3528
18066TIP3    H175689   0.802   4.733   3.775 -0.6669 -0.8883  0.3606
18066TIP3    H275690   0.817   4.763   3.628 -1.6415 -1.2385  0.1843
18067TIP3   OH275691   5.799   0.673   4.233 -0.1258  0.0540  0.2840
18067TIP3    H175692   5.876   0.638   4.187  1.2547  0.6286  2.0641
18067TIP3    H275693   5.802   0.632   4.319 -1.0536  1.1329  0.8499
18068TIP3   OH275694   4.700   5.861   1.156 -0.0791 -0.2656 -0.3021
18068TIP3    H175695   4.642   5.785   1.166 -0.8060  0.2935 -0.1387
18068TIP3    H275696   4.651   5.933   1.196  0.7849  0.2004 -0.0682
18069TIP3   OH275697   0.473   0.907   2.628 -0.4682  0.5083  0.0293
18069TIP3    H175698   0.473   0.832   2.687 -0.8673 -1.6238 -2.4898
18069TIP3    H275699   0.442   0.872   2.544  2.7826  2.5995 -2.3330
18070TIP3   OH275700   0.962   5.462   1.884 -0.1302  0.0278  0.0083
18070TIP3    H175701   0.874   5.467   1.922 -0.0541 -0.7704  0.3131
18070TIP3    H275702   0.953   5.502   1.798 -0.8711 -0.3254 -0.0917
18071TIP3   OH275703   5.460   5.043  13.960 -0.0696 -0.0081  0.2199
18071TIP3    H175704   5.462   5.135  13.936 -0.7328  0.1654  0.8154
18071TIP3    H275705   5.479   4.997  13.878 -0.4365  0.6285 -0.2289
18072TIP3   OH275706   3.909   6.761   0.771 -0.4245 -0.7205 -0.3480
18072TIP3    H175707   3.902   6.745   0.865  0.8786 -0.2823 -0.1695
18072TIP3    H275708   3.942   6.679   0.735  2.3404  0.1317  0.0469
18073TIP3   OH275709   3.204   3.718  13.657 -0.0559 -0.1934  0.1278
18073TIP3    H175710   3.246   3.757  13.581  0.0990 -0.6029 -0.0014
18073TIP3    H275711   3.274   3.710  13.722  0.2621 -1.5622 -0.3476
18074TIP3   OH275712   4.881   4.022   4.400 -0.5827 -0.0866 -0.0355
18074TIP3    H175713   4.862   4.065   4.316 -0.8049 -1.1142 -0.5290
18074TIP3    H275714   4.965   3.978   4.385  1.0698  2.3488  1.3317
18075TIP3   OH275715   2.395   1.806   0.872  0.2455  0.1591 -0.5289
18075TIP3    H175716   2.467   1.757   0.833 -0.2602 -0.3573 -0.8192
18075TIP3    H275717   2.320   1.789   0.814 -0.5752 -0.7976  0.7648
18076TIP3   OH275718   3.592   0.070   3.220 -0.0415  0.0574 -0.3176
18076TIP3    H175719   3.604   0.159   3.185 -1.3369  0.5269  0.3773
18076TIP3    H275720   3.501   0.068   3.249  0.0121 -1.4707 -0.2003
18077TIP3   OH275721   4.381   1.653   3.942  0.8567 -0.4282  0.0240
18077TIP3    H175722   4.455   1.602   3.973  2.0264  0.0112 -1.8541
18077TIP3    H275723   4.421   1.732   3.904 -0.7783  1.2082  1.4784
18078TIP3   OH275724   2.355   6.225  12.451  0.1971 -0.8527  0.1141
18078TIP3    H175725   2.415   6.172  12.504 -0.7527 -1.7159  0.3754
18078TIP3    H275726   2.404   6.244  12.372  1.6409  0.4447  1.2649
18079TIP3   OH275727   5.307   4.769  15.802 -0.2706 -0.6377 -0.2832
18079TIP3    H175728   5.351   4.852  15.819  0.1318 -0.9340  0.1388
18079TIP3    H275729   5.236   4.765  15.867  1.4960 -1.9415  1.6839
18080TIP3   OH275730   4.464   6.667  13.256 -0.5089  0.1652  0.0288
18080TIP3    H175731   4.386   6.629  13.216 -0.6002 -1.4564  1.6435
18080TIP3    H275732   4.431   6.718  13.330 -0.1125  0.2863  0.1258
18081TIP3   OH275733   6.334   5.155  15.300 -0.1503 -0.0361  0.1415
18081TIP3    H175734   6.268   5.087  15.311  0.6142 -0.5071  2.2533
18081TIP3    H275735   6.286   5.231  15.268 -1.0261 -1.5045 -2.2310
18082TIP3   OH275736   4.249   4.766   4.308 -0.1335 -0.0726 -0.6002
18082TIP3    H175737   4.299   4.829   4.360  0.0986 -0.2731 -0.5759
18082TIP3    H275738   4.180   4.735   4.366  1.3433 -1.8350  0.3113
18083TIP3   OH275739   1.343   2.628  13.826 -0.0641  0.0925  0.3337
18083TIP3    H175740   1.275   2.564  13.846 -1.9741  2.4961  2.2220
18083TIP3    H275741   1.312   2.672  13.746  0.5680 -0.4399 -0.2131
18084TIP3   OH275742   4.127   4.815   0.821  0.2101 -0.3824 -0.4590
18084TIP3    H175743   4.118   4.830   0.727  0.2214  1.6435 -0.1715
18084TIP3    H275744   4.084   4.731   0.836 -2.8594  0.7981 -1.7753
18085TIP3   OH275745   0.045   5.823  13.350  0.1807 -0.3291  0.3318
18085TIP3    H175746  -0.006   5.742  13.359 -0.8649  0.2868  0.1958
18085TIP3    H275747   0.088   5.815  13.265  0.4679 -0.9476  0.5312
18086TIP3   OH275748   1.668   2.554   2.120  0.0835 -1.1565 -0.4940
18086TIP3    H175749   1.618   2.635   2.118 -1.0681 -1.8622 -1.4881
18086TIP3    H275750   1.718   2.559   2.202 -0.0116  0.5035 -0.5048
18087TIP3   OH275751   1.125   6.233  16.145 -0.4445  0.2250 -0.3386
18087TIP3    H175752   1.106   6.152  16.098 -1.5416  0.8373 -0.9957
18087TIP3    H275753   1.151   6.295  16.077 -0.4259  0.6615  0.0598
18088TIP3   OH275754   2.053   4.381  12.452 -0.1609 -0.0103  0.0475
18088TIP3    H175755   2.001   4.307  12.484  0.2584 -0.3726 -0.0996
18088TIP3    H275756   1.988   4.446  12.425 -0.5426 -0.4804 -0.1890
18089TIP3   OH275757   5.851   2.561  11.502  0.2456 -0.2024  0.5134
18089TIP3    H175758   5.856   2.514  11.419  0.7643  0.9568 -0.1445
18089TIP3    H275759   5.856   2.493  11.569 -0.0892 -1.1560 -0.3930
18090TIP3   OH275760   4.006   2.861   2.488  0.5645 -0.2318  0.0685
18090TIP3    H175761   4.043   2.779   2.457  0.5076 -0.3815  0.3955
18090TIP3    H275762   3.930   2.876   2.431 -1.2685 -1.9607  1.8739
18091TIP3   OH275763   6.458   4.426  14.733 -0.1167  1.1206 -0.0511
18091TIP3    H175764   6.416   4.341  14.749  1.2383  0.8992  3.1844
18091TIP3    H275765   6.466   4.464  14.820  3.8134  2.3574 -0.7770
18092TIP3   OH275766   3.837   4.381  12.633  0.1934 -0.2231 -0.1178
18092TIP3    H175767   3.749   4.401  12.600 -0.3055 -0.4631  1.0157
18092TIP3    H275768   3.826   4.376  12.728  1.1678 -1.5861 -0.0507
18093TIP3   OH275769   1.813   6.077   1.269 -0.1381  0.2883  0.3234
18093TIP3    H175770   1.837   6.094   1.361  1.1825  1.1742 -0.1448
18093TIP3    H275771   1.734   6.129   1.255  0.7607  1.7660  0.4581
18094TIP3   OH275772   2.640   3.742  15.788 -0.1501  0.5128  0.2376
18094TIP3    H175773   2.734   3.755  15.801  0.1266 -0.5921 -0.4522
18094TIP3    H275774   2.634   3.662  15.736 -1.4923  0.4244  0.4799
18095TIP3   OH275775   1.811   0.870  15.108 -0.2875 -0.3668  0.1540
18095TIP3    H175776   1.877   0.916  15.160 -0.4721  1.3705 -1.0360
18095TIP3    H275777   1.727   0.905  15.140 -0.4032  0.7597 -1.2682
18096TIP3   OH275778   5.968   5.519  12.846  0.1727 -0.0504 -0.1611
18096TIP3    H175779   5.904   5.494  12.780  0.4170  2.5574 -1.5198
18096TIP3    H275780   5.918   5.521  12.928 -0.3507 -2.3979 -0.3383
18097TIP3   OH275781   4.108   6.144   5.578  0.1351  0.3035  0.6504
18097TIP3    H175782   4.152   6.061   5.561  0.0620  0.8999 -3.4371
18097TIP3    H275783   4.175   6.199   5.619  1.7340 -0.3314 -0.9795
18098TIP3   OH275784   3.496   5.392  12.068 -0.2762  0.4688 -0.0901
18098TIP3    H175785   3.556   5.323  12.037  0.6222  0.6248  1.2292
18098TIP3    H275786   3.425   5.344  12.111  0.4676  0.3387  1.0365
18099TIP3   OH275787   4.786   1.660   4.975 -0.4642 -0.8957  0.2179
18099TIP3    H175788   4.801   1.753   4.954 -1.7168 -0.6300  0.4596
18099TIP3    H275789   4.826   1.613   4.902  0.9716 -0.2205  0.5199
18100TIP3   OH275790   6.599   2.235   4.603 -0.5383  0.7544 -0.6598
18100TIP3    H175791   6.568   2.254   4.692 -1.7585  0.3958 -0.9808
18100TIP3    H275792   6.535   2.172   4.569  1.4525 -1.3186 -0.8223
18101TIP3   OH275793   5.502   1.298  12.216  0.5086 -0.1718 -0.3328
18101TIP3    H175794   5.576   1.255  12.172 -1.1622 -1.5334 -1.9741
18101TIP3    H275795   5.496   1.254  12.301  2.3877  0.9381  0.4549
18102TIP3   OH275796   0.979   0.923  11.904 -0.1973 -0.1806 -0.4693
18102TIP3    H175797   1.039   0.932  11.830  0.3408 -1.2916 -0.1857
18102TIP3    H275798   1.026   0.868  11.966 -0.2179  1.5278  1.1603
18103TIP3   OH275799   4.615   0.557   0.857  0.3641 -0.0962  0.6120
18103TIP3    H175800   4.547   0.609   0.899 -1.4559 -1.1586 -0.8535
18103TIP3    H275801   4.621   0.477   0.909  0.0227 -0.2773  0.3741
18104TIP3   OH275802   6.132   5.675   6.056 -0.0328 -0.0217  0.3658
18104TIP3    H175803   6.113   5.642   6.144 -0.1220 -0.3594  0.2209
18104TIP3    H275804   6.189   5.750   6.071 -0.3668  0.1622  0.7327
18105TIP3   OH275805   6.794   5.735  15.404 -0.2518 -0.6731  0.2740
18105TIP3    H175806   6.864   5.798  15.386  1.7447 -1.8184  3.2813
18105TIP3    H275807   6.807   5.667  15.338  0.0436  0.1732 -0.5673
18106TIP3   OH275808   4.809   4.867   5.307 -0.1147  0.2898  0.1436
18106TIP3    H175809   4.768   4.877   5.393 -0.3871  2.0306 -0.1482
18106TIP3    H275810   4.741   4.827   5.253 -1.0199  1.9199  0.0110
18107TIP3   OH275811   1.702   0.259   5.900  0.6017 -0.2694 -0.3113
18107TIP3    H175812   1.793   0.255   5.872  0.6802  0.3311 -0.1660
18107TIP3    H275813   1.696   0.197   5.973  1.4933  1.3670  1.2522
18108TIP3   OH275814   1.593   5.436   0.584  0.2288  0.5277  0.4794
18108TIP3    H175815   1.598   5.531   0.582 -0.3224  0.7632 -4.8097
18108TIP3    H275816   1.510   5.415   0.540  0.5825 -2.3870  0.9813
18109TIP3   OH275817   0.163   4.587  13.789 -0.1810  0.3343 -0.0119
18109TIP3    H175818   0.169   4.519  13.723  0.2649  1.3874 -1.0932
18109TIP3    H275819   0.070   4.589  13.813 -0.5963  0.8142 -1.5786
18110TIP3   OH275820   4.818   4.698   5.769  0.3973  0.0234 -1.0228
18110TIP3    H175821   4.806   4.731   5.858  0.9561 -2.6663  0.1640
18110TIP3    H275822   4.730   4.670   5.742  0.3427  0.2061 -1.0322
18111TIP3   OH275823   5.182   5.025  16.792  0.3683  0.0730  0.1510
18111TIP3    H175824   5.212   5.096  16.735  0.3095 -0.8324 -1.0664
18111TIP3    H275825   5.103   5.058  16.833 -0.2395  0.3683 -1.2005
18112TIP3   OH275826   0.540   0.270  13.433 -0.0809  0.0056 -0.1435
18112TIP3    H175827   0.523   0.339  13.498  2.1539  0.5698 -0.0989
18112TIP3    H275828   0.522   0.311  13.349 -0.4978  0.0683 -0.0272
18113TIP3   OH275829   0.609   6.475  11.150  0.1444 -0.2807 -0.0070
18113TIP3    H175830   0.638   6.563  11.125  0.1234 -0.4020 -0.4793
18113TIP3    H275831   0.572   6.486  11.238  1.6203 -0.1269  0.6137
18114TIP3   OH275832   5.658   1.543   0.676 -0.0780  0.7756 -0.0233
18114TIP3    H175833   5.645   1.458   0.636 -0.2197  0.3677  0.8704
18114TIP3    H275834   5.728   1.583   0.625 -0.4152  0.3706 -0.8174
18115TIP3   OH275835   3.991   6.045   3.565  0.6229  0.0365 -0.2701
18115TIP3    H175836   4.075   6.090   3.573  0.6789 -0.1803  0.4044
18115TIP3    H275837   3.926   6.113   3.585  0.7206 -0.2413  1.1013
18116TIP3   OH275838   0.732   3.799  16.751 -0.5312 -0.5752  0.1601
18116TIP3    H175839   0.784   3.775  16.675 -0.1575 -0.2896  0.3225
18116TIP3    H275840   0.653   3.838  16.715 -0.4094 -0.5516 -0.0849
18117TIP3   OH275841   0.081   5.733  16.371 -0.0844  0.0557  0.2092
18117TIP3    H175842   0.168   5.697  16.388 -0.2665 -0.9726 -0.9188
18117TIP3    H275843   0.022   5.676  16.421 -0.2614 -0.3906 -0.5062
18118TIP3   OH275844   3.381   5.808  11.092  0.2885  0.0386 -0.0256
18118TIP3    H175845   3.300   5.763  11.115  0.6076 -0.4516  0.1480
18118TIP3    H275846   3.360   5.853  11.010  0.1511 -0.9396 -0.5433
18119TIP3   OH275847   1.521   4.936   4.367 -0.5215 -0.0689 -0.5042
18119TIP3    H175848   1.491   4.853   4.402  2.7550 -0.3478  2.1660
18119TIP3    H275849   1.582   4.913   4.297  0.4768 -0.0075  0.3123
18120TIP3   OH275850   6.139   5.630   0.684 -0.0785 -0.0464 -0.4464
18120TIP3    H175851   6.068   5.643   0.622 -0.7576 -0.1915  0.2855
18120TIP3    H275852   6.096   5.624   0.769  0.7367 -0.9901 -0.0839
18121TIP3   OH275853   2.606   6.183   1.372  0.5428  0.1372  0.3251
18121TIP3    H175854   2.571   6.099   1.401  1.0062  0.2141  1.1713
18121TIP3    H275855   2.688   6.161   1.328  1.8027  0.2345  2.4353
18122TIP3   OH275856   6.042   1.002   3.924  0.5195 -0.0757 -0.8524
18122TIP3    H175857   5.980   0.976   3.992 -0.4310 -0.0772 -1.6975
18122TIP3    H275858   6.024   1.095   3.909  0.9683  0.0136 -0.8580
18123TIP3   OH275859   1.345   0.656   3.321  0.7864  0.2175  0.7664
18123TIP3    H175860   1.432   0.688   3.295  0.4961  0.4859  0.0938
18123TIP3    H275861   1.290   0.672   3.244  0.5513 -1.6065  0.5175
18124TIP3   OH275862   3.784   3.813   2.425 -0.4122 -0.3702  0.3672
18124TIP3    H175863   3.770   3.908   2.431  1.1012 -0.0347 -0.7226
18124TIP3    H275864   3.725   3.784   2.356 -0.3447 -0.0944  0.1917
18125TIP3   OH275865   0.780   2.150   0.907 -0.3876 -0.3122  0.1457
18125TIP3    H175866   0.777   2.226   0.965 -1.1036 -0.9845  1.0007
18125TIP3    H275867   0.814   2.185   0.824  3.7366  0.1442  1.7847
18126TIP3   OH275868   3.611   6.131  11.804  0.2817  0.0025 -0.5288
18126TIP3    H175869   3.522   6.164  11.791  0.8280  1.3241 -1.0744
18126TIP3    H275870   3.602   6.036  11.799 -1.1232  0.1024 -0.3789
18127TIP3   OH275871   5.995   1.730   2.005 -0.6968 -0.0232 -0.1538
18127TIP3    H175872   6.059   1.662   1.983  0.2622  0.0098  2.2438
18127TIP3    H275873   6.014   1.801   1.945  0.4222 -0.6686 -0.5941
18128TIP3   OH275874   1.389   0.721  16.815 -0.1486  0.0684 -0.0137
18128TIP3    H175875   1.448   0.653  16.846 -0.5916 -0.1476  0.3644
18128TIP3    H275876   1.354   0.761  16.894 -1.1239 -0.3441 -0.2282
18129TIP3   OH275877   2.123   4.313   0.517 -0.2152  0.6833  0.5774
18129TIP3    H175878   2.077   4.322   0.600 -0.2060  0.8409  0.5648
18129TIP3    H275879   2.201   4.262   0.538 -1.0565 -0.7557  0.3651
18130TIP3   OH275880   1.847   6.317   2.929  0.2470 -0.0662 -0.1075
18130TIP3    H175881   1.828   6.319   2.835 -0.3699 -0.3199  0.0090
18130TIP3    H275882   1.870   6.226   2.946  1.0346  0.1210 -0.1388
18131TIP3   OH275883   1.693   4.830   3.875  0.1411  0.3671  0.3252
18131TIP3    H175884   1.688   4.744   3.833  0.6749  0.8655 -0.8298
18131TIP3    H275885   1.648   4.889   3.814  1.0471  1.1364  0.3633
18132TIP3   OH275886   5.163   6.515   2.841  0.1990 -0.5034  0.5093
18132TIP3    H175887   5.110   6.459   2.897 -2.8387 -0.0742 -1.6741
18132TIP3    H275888   5.131   6.603   2.858  2.4871  0.2343  1.3559
18133TIP3   OH275889   4.618   3.841   4.043  0.2018 -0.8331 -0.0431
18133TIP3    H175890   4.554   3.896   3.997  1.0262 -1.6044 -2.2374
18133TIP3    H275891   4.612   3.869   4.134 -1.5488  0.7689 -0.5794
18134TIP3   OH275892   3.523   5.550   4.609  0.4343 -0.1911 -0.3503
18134TIP3    H175893   3.564   5.513   4.687  0.1877 -1.7782 -0.9211
18134TIP3    H275894   3.550   5.642   4.607 -0.9815  0.3809  2.5567
18135TIP3   OH275895   0.904   6.152  12.247  0.1179  0.4663  0.7445
18135TIP3    H175896   0.993   6.187  12.247 -0.0454  0.9442  1.8898
18135TIP3    H275897   0.903   6.088  12.319 -0.2992  0.0224  0.3528
18136TIP3   OH275898   3.736   6.291  11.305 -0.6914 -0.2672 -0.4821
18136TIP3    H175899   3.742   6.373  11.355  2.2951 -0.7882  0.2069
18136TIP3    H275900   3.653   6.253  11.332 -0.9563  1.3264  1.1693
18137TIP3   OH275901   0.643   4.655  16.553 -0.2543  0.2992 -0.7175
18137TIP3    H175902   0.718   4.710  16.532 -1.2415  1.5848 -0.9440
18137TIP3    H275903   0.573   4.716  16.575 -1.5905 -0.8315 -1.6813
18138TIP3   OH275904   3.643   1.933  12.362  0.1377 -0.0164  0.3019
18138TIP3    H175905   3.709   1.871  12.394 -0.8785 -0.5570  1.4623
18138TIP3    H275906   3.690   2.015  12.353  0.9651 -0.3675  1.1933
18139TIP3   OH275907   1.899   4.309  16.521  0.7798 -0.1989 -0.8071
18139TIP3    H175908   1.958   4.257  16.575  0.5301 -0.0165 -0.3535
18139TIP3    H275909   1.954   4.380  16.486  0.6630  0.4477  0.2690
18140TIP3   OH275910   0.715   4.404  12.174 -0.5332  0.0341  0.0467
18140TIP3    H175911   0.760   4.488  12.177  0.4718 -0.5091  1.3771
18140TIP3    H275912   0.638   4.417  12.229 -2.0202  0.9210 -2.1150
18141TIP3   OH275913   3.950   1.246  11.866 -0.3822  0.1438  0.2345
18141TIP3    H175914   4.028   1.277  11.912 -0.3369 -0.4635  0.5801
18141TIP3    H275915   3.968   1.153  11.848 -1.2819 -0.1688  0.8715
18142TIP3   OH275916   2.972   1.713  14.840 -0.3096  0.0239  0.2605
18142TIP3    H175917   2.943   1.803  14.826  0.4998  0.1798 -0.5205
18142TIP3    H275918   3.051   1.722  14.894 -0.3688 -0.2406  0.3930
18143TIP3   OH275919   0.819   0.267  16.821  0.6026 -0.2497 -0.7084
18143TIP3    H175920   0.844   0.190  16.872 -0.3219 -1.0190 -1.3611
18143TIP3    H275921   0.878   0.267  16.746 -0.4771 -1.3493 -1.6038
18144TIP3   OH275922   3.573   3.299   4.372  0.4975 -0.2706  0.2770
18144TIP3    H175923   3.556   3.327   4.461 -1.4859  1.0907 -0.4608
18144TIP3    H275924   3.597   3.206   4.379  1.4315  0.0809  2.2758
18145TIP3   OH275925   0.175   4.104   0.278  0.2480  0.2375 -0.2865
18145TIP3    H175926   0.231   4.164   0.230  0.8755 -1.2125 -1.4402
18145TIP3    H275927   0.126   4.057   0.210 -2.3413  1.3358  0.6494
18146TIP3   OH275928   2.070   2.257   4.206 -0.0000 -0.1223 -0.5604
18146TIP3    H175929   2.047   2.321   4.274  2.0997  2.0232 -1.7449
18146TIP3    H275930   2.095   2.179   4.256 -1.0727  0.4640  1.0026
18147TIP3   OH275931   4.454   2.166  16.098  0.3857  0.3608  0.2534
18147TIP3    H175932   4.530   2.108  16.098  0.5715  0.5707 -0.8576
18147TIP3    H275933   4.488   2.249  16.063 -0.1570  0.7335  0.6003
18148TIP3   OH275934   0.917   4.591   1.700  0.2523  0.3804 -0.2080
18148TIP3    H175935   0.920   4.685   1.715  1.8807  0.6117 -1.6008
18148TIP3    H275936   0.955   4.580   1.613 -1.2057 -1.4627 -0.6785
18149TIP3   OH275937   6.135   3.146  16.252  0.6285 -0.0094 -0.0232
18149TIP3    H175938   6.080   3.079  16.211 -1.4580  1.6574 -0.1043
18149TIP3    H275939   6.222   3.106  16.254 -0.2891 -2.2933 -1.0284
18150TIP3   OH275940   2.631   0.720   2.011 -0.6639 -0.1690  0.6648
18150TIP3    H175941   2.727   0.714   2.011 -0.6604 -0.2316  1.7479
18150TIP3    H275942   2.602   0.631   1.993 -0.5114 -0.6140  2.4379
18151TIP3   OH275943   5.953   5.843   5.115 -0.3196  0.4553 -0.0440
18151TIP3    H175944   5.965   5.812   5.205  0.1892  2.6182  0.7066
18151TIP3    H275945   6.042   5.854   5.082 -0.4880  0.8139 -0.3823
18152TIP3   OH275946   2.281   5.267  10.932  0.4254  0.2727  0.1279
18152TIP3    H175947   2.358   5.313  10.965  1.5093 -0.4924 -1.2269
18152TIP3    H275948   2.282   5.282  10.838 -1.3604  0.6104  0.1245
18153TIP3   OH275949   4.720   0.196   1.196 -0.1349 -0.1667 -0.2116
18153TIP3    H175950   4.769   0.264   1.241 -0.9583  0.9476 -0.9490
18153TIP3    H275951   4.691   0.137   1.266  0.7979  0.0846  0.4049
18154TIP3   OH275952   5.768   4.563  11.590 -0.2573 -0.1807 -0.1240
18154TIP3    H175953   5.733   4.652  11.598 -0.2645 -0.2000  0.0697
18154TIP3    H275954   5.803   4.544  11.677  0.0477 -0.2393 -0.2599
18155TIP3   OH275955   2.116   2.526  10.801  0.7496 -0.0848 -0.5305
18155TIP3    H175956   2.065   2.587  10.855 -2.3814 -0.9923 -2.1894
18155TIP3    H275957   2.137   2.453  10.860  0.5704  0.5547  0.3335
18156TIP3   OH275958   4.541   1.533   5.728 -0.4824  0.4472  0.7499
18156TIP3    H175959   4.528   1.439   5.741  0.2211  0.3227  0.5871
18156TIP3    H275960   4.582   1.540   5.642  0.6329  0.8028  1.2989
18157TIP3   OH275961   5.814   0.463  12.543  0.0453 -0.3703 -0.2110
18157TIP3    H175962   5.786   0.479  12.453 -1.0103 -2.9963 -0.4363
18157TIP3    H275963   5.882   0.528  12.559 -1.0843  1.4095 -2.2240
18158TIP3   OH275964   0.916   1.414   6.524  0.1624  0.7100  0.4575
18158TIP3    H175965   0.822   1.432   6.525 -0.0035  0.0612 -0.8736
18158TIP3    H275966   0.941   1.425   6.432  1.0602 -0.6716  0.5050
18159TIP3   OH275967   4.860   5.918  10.776 -0.0278  0.0736  0.1468
18159TIP3    H175968   4.860   5.901  10.870 -0.8018  0.5845  0.2467
18159TIP3    H275969   4.859   6.013  10.768 -1.3260  0.0504 -0.3467
18160TIP3   OH275970   1.446   3.595   3.033 -0.1423  0.5340 -0.0490
18160TIP3    H175971   1.492   3.525   2.987 -0.2792 -0.0687  0.7225
18160TIP3    H275972   1.413   3.554   3.113 -0.3904  1.4287  0.3169
18161TIP3   OH275973   2.173   5.295  13.069  0.2581  0.0941 -0.2322
18161TIP3    H175974   2.266   5.297  13.093 -0.2915  0.1339  2.0963
18161TIP3    H275975   2.170   5.337  12.983  2.6757 -2.0628 -1.5380
18162TIP3   OH275976   3.882   3.576  16.542 -0.3026 -0.1237  0.0150
18162TIP3    H175977   3.918   3.650  16.591 -1.7969  0.3458  0.4634
18162TIP3    H275978   3.817   3.614  16.484 -1.3158 -1.0817  0.4671
18163TIP3   OH275979   5.067   0.624   2.481  0.6547 -0.2244  0.3685
18163TIP3    H175980   5.072   0.559   2.551  0.1444 -0.6845 -0.0143
18163TIP3    H275981   5.052   0.573   2.402 -0.5453  0.4056  0.1621
18164TIP3   OH275982   4.027   2.408  16.552 -0.1775 -0.3542  0.4144
18164TIP3    H175983   4.049   2.500  16.562 -0.2790 -0.3607  0.7244
18164TIP3    H275984   3.950   2.396  16.608  1.1451 -1.1229  2.1618
18165TIP3   OH275985   0.212   0.305   0.523 -0.1219 -0.0291  0.0451
18165TIP3    H175986   0.228   0.334   0.613 -1.7909 -2.3907  1.1977
18165TIP3    H275987   0.160   0.375   0.484  0.9993  1.2390  0.7356
18166TIP3   OH275988   6.231   3.542  13.319 -0.1173 -0.1622 -0.0230
18166TIP3    H175989   6.218   3.552  13.413  0.0636  1.9559 -0.1757
18166TIP3    H275990   6.185   3.616  13.280  1.8478  0.4244 -1.4138
18167TIP3   OH275991   5.586   3.054  14.956  0.0699  0.0745 -0.2856
18167TIP3    H175992   5.524   3.016  14.895 -1.8692  1.0291  0.9957
18167TIP3    H275993   5.576   3.148  14.945  0.8998  0.2457  0.3368
18168TIP3   OH275994   1.278   5.025   0.035  0.2267 -0.4271  0.4127
18168TIP3    H175995   1.347   5.042   0.099  0.1162 -1.5810  0.8624
18168TIP3    H275996   1.208   5.085   0.058  1.0256  0.7145 -0.0056
18169TIP3   OH275997   0.179   4.420  12.974 -0.1029 -0.4131  0.1202
18169TIP3    H175998   0.095   4.431  13.018 -0.9710 -0.4346 -1.4438
18169TIP3    H275999   0.231   4.496  13.000 -1.2813  0.5711 -0.3124
18170TIP3   OH276000   2.481   2.975  16.413 -0.3116 -0.9424  0.3178
18170TIP3    H176001   2.487   3.058  16.460 -0.6769  0.5723 -2.1870
18170TIP3    H276002   2.557   2.975  16.354 -0.9117 -1.8718 -0.4845
18171TIP3   OH276003   6.183   4.920  16.230  0.3639 -0.1110 -0.7724
18171TIP3    H176004   6.272   4.889  16.250 -0.1680 -1.2595 -0.0883
18171TIP3    H276005   6.129   4.887  16.301 -0.3722  2.0091 -0.2803
18172TIP3   OH276006   0.488   1.960  16.847 -0.0524  0.8900 -0.0962
18172TIP3    H176007   0.437   1.979  16.925 -1.2804 -0.5647 -0.5145
18172TIP3    H276008   0.575   1.998  16.866  0.4884 -1.4898  3.0003
18173TIP3   OH276009   5.938   3.004  12.040 -0.1695 -0.3458 -0.1491
18173TIP3    H176010   5.857   2.963  12.010 -0.9384  0.7328  0.3881
18173TIP3    H276011   5.947   3.083  11.987  0.0110  0.0410  0.4453
18174TIP3   OH276012   2.474   4.303  11.578  0.0059 -0.1467  0.1793
18174TIP3    H176013   2.543   4.366  11.601  0.6081 -0.5945 -0.3584
18174TIP3    H276014   2.517   4.242  11.517 -1.1115  0.1161 -0.9154
18175TIP3   OH276015   5.835   2.022   0.714 -0.3280 -0.3643  0.4621
18175TIP3    H176016   5.810   2.061   0.798 -2.9841  0.3063 -0.5343
18175TIP3    H276017   5.806   1.931   0.721 -1.0787 -0.1592  0.0858
18176TIP3   OH276018   3.111   4.186   2.608 -0.5628  0.1995 -0.2341
18176TIP3    H176019   3.149   4.274   2.602 -1.6572  0.5925 -1.7296
18176TIP3    H276020   3.176   4.129   2.566  0.6911  0.0408  1.7321
18177TIP3   OH276021   1.926   1.131  15.994  0.1512  0.3151 -0.6753
18177TIP3    H176022   1.885   1.059  16.042 -0.6037  0.6754 -0.7651
18177TIP3    H276023   1.990   1.167  16.056  0.9784 -0.8026 -0.8461
18178TIP3   OH276024   6.824   3.728  17.060 -0.6437  0.3274  0.4175
18178TIP3    H176025   6.786   3.650  17.101 -2.4722 -0.9877 -3.3435
18178TIP3    H276026   6.806   3.799  17.122 -1.3097 -1.7538  2.7586
18179TIP3   OH276027   2.475   5.493   2.319  0.1594  0.0606 -0.2362
18179TIP3    H176028   2.439   5.418   2.271 -1.4970  0.4549  0.3262
18179TIP3    H276029   2.430   5.491   2.404  1.6332  0.4867  0.5901
18180TIP3   OH276030   4.167   3.634   0.401 -0.1043  0.2353  0.0294
18180TIP3    H176031   4.142   3.544   0.420  0.1642  0.4877  1.6907
18180TIP3    H276032   4.089   3.685   0.422 -0.1902  0.4241 -0.7173
18181TIP3   OH276033   6.012   0.178   4.273 -0.1165 -0.2513 -0.1401
18181TIP3    H176034   6.017   0.246   4.206 -0.6965  1.0525  1.0720
18181TIP3    H276035   6.040   0.098   4.229  0.2943  0.7098 -1.7023
18182TIP3   OH276036   2.171   0.115   2.870  0.1501 -0.2321 -0.2881
18182TIP3    H176037   2.114   0.058   2.922 -0.2237 -1.3503 -1.8580
18182TIP3    H276038   2.259   0.093   2.898 -0.0804  1.4411  2.0963
18183TIP3   OH276039   0.623   6.410   1.246  0.1499 -0.2123  0.0882
18183TIP3    H176040   0.578   6.479   1.198  0.8540 -0.8300 -1.5371
18183TIP3    H276041   0.566   6.391   1.320 -0.9404  0.8424 -0.4500
18184TIP3   OH276042   4.820   3.344   2.166 -0.5726 -0.0291  0.1588
18184TIP3    H176043   4.854   3.288   2.096  1.4102  1.0358  0.2058
18184TIP3    H276044   4.775   3.415   2.120 -0.1320  0.1361 -0.0275
18185TIP3   OH276045   1.374   1.175   0.273 -0.6426  0.1309  0.4830
18185TIP3    H176046   1.432   1.249   0.253 -0.9695  0.3228  0.2349
18185TIP3    H276047   1.381   1.165   0.368  2.1097 -1.7661  0.1918
18186TIP3   OH276048   1.706   3.010   5.541  0.0302 -0.1935 -0.2313
18186TIP3    H176049   1.641   3.069   5.580 -0.6377 -0.4461 -0.9531
18186TIP3    H276050   1.758   2.980   5.616  0.5852  1.5321  0.1242
18187TIP3   OH276051   4.303   1.142  15.581  0.2064 -0.0013  0.1421
18187TIP3    H176052   4.349   1.179  15.506  2.5564  0.9454  1.9191
18187TIP3    H276053   4.221   1.191  15.586  0.8256  1.1714 -0.7465
18188TIP3   OH276054   4.838   5.821   0.647 -0.2553  0.0097  0.5110
18188TIP3    H176055   4.811   5.862   0.565 -1.1097 -2.9000 -0.7997
18188TIP3    H276056   4.924   5.784   0.627  1.3307  2.5083  2.2213
18189TIP3   OH276057   6.585   6.022  14.063 -0.3505  0.5452 -0.4824
18189TIP3    H176058   6.575   5.959  13.991 -3.7659  1.1097 -0.6710
18189TIP3    H276059   6.532   5.986  14.133  0.6882  1.4186  0.7951
18190TIP3   OH276060   1.332   0.699   2.703  0.5964 -0.0681 -0.3945
18190TIP3    H176061   1.281   0.688   2.623  3.3779 -1.0496 -2.1678
18190TIP3    H276062   1.359   0.611   2.727 -0.7525  0.1171  2.1328
18191TIP3   OH276063   6.485   3.278  10.822 -0.4968  0.0180 -0.2233
18191TIP3    H176064   6.461   3.210  10.759 -1.8810  0.3036 -0.0291
18191TIP3    H276065   6.565   3.245  10.864  1.1919  0.3494 -2.9215
18192TIP3   OH276066   4.184   3.678   1.331 -0.2998  0.6315  0.4667
18192TIP3    H176067   4.237   3.733   1.390  0.2624  2.1007 -1.3195
18192TIP3    H276068   4.242   3.660   1.257 -0.8034 -1.6552  0.5645
18193TIP3   OH276069   0.691   2.981  16.737  0.0860 -0.3532  0.2530
18193TIP3    H176070   0.627   2.911  16.748 -0.0089 -0.6654 -1.9194
18193TIP3    H276071   0.644   3.061  16.759 -1.7579 -0.3508 -3.0800
18194TIP3   OH276072   1.132   0.009   0.123  0.4706 -0.6481 -0.2150
18194TIP3    H176073   1.113  -0.042   0.202 -1.1587  1.1786  0.6382
18194TIP3    H276074   1.227   0.003   0.113  0.5332 -2.2002  0.9708
18195TIP3   OH276075   2.301   0.680  13.697  0.0050 -0.6894 -0.5816
18195TIP3    H176076   2.387   0.654  13.664  0.3567 -0.3838  0.0742
18195TIP3    H276077   2.261   0.727  13.624  1.5113  1.6203 -0.0479
18196TIP3   OH276078   1.520   4.241   5.598  0.4177 -0.0330  0.3239
18196TIP3    H176079   1.497   4.332   5.618  1.3984  0.2336  0.3082
18196TIP3    H276080   1.612   4.245   5.571 -0.1416 -0.7086 -1.9040
18197TIP3   OH276081   2.737   0.946   0.458 -0.1091 -0.5872  0.0517
18197TIP3    H176082   2.716   0.962   0.366  0.6137 -1.9270 -0.3750
18197TIP3    H276083   2.654   0.954   0.503 -0.2256  1.6727 -0.4556
18198TIP3   OH276084   5.059   5.117  11.483  0.0793 -0.5066  0.7634
18198TIP3    H176085   5.043   5.208  11.510 -0.0184 -0.8497  1.9139
18198TIP3    H276086   4.971   5.082  11.466  0.1672 -0.1449 -0.5810
18199TIP3   OH276087   5.450   3.951   1.250 -0.3783  0.7488 -0.4302
18199TIP3    H176088   5.379   3.895   1.282  0.7141 -0.8792 -0.7562
18199TIP3    H276089   5.410   4.001   1.179 -2.0556  2.2987  1.4530
18200TIP3   OH276090   2.437   4.261   3.380 -0.2192 -0.3186  0.5205
18200TIP3    H176091   2.368   4.287   3.440 -1.9923 -0.2707 -1.4423
18200TIP3    H276092   2.485   4.342   3.361 -1.6928  0.3390 -0.5883
18201TIP3   OH276093   6.214   1.100   2.095  0.7460 -0.0670 -0.3154
18201TIP3    H176094   6.221   1.010   2.061 -1.5754 -0.5138  0.2215
18201TIP3    H276095   6.233   1.092   2.188  0.7279  0.0402 -0.3030
18202TIP3   OH276096   1.693   1.079   0.297  0.1498  0.4395  0.6478
18202TIP3    H176097   1.761   1.048   0.357 -1.0540  0.7930  2.2500
18202TIP3    H276098   1.669   1.165   0.331 -2.9856 -0.7610  1.8329
18203TIP3   OH276099   5.690   6.608  12.214  0.0756  0.4193  0.7673
18203TIP3    H176100   5.659   6.635  12.127  1.7922  0.0789  0.0168
18203TIP3    H276101   5.699   6.513  12.208 -0.0530  0.3580  1.4236
18204TIP3   OH276102   1.078   2.220   0.368 -0.2096  0.4571 -0.0574
18204TIP3    H176103   1.032   2.304   0.379  1.1205  1.0668  1.0567
18204TIP3    H276104   1.135   2.235   0.292 -2.3410 -0.5798 -1.9998
18205TIP3   OH276105   2.224   2.638  11.100 -0.2677 -0.2359  0.0268
18205TIP3    H176106   2.145   2.650  11.154 -0.6881  1.7747 -0.9589
18205TIP3    H276107   2.295   2.674  11.153 -0.5217  0.8308 -0.3529
18206TIP3   OH276108   3.611   3.419  13.731 -0.6860 -0.0922  0.0286
18206TIP3    H176109   3.685   3.372  13.693 -0.3382  0.3834  0.1070
18206TIP3    H276110   3.651   3.484  13.789 -1.1664  0.1715  0.0693
18207TIP3   OH276111   6.040   1.751  10.924  0.1929 -0.3138 -0.1276
18207TIP3    H176112   5.989   1.670  10.925  1.3948 -1.1117 -1.0751
18207TIP3    H276113   6.118   1.730  10.873  1.3018  0.9733  0.9483
18208TIP3   OH276114   6.644   2.268  14.422 -0.0732 -0.1755  0.2860
18208TIP3    H176115   6.634   2.355  14.384  0.8792  0.1363  0.7291
18208TIP3    H276116   6.567   2.258  14.479 -0.0030  0.5159  0.5047
18209TIP3   OH276117   5.656   3.438  14.268  0.3605  0.2153  0.1366
18209TIP3    H176118   5.617   3.404  14.349 -0.1075 -0.1536 -0.2420
18209TIP3    H276119   5.739   3.392  14.261  0.2392 -0.0214  0.2228
18210TIP3   OH276120   1.894   5.924   5.826 -0.0112  1.1229 -0.3102
18210TIP3    H176121   1.870   5.832   5.817  0.7173  0.8387  0.5078
18210TIP3    H276122   1.850   5.968   5.753  0.5835 -0.0482 -1.3914
18211TIP3   OH276123   0.514   4.285   1.047  0.4381  0.4489 -0.3885
18211TIP3    H176124   0.583   4.343   1.079  0.3980  0.5714 -0.5263
18211TIP3    H276125   0.434   4.337   1.054  0.4544  0.5386 -0.8590
18212TIP3   OH276126   0.239   6.324  11.116  0.0067 -0.0056  0.2432
18212TIP3    H176127   0.259   6.359  11.029  0.4249  1.8928  1.0397
18212TIP3    H276128   0.301   6.252  11.127  0.0245 -0.2077 -0.9772
18213TIP3   OH276129   1.572   0.534   3.771  0.2963  0.8145  0.5653
18213TIP3    H176130   1.547   0.615   3.814  0.5003  0.6580  0.9803
18213TIP3    H276131   1.561   0.552   3.678  0.7646  1.4623  0.6292
18214TIP3   OH276132   2.792   4.604  15.306  0.4069  0.8214 -0.1117
18214TIP3    H176133   2.772   4.641  15.392  0.7403 -0.1753  0.4023
18214TIP3    H276134   2.838   4.523  15.324  0.8592  0.8012 -1.2428
18215TIP3   OH276135   6.598   5.800   5.355 -0.4282 -0.1796  0.0042
18215TIP3    H176136   6.514   5.770   5.318  0.8741 -1.4019 -2.1632
18215TIP3    H276137   6.573   5.855   5.428 -3.1822  0.5105 -1.3194
18216TIP3   OH276138   3.976   1.978   3.498  0.2223 -0.2138  0.3095
18216TIP3    H176139   3.976   2.061   3.546  0.9648  0.0408 -0.1077
18216TIP3    H276140   4.064   1.943   3.510 -0.6396 -1.9204  2.0865
18217TIP3   OH276141   5.002   5.211  12.087  0.4929  0.3612  0.0549
18217TIP3    H176142   4.935   5.217  12.156  0.8242  1.3817  0.3064
18217TIP3    H276143   4.998   5.120  12.057 -2.2230  0.8034 -1.1783
18218TIP3   OH276144   2.773   0.591  14.863  0.2377  0.1755 -0.2950
18218TIP3    H176145   2.818   0.587  14.947  1.4249 -0.3450 -0.9439
18218TIP3    H276146   2.680   0.588  14.886  0.5551 -1.2667  0.9436
18219TIP3   OH276147   2.451   3.262   5.918  0.0593 -0.2516  0.2618
18219TIP3    H176148   2.540   3.236   5.895 -0.0479  0.7972 -1.4984
18219TIP3    H276149   2.461   3.322   5.992  1.2368  2.7519 -2.1092
18220TIP3   OH276150   4.228   0.959  12.125 -0.2343 -0.0656  0.8496
18220TIP3    H176151   4.182   0.917  12.198 -0.3608 -0.6769  0.4242
18220TIP3    H276152   4.233   0.891  12.057  0.3201  0.3416  0.4757
18221TIP3   OH276153   4.207   5.199  11.025  0.3062  0.8604 -0.3409
18221TIP3    H176154   4.221   5.285  11.064 -0.9446  0.1650  1.8651
18221TIP3    H276155   4.282   5.147  11.052 -0.2712  0.5448  0.7324
18222TIP3   OH276156   2.774   1.457  15.109  0.1432 -0.0307  0.1346
18222TIP3    H176157   2.851   1.495  15.151 -0.8718  0.3527  1.7605
18222TIP3    H276158   2.748   1.385  15.167 -1.5380  0.7613  0.4523
18223TIP3   OH276159   5.316   4.756   1.530 -0.2693 -0.2258 -0.3333
18223TIP3    H176160   5.409   4.762   1.510 -0.2293 -0.7792 -0.3351
18223TIP3    H276161   5.292   4.843   1.563  0.5289 -0.4555  0.8827
18224TIP3   OH276162   1.858   0.695   6.916 -0.0788  0.5938  0.3624
18224TIP3    H176163   1.844   0.771   6.859  0.9236 -0.2601 -1.1018
18224TIP3    H276164   1.804   0.626   6.877  1.5172 -0.3271 -0.2904
18225TIP3   OH276165   5.554   2.015  13.695  0.1558  0.0932 -0.0972
18225TIP3    H176166   5.572   1.965  13.615  1.4398  1.4440 -0.7005
18225TIP3    H276167   5.458   2.023  13.697 -0.3314 -3.9145  1.0635
18226TIP3   OH276168   3.646   4.594   0.681  0.4082 -0.4928  0.1897
18226TIP3    H176169   3.673   4.685   0.668 -1.6554  0.2430  0.6736
18226TIP3    H276170   3.673   4.549   0.601 -0.4057  1.0294 -1.0081
18227TIP3   OH276171   5.725   3.533  16.399  0.5441  0.1365 -0.2103
18227TIP3    H176172   5.808   3.498  16.432  0.4644  0.0990 -0.0492
18227TIP3    H276173   5.697   3.595  16.465  1.1101  1.1472 -0.8960
18228TIP3   OH276174   4.521   6.492   1.139 -0.1788  0.2288 -0.0231
18228TIP3    H176175   4.588   6.447   1.190  1.6805  1.7656 -0.9764
18228TIP3    H276176   4.503   6.572   1.188 -0.2231  0.5322 -0.5226
18229TIP3   OH276177   5.354   1.196  12.439 -0.2119  0.8609  1.0461
18229TIP3    H176178   5.269   1.203  12.395  0.7726  0.8892 -0.9357
18229TIP3    H276179   5.366   1.102  12.453  0.8021  0.5273 -1.6082
18230TIP3   OH276180   5.713   1.423  13.403  0.5884  0.0514 -0.5440
18230TIP3    H176181   5.759   1.456  13.326  2.3232 -0.6279  0.1515
18230TIP3    H276182   5.702   1.499  13.459 -0.0752  0.4166 -1.1541
18231TIP3   OH276183   4.562   0.724  10.856 -0.0397 -0.7516  0.3904
18231TIP3    H176184   4.567   0.784  10.781 -0.0030 -2.4229 -1.0123
18231TIP3    H276185   4.473   0.689  10.853 -0.0959 -0.7000  1.2527
18232TIP3   OH276186   6.766   1.384  10.585 -0.2690 -0.3665  0.3209
18232TIP3    H176187   6.709   1.448  10.544 -2.4568 -1.4787  1.4158
18232TIP3    H276188   6.817   1.346  10.513  0.6290  2.0868 -0.4139
18233TIP3   OH276189   2.031   4.191   0.294 -0.1274 -0.1510 -0.4213
18233TIP3    H176190   2.043   4.235   0.379  0.1244  0.8120 -0.9490
18233TIP3    H276191   2.118   4.161   0.270  0.6032  2.9601 -2.1393
18234TIP3   OH276192   6.657   4.785  15.168 -0.1303  0.1292  0.1745
18234TIP3    H176193   6.562   4.774  15.158 -0.1216  0.6946 -0.6095
18234TIP3    H276194   6.667   4.818  15.257 -1.1003  4.3409 -1.0560
18235TIP3   OH276195   3.526   6.023   6.933  0.6185  0.6267 -0.1443
18235TIP3    H176196   3.494   6.068   6.855 -0.9476 -1.3492 -0.7194
18235TIP3    H276197   3.453   6.023   6.994  0.0931 -2.0531 -0.6274
18236TIP3   OH276198   4.284   5.842   3.165  0.3730  0.8577 -0.7164
18236TIP3    H176199   4.363   5.794   3.190 -0.1079  0.6961  0.5597
18236TIP3    H276200   4.313   5.933   3.157  0.9968  0.5870 -1.8043
18237TIP3   OH276201   2.406   4.005   5.353  0.3818 -0.4329  0.2082
18237TIP3    H176202   2.448   3.950   5.420  0.9207  0.4374  0.5953
18237TIP3    H276203   2.321   4.028   5.392  0.6826  0.0494  0.5920
18238TIP3   OH276204   4.386   0.888   0.167 -0.3753 -0.9364 -0.4263
18238TIP3    H176205   4.434   0.952   0.220 -1.2660 -0.8868  0.3535
18238TIP3    H276206   4.444   0.812   0.163  0.4130 -0.3240 -0.7989
18239TIP3   OH276207   3.047   5.883   5.460  0.0605  0.2275  0.0314
18239TIP3    H176208   3.005   5.961   5.495  0.5633 -0.1113  1.4514
18239TIP3    H276209   2.974   5.824   5.439 -0.2425  0.0916  1.3816
18240TIP3   OH276210   1.698   3.073   6.780 -0.1009  0.5171  0.0512
18240TIP3    H176211   1.695   3.135   6.707  1.4243  0.9280  0.3205
18240TIP3    H276212   1.766   3.010   6.756  1.6299  1.6210  1.8367
18241TIP3   OH276213   5.042   6.041  12.661  0.2987  0.0078 -0.1478
18241TIP3    H176214   5.015   6.015  12.750  1.8891 -1.0505  0.0722
18241TIP3    H276215   5.016   6.132  12.654 -1.3553 -0.3400  0.7928
18242TIP3   OH276216   4.991   5.380  15.871  0.0094 -0.7274 -0.0927
18242TIP3    H176217   5.066   5.348  15.923 -1.2004 -1.4511  1.2888
18242TIP3    H276218   4.990   5.474  15.886 -0.6530 -0.9803  1.7533
18243TIP3   OH276219   3.337   5.661  17.020  0.3869  0.0201 -0.3921
18243TIP3    H176220   3.418   5.700  17.053  0.3077 -0.6752  0.7038
18243TIP3    H276221   3.276   5.670  17.093  0.3630 -2.0805 -0.0912
18244TIP3   OH276222   2.408   1.150  15.942 -0.4282  0.6961 -0.2449
18244TIP3    H176223   2.353   1.216  15.900 -1.1622  1.0721  1.2338
18244TIP3    H276224   2.409   1.175  16.034  0.1787 -0.7353  0.1643
18245TIP3   OH276225   5.882   3.673  12.187 -0.1069  0.6533 -0.6860
18245TIP3    H176226   5.792   3.652  12.162  0.1939 -1.6088 -0.0754
18245TIP3    H276227   5.936   3.621  12.128  0.7180 -0.0908  0.6722
18246TIP3   OH276228   1.568   1.502  11.460  0.2133  0.2357 -0.4827
18246TIP3    H176229   1.610   1.418  11.478  0.1776  0.2576 -0.2984
18246TIP3    H276230   1.639   1.558  11.428 -0.2208 -0.6970 -3.4409
18247TIP3   OH276231   5.334   5.861  12.790  0.1479 -0.0287 -0.8513
18247TIP3    H176232   5.379   5.837  12.871  1.5936  1.9233 -0.9974
18247TIP3    H276233   5.322   5.779  12.743 -0.4855 -1.1709  1.1981
18248TIP3   OH276234   4.601   4.138  12.657 -0.6236 -0.1185 -0.0147
18248TIP3    H176235   4.629   4.080  12.728 -1.5838  0.2839  0.7233
18248TIP3    H276236   4.514   4.105  12.633 -0.5660  0.1360 -0.5906
18249TIP3   OH276237   2.898   0.514   4.351  0.5005  0.2816 -0.5327
18249TIP3    H176238   2.962   0.444   4.335 -0.5965 -0.9559  0.2343
18249TIP3    H276239   2.901   0.567   4.271  1.0089 -0.9389 -1.3732
18250TIP3   OH276240   1.405   4.494   2.957  0.0767 -0.2449 -0.0534
18250TIP3    H176241   1.317   4.528   2.974 -0.4367 -0.5780 -1.7934
18250TIP3    H276242   1.445   4.484   3.043 -1.4908  0.1911  0.7490
18251TIP3   OH276243   2.236   5.481   1.062 -0.0296 -0.3569  0.3112
18251TIP3    H176244   2.297   5.419   1.022  0.4916  0.2338  0.1831
18251TIP3    H276245   2.152   5.461   1.021  0.3465 -0.2592 -0.5336
18252TIP3   OH276246   0.430   5.441  11.391 -0.1822 -0.3550 -0.2836
18252TIP3    H176247   0.383   5.412  11.469 -1.2739 -0.7310 -1.0642
18252TIP3    H276248   0.519   5.406  11.403 -0.4440 -0.7594  0.5870
18253TIP3   OH276249   3.054   3.285   5.882 -0.4015  0.1915  0.3160
18253TIP3    H176250   3.015   3.305   5.968 -1.1081 -0.1104  0.0773
18253TIP3    H276251   3.124   3.349   5.872  1.0408 -1.0235  1.9897
18254TIP3   OH276252   4.817   2.014   5.899  0.2213  0.3954  0.0381
18254TIP3    H176253   4.878   1.960   5.848 -1.2645 -2.0577  0.6660
18254TIP3    H276254   4.766   2.061   5.833  0.9770  0.3682 -0.5767
18255TIP3   OH276255   3.982   3.274  15.106 -0.0123 -0.3752 -0.4778
18255TIP3    H176256   4.064   3.287  15.059 -0.5129  0.4011 -1.1807
18255TIP3    H276257   3.916   3.313  15.048 -0.6447  0.6835  0.9080
18256TIP3   OH276258   6.146   4.027   2.783  0.2446  0.2901 -0.0409
18256TIP3    H176259   6.060   4.013   2.822  1.0202 -2.0810  0.9969
18256TIP3    H276260   6.170   4.115   2.809 -1.9536  1.1408 -0.6195
18257TIP3   OH276261   6.105   0.332   1.852 -0.2191 -0.1648  0.3527
18257TIP3    H176262   6.080   0.367   1.937 -1.7873 -0.0455 -0.1286
18257TIP3    H276263   6.110   0.237   1.866  0.9452 -0.0446  0.8955
18258TIP3   OH276264   2.082   0.289   1.844  0.2212 -0.5226  0.4582
18258TIP3    H176265   2.045   0.201   1.847  1.3566 -0.9823  2.0492
18258TIP3    H276266   2.173   0.279   1.872  1.6897  0.5781 -3.1999
18259TIP3   OH276267   2.115   0.455   1.547  0.1119  0.3114  0.4530
18259TIP3    H176268   2.083   0.371   1.580  1.8572 -0.5207  0.1214
18259TIP3    H276269   2.066   0.521   1.596 -1.8698 -0.8714  0.1667
18260TIP3   OH276270   2.942   5.619  16.917 -0.4432 -0.4239  0.2929
18260TIP3    H176271   2.929   5.530  16.951  0.6746 -0.7244 -0.0513
18260TIP3    H276272   3.022   5.614  16.865  1.9360  1.5943  3.3716
18261TIP3   OH276273   0.097   2.818   2.059 -0.2561  0.2777  0.9428
18261TIP3    H176274   0.165   2.877   2.027 -0.2890 -0.8513 -1.4175
18261TIP3    H276275   0.141   2.734   2.068 -0.9879 -0.1203  0.8904
18262TIP3   OH276276   5.693   1.117   5.947  0.2084 -0.4698  0.1105
18262TIP3    H176277   5.734   1.125   6.034 -1.6515 -1.3034  1.1152
18262TIP3    H276278   5.615   1.171   5.953 -0.6475 -1.6021 -0.5784
18263TIP3   OH276279   0.353   5.314   2.365 -0.2940  0.2290  0.2469
18263TIP3    H176280   0.354   5.260   2.443 -0.5616 -0.0290  0.0741
18263TIP3    H276281   0.386   5.399   2.394 -1.5734  0.5259  0.9303
18264TIP3   OH276282   1.590   1.763  12.791 -0.0175  0.4164  0.7069
18264TIP3    H176283   1.595   1.765  12.695 -0.2601 -0.0123  0.6804
18264TIP3    H276284   1.511   1.711  12.809  0.9290 -0.9307  1.1445
18265TIP3   OH276285   1.787   3.607  15.684 -0.0645  0.1894  0.1737
18265TIP3    H176286   1.735   3.560  15.619  0.6710 -1.5061  0.7692
18265TIP3    H276287   1.788   3.698  15.653 -0.3526 -0.4353 -1.7750
18266TIP3   OH276288   2.074   3.488   1.936 -0.7390  0.2399 -0.1686
18266TIP3    H176289   2.054   3.433   2.011  0.8876 -1.0939 -0.6558
18266TIP3    H276290   2.024   3.450   1.864 -2.2070  1.4481  0.1674
18267TIP3   OH276291   1.214   5.745   1.667  0.0336  0.0386 -0.4219
18267TIP3    H176292   1.234   5.688   1.741  0.6702  2.0720  1.0561
18267TIP3    H276293   1.284   5.728   1.604 -0.2084 -1.3059 -0.3650
18268TIP3   OH276294   3.169   3.878   4.026  0.2753  0.6365 -0.0684
18268TIP3    H176295   3.219   3.828   4.090 -0.1281 -2.2189 -1.8050
18268TIP3    H276296   3.215   3.961   4.019  0.5808  0.9292  3.5037
18269TIP3   OH276297   0.226   6.381  10.497 -0.4991  0.5125 -0.0257
18269TIP3    H176298   0.138   6.394  10.531 -0.3471  1.1780  0.1328
18269TIP3    H276299   0.249   6.466  10.459  1.3381  1.4276  2.8519
18270TIP3   OH276300   6.330   3.476   3.211  0.5575 -0.0521 -0.0214
18270TIP3    H176301   6.289   3.475   3.297  1.7552  1.0770  0.5860
18270TIP3    H276302   6.323   3.386   3.180  0.8197 -0.6565  1.5972
18271TIP3   OH276303   4.601   1.895   4.520 -0.0852  0.3697 -0.0302
18271TIP3    H176304   4.649   1.974   4.545 -0.5502  0.2760  1.1831
18271TIP3    H276305   4.514   1.906   4.558  0.0757 -1.0659  0.7923
18272TIP3   OH276306   6.089   4.402  15.198  0.3864 -0.3692 -0.3328
18272TIP3    H176307   6.095   4.323  15.145 -1.0186 -0.3495 -0.5635
18272TIP3    H276308   5.995   4.416  15.210  0.4690  2.5374 -2.1980
18273TIP3   OH276309   1.601   4.021  13.007 -0.0499 -0.5292 -0.4335
18273TIP3    H176310   1.563   3.976  12.932 -1.6691  1.4356 -0.8868
18273TIP3    H276311   1.535   4.011  13.076  0.6135 -0.7982  0.1715
18274TIP3   OH276312   2.905   1.109  14.664 -0.2308  0.6316 -0.0493
18274TIP3    H176313   2.828   1.054  14.650 -0.8060  1.6268 -0.9212
18274TIP3    H276314   2.898   1.177  14.597  1.4553  0.6928 -0.2039
18275TIP3   OH276315   0.972   1.160  10.943 -0.0527 -0.0148  0.1021
18275TIP3    H176316   0.913   1.204  10.882 -0.2084 -0.0548  0.2241
18275TIP3    H276317   0.938   1.071  10.950 -0.6241  0.2586  1.0098
18276TIP3   OH276318   0.927   4.586  14.190 -0.0648 -0.1928 -0.7708
18276TIP3    H176319   0.920   4.666  14.138  1.8251  0.7839  0.4033
18276TIP3    H276320   0.987   4.607  14.261 -0.8616 -2.1446  0.5985
18277TIP3   OH276321   5.038   0.617  15.265 -0.2184  0.0041  0.0141
18277TIP3    H176322   5.049   0.712  15.263  0.0183 -0.0156  0.2955
18277TIP3    H276323   5.127   0.582  15.270 -0.2582 -0.2662 -0.9327
18278TIP3   OH276324   1.735   0.609  15.079  0.4294 -0.6297 -0.1552
18278TIP3    H176325   1.697   0.585  15.163 -3.1838 -0.7847 -1.6180
18278TIP3    H276326   1.765   0.699  15.091 -1.6988  0.0206  0.9141
18279TIP3   OH276327   5.708   5.773   6.254  0.1464  0.2059 -0.0904
18279TIP3    H176328   5.799   5.761   6.282  0.1897 -2.3994 -1.0399
18279TIP3    H276329   5.656   5.759   6.333  0.5090  1.5911  0.4317
18280TIP3   OH276330   0.545   3.276  12.374 -0.3788 -0.1701 -0.4049
18280TIP3    H176331   0.513   3.194  12.412 -0.5277  0.1502  0.1714
18280TIP3    H276332   0.609   3.309  12.438 -0.5933  0.3504 -0.4556
18281TIP3   OH276333   2.015   0.951  14.434  0.1394  0.3321  0.3100
18281TIP3    H176334   2.095   0.899  14.439 -0.4250 -0.6845 -0.8243
18281TIP3    H276335   1.947   0.888  14.410 -0.7591  1.4094 -0.0389
18282TIP3   OH276336   3.186   6.362   3.109 -0.3319 -0.2831 -0.8396
18282TIP3    H176337   3.244   6.409   3.169 -0.4018 -0.1043 -0.9123
18282TIP3    H276338   3.225   6.275   3.102 -1.1871 -0.8382  0.7014
18283TIP3   OH276339   6.460   6.759  16.681 -0.5555 -0.3984  0.2872
18283TIP3    H176340   6.512   6.721  16.611  0.6655 -1.7354  1.8486
18283TIP3    H276341   6.484   6.852  16.682  0.6522 -0.6932 -0.0201
18284TIP3   OH276342   4.639   0.694   0.294 -0.4015  0.0263 -0.2631
18284TIP3    H176343   4.614   0.602   0.282  0.7631 -0.3853  0.3534
18284TIP3    H276344   4.713   0.706   0.235 -0.4126  0.5085 -0.1783
18285TIP3   OH276345   6.398   4.672  11.942  0.6754 -0.5662 -0.0670
18285TIP3    H176346   6.405   4.580  11.916 -1.5390 -0.9542  0.4889
18285TIP3    H276347   6.373   4.718  11.862  0.0477 -0.7391  0.0281
18286TIP3   OH276348   2.876   1.294  14.475  0.4499 -0.1094 -0.1264
18286TIP3    H176349   2.783   1.275  14.483  0.1843  1.1376 -0.0911
18286TIP3    H276350   2.881   1.389  14.467  1.6608 -0.2250 -1.0944
18287TIP3   OH276351   0.337   1.484  12.215  0.1388 -0.1795 -0.3761
18287TIP3    H176352   0.401   1.449  12.154  0.5595  0.1438 -0.1197
18287TIP3    H276353   0.295   1.556  12.167  2.5433  2.1065  0.6963
18288TIP3   OH276354   6.194   5.307   1.154 -0.4842  0.4787  0.7434
18288TIP3    H176355   6.107   5.313   1.116  0.1688 -0.5917 -1.0262
18288TIP3    H276356   6.186   5.350   1.239 -2.6906  0.5023  0.5732
18289TIP3   OH276357   4.839   2.161   1.811  0.5483  0.4590 -0.2417
18289TIP3    H176358   4.779   2.109   1.758  2.0040  0.7347 -2.2782
18289TIP3    H276359   4.926   2.141   1.776  1.3555  2.4929  0.4459
18290TIP3   OH276360   5.247   5.431  16.375  0.5093 -0.0204  0.0037
18290TIP3    H176361   5.241   5.514  16.328  1.6048 -0.5123 -1.0580
18290TIP3    H276362   5.280   5.369  16.310 -0.8050 -1.4282  0.6237
18291TIP3   OH276363   0.623   3.473   1.551 -0.0191  0.5307  0.4088
18291TIP3    H176364   0.629   3.450   1.459 -0.4159 -2.8279  1.1140
18291TIP3    H276365   0.681   3.549   1.560  0.8362  0.3305 -2.3668
18292TIP3   OH276366   0.352   4.895  13.609 -0.7799  0.2443 -0.3930
18292TIP3    H176367   0.348   4.804  13.580 -1.0566 -0.0471  0.5394
18292TIP3    H276368   0.407   4.938  13.543  0.1940 -0.8107 -0.3159
18293TIP3   OH276369   1.981   6.203   5.399 -0.8158  0.0687  0.0897
18293TIP3    H176370   2.056   6.260   5.414 -1.0444  0.0300  1.5250
18293TIP3    H276371   1.965   6.208   5.305  0.0172  1.2875 -0.0048
18294TIP3   OH276372   3.784   0.145  13.864 -0.0518 -0.1057  0.1255
18294TIP3    H176373   3.813   0.087  13.794  2.8716  0.4119  0.8040
18294TIP3    H276374   3.812   0.102  13.945  1.1463  1.6199  0.7018
18295TIP3   OH276375   4.068   4.201  13.667 -0.7648  0.1656  0.1224
18295TIP3    H176376   4.105   4.143  13.601 -1.7584 -1.0047  0.5495
18295TIP3    H276377   4.135   4.206  13.736 -0.5612 -0.2316 -0.0480
18296TIP3   OH276378   0.236   5.744   0.239  0.2289 -0.2955 -0.2168
18296TIP3    H176379   0.287   5.812   0.283 -0.4924 -0.6321  1.2244
18296TIP3    H276380   0.189   5.790   0.170 -0.0666  0.6507  0.5846
18297TIP3   OH276381   3.441   6.811   1.498 -0.2219  0.0822 -0.4028
18297TIP3    H176382   3.368   6.795   1.557  0.7611  0.5009  0.9649
18297TIP3    H276383   3.492   6.730   1.500 -0.7889 -0.3361 -1.6182
18298TIP3   OH276384   5.774   2.797  14.754 -0.1857 -0.8242 -0.1638
18298TIP3    H176385   5.777   2.839  14.840  0.2047  1.6172 -1.2794
18298TIP3    H276386   5.689   2.753  14.752 -1.5771  1.6462  0.4033
18299TIP3   OH276387   6.027   3.139  15.247 -0.0847 -0.3660  0.0658
18299TIP3    H176388   6.072   3.206  15.297 -0.3731  0.4435 -0.7429
18299TIP3    H276389   5.979   3.088  15.313  0.5605 -0.1161  0.7319
18300TIP3   OH276390   2.324   1.356   3.466 -0.2642  0.3034  0.3446
18300TIP3    H176391   2.361   1.285   3.519 -0.9579 -2.1641 -2.2099
18300TIP3    H276392   2.355   1.338   3.377 -3.5314  0.9170 -1.0817
18301TIP3   OH276393   3.557   2.122   2.913  0.5261 -0.2271  0.4793
18301TIP3    H176394   3.516   2.174   2.982 -2.8889  0.7410 -2.0130
18301TIP3    H276395   3.640   2.167   2.896 -0.3055  1.7843  1.3900
18302TIP3   OH276396   4.315   0.522   3.997 -0.3721 -0.3888  0.1862
18302TIP3    H176397   4.351   0.611   3.996 -0.6403 -0.2797  0.0088
18302TIP3    H276398   4.229   0.532   4.038 -0.5919 -0.4908 -0.2455
18303TIP3   OH276399   6.395   1.897  12.104 -0.0204  0.1472  0.0728
18303TIP3    H176400   6.398   1.964  12.173  1.9997 -1.4410  1.6255
18303TIP3    H276401   6.364   1.818  12.149  0.8642 -0.7960 -0.9487
18304TIP3   OH276402   3.682   5.075  16.447  0.3749 -0.2875 -0.5001
18304TIP3    H176403   3.612   5.067  16.383  0.5487  1.1945 -0.9089
18304TIP3    H276404   3.675   5.165  16.480 -0.8984 -1.4959  2.9576
18305TIP3   OH276405   0.079   5.820  16.078  0.1045 -0.3075  0.2575
18305TIP3    H176406   0.139   5.893  16.059  1.1525 -0.9948  0.8172
18305TIP3    H276407   0.062   5.828  16.172 -1.5664  0.5064 -0.0823
18306TIP3   OH276408   0.066   2.917  11.839  0.6768 -0.2017  0.4850
18306TIP3    H176409   0.145   2.863  11.842 -0.4517 -1.8738  1.6719
18306TIP3    H276410  -0.004   2.859  11.867 -1.3789  0.6355 -2.4505
18307TIP3   OH276411   5.507   4.927  15.091  0.3298 -0.1670  0.6877
18307TIP3    H176412   5.485   4.999  15.149  2.6472  0.7963  0.4815
18307TIP3    H276413   5.561   4.967  15.023 -0.6129 -1.6338 -1.0006
18308TIP3   OH276414   1.222   5.599  10.193  0.1638  0.0547  0.0725
18308TIP3    H176415   1.194   5.588  10.102 -0.6639 -0.1557  0.3441
18308TIP3    H276416   1.196   5.517  10.236  0.4317  0.2055  0.5227
18309TIP3   OH276417   1.111   1.198  11.201 -0.9970 -0.4417  0.0590
18309TIP3    H176418   1.114   1.191  11.105 -1.0382 -1.0660  0.0996
18309TIP3    H276419   1.090   1.109  11.231 -2.1528 -0.0036  0.6002
18310TIP3   OH276420   5.767   3.365  15.587 -0.1801  0.1630  0.1182
18310TIP3    H176421   5.822   3.419  15.645 -0.2124 -0.3339  0.6161
18310TIP3    H276422   5.752   3.421  15.511  1.0435  0.3057 -0.0418
18311TIP3   OH276423   0.766   4.586   4.092  0.6211  0.4143 -0.8300
18311TIP3    H176424   0.853   4.582   4.052  0.5900  0.0049 -0.8631
18311TIP3    H276425   0.767   4.516   4.157  0.3898  0.5480 -0.6844
18312TIP3   OH276426   0.596   6.384   1.631 -0.5414 -0.2709 -0.7418
18312TIP3    H176427   0.690   6.370   1.626 -0.5247 -0.2358 -0.5106
18312TIP3    H276428   0.584   6.478   1.624 -0.4951 -0.1862  0.1894
18313TIP3   OH276429   4.860   3.589   4.978 -0.0471  0.0436 -0.3251
18313TIP3    H176430   4.895   3.677   4.968  0.1640 -0.1314 -1.1881
18313TIP3    H276431   4.770   3.595   4.945 -0.3339  0.1361  0.4523
18314TIP3   OH276432   4.199   5.716  11.079  0.2894  0.0378 -0.1161
18314TIP3    H176433   4.158   5.801  11.068 -0.6238 -0.4397 -0.5830
18314TIP3    H276434   4.273   5.717  11.017 -1.3976 -0.5071 -2.2853
18315TIP3   OH276435   1.325   0.633  16.026  0.2204 -0.0555  0.2960
18315TIP3    H176436   1.307   0.637  15.932 -1.0826  1.6551  0.5612
18315TIP3    H276437   1.417   0.656  16.034 -0.3971  3.2404 -0.4376
18316TIP3   OH276438   5.408   5.300   3.415  0.1680  0.1984 -0.4468
18316TIP3    H176439   5.348   5.359   3.370  2.6237  1.4315 -2.3261
18316TIP3    H276440   5.478   5.357   3.447  0.3888 -1.1690  1.7024
18317TIP3   OH276441   5.692   6.206  13.247  0.2120 -0.4987 -0.5258
18317TIP3    H176442   5.655   6.199  13.159 -2.9327  1.3887  0.4645
18317TIP3    H276443   5.737   6.290  13.248  0.8100 -0.8169 -0.5091
18318TIP3   OH276444   0.262   2.532  14.850  0.2981  0.1284 -0.3561
18318TIP3    H176445   0.234   2.623  14.856 -0.1547 -0.0576  0.5555
18318TIP3    H276446   0.350   2.536  14.813  0.3126  0.9387 -0.2418
18319TIP3   OH276447   3.655   1.998  12.714  0.5264  0.1950  0.2469
18319TIP3    H176448   3.620   1.958  12.793 -1.1014 -0.6533 -0.8378
18319TIP3    H276449   3.670   1.924  12.655 -0.2084  0.9638 -0.9413
18320TIP3   OH276450   4.503   5.156   2.176  0.6386  0.5356  0.4701
18320TIP3    H176451   4.441   5.162   2.103  1.7540 -2.2998 -0.8571
18320TIP3    H276452   4.450   5.128   2.250 -0.3575  2.5954  0.6229
18321TIP3   OH276453   4.803   1.549   1.574 -0.0247  0.1162  0.3581
18321TIP3    H176454   4.836   1.587   1.655 -1.4748 -4.0987  3.2560
18321TIP3    H276455   4.876   1.500   1.538 -0.0044  0.1698  0.3252
18322TIP3   OH276456   0.971   0.897  16.368 -0.3075 -0.4348  0.0585
18322TIP3    H176457   1.061   0.865  16.369 -0.0974  0.1101 -0.6417
18322TIP3    H276458   0.950   0.914  16.459 -0.0237 -1.4436  0.3330
18323TIP3   OH276459   6.051   1.757   1.557  0.2302  0.3251  0.6322
18323TIP3    H176460   6.037   1.816   1.483 -1.4173 -0.3273  0.3910
18323TIP3    H276461   6.104   1.686   1.521  0.2211  0.4773  0.3138
18324TIP3   OH276462   6.727   3.851  10.158  0.2038 -0.1485 -1.2665
18324TIP3    H176463   6.786   3.803  10.101 -0.8493 -1.5561 -1.2212
18324TIP3    H276464   6.704   3.788  10.227  1.8677  1.6350  1.0895
18325TIP3   OH276465   3.149   1.523   4.143 -0.0545  0.0221  0.6220
18325TIP3    H176466   3.136   1.601   4.090  0.9826  0.8705  1.5767
18325TIP3    H276467   3.064   1.479   4.143 -0.9602  1.7104  0.9497
18326TIP3   OH276468   3.721   2.492   0.195 -0.2977  0.0840 -0.0072
18326TIP3    H176469   3.767   2.412   0.221 -0.3251 -0.2139 -0.8465
18326TIP3    H276470   3.634   2.462   0.167  0.4443  0.0657 -2.5461
18327TIP3   OH276471   2.292   0.469  12.286  0.1628  0.1560 -0.4562
18327TIP3    H176472   2.209   0.451  12.240  0.3489  0.9543 -1.1115
18327TIP3    H276473   2.351   0.502  12.218  1.3627 -1.3586 -0.2045
18328TIP3   OH276474   4.707   0.774   4.094  0.2165  0.1053  0.0575
18328TIP3    H176475   4.669   0.732   4.171  1.1313  1.1416  1.1037
18328TIP3    H276476   4.750   0.702   4.046 -1.4289 -0.7597 -0.1888
18329TIP3   OH276477   1.865   3.653  13.392  0.2776 -0.1406  0.3348
18329TIP3    H176478   1.950   3.643  13.349 -0.1100  3.3902 -1.6956
18329TIP3    H276479   1.803   3.615  13.330  0.1292  0.3926  0.1507
18330TIP3   OH276480   0.997   4.358   4.571 -0.2384  0.0656  0.3677
18330TIP3    H176481   1.007   4.362   4.666  0.2082 -0.0737  0.3259
18330TIP3    H276482   0.904   4.338   4.558 -0.9221  2.5526  0.7339
18331TIP3   OH276483   3.013   4.016   0.691  0.4005 -0.2368  0.2697
18331TIP3    H176484   2.949   4.079   0.656  0.9852 -0.7992 -1.9773
18331TIP3    H276485   2.980   3.994   0.778 -1.2147  1.2148  0.0828
18332TIP3   OH276486   3.690   2.723  12.432 -0.2529 -0.2703  0.6735
18332TIP3    H176487   3.642   2.805  12.434  0.1293 -0.0515  1.4842
18332TIP3    H276488   3.628   2.660  12.394 -1.9361 -0.4218  3.3634
18333TIP3   OH276489   4.659   1.670   0.145  0.5753  0.6287  0.3999
18333TIP3    H176490   4.706   1.750   0.121 -0.2909  1.1038  0.2312
18333TIP3    H276491   4.621   1.689   0.231  2.1875 -0.4191  1.3985
18334TIP3   OH276492   6.634   5.335  16.476 -0.6939  0.1105  0.2541
18334TIP3    H176493   6.706   5.312  16.417 -0.9205  0.3252 -0.1101
18334TIP3    H276494   6.673   5.392  16.541 -0.3718 -0.3843  0.5012
18335TIP3   OH276495   6.387   1.128  13.486  0.2551  0.2252  0.1071
18335TIP3    H176496   6.378   1.161  13.397  0.0596  0.5031  0.2267
18335TIP3    H276497   6.297   1.122  13.518  0.3685  1.0291  0.6092
18336TIP3   OH276498   0.419   1.644  14.404 -0.1528 -0.4258 -0.0481
18336TIP3    H176499   0.483   1.598  14.349  0.6477 -1.8705  1.9883
18336TIP3    H276500   0.406   1.727  14.359  2.9182 -0.1945 -0.7629
18337TIP3   OH276501   3.248   5.563   2.275 -0.1575  0.3161  0.2814
18337TIP3    H176502   3.314   5.587   2.210  0.3792 -0.0307  0.6901
18337TIP3    H276503   3.193   5.499   2.230 -0.9719  1.5148 -0.4669
18338TIP3   OH276504   0.049   5.194  15.580  0.3695 -0.1561 -0.3779
18338TIP3    H176505   0.127   5.206  15.525  0.4392  0.2009 -0.2097
18338TIP3    H276506   0.020   5.105  15.563 -0.1810  0.2556 -1.7360
18339TIP3   OH276507   5.335   0.312   0.013 -0.3073 -0.1514 -0.3902
18339TIP3    H176508   5.374   0.400   0.010 -0.4476 -0.1033 -0.8132
18339TIP3    H276509   5.348   0.283   0.103  0.2935  0.0517 -0.4133
18340TIP3   OH276510   3.662   5.474   1.577 -0.1424  0.1709  0.0302
18340TIP3    H176511   3.752   5.455   1.600 -0.0749  1.8147  1.3408
18340TIP3    H276512   3.669   5.533   1.501 -0.1290  0.1744  0.0341
18341TIP3   OH276513   2.181   3.406  14.461  0.3489  0.1791 -0.3164
18341TIP3    H176514   2.193   3.373  14.549 -2.1427 -1.9304 -0.6377
18341TIP3    H276515   2.237   3.351  14.406 -1.5092 -1.6818 -0.4854
18342TIP3   OH276516   3.097   5.250  12.614  0.8133  0.0674 -0.1095
18342TIP3    H176517   3.115   5.167  12.571  1.5384  0.3303 -0.3462
18342TIP3    H276518   3.082   5.312  12.543 -0.3760  0.0125  0.0783
18343TIP3   OH276519   5.645   3.738  14.113 -0.5601 -0.3950 -0.6097
18343TIP3    H176520   5.603   3.704  14.034 -1.1573 -0.1147 -0.4211
18343TIP3    H276521   5.733   3.701  14.112 -0.1090  0.6261 -2.0978
18344TIP3   OH276522   0.477   2.619  13.056 -0.6834  0.3035  0.5591
18344TIP3    H176523   0.508   2.533  13.085 -0.6602  0.5057  1.1580
18344TIP3    H276524   0.391   2.602  13.018 -0.2009 -0.1438 -0.3709
18345TIP3   OH276525   1.171   0.776  14.749 -0.1666 -0.1679 -0.4675
18345TIP3    H176526   1.224   0.850  14.778 -0.2108 -0.7897  1.3601
18345TIP3    H276527   1.088   0.816  14.722 -0.1838  0.4882  0.4640
18346TIP3   OH276528   1.635   2.619  14.999 -0.9541  0.3031  0.0619
18346TIP3    H176529   1.588   2.683  15.052  0.0927  1.7976 -0.7393
18346TIP3    H276530   1.631   2.538  15.050 -4.2256  0.3526  0.0898
18347TIP3   OH276531   3.986   4.346  16.940  0.1419 -0.2538  0.8786
18347TIP3    H176532   3.949   4.299  16.865  1.0901  0.2907  0.0377
18347TIP3    H276533   3.916   4.347  17.005 -0.7984 -0.5264 -0.0952
18348TIP3   OH276534   4.759   2.787  13.568  0.0035  0.0080 -0.0676
18348TIP3    H176535   4.852   2.808  13.568 -0.0956  0.4960  0.5658
18348TIP3    H276536   4.755   2.692  13.560  0.5116  0.0812 -1.5332
18349TIP3   OH276537   1.357   5.324   2.530 -0.9449 -0.2952 -0.6582
18349TIP3    H176538   1.393   5.274   2.603  0.7412 -0.7751 -1.7472
18349TIP3    H276539   1.400   5.410   2.536 -0.1553 -0.6119 -1.5283
18350TIP3   OH276540   6.724   4.979   3.940  0.0813 -0.0453  0.0298
18350TIP3    H176541   6.781   5.046   3.903 -0.6812  1.0807  0.8287
18350TIP3    H276542   6.667   5.027   4.000 -0.8731 -1.3260  0.1803
18351TIP3   OH276543   2.903   0.964   4.064  0.2039 -0.6872  0.6284
18351TIP3    H176544   2.965   0.899   4.028 -0.4324 -0.9078 -0.0929
18351TIP3    H276545   2.959   1.027   4.109  1.0099 -0.6455 -0.3802
18352TIP3   OH276546   2.053   2.024   2.815 -1.0566  0.1759  0.3769
18352TIP3    H176547   2.082   2.110   2.784  0.3022 -0.3677  0.0616
18352TIP3    H276548   1.986   1.998   2.752 -0.1403  0.2057 -0.6457
18353TIP3   OH276549   0.064   3.792  13.636  0.2510  0.4302  0.3232
18353TIP3    H176550  -0.019   3.817  13.676  0.9791  2.6837  0.5784
18353TIP3    H276551   0.040   3.757  13.551 -1.0123 -0.0109  0.8338
18354TIP3   OH276552   6.451   0.850  11.580 -0.6516 -0.1038  0.4025
18354TIP3    H176553   6.426   0.828  11.670 -0.2980 -1.2579  0.2311
18354TIP3    H276554   6.368   0.850  11.532 -0.9315  1.1971  0.8450
18355TIP3   OH276555   1.759   2.778  11.766  0.1167  0.0674 -0.0688
18355TIP3    H176556   1.798   2.773  11.853 -0.7186  0.8282  0.3678
18355TIP3    H276557   1.669   2.747  11.778  0.0765 -0.1011 -0.7285
18356TIP3   OH276558   1.720   6.160  14.253 -0.2682 -0.0191  0.5428
18356TIP3    H176559   1.682   6.074  14.271  1.0289 -1.0885 -1.4656
18356TIP3    H276560   1.799   6.141  14.203  0.4283  2.3389  0.6312
18357TIP3   OH276561   6.302   1.773  15.516  0.0481  0.1655 -0.1324
18357TIP3    H176562   6.324   1.753  15.425 -2.5809  0.7951 -0.9850
18357TIP3    H276563   6.258   1.695  15.548  0.9505 -0.0465  0.6350
18358TIP3   OH276564   0.511   2.797  13.780  0.5836  0.9235  0.0750
18358TIP3    H176565   0.596   2.780  13.822 -0.5216  0.0670  2.0877
18358TIP3    H276566   0.473   2.710  13.768 -0.6393  1.3627  0.6441
18359TIP3   OH276567   1.658   2.696   0.774  0.3083 -0.1115  0.2424
18359TIP3    H176568   1.592   2.664   0.836  0.7299 -0.9063  0.3014
18359TIP3    H276569   1.622   2.674   0.688  0.3693 -0.2937  0.2632
18360TIP3   OH276570   4.831   1.501  12.285  0.0802  0.1916  0.1391
18360TIP3    H176571   4.901   1.559  12.255 -0.3386  0.8216  0.3668
18360TIP3    H276572   4.869   1.455  12.360  0.3075  0.4145  0.1657
18361TIP3   OH276573   4.205   6.005  14.445  0.4278 -0.2208  0.0307
18361TIP3    H176574   4.142   6.073  14.420  1.4211  0.1001 -1.7522
18361TIP3    H276575   4.168   5.968  14.525 -1.3041  0.8932 -0.1768
18362TIP3   OH276576   2.425   1.319   4.215  0.5257  0.2024  0.1959
18362TIP3    H176577   2.438   1.246   4.275 -0.3511  1.1559  1.6083
18362TIP3    H276578   2.506   1.370   4.220  1.0513 -0.5146 -0.6268
18363TIP3   OH276579   0.832   5.386  16.381 -0.7771 -0.2787  0.2106
18363TIP3    H176580   0.819   5.298  16.415  4.8201 -1.5912 -0.0213
18363TIP3    H276581   0.872   5.434  16.454  0.4971  0.5452 -0.9837
18364TIP3   OH276582   5.918   3.976  13.106  0.0820 -0.0710  0.4327
18364TIP3    H176583   5.943   4.068  13.092  0.1876 -0.3179 -1.2019
18364TIP3    H276584   5.985   3.925  13.060 -0.5007 -0.9249  0.5066
18365TIP3   OH276585   2.007   2.435   0.868 -0.2502  0.6374 -0.2042
18365TIP3    H176586   1.925   2.386   0.870 -0.4514  0.9691 -0.3423
18365TIP3    H276587   2.058   2.392   0.800  0.6340 -1.0627  1.4236
18366TIP3   OH276588   4.067   3.429  11.427 -0.0348  0.0762 -0.1052
18366TIP3    H176589   4.043   3.518  11.451  0.6585 -0.4022  2.7419
18366TIP3    H276590   4.162   3.429  11.424 -0.0048 -0.6899  0.5175
18367TIP3   OH276591   4.587   1.733   2.497 -0.5536 -0.1070 -0.3369
18367TIP3    H176592   4.517   1.793   2.524 -1.4076 -0.1081 -2.4043
18367TIP3    H276593   4.628   1.707   2.580 -1.7951  1.3271  0.8040
18368TIP3   OH276594   0.345   4.225  13.657  0.0219  0.2393 -0.2320
18368TIP3    H176595   0.373   4.240  13.566  1.3160 -0.4371  0.0373
18368TIP3    H276596   0.300   4.141  13.655 -0.9522  0.7484 -0.4350
18369TIP3   OH276597   0.492   2.590   3.837  0.8375 -0.0265 -0.5904
18369TIP3    H176598   0.483   2.652   3.908 -0.3460 -0.1506 -0.6155
18369TIP3    H276599   0.463   2.637   3.759  2.6562  0.2930 -1.1182
18370TIP3   OH276600   0.732   2.663   0.407 -0.3720  0.0398  0.0454
18370TIP3    H176601   0.723   2.745   0.359 -0.7076  1.1352  1.8662
18370TIP3    H276602   0.823   2.636   0.393 -1.1803 -1.2924 -3.5335
18371TIP3   OH276603   6.791   4.689   3.698  0.1753 -0.5954  0.3188
18371TIP3    H176604   6.783   4.664   3.790  1.9687 -1.3626  0.3225
18371TIP3    H276605   6.711   4.737   3.678 -0.5063 -0.9255  2.1122
18372TIP3   OH276606   2.758   3.572   4.625 -0.3684  0.5333 -0.2347
18372TIP3    H176607   2.722   3.491   4.588 -0.0411 -0.7470  2.1089
18372TIP3    H276608   2.681   3.620   4.656 -0.5644  1.1806 -1.6467
18373TIP3   OH276609   4.832   5.258   0.743 -0.2114  0.3755  0.0995
18373TIP3    H176610   4.805   5.168   0.724 -0.5487  0.2718  1.0257
18373TIP3    H276611   4.875   5.252   0.828 -2.8388  1.5407  1.6258
18374TIP3   OH276612   3.041   4.688   2.079 -0.4393  0.5492  0.2898
18374TIP3    H176613   3.034   4.681   2.175  0.2003  1.1681  0.3871
18374TIP3    H276614   3.036   4.597   2.048 -0.9634  0.3646  0.8803
18375TIP3   OH276615   4.407   0.620  12.030 -0.4426 -0.3345 -0.1662
18375TIP3    H176616   4.408   0.602  12.124 -0.7625  1.2134  0.1553
18375TIP3    H276617   4.335   0.681  12.017  0.1851  0.2191 -1.2699
18376TIP3   OH276618   0.275   4.813  15.171  0.4537 -0.0466  0.1362
18376TIP3    H176619   0.299   4.862  15.092 -0.4415 -0.4296 -0.3915
18376TIP3    H276620   0.207   4.752  15.141  0.2528 -0.3391  1.1628
18377TIP3   OH276621   1.095   1.387  11.418 -0.1393 -0.0600  0.1212
18377TIP3    H176622   1.026   1.348  11.471 -0.1055  1.1214  1.0840
18377TIP3    H276623   1.119   1.319  11.355 -0.4445 -1.3715  1.3762
18378TIP3   OH276624   0.463   2.282  16.900  0.1879 -0.0777 -0.2602
18378TIP3    H176625   0.537   2.223  16.909 -0.2486 -0.4177  1.5351
18378TIP3    H276626   0.438   2.276  16.808  2.5006  0.2276 -0.9771
18379TIP3   OH276627   4.884   4.892  16.688  0.0143  0.3233  0.7044
18379TIP3    H176628   4.927   4.812  16.718 -1.2349  0.0888  1.9939
18379TIP3    H276629   4.821   4.913  16.757 -0.7029  1.6197 -0.2862
18380TIP3   OH276630   2.648   5.807  14.895  0.1144  0.2074  0.8923
18380TIP3    H176631   2.695   5.816  14.812 -0.1006  0.3895  0.7882
18380TIP3    H276632   2.608   5.720  14.891 -0.5644  0.5300  0.4527
18381TIP3   OH276633   3.917   3.609   3.966  0.6084 -0.4620  0.3077
18381TIP3    H176634   3.823   3.621   3.977  0.9543  1.1675  2.1933
18381TIP3    H276635   3.935   3.637   3.877 -0.7006 -0.9265 -0.1209
18382TIP3   OH276636   0.710   2.089  10.443 -0.0730  0.1487  0.0044
18382TIP3    H176637   0.800   2.054  10.440 -1.0118 -2.4440 -0.8491
18382TIP3    H276638   0.660   2.030  10.386 -2.3636  1.4325  0.5899
18383TIP3   OH276639   0.084   5.611  10.814 -0.5961  0.0412  0.3618
18383TIP3    H176640   0.044   5.534  10.852 -0.6806 -0.2853 -0.3732
18383TIP3    H276641   0.152   5.577  10.755 -0.0932  0.5453  0.6316
18384TIP3   OH276642   0.253   3.507  16.664 -0.7039  0.4817  0.0583
18384TIP3    H176643   0.291   3.478  16.747  0.8708 -0.5174 -0.9611
18384TIP3    H276644   0.191   3.576  16.689  0.8550  1.2994  1.9314
18385TIP3   OH276645   1.327   1.400   2.940 -0.0958  0.1651  0.2113
18385TIP3    H176646   1.286   1.485   2.927  0.7781  0.9471  2.1447
18385TIP3    H276647   1.299   1.374   3.028  0.1715 -1.2446 -0.1036
18386TIP3   OH276648   1.274   3.888   5.431  0.0742  1.0589  0.0691
18386TIP3    H176649   1.339   3.826   5.399 -1.7658 -1.1299  0.3137
18386TIP3    H276650   1.313   3.926   5.510  1.7635  1.2413 -0.8022
18387TIP3   OH276651   4.577   3.496  10.618  0.1036  0.3048 -0.3803
18387TIP3    H176652   4.522   3.478  10.695 -0.1421 -1.5592 -0.9279
18387TIP3    H276653   4.591   3.590  10.620  0.8595  0.2440  2.4770
18388TIP3   OH276654   0.699   1.076   6.537  0.0185 -0.0472  0.2891
18388TIP3    H176655   0.621   1.106   6.585 -0.1175 -2.0868  1.5004
18388TIP3    H276656   0.669   0.997   6.491  1.4223 -1.0866  1.0884
18389TIP3   OH276657   3.875   3.397  13.253 -0.3199  0.0876  0.5092
18389TIP3    H176658   3.957   3.445  13.243  0.4739 -0.9735  1.5462
18389TIP3    H276659   3.824   3.419  13.175  1.3929 -0.0554 -0.7041
18390TIP3   OH276660   4.943   4.094  16.768  0.2301  0.5215  0.1257
18390TIP3    H176661   4.963   4.134  16.684  1.1910  0.2176  0.1980
18390TIP3    H276662   5.024   4.100  16.818  0.5767 -1.8426 -0.0161
18391TIP3   OH276663   3.845   2.872  11.389 -0.3323 -0.3189 -0.5110
18391TIP3    H176664   3.922   2.866  11.333  0.0141 -3.5156  0.1275
18391TIP3    H276665   3.875   2.843  11.475 -1.2647  2.7928  1.0421
18392TIP3   OH276666   0.872   5.794  15.698 -0.3130 -0.0180 -0.5018
18392TIP3    H176667   0.941   5.764  15.758  0.7901  1.7198 -0.8133
18392TIP3    H276668   0.819   5.853  15.752 -0.8649 -0.4524 -0.5692
18393TIP3   OH276669   4.766   5.651  10.407  0.2521  0.4576  0.0309
18393TIP3    H176670   4.839   5.698  10.449 -0.7279  1.3414  0.8106
18393TIP3    H276671   4.794   5.560  10.406  0.4153  0.4078  2.5321
18394TIP3   OH276672   3.760   1.115  14.289  0.1832 -0.1914 -0.3041
18394TIP3    H176673   3.835   1.110  14.230 -0.8361  0.4139 -1.7058
18394TIP3    H276674   3.782   1.056  14.362  2.9025  1.5607  0.4065
18395TIP3   OH276675   1.499   5.050   1.244 -0.2333 -0.2627 -0.1151
18395TIP3    H176676   1.511   5.058   1.339 -0.5020 -0.8877 -0.0227
18395TIP3    H276677   1.405   5.064   1.231 -0.3450 -1.0580 -0.1881
18396TIP3   OH276678   0.297   1.999  11.948 -0.1691  0.0325 -0.4447
18396TIP3    H176679   0.304   2.000  11.852  0.3765 -0.3882 -0.4141
18396TIP3    H276680   0.225   1.938  11.966  0.4414 -0.7326 -0.5575
18397TIP3   OH276681   0.882   1.479   4.913  0.3815 -0.2728 -0.4057
18397TIP3    H176682   0.804   1.424   4.912 -0.1562  0.4525  0.2119
18397TIP3    H276683   0.897   1.497   5.006  0.0988  1.2354 -0.6336
18398TIP3   OH276684   6.165   3.519   1.491  0.6272 -0.0474  0.1027
18398TIP3    H176685   6.251   3.523   1.450 -0.7669  1.3723 -2.9387
18398TIP3    H276686   6.179   3.463   1.568  4.1727 -0.0358 -0.3361
18399TIP3   OH276687   3.596   5.805   4.075  0.2682 -0.2662 -0.2725
18399TIP3    H176688   3.617   5.813   4.168  0.6045 -0.2855 -0.3448
18399TIP3    H276689   3.680   5.819   4.030 -0.0796  0.8066 -0.6233
18400TIP3   OH276690   3.398   2.654  11.281 -0.1664  0.0433 -0.3133
18400TIP3    H176691   3.306   2.671  11.261 -0.0647  0.9310 -0.0857
18400TIP3    H276692   3.425   2.588  11.218 -1.2036 -0.9002  0.1970
18401TIP3   OH276693   6.170   4.629  14.073  0.2744 -0.3998  0.6078
18401TIP3    H176694   6.185   4.719  14.102  1.0782  0.0806 -1.1837
18401TIP3    H276695   6.170   4.578  14.154 -0.0907  1.1761  1.6553
18402TIP3   OH276696   6.246   5.772   2.779  0.3171  0.7296 -0.5137
18402TIP3    H176697   6.279   5.683   2.771  0.7494  0.8162  0.3186
18402TIP3    H276698   6.300   5.823   2.719  1.9731  0.9365  1.0898
18403TIP3   OH276699   4.523   6.762   2.068 -0.3526 -0.4553  0.6637
18403TIP3    H176700   4.457   6.826   2.041 -0.8979 -0.9632  0.7851
18403TIP3    H276701   4.586   6.761   1.995  0.4613  1.2766  1.2761
18404TIP3   OH276702   1.708   5.638  13.545 -0.2587  0.1337 -0.3905
18404TIP3    H176703   1.614   5.657  13.541 -0.2069  0.9917  1.2682
18404TIP3    H276704   1.741   5.659  13.458 -1.7313 -1.0191 -1.2713
18405TIP3   OH276705   2.907   3.878   2.230 -0.2546 -0.4838  0.2228
18405TIP3    H176706   2.911   3.831   2.146 -2.0081  0.9940 -0.7656
18405TIP3    H276707   2.950   3.962   2.211 -0.2537 -0.3192  0.9443
18406TIP3   OH276708   0.236   5.492  12.431  0.5907  0.3846  0.2964
18406TIP3    H176709   0.315   5.466  12.384  0.6030 -0.1933  0.6245
18406TIP3    H276710   0.168   5.432  12.400  0.4920  0.2959  0.6742
18407TIP3   OH276711   1.333   0.813  15.416 -0.4493  0.0304  0.7857
18407TIP3    H176712   1.285   0.730  15.419 -0.5429  0.1095  1.6415
18407TIP3    H276713   1.309   0.852  15.332 -1.1727 -0.3538  0.8109
18408TIP3   OH276714   2.712   2.850  13.875  0.8197  0.2649 -0.0948
18408TIP3    H176715   2.792   2.810  13.841  1.9302  1.7930  0.5976
18408TIP3    H276716   2.684   2.910  13.806 -0.0034 -0.5747 -0.5142
18409TIP3   OH276717   3.167   4.935   2.751 -0.0694  0.5281 -0.2935
18409TIP3    H176718   3.079   4.912   2.723 -0.4310  1.7532 -0.2591
18409TIP3    H276719   3.224   4.909   2.679 -0.5554  0.4385 -0.6461
18410TIP3   OH276720   3.559   0.540   3.001  0.6688  0.2683 -0.1504
18410TIP3    H176721   3.638   0.583   3.032  1.5032 -1.3974  0.1799
18410TIP3    H276722   3.560   0.554   2.906 -0.1145  2.5305  0.1248
18411TIP3   OH276723   4.936   3.591   5.499  0.1223 -0.2477 -0.5199
18411TIP3    H176724   4.871   3.626   5.560  1.8730  0.6095  0.9655
18411TIP3    H276725   4.888   3.577   5.418 -1.7455  1.0000  0.2971
18412TIP3   OH276726   0.587   1.717  16.667 -0.0279 -0.3783 -0.2431
18412TIP3    H176727   0.618   1.728  16.756 -4.1088 -0.2519  1.3952
18412TIP3    H276728   0.527   1.791  16.653 -1.3873 -1.7272 -2.1104
18413TIP3   OH276729   6.484   2.978  15.881  0.0745 -0.3719 -0.4673
18413TIP3    H176730   6.456   3.023  15.960  1.4154 -1.0222  0.4146
18413TIP3    H276731   6.525   2.897  15.911  0.8825 -0.4989 -1.7880
18414TIP3   OH276732   2.372   2.718  12.404  0.1748 -0.0620 -0.0764
18414TIP3    H176733   2.452   2.731  12.354 -0.7797 -0.8780 -1.9364
18414TIP3    H276734   2.303   2.752  12.347 -0.9437 -0.8731  0.7621
18415TIP3   OH276735   3.253   2.376  12.843  0.4242  0.3062 -0.1705
18415TIP3    H176736   3.203   2.373  12.762  0.2647  2.2357 -0.1833
18415TIP3    H276737   3.224   2.455  12.887  1.5725  0.0789  1.0844
18416TIP3   OH276738   0.579   3.013   4.634  0.4385 -0.0986 -0.3729
18416TIP3    H176739   0.560   2.934   4.583  0.4791 -0.5340  0.2705
18416TIP3    H276740   0.573   2.984   4.725  3.0094  0.0118 -0.1018
18417TIP3   OH276741   3.185   6.410  12.682  0.1644  0.1425 -0.1232
18417TIP3    H176742   3.214   6.501  12.683  2.2337 -0.4543  1.0638
18417TIP3    H276743   3.174   6.388  12.590 -0.7709  1.6696 -0.4112
18418TIP3   OH276744   3.560   1.146  11.181  0.0870  0.2511  0.2991
18418TIP3    H176745   3.587   1.057  11.162 -0.0190  0.5027 -1.2115
18418TIP3    H276746   3.527   1.179  11.097 -0.3719  1.5280  0.9511
18419TIP3   OH276747   6.529   2.879  11.553 -0.6484  0.8664  0.3859
18419TIP3    H176748   6.599   2.827  11.514 -0.7595  0.1077  1.1734
18419TIP3    H276749   6.572   2.958  11.585 -0.4210  1.1170 -0.5072
18420TIP3   OH276750   3.394   5.254  11.215  0.4061  0.2056  0.1311
18420TIP3    H176751   3.384   5.173  11.266 -0.2309 -0.7057 -1.3582
18420TIP3    H276752   3.380   5.227  11.124 -0.2553  2.0747 -0.3739
18421TIP3   OH276753   3.794   1.247  13.258 -0.2559 -0.1871 -0.4491
18421TIP3    H176754   3.844   1.231  13.179 -0.3861  1.2378 -0.8378
18421TIP3    H276755   3.853   1.295  13.316 -0.7798  0.4657 -0.4451
18422TIP3   OH276756   5.057   1.105  13.071  0.6146  0.2229  0.0935
18422TIP3    H176757   5.110   1.123  12.993 -0.1995  1.6017 -0.1677
18422TIP3    H276758   5.102   1.152  13.142  0.7918 -0.1911  0.2584
18423TIP3   OH276759   3.896   5.745  13.027  0.0355  0.3224 -0.3993
18423TIP3    H176760   3.839   5.819  13.008 -0.0962  0.9075  1.9177
18423TIP3    H276761   3.935   5.722  12.943 -0.6933  2.3671 -1.3654
18424TIP3   OH276762   3.336   5.821   5.114  0.1117 -0.0687  0.4742
18424TIP3    H176763   3.352   5.862   5.029  2.6516 -0.8316  0.5002
18424TIP3    H276764   3.283   5.885   5.161 -1.3801  0.3636 -1.6331
18425TIP3   OH276765   2.894   0.344  13.920 -0.0746  0.2526  0.1147
18425TIP3    H176766   2.970   0.399  13.901  1.6878 -2.3956 -1.0515
18425TIP3    H276767   2.829   0.370  13.854  0.2075  1.7554  0.3926
18426TIP3   OH276768   3.759   2.714  12.717  0.4880  0.2738  0.0571
18426TIP3    H176769   3.854   2.722  12.731  0.4316  1.2262 -0.0218
18426TIP3    H276770   3.749   2.724  12.622  0.3939 -0.8703 -0.0628
18427TIP3   OH276771   1.950   6.790   3.957 -0.0209 -0.0511  0.1440
18427TIP3    H176772   2.001   6.828   4.029  0.1985  0.2977 -0.1842
18427TIP3    H276773   1.859   6.800   3.984 -0.1304  2.8738 -0.8942
18428TIP3   OH276774   3.464   0.907  14.401 -0.1496 -0.1085  0.1461
18428TIP3    H176775   3.555   0.915  14.429 -0.2366  0.0456  0.3855
18428TIP3    H276776   3.420   0.864  14.474 -0.0102 -1.3863 -0.4877
18429TIP3   OH276777   0.146   5.343  15.192  0.4996  0.9091  0.2110
18429TIP3    H176778   0.198   5.366  15.269  1.4631  1.5763 -0.6117
18429TIP3    H276779   0.193   5.268  15.154 -0.6160 -0.1692  0.8817
18430TIP3   OH276780   0.612   2.743  13.248 -0.0697  0.1324 -0.1274
18430TIP3    H176781   0.549   2.718  13.316  2.0957 -1.5521  1.4209
18430TIP3    H276782   0.582   2.697  13.169  0.4971 -2.7221  1.2032
18431TIP3   OH276783   5.525   0.696   4.594  0.4721 -0.0237 -0.0081
18431TIP3    H176784   5.483   0.628   4.543  0.9596  0.1170 -0.6060
18431TIP3    H276785   5.494   0.682   4.684 -0.4235 -0.2379 -0.3464
18432TIP3   OH276786   1.811   5.787  14.896  0.1133  0.3811  0.4669
18432TIP3    H176787   1.814   5.692  14.889 -0.3589  0.3950  0.0173
18432TIP3    H276788   1.903   5.815  14.888  0.2520 -0.0309  0.6025
18433TIP3   OH276789   3.813   6.793   5.597 -1.0968  0.5662 -0.4702
18433TIP3    H176790   3.727   6.769   5.631 -1.3489 -0.0558 -1.5078
18433TIP3    H276791   3.834   6.725   5.533  0.7194  0.0363  0.6350
18434TIP3   OH276792   3.930   0.755  11.785  0.4612 -0.1252 -0.1743
18434TIP3    H176793   3.988   0.682  11.763  0.8760 -0.1441  0.9248
18434TIP3    H276794   3.878   0.768  11.705  1.4251 -0.6166 -0.9160
18435TIP3   OH276795   2.872   0.676  15.412 -0.6914 -0.0987 -0.4221
18435TIP3    H176796   2.778   0.672  15.397 -0.7520  1.9424 -0.8669
18435TIP3    H276797   2.892   0.769  15.417  1.3124 -0.4809 -0.2940
18436TIP3   OH276798   6.157   6.779  16.494 -0.0312 -0.0438 -0.2977
18436TIP3    H176799   6.113   6.719  16.554 -0.8444  0.2736 -0.5584
18436TIP3    H276800   6.232   6.730  16.460 -0.9268 -1.0753 -0.8519
18437TIP3   OH276801   6.202   3.542   4.118 -0.2526 -0.0088 -0.5888
18437TIP3    H176802   6.217   3.632   4.148 -0.0944 -0.4457  0.6985
18437TIP3    H276803   6.290   3.509   4.099 -0.3765  0.3651 -1.8765
18438TIP3   OH276804   2.144   3.545   3.017  0.2932 -0.0121 -0.0233
18438TIP3    H176805   2.199   3.477   2.979  1.0908  0.1857  0.7497
18438TIP3    H276806   2.088   3.499   3.079  0.4907 -0.0313  0.1398
18439TIP3   OH276807   5.124   2.076   5.471 -0.0004  0.0266 -0.2885
18439TIP3    H176808   5.209   2.116   5.490  0.6463 -2.3867  2.6521
18439TIP3    H276809   5.060   2.145   5.490  1.1731  0.6721  1.5507
18440TIP3   OH276810   6.260   1.190  16.324  0.6385 -0.4492 -0.1588
18440TIP3    H176811   6.351   1.160  16.328  0.3899 -1.4465 -1.4662
18440TIP3    H276812   6.261   1.262  16.261  0.4111 -0.9609 -0.7600
18441TIP3   OH276813   6.652   4.091   3.158 -0.2274 -0.4601 -0.1412
18441TIP3    H176814   6.700   4.103   3.077 -0.3371 -0.2509 -0.1753
18441TIP3    H276815   6.560   4.099   3.132 -0.2818 -0.8466 -0.0762
18442TIP3   OH276816   6.543   2.766   1.455  0.7092  0.2312 -0.2820
18442TIP3    H176817   6.561   2.857   1.430 -2.3658  1.0000 -0.1473
18442TIP3    H276818   6.589   2.754   1.538  2.1651  1.2127 -0.9004
18443TIP3   OH276819   6.033   4.733  10.971  0.0772 -0.4500  0.8889
18443TIP3    H176820   6.071   4.655  11.011  0.4359 -1.3218 -0.9999
18443TIP3    H276821   6.097   4.759  10.905  0.2378  1.8414  1.8879
18444TIP3   OH276822   3.945   4.763   5.138 -0.5162  0.6061  0.0113
18444TIP3    H176823   3.971   4.674   5.115  0.3958  0.7784  0.3448
18444TIP3    H276824   3.859   4.774   5.096 -0.5979 -0.3881 -0.1145
18445TIP3   OH276825   4.574   5.619   1.097  0.2054 -0.5102 -0.6798
18445TIP3    H176826   4.554   5.665   1.015 -1.2732 -1.4978 -0.9083
18445TIP3    H276827   4.607   5.534   1.069 -2.0350 -1.5650 -0.2991
18446TIP3   OH276828   6.133   1.077  13.589 -0.0993 -0.1761 -0.1165
18446TIP3    H176829   6.075   1.080  13.665 -1.2365  0.6111 -0.9982
18446TIP3    H276830   6.126   0.987  13.556 -0.7054 -0.1207 -0.1371
18447TIP3   OH276831   1.853   5.884  12.804  0.3382 -0.1213 -0.3656
18447TIP3    H176832   1.805   5.890  12.721 -0.5379 -2.2921 -0.0843
18447TIP3    H276833   1.824   5.960  12.854  0.6353  1.0495 -1.8987
18448TIP3   OH276834   0.963   6.606  13.545  0.2919 -0.5941  0.3640
18448TIP3    H176835   1.047   6.576  13.510  0.5995  1.2471 -0.5997
18448TIP3    H276836   0.960   6.699  13.523 -0.7032  0.0663  2.9492
18449TIP3   OH276837   1.819   6.089   5.599 -0.1751 -0.0009 -0.3368
18449TIP3    H176838   1.768   6.165   5.627 -0.1514  0.4644 -1.5069
18449TIP3    H276839   1.868   6.119   5.522  0.7557 -0.8601 -0.0988
18450TIP3   OH276840   1.921   2.479   0.581  0.0180  0.1970  0.5743
18450TIP3    H176841   1.865   2.523   0.517 -1.0715  0.3959  1.6255
18450TIP3    H276842   1.913   2.532   0.660  2.4660  0.7765  0.5044
18451TIP3   OH276843   0.354   0.185  11.603  0.1432 -0.2265 -0.6777
18451TIP3    H176844   0.340   0.170  11.696  2.3689  0.7027 -0.1481
18451TIP3    H276845   0.422   0.123  11.578  1.2653  1.1330 -1.1054
18452TIP3   OH276846   1.649   2.756   1.588  0.2455 -0.2147 -0.1591
18452TIP3    H176847   1.677   2.837   1.629  0.8358 -0.8974  0.8534
18452TIP3    H276848   1.703   2.747   1.510  0.6850  0.0186  0.1158
18453TIP3   OH276849   2.769   2.918   3.349  0.5227  0.0065  0.0555
18453TIP3    H176850   2.827   2.965   3.409 -0.9138  0.4989  1.1342
18453TIP3    H276851   2.746   2.838   3.396  2.0410 -1.2943 -1.2975
18454TIP3   OH276852   4.617   0.117   4.540 -0.5771  0.1594 -0.0115
18454TIP3    H176853   4.613   0.210   4.563  1.8292  0.3109  0.0255
18454TIP3    H276854   4.587   0.072   4.619  0.7066  0.8734  0.9363
18455TIP3   OH276855   2.919   5.010  14.514 -0.2891  0.1999 -0.5281
18455TIP3    H176856   2.897   5.028  14.423 -2.2635 -0.5241 -0.2371
18455TIP3    H276857   2.841   5.034  14.564  0.5728  0.1206  0.9358
18456TIP3   OH276858   0.685   4.621   6.204 -0.1287 -0.2997  0.2575
18456TIP3    H176859   0.645   4.549   6.253 -0.8824 -2.3001 -2.9581
18456TIP3    H276860   0.611   4.672   6.171  0.2078 -0.4131 -0.7196
18457TIP3   OH276861   3.274   4.116  11.205  0.0403  0.6156 -0.4843
18457TIP3    H176862   3.358   4.118  11.161  1.2415  2.3142  1.6818
18457TIP3    H276863   3.223   4.049  11.158  2.4600 -0.2536 -2.0256
18458TIP3   OH276864   4.664   2.800  10.735 -0.3503  0.5521 -0.1520
18458TIP3    H176865   4.599   2.755  10.680 -0.8840  0.3781  0.6033
18458TIP3    H276866   4.642   2.774  10.825  0.8897  0.3289  0.1132
18459TIP3   OH276867   5.029   3.750   1.616  0.0522  0.2207 -0.2698
18459TIP3    H176868   4.941   3.715   1.632  0.0172  1.0756  1.8156
18459TIP3    H276869   5.088   3.687   1.658  0.2199  0.8853  0.5313
18460TIP3   OH276870   3.257   5.245   1.680  0.4588 -0.3100  0.3464
18460TIP3    H176871   3.233   5.161   1.642  0.5826  0.2794 -1.0895
18460TIP3    H276872   3.238   5.236   1.773 -1.3432 -1.2693 -0.0830
18461TIP3   OH276873   5.132   4.428   5.106  0.0878  0.1703 -0.2516
18461TIP3    H176874   5.076   4.499   5.137 -1.9068 -0.4379 -2.1828
18461TIP3    H276875   5.134   4.366   5.179 -1.6299  0.3169 -0.0411
18462TIP3   OH276876   0.575   4.563   5.400 -0.4739  0.8248 -0.0456
18462TIP3    H176877   0.627   4.638   5.374 -1.3741  2.4309  2.4069
18462TIP3    H276878   0.485   4.588   5.380 -0.7632  0.2792  0.5281
18463TIP3   OH276879   2.474   1.245   3.720  0.3252 -0.0925  0.0483
18463TIP3    H176880   2.463   1.156   3.688 -0.1591 -0.4629  1.1822
18463TIP3    H276881   2.489   1.235   3.814  0.8747  0.9894  0.0915
18464TIP3   OH276882   3.034   4.417   2.274 -0.0369  0.1267 -0.0853
18464TIP3    H176883   2.949   4.389   2.241  0.8309  0.6804 -3.1015
18464TIP3    H276884   3.075   4.337   2.306 -1.4816 -0.2080  1.0451
18465TIP3   OH276885   0.892   4.361  15.164 -0.0894  0.5700  0.8603
18465TIP3    H176886   0.904   4.314  15.246  2.1472 -0.0144  0.2708
18465TIP3    H276887   0.869   4.294  15.101 -0.8947  0.8849  0.8090
18466TIP3   OH276888   3.672   4.817  10.208 -0.3413  0.0566  0.3993
18466TIP3    H176889   3.715   4.889  10.255  0.0900  0.3942 -0.4844
18466TIP3    H276890   3.587   4.852  10.184 -0.1139  0.2927 -0.0694
18467TIP3   OH276891   0.041   2.409  13.190  0.1334 -0.2389  0.3059
18467TIP3    H176892   0.008   2.472  13.254  0.8275 -0.0352  0.4755
18467TIP3    H276893  -0.034   2.353  13.169 -0.7337  1.1474 -0.4588
18468TIP3   OH276894   1.691   4.462   3.380 -0.1403 -0.7777  0.3746
18468TIP3    H176895   1.768   4.510   3.348  0.2880  0.5502  3.0319
18468TIP3    H276896   1.715   4.370   3.373  0.8807 -0.4599 -0.6712
18469TIP3   OH276897   6.853   4.076   6.175  0.5389 -0.6314  0.3389
18469TIP3    H176898   6.820   4.055   6.088  0.9891 -0.3213  0.0872
18469TIP3    H276899   6.948   4.086   6.163  0.6473 -0.9048  0.9283
18470TIP3   OH276900   6.336   2.132   2.200  0.8055 -0.5017 -0.7045
18470TIP3    H176901   6.430   2.111   2.194  0.7783 -0.6535 -0.6092
18470TIP3    H276902   6.331   2.197   2.269  1.1776  1.5894 -2.5389
18471TIP3   OH276903   5.498   5.695   2.536  0.1101  0.7442 -0.0643
18471TIP3    H176904   5.577   5.642   2.549 -0.2675  0.3777  0.8475
18471TIP3    H276905   5.523   5.783   2.562 -0.4610  0.1468  2.9480
18472TIP3   OH276906   4.969   4.420  15.553 -0.2693  0.2000 -0.2846
18472TIP3    H176907   4.898   4.382  15.502  1.2853 -0.8665 -1.7882
18472TIP3    H276908   4.962   4.379  15.639 -2.2993  1.2141  0.1027
18473TIP3   OH276909   4.399   5.255   5.542  0.2057  0.1004  0.1219
18473TIP3    H176910   4.485   5.244   5.501  1.1413  1.2113  1.6560
18473TIP3    H276911   4.402   5.196   5.618 -0.4154  0.1050  0.1528
18474TIP3   OH276912   4.707   5.947  11.962  0.4773  0.6269  0.7462
18474TIP3    H176913   4.632   5.960  11.904  0.6110 -0.4359  0.3231
18474TIP3    H276914   4.687   6.002  12.038 -0.9117  0.0992  0.8064
18475TIP3   OH276915   4.485   5.871  11.615  0.3345 -0.0977  0.1881
18475TIP3    H176916   4.410   5.872  11.556 -0.5911  2.3816  1.2845
18475TIP3    H276917   4.447   5.864  11.702  1.3998  0.5702  0.7304
18476TIP3   OH276918   0.536   6.138   0.519 -0.5071 -0.1000  0.0576
18476TIP3    H176919   0.548   6.131   0.614  0.4395  0.4683 -0.0102
18476TIP3    H276920   0.504   6.228   0.506 -1.4318 -0.4421 -0.0937
18477TIP3   OH276921   2.358   4.281   4.786  0.1055 -0.2082  0.3455
18477TIP3    H176922   2.417   4.206   4.777  0.9701  0.4906  0.0886
18477TIP3    H276923   2.365   4.327   4.703  2.2808  2.0746  1.6816
18478TIP3   OH276924   6.040   3.410  13.653  0.4977 -0.5933  0.0564
18478TIP3    H176925   5.960   3.458  13.677  0.5082 -0.6094  0.1244
18478TIP3    H276926   6.041   3.335  13.712  0.0751 -1.1000 -0.5698
18479TIP3   OH276927   2.216   5.411  14.342  0.4315 -0.9389 -0.1594
18479TIP3    H176928   2.142   5.433  14.397  0.8662 -1.2609  0.5614
18479TIP3    H276929   2.279   5.370  14.401  1.7755  0.5853 -0.4421
18480TIP3   OH276930   5.927   1.000  11.638  0.7284  0.0371  0.3708
18480TIP3    H176931   5.943   0.908  11.616 -0.1645  0.1631 -0.9661
18480TIP3    H276932   5.939   1.005  11.733  1.6582 -1.2607  0.3461
18481TIP3   OH276933   1.549   0.584   5.252  0.1744 -0.1446 -0.0189
18481TIP3    H176934   1.461   0.579   5.214  0.7116 -0.5553 -1.2613
18481TIP3    H276935   1.548   0.666   5.302 -0.4211  0.7241 -1.3677
18482TIP3   OH276936   0.907   0.125  10.632 -0.1456  0.1498  0.1394
18482TIP3    H176937   0.826   0.176  10.632  0.2105  0.8572 -2.1759
18482TIP3    H276938   0.976   0.191  10.633  0.3237 -0.1526 -2.6994
18483TIP3   OH276939   5.632   2.161   0.494  0.2629  0.0147  0.0678
18483TIP3    H176940   5.699   2.157   0.563 -0.0959  1.3510  0.5337
18483TIP3    H276941   5.599   2.251   0.499 -0.1919 -0.0493 -1.4669
18484TIP3   OH276942   6.714   1.093  12.198 -0.0578 -0.2949 -0.6523
18484TIP3    H176943   6.763   1.161  12.244  0.9284 -1.2562 -0.2470
18484TIP3    H276944   6.780   1.032  12.167 -0.9908 -1.7559  0.1154
18485TIP3   OH276945   1.929   1.656   1.110 -0.6161  0.5657  0.5783
18485TIP3    H176946   1.983   1.597   1.162 -0.5454  0.7503  0.7159
18485TIP3    H276947   1.841   1.645   1.145 -0.8367 -0.3871 -0.2221
18486TIP3   OH276948   1.462   2.653  14.447  0.3846  0.3256  0.1392
18486TIP3    H176949   1.552   2.623  14.440  0.3519  0.0653  0.7501
18486TIP3    H276950   1.446   2.659  14.541 -0.3339  0.0668  0.0368
18487TIP3   OH276951   6.829   1.709  11.817  0.0003  0.2141 -0.5774
18487TIP3    H176952   6.838   1.646  11.888  1.0822  0.6473 -0.3099
18487TIP3    H276953   6.815   1.793  11.861 -0.4465  0.3213 -0.9078
18488TIP3   OH276954   0.662   0.551   0.768  0.4639 -0.2228  0.2868
18488TIP3    H176955   0.690   0.613   0.701 -1.7255 -0.0023 -0.5086
18488TIP3    H276956   0.619   0.481   0.719 -2.3004  0.5389  1.4427
18489TIP3   OH276957   2.944   5.502  14.549  0.3638  0.1082  0.1403
18489TIP3    H176958   3.023   5.541  14.587  0.3469 -0.2915  0.5916
18489TIP3    H276959   2.904   5.574  14.500  1.9592 -0.1577 -1.6539
18490TIP3   OH276960   0.011   6.246   1.951  0.2473  0.0579  0.7073
18490TIP3    H176961   0.102   6.231   1.923  0.1361  0.7508 -0.0610
18490TIP3    H276962   0.009   6.214   2.041  0.3167 -3.3577 -0.3431
18491TIP3   OH276963   5.152   2.800   0.243  0.6095 -0.4559  0.2308
18491TIP3    H176964   5.141   2.885   0.284  0.2656  0.8287 -2.3500
18491TIP3    H276965   5.148   2.738   0.316  1.0643  1.7009  2.2102
18492TIP3   OH276966   0.544   3.894   0.806  0.1821 -0.1961  0.0013
18492TIP3    H176967   0.575   3.944   0.882  0.4392  2.8697 -1.9434
18492TIP3    H276968   0.455   3.928   0.790  0.1167 -0.8123 -1.0514
18493TIP3   OH276969   0.288   3.948  16.432 -0.3577 -0.3240  0.7494
18493TIP3    H176970   0.202   3.933  16.471 -0.3334 -1.8338  0.3188
18493TIP3    H276971   0.283   4.035  16.393 -1.1773  0.2172  2.0221
18494TIP3   OH276972   3.980   0.101  15.859  0.6626 -0.2661 -0.2446
18494TIP3    H176973   3.992   0.132  15.769 -0.8739  1.3918  0.0663
18494TIP3    H276974   3.905   0.150  15.891 -0.1951 -2.4257  1.2489
18495TIP3   OH276975   0.404   3.517   0.978  0.1247  0.6286 -0.4692
18495TIP3    H176976   0.433   3.518   0.887  0.7023  0.7888 -0.2839
18495TIP3    H276977   0.333   3.452   0.979  2.1744 -1.7500 -0.4099
18496TIP3   OH276978   3.091   2.541   2.231 -0.0262  0.0680  0.0233
18496TIP3    H176979   3.150   2.589   2.290  1.2899 -0.1172 -1.0737
18496TIP3    H276980   3.079   2.599   2.156 -0.4091 -0.3226 -0.2247
18497TIP3   OH276981   4.249   3.699   6.276  0.2091  0.1419 -0.2184
18497TIP3    H176982   4.163   3.665   6.255  0.3705  0.5259 -1.6411
18497TIP3    H276983   4.249   3.788   6.241  0.3416  1.0782  1.9948
18498TIP3   OH276984   5.395   2.465   1.959  0.3993  0.2630 -0.0050
18498TIP3    H176985   5.474   2.491   2.006  1.2109  0.1545 -1.2523
18498TIP3    H276986   5.347   2.410   2.021  1.6555 -0.2734  0.5313
18499TIP3   OH276987   0.236   0.781   1.608  0.6098  0.4073  0.0146
18499TIP3    H176988   0.271   0.786   1.697  1.6598  0.5942 -0.3883
18499TIP3    H276989   0.181   0.858   1.599  2.7732  2.0137 -0.3930
18500TIP3   OH276990   1.267   6.246  12.858 -0.6495 -0.7278  0.0753
18500TIP3    H176991   1.285   6.233  12.951 -0.4053  1.5039  0.3961
18500TIP3    H276992   1.179   6.284  12.855  0.4660  2.0779 -0.2738
18501TIP3   OH276993   0.185   3.199  12.721  0.5580  0.1452  0.2346
18501TIP3    H176994   0.248   3.245  12.776  0.0227  1.1533  0.0355
18501TIP3    H276995   0.113   3.178  12.781  0.1884  0.8202  0.0455
18502TIP3   OH276996   5.007   4.659   5.181  0.8704  0.1699  0.7964
18502TIP3    H176997   4.952   4.666   5.259 -0.8280 -1.0835 -0.2090
18502TIP3    H276998   5.000   4.744   5.139 -0.4243  0.0013  0.6345
18503TIP3   OH276999   5.731   0.593  11.433  0.1675 -0.5253 -0.0018
18503TIP3    H177000   5.762   0.568  11.346  1.4038 -2.4076  0.9030
18503TIP3    H277001   5.666   0.526  11.456 -0.2581  0.0324  0.4804
18504TIP3   OH277002   0.857   1.542   1.938  0.2684  0.1176 -0.2887
18504TIP3    H177003   0.908   1.617   1.968  0.1862  0.4346 -0.9230
18504TIP3    H277004   0.922   1.481   1.903  0.3149  0.0004  0.0038
18505TIP3   OH277005   3.647   4.076  13.197 -0.0333 -0.7681  0.2184
18505TIP3    H177006   3.652   4.013  13.269  2.3321 -2.3111 -1.1443
18505TIP3    H277007   3.738   4.085  13.167 -0.6464  1.4499 -1.2349
18506TIP3   OH277008   4.648   6.404   5.025 -0.5852  0.1572  0.2337
18506TIP3    H177009   4.580   6.465   5.054  1.3133  2.2611  0.5538
18506TIP3    H277010   4.724   6.426   5.079  0.7650 -1.1680 -1.0549
18507TIP3   OH277011   0.289   0.318  14.249  0.3360  0.6301 -0.0787
18507TIP3    H177012   0.309   0.283  14.162  1.8725 -1.5204  1.0313
18507TIP3    H277013   0.250   0.244  14.295  2.7067  0.6243  2.0780
18508TIP3   OH277014   1.420   4.816   6.522 -0.0768 -0.8950 -0.2953
18508TIP3    H177015   1.490   4.878   6.501 -0.3457 -0.7005 -0.6347
18508TIP3    H277016   1.369   4.859   6.590 -0.9663 -0.2037 -1.3601
18509TIP3   OH277017   2.948   5.751   5.080  0.8441 -0.4197 -0.3029
18509TIP3    H177018   2.983   5.694   5.148  1.1063  1.3199  1.0848
18509TIP3    H277019   3.006   5.738   5.005  3.5932  1.1238  1.3734
18510TIP3   OH277020   2.118   2.672   4.431  0.6129 -0.1701  0.0151
18510TIP3    H177021   2.160   2.682   4.345  2.3081  0.7156  0.8979
18510TIP3    H277022   2.069   2.590   4.424  0.4980  0.0100 -1.8712
18511TIP3   OH277023   3.276   4.266  13.645  0.7599 -0.0570  0.0826
18511TIP3    H177024   3.232   4.195  13.600  0.6333  0.5006 -0.6840
18511TIP3    H277025   3.205   4.323  13.675  0.8821 -0.0060  0.2761
18512TIP3   OH277026   4.527   4.541  14.963  0.3957 -0.4728 -0.0290
18512TIP3    H177027   4.543   4.464  14.909  0.1568 -1.8497  1.7274
18512TIP3    H277028   4.601   4.544  15.023 -0.1662 -0.0454  0.6702
18513TIP3   OH277029   1.627   3.487  14.967 -0.6485 -0.3546  0.4492
18513TIP3    H177030   1.661   3.456  14.883 -2.3815 -0.0953 -0.3781
18513TIP3    H277031   1.532   3.491  14.956 -0.8757  0.3542  2.2015
18514TIP3   OH277032   4.939   1.155   2.310 -0.2449  0.4272 -0.0920
18514TIP3    H177033   4.892   1.207   2.376  0.0340  0.2812  0.2235
18514TIP3    H277034   4.983   1.087   2.360 -0.2234  0.1706 -0.4568
18515TIP3   OH277035   2.050   5.798   1.281 -0.2981 -0.6396  0.0519
18515TIP3    H177036   2.127   5.742   1.277  0.5534  0.1912  2.7774
18515TIP3    H277037   1.981   5.742   1.318 -0.1092 -0.5595  0.5355
18516TIP3   OH277038   1.934   1.559  15.524 -0.2800 -0.0413  0.3601
18516TIP3    H177039   1.906   1.468  15.530  0.3561 -0.1653  1.9412
18516TIP3    H277040   1.906   1.598  15.607 -1.3734  1.4626 -0.6685
18517TIP3   OH277041   1.751   1.901  10.826  0.4785  0.0415  0.1615
18517TIP3    H177042   1.716   1.913  10.915 -0.6967  1.0854 -0.4012
18517TIP3    H277043   1.793   1.984  10.806 -0.0406  0.1306 -0.5802
18518TIP3   OH277044   0.435   6.848  14.658  0.6954 -0.0371 -0.3174
18518TIP3    H177045   0.424   6.755  14.643  0.4722 -0.4160  1.8731
18518TIP3    H277046   0.464   6.883  14.574  0.7152 -2.0524 -1.1921
18519TIP3   OH277047   0.259   4.338  10.370 -0.2672 -0.2603  0.0865
18519TIP3    H177048   0.235   4.386  10.450  2.8709 -0.2234  1.1596
18519TIP3    H277049   0.318   4.398  10.324  1.4720 -1.9433  0.0161
18520TIP3   OH277050   0.365   5.965   4.477 -0.2451  0.3830 -0.7529
18520TIP3    H177051   0.407   5.980   4.562  1.5178  1.8273 -1.8226
18520TIP3    H277052   0.404   5.884   4.445  0.1489  0.5862 -0.7934
18521TIP3   OH277053   0.335   2.835  15.384 -0.0569 -0.3742 -0.1882
18521TIP3    H177054   0.242   2.813  15.389 -0.2564  0.6151  1.0193
18521TIP3    H277055   0.354   2.838  15.290 -1.0421 -1.3126 -0.4435
18522TIP3   OH277056   5.133   3.787   5.452  0.3365  0.4980  0.0542
18522TIP3    H177057   5.080   3.710   5.468 -1.1126  1.9594  3.0614
18522TIP3    H277058   5.072   3.851   5.416  0.8681  1.0966  0.2048
18523TIP3   OH277059   2.759   4.732   0.335  0.2588 -0.4133  0.0525
18523TIP3    H177060   2.754   4.673   0.260  3.0164 -0.1476 -0.4301
18523TIP3    H277061   2.767   4.673   0.411  2.4154 -0.7537 -0.3728
18524TIP3   OH277062   0.061   6.555  16.979  0.5895 -0.4168  0.0523
18524TIP3    H177063  -0.010   6.599  16.933 -1.5694 -2.1097  1.5712
18524TIP3    H277064   0.086   6.483  16.920 -1.6056 -2.0845  1.0480
18525TIP3   OH277065   1.638   2.146   0.194 -0.4947  0.5296 -0.3019
18525TIP3    H177066   1.663   2.082   0.127  0.9940  1.5978 -0.8345
18525TIP3    H277067   1.568   2.104   0.243 -1.0908 -0.6020 -2.0389
18526TIP3   OH277068   1.232   6.401   1.131  0.3261  0.1830  0.7408
18526TIP3    H177069   1.244   6.337   1.061 -0.7134  0.2446  0.4775
18526TIP3    H277070   1.317   6.409   1.172  0.5670 -1.0623  0.5090
18527TIP3   OH277071   4.340   5.072  14.246  0.7355  0.5353 -0.1654
18527TIP3    H177072   4.276   5.072  14.317  0.2240 -0.9047 -0.5878
18527TIP3    H277073   4.294   5.113  14.172  1.2143  1.8856  0.2487
18528TIP3   OH277074   4.978   0.935   1.087 -0.2730 -0.4065 -1.1674
18528TIP3    H177075   5.015   0.945   1.174 -1.8670 -1.6002 -0.3069
18528TIP3    H277076   5.033   0.868   1.045  0.6481  0.3478 -1.2223
18529TIP3   OH277077   5.725   0.135   5.979  0.5772  0.4568  0.3009
18529TIP3    H177078   5.668   0.210   5.996 -0.5388 -0.5484  1.1881
18529TIP3    H277079   5.711   0.077   6.054 -1.1642 -2.1844 -1.8671
18530TIP3   OH277080   0.727   0.433   1.048 -0.4683  0.2925  0.0544
18530TIP3    H177081   0.711   0.494   1.120 -0.0232  0.3773  0.0800
18530TIP3    H277082   0.740   0.348   1.090  2.3925  0.7569  0.3090
18531TIP3   OH277083   4.749   0.882  14.537 -0.0635  0.0603 -0.2407
18531TIP3    H177084   4.841   0.857  14.551  0.0318  0.6411  0.2200
18531TIP3    H277085   4.738   0.882  14.442  0.1502 -0.9271 -0.2813
18532TIP3   OH277086   6.113   6.750  12.831  0.3008 -0.3829  0.2481
18532TIP3    H177087   6.037   6.758  12.889  1.2418  0.1758  1.4375
18532TIP3    H277088   6.089   6.680  12.770 -1.0354 -0.4435  0.8055
18533TIP3   OH277089   1.967   3.472  16.553  0.7628  0.2721 -0.2474
18533TIP3    H177090   2.001   3.530  16.485 -0.1310  3.9874  2.2147
18533TIP3    H277091   1.872   3.473  16.540  0.5555  1.2401  1.1019
18534TIP3   OH277092   3.075   5.348   2.274  0.0458  0.2843  0.1253
18534TIP3    H177093   3.009   5.412   2.248 -0.3953 -0.2846 -0.1849
18534TIP3    H277094   3.045   5.317   2.360  0.2271  0.4530  0.2491
18535TIP3   OH277095   4.754   6.277   2.641  0.4712  0.0693  0.5194
18535TIP3    H177096   4.807   6.356   2.633 -1.7062  1.5282 -0.5556
18535TIP3    H277097   4.755   6.238   2.554 -1.8451  1.3180 -0.1527
18536TIP3   OH277098   4.026   2.421  17.052 -0.3993 -0.4728 -0.1676
18536TIP3    H177099   3.997   2.349  17.107  1.4525 -0.4566  0.9210
18536TIP3    H277100   4.096   2.463  17.103 -0.8305  1.5615 -1.1360
18537TIP3   OH277101   3.377   3.951  16.240 -0.6126  0.4214 -0.6450
18537TIP3    H177102   3.326   3.967  16.319 -1.1092 -1.6265 -0.5088
18537TIP3    H277103   3.312   3.940  16.170 -0.1826  2.2060 -1.3912
18538TIP3   OH277104   4.256   3.685  15.356 -0.3554  0.6850  0.4614
18538TIP3    H177105   4.193   3.660  15.424  0.5643 -0.0878  1.0521
18538TIP3    H277106   4.330   3.722  15.404  0.3981 -0.0763 -0.0965
18539TIP3   OH277107   0.345   6.288  11.959 -0.2451  0.5760 -0.5718
18539TIP3    H177108   0.368   6.317  12.047 -0.3045 -0.2357 -0.2821
18539TIP3    H277109   0.283   6.217  11.972  0.2356  0.0138 -1.2424
18540TIP3   OH277110   2.925   4.211  11.263  0.2255  0.2129  0.0431
18540TIP3    H177111   3.019   4.212  11.284  0.2696 -1.1644  0.0250
18540TIP3    H277112   2.909   4.295  11.221  1.1871  0.9845  1.1343
18541TIP3   OH277113   0.160   3.542   1.246 -0.2646  0.8654  0.3025
18541TIP3    H177114   0.089   3.481   1.225  0.6779 -0.3442  0.4368
18541TIP3    H277115   0.125   3.628   1.226 -2.5710  0.5569  2.4945
18542TIP3   OH277116   0.791   1.201  12.737  0.1726 -0.0927 -0.1816
18542TIP3    H177117   0.766   1.265  12.804  2.8188 -0.2821  1.1186
18542TIP3    H277118   0.765   1.117  12.773  1.7194 -0.2093  0.7718
18543TIP3   OH277119   2.133   2.478  13.076 -0.0498  0.2367 -0.1903
18543TIP3    H177120   2.111   2.465  12.984  2.9393  0.7438 -1.1137
18543TIP3    H277121   2.184   2.400  13.099 -0.2032  0.4303  0.8187
18544TIP3   OH277122   3.027   4.305   0.924 -0.0664 -0.3383  0.3327
18544TIP3    H177123   3.108   4.254   0.936 -0.5158 -0.8027  1.5764
18544TIP3    H277124   3.009   4.341   1.011 -1.0227  0.0290 -0.0106
18545TIP3   OH277125   4.493   1.115  14.423  0.0238 -0.1765  0.0171
18545TIP3    H177126   4.424   1.049  14.415 -0.7137  0.7040 -1.2697
18545TIP3    H277127   4.572   1.070  14.393  0.2932 -1.5250  2.5028
18546TIP3   OH277128   3.205   6.569   0.081  0.0884 -0.3079 -0.0199
18546TIP3    H177129   3.204   6.495   0.141 -0.1651  0.8832  1.4967
18546TIP3    H277130   3.273   6.627   0.115  1.4235 -0.5229 -2.1090
18547TIP3   OH277131   5.515   1.648   2.868 -0.0899  0.5969  0.2875
18547TIP3    H177132   5.526   1.741   2.847  1.7102  0.5634  0.9245
18547TIP3    H277133   5.520   1.644   2.964 -0.3314 -0.1359  0.2773
18548TIP3   OH277134   3.774   1.093   5.995 -0.3545 -0.0549 -0.0142
18548TIP3    H177135   3.730   1.142   6.064  1.1076  3.0064 -1.0781
18548TIP3    H277136   3.862   1.077   6.028 -0.5135 -1.1561 -0.0819
18549TIP3   OH277137   0.390   6.690   0.676  0.0336 -0.6839 -0.4085
18549TIP3    H177138   0.455   6.713   0.609 -2.5658  2.8109 -2.0720
18549TIP3    H277139   0.419   6.737   0.754 -0.9567  1.8826 -1.4818
18550TIP3   OH277140   4.284   2.810  16.740 -0.8211 -0.8752  0.0081
18550TIP3    H177141   4.220   2.782  16.806 -1.6363  0.7965 -0.0377
18550TIP3    H277142   4.236   2.870  16.683  0.1483 -1.4837 -1.5255
18551TIP3   OH277143   0.060   0.048  11.617  0.4896 -0.1146 -0.4285
18551TIP3    H177144   0.009   0.074  11.694  1.4948 -1.2174  0.6533
18551TIP3    H277145  -0.001  -0.005  11.565 -0.1163  0.3901 -0.2467
18552TIP3   OH277146   2.918   0.320   4.009 -0.5521 -0.1800  0.0791
18552TIP3    H177147   2.889   0.258   4.075 -0.7235  1.1748  1.3225
18552TIP3    H277148   3.013   0.325   4.020 -0.6783  0.7325  0.8798
18553TIP3   OH277149   5.756   1.605   2.390  0.4897 -0.5555 -0.0352
18553TIP3    H177150   5.784   1.515   2.402  1.3721 -0.3017 -0.0537
18553TIP3    H277151   5.837   1.652   2.367 -0.1551  0.0089 -1.2710
18554TIP3   OH277152   4.690   4.584  14.294 -0.1620  0.0484 -0.6286
18554TIP3    H177153   4.778   4.604  14.262 -0.5120 -0.3805 -1.9265
18554TIP3    H277154   4.640   4.664  14.279  0.1054  0.4589  0.5626
18555TIP3   OH277155   5.414   0.541  15.935 -0.1773  0.1238  0.0761
18555TIP3    H177156   5.381   0.549  16.025  1.1069  0.1720  0.5744
18555TIP3    H277157   5.487   0.603  15.931  0.8339 -1.0540 -0.4772
18556TIP3   OH277158   6.378   6.828  14.708 -0.6363 -0.4871 -0.2284
18556TIP3    H177159   6.424   6.899  14.752 -0.2887 -1.9107  1.8483
18556TIP3    H277160   6.285   6.845  14.725 -0.6350  0.0325 -0.6936
18557TIP3   OH277161   4.297   3.212   1.704  0.0321 -0.4238 -0.4336
18557TIP3    H177162   4.263   3.122   1.707  1.3449 -0.9254  1.8344
18557TIP3    H277163   4.357   3.217   1.778  1.2948  1.8415 -1.5239
18558TIP3   OH277164   5.326   5.171   2.245  0.2831  0.6860 -0.0136
18558TIP3    H177165   5.345   5.079   2.224 -1.0075  0.3465  0.2301
18558TIP3    H277166   5.372   5.221   2.177 -0.8442 -0.2420 -1.5314
18559TIP3   OH277167   0.690   3.198  12.031 -0.1297 -0.4623 -0.5464
18559TIP3    H177168   0.596   3.213  12.043 -0.1046 -0.1299 -0.7393
18559TIP3    H277169   0.716   3.261  11.963  0.3501 -0.1259 -0.0644
18560TIP3   OH277170   2.693   5.144   1.072  0.3241  0.5167 -0.0120
18560TIP3    H177171   2.723   5.235   1.071  0.3754  0.5305  0.9844
18560TIP3    H277172   2.770   5.093   1.047  0.6945  0.6695  0.7832
18561TIP3   OH277173   3.736   0.369  12.549 -0.3891  0.1355 -0.1401
18561TIP3    H177174   3.725   0.337  12.639 -1.1407  0.5853 -0.0583
18561TIP3    H277175   3.800   0.440  12.556  1.7073 -1.6535 -0.4071
18562TIP3   OH277176   3.620   1.903  16.488 -0.1262 -0.2939 -0.3469
18562TIP3    H177177   3.664   1.987  16.473 -0.2400  0.5322  3.0749
18562TIP3    H277178   3.527   1.925  16.489 -0.0997  0.0911  2.6023
18563TIP3   OH277179   1.000   1.110   1.937  0.0211 -0.1687  0.2739
18563TIP3    H177180   0.996   1.047   2.010 -1.7760 -1.3425 -0.7769
18563TIP3    H277181   1.034   1.059   1.864 -2.5173 -0.3274 -0.9024
18564TIP3   OH277182   1.769   5.700   0.176  0.4082  0.6152  0.2256
18564TIP3    H177183   1.734   5.765   0.115  1.5773  0.4642 -0.6314
18564TIP3    H277184   1.738   5.616   0.142  1.3917  0.4973 -0.4257
18565TIP3   OH277185   1.502   4.893   5.243 -0.0141  0.2330 -0.4236
18565TIP3    H177186   1.447   4.952   5.294 -0.9688 -0.4198 -0.6680
18565TIP3    H277187   1.467   4.900   5.154  1.5312  1.2464 -0.9818
18566TIP3   OH277188   1.808   4.900   0.909  0.7692  0.4573  0.6743
18566TIP3    H177189   1.838   4.834   0.973 -1.6763 -3.0408 -1.4260
18566TIP3    H277190   1.750   4.957   0.959 -0.6801 -1.8515  1.8040
18567TIP3   OH277191   3.496   2.618  14.931  0.3400 -0.3543  0.2121
18567TIP3    H177192   3.434   2.644  14.999  0.3224 -1.8293  0.7928
18567TIP3    H277193   3.532   2.535  14.962  0.6854 -0.8174 -1.3648
18568TIP3   OH277194   3.491   3.049   4.227  0.5490  0.1141  0.0315
18568TIP3    H177195   3.531   2.969   4.193 -0.1631  0.2730 -1.2585
18568TIP3    H277196   3.548   3.119   4.197  0.7604  0.1568  0.5172
18569TIP3   OH277197   1.512   4.988   0.201  0.2863  0.3499 -0.1734
18569TIP3    H177198   1.550   4.900   0.194 -2.3168 -0.8744 -0.4026
18569TIP3    H277199   1.497   5.000   0.295 -0.6473 -0.1026 -0.2495
18570TIP3   OH277200   3.760   2.160   4.799 -0.0494 -0.2826  0.4128
18570TIP3    H177201   3.818   2.113   4.860 -0.7688  0.9297  2.1092
18570TIP3    H277202   3.676   2.162   4.844 -0.7327  0.2786 -0.8505
18571TIP3   OH277203   5.108   5.043   2.443 -0.2804 -0.1423 -0.1285
18571TIP3    H177204   5.049   5.117   2.429 -0.5390  0.0771  1.8113
18571TIP3    H277205   5.175   5.077   2.502  0.6585 -0.9590 -0.6903
18572TIP3   OH277206   2.298   3.610   4.585 -0.4344  0.5373 -0.1017
18572TIP3    H177207   2.366   3.604   4.518  0.2586 -1.4726  0.7339
18572TIP3    H277208   2.228   3.554   4.553 -0.8132  0.9078  0.0679
18573TIP3   OH277209   2.567   0.677   4.224 -0.0205 -0.2855 -0.5059
18573TIP3    H177210   2.600   0.591   4.199  0.6043  0.1340 -1.1747
18573TIP3    H277211   2.621   0.739   4.175  0.6408  0.5535  1.1765
18574TIP3   OH277212   2.643   3.857   0.193  0.2073 -0.1929 -0.1893
18574TIP3    H177213   2.630   3.947   0.223  0.3535 -0.2594  0.0818
18574TIP3    H277214   2.558   3.831   0.157 -0.9830 -1.1515  2.9221
18575TIP3   OH277215   3.889   4.290   4.853 -0.1256 -0.9328  0.0708
18575TIP3    H177216   3.948   4.226   4.892  2.9786  2.0749  0.7854
18575TIP3    H277217   3.926   4.308   4.766 -1.2132 -0.4170 -0.3124
18576TIP3   OH277218   6.512   2.841   5.720 -0.1067 -0.1314 -0.4663
18576TIP3    H177219   6.547   2.905   5.658 -1.1118  1.5638  0.6368
18576TIP3    H277220   6.455   2.785   5.668  1.2760 -0.5586 -1.5703
18577TIP3   OH277221   6.167   3.729  14.397  0.2260  0.3554  0.4726
18577TIP3    H177222   6.165   3.750  14.491  1.4574 -0.9179  0.8132
18577TIP3    H277223   6.259   3.741  14.372  0.4468 -1.8015  0.0648
18578TIP3   OH277224   5.514   2.681  13.166  0.5059 -0.4691 -0.0726
18578TIP3    H177225   5.506   2.639  13.080  1.7261 -0.7073 -0.0938
18578TIP3    H277226   5.475   2.618  13.227  1.8007 -1.4232 -0.1749
18579TIP3   OH277227   4.087   2.177   0.947 -0.4913 -0.1225 -0.1059
18579TIP3    H177228   4.091   2.160   1.041 -0.9482 -2.2558 -0.4211
18579TIP3    H277229   4.177   2.196   0.922 -0.3633  0.4402  0.7307
18580TIP3   OH277230   4.417   2.886   2.709  0.2842  0.4926 -0.3316
18580TIP3    H177231   4.339   2.938   2.688 -1.4930 -2.0980 -0.6035
18580TIP3    H277232   4.454   2.863   2.624  0.9432  1.0746 -0.2150
18581TIP3   OH277233   0.309   1.604   4.892  0.0232  1.0027  0.3739
18581TIP3    H177234   0.401   1.619   4.913 -0.2770  0.1164  2.5563
18581TIP3    H277235   0.261   1.653   4.959 -1.0448 -0.4225  0.7034
18582TIP3   OH277236   4.388   5.695   5.166  0.0220  0.1140  0.3429
18582TIP3    H177237   4.375   5.616   5.218  0.0827  1.2244  2.1271
18582TIP3    H277238   4.477   5.687   5.131  0.4445 -0.0872  1.4491
18583TIP3   OH277239   3.813   1.526   0.877  0.1501 -0.3294 -0.2029
18583TIP3    H177240   3.867   1.605   0.874 -0.7955  0.8009  4.5710
18583TIP3    H277241   3.874   1.455   0.894  0.5457  0.1994  0.6066
18584TIP3   OH277242   3.165   5.169  16.290  0.1649 -0.0816 -0.3607
18584TIP3    H177243   3.245   5.195  16.337 -0.2339 -2.5974  1.9879
18584TIP3    H277244   3.158   5.075  16.306 -3.4662  0.1005 -0.1325
18585TIP3   OH277245   3.595   6.097  13.587  0.3212 -0.2069  1.0210
18585TIP3    H177246   3.597   6.162  13.516  0.0193  0.8604  1.9710
18585TIP3    H277247   3.573   6.015  13.542  0.9498  0.2833 -0.2350
18586TIP3   OH277248   5.527   1.521  13.675 -0.2365  0.1475 -0.1255
18586TIP3    H177249   5.463   1.538  13.605  0.5433  0.7691 -0.7033
18586TIP3    H277250   5.477   1.476  13.743 -1.2727  0.5443 -0.6072
18587TIP3   OH277251   3.189   0.899   2.481  0.5232  0.1931  0.2940
18587TIP3    H177252   3.181   0.969   2.416 -0.4500  0.8654  1.1098
18587TIP3    H277253   3.256   0.929   2.541 -0.8761  1.1442  1.4597
18588TIP3   OH277254   3.286   2.274   2.029 -0.0415 -0.5367  0.0145
18588TIP3    H177255   3.267   2.267   1.936 -1.9143 -0.3358  0.3413
18588TIP3    H277256   3.352   2.207   2.045  0.1284 -0.7401 -1.4024
18589TIP3   OH277257   4.041   6.381   1.002  0.2235 -0.1751 -0.2334
18589TIP3    H177258   4.007   6.385   0.912 -2.9163  1.5385  0.8705
18589TIP3    H277259   4.082   6.466   1.015 -0.0291 -0.1131  0.1689
18590TIP3   OH277260   2.149   2.689  15.195  0.6084 -0.0221 -0.0560
18590TIP3    H177261   2.086   2.629  15.154  0.2683 -0.2044  0.7048
18590TIP3    H277262   2.234   2.645  15.185  0.6916  0.4266 -1.4640
18591TIP3   OH277263   6.076   6.030   4.281 -0.1624 -0.7258 -0.1651
18591TIP3    H177264   5.985   6.027   4.251 -0.0760 -1.5844 -0.3600
18591TIP3    H277265   6.127   6.045   4.202 -0.1722  0.4996  0.0411
18592TIP3   OH277266   4.518   4.344  11.307 -0.3036 -0.1714 -0.3541
18592TIP3    H177267   4.536   4.364  11.215  3.6954  0.0610  0.3204
18592TIP3    H277268   4.568   4.265  11.325  0.1041  0.5296  1.9254
18593TIP3   OH277269   2.431   3.759   5.015 -0.1978 -0.4759  0.3363
18593TIP3    H177270   2.349   3.752   4.966 -1.3347 -1.7437  2.2927
18593TIP3    H277271   2.438   3.852   5.038 -3.0903 -0.8204  3.2387
18594TIP3   OH277272   2.496   1.818  15.860 -0.1240 -0.3799  0.1286
18594TIP3    H177273   2.511   1.724  15.861 -1.2191 -0.6004 -1.2064
18594TIP3    H277274   2.409   1.828  15.821  0.6568  1.2572 -1.3220
18595TIP3   OH277275   1.924   5.257   5.390 -0.1332  1.0579  0.0419
18595TIP3    H177276   2.011   5.216   5.382  0.8100  3.1705 -1.7239
18595TIP3    H277277   1.925   5.300   5.475 -0.6813 -1.3789  1.3813
18596TIP3   OH277278   5.892   5.016  10.691  0.4143  0.4536  0.1734
18596TIP3    H177279   5.829   5.027  10.619  0.8655  0.5202 -0.2162
18596TIP3    H277280   5.890   4.922  10.709  2.3517 -0.0664 -1.8514
18597TIP3   OH277281   6.201   5.035   0.642 -0.3287 -0.3971 -0.0765
18597TIP3    H177282   6.172   4.992   0.561 -1.8150  0.3587  0.0212
18597TIP3    H277283   6.252   5.110   0.612 -0.1998 -0.5682 -0.2918
18598TIP3   OH277284   0.302   3.794   4.151 -0.1090  0.4504 -0.0631
18598TIP3    H177285   0.263   3.806   4.064  0.8781 -1.4253 -0.8124
18598TIP3    H277286   0.315   3.700   4.159  2.6292  0.8002  0.8389
18599TIP3   OH277287   6.053   6.494  12.468 -0.2453 -0.4409 -0.9565
18599TIP3    H177288   5.979   6.555  12.468  0.6268  0.6781  0.2229
18599TIP3    H277289   6.107   6.523  12.395 -0.2528 -0.3242 -0.9170
18600TIP3   OH277290   5.800   0.995   4.802  0.3334  0.1612 -0.2797
18600TIP3    H177291   5.746   0.979   4.880 -0.6323  1.5623 -0.6212
18600TIP3    H277292   5.865   0.925   4.803  0.8518  0.5678  2.2288
18601TIP3   OH277293   1.990   5.453  11.837  0.2237  0.3990 -0.1766
18601TIP3    H177294   1.926   5.395  11.879 -0.7450  0.5579 -1.3724
18601TIP3    H277295   1.956   5.541  11.853  1.0682  0.5880  0.6314
18602TIP3   OH277296   3.021   5.571   1.873  0.0010 -0.0337 -0.5569
18602TIP3    H177297   2.969   5.601   1.798  1.1766  0.9551 -1.0131
18602TIP3    H277298   3.030   5.648   1.929  1.6492  0.0706 -0.9014
18603TIP3   OH277299   6.733   5.480  14.699 -0.0260  0.6222 -0.2358
18603TIP3    H177300   6.731   5.395  14.744 -1.4530 -0.2767 -1.8546
18603TIP3    H277301   6.642   5.508  14.696  0.3205  1.7682 -0.5289
18604TIP3   OH277302   6.533   0.585   5.385  0.2951 -0.4092  0.0425
18604TIP3    H177303   6.478   0.509   5.367  0.7684 -0.6730 -0.3073
18604TIP3    H277304   6.486   0.633   5.453 -0.6613 -0.3226 -0.6583
18605TIP3   OH277305   3.248   0.524  14.119 -0.2320  0.3914 -0.2397
18605TIP3    H177306   3.278   0.485  14.037 -0.4789  0.4876 -0.3777
18605TIP3    H277307   3.252   0.453  14.183 -2.2277 -0.3207 -0.8351
18606TIP3   OH277308   6.433   0.699   5.643  0.4922 -0.0119  0.5023
18606TIP3    H177309   6.466   0.632   5.704 -0.0704  0.7981  1.7452
18606TIP3    H277310   6.470   0.781   5.676 -0.5479  0.5589  0.2862
18607TIP3   OH277311   6.425   1.727   4.636 -0.6560 -0.1140  0.8571
18607TIP3    H177312   6.441   1.652   4.694  0.2985 -1.7096 -1.3199
18607TIP3    H277313   6.509   1.741   4.592 -2.0392 -1.0030 -2.3273
18608TIP3   OH277314   0.800   2.913  13.330  0.1950 -0.4523  0.1635
18608TIP3    H177315   0.745   2.835  13.322  0.4991 -0.6723  0.2106
18608TIP3    H277316   0.868   2.900  13.264 -0.1981  0.1419 -0.3644
18609TIP3   OH277317   4.781   0.393  17.041 -0.4322 -0.0996 -0.0324
18609TIP3    H177318   4.708   0.449  17.014  0.8690  2.4535  1.3810
18609TIP3    H277319   4.845   0.402  16.971 -1.0533 -1.6311 -0.8437
18610TIP3   OH277320   6.182   4.347   5.714  0.1671  0.1275  0.0513
18610TIP3    H177321   6.133   4.423   5.681 -1.1777 -0.2723  1.0569
18610TIP3    H277322   6.115   4.286   5.745  1.2832 -0.0746  2.3069
18611TIP3   OH277323   2.033   4.152   2.809  0.1109  0.0528 -0.2928
18611TIP3    H177324   2.054   4.220   2.744 -0.6222  1.1282  0.5538
18611TIP3    H277325   1.946   4.122   2.785  0.2767 -0.3160 -0.4344
18612TIP3   OH277326   5.288   4.280   3.579 -0.6922 -0.6912 -0.4972
18612TIP3    H177327   5.343   4.331   3.638 -2.3612  1.5915 -0.7740
18612TIP3    H277328   5.344   4.209   3.548  1.1538 -0.1594  1.4239
18613TIP3   OH277329   2.572   5.979   6.767  0.9084  0.1090  0.0889
18613TIP3    H177330   2.523   6.025   6.698  2.6118  1.4754 -0.2599
18613TIP3    H277331   2.562   5.886   6.744 -1.6951  0.2753  0.1925
18614TIP3   OH277332   2.562   1.774  15.541 -0.0351  0.2968  0.3913
18614TIP3    H177333   2.643   1.820  15.565  1.5782 -1.1826 -1.7796
18614TIP3    H277334   2.492   1.827  15.580  1.9527  1.4380  2.6830
18615TIP3   OH277335   2.198   3.385  12.569 -0.0183  0.1736 -0.0654
18615TIP3    H177336   2.120   3.397  12.622  0.6649  0.5371  0.8759
18615TIP3    H277337   2.174   3.316  12.507 -0.9756  0.0558  0.4139
18616TIP3   OH277338   1.496   5.106  10.969  0.1750  0.1127  0.2000
18616TIP3    H177339   1.494   5.185  11.024  0.1770  0.7018 -0.6247
18616TIP3    H277340   1.588   5.082  10.965  0.7978  2.3556 -2.6554
18617TIP3   OH277341   1.614   1.694   0.944 -0.3528 -0.3684 -0.5650
18617TIP3    H177342   1.529   1.737   0.956  0.0696  0.5434 -0.7335
18617TIP3    H277343   1.625   1.640   1.022 -1.2277 -0.7498 -0.6918
18618TIP3   OH277344   3.154   4.104   1.687 -0.4308  0.1738  0.4660
18618TIP3    H177345   3.197   4.031   1.731  3.0925 -0.4920 -3.4439
18618TIP3    H277346   3.104   4.063   1.616  1.1554  1.4177 -1.4610
18619TIP3   OH277347   2.184   5.824   2.815  0.5125  0.7462 -0.7443
18619TIP3    H177348   2.235   5.877   2.754  0.1880  1.5426 -0.3415
18619TIP3    H277349   2.226   5.738   2.812  1.0740  1.0249 -1.3863
18620TIP3   OH277350   5.251   4.770  11.240 -0.2180  0.6121  0.8449
18620TIP3    H177351   5.258   4.737  11.151  0.1468  1.0390  0.7103
18620TIP3    H277352   5.339   4.803  11.260 -0.1851  0.1292  1.5170
18621TIP3   OH277353   0.976   6.536   3.579  0.1002 -0.4199 -0.3855
18621TIP3    H177354   0.930   6.587   3.645 -0.2406 -1.2162 -0.0036
18621TIP3    H277355   1.044   6.595   3.547 -1.9599  1.2799 -1.9172
18622TIP3   OH277356   5.990   2.366  14.304  0.1124  0.4860  0.6950
18622TIP3    H177357   5.905   2.328  14.328 -0.0221 -0.1395 -0.7059
18622TIP3    H277358   5.990   2.366  14.209  1.2705  1.4568  0.6765
18623TIP3   OH277359   3.548   6.373  13.894 -0.0009 -0.6438 -0.3101
18623TIP3    H177360   3.602   6.390  13.971 -0.9054 -0.6915  0.3494
18623TIP3    H277361   3.518   6.283  13.905  0.3818 -0.8760 -1.0572
18624TIP3   OH277362   5.655   4.243  16.157  0.2484 -0.1590 -0.7710
18624TIP3    H177363   5.683   4.179  16.222  0.4672  1.6158  0.9769
18624TIP3    H277364   5.560   4.248  16.168  0.5159  2.0622  1.4284
18625TIP3   OH277365   3.960   5.104   1.554 -0.0833  0.5087 -0.6817
18625TIP3    H177366   4.036   5.049   1.536 -0.8688 -0.2095 -1.9652
18625TIP3    H277367   3.981   5.147   1.637  1.5455  0.0451 -0.8119
18626TIP3   OH277368   3.579   4.480   3.837 -0.0238  0.5620 -0.1481
18626TIP3    H177369   3.567   4.499   3.930 -2.6814  0.8026 -0.4507
18626TIP3    H277370   3.613   4.561   3.799 -0.8286  1.1360  0.3248
18627TIP3   OH277371   0.797   1.195  13.911 -0.7197 -0.6955 -0.0580
18627TIP3    H177372   0.788   1.134  13.985 -1.8098 -0.8309 -0.2955
18627TIP3    H277373   0.723   1.255  13.920  0.0651  0.2965 -0.1138
18628TIP3   OH277374   3.473   0.935  13.689  0.4114  0.7201  0.1730
18628TIP3    H177375   3.445   0.941  13.780 -0.8410 -0.7986 -0.0678
18628TIP3    H277376   3.568   0.939  13.693  0.3922  0.3848  1.5774
18629TIP3   OH277377   4.468   3.985  15.696 -0.4023  0.4368 -0.3958
18629TIP3    H177378   4.475   4.025  15.609 -1.1113  0.8000 -0.2976
18629TIP3    H277379   4.538   3.920  15.699 -1.1986 -0.5330 -1.7397
18630TIP3   OH277380   6.225   6.576  10.905 -0.0421 -0.5336 -0.3184
18630TIP3    H177381   6.281   6.582  10.983  1.0374 -1.7379 -0.9558
18630TIP3    H277382   6.258   6.499  10.858  1.1207  1.6266 -3.3397
18631TIP3   OH277383   3.313   6.687  14.112  0.3043 -0.8656 -0.7612
18631TIP3    H177384   3.227   6.660  14.080 -0.2505  0.8548 -0.8062
18631TIP3    H277385   3.368   6.690  14.034  0.3381 -1.6539 -0.7780
18632TIP3   OH277386   5.074   1.519   1.359  0.1969  0.3761 -0.0871
18632TIP3    H177387   5.091   1.514   1.265  0.6764 -0.4763  0.0329
18632TIP3    H277388   5.126   1.448   1.397  0.3390  0.9732  0.8725
18633TIP3   OH277389   4.559   6.448  13.496  0.1620  0.0809  0.3155
18633TIP3    H177390   4.569   6.354  13.512 -0.0483  0.3749  2.5144
18633TIP3    H277391   4.476   6.456  13.449  0.3790 -0.8373 -0.2563
18634TIP3   OH277392   1.870   6.722  12.142 -0.2404 -0.3774  0.2981
18634TIP3    H177393   1.884   6.631  12.170 -1.6470 -0.2111  1.6552
18634TIP3    H277394   1.821   6.714  12.060  1.5103 -0.8341 -0.7614
18635TIP3   OH277395   0.045   1.244   2.979 -0.5898  0.1103 -0.1242
18635TIP3    H177396   0.032   1.183   3.052 -1.2107  0.0083 -0.3084
18635TIP3    H277397   0.112   1.305   3.009  1.0511 -1.4654 -0.4390
18636TIP3   OH277398   2.602   4.768  15.168  0.0684 -0.1326 -0.3539
18636TIP3    H177399   2.597   4.725  15.083 -2.0402  0.1085 -0.4119
18636TIP3    H277400   2.662   4.713  15.219 -1.0721 -2.0873 -1.0118
18637TIP3   OH277401   5.955   2.484   4.833 -0.4271 -0.1707  0.2244
18637TIP3    H177402   5.906   2.483   4.751 -2.0478 -0.3067  1.1425
18637TIP3    H277403   5.988   2.573   4.840 -0.4981 -0.0867 -0.4588
18638TIP3   OH277404   6.179   5.462   5.122 -0.1940 -0.2901  0.6322
18638TIP3    H177405   6.249   5.503   5.172 -0.3886  0.0964  0.5873
18638TIP3    H277406   6.102   5.468   5.178 -0.6479  1.0244 -0.0933
18639TIP3   OH277407   0.094   4.421  13.539 -0.6645 -0.2086 -0.2335
18639TIP3    H177408   0.135   4.341  13.507  0.6145  0.4914 -0.4084
18639TIP3    H277409   0.016   4.391  13.586 -0.0612 -1.5745 -0.0592
18640TIP3   OH277410   4.805   0.013  14.420  0.1764  0.1160 -0.0929
18640TIP3    H177411   4.858  -0.059  14.385  0.5998  1.2127 -1.7894
18640TIP3    H277412   4.771   0.058  14.342 -0.1188  1.7257  0.9259
18641TIP3   OH277413   0.108   3.568   4.332 -0.2352  0.1970 -0.1125
18641TIP3    H177414   0.054   3.553   4.410  0.1272 -0.5103  0.0070
18641TIP3    H277415   0.196   3.583   4.367 -0.5106  2.3819 -0.2367
18642TIP3   OH277416   1.613   3.254   1.502  0.4348 -0.1132 -0.1135
18642TIP3    H177417   1.569   3.281   1.421  0.9537  1.5360  0.1252
18642TIP3    H277418   1.655   3.334   1.534  0.4272 -0.7994  1.6770
18643TIP3   OH277419   6.746   1.389   0.112 -0.3351  0.1015 -0.5287
18643TIP3    H177420   6.680   1.450   0.079 -1.4290 -0.6980  0.0919
18643TIP3    H277421   6.759   1.415   0.203 -0.4503 -0.3005 -0.3980
18644TIP3   OH277422   5.987   6.359  15.381 -0.5564 -0.1722  0.8782
18644TIP3    H177423   6.065   6.405  15.410 -0.4864  0.1777  0.1550
18644TIP3    H277424   5.979   6.284  15.440 -0.6665  0.7571  2.0666
18645TIP3   OH277425   6.295   1.659  12.297  0.2451  0.3507 -0.1976
18645TIP3    H177426   6.210   1.658  12.341  0.7524  0.5188  0.8121
18645TIP3    H277427   6.281   1.608  12.217 -0.2068 -1.6742  1.1045
18646TIP3   OH277428   0.392   6.329  15.074  0.2635 -0.1909 -0.3341
18646TIP3    H177429   0.412   6.248  15.122  0.8974 -0.8141 -1.5976
18646TIP3    H277430   0.423   6.312  14.985 -2.5705  0.2134 -1.4846
18647TIP3   OH277431   0.581   1.689  11.384  0.7108  0.1656 -0.2638
18647TIP3    H177432   0.505   1.707  11.439  1.0661  2.9106 -0.5550
18647TIP3    H277433   0.579   1.594  11.371 -0.2881 -0.4217  3.1569
18648TIP3   OH277434   4.129   0.862  13.401  0.3486 -0.1723 -0.2945
18648TIP3    H177435   4.179   0.807  13.461  0.8171  0.3838 -0.1607
18648TIP3    H277436   4.097   0.934  13.456  1.0247  0.4986 -0.7501
18649TIP3   OH277437   2.036   2.867  12.619 -0.2457  0.0992  0.1542
18649TIP3    H177438   2.069   2.937  12.675  1.0848  1.6562 -2.3900
18649TIP3    H277439   2.101   2.797  12.626 -0.3629  0.0564  0.9073
18650TIP3   OH277440   1.674   6.411  13.327 -0.2139  0.1207  0.4822
18650TIP3    H177441   1.649   6.366  13.246 -1.7802  1.3095  0.2389
18650TIP3    H277442   1.605   6.386  13.389  0.2865  0.2073  1.0722
18651TIP3   OH277443   3.138   4.576   6.276  0.3241  0.0761 -0.0489
18651TIP3    H177444   3.156   4.514   6.205 -1.0653 -0.2423 -0.1384
18651TIP3    H277445   3.066   4.537   6.325 -0.2529  1.3878  0.1829
18652TIP3   OH277446   4.533   2.045  16.946  0.7545  0.1855 -0.2393
18652TIP3    H177447   4.619   2.069  16.909  0.3844  1.4307 -0.3445
18652TIP3    H277448   4.509   2.121  17.000 -0.6760  0.2435 -0.9276
18653TIP3   OH277449   3.602   5.802  13.836 -0.3217  0.2391 -0.1643
18653TIP3    H177450   3.519   5.836  13.802 -0.7936 -0.9488 -0.2503
18653TIP3    H277451   3.616   5.850  13.917 -2.3509 -1.1817  1.1291
18654TIP3   OH277452   1.451   0.613  15.076  0.4350 -0.4073  0.6248
18654TIP3    H177453   1.534   0.582  15.112  1.7013  1.8257 -0.1484
18654TIP3    H277454   1.472   0.640  14.987 -0.8958  1.0301  0.7039
18655TIP3   OH277455   0.090   0.243  15.202 -0.2671  0.1690  0.0215
18655TIP3    H177456   0.062   0.171  15.145 -0.7939  0.0709  0.3870
18655TIP3    H277457   0.174   0.214  15.238 -0.4629 -0.2625  0.1470
18656TIP3   OH277458   3.021   4.810   5.575 -0.1286  0.3318  0.2936
18656TIP3    H177459   3.000   4.751   5.503  2.5302  0.5187 -0.7407
18656TIP3    H277460   2.956   4.880   5.569  0.3024  0.5901 -2.2616
18657TIP3   OH277461   2.848   4.440  13.024 -0.0175  0.0969 -0.2325
18657TIP3    H177462   2.906   4.515  13.008 -2.0896  2.0567  0.8234
18657TIP3    H277463   2.798   4.432  12.942  1.7656 -1.7509 -1.2372
18658TIP3   OH277464   1.229   2.717  16.348  0.0547 -0.0391 -0.0095
18658TIP3    H177465   1.308   2.767  16.369  1.1641 -1.1967 -1.2057
18658TIP3    H277466   1.237   2.637  16.401 -1.0786  0.4538  0.9591
18659TIP3   OH277467   1.790   1.939  12.961 -0.0329  0.0178  0.3413
18659TIP3    H177468   1.852   1.882  13.007 -0.4036 -0.5890  0.1027
18659TIP3    H277469   1.728   1.878  12.920  0.4374  0.5298 -1.1696
18660TIP3   OH277470   6.109   5.728  15.517  0.3039 -0.2735 -0.3008
18660TIP3    H177471   6.111   5.656  15.581 -1.3144  0.2162  0.3307
18660TIP3    H277472   6.177   5.788  15.546 -1.7352  0.9746  2.2761
18661TIP3   OH277473   0.166   1.240  13.214 -0.3520  0.3314 -0.4906
18661TIP3    H177474   0.245   1.232  13.269 -0.3341  0.3698 -0.5112
18661TIP3    H277475   0.114   1.307  13.258 -1.3525 -1.1717  0.7217
18662TIP3   OH277476   3.970   1.857   4.028 -0.5762 -0.7169 -0.1654
18662TIP3    H177477   4.017   1.779   4.058  1.6353  1.1182  1.5376
18662TIP3    H277478   4.012   1.879   3.944  2.2965  1.2001  1.5767
18663TIP3   OH277479   6.528   2.431   2.123 -0.2368  0.4189  0.3501
18663TIP3    H177480   6.466   2.426   2.050  0.8127  0.9999 -0.6132
18663TIP3    H277481   6.613   2.414   2.083  0.3228  0.3656  1.5192
18664TIP3   OH277482   1.184   5.116   1.625 -0.5883 -0.5477 -0.2757
18664TIP3    H177483   1.126   5.170   1.571 -1.5947  1.2407  2.4287
18664TIP3    H277484   1.174   5.150   1.713  1.2960 -3.0796  1.0442
18665TIP3   OH277485   4.347   2.120   5.853 -0.0053  0.0212  0.2758
18665TIP3    H177486   4.309   2.176   5.921  1.7011 -0.2420  1.4850
18665TIP3    H277487   4.441   2.130   5.863  0.3178  0.4477 -2.4790
18666TIP3   OH277488   2.504   2.801   5.299 -0.1700 -0.1789 -0.6513
18666TIP3    H177489   2.579   2.810   5.358  0.5052 -0.0956 -1.5092
18666TIP3    H277490   2.495   2.886   5.257 -1.6588  0.2687  0.4852
18667TIP3   OH277491   4.879   4.880   3.845 -0.7224  0.2497 -0.1751
18667TIP3    H177492   4.798   4.882   3.896 -0.3578 -0.4773  0.4362
18667TIP3    H277493   4.891   4.788   3.822  0.7494  0.1090  1.0468
18668TIP3   OH277494   5.098   5.224  14.561 -0.0528 -0.0682  0.9619
18668TIP3    H177495   5.032   5.179  14.508  0.4141 -0.1589  0.4428
18668TIP3    H277496   5.050   5.292  14.607 -0.6077 -0.5002  1.0354
18669TIP3   OH277497   1.379   4.572  13.486 -0.8692  0.5086 -0.2619
18669TIP3    H177498   1.338   4.498  13.442 -2.0465  1.3385 -0.6300
18669TIP3    H277499   1.383   4.640  13.420  0.2056  0.7798  0.0707
18670TIP3   OH277500   4.734   6.375   4.547  0.3391 -0.4141 -0.8054
18670TIP3    H177501   4.729   6.468   4.571 -2.1096 -0.4546 -0.8517
18670TIP3    H277502   4.683   6.331   4.615 -0.5374 -1.4171 -2.0679
18671TIP3   OH277503   4.696   4.862  16.881 -0.5613  0.7303  0.4149
18671TIP3    H177504   4.645   4.786  16.853  0.0513  0.2583  0.5373
18671TIP3    H277505   4.657   4.889  16.964 -1.3600  1.1240 -0.0781
18672TIP3   OH277506   2.261   1.612   3.876 -0.1477 -0.1134  0.1591
18672TIP3    H177507   2.351   1.627   3.903 -0.6269  0.1291  1.7401
18672TIP3    H277508   2.225   1.554   3.943 -1.2335 -0.0124 -0.3070
18673TIP3   OH277509   4.441   2.800   2.099 -0.0571 -0.0904 -0.0915
18673TIP3    H177510   4.367   2.739   2.088  0.0053 -0.1278 -0.2936
18673TIP3    H277511   4.399   2.886   2.110 -0.1726 -0.2479  0.8138
18674TIP3   OH277512   0.848   0.349  12.194  0.1896  0.1527 -0.0078
18674TIP3    H177513   0.829   0.443  12.193  0.1049  0.1345 -0.1873
18674TIP3    H277514   0.919   0.340  12.257 -0.5736  0.1865  0.8948
18675TIP3   OH277515   0.109   6.714   4.685  0.6046 -0.0884 -0.2224
18675TIP3    H177516   0.136   6.696   4.775  2.4618  0.2396 -0.6778
18675TIP3    H277517   0.087   6.628   4.650  0.1382 -0.2553  0.4492
18676TIP3   OH277518   4.402   2.742  10.643  0.1536 -0.8035  0.1771
18676TIP3    H177519   4.392   2.782  10.729  0.8882  1.8145 -0.8797
18676TIP3    H277520   4.343   2.791  10.586  1.4749 -0.8258 -1.2874
18677TIP3   OH277521   1.908   0.704   5.889  0.4336  0.7603  0.2683
18677TIP3    H177522   1.948   0.631   5.843  0.9147  1.3664 -0.2963
18677TIP3    H277523   1.937   0.782   5.841  1.0001  1.4233  1.6130
18678TIP3   OH277524   1.827   5.675   1.376 -0.0997  0.1675  0.1915
18678TIP3    H177525   1.782   5.601   1.416  0.0703 -0.0880 -0.0828
18678TIP3    H277526   1.793   5.679   1.287 -0.0706  0.3915  0.1877
18679TIP3   OH277527   1.393   5.677   5.527  0.1519  0.0297  0.2146
18679TIP3    H177528   1.409   5.583   5.513  1.0536  0.3499 -1.1835
18679TIP3    H277529   1.365   5.709   5.441  1.9718  1.4214  0.0823
18680TIP3   OH277530   4.369   3.598   6.035  0.1846  0.4651  0.3790
18680TIP3    H177531   4.340   3.637   6.118  0.8976  0.7115  0.5121
18680TIP3    H277532   4.461   3.578   6.049  0.7527  2.0581 -0.9471
18681TIP3   OH277533   4.545   1.850   3.833  0.8634  0.0747  0.1643
18681TIP3    H177534   4.623   1.801   3.858  0.6895 -0.4193 -0.2536
18681TIP3    H277535   4.555   1.934   3.878  1.3848 -0.1678  0.5223
18682TIP3   OH277536   6.243   2.615  15.637  0.0222 -0.4568  0.7045
18682TIP3    H177537   6.270   2.524  15.627 -1.0058 -0.7896  0.8594
18682TIP3    H277538   6.161   2.621  15.588 -0.8026 -0.0498  2.0837
18683TIP3   OH277539   1.832   0.182   0.530 -0.0801  0.1690  0.2053
18683TIP3    H177540   1.779   0.254   0.566 -1.1654 -0.7510  0.5232
18683TIP3    H277541   1.768   0.119   0.499  0.8528  0.1275 -1.7526
18684TIP3   OH277542   0.850   5.233  16.124 -0.0770  0.1171  0.2130
18684TIP3    H177543   0.895   5.298  16.069  0.1708 -0.1920  0.0492
18684TIP3    H277544   0.877   5.256  16.213 -0.6641  0.7633  0.2335
18685TIP3   OH277545   6.380   5.098   1.624  0.1770 -0.1363  0.1375
18685TIP3    H177546   6.414   5.047   1.550 -0.6433  0.3605 -0.6129
18685TIP3    H277547   6.329   5.035   1.674  0.3884 -0.3868  0.0394
18686TIP3   OH277548   1.772   2.400  12.387 -0.5121 -0.4801  0.0552
18686TIP3    H177549   1.717   2.439  12.455 -0.3345  0.4835 -0.3431
18686TIP3    H277550   1.723   2.413  12.306  0.9756  1.8700 -0.5549
18687TIP3   OH277551   5.540   5.837  13.881 -0.2148 -0.1644 -0.5288
18687TIP3    H177552   5.478   5.791  13.938  0.1839  0.4423  0.4207
18687TIP3    H277553   5.609   5.867  13.940  1.3734 -1.4085 -1.6455
18688TIP3   OH277554   5.759   0.394   1.949 -0.5638 -0.1966 -0.5464
18688TIP3    H177555   5.780   0.301   1.945 -1.6455 -0.4240 -4.1180
18688TIP3    H277556   5.670   0.398   1.982 -0.3207 -0.3615  0.1412
18689TIP3   OH277557   4.409   6.849  12.760 -0.7475  0.1220 -0.5588
18689TIP3    H177558   4.390   6.855  12.854  0.2097  0.2273 -0.3615
18689TIP3    H277559   4.381   6.934  12.725  0.8712  0.9453  0.0203
18690TIP3   OH277560   2.140   6.024  15.838 -0.3270  0.2083  0.6132
18690TIP3    H177561   2.129   6.061  15.926 -0.0373  0.8715  0.3799
18690TIP3    H277562   2.195   6.088  15.792 -2.0236  0.8592 -0.6269
18691TIP3   OH277563   6.374   2.970  10.930  0.5944 -0.7830 -0.5984
18691TIP3    H177564   6.459   2.941  10.896  1.3021  0.7339 -0.2040
18691TIP3    H277565   6.340   3.029  10.863  1.4685  1.3135  0.6719
18692TIP3   OH277566   5.864   5.914   1.697 -0.2691  0.1128  0.0294
18692TIP3    H177567   5.888   5.982   1.635 -0.2365  0.0688 -0.0058
18692TIP3    H277568   5.845   5.961   1.778 -0.2589  0.1648  0.0011
18693TIP3   OH277569   1.738   4.568  13.335 -0.1565 -0.2342 -0.0739
18693TIP3    H177570   1.817   4.515  13.342  1.4380  2.1109  0.7205
18693TIP3    H277571   1.709   4.556  13.244  1.4001 -0.7569 -0.5284
18694TIP3   OH277572   0.405   1.750  16.127 -0.0565 -0.6099 -0.1634
18694TIP3    H177573   0.415   1.843  16.107  1.3801 -0.7722 -0.3374
18694TIP3    H277574   0.369   1.747  16.215  0.1310  0.1192 -0.0584
18695TIP3   OH277575   2.397   4.467  11.134 -0.6913 -0.1697  0.5762
18695TIP3    H177576   2.335   4.401  11.102 -0.1313  0.1583 -1.3090
18695TIP3    H277577   2.343   4.545  11.148 -0.6977  0.3667 -1.8360
18696TIP3   OH277578   6.469   4.760  12.724  0.3752 -0.2214 -0.1901
18696TIP3    H177579   6.504   4.742  12.637  2.4435 -0.9777  0.7244
18696TIP3    H277580   6.377   4.735  12.718 -0.1213  1.7609 -2.7033
18697TIP3   OH277581   1.893   4.773  15.460  0.0720 -0.2950 -0.0126
18697TIP3    H177582   1.819   4.745  15.405 -0.0599 -0.4946  0.2621
18697TIP3    H277583   1.956   4.811  15.398 -1.2323  2.0458 -0.0239
18698TIP3   OH277584   0.494   4.336   0.748  0.0243  0.9969 -0.4283
18698TIP3    H177585   0.528   4.303   0.831  2.1587 -0.0575 -1.6370
18698TIP3    H277586   0.520   4.428   0.746  0.7218  0.8126 -0.2569
18699TIP3   OH277587   0.976   1.641  14.672  0.2098  0.9574 -0.0348
18699TIP3    H177588   0.903   1.589  14.704 -1.1665  1.9750 -1.3197
18699TIP3    H277589   1.011   1.685  14.749 -1.2404  1.2594  0.4723
18700TIP3   OH277590   4.275   4.175  15.783  0.7443  0.2811 -0.9595
18700TIP3    H177591   4.344   4.110  15.774  3.1701  2.1323  2.2863
18700TIP3    H277592   4.203   4.128  15.827  0.6990 -1.1469 -2.4747
18701TIP3   OH277593   1.893   0.328  14.673  0.3450  0.1786 -0.2346
18701TIP3    H177594   1.963   0.330  14.739  0.2609  1.5314 -0.1542
18701TIP3    H277595   1.924   0.266  14.608  1.6111  0.6975 -0.1624
18702TIP3   OH277596   2.439   6.280   3.152 -0.5210  0.2433  0.1884
18702TIP3    H177597   2.518   6.330   3.169 -0.2066  0.2447 -1.1977
18702TIP3    H277598   2.368   6.344   3.160 -0.2571  0.5641 -0.0081
18703TIP3   OH277599   6.299   3.489  11.726 -0.5116  0.2213 -0.4079
18703TIP3    H177600   6.358   3.477  11.652 -0.3200 -1.5218 -0.0299
18703TIP3    H277601   6.350   3.461  11.802 -0.9536  1.2579  0.2951
18704TIP3   OH277602   5.587   6.292   3.661 -0.3395 -0.3257 -0.2485
18704TIP3    H177603   5.509   6.246   3.631 -0.3453 -0.0064 -0.7411
18704TIP3    H277604   5.588   6.279   3.756 -0.6798 -0.8063 -0.3077
18705TIP3   OH277605   4.725   6.823   6.283  0.2811  0.2037 -0.3876
18705TIP3    H177606   4.636   6.787   6.291 -0.0947  1.0767 -0.5079
18705TIP3    H277607   4.779   6.768   6.339 -0.6401  0.6702  1.0157
18706TIP3   OH277608   4.594   0.963   5.780  0.1012  0.2959  0.5744
18706TIP3    H177609   4.647   0.883   5.778  0.6462  0.6501 -0.6267
18706TIP3    H277610   4.555   0.966   5.693 -1.4524  0.3507  1.2577
18707TIP3   OH277611   4.567   3.616  14.090 -0.0637 -0.2758 -0.1894
18707TIP3    H177612   4.500   3.678  14.118  0.3256  1.1367 -2.0856
18707TIP3    H277613   4.519   3.548  14.042 -0.2782  0.0527 -0.4489
18708TIP3   OH277614   2.300   1.505   2.701  0.3971  0.2338  0.1043
18708TIP3    H177615   2.380   1.483   2.749  1.1356 -0.9413 -1.5590
18708TIP3    H277616   2.266   1.583   2.744  3.4276  1.8625 -0.2054
18709TIP3   OH277617   1.061   6.020   1.489 -0.2232  0.1207 -0.3810
18709TIP3    H177618   1.117   6.096   1.506  0.1829 -0.3328  0.3564
18709TIP3    H277619   0.997   6.021   1.559 -0.1651 -0.2601 -0.3182
18710TIP3   OH277620   0.962   6.302   3.292 -0.1740  0.3505 -0.5153
18710TIP3    H177621   0.931   6.212   3.288 -0.3584  0.4020 -0.2958
18710TIP3    H277622   0.915   6.347   3.222  1.6937 -0.2421 -2.2364
18711TIP3   OH277623   2.966   3.584  13.556 -0.2398 -0.2824  0.5977
18711TIP3    H177624   2.920   3.511  13.598  1.1748 -0.5191  1.8432
18711TIP3    H277625   3.018   3.622  13.627  2.9380 -1.1977 -1.0723
18712TIP3   OH277626   4.616   6.138   5.142  0.9642  0.1797  0.1403
18712TIP3    H177627   4.625   6.224   5.101 -0.2107  1.2538  2.0108
18712TIP3    H277628   4.676   6.140   5.216  1.2179 -0.7778 -0.0282
18713TIP3   OH277629   5.339   5.390  12.440 -0.3363 -0.1683 -0.0218
18713TIP3    H177630   5.344   5.300  12.473  0.4955 -0.2169 -0.2574
18713TIP3    H277631   5.401   5.392  12.368  0.3624  0.8556  0.5906
18714TIP3   OH277632   4.789   5.703  12.776  0.2705 -0.1953 -0.1249
18714TIP3    H177633   4.766   5.610  12.782  1.0785 -0.4705 -1.0002
18714TIP3    H277634   4.861   5.705  12.713  0.1973  1.0398 -0.1821
18715TIP3   OH277635   4.980   3.823   4.859 -0.2694 -0.0896  0.6904
18715TIP3    H177636   5.043   3.832   4.930 -0.1036  0.5671  0.4662
18715TIP3    H277637   4.983   3.907   4.813 -0.2661 -0.5483 -0.1797
18716TIP3   OH277638   2.374   0.648  16.813  0.1078  0.3111  0.1635
18716TIP3    H177639   2.419   0.732  16.806 -1.0361  0.9001 -0.4167
18716TIP3    H277640   2.442   0.587  16.840  0.9179  1.4559  0.8164
18717TIP3   OH277641   5.831   2.220  14.062  0.0883  0.3949 -0.5482
18717TIP3    H177642   5.785   2.228  13.979 -1.8385  0.1973  0.4564
18717TIP3    H277643   5.764   2.193  14.124  1.6671 -0.3658  0.9013
18718TIP3   OH277644   3.917   2.084  16.163  0.7420 -0.5221 -0.1931
18718TIP3    H177645   3.974   2.042  16.228  0.8067 -0.2179 -0.0492
18718TIP3    H277646   3.967   2.079  16.081  1.5615  0.9043  0.1916
18719TIP3   OH277647   5.768   1.141  12.033 -0.7092  0.6631  0.1705
18719TIP3    H177648   5.733   1.076  11.973 -0.7026  0.5750  0.2615
18719TIP3    H277649   5.770   1.222  11.983  1.0499  0.2164 -0.5657
18720TIP3   OH277650   3.732   4.297   2.653  0.1815  0.4495 -0.9094
18720TIP3    H177651   3.785   4.224   2.686 -0.8371 -0.4022 -1.1041
18720TIP3    H277652   3.708   4.347   2.731 -0.8120 -0.6010 -0.5138
18721TIP3   OH277653   2.236   6.772   0.712 -0.0542 -0.0984 -0.0739
18721TIP3    H177654   2.224   6.729   0.628  1.6405  1.3114 -1.1065
18721TIP3    H277655   2.149   6.804   0.735 -0.5311 -0.4633 -1.3077
18722TIP3   OH277656   2.284   3.037   1.058 -0.3972 -0.0131 -0.1924
18722TIP3    H177657   2.376   3.041   1.032 -0.2870  0.2936  0.2328
18722TIP3    H277658   2.262   2.944   1.053 -0.3015  0.0034 -1.0907
18723TIP3   OH277659   1.228   3.127   3.610 -0.1922  0.5308 -0.6634
18723TIP3    H177660   1.247   3.215   3.642  0.1015 -0.0210  0.7555
18723TIP3    H277661   1.138   3.111   3.637  0.4088 -0.3509  0.9214
18724TIP3   OH277662   0.017   2.176   5.443  0.3468 -0.3577 -0.0071
18724TIP3    H177663   0.063   2.093   5.431  1.5234  0.4395 -1.3807
18724TIP3    H277664   0.085   2.243   5.438 -0.4953  0.6930  1.6296
18725TIP3   OH277665   5.526   4.988  11.458 -0.1597  0.2022  0.0334
18725TIP3    H177666   5.574   5.031  11.529 -0.0362 -0.1178  0.1428
18725TIP3    H277667   5.441   5.031  11.458 -0.2399  0.0467  0.5220
18726TIP3   OH277668   3.507   1.302   1.553  0.1580  0.1511 -0.2474
18726TIP3    H177669   3.427   1.345   1.584  0.0905  1.1786 -1.7515
18726TIP3    H277670   3.481   1.211   1.539 -1.4513  0.9235 -2.9341
18727TIP3   OH277671   6.279   1.359   0.511 -0.1677 -0.7461 -0.1649
18727TIP3    H177672   6.270   1.426   0.579  0.9761  0.2396 -0.9308
18727TIP3    H277673   6.194   1.357   0.468 -0.6632 -0.8299  0.7951
18728TIP3   OH277674   2.517   2.091   3.016 -0.0843 -0.4297 -0.1294
18728TIP3    H177675   2.531   1.997   3.000  1.3823 -0.4352  0.9795
18728TIP3    H277676   2.558   2.107   3.101  0.1489  1.3200 -0.5403
18729TIP3   OH277677   5.191   4.567   1.706  0.0846  0.7689 -0.1629
18729TIP3    H177678   5.236   4.615   1.636 -0.2666  1.2257 -0.0772
18729TIP3    H277679   5.189   4.477   1.675  1.6924  0.5995  0.1549
18730TIP3   OH277680   3.060   0.822   4.765  0.3637 -0.7367  0.5059
18730TIP3    H177681   2.984   0.856   4.812  1.0049 -0.5508  1.4357
18730TIP3    H277682   3.023   0.757   4.705 -0.8428  1.2470 -1.0413
18731TIP3   OH277683   3.711   0.754  12.795 -0.2038  0.7241 -0.2146
18731TIP3    H177684   3.752   0.772  12.710 -0.6298 -0.3320 -0.6655
18731TIP3    H277685   3.692   0.841  12.831  1.6549  1.2348 -0.3426
18732TIP3   OH277686   1.861   3.797   0.846 -0.4589  0.3393 -0.1579
18732TIP3    H177687   1.908   3.714   0.847  2.2134  1.7321 -0.8877
18732TIP3    H277688   1.838   3.812   0.938  0.9496 -0.2082  0.3152
18733TIP3   OH277689   3.126   0.006  15.012  0.7008  0.7421  0.4504
18733TIP3    H177690   3.098   0.067  14.943 -0.2833 -0.2599 -0.0573
18733TIP3    H277691   3.045  -0.018  15.057  1.1633  0.2695  1.0432
18734TIP3   OH277692   2.314   6.633   4.419  0.3750  0.9321 -0.4100
18734TIP3    H177693   2.353   6.658   4.502  1.1972 -0.3704 -0.3832
18734TIP3    H277694   2.228   6.596   4.443  1.0078 -0.3468 -0.0112
18735TIP3   OH277695   5.261   1.562  15.706 -0.0661  0.1385  0.2988
18735TIP3    H177696   5.285   1.655  15.708  0.6850 -0.0478  0.4004
18735TIP3    H277697   5.248   1.543  15.613 -0.6953  0.4531  0.3142
18736TIP3   OH277698   4.810   0.652  14.159  0.5266 -0.1519 -0.3017
18736TIP3    H177699   4.759   0.639  14.239 -0.6364  0.3142 -0.9390
18736TIP3    H277700   4.880   0.587  14.164  0.0821 -0.5678  0.7737
18737TIP3   OH277701   5.625   5.592  11.694  0.5614 -0.2752 -0.3319
18737TIP3    H177702   5.633   5.652  11.769 -0.8848  1.1962 -1.2904
18737TIP3    H277703   5.699   5.533  11.703  0.8242  0.2966  1.8782
18738TIP3   OH277704   4.722   0.933   2.865  0.0390 -0.1959 -0.0202
18738TIP3    H177705   4.763   0.871   2.925  0.5258  1.0310  0.9595
18738TIP3    H277706   4.652   0.883   2.822 -0.9669 -0.8716  2.2729
18739TIP3   OH277707   4.109   5.487  13.335 -0.5982  0.2886 -0.0083
18739TIP3    H177708   4.138   5.451  13.418  1.1344  0.1850 -0.6148
18739TIP3    H277709   4.148   5.430  13.268  0.1134  1.7653 -0.9235
18740TIP3   OH277710   3.987   3.916  12.800 -0.1002 -0.7224 -0.3127
18740TIP3    H177711   4.065   3.883  12.846 -0.4942  0.3487  1.1817
18740TIP3    H277712   3.914   3.892  12.856 -0.5108  1.4840  0.1744
18741TIP3   OH277713   0.434   2.979   4.325 -0.1587  0.5394  0.3187
18741TIP3    H177714   0.443   2.884   4.334  1.4839  0.5676 -0.6883
18741TIP3    H277715   0.366   3.003   4.388 -1.6079 -1.4722 -0.3860
18742TIP3   OH277716   2.518   3.251  13.127 -0.5035  0.0299 -0.1792
18742TIP3    H177717   2.515   3.213  13.214  1.9808  0.1413  0.0141
18742TIP3    H277718   2.429   3.285  13.113 -1.1341 -0.5551  2.0140
18743TIP3   OH277719   2.032   3.529  15.644  0.3658  0.6214 -0.0337
18743TIP3    H177720   2.039   3.491  15.556  0.5832  1.3969 -0.3618
18743TIP3    H277721   1.938   3.543  15.657  0.3826  1.0638 -0.3871
18744TIP3   OH277722   0.115   1.413   2.669 -0.3667  0.4893 -0.0110
18744TIP3    H177723   0.109   1.451   2.581 -1.5751 -0.8500 -0.5533
18744TIP3    H277724   0.026   1.419   2.704 -0.0218  0.4769  0.8969
18745TIP3   OH277725   5.902   2.961   5.471 -0.3889 -0.1305 -0.0791
18745TIP3    H177726   5.834   2.966   5.538 -0.4131 -0.1719 -0.0999
18745TIP3    H277727   5.920   3.052   5.448 -0.1480 -0.1007  0.2166
18746TIP3   OH277728   0.719   1.711  12.639  0.0504 -0.4894 -0.3740
18746TIP3    H177729   0.637   1.712  12.688 -0.8704 -0.4373 -1.8480
18746TIP3    H277730   0.717   1.628  12.591  1.1323 -0.7429 -0.0207
18747TIP3   OH277731   2.598   4.810   3.760  0.4920 -0.9516  0.2913
18747TIP3    H177732   2.679   4.759   3.763  0.7231 -0.5542  2.3902
18747TIP3    H277733   2.598   4.851   3.674  2.3691 -1.1975  0.1380
18748TIP3   OH277734   1.272   5.942   1.882  0.1339  0.7603 -0.1624
18748TIP3    H177735   1.277   5.865   1.938  0.9301  1.0652  0.1989
18748TIP3    H277736   1.323   5.918   1.805 -1.8460 -0.0690 -1.3035
18749TIP3   OH277737   6.745   1.289  11.470  0.6821  0.2239 -0.2349
18749TIP3    H177738   6.721   1.201  11.501 -0.6553  0.4878 -0.4448
18749TIP3    H277739   6.662   1.338  11.473  1.4821  1.5988  0.2628
18750TIP3   OH277740   6.708   4.069  14.860  0.1664 -0.0733 -0.9223
18750TIP3    H177741   6.772   3.999  14.871  0.6113  0.6342  1.6101
18750TIP3    H277742   6.760   4.146  14.838 -0.0184  0.0528 -0.9229
18751TIP3   OH277743   6.432   2.852   4.295  0.1772  0.5918  0.0685
18751TIP3    H177744   6.344   2.871   4.329  0.7462  1.6986  0.9679
18751TIP3    H277745   6.420   2.771   4.244 -0.4933 -2.1730  4.0658
18752TIP3   OH277746   6.381   2.768   1.012  0.0491  0.4805  0.4436
18752TIP3    H177747   6.297   2.751   1.055  0.9415 -0.9067  1.7567
18752TIP3    H277748   6.443   2.779   1.084  0.9692  1.7964 -0.4926
18753TIP3   OH277749   0.998   1.000  14.272  0.0294 -0.0583  0.0033
18753TIP3    H177750   0.963   1.087  14.252 -0.0272 -0.3823 -1.3969
18753TIP3    H277751   1.080   0.995  14.223  0.4503 -0.4916  0.7418
18754TIP3   OH277752   6.056   3.189   4.834  0.1245  0.0145 -0.3347
18754TIP3    H177753   6.018   3.171   4.748  1.1766 -0.5664 -0.6963
18754TIP3    H277754   5.988   3.163   4.896  0.0782 -1.4313 -0.9587
18755TIP3   OH277755   5.321   6.429   4.676  0.2426 -0.0491 -0.6079
18755TIP3    H177756   5.234   6.391   4.682 -0.7163  1.6239 -2.5667
18755TIP3    H277757   5.310   6.520   4.703  1.1018  0.4854 -1.9201
18756TIP3   OH277758   4.318   3.650  12.032  0.5312 -0.4744 -0.3202
18756TIP3    H177759   4.378   3.713  11.992  0.5932  0.4628  1.1431
18756TIP3    H277760   4.231   3.677  12.001  0.7131 -0.8123 -1.1411
18757TIP3   OH277761   1.790   1.545   5.638  0.0226  0.1081 -0.5730
18757TIP3    H177762   1.845   1.521   5.563  0.5837  1.5738 -0.6469
18757TIP3    H277763   1.711   1.583   5.598 -0.0561  0.0922 -0.4322
18758TIP3   OH277764   2.962   2.737  15.618  0.2105  0.2729 -0.3322
18758TIP3    H177765   2.884   2.793  15.622  1.5390  2.2136 -0.0874
18758TIP3    H277766   2.966   2.706  15.528 -0.5776  0.5446 -0.4622
18759TIP3   OH277767   1.116   0.537  11.357 -0.1262  1.0627 -0.1789
18759TIP3    H177768   1.159   0.622  11.364 -0.7717  1.2763  2.3035
18759TIP3    H277769   1.172   0.478  11.408 -0.8688  0.5367  0.0485
18760TIP3   OH277770   6.660   3.716   4.428  0.2656 -0.1020  0.4228
18760TIP3    H177771   6.720   3.785   4.401  0.8030 -0.2507  1.2000
18760TIP3    H277772   6.717   3.642   4.448 -0.3263 -0.9210 -0.7955
18761TIP3   OH277773   1.701   0.882  14.160  0.4655  0.1678  0.0525
18761TIP3    H177774   1.731   0.926  14.081 -0.2161  1.9163  0.7078
18761TIP3    H277775   1.781   0.861  14.208  0.8274  0.1452 -0.5594
18762TIP3   OH277776   2.643   0.980   6.238 -0.0021  0.6487  0.4077
18762TIP3    H177777   2.632   1.016   6.326 -0.4675  2.7891 -0.4591
18762TIP3    H277778   2.735   0.997   6.217 -0.3567  1.9107 -0.2104
18763TIP3   OH277779   1.230   3.769   1.034 -0.2595 -0.4793  0.4859
18763TIP3    H177780   1.276   3.840   0.990  0.6971 -1.7100 -0.5695
18763TIP3    H277781   1.217   3.800   1.123  1.0521  0.6012  0.3235
18764TIP3   OH277782   3.566   5.443   5.831  0.3462  0.2664 -0.0879
18764TIP3    H177783   3.572   5.465   5.738 -1.5477  0.6320 -0.1434
18764TIP3    H277784   3.628   5.371   5.842  0.4025  0.0386 -1.6846
18765TIP3   OH277785   0.073   0.153   1.129  0.2709  0.0203 -0.4602
18765TIP3    H177786   0.093   0.147   1.035  0.4083 -2.7356 -0.3310
18765TIP3    H277787  -0.008   0.203   1.133  1.2901  1.9160 -1.8563
18766TIP3   OH277788   5.087   4.297  15.243 -0.2138  0.6328 -0.2457
18766TIP3    H177789   5.146   4.227  15.216 -1.0065 -0.9965  1.9613
18766TIP3    H277790   5.025   4.305  15.170 -1.5839 -2.7547  0.3458
18767TIP3   OH277791   3.762   3.893  12.149 -0.1988  0.0991 -0.2548
18767TIP3    H177792   3.826   3.949  12.106  0.0822 -0.1911 -0.2120
18767TIP3    H277793   3.717   3.951  12.211 -1.1942  0.7311 -1.5387
18768TIP3   OH277794   2.884   3.955  14.777  1.0763  0.4017 -0.2545
18768TIP3    H177795   2.975   3.982  14.792  1.0261  1.1324 -1.1375
18768TIP3    H277796   2.848   4.025  14.722  0.5546 -0.8276 -1.5378
18769TIP3   OH277797   0.077   4.730  12.174  0.1919 -0.9885 -0.2031
18769TIP3    H177798   0.099   4.637  12.181 -0.2895 -1.0560  0.4665
18769TIP3    H277799   0.049   4.755  12.262 -1.2238 -0.6125 -0.7377
18770TIP3   OH277800   4.866   5.304  12.636 -0.2160 -0.4035 -0.0521
18770TIP3    H177801   4.827   5.217  12.625  1.4185 -1.3877  1.3723
18770TIP3    H277802   4.834   5.334  12.722  2.2615 -1.3697  1.2907
18771TIP3   OH277803   5.076   1.070   4.506  0.0185 -0.0204 -0.3003
18771TIP3    H177804   5.078   1.147   4.563 -0.8829  1.5430 -2.2540
18771TIP3    H277805   5.168   1.045   4.496  0.3095  0.6427  0.5499
18772TIP3   OH277806   3.083   6.744   0.607  0.2310  0.2086 -0.5649
18772TIP3    H177807   3.051   6.655   0.619  0.3083  0.1156 -1.0352
18772TIP3    H277808   3.158   6.751   0.666 -1.1277  0.6929  1.1894
18773TIP3   OH277809   4.730   0.414   5.082  0.3701 -0.2867 -0.2264
18773TIP3    H177810   4.754   0.480   5.017 -0.2943  0.0943 -0.0995
18773TIP3    H277811   4.799   0.349   5.078  0.7445  0.1407 -0.7526
18774TIP3   OH277812   4.090   6.303   5.239 -0.0167  0.5292 -0.2804
18774TIP3    H177813   4.155   6.245   5.276 -0.2485 -0.4755 -1.3917
18774TIP3    H277814   4.139   6.361   5.181 -0.0133  0.1856 -0.6287
18775TIP3   OH277815   5.467   0.612  12.439 -0.0597 -0.0391  0.1011
18775TIP3    H177816   5.378   0.604  12.473 -0.1072 -1.8914 -0.3527
18775TIP3    H277817   5.512   0.535  12.472  2.4224  2.4354  3.1569
18776TIP3   OH277818   3.921   2.998  16.832 -0.4737  0.0231 -0.0413
18776TIP3    H177819   3.983   2.959  16.893  0.1676 -0.9125 -1.2464
18776TIP3    H277820   3.964   3.078  16.801  1.0712 -1.5725 -2.3072
18777TIP3   OH277821   5.315   2.942   0.040  0.1400 -0.2384  0.0220
18777TIP3    H177822   5.280   2.879   0.104  0.9279  0.7650  1.4825
18777TIP3    H277823   5.381   2.991   0.088 -0.0897  1.3724 -1.2319
18778TIP3   OH277824   1.426   6.248   0.280  0.5622 -0.1270  0.3243
18778TIP3    H177825   1.376   6.239   0.199 -0.8456  1.5939  0.9647
18778TIP3    H277826   1.449   6.340   0.285  2.0151 -0.4889  1.1297
18779TIP3   OH277827   2.461   1.043  13.473  0.8136 -0.0621  0.3562
18779TIP3    H177828   2.371   1.022  13.449  0.8870  0.6827 -0.6220
18779TIP3    H277829   2.454   1.082  13.561  0.1776  0.0312  0.2675
18780TIP3   OH277830   2.577   3.138   4.144 -0.0638 -0.3825  0.8470
18780TIP3    H177831   2.627   3.164   4.221 -0.4126 -0.3479  1.0619
18780TIP3    H277832   2.635   3.157   4.070 -0.0707  0.4363  1.0427
18781TIP3   OH277833   0.444   3.067   0.967 -0.1698 -0.1402 -0.1165
18781TIP3    H177834   0.481   3.017   1.039 -0.6345  0.5402  0.6084
18781TIP3    H277835   0.519   3.084   0.909  0.2040 -0.6955  0.1963
18782TIP3   OH277836   4.535   1.697  16.022  0.2390 -0.3956 -0.3839
18782TIP3    H177837   4.453   1.696  15.973 -0.4933  1.4565  0.6872
18782TIP3    H277838   4.566   1.788  16.014  0.2334 -0.0712  2.2617
18783TIP3   OH277839   0.933   5.460   3.697  0.1915 -0.3316  1.0120
18783TIP3    H177840   0.878   5.505   3.762  2.1331  2.4875  0.9053
18783TIP3    H277841   0.933   5.368   3.724 -2.4422  0.0127  2.4728
18784TIP3   OH277842   2.899   0.889  13.446  0.3819 -0.2688 -0.1555
18784TIP3    H177843   2.900   0.973  13.401  0.9326  0.7829  1.7054
18784TIP3    H277844   2.987   0.880  13.483 -0.3795 -0.4378  1.7511
18785TIP3   OH277845   4.944   0.505   1.711  0.4604  0.2299 -0.3539
18785TIP3    H177846   4.874   0.560   1.675  1.0695  2.4410  1.5496
18785TIP3    H277847   4.917   0.489   1.802  0.6109 -2.2171 -0.6896
18786TIP3   OH277848   0.182   0.531  15.953  0.2264  0.3814  0.3235
18786TIP3    H177849   0.229   0.603  15.911 -1.1745  1.3228  0.2911
18786TIP3    H277850   0.136   0.487  15.881 -0.9519  1.0544  0.6256
18787TIP3   OH277851   0.984   2.482  12.893 -0.4716 -0.2442 -0.3260
18787TIP3    H177852   1.062   2.532  12.872 -0.7287  0.9014  1.2696
18787TIP3    H277853   0.982   2.411  12.828  2.5386 -1.0485  0.3161
18788TIP3   OH277854   4.814   5.150  14.647  0.5087  0.3281  0.2559
18788TIP3    H177855   4.791   5.239  14.674  0.8448 -0.0360  1.7788
18788TIP3    H277856   4.881   5.122  14.708  0.2013 -1.0965 -0.0227
18789TIP3   OH277857   0.046   3.335   4.800 -0.4120 -0.3384 -0.1776
18789TIP3    H177858   0.100   3.278   4.855 -1.3798 -0.4143  0.7176
18789TIP3    H277859  -0.041   3.332   4.840 -0.4631  1.8634 -0.0178
18790TIP3   OH277860   0.835   1.988   1.205 -0.0872  0.0953  0.0086
18790TIP3    H177861   0.777   2.002   1.280  0.3900 -1.8992  0.8294
18790TIP3    H277862   0.786   1.928   1.148  0.1924  0.3320 -0.4833
18791TIP3   OH277863   0.383   4.569  16.066 -0.2387  0.0213 -0.2990
18791TIP3    H177864   0.427   4.586  15.983  0.9734  0.0072  0.3261
18791TIP3    H277865   0.423   4.631  16.128 -0.4401 -0.6240  0.4932
18792TIP3   OH277866   3.444   0.462   4.998  0.7488  0.5890 -0.2715
18792TIP3    H177867   3.422   0.372   5.024  1.8244  0.2668 -0.4227
18792TIP3    H277868   3.373   0.488   4.941  0.5660 -0.2813 -0.4641
18793TIP3   OH277869   1.367   1.831   0.935 -0.1672 -0.2754  0.3657
18793TIP3    H177870   1.422   1.907   0.958  0.6792 -0.9500  0.6224
18793TIP3    H277871   1.313   1.862   0.862 -0.1760  0.7213  0.7811
18794TIP3   OH277872   3.132   6.351   0.888 -0.3870  0.0198 -0.2013
18794TIP3    H177873   3.175   6.419   0.941 -0.0272  2.0849 -2.9089
18794TIP3    H277874   3.203   6.312   0.837 -0.8026 -1.5280  0.3484
18795TIP3   OH277875   3.174   2.621  12.898 -0.3122 -0.2403  0.2015
18795TIP3    H177876   3.251   2.673  12.874  0.0851 -0.7562  0.3415
18795TIP3    H277877   3.109   2.641  12.831 -0.7956  1.7924  1.1796
18796TIP3   OH277878   4.015   1.395  13.836  0.5699  0.0790 -0.5663
18796TIP3    H177879   3.955   1.466  13.813 -0.0861  0.0073  0.8364
18796TIP3    H277880   3.964   1.315  13.822  0.6265 -0.0233 -0.1815
18797TIP3   OH277881   3.911   3.397  16.883  0.4117 -0.4230  1.1222
18797TIP3    H177882   3.817   3.381  16.888  0.4141 -0.9356 -0.2494
18797TIP3    H277883   3.918   3.487  16.851  0.3544 -1.0053 -0.6208
18798TIP3   OH277884   6.319   6.256   0.376  0.2940  0.2165 -0.3434
18798TIP3    H177885   6.411   6.230   0.372  0.4453  0.8814 -1.2887
18798TIP3    H277886   6.320   6.351   0.369 -0.4711  0.2365 -0.3067
18799TIP3   OH277887   0.284   2.250  14.156  0.4497  0.1710  0.0594
18799TIP3    H177888   0.198   2.277  14.187  0.1840  2.4550 -2.2546
18799TIP3    H277889   0.266   2.177  14.096  0.2011  0.1569  0.1501
18800TIP3   OH277890   4.109   2.206   5.738  0.4745  0.8442 -0.4917
18800TIP3    H177891   4.183   2.150   5.713 -0.6755 -1.2465  0.4871
18800TIP3    H277892   4.133   2.240   5.824  1.4757  2.4982 -1.3806
18801TIP3   OH277893   4.512   4.249   2.069 -0.1553  0.8383  0.4378
18801TIP3    H177894   4.541   4.251   1.978 -0.6268  0.0209  0.2568
18801TIP3    H277895   4.581   4.203   2.116  0.4940  2.0105  0.6609
18802TIP3   OH277896   1.233   0.446  15.159  0.0432  0.2408 -0.6664
18802TIP3    H177897   1.326   0.466  15.171 -0.2163  1.6697 -0.8509
18802TIP3    H277898   1.208   0.494  15.079 -0.6263 -0.9288 -1.1824
18803TIP3   OH277899   0.954   4.505   3.538  0.1274 -0.0983 -0.2762
18803TIP3    H177900   1.047   4.491   3.525  0.3233  1.3016 -0.5490
18803TIP3    H277901   0.949   4.580   3.598 -0.8127 -0.5953  0.2833
18804TIP3   OH277902   6.459   4.309   2.531 -0.0253  0.4263  0.2318
18804TIP3    H177903   6.542   4.346   2.499 -1.3253  1.7721 -1.7963
18804TIP3    H277904   6.431   4.369   2.600 -0.7637  1.8040 -1.1848
18805TIP3   OH277905   2.685   1.150  11.648  0.3375  0.3172  0.7606
18805TIP3    H177906   2.635   1.078  11.685 -0.5100 -0.1949 -1.2497
18805TIP3    H277907   2.622   1.221  11.638  0.8048  0.8126  1.2685
18806TIP3   OH277908   5.729   4.686   0.436  0.7447 -0.6838 -0.5172
18806TIP3    H177909   5.780   4.721   0.508 -3.6760  0.9009  2.2629
18806TIP3    H277910   5.696   4.763   0.390 -1.6299 -1.3940 -0.1343
18807TIP3   OH277911   4.068   2.319  11.661  0.2451  0.2807  0.6209
18807TIP3    H177912   3.988   2.319  11.609 -1.6482  2.0461  3.2401
18807TIP3    H277913   4.114   2.398  11.634 -0.0344  0.4429  0.6080
18808TIP3   OH277914   1.200   3.298  13.243 -0.3179  0.1308  0.3486
18808TIP3    H177915   1.230   3.211  13.216 -0.6852 -0.1003  0.6761
18808TIP3    H277916   1.148   3.330  13.169 -1.5923 -0.6330  0.8859
18809TIP3   OH277917   1.697   5.960  11.091  0.2817  0.3161 -0.0426
18809TIP3    H177918   1.773   5.938  11.038  0.7066  1.6929 -0.0319
18809TIP3    H277919   1.674   6.049  11.066 -1.5838 -0.2021 -0.3248
18810TIP3   OH277920   5.188   4.506  10.837  0.3189 -0.2346 -0.2564
18810TIP3    H177921   5.198   4.518  10.742 -0.3227  0.3376 -0.2559
18810TIP3    H277922   5.095   4.493  10.850  0.6159 -2.4428  0.0823
18811TIP3   OH277923   5.514   1.522  11.447 -0.3006 -0.7468 -0.0878
18811TIP3    H177924   5.476   1.609  11.438 -0.5747 -0.8067  0.4253
18811TIP3    H277925   5.442   1.462  11.429 -0.2139 -0.8633 -0.0467
18812TIP3   OH277926   0.917   4.195   2.985  0.6190  0.2312  0.3910
18812TIP3    H177927   0.900   4.111   3.028 -1.7873 -0.6161 -1.9185
18812TIP3    H277928   0.989   4.178   2.925  0.9408  0.1551  0.7986
18813TIP3   OH277929   2.373   3.053   6.061 -0.3072  0.2524 -0.5004
18813TIP3    H177930   2.444   3.069   6.124  0.7449 -0.8840 -1.3561
18813TIP3    H277931   2.406   3.090   5.979  0.3866 -2.3772 -1.4975
18814TIP3   OH277932   2.991   5.577  16.448 -0.4185 -1.0754 -0.4312
18814TIP3    H177933   2.962   5.494  16.485  1.2166 -1.0797  0.9814
18814TIP3    H277934   3.077   5.558  16.410  0.7918  0.2637  1.4603
18815TIP3   OH277935   3.509   2.039  13.725 -0.3413  0.3207  0.5230
18815TIP3    H177936   3.552   2.095  13.660 -1.1336 -0.8679 -1.1023
18815TIP3    H277937   3.430   2.009  13.681 -0.7429 -0.7912  1.9471
18816TIP3   OH277938   3.918   0.881  15.578  0.6177  0.0565  0.4846
18816TIP3    H177939   3.893   0.867  15.487  0.8024 -0.3424  0.4954
18816TIP3    H277940   4.002   0.837  15.588 -0.2484 -1.4770  1.3157
18817TIP3   OH277941   2.934   3.668  13.068  0.3194  0.0681 -0.4191
18817TIP3    H177942   2.961   3.625  13.150 -1.5059 -0.0412  0.1575
18817TIP3    H277943   2.947   3.762  13.085 -1.0785  0.1363  0.4379
18818TIP3   OH277944   3.402   2.953  14.587 -0.0899  0.1519 -0.1509
18818TIP3    H177945   3.339   3.024  14.581 -0.2713 -0.1111 -2.2029
18818TIP3    H277946   3.350   2.877  14.614 -0.2146  0.4145  0.3612
18819TIP3   OH277947   3.794   3.664  15.410  0.1236 -0.2566 -0.1220
18819TIP3    H177948   3.883   3.639  15.433  0.0049 -1.2474 -0.6455
18819TIP3    H277949   3.744   3.656  15.491  0.3179 -0.6957 -0.0432
18820TIP3   OH277950   0.597   3.975  14.845 -0.2878 -0.3096 -0.0942
18820TIP3    H177951   0.548   4.053  14.870 -0.3900 -0.6023  0.6526
18820TIP3    H277952   0.551   3.942  14.768  0.8866  1.4179 -1.6147
18821TIP3   OH277953   5.209   4.554  13.286 -0.2093 -0.1919 -0.0255
18821TIP3    H177954   5.123   4.593  13.293 -0.3607  0.2326 -2.9859
18821TIP3    H277955   5.269   4.628  13.274  0.6506 -0.4725  2.0663
18822TIP3   OH277956   2.569   2.502  16.413 -0.2816  0.4986  0.2469
18822TIP3    H177957   2.556   2.450  16.492 -1.1468  0.8280  0.3315
18822TIP3    H277958   2.509   2.463  16.349  1.4230 -0.6628 -0.7042
18823TIP3   OH277959   5.910   3.151  11.821  0.5524  0.4650  0.6437
18823TIP3    H177960   5.984   3.212  11.815  0.9132  0.0017  0.2191
18823TIP3    H277961   5.854   3.174  11.747  0.3887  0.6662  0.8303
18824TIP3   OH277962   0.678   5.879   0.329  0.2005  0.2981  0.0746
18824TIP3    H177963   0.673   5.890   0.234  0.7430 -0.2120 -0.0234
18824TIP3    H277964   0.587   5.883   0.359  0.0191  0.3772 -0.4795
18825TIP3   OH277965   5.294   4.075  12.828  0.0065  0.3116  0.0905
18825TIP3    H177966   5.290   4.025  12.910 -1.6396  0.1157 -0.0676
18825TIP3    H277967   5.254   4.017  12.763 -0.5963  1.2659 -0.4120
18826TIP3   OH277968   6.600   0.700  15.375 -0.6246 -0.5697 -0.2049
18826TIP3    H177969   6.525   0.713  15.317 -0.7627 -0.4991 -0.0108
18826TIP3    H277970   6.564   0.709  15.463 -0.2658  0.0847 -0.1211
18827TIP3   OH277971   1.960   5.898   4.736  0.0824 -0.3301  0.1365
18827TIP3    H177972   1.912   5.845   4.800 -0.0417  0.1268  0.4232
18827TIP3    H277973   1.992   5.973   4.786 -1.0826  0.6912 -0.5959
18828TIP3   OH277974   6.318   5.204   2.949  0.3405  0.2513 -0.8304
18828TIP3    H177975   6.232   5.215   2.908  0.7065  0.6286 -1.5165
18828TIP3    H277976   6.339   5.290   2.985 -0.0229 -0.1064  0.2450
18829TIP3   OH277977   0.922   6.018   0.505  0.0282 -0.0211 -0.2825
18829TIP3    H177978   0.860   6.050   0.440 -0.3153  0.6264  0.3527
18829TIP3    H277979   1.008   6.040   0.470 -0.0730 -1.0065 -1.2142
18830TIP3   OH277980   3.602   4.795   1.371 -0.8549  0.3621  0.3801
18830TIP3    H177981   3.654   4.716   1.390 -2.1789 -0.3972  0.9788
18830TIP3    H277982   3.665   4.867   1.377  0.2490 -0.5820  0.5029
18831TIP3   OH277983   5.551   4.086  12.747  0.6537  0.7622 -0.1935
18831TIP3    H177984   5.459   4.088  12.774 -0.8398 -3.2315 -3.7394
18831TIP3    H277985   5.550   4.113  12.655  2.5112 -1.5126 -1.0021
18832TIP3   OH277986   3.156   2.829  12.414 -0.0053  0.1872 -0.1058
18832TIP3    H177987   3.167   2.872  12.329  2.2168 -1.5409 -0.7768
18832TIP3    H277988   3.112   2.747  12.392 -1.0678  0.5246  0.6975
18833TIP3   OH277989   5.090   2.262   5.181 -0.0671 -0.4639 -0.0330
18833TIP3    H177990   5.098   2.351   5.147 -0.5630 -0.9194 -1.4360
18833TIP3    H277991   5.176   2.242   5.217  0.0280  0.6058  0.3569
18834TIP3   OH277992   2.498   2.196  15.953 -0.2222 -0.2608 -0.3381
18834TIP3    H177993   2.513   2.205  15.859 -0.7791 -1.4127 -0.5523
18834TIP3    H277994   2.441   2.270  15.975 -0.1265 -0.0101 -0.9110
18835TIP3   OH277995   3.935   5.314   5.342  0.5995 -0.4465  0.6132
18835TIP3    H177996   3.890   5.252   5.285  0.0039 -0.5919  1.2396
18835TIP3    H277997   3.952   5.266   5.422  1.6867 -0.3277  0.4797
18836TIP3   OH277998   2.939   6.429   5.007  0.1709 -0.0286  0.2784
18836TIP3    H177999   3.007   6.494   5.025 -0.0100  0.2690 -0.1048
18836TIP3    H278000   2.962   6.394   4.921 -0.5066  0.5215 -0.1344
18837TIP3   OH278001   4.322   0.661  12.313 -0.0972 -0.2106 -0.6304
18837TIP3    H178002   4.267   0.739  12.306  0.5765  0.4795  1.1825
18837TIP3    H278003   4.265   0.588  12.289 -1.5440  0.5714  0.3032
18838TIP3   OH278004   3.533   0.531   4.389 -0.1257  0.1712  0.3870
18838TIP3    H178005   3.554   0.438   4.395 -0.8338  0.0707  1.6753
18838TIP3    H278006   3.588   0.564   4.318 -1.3457 -1.6394 -1.4934
18839TIP3   OH278007   2.064   5.586  10.567  0.2719 -0.0039  0.1287
18839TIP3    H178008   2.029   5.598  10.479  0.3752  0.1969  0.1159
18839TIP3    H278009   2.083   5.492  10.572  0.3886  0.0057 -0.1092
18840TIP3   OH278010   6.777   6.196   5.251  0.0238  0.0821  0.2923
18840TIP3    H178011   6.706   6.167   5.310  1.2241 -2.1054  0.7741
18840TIP3    H278012   6.783   6.127   5.185  1.5695  0.3161  0.1556
18841TIP3   OH278013   1.216   3.966   0.506  0.5766  0.4759 -0.2928
18841TIP3    H178014   1.258   3.993   0.587 -1.0558  0.1595  0.6933
18841TIP3    H278015   1.289   3.955   0.444  1.6488  3.2144  0.3354
18842TIP3   OH278016   3.743   0.839  16.372 -0.1146  0.0703  0.0942
18842TIP3    H178017   3.747   0.772  16.304  1.4057 -1.2538  1.3993
18842TIP3    H278018   3.654   0.831  16.408 -0.1345 -0.9084 -0.1306
18843TIP3   OH278019   4.528   5.218   4.397 -0.7969  0.0283 -0.4786
18843TIP3    H178020   4.619   5.207   4.368 -0.5335 -0.1719  0.3930
18843TIP3    H278021   4.484   5.260   4.324 -0.2194 -0.7240 -1.2707
18844TIP3   OH278022   4.912   6.115  15.289  0.4491 -0.8614 -0.3791
18844TIP3    H178023   4.956   6.102  15.373  2.4960 -0.2324 -1.2832
18844TIP3    H278024   4.868   6.199  15.297 -0.8544 -1.6036  0.6250
18845TIP3   OH278025   4.484   2.690   4.934 -0.1957 -0.0388  0.0023
18845TIP3    H178026   4.545   2.745   4.886  0.0225  1.1164  1.5193
18845TIP3    H278027   4.398   2.724   4.912 -0.1099  0.3075  0.1908
18846TIP3   OH278028   0.913   3.111  16.236 -0.0222  0.3583 -0.1149
18846TIP3    H178029   0.893   3.092  16.328  2.9131 -0.4609  0.4804
18846TIP3    H278030   0.851   3.058  16.187 -2.8098  2.1031  1.2750
18847TIP3   OH278031   2.277   1.049   1.852 -0.6865 -0.2917 -0.8192
18847TIP3    H178032   2.214   1.120   1.840  1.8774  2.5774  1.0913
18847TIP3    H278033   2.362   1.092   1.848  1.0681 -3.4135 -0.1496
18848TIP3   OH278034   2.300   2.727  13.704 -0.5867  0.2761  0.3070
18848TIP3    H178035   2.320   2.636  13.683  2.5306  1.1635 -1.2062
18848TIP3    H278036   2.320   2.735  13.797 -0.6175 -0.5386  0.3866
18849TIP3   OH278037   4.696   6.637   3.911  0.2006  0.1671 -0.4794
18849TIP3    H178038   4.603   6.648   3.930  0.2857 -0.6458  0.4889
18849TIP3    H278039   4.734   6.723   3.930 -0.0809  0.0116  0.9060
18850TIP3   OH278040   2.019   0.912  13.640  0.4823  0.1484 -0.1686
18850TIP3    H178041   1.985   1.001  13.631  0.3041  0.1206  0.2019
18850TIP3    H278042   1.997   0.869  13.557 -2.9699 -0.7370  1.0213
18851TIP3   OH278043   3.858   3.021  16.119 -0.2569  0.2703  0.2791
18851TIP3    H178044   3.809   3.017  16.037 -0.8177  1.1325  0.5689
18851TIP3    H278045   3.884   3.112  16.127 -2.1336  0.7134  2.1598
18852TIP3   OH278046   5.587   4.598  11.022 -0.5796  0.0114 -0.4562
18852TIP3    H178047   5.645   4.616  11.096  1.5639 -3.1927 -1.1613
18852TIP3    H278048   5.623   4.650  10.950 -1.6699  1.8241  0.2234
18853TIP3   OH278049   4.647   6.689  16.314 -0.1382 -0.0522 -0.2032
18853TIP3    H178050   4.561   6.722  16.290 -0.9931 -0.4265  2.0745
18853TIP3    H278051   4.636   6.595  16.322  0.7059 -0.2035 -0.6926
18854TIP3   OH278052   5.911   5.818   1.346 -0.3203  0.0800 -0.0618
18854TIP3    H178053   5.886   5.901   1.385 -2.8215 -0.1327 -1.0714
18854TIP3    H278054   5.900   5.754   1.417 -2.8217 -0.0034 -0.4624
18855TIP3   OH278055   0.119   5.198   0.343 -0.1248  0.4468  0.3953
18855TIP3    H178056   0.159   5.113   0.327  0.2148  0.6073  0.3831
18855TIP3    H278057   0.140   5.249   0.264  0.1125  0.7037  0.6241
18856TIP3   OH278058   0.433   6.639   2.540 -0.5244 -0.5599  0.5174
18856TIP3    H178059   0.449   6.600   2.454  2.8747  0.9156  0.3454
18856TIP3    H278060   0.364   6.703   2.524 -0.1245 -0.4770 -1.0829
18857TIP3   OH278061   0.445   1.191   3.746  0.0631  0.6498 -0.6648
18857TIP3    H178062   0.494   1.185   3.664  0.1267 -2.1682 -0.5163
18857TIP3    H278063   0.356   1.163   3.723  0.0069  0.1341  0.1306
18858TIP3   OH278064   2.739   1.063   6.499 -0.3220  0.0608 -0.6450
18858TIP3    H178065   2.734   0.968   6.494 -1.8772  0.0301  0.7407
18858TIP3    H278066   2.715   1.084   6.589 -0.2542  1.7873 -0.9913
18859TIP3   OH278067   6.454   2.533   6.331 -0.2025  0.2333 -0.1233
18859TIP3    H178068   6.412   2.495   6.254 -0.7678  1.3156 -0.3808
18859TIP3    H278069   6.398   2.506   6.405  0.2652 -0.6904 -0.0944
18860TIP3   OH278070   6.211   5.712  13.425  0.4982  0.1642 -0.2248
18860TIP3    H178071   6.158   5.653  13.479  2.1382 -1.2276 -0.0536
18860TIP3    H278072   6.153   5.734  13.351 -0.4608 -1.0054  0.1375
18861TIP3   OH278073   0.872   5.500  11.599  0.1712  0.0453 -0.0305
18861TIP3    H178074   0.887   5.551  11.519  0.5783 -1.3425 -0.8579
18861TIP3    H278075   0.778   5.483  11.599  0.3982 -1.3132 -1.0766
18862TIP3   OH278076   4.342   2.255   5.106  0.5123 -0.6974 -0.4310
18862TIP3    H178077   4.364   2.191   5.174  0.5178  0.4955  0.7307
18862TIP3    H278078   4.422   2.265   5.055  0.0379 -2.8553 -1.7371
18863TIP3   OH278079   4.822   3.195   3.165  0.9895 -0.4147 -0.5130
18863TIP3    H178080   4.761   3.173   3.235  0.2896  2.0989 -0.2526
18863TIP3    H278081   4.907   3.199   3.208  1.0661 -1.8134 -0.4642
18864TIP3   OH278082   0.897   1.491  12.643 -0.5224 -0.6283 -0.2241
18864TIP3    H178083   0.844   1.459  12.717 -0.2597  0.3319  0.3979
18864TIP3    H278084   0.897   1.418  12.581 -0.7934 -1.4491  0.6981
18865TIP3   OH278085   4.177   4.335  12.530 -0.4034  0.1821 -0.3657
18865TIP3    H178086   4.244   4.266  12.528 -1.1509 -0.5519 -0.3131
18865TIP3    H278087   4.094   4.288  12.538 -1.0971  0.9890 -2.2548
18866TIP3   OH278088   6.502   0.410   2.261 -0.0518 -0.5289 -0.4409
18866TIP3    H178089   6.479   0.485   2.316  0.0533  0.7251 -2.0319
18866TIP3    H278090   6.569   0.364   2.312  1.1360  1.4247 -0.1106
18867TIP3   OH278091   5.755   6.671   3.079  0.4092 -0.4241  0.2228
18867TIP3    H178092   5.675   6.629   3.111 -0.4945 -0.5801 -2.0774
18867TIP3    H278093   5.774   6.738   3.145 -2.7092  0.8825 -0.0255
18868TIP3   OH278094   3.931   2.435   3.932  0.4678 -0.4496  0.1748
18868TIP3    H178095   3.867   2.475   3.874  0.3524  1.2663  1.4069
18868TIP3    H278096   4.014   2.442   3.885 -0.2211 -3.3945 -1.7754
18869TIP3   OH278097   2.845   2.258   4.243  0.1970 -0.5465  0.2245
18869TIP3    H178098   2.832   2.192   4.310 -0.2050 -0.2883  0.4048
18869TIP3    H278099   2.772   2.318   4.253  1.1766  0.5909  0.8542
18870TIP3   OH278100   1.784   0.504  11.174  0.0350 -0.4486 -0.2013
18870TIP3    H178101   1.793   0.528  11.081  0.2107 -1.9770 -0.6166
18870TIP3    H278102   1.858   0.445  11.190 -0.2555 -0.5568  0.7879
18871TIP3   OH278103   1.912   4.578   3.235 -0.5802 -0.2401 -0.3799
18871TIP3    H178104   1.983   4.616   3.288 -0.8513 -0.1361 -0.0907
18871TIP3    H278105   1.948   4.496   3.204  0.8476  1.1794 -2.7928
18872TIP3   OH278106   2.470   2.888  14.895  0.3875  0.0272  0.0035
18872TIP3    H178107   2.518   2.968  14.873  0.7139  0.2285  1.3438
18872TIP3    H278108   2.414   2.913  14.969 -0.0984 -0.7894 -0.0726
18873TIP3   OH278109   1.331   3.252  14.538  0.0470  0.1249  0.1775
18873TIP3    H178110   1.353   3.299  14.618  0.3138 -0.3155  0.3676
18873TIP3    H278111   1.306   3.320  14.475  0.1219  0.4908  0.5436
18874TIP3   OH278112   1.275   0.993   0.615 -0.0531 -0.0735  0.0443
18874TIP3    H178113   1.232   0.946   0.686  1.0702 -1.0675  0.0859
18874TIP3    H278114   1.204   1.015   0.554 -0.5241 -2.7920 -0.5237
18875TIP3   OH278115   4.233   5.082  13.515  0.0214  0.2382 -0.6180
18875TIP3    H178116   4.253   5.043  13.600 -0.0498  2.3911  0.4749
18875TIP3    H278117   4.143   5.056  13.496 -0.0274 -0.0973  0.0727
18876TIP3   OH278118   2.694   5.754   4.959  0.3533 -0.2522  0.2557
18876TIP3    H178119   2.774   5.733   5.006  0.0724  0.4989  1.0843
18876TIP3    H278120   2.680   5.679   4.901  0.3144 -1.5375  1.8725
18877TIP3   OH278121   0.443   0.832   4.391 -0.7129 -0.8878 -0.3646
18877TIP3    H178122   0.408   0.914   4.426  0.3357  0.1992 -1.7103
18877TIP3    H278123   0.502   0.800   4.459 -1.9843 -1.1513  0.6520
18878TIP3   OH278124   6.372   3.895   3.411 -0.0606  0.7862 -0.3856
18878TIP3    H178125   6.444   3.924   3.355  1.0110 -0.8610  0.0729
18878TIP3    H278126   6.412   3.880   3.497 -0.4733 -2.0294 -0.5896
18879TIP3   OH278127   2.153   6.381  15.374  0.4643 -0.0281 -0.5208
18879TIP3    H178128   2.191   6.448  15.429  0.6453 -0.2743 -0.3427
18879TIP3    H278129   2.124   6.313  15.435  1.7826 -0.8680 -0.7902
18880TIP3   OH278130   2.570   0.385   3.852  0.2259 -0.4082  1.0446
18880TIP3    H178131   2.560   0.299   3.811  0.9933 -0.5924  1.2200
18880TIP3    H278132   2.504   0.440   3.810  2.3154  0.0159 -2.0439
18881TIP3   OH278133   3.173   4.619  13.735  0.3132 -0.0774 -0.5311
18881TIP3    H178134   3.079   4.628  13.721  0.1807  0.3136  0.5341
18881TIP3    H278135   3.185   4.527  13.760  0.3145 -0.2951 -1.2875
18882TIP3   OH278136   1.071   1.570   5.217  0.1571 -0.3346  0.5954
18882TIP3    H178137   1.023   1.609   5.290 -0.8498 -0.2030 -0.1120
18882TIP3    H278138   1.078   1.478   5.240 -1.2374 -0.5358  0.3236
18883TIP3   OH278139   1.855   3.848  17.044 -0.0985 -0.6527  0.6942
18883TIP3    H178140   1.835   3.895  17.125 -0.5270 -1.1287  0.8683
18883TIP3    H278141   1.780   3.790  17.030 -1.2768  1.2330 -1.4432
18884TIP3   OH278142   2.495   4.136   1.758  0.0043 -0.3589 -0.8816
18884TIP3    H178143   2.525   4.064   1.814  2.4297  1.7269  0.7204
18884TIP3    H278144   2.515   4.108   1.669 -0.3328 -2.1739 -0.4274
18885TIP3   OH278145   2.254   5.523   3.072  0.5519  0.7116  0.2029
18885TIP3    H178146   2.312   5.477   3.133 -0.5366 -2.2653 -0.8313
18885TIP3    H278147   2.189   5.566   3.127 -0.0933 -1.4711  1.2355
18886TIP3   OH278148   2.436   0.500  15.763  0.3808 -0.2454 -0.1417
18886TIP3    H178149   2.526   0.469  15.756  0.2965 -1.4346  2.6796
18886TIP3    H278150   2.442   0.595  15.755  1.4472 -0.4773 -2.9562
18887TIP3   OH278151   6.524   5.963   3.298 -0.3066  0.1634  0.0364
18887TIP3    H178152   6.588   6.034   3.307 -0.6001  0.4768 -0.2997
18887TIP3    H278153   6.442   6.008   3.279 -0.5349 -0.2608  0.0170
18888TIP3   OH278154   4.739   3.232  15.659  0.2767  0.6336 -0.7221
18888TIP3    H178155   4.720   3.159  15.600  1.0948  0.1099 -0.3359
18888TIP3    H278156   4.822   3.210  15.699 -0.1522  1.1048  0.4577
18889TIP3   OH278157   1.500   5.587  15.836 -0.8966  1.2357  0.3551
18889TIP3    H178158   1.544   5.618  15.916  2.0204  0.6391 -0.9128
18889TIP3    H278159   1.528   5.496  15.827 -1.3911  1.2122 -1.1951
18890TIP3   OH278160   1.677   5.629   1.102 -0.2268  0.0786 -0.6358
18890TIP3    H178161   1.617   5.704   1.104 -0.3939 -0.0563 -0.4946
18890TIP3    H278162   1.744   5.653   1.039  0.3999  0.8682  0.3037
18891TIP3   OH278163   2.619   0.377   2.269  0.1706  0.1343  0.3818
18891TIP3    H178164   2.615   0.448   2.205 -0.3659  0.9971  1.3442
18891TIP3    H278165   2.707   0.384   2.306  1.5633 -2.1124 -2.1264
18892TIP3   OH278166   0.360   3.293  13.382  0.9822  0.3261  0.6793
18892TIP3    H178167   0.415   3.216  13.365  0.3156 -0.2738  1.1978
18892TIP3    H278168   0.421   3.366  13.381  1.4979 -0.0821 -0.7675
18893TIP3   OH278169   5.427   5.113  12.464  0.2266  0.6266  0.2767
18893TIP3    H178170   5.335   5.086  12.457 -0.2905  1.6600  2.1894
18893TIP3    H278171   5.447   5.152  12.379 -0.7235 -0.6601 -0.5779
18894TIP3   OH278172   3.680   3.802   5.382  0.0564  0.0336 -0.1606
18894TIP3    H178173   3.610   3.844   5.432  0.0058  0.6513 -0.7356
18894TIP3    H278174   3.719   3.740   5.443  0.6859  1.5073  0.9805
18895TIP3   OH278175   6.810   3.707   4.103  0.4786  0.5230 -0.3281
18895TIP3    H178176   6.842   3.657   4.178  0.2183  0.3030 -0.3591
18895TIP3    H278177   6.811   3.798   4.132  0.6442  0.4684 -0.1564
18896TIP3   OH278178   5.996   1.619  15.001  0.7224 -0.3445 -0.0608
18896TIP3    H178179   6.053   1.596  15.073  0.6163  2.9434  1.2518
18896TIP3    H278180   5.907   1.601  15.033  0.7154  0.4030  0.3491
18897TIP3   OH278181   2.650   0.556   3.265  0.1878 -0.1328  0.2161
18897TIP3    H178182   2.641   0.477   3.211  0.3710  0.4383 -0.6793
18897TIP3    H278183   2.597   0.621   3.219  1.6696  0.8202 -0.2039
18898TIP3   OH278184   4.753   3.686   1.796 -0.0248  0.2950  1.2573
18898TIP3    H178185   4.668   3.700   1.838 -2.4445 -0.9563 -2.6571
18898TIP3    H278186   4.770   3.592   1.808 -0.8324 -0.1180 -0.4374
18899TIP3   OH278187   3.479   3.051  12.812 -0.3118 -0.1112 -0.0057
18899TIP3    H178188   3.416   3.071  12.880  2.6375 -0.5485  3.1232
18899TIP3    H278189   3.484   2.956  12.810 -1.4082 -0.1887 -2.0267
18900TIP3   OH278190   6.214   3.361  16.739  0.2282 -0.1466 -0.1892
18900TIP3    H178191   6.146   3.342  16.804  0.7187 -0.4500  0.2454
18900TIP3    H278192   6.272   3.285  16.742 -0.9124 -1.2085 -2.5672
18901TIP3   OH278193   4.072   5.479   3.239  0.2721 -0.1759  0.2766
18901TIP3    H178194   4.117   5.519   3.165 -0.6226 -0.6909 -0.5730
18901TIP3    H278195   4.069   5.547   3.306  1.6778  0.0817  0.1048
18902TIP3   OH278196   2.372   6.682   5.991 -0.0329  0.2599  0.1967
18902TIP3    H178197   2.460   6.717   5.975  0.2532 -1.0657 -1.4285
18902TIP3    H278198   2.329   6.749   6.043  0.9836  2.3106 -1.4635
18903TIP3   OH278199   4.371   0.029  15.824 -0.0603  0.2205  0.6136
18903TIP3    H178200   4.348   0.114  15.786 -1.7505  0.8050  2.7155
18903TIP3    H278201   4.305   0.015  15.892 -0.8907 -3.6054 -0.7530
18904TIP3   OH278202   4.783   2.910   5.040  0.1321  0.3846  0.3249
18904TIP3    H178203   4.851   2.971   5.070  0.9321 -0.2803 -0.1366
18904TIP3    H278204   4.806   2.891   4.950 -0.8096  0.3313  0.0904
18905TIP3   OH278205   0.877   2.834  12.358  0.7272 -0.3088  0.0420
18905TIP3    H178206   0.919   2.917  12.337  0.0104 -0.3255 -1.5993
18905TIP3    H278207   0.936   2.768  12.324  1.3754 -0.5198  1.4867
18906TIP3   OH278208   2.253   6.587  16.283 -0.0843 -0.4205 -0.4348
18906TIP3    H178209   2.323   6.568  16.220 -0.0343 -0.2121 -0.4423
18906TIP3    H278210   2.297   6.631  16.356  0.2011 -2.4213  0.6706
18907TIP3   OH278211   0.685   4.772   5.897 -0.2077  0.2246  0.3010
18907TIP3    H178212   0.664   4.719   5.820 -0.7768  0.0830  0.5440
18907TIP3    H278213   0.613   4.755   5.957 -1.4382  2.7290 -0.3405
18908TIP3   OH278214   0.852   2.152  11.561 -0.3022  1.2136 -0.2449
18908TIP3    H178215   0.918   2.122  11.622 -1.2814 -0.9539 -0.1531
18908TIP3    H278216   0.791   2.204  11.614 -0.7025  0.0283  0.4925
18909TIP3   OH278217   1.838   5.386  13.417 -0.3143  0.1084 -0.1731
18909TIP3    H178218   1.755   5.404  13.373  0.4755  0.5274 -1.5881
18909TIP3    H278219   1.904   5.417  13.355  0.8804  0.9163  1.4203
18910TIP3   OH278220   0.109   1.536  13.930  0.3081 -0.0461  0.6426
18910TIP3    H178221   0.198   1.532  13.966  0.3189 -2.0376  0.5221
18910TIP3    H278222   0.060   1.588  13.993  1.6771  1.6808  0.3629
18911TIP3   OH278223   3.383   5.163  10.972 -0.1727  0.4473 -0.0422
18911TIP3    H178224   3.357   5.071  10.972 -2.7205  1.0898 -0.0620
18911TIP3    H278225   3.376   5.190  10.881  0.5449  0.6718 -0.0355
18912TIP3   OH278226   0.098   0.341  15.749  0.1387 -0.0327  0.3443
18912TIP3    H178227   0.156   0.265  15.746 -0.4386 -0.4964  0.6786
18912TIP3    H278228   0.042   0.331  15.672  0.7148  0.5983 -0.1690
18913TIP3   OH278229   5.859   4.457  13.507 -0.4599  0.3614 -0.2771
18913TIP3    H178230   5.901   4.415  13.433 -1.9487  0.7840 -1.4076
18913TIP3    H278231   5.923   4.450  13.578  0.4456 -1.2766 -1.1970
18914TIP3   OH278232   3.223   0.712   5.428 -0.0366 -0.1918 -0.1280
18914TIP3    H178233   3.280   0.679   5.358  0.3652 -1.2431  0.6688
18914TIP3    H278234   3.212   0.637   5.487 -2.4709 -0.1304 -0.3883
18915TIP3   OH278235   4.565   3.443  16.800  0.0975 -0.5586 -0.6376
18915TIP3    H178236   4.479   3.406  16.822  0.2743 -1.6785 -1.7677
18915TIP3    H278237   4.601   3.383  16.735  2.5880 -1.2357  1.2164
18916TIP3   OH278238   6.526   4.110  10.152  0.0769 -0.0261  0.0706
18916TIP3    H178239   6.441   4.076  10.124  0.4376 -3.2767  2.3537
18916TIP3    H278240   6.573   4.034  10.185  2.5980  2.1560  2.0491
18917TIP3   OH278241   3.231   2.302  15.173  0.5410  0.4094  0.4412
18917TIP3    H178242   3.311   2.347  15.147 -0.0037  1.3627  0.3676
18917TIP3    H278243   3.225   2.227  15.114  2.3217 -0.7428  1.6246
18918TIP3   OH278244   5.387   5.580   4.424 -0.2535 -0.1139 -0.0446
18918TIP3    H178245   5.346   5.500   4.390 -0.5256  0.1239 -0.2744
18918TIP3    H278246   5.389   5.639   4.350  1.0791 -0.3395 -0.2123
18919TIP3   OH278247   2.498   4.482   2.897  0.0290  0.0823 -0.5408
18919TIP3    H178248   2.403   4.475   2.900  0.0380  0.1828  0.9559
18919TIP3    H278249   2.515   4.576   2.894  0.0717  0.0664 -0.7556
18920TIP3   OH278250   5.941   3.499   4.552  0.2111  0.2232  0.0110
18920TIP3    H178251   5.878   3.570   4.544 -1.1783 -1.0618 -0.9878
18920TIP3    H278252   5.984   3.495   4.466 -1.1062 -1.3236 -0.6402
18921TIP3   OH278253   3.499   5.836  12.996 -0.4782 -0.1699 -0.0815
18921TIP3    H178254   3.566   5.868  12.935 -1.4399  0.1856 -0.9938
18921TIP3    H278255   3.441   5.911  13.010 -0.9198 -0.5810  0.3624
18922TIP3   OH278256   3.125   4.334  15.081  0.7131 -0.3452  0.0438
18922TIP3    H178257   3.162   4.265  15.026  0.3755  0.4978 -1.2656
18922TIP3    H278258   3.030   4.318  15.079  0.5499  0.6687 -0.9967
18923TIP3   OH278259   2.655   2.998  16.855 -0.6417  0.3837  0.0738
18923TIP3    H178260   2.734   2.958  16.892 -0.3659  1.7247  0.9710
18923TIP3    H278261   2.583   2.959  16.905 -0.2657  2.3503  2.3178
18924TIP3   OH278262   6.238   3.593  16.015  0.0666  0.6540  0.2983
18924TIP3    H178263   6.154   3.637  16.027  1.9107  4.0567  2.0758
18924TIP3    H278264   6.301   3.664  16.007  3.1752 -1.7086  1.9390
18925TIP3   OH278265   5.289   3.435  13.534 -0.3041  1.1195 -0.0508
18925TIP3    H178266   5.292   3.352  13.487 -0.7963  1.4371 -0.6635
18925TIP3    H278267   5.227   3.421  13.605 -0.2238  0.9012 -0.0232
18926TIP3   OH278268   5.302   4.184  15.809  0.2420  0.3641 -0.6189
18926TIP3    H178269   5.355   4.188  15.889  0.0138  1.4944 -0.5042
18926TIP3    H278270   5.284   4.091  15.797 -0.4447  0.2411  1.1297
18927TIP3   OH278271   3.055   2.005   4.180  0.1323 -0.0785  0.1113
18927TIP3    H178272   2.966   1.970   4.177  0.3439 -0.7330  0.8497
18927TIP3    H278273   3.070   2.022   4.273  0.6477  0.3906 -0.0538
18928TIP3   OH278274   4.095   1.740   1.017  0.3639 -0.2912 -0.4161
18928TIP3    H178275   4.147   1.818   0.998  1.1225 -0.6962 -0.0416
18928TIP3    H278276   4.048   1.761   1.098  0.8385 -0.3569 -0.1256
18929TIP3   OH278277   6.837   2.536  11.322 -0.7250 -0.7536  0.4396
18929TIP3    H178278   6.924   2.564  11.347 -1.4727  1.0634  1.1362
18929TIP3    H278279   6.851   2.453  11.275  1.4407  0.0113 -0.3726
18930TIP3   OH278280   6.610   1.594  10.477  0.3099 -0.4506 -0.0800
18930TIP3    H178281   6.587   1.671  10.425 -0.7039  0.9509  2.2621
18930TIP3    H278282   6.526   1.557  10.504  0.8042 -1.6407 -0.1529
18931TIP3   OH278283   0.340   2.920   1.973 -0.4496 -0.1183  0.3749
18931TIP3    H178284   0.426   2.885   1.997 -0.8035 -0.8535  0.6091
18931TIP3    H278285   0.354   3.014   1.963  0.0304  0.0121  2.0369
18932TIP3   OH278286   2.866   1.053  12.739 -0.5128 -0.0627  0.5991
18932TIP3    H178287   2.842   0.997  12.812 -2.8219  0.9768  0.7043
18932TIP3    H278288   2.818   1.135  12.753  2.4920  1.9309  0.3214
18933TIP3   OH278289   6.385   2.271   4.295 -0.5879 -0.2877 -0.1009
18933TIP3    H178290   6.362   2.357   4.331 -0.1610  0.4327 -1.4899
18933TIP3    H278291   6.405   2.218   4.372  0.3912  1.2212  0.7384
18934TIP3   OH278292   0.671   6.186  11.327  0.1654  0.0486  0.2059
18934TIP3    H178293   0.656   6.273  11.365  0.0853  0.2814 -0.3517
18934TIP3    H278294   0.608   6.130  11.371 -0.2091  0.3977  0.1197
18935TIP3   OH278295   6.532   6.576   1.827 -0.1003  0.2316  0.5224
18935TIP3    H178296   6.568   6.539   1.746  1.1595  0.5935  0.8997
18935TIP3    H278297   6.597   6.556   1.894 -1.4179 -0.6374  1.6095
18936TIP3   OH278298   1.500   1.119   1.090 -0.5697  0.3984 -0.0407
18936TIP3    H178299   1.525   1.055   1.023 -0.5345 -2.8874  2.8557
18936TIP3    H278300   1.405   1.113   1.095 -0.6224  1.0449 -0.1113
18937TIP3   OH278301   1.498   2.663  11.696  0.1617 -0.0412 -0.0400
18937TIP3    H178302   1.439   2.592  11.721  0.5809 -0.6306 -0.6738
18937TIP3    H278303   1.446   2.742  11.704 -0.8432 -0.5909 -0.9922
18938TIP3   OH278304   4.955   1.923   5.085  0.1151  0.2878 -0.1252
18938TIP3    H178305   4.918   1.959   5.165 -0.2640  2.4834 -1.2167
18938TIP3    H278306   5.037   1.970   5.072 -0.0440  0.2928 -1.2540
18939TIP3   OH278307   5.473   3.738   3.286  0.2274  0.3918  0.2657
18939TIP3    H178308   5.433   3.654   3.264 -0.2719  0.5888  0.4179
18939TIP3    H278309   5.566   3.718   3.295 -0.1076 -0.5329  2.1326
18940TIP3   OH278310   0.424   5.764  15.827  0.0186  0.1334 -0.1211
18940TIP3    H178311   0.518   5.760  15.842  0.2754 -1.7897 -1.8492
18940TIP3    H278312   0.412   5.836  15.766 -0.0070  2.0415  1.9857
18941TIP3   OH278313   1.827   2.878  14.368 -0.3350  0.1884  0.3553
18941TIP3    H178314   1.829   2.786  14.395  1.8394 -1.4214 -4.1588
18941TIP3    H278315   1.765   2.880  14.295  2.3502  1.2263 -2.1100
18942TIP3   OH278316   6.406   4.814   4.926 -0.2228 -0.2903  0.0025
18942TIP3    H178317   6.369   4.895   4.960  1.8883  0.9122 -0.3443
18942TIP3    H278318   6.410   4.827   4.832 -0.2097 -0.9718 -0.0979
18943TIP3   OH278319   0.625   3.109   2.751 -0.4048  0.2017  0.3051
18943TIP3    H178320   0.632   3.029   2.699  1.1165  0.5977 -0.1353
18943TIP3    H278321   0.565   3.165   2.700  0.0116  0.0650 -0.3382
18944TIP3   OH278322   4.842   5.890   1.575 -0.1965  0.0975  0.5411
18944TIP3    H178323   4.879   5.802   1.583  1.2056  0.4547 -1.2112
18944TIP3    H278324   4.766   5.878   1.519  0.5576  0.0935 -0.5186
18945TIP3   OH278325   6.537   5.837  16.336 -0.4809 -0.5238  0.8687
18945TIP3    H178326   6.588   5.876  16.265  0.0060  0.0163  1.5059
18945TIP3    H278327   6.532   5.744  16.314 -1.0700 -0.2434 -0.3172
18946TIP3   OH278328   5.444   3.286   3.503 -0.7655  0.5204 -0.2046
18946TIP3    H178329   5.483   3.336   3.575  0.6371  1.4754 -1.5733
18946TIP3    H278330   5.392   3.219   3.547 -2.0217  2.5965  1.7295
18947TIP3   OH278331   3.258   5.197  16.609 -0.1006  0.2237 -0.3052
18947TIP3    H178332   3.308   5.207  16.689 -0.4924 -0.8938  0.0990
18947TIP3    H278333   3.169   5.223  16.634 -0.4310 -1.0418 -0.0991
18948TIP3   OH278334   2.728   1.332   4.359  0.5688 -0.4673 -0.4360
18948TIP3    H178335   2.649   1.341   4.412  2.2719 -0.3896  2.2773
18948TIP3    H278336   2.753   1.241   4.368  1.6460 -0.1333  0.1071
18949TIP3   OH278337   0.298   3.957   1.898  0.5556 -0.4285  0.1912
18949TIP3    H178338   0.299   3.946   1.993 -0.3882 -0.0481  0.2538
18949TIP3    H278339   0.379   4.004   1.879 -0.2046  1.2989  1.0528
18950TIP3   OH278340   3.578   3.145  11.112  0.1248  0.2194  0.6750
18950TIP3    H178341   3.548   3.225  11.155 -0.5587  0.8465 -0.8940
18950TIP3    H278342   3.499   3.109  11.071  0.4947 -1.0882  1.0594
18951TIP3   OH278343   6.006   6.856   4.829  0.5915 -0.1297 -0.0919
18951TIP3    H178344   6.070   6.923   4.806  1.1686  0.2132  2.2847
18951TIP3    H278345   5.933   6.904   4.869  0.7992 -0.8517  1.2044
18952TIP3   OH278346   3.745   5.585  13.191 -0.3000 -0.1201  0.2238
18952TIP3    H178347   3.664   5.634  13.204 -0.4163 -0.3690  0.4372
18952TIP3    H278348   3.794   5.637  13.127 -0.7051 -0.0621 -0.0437
18953TIP3   OH278349   6.549   3.558   4.013 -0.0363 -0.2039 -0.2746
18953TIP3    H178350   6.523   3.649   4.003  0.7556  0.0811  0.1601
18953TIP3    H278351   6.637   3.562   4.051 -0.9740 -1.1503  2.2205
18954TIP3   OH278352   0.322   2.971   2.791 -0.7124  0.2529 -0.3419
18954TIP3    H178353   0.275   2.947   2.871  1.6078 -1.3769  0.6492
18954TIP3    H278354   0.411   2.991   2.821  0.3950 -1.0022 -2.5177
18955TIP3   OH278355   5.230   3.499   0.408  0.0063 -0.1328 -0.1469
18955TIP3    H178356   5.244   3.428   0.345  1.1328  0.3314 -0.4629
18955TIP3    H278357   5.296   3.565   0.384 -1.2323  1.1782 -0.0920
18956TIP3   OH278358   3.874   6.034   1.019  0.1441 -0.3184 -0.0031
18956TIP3    H178359   3.921   6.085   1.085  0.6235 -1.6803  0.7416
18956TIP3    H278360   3.925   6.046   0.939  0.1225  0.5286  0.0946
18957TIP3   OH278361   5.370   0.977   2.314  0.4315 -0.1820 -0.0045
18957TIP3    H178362   5.424   1.028   2.375  0.5937 -1.5406  1.0236
18957TIP3    H278363   5.384   0.886   2.339 -0.8028 -0.6827 -1.0215
18958TIP3   OH278364   5.020   3.521  13.220 -0.0829 -0.2012 -0.7834
18958TIP3    H178365   4.939   3.569  13.200 -0.4112 -0.4769 -0.1384
18958TIP3    H278366   5.020   3.512  13.315  2.3766  2.7429 -0.3436
18959TIP3   OH278367   6.852   0.558   1.762  0.2513  0.8629  0.2239
18959TIP3    H178368   6.799   0.568   1.841  0.5329  2.4207  0.2367
18959TIP3    H278369   6.941   0.545   1.794  0.1617  0.0322  0.1673
18960TIP3   OH278370   6.182   1.285  15.549 -0.2515  0.6191 -0.5634
18960TIP3    H178371   6.176   1.207  15.604 -1.0404  1.1484  0.1389
18960TIP3    H278372   6.095   1.293  15.509 -0.7691  2.0426  0.6980
18961TIP3   OH278373   6.601   4.976  15.709 -0.2331  0.4957  0.1674
18961TIP3    H178374   6.609   5.071  15.721  1.6819  0.2772  1.1481
18961TIP3    H278375   6.647   4.939  15.784  3.0711 -1.1442 -2.3763
18962TIP3   OH278376   2.800   3.341   0.302  0.8056 -0.6947 -0.3988
18962TIP3    H178377   2.790   3.396   0.380  0.5261  0.2395 -1.0760
18962TIP3    H278378   2.832   3.401   0.235  2.2246 -1.7405 -0.7014
18963TIP3   OH278379   6.559   2.428   1.336 -0.0725  0.3557  0.2937
18963TIP3    H178380   6.619   2.451   1.407 -0.8329 -0.7822  1.3623
18963TIP3    H278381   6.568   2.333   1.328 -0.6908  0.3547 -0.5056
18964TIP3   OH278382   1.538   4.762   5.511 -0.2113 -0.1221 -0.1683
18964TIP3    H178383   1.551   4.736   5.420 -0.9773  0.8849 -0.5873
18964TIP3    H278384   1.468   4.827   5.508 -1.6654 -1.5151  1.3711
18965TIP3   OH278385   5.062   0.154   5.465  0.3556  0.2671 -0.6669
18965TIP3    H178386   4.992   0.146   5.400  1.2676  2.7767 -2.0670
18965TIP3    H278387   5.020   0.129   5.547 -1.9967  0.9265 -1.5784
18966TIP3   OH278388   6.117   0.393   0.156  0.1314 -0.4559  0.6089
18966TIP3    H178389   6.185   0.418   0.094 -0.1272 -0.7568  0.2009
18966TIP3    H278390   6.097   0.302   0.135  0.7314 -0.8787  1.7725
18967TIP3   OH278391   2.734   5.978  16.455 -0.1182 -0.0466  0.0201
18967TIP3    H178392   2.770   5.921  16.388 -0.8765  0.6213 -0.9892
18967TIP3    H278393   2.721   6.062  16.411 -1.2542  0.2191  0.8063
18968TIP3   OH278394   0.149   3.247   0.702  0.1260 -0.0650 -0.0136
18968TIP3    H178395   0.091   3.182   0.662  1.7989 -1.5367 -0.1474
18968TIP3    H278396   0.236   3.207   0.699  1.2338  2.1994 -0.1332
18969TIP3   OH278397   4.480   1.993  15.395  0.1349 -0.0101  0.1040
18969TIP3    H178398   4.563   2.030  15.364 -0.9208  1.9678 -0.5143
18969TIP3    H278399   4.473   1.909  15.349  1.3479  0.2227 -0.5538
18970TIP3   OH278400   5.732   3.507   9.833 -0.3462 -0.2831  0.2026
18970TIP3    H178401   5.801   3.572   9.849  0.1132 -0.6899 -0.0988
18970TIP3    H278402   5.724   3.461   9.916 -0.0988 -0.3773  0.1768
18971TIP3   OH278403   0.891   3.671   2.231 -0.1713 -0.7891  0.1142
18971TIP3    H178404   0.887   3.579   2.207 -0.2026 -0.6007 -0.6209
18971TIP3    H278405   0.985   3.691   2.236 -0.0470 -0.0614 -2.9959
18972TIP3   OH278406   3.293   3.226  15.297 -0.0031 -0.4624  0.8025
18972TIP3    H178407   3.324   3.305  15.343  0.9998 -0.2373 -0.2066
18972TIP3    H278408   3.363   3.163  15.310  0.5372 -0.2378 -0.7870
18973TIP3   OH278409   4.675   6.423   2.864 -0.4758  0.2281 -0.2666
18973TIP3    H178410   4.683   6.365   2.789  0.9716 -0.9310  0.7266
18973TIP3    H278411   4.582   6.420   2.887 -0.3247 -2.3608  0.2415
18974TIP3   OH278412   6.625   1.032   1.926  0.1316 -0.0059  0.4133
18974TIP3    H178413   6.704   0.988   1.894  1.2344  1.4514  0.9769
18974TIP3    H278414   6.557   0.966   1.923  1.5404 -1.5211  0.5779
18975TIP3   OH278415   2.557   5.557   5.206 -0.4443  0.2120 -0.2317
18975TIP3    H178416   2.521   5.621   5.267  0.5802  0.2059  0.3914
18975TIP3    H278417   2.528   5.588   5.120 -0.0516  1.4687  0.0676
18976TIP3   OH278418   2.829   5.216   2.720  0.0727 -0.4101  0.7593
18976TIP3    H178419   2.755   5.276   2.712 -0.1489 -0.8862 -1.2863
18976TIP3    H278420   2.790   5.133   2.747  0.0042 -0.3791  0.7561
18977TIP3   OH278421   4.443   6.795  11.071 -0.1354  0.3976  0.6077
18977TIP3    H178422   4.370   6.806  11.132 -2.2760 -0.4682 -1.5935
18977TIP3    H278423   4.413   6.838  10.991  2.0265  0.4472 -0.2391
18978TIP3   OH278424   1.581   3.941  16.708  0.5711 -0.5742 -0.0817
18978TIP3    H178425   1.666   3.978  16.735  0.1202  1.2061 -0.9731
18978TIP3    H278426   1.604   3.858  16.667  1.8957 -0.1491 -0.2748
18979TIP3   OH278427   1.909   5.881   1.062  0.6038 -0.0322 -0.3541
18979TIP3    H178428   1.855   5.955   1.089 -0.8031 -1.2086  0.1845
18979TIP3    H278429   1.963   5.861   1.139  1.0207  0.4292 -0.5160
18980TIP3   OH278430   3.023   3.521  13.854 -0.2128  0.0029 -0.2247
18980TIP3    H178431   3.058   3.435  13.876 -1.2933 -0.1229  1.0957
18980TIP3    H278432   3.097   3.580  13.868 -0.0042 -0.4790  0.8166
18981TIP3   OH278433   6.259   5.325   4.328  1.0365  0.7303 -0.3626
18981TIP3    H178434   6.170   5.290   4.335  0.4529  2.1694 -0.3968
18981TIP3    H278435   6.314   5.258   4.368 -0.1725  0.2675  0.5722
18982TIP3   OH278436   0.196   2.784   5.714  0.1476 -0.8105  0.4586
18982TIP3    H178437   0.245   2.713   5.674  0.2895 -0.8093  0.6266
18982TIP3    H278438   0.257   2.823   5.777  1.1479  1.4047 -1.7397
18983TIP3   OH278439   0.228   1.733  11.494 -0.1178 -0.2897 -0.0905
18983TIP3    H178440   0.196   1.643  11.491 -0.5503 -0.1299 -0.4698
18983TIP3    H278441   0.289   1.735  11.568 -1.0569 -0.5770  0.7037
18984TIP3   OH278442   0.955   6.836  16.992 -0.4113  0.2388 -0.3468
18984TIP3    H178443   1.026   6.871  17.045 -0.6216  1.0295 -0.5635
18984TIP3    H278444   0.998   6.790  16.920 -0.1148  0.6548 -0.4368
18985TIP3   OH278445   0.641   2.692  11.542  0.1942 -0.2026  0.4059
18985TIP3    H178446   0.648   2.711  11.636 -0.2533 -2.0663  0.8519
18985TIP3    H278447   0.579   2.619  11.537  0.3897 -0.2834 -1.3293
18986TIP3   OH278448   0.740   1.753   4.770 -0.2869  0.0639  0.0565
18986TIP3    H178449   0.787   1.720   4.694  1.7302 -0.7903  1.6120
18986TIP3    H278450   0.711   1.841   4.744 -0.8208 -0.6987 -2.1269
18987TIP3   OH278451   2.989   1.204   7.090 -0.3936  0.5144  0.5505
18987TIP3    H178452   3.018   1.204   6.999  1.7114  1.0492  1.1675
18987TIP3    H278453   2.968   1.295   7.109  0.5533  0.6591  0.9754
18988TIP3   OH278454   0.070   2.393  14.282 -0.4145  0.2256  0.0969
18988TIP3    H178455   0.103   2.348  14.359 -1.1208 -0.7528 -0.1538
18988TIP3    H278456   0.010   2.459  14.316  0.2478  0.6686  0.4365
18989TIP3   OH278457   4.484   0.953  13.652 -0.1883 -0.1937 -0.2905
18989TIP3    H178458   4.502   0.903  13.572  2.3401 -0.0477  0.1106
18989TIP3    H278459   4.509   1.042  13.630 -1.7613  0.3501 -0.0244
18990TIP3   OH278460   5.856   6.122   1.513  0.2301 -0.0784 -0.0178
18990TIP3    H178461   5.859   6.216   1.529  1.0790 -0.1135  0.0589
18990TIP3    H278462   5.798   6.112   1.438  1.7584  0.6865 -1.3450
18991TIP3   OH278463   0.014   2.886   5.542 -0.4350 -1.3053 -0.1555
18991TIP3    H178464   0.086   2.849   5.593  0.9965  0.1143 -1.0533
18991TIP3    H278465  -0.012   2.965   5.590 -2.2808 -2.4209  0.8084
18992TIP3   OH278466   6.217   1.067   2.847 -0.0138  0.0934 -0.4722
18992TIP3    H178467   6.210   0.986   2.899 -1.3067  1.4239  1.5931
18992TIP3    H278468   6.311   1.083   2.840  0.2633 -1.4976 -0.8262
18993TIP3   OH278469   4.701   1.242   4.051 -0.1486  0.1578  0.2813
18993TIP3    H178470   4.737   1.195   4.127 -0.8648  0.3359  0.7452
18993TIP3    H278471   4.778   1.268   4.000  0.4926  1.5752  1.8648
18994TIP3   OH278472   6.422   3.357   5.428  0.4003  0.3413 -0.5102
18994TIP3    H178473   6.502   3.399   5.457  0.8568 -0.3725 -0.7071
18994TIP3    H278474   6.384   3.319   5.508  1.5456 -1.4375 -0.7570
18995TIP3   OH278475   5.107   2.750  15.942  0.2704 -0.0627 -0.1691
18995TIP3    H178476   5.016   2.775  15.959 -0.2015 -1.1665 -1.0167
18995TIP3    H278477   5.123   2.678  16.003  0.0281 -0.9782 -1.1638
18996TIP3   OH278478   3.718   4.687  14.632 -0.1340 -0.3618 -0.2973
18996TIP3    H178479   3.669   4.734  14.699  0.3473 -0.4938  0.1553
18996TIP3    H278480   3.792   4.744  14.612 -0.6909  0.0342 -1.2919
18997TIP3   OH278481   1.240   5.503   3.683 -0.5184  0.2224 -0.7375
18997TIP3    H178482   1.145   5.499   3.671 -0.8364  3.3677 -0.2292
18997TIP3    H278483   1.273   5.549   3.606  0.2816  1.0496  0.0656
18998TIP3   OH278484   5.698   6.119  16.806  0.0740  0.0855  0.3770
18998TIP3    H178485   5.638   6.048  16.782  0.9113 -0.3207 -0.5955
18998TIP3    H278486   5.749   6.084  16.879  0.7762 -0.5113 -0.3718
18999TIP3   OH278487   5.209   6.689   3.321  0.0547 -0.1437  0.2423
18999TIP3    H178488   5.181   6.778   3.298  0.2654  0.2970  1.5522
18999TIP3    H278489   5.286   6.703   3.376  1.0822 -1.2187 -0.9001
19000TIP3   OH278490   2.330   5.345   5.053 -0.1078 -0.4041  0.7651
19000TIP3    H178491   2.413   5.307   5.024  1.0065  1.2284  1.6693
19000TIP3    H278492   2.355   5.413   5.115 -1.8502  2.7584 -1.7074
19001TIP3   OH278493   4.271   6.295   3.160  0.5900  0.4732  0.6314
19001TIP3    H178494   4.308   6.335   3.081  0.4600 -1.0451 -0.2512
19001TIP3    H278495   4.302   6.205   3.158 -2.2835 -0.6356  0.3358
19002TIP3   OH278496   3.813   5.574   4.836  0.5275  0.3148 -0.0489
19002TIP3    H178497   3.760   5.495   4.837  1.3150 -0.2862 -1.6222
19002TIP3    H278498   3.903   5.542   4.828  0.9171  1.3522  0.0697
19003TIP3   OH278499   4.261   1.203   3.313 -0.2376  0.3995  0.1827
19003TIP3    H178500   4.330   1.217   3.248  0.7524  1.7723  1.4469
19003TIP3    H278501   4.290   1.128   3.364  0.2237  0.8079  0.5387
19004TIP3   OH278502   6.399   3.554  16.591  0.3344 -0.3012  0.0961
19004TIP3    H178503   6.383   3.486  16.525  0.4552 -0.6777  0.4469
19004TIP3    H278504   6.491   3.541  16.617  0.4881  0.2773 -0.1496
19005TIP3   OH278505   4.039   4.635   4.703  0.3445 -0.1458 -0.4230
19005TIP3    H178506   3.953   4.607   4.734  1.4624 -0.4674  2.7336
19005TIP3    H278507   4.057   4.716   4.751 -0.0776  2.7453 -4.6151
19006TIP3   OH278508   2.331   4.915  11.649 -0.3290 -0.2874  0.5424
19006TIP3    H178509   2.279   4.869  11.714  2.4279 -1.0501  2.3789
19006TIP3    H278510   2.355   4.847  11.585 -0.2601 -0.3107  0.5924
19007TIP3   OH278511   6.739   0.465  16.919  0.3811  0.1052 -0.6625
19007TIP3    H178512   6.775   0.426  16.839 -0.9383 -1.0772 -0.7282
19007TIP3    H278513   6.678   0.399  16.951 -1.7411  1.9911 -0.5907
19008TIP3   OH278514   0.658   0.643  12.639  0.2903  0.0612  0.3512
19008TIP3    H178515   0.681   0.718  12.585 -1.7920 -0.0425 -0.8077
19008TIP3    H278516   0.562   0.637  12.632  0.2435 -1.6976  1.7490
19009TIP3   OH278517   3.659   3.127  16.856  0.5942  0.7256 -0.0600
19009TIP3    H178518   3.665   3.216  16.821 -0.3897  0.6161 -0.5227
19009TIP3    H278519   3.748   3.093  16.848  0.8261  1.4173 -0.5460
19010TIP3   OH278520   6.417   0.875   5.884 -0.3833 -0.0708 -0.6224
19010TIP3    H178521   6.357   0.882   5.959  0.1900 -1.1381 -0.0402
19010TIP3    H278522   6.502   0.858   5.924 -0.0150 -0.3678 -1.5250
19011TIP3   OH278523   0.363   4.843   4.327 -0.4217 -0.0287 -0.2005
19011TIP3    H178524   0.435   4.824   4.386  0.9539  0.1057 -1.7510
19011TIP3    H278525   0.317   4.916   4.368  0.2335 -0.2047  0.8838
19012TIP3   OH278526   5.705   5.170  11.088 -0.1032 -0.4942 -0.1580
19012TIP3    H178527   5.737   5.228  11.019 -3.4953 -1.2743 -2.5904
19012TIP3    H278528   5.639   5.222  11.135  0.3960 -0.8063  0.9300
19013TIP3   OH278529   4.955   5.310   5.575 -0.3394 -0.2016  0.7425
19013TIP3    H178530   5.023   5.271   5.630  0.1788 -0.8458 -0.3265
19013TIP3    H278531   4.938   5.245   5.507 -3.0231 -0.6523  1.7316
19014TIP3   OH278532   4.410   2.630   1.611 -0.4284  0.7965 -0.2696
19014TIP3    H178533   4.373   2.574   1.680  1.9752  1.5657  1.7977
19014TIP3    H278534   4.413   2.717   1.650 -0.0619  1.4954 -1.8005
19015TIP3   OH278535   5.083   0.336  14.620  0.9376 -0.6366 -0.0049
19015TIP3    H178536   5.062   0.243  14.605  0.8899 -0.8205  1.1591
19015TIP3    H278537   5.176   0.337  14.641  0.7775 -0.5162  0.7225
19016TIP3   OH278538   3.336   2.885   0.230 -0.1761 -0.2558 -0.5508
19016TIP3    H178539   3.363   2.947   0.298 -1.3932  0.4999 -0.7149
19016TIP3    H278540   3.335   2.800   0.274  0.2805  0.0312  0.0317
19017TIP3   OH278541   1.322   1.820  15.460  0.0233  0.6743  0.0710
19017TIP3    H178542   1.367   1.888  15.511 -0.0548  2.0506 -1.5840
19017TIP3    H278543   1.281   1.764  15.525 -1.0056  2.9853  1.5493
19018TIP3   OH278544   2.555   4.747   2.912  0.5089 -0.3070 -0.2732
19018TIP3    H178545   2.564   4.795   2.994 -1.6026 -3.6640  2.2002
19018TIP3    H278546   2.548   4.815   2.845  1.0634  2.6667  2.4229
19019TIP3   OH278547   0.340   6.360  13.551  0.1771 -0.8728  0.5541
19019TIP3    H178548   0.425   6.325  13.577 -0.7696 -1.5580  3.0408
19019TIP3    H278549   0.294   6.284  13.515  0.2447 -0.7318  0.1630
19020TIP3   OH278550   4.512   3.169   5.849 -0.3679 -0.1722 -0.0486
19020TIP3    H178551   4.474   3.081   5.846 -0.2445 -0.2147 -2.8023
19020TIP3    H278552   4.588   3.160   5.906  0.3446 -2.1974 -1.2019
19021TIP3   OH278553   5.948   6.589  10.968 -0.1672 -0.6860  0.0196
19021TIP3    H178554   6.009   6.572  10.896  0.1256  1.7934 -0.4360
19021TIP3    H278555   5.981   6.670  11.007 -2.2563 -0.1618  0.7923
19022TIP3   OH278556   6.742   1.235  12.891  0.2134  0.1998 -0.3423
19022TIP3    H178557   6.771   1.289  12.818  0.2584  0.3442 -0.2180
19022TIP3    H278558   6.710   1.298  12.956  0.0826  0.0673 -0.2772
19023TIP3   OH278559   4.445   6.122   4.152 -0.4877  0.2874 -0.5905
19023TIP3    H178560   4.472   6.186   4.217  0.1402  0.1930 -0.7505
19023TIP3    H278561   4.395   6.173   4.087  0.1442  0.6480 -0.8000
19024TIP3   OH278562   5.827   2.123  13.619 -0.1583 -0.2329 -0.4036
19024TIP3    H178563   5.874   2.205  13.605 -1.5307  0.5038 -0.9319
19024TIP3    H278564   5.772   2.140  13.696  0.6597 -1.1829  0.4034
19025TIP3   OH278565   0.962   0.753   2.669  0.1482  0.3760  0.7391
19025TIP3    H178566   1.015   0.802   2.731 -0.2969  2.2893 -0.3009
19025TIP3    H278567   0.908   0.820   2.626  0.8972 -0.7060 -2.1647
19026TIP3   OH278568   3.047   3.146  16.152 -0.3322  0.1191 -0.2348
19026TIP3    H178569   2.960   3.147  16.192 -0.2734  1.0133 -0.1084
19026TIP3    H278570   3.094   3.216  16.197  1.2897 -1.9760  1.5430
19027TIP3   OH278571   0.432   1.859   5.641  0.6694 -0.0330 -0.4776
19027TIP3    H178572   0.433   1.797   5.715 -2.5655 -0.2048 -0.4408
19027TIP3    H278573   0.426   1.945   5.682 -1.7300 -0.1565 -0.4110
19028TIP3   OH278574   4.269   5.712   4.689  0.6898  0.2020 -0.0629
19028TIP3    H178575   4.206   5.668   4.746 -0.4840  1.0526 -0.6518
19028TIP3    H278576   4.337   5.647   4.674  0.2602 -0.5491  1.0833
19029TIP3   OH278577   5.213   4.646   1.052 -0.2019 -0.3369 -0.1850
19029TIP3    H178578   5.238   4.562   1.089 -2.2064 -0.9723 -0.1811
19029TIP3    H278579   5.120   4.655   1.072 -0.0942  1.8108 -0.3382
19030TIP3   OH278580   1.729   4.241  10.973  0.6813  0.8109  0.3374
19030TIP3    H178581   1.680   4.248  11.055  1.0114  3.0910  0.4033
19030TIP3    H278582   1.667   4.204  10.910 -1.2403  3.6546  0.3821
19031TIP3   OH278583   6.779   2.468   2.771  0.7901 -0.0828 -0.5307
19031TIP3    H178584   6.726   2.548   2.774  1.2347  0.3272 -2.5276
19031TIP3    H278585   6.847   2.482   2.837  0.1415  0.6218  0.0147
19032TIP3   OH278586   4.417   2.812   0.270  0.1614 -0.0411 -0.4634
19032TIP3    H178587   4.460   2.896   0.256  1.2193 -0.0791  2.0958
19032TIP3    H278588   4.325   2.834   0.284  0.0148  0.4278 -1.9695
19033TIP3   OH278589   5.016   6.555   6.085  0.0246 -0.6664  0.0165
19033TIP3    H178590   5.056   6.641   6.095  1.1395 -1.2861  1.1136
19033TIP3    H278591   5.086   6.493   6.105 -1.0788 -1.8191  0.4483
19034TIP3   OH278592   1.414   1.862  11.216  0.1751  0.3273  0.2912
19034TIP3    H178593   1.420   1.768  11.234 -0.4948  0.1340 -0.4501
19034TIP3    H278594   1.329   1.873  11.173  0.2542  1.2747  0.3519
19035TIP3   OH278595   2.522   1.530   3.759  0.6236  0.5624  0.1723
19035TIP3    H178596   2.484   1.442   3.769  2.0338  0.1535  3.2078
19035TIP3    H278597   2.613   1.514   3.735  0.4980  1.2850 -0.8119
19036TIP3   OH278598   5.439   3.732  14.291  0.1103  0.5014 -0.3619
19036TIP3    H178599   5.472   3.785  14.363 -1.3525 -0.6567  1.2650
19036TIP3    H278600   5.513   3.723  14.231  1.8490  0.3567  1.6856
19037TIP3   OH278601   4.887   0.869   4.493 -0.2532  0.2255  0.2355
19037TIP3    H178602   4.969   0.918   4.487  0.7087 -1.3152  0.3757
19037TIP3    H278603   4.820   0.931   4.463  0.6615  2.1605  1.9155
19038TIP3   OH278604   5.621   2.778  11.272 -0.1279 -0.4522 -0.2503
19038TIP3    H178605   5.692   2.832  11.307 -0.5484 -0.5538  0.8252
19038TIP3    H278606   5.613   2.706  11.335 -3.9915  1.7823  2.2625
19039TIP3   OH278607   6.534   6.238   0.922 -0.5779  0.0233  0.1256
19039TIP3    H178608   6.580   6.171   0.972 -0.7611 -0.6630 -0.6052
19039TIP3    H278609   6.588   6.251   0.844  0.5433  2.2312  1.2018
19040TIP3   OH278610   0.695   6.388  14.358  0.0923 -0.6901 -0.2130
19040TIP3    H178611   0.659   6.303  14.333  0.5409 -0.7395 -0.7033
19040TIP3    H278612   0.723   6.428  14.276  1.3206 -0.7279  0.1716
19041TIP3   OH278613   0.570   4.709  13.661 -0.1781  0.2404 -0.3231
19041TIP3    H178614   0.662   4.716  13.686 -0.1119  2.4668 -0.9206
19041TIP3    H278615   0.545   4.619  13.682  2.0408 -0.3177  0.1266
19042TIP3   OH278616   3.613   2.929   2.359  0.3062  0.0481  0.8659
19042TIP3    H178617   3.579   2.989   2.426  0.2294 -0.3283  1.1628
19042TIP3    H278618   3.585   2.842   2.387  0.9611 -0.2013  0.7723
19043TIP3   OH278619   0.457   4.234  13.381  0.4991  0.2034  0.2047
19043TIP3    H178620   0.488   4.322  13.402  0.0119  0.4883 -0.2540
19043TIP3    H278621   0.536   4.187  13.353  0.6016  0.7901 -0.5262
19044TIP3   OH278622   3.524   5.726  12.646 -0.1724  0.0046 -0.6620
19044TIP3    H178623   3.604   5.681  12.673 -0.5262 -0.4080 -0.2907
19044TIP3    H278624   3.505   5.691  12.559  0.3158  0.4636 -0.9569
19045TIP3   OH278625   5.515   2.830  14.032  0.1018 -0.4471  0.0634
19045TIP3    H178626   5.482   2.838  14.122  3.1276  2.2586  1.1464
19045TIP3    H278627   5.507   2.918  13.996  1.9027 -0.7241 -1.1279
19046TIP3   OH278628   2.012   1.229  12.137 -0.0321  0.1769 -0.6802
19046TIP3    H178629   1.951   1.264  12.201  0.8925  0.9868 -0.2214
19046TIP3    H278630   1.987   1.271  12.054 -0.2326  0.3343 -0.5405
19047TIP3   OH278631   3.933   4.954   5.332  0.0726  0.1503 -0.2396
19047TIP3    H178632   3.969   4.945   5.420 -0.3271 -0.1514 -0.1039
19047TIP3    H278633   3.935   4.865   5.296 -1.1600  0.0076  0.0154
19048TIP3   OH278634   2.388   4.724   4.861  0.6451  0.8638 -0.2364
19048TIP3    H178635   2.459   4.664   4.883  0.7278  0.4172 -1.6368
19048TIP3    H278636   2.334   4.727   4.939 -0.1524 -2.1742 -0.5746
19049TIP3   OH278637   2.481   4.288   0.765 -0.2839 -0.3383 -0.2281
19049TIP3    H178638   2.466   4.305   0.858  0.9744  0.8037 -0.1971
19049TIP3    H278639   2.492   4.375   0.726  3.4311 -0.8244 -0.6542
19050TIP3   OH278640   4.493   1.534   3.205 -0.2558  0.9478  0.0186
19050TIP3    H178641   4.411   1.517   3.158 -0.3337  2.6828 -0.5618
19050TIP3    H278642   4.467   1.578   3.285  0.0740  1.1236  0.0333
19051TIP3   OH278643   3.865   4.747  16.252  0.0294  0.5733  0.2025
19051TIP3    H178644   3.777   4.713  16.266  0.0175  0.9507  1.0741
19051TIP3    H278645   3.881   4.733  16.158 -0.3733 -0.8428  0.3305
19052TIP3   OH278646   4.197   2.829  12.910 -0.3136 -0.7961 -0.1878
19052TIP3    H178647   4.193   2.745  12.956 -0.6014 -0.8117 -0.2373
19052TIP3    H278648   4.208   2.893  12.980  3.0551 -1.0649 -0.2962
19053TIP3   OH278649   5.759   6.034  10.730 -0.6806  0.2249  0.4496
19053TIP3    H178650   5.797   6.079  10.655  1.0298 -1.6299  0.0992
19053TIP3    H278651   5.667   6.023  10.708 -0.3513  0.3578 -1.0722
19054TIP3   OH278652   3.198   4.745   0.058  0.0698 -0.2507  0.2293
19054TIP3    H178653   3.230   4.771   0.144  2.1282  1.9128 -1.0850
19054TIP3    H278654   3.232   4.811  -0.002 -0.2902 -2.3178 -2.4452
19055TIP3   OH278655   6.448   2.765  11.168 -0.1984 -0.5987 -0.2755
19055TIP3    H178656   6.418   2.687  11.122  1.1733 -2.6509  2.0519
19055TIP3    H278657   6.543   2.763  11.160 -0.1602  1.9817 -1.7394
19056TIP3   OH278658   3.999   3.638   3.160  0.1710  0.6258  0.3352
19056TIP3    H178659   3.977   3.715   3.107 -0.2999  1.5587  1.8055
19056TIP3    H278660   4.094   3.643   3.170  0.0483  1.5918  1.2069
19057TIP3   OH278661   0.600   1.213   1.496 -0.4901  0.8060 -0.1354
19057TIP3    H178662   0.678   1.197   1.549 -0.0281 -0.6216 -1.1880
19057TIP3    H278663   0.565   1.296   1.530  0.6237  0.7164  1.3536
19058TIP3   OH278664   2.227   1.101  15.127  0.4358  0.4987  0.0893
19058TIP3    H178665   2.192   1.081  15.040 -0.4500  1.6513  0.1535
19058TIP3    H278666   2.322   1.101  15.115  0.3279  2.6616 -1.4087
19059TIP3   OH278667   5.738   4.390  15.731  0.4060  0.2206  0.8703
19059TIP3    H178668   5.828   4.420  15.744  0.8808 -0.3326 -0.8938
19059TIP3    H278669   5.728   4.385  15.636 -0.4265 -2.8364  1.0392
19060TIP3   OH278670   0.781   0.194   4.121  0.1917 -0.0692 -0.3159
19060TIP3    H178671   0.759   0.125   4.058 -0.6309  1.6698 -2.0214
19060TIP3    H278672   0.718   0.183   4.193  1.7120 -2.6403  0.7558
19061TIP3   OH278673   2.026   4.392   4.188 -0.0191  0.2788  0.6690
19061TIP3    H178674   1.950   4.362   4.238 -0.0711  1.1509  1.1219
19061TIP3    H278675   1.989   4.449   4.121  0.1616  0.0466  0.3713
19062TIP3   OH278676   2.495   3.947  15.948  0.1686 -0.1305 -0.8117
19062TIP3    H178677   2.479   3.854  15.967  2.3981 -0.6395 -1.2169
19062TIP3    H278678   2.424   3.972  15.889 -1.5465 -1.0272  0.7395
19063TIP3   OH278679   1.518   1.215   6.540 -0.7974 -0.0102 -0.3665
19063TIP3    H178680   1.571   1.136   6.551 -1.2986 -0.1643  1.2041
19063TIP3    H278681   1.582   1.284   6.517 -0.1663 -0.5579 -0.2797
19064TIP3   OH278682   4.878   2.870  14.283 -0.2975  0.5697  0.2736
19064TIP3    H178683   4.886   2.874  14.378 -2.0050  0.5279  0.4470
19064TIP3    H278684   4.856   2.779  14.263 -2.9510  1.1747  0.1553
19065TIP3   OH278685   0.066   5.994  14.033  0.1433  0.0346 -0.0915
19065TIP3    H178686  -0.021   5.980  14.072 -1.5583  1.1921 -3.1530
19065TIP3    H278687   0.094   6.079  14.068 -0.1893 -0.0732  0.4587
19066TIP3   OH278688   5.006   3.665  13.743 -0.7803 -0.0538 -0.0789
19066TIP3    H178689   5.083   3.619  13.776 -0.1968  1.3763  0.6074
19066TIP3    H278690   4.972   3.714  13.818 -0.9533  1.1973 -0.9407
19067TIP3   OH278691   4.680   5.731   3.728  0.6520 -0.3127  0.3071
19067TIP3    H178692   4.605   5.715   3.786 -0.9578  0.5804 -1.4431
19067TIP3    H278693   4.756   5.708   3.782 -0.8646 -1.8704  1.9431
19068TIP3   OH278694   2.354   3.227  16.708 -0.1349  0.2924 -0.0384
19068TIP3    H178695   2.432   3.227  16.653 -0.2831 -0.9833 -0.2776
19068TIP3    H278696   2.282   3.244  16.647 -0.2727 -0.8775 -0.2320
19069TIP3   OH278697   2.999   0.621   1.081  0.1455  0.2047  0.2748
19069TIP3    H178698   2.992   0.708   1.042  0.7464 -0.3022 -1.0073
19069TIP3    H278699   2.916   0.578   1.060  0.7246 -0.2989 -1.0744
19070TIP3   OH278700   6.036   6.357  14.796 -0.7292 -0.5481 -0.2588
19070TIP3    H178701   6.063   6.423  14.859 -1.4828 -0.8792  0.4272
19070TIP3    H278702   5.940   6.359  14.799 -0.8207  0.2567 -2.2679
19071TIP3   OH278703   0.680   4.108  11.666  0.0354  0.3409 -0.3745
19071TIP3    H178704   0.635   4.083  11.746 -1.4506 -0.6524 -1.4638
19071TIP3    H278705   0.763   4.060  11.669  0.1164  0.5393  0.6899
19072TIP3   OH278706   5.566   3.951  10.492 -0.7116 -0.1575  0.7417
19072TIP3    H178707   5.583   4.015  10.422  0.1848  1.1275  2.0788
19072TIP3    H278708   5.602   3.869  10.458 -1.3373  0.1448 -0.7632
19073TIP3   OH278709   3.273   0.956   4.710  0.3827 -0.3005 -0.1076
19073TIP3    H178710   3.256   1.047   4.734  0.0163  0.4494 -2.8184
19073TIP3    H278711   3.193   0.910   4.733  0.2158  0.2365  0.4240
19074TIP3   OH278712   2.806   1.518  12.841  1.0412  0.0347  0.0986
19074TIP3    H178713   2.790   1.553  12.929  0.9063  0.3260 -0.0410
19074TIP3    H278714   2.771   1.429  12.845  2.6354 -0.5874  0.8744
19075TIP3   OH278715   6.208   6.375   2.572  0.1248 -0.0946  0.5176
19075TIP3    H178716   6.191   6.329   2.655  0.7034  0.0815  0.7409
19075TIP3    H278717   6.294   6.344   2.546 -0.3219 -0.6340 -0.3591
19076TIP3   OH278718   0.775   3.361  11.845 -0.9137  0.0247 -0.1640
19076TIP3    H178719   0.750   3.391  11.757 -0.3043 -1.0664 -0.7228
19076TIP3    H278720   0.800   3.441  11.891 -1.0668  0.5912 -1.0353
19077TIP3   OH278721   1.637   3.441  12.901  0.3452 -0.2192 -0.5526
19077TIP3    H178722   1.643   3.377  12.972  2.4319 -0.6831 -1.0915
19077TIP3    H278723   1.700   3.411  12.836 -1.3716  0.2889 -2.5618
19078TIP3   OH278724   3.358   6.170   4.595 -0.1609  0.0026  0.2220
19078TIP3    H178725   3.334   6.168   4.688 -1.6091 -0.4645 -0.1312
19078TIP3    H278726   3.305   6.242   4.559 -0.7670 -0.7968 -0.5206
19079TIP3   OH278727   3.468   6.381   3.584  0.5056  0.3687  0.4813
19079TIP3    H178728   3.532   6.449   3.561  0.3715  0.0405 -0.9064
19079TIP3    H278729   3.518   6.300   3.582  0.0054  0.0738 -0.8930
19080TIP3   OH278730   0.255   6.850   2.442 -0.3368 -0.1533 -0.0884
19080TIP3    H178731   0.239   6.865   2.536 -0.3583 -2.3810  0.3065
19080TIP3    H278732   0.187   6.901   2.398  1.4401  3.4070  0.8826
19081TIP3   OH278733   1.324   3.991  13.631  0.3775 -0.6087  0.4737
19081TIP3    H178734   1.416   4.009  13.609  0.3116 -0.8628 -0.0265
19081TIP3    H278735   1.314   3.898  13.615  0.3612 -0.8359  1.7578
19082TIP3   OH278736   6.783   5.536   3.999  0.3713 -0.2028 -0.0266
19082TIP3    H178737   6.779   5.632   4.001 -0.4428 -0.1298 -2.2088
19082TIP3    H278738   6.814   5.516   3.911  2.5773 -1.9648  1.0312
19083TIP3   OH278739   6.572   2.874  12.799 -0.0253 -0.4307  0.3176
19083TIP3    H178740   6.497   2.933  12.805 -0.1422 -0.4360 -0.8174
19083TIP3    H278741   6.540   2.791  12.832 -1.2472 -1.0485 -2.2043
19084TIP3   OH278742   4.775   4.946   2.231  0.1220 -0.6205 -0.0265
19084TIP3    H178743   4.744   4.978   2.146 -0.3068 -0.0684  0.3343
19084TIP3    H278744   4.777   4.850   2.220  0.7321 -0.5165 -0.8733
19085TIP3   OH278745   2.291   5.590  16.239 -0.8919  0.2827  0.4856
19085TIP3    H178746   2.258   5.678  16.220 -1.0882  0.1577  0.2465
19085TIP3    H278747   2.371   5.582  16.186 -1.8803 -0.3724 -0.9704
19086TIP3   OH278748   4.399   3.103   3.962  0.4471  0.1467 -0.7542
19086TIP3    H178749   4.378   3.128   3.873 -2.6717 -1.9066 -0.7420
19086TIP3    H278750   4.342   3.157   4.017 -0.0470 -0.8423 -0.2541
19087TIP3   OH278751   3.436   0.723  11.627  0.4766  0.8081  0.6278
19087TIP3    H178752   3.522   0.689  11.603  0.1848 -0.7644  1.6832
19087TIP3    H278753   3.381   0.645  11.637 -0.4531  1.6298  2.2754
19088TIP3   OH278754   1.388   2.379   3.746 -0.2795  0.2421 -0.0638
19088TIP3    H178755   1.362   2.429   3.823 -0.2494  3.0750 -1.7492
19088TIP3    H278756   1.482   2.364   3.757 -0.4965 -0.4813  0.9741
19089TIP3   OH278757   4.592   2.825   4.641  0.2302 -0.5382  0.3655
19089TIP3    H178758   4.544   2.744   4.625 -0.7337  0.4748 -2.4760
19089TIP3    H278759   4.524   2.891   4.655  0.9563  0.1675  0.6420
19090TIP3   OH278760   0.032   3.121  16.541 -0.3865 -0.6042 -0.3864
19090TIP3    H178761   0.059   3.206  16.506 -0.2087  0.2743  1.7604
19090TIP3    H278762  -0.056   3.135  16.575  0.2278 -0.8400  1.3694
19091TIP3   OH278763   0.282   2.315  11.339 -0.6622  0.0496 -0.3115
19091TIP3    H178764   0.305   2.407  11.348 -2.5026  0.6261 -0.9505
19091TIP3    H278765   0.228   2.297  11.416 -2.2139  0.1892 -1.3244
19092TIP3   OH278766   6.097   1.380  11.383  0.2476  0.0596  0.1662
19092TIP3    H178767   6.049   1.422  11.312  1.8859 -0.0669 -1.0855
19092TIP3    H278768   6.137   1.452  11.431  0.5570  0.0765 -0.1131
19093TIP3   OH278769   5.308   6.648   4.135  0.5066 -0.5919  0.1609
19093TIP3    H178770   5.253   6.702   4.078  0.8300  0.2136  0.5949
19093TIP3    H278771   5.256   6.636   4.214 -0.2211 -2.2795 -0.5375
19094TIP3   OH278772   0.302   6.392  13.133  0.5693 -0.6734  0.8674
19094TIP3    H178773   0.311   6.486  13.115  0.6051 -1.3296 -3.4626
19094TIP3    H278774   0.222   6.386  13.186  0.2358  1.7219  0.7756
19095TIP3   OH278775   3.693   6.184  12.192  0.2125  0.4703 -0.0656
19095TIP3    H178776   3.672   6.091  12.181 -0.9177  0.8531 -1.4592
19095TIP3    H278777   3.768   6.185  12.251 -0.1825 -1.2925  0.5171
19096TIP3   OH278778   5.886   5.958  11.928 -0.0843  0.1953 -0.4491
19096TIP3    H178779   5.826   5.923  11.862 -0.0845  1.1245 -0.9491
19096TIP3    H278780   5.878   5.897  12.002  0.7095 -1.4731 -1.6898
19097TIP3   OH278781   5.491   1.344   2.863 -0.1946 -0.2968 -0.5978
19097TIP3    H178782   5.493   1.440   2.867 -1.1394 -0.3031  1.2225
19097TIP3    H278783   5.516   1.323   2.773  0.9533  1.6101 -0.7905
19098TIP3   OH278784   2.348   2.523  15.668  0.7040 -0.5955  0.8886
19098TIP3    H178785   2.300   2.557  15.744 -0.5796 -1.6810  0.6070
19098TIP3    H278786   2.363   2.431  15.688 -1.2636 -1.3901 -0.8791
19099TIP3   OH278787   6.171   3.723  14.698  0.6110 -0.0278  0.4127
19099TIP3    H178788   6.076   3.725  14.702  0.6404  1.1754  0.8711
19099TIP3    H278789   6.199   3.722  14.790  1.0507 -1.1366  0.2881
19100TIP3   OH278790   2.584   6.790   6.686 -0.2443 -0.8240  0.1234
19100TIP3    H178791   2.594   6.740   6.767  3.7459  0.0536  0.3812
19100TIP3    H278792   2.570   6.881   6.715 -1.4580 -0.8773 -0.2498
19101TIP3   OH278793   4.571   1.517  12.228  0.1672 -0.6844 -0.1895
19101TIP3    H178794   4.567   1.544  12.136 -1.7782 -0.7861 -0.1825
19101TIP3    H278795   4.664   1.518  12.249  0.5469  1.0512 -1.6538
19102TIP3   OH278796   2.640   0.279  15.715  0.0039  0.5865 -0.2187
19102TIP3    H178797   2.687   0.233  15.645 -1.6182 -2.7155  0.6507
19102TIP3    H278798   2.548   0.260  15.698 -0.5179  0.9249  1.9591
19103TIP3   OH278799   3.394   5.271   4.454  0.0577  0.5431 -0.0728
19103TIP3    H178800   3.326   5.292   4.390 -0.9713  1.6497  1.3258
19103TIP3    H278801   3.346   5.235   4.529  0.9723  1.4999  1.0029
19104TIP3   OH278802   2.036   1.551  16.580 -0.1931 -0.0133  0.4954
19104TIP3    H178803   2.077   1.469  16.551  2.1948  1.2851 -0.0356
19104TIP3    H278804   1.982   1.526  16.655 -1.3748 -2.4151 -1.0406
19105TIP3   OH278805   3.897   6.531  13.177 -0.0732  0.0336  0.5262
19105TIP3    H178806   3.850   6.530  13.094 -0.5506  0.0018  0.7931
19105TIP3    H278807   3.867   6.610  13.221 -0.4228 -0.3610  1.0051
19106TIP3   OH278808   1.594   4.763   1.683  0.5332 -0.6553  0.0240
19106TIP3    H178809   1.551   4.798   1.761  0.1144  0.9152 -0.8522
19106TIP3    H278810   1.636   4.682   1.712 -1.9558 -1.6182  1.2289
19107TIP3   OH278811   3.029   4.953   2.100  0.1602  0.4952 -0.4313
19107TIP3    H178812   3.030   4.859   2.078  1.9570  0.3109  0.3009
19107TIP3    H278813   3.038   4.955   2.195  0.5703  1.4173 -0.4865
19108TIP3   OH278814   0.813   6.093  14.851  0.4590 -0.1109 -0.7386
19108TIP3    H178815   0.909   6.087  14.850  0.4081 -1.7277  0.0655
19108TIP3    H278816   0.784   6.013  14.806 -0.5160  0.1642 -0.6201
19109TIP3   OH278817   1.616   2.993   0.422 -0.3157 -0.1350 -0.2375
19109TIP3    H178818   1.610   3.046   0.502 -0.6559 -1.6340  0.7651
19109TIP3    H278819   1.529   2.998   0.383 -0.7195 -0.9962  0.5450
19110TIP3   OH278820   5.512   3.464   1.078 -0.3504  0.3977 -0.7538
19110TIP3    H178821   5.460   3.468   1.159  0.6612 -0.6623 -0.0223
19110TIP3    H278822   5.570   3.540   1.084  1.8992 -1.3318  1.1172
19111TIP3   OH278823   1.798   0.338  16.336 -0.0095  0.2341 -0.0829
19111TIP3    H178824   1.714   0.337  16.382  0.2570 -0.2298  0.4073
19111TIP3    H278825   1.855   0.393  16.390  0.4901 -0.8202  0.5081
19112TIP3   OH278826   3.450   5.867   4.848  0.4806  0.0268  0.2042
19112TIP3    H178827   3.382   5.857   4.781 -0.4799 -1.3694  1.3233
19112TIP3    H278828   3.531   5.839   4.806 -0.5936 -3.9003  0.4461
19113TIP3   OH278829   2.123   2.818  14.921 -0.1677 -0.0792  0.0288
19113TIP3    H178830   2.028   2.815  14.907  0.1879 -0.9820 -2.7049
19113TIP3    H278831   2.136   2.775  15.006 -2.1260 -0.7607  0.0296
19114TIP3   OH278832   4.718   5.589   6.589  0.4816  0.1794 -0.1110
19114TIP3    H178833   4.714   5.684   6.582 -0.1078  0.0928 -1.2039
19114TIP3    H278834   4.670   5.569   6.669 -0.4681  0.7323 -0.5260
19115TIP3   OH278835   5.657   1.088  11.589 -0.2536 -0.3963  0.0612
19115TIP3    H178836   5.750   1.067  11.594 -0.3329 -0.8153 -0.1751
19115TIP3    H278837   5.654   1.178  11.556  0.0459 -0.8296 -1.2053
19116TIP3   OH278838   4.158   1.673   0.666  0.0707 -0.3837  0.0888
19116TIP3    H178839   4.104   1.750   0.686  1.6001  0.8287 -0.2189
19116TIP3    H278840   4.248   1.707   0.666  0.7061 -1.9668 -1.1031
19117TIP3   OH278841   0.963   2.712  16.281 -0.5165 -0.6909 -0.3517
19117TIP3    H178842   1.055   2.727  16.256 -0.7127  0.0868 -0.6357
19117TIP3    H278843   0.913   2.773  16.226 -1.0935 -0.0948  0.8051
19118TIP3   OH278844   1.575   4.493  12.255  0.6876  0.7001 -0.3255
19118TIP3    H178845   1.524   4.428  12.206  0.1979 -1.6541  3.0009
19118TIP3    H278846   1.666   4.465  12.242  0.4433 -1.3771  1.7805
19119TIP3   OH278847   0.321   0.112  15.272  0.8547  0.5610  0.7189
19119TIP3    H178848   0.358   0.153  15.194 -0.4747  1.6025  0.5937
19119TIP3    H278849   0.301   0.022  15.246 -1.0909  1.3462 -0.7010
19120TIP3   OH278850   4.668   4.614  10.864  0.3488 -0.9628  0.3271
19120TIP3    H178851   4.606   4.605  10.792 -0.4120  1.9785  0.4989
19120TIP3    H278852   4.621   4.579  10.940 -1.4161  1.6606  0.5535
19121TIP3   OH278853   4.520   4.422  11.678 -0.0710 -0.2942 -0.4184
19121TIP3    H178854   4.453   4.442  11.612 -0.5270  1.6654  0.5612
19121TIP3    H278855   4.472   4.421  11.761  1.0706  1.1128  0.3076
19122TIP3   OH278856   0.714   6.040   2.342 -0.3868 -0.0733 -0.4448
19122TIP3    H178857   0.759   6.124   2.350  1.7214 -1.1520 -0.2727
19122TIP3    H278858   0.671   6.027   2.426 -1.9842  1.4555 -0.9655
19123TIP3   OH278859   4.761   6.621   1.868  0.7361 -0.2037  0.2035
19123TIP3    H178860   4.679   6.625   1.818 -1.0514 -0.1554  2.9508
19123TIP3    H278861   4.810   6.549   1.828 -2.3398 -2.8115  0.7610
19124TIP3   OH278862   5.487   1.169   0.667  0.1536  0.0550 -0.0963
19124TIP3    H178863   5.410   1.186   0.613 -1.0315 -0.4491  1.3552
19124TIP3    H278864   5.542   1.112   0.613 -0.3237  0.6869 -1.2844
19125TIP3   OH278865   1.562   3.398  10.781 -0.5832 -0.4438  0.2944
19125TIP3    H178866   1.595   3.309  10.796 -1.0197 -0.6265  0.1800
19125TIP3    H278867   1.641   3.449  10.761 -0.1442 -0.4882  1.7730
19126TIP3   OH278868   5.967   0.277  14.896  0.6078  0.1805  0.4601
19126TIP3    H178869   6.018   0.355  14.874  2.2569 -1.0916 -0.5012
19126TIP3    H278870   5.985   0.261  14.988  2.4784 -0.5643  0.0027
19127TIP3   OH278871   0.720   6.702   2.065  0.0380 -0.3618 -0.0214
19127TIP3    H178872   0.748   6.635   2.003 -0.5129 -1.1650  0.5910
19127TIP3    H278873   0.625   6.694   2.069  0.0759 -0.4256  1.0451
19128TIP3   OH278874   3.989   1.729  17.010 -0.6386 -0.5464 -0.6397
19128TIP3    H178875   3.905   1.684  17.003 -1.0768  0.3798 -1.8095
19128TIP3    H278876   4.008   1.758  16.920 -0.3577  1.5201  0.0254
19129TIP3   OH278877   1.137   6.561   1.937 -0.3373  1.0979  0.0368
19129TIP3    H178878   1.143   6.477   1.982 -0.0052  1.0585 -0.0751
19129TIP3    H278879   1.190   6.620   1.990  3.1490  0.2286 -2.1606
19130TIP3   OH278880   3.091   5.853  16.471  0.3057  0.6021  0.2942
19130TIP3    H178881   3.018   5.794  16.491  0.6767  0.4673  1.3237
19130TIP3    H278882   3.081   5.874  16.378  0.6111 -1.7462 -0.3373
19131TIP3   OH278883   3.058   0.582   0.114 -0.2142 -0.3810 -0.8235
19131TIP3    H178884   2.995   0.563   0.184  0.2761  0.3534 -0.1691
19131TIP3    H278885   3.124   0.513   0.123 -0.4778 -0.6590 -0.9775
19132TIP3   OH278886   2.260   3.035   0.270  0.2449  0.8033 -0.1226
19132TIP3    H178887   2.213   3.088   0.334  2.0479  1.6877  0.5114
19132TIP3    H278888   2.331   3.090   0.239  0.6719 -0.3578 -1.3580
19133TIP3   OH278889   1.271   6.266  15.549  0.5023  0.5904 -0.2074
19133TIP3    H178890   1.211   6.218  15.492  0.2804  0.3718  0.2038
19133TIP3    H278891   1.223   6.345  15.573  1.3657  1.6971 -1.9475
19134TIP3   OH278892   0.423   3.329  16.083  0.2189  1.3862  0.2132
19134TIP3    H178893   0.483   3.310  16.011  1.3004 -0.4567  1.4994
19134TIP3    H278894   0.400   3.422  16.072  1.4015  1.4992 -1.7009
19135TIP3   OH278895   5.553   1.321   0.005 -0.1123 -0.0881  0.0875
19135TIP3    H178896   5.554   1.274  -0.078 -0.1332 -0.0230  0.0506
19135TIP3    H278897   5.540   1.253   0.071  0.4592 -0.2030  0.0817
19136TIP3   OH278898   4.136   2.639  15.161 -0.1380 -0.2648 -0.7279
19136TIP3    H178899   4.143   2.681  15.075 -0.4053  0.3967 -0.4359
19136TIP3    H278900   4.147   2.711  15.223  2.1176 -1.0000 -0.1574
19137TIP3   OH278901   5.217   3.222  16.408 -0.4089  0.5527  0.0888
19137TIP3    H178902   5.224   3.308  16.448  1.7157  1.0035 -1.1473
19137TIP3    H278903   5.205   3.239  16.315 -1.2446 -0.5146 -0.0272
19138TIP3   OH278904   2.036   5.445   0.577  0.7263  0.1350 -0.1541
19138TIP3    H178905   2.001   5.410   0.659 -0.8325  1.2609 -0.2944
19138TIP3    H278906   1.968   5.504   0.545  0.7392 -1.1777 -2.9070
19139TIP3   OH278907   6.656   3.499  10.788 -0.0073 -0.1382  0.0448
19139TIP3    H178908   6.638   3.405  10.796 -0.9001 -0.0761 -0.9465
19139TIP3    H278909   6.696   3.508  10.702 -0.3037  0.4374 -0.0372
19140TIP3   OH278910   0.376   1.005   2.919 -0.3076 -0.0491  0.0188
19140TIP3    H178911   0.427   1.048   2.850 -0.7845 -1.2826 -1.1381
19140TIP3    H278912   0.376   0.913   2.896 -1.0383 -0.4036  1.3231
19141TIP3   OH278913   1.903   3.256   0.798  0.0388  0.1294 -0.5298
19141TIP3    H178914   1.972   3.253   0.865  0.2828  1.5497 -0.6820
19141TIP3    H278915   1.942   3.214   0.722 -0.2445 -1.5107  0.2049
19142TIP3   OH278916   4.170   3.683  12.818 -0.1889 -0.1411 -0.1330
19142TIP3    H178917   4.208   3.728  12.893 -1.7911  0.2166  0.5007
19142TIP3    H278918   4.230   3.702  12.746  0.6547  0.6323  0.7446
19143TIP3   OH278919   1.170   4.045   4.984  0.5206 -0.2624 -0.0276
19143TIP3    H178920   1.167   3.969   5.043  3.0055  0.1828  0.8124
19143TIP3    H278921   1.088   4.041   4.935 -1.5739 -0.8553  3.2073
19144TIP3   OH278922   2.812   0.273  14.979  0.0364  0.3844 -0.3047
19144TIP3    H178923   2.748   0.342  14.997  1.2651  1.3403  0.6327
19144TIP3    H278924   2.767   0.192  15.000 -1.3189  0.9179 -1.0406
19145TIP3   OH278925   5.101   0.357   0.295 -0.0484  0.4357 -0.3184
19145TIP3    H178926   5.095   0.304   0.216 -1.2599 -2.5232  1.5716
19145TIP3    H278927   5.073   0.444   0.268 -2.1631 -0.8709 -2.7889
19146TIP3   OH278928   0.069   0.001  15.442  0.0741  0.0047  0.0802
19146TIP3    H178929   0.041  -0.016  15.352 -1.8487  0.5831  0.5202
19146TIP3    H278930   0.118  -0.077  15.467  1.1526  0.0673 -1.6203
19147TIP3   OH278931   5.506   0.283  11.015  0.0293  0.5568 -0.1726
19147TIP3    H178932   5.480   0.275  10.923  0.4395 -2.1182 -0.1356
19147TIP3    H278933   5.426   0.310  11.060 -0.5995  0.3093 -1.1001
19148TIP3   OH278934   2.680   3.798  11.576  0.6209  0.0087  0.0057
19148TIP3    H178935   2.727   3.881  11.573  0.7458  0.0471  1.8138
19148TIP3    H278936   2.740   3.735  11.537  0.5637  0.7274 -1.2949
19149TIP3   OH278937   0.077   5.022  14.469  1.2087  0.4608 -0.2324
19149TIP3    H178938  -0.011   5.032  14.435  1.1725 -0.1581 -0.3392
19149TIP3    H278939   0.103   5.110  14.497  1.0994  0.9115 -1.4903
19150TIP3   OH278940   0.942   1.943  11.164  0.0711 -0.5870 -0.0184
19150TIP3    H178941   0.890   1.864  11.152  0.3924 -0.9172  0.6841
19150TIP3    H278942   0.986   1.930  11.249 -1.0583  1.0021  0.8594
19151TIP3   OH278943   5.586   0.269   5.392 -0.6705  0.4934 -0.1605
19151TIP3    H178944   5.521   0.246   5.458 -0.6782 -1.1031 -0.6847
19151TIP3    H278945   5.622   0.185   5.364  0.9308  1.2902 -0.5827
19152TIP3   OH278946   4.668   6.732  15.500 -0.2425 -0.3893  0.6807
19152TIP3    H178947   4.572   6.734  15.505 -0.6807  4.2058 -2.7239
19152TIP3    H278948   4.696   6.796  15.565  0.2089  0.3882 -0.2511
19153TIP3   OH278949   2.283   4.592   2.125  0.0917 -0.0786 -0.8436
19153TIP3    H178950   2.264   4.651   2.198 -1.5594 -1.4652 -0.0804
19153TIP3    H278951   2.211   4.606   2.063  0.4738 -0.2680 -1.3434
19154TIP3   OH278952   6.288   1.555  13.636  0.0971 -0.4750 -0.1146
19154TIP3    H178953   6.297   1.574  13.543 -0.7145  1.4603  0.1722
19154TIP3    H278954   6.367   1.591  13.675 -0.1932 -0.0570  0.0975
19155TIP3   OH278955   5.959   5.149  11.939  0.1980  0.0501 -0.1598
19155TIP3    H178956   6.008   5.116  12.014  0.2003  1.5652  0.5400
19155TIP3    H278957   5.995   5.236  11.923 -1.3585  0.6673 -0.4685
19156TIP3   OH278958   3.067   4.721   3.080 -0.0632 -0.3072 -0.1902
19156TIP3    H178959   2.993   4.662   3.094 -0.3779 -0.4820 -2.3571
19156TIP3    H278960   3.119   4.679   3.011  0.6688  1.0729 -0.5247
19157TIP3   OH278961   5.794   4.287  11.095 -0.2254 -0.6237  0.3294
19157TIP3    H178962   5.700   4.301  11.088  0.2669  2.9058 -1.4232
19157TIP3    H278963   5.822   4.348  11.164  0.6188 -3.2874  2.5259
19158TIP3   OH278964   2.135   0.240  16.769  0.9593 -0.3894 -0.2168
19158TIP3    H178965   2.208   0.254  16.830  1.3651  0.0425 -0.7840
19158TIP3    H278966   2.176   0.243  16.682  0.5352 -1.8501 -0.4970
19159TIP3   OH278967   1.610   3.773  15.475 -0.2899 -0.0831 -0.6124
19159TIP3    H178968   1.565   3.856  15.463  0.2034  0.2027 -0.4982
19159TIP3    H278969   1.702   3.797  15.487 -0.4575 -0.4839  1.8536
19160TIP3   OH278970   1.620   0.658   2.147  0.3897  0.0364 -0.3346
19160TIP3    H178971   1.634   0.743   2.105  1.1639  0.2774  0.3932
19160TIP3    H278972   1.705   0.634   2.182  0.2360 -1.1643 -0.7314
19161TIP3   OH278973   1.099   1.838   4.261 -0.1813 -0.1416 -0.8164
19161TIP3    H178974   1.017   1.819   4.215 -0.4052 -1.4262  0.0451
19161TIP3    H278975   1.142   1.753   4.269 -1.5876 -0.6930  3.9872
19162TIP3   OH278976   5.348   0.277  15.373  0.3388 -0.3555  0.1772
19162TIP3    H178977   5.306   0.334  15.309 -0.7550 -1.4486 -0.1161
19162TIP3    H278978   5.413   0.333  15.416 -0.6864  1.0997 -0.0977
19163TIP3   OH278979   1.204   3.326  12.318 -0.1002 -0.6204  0.2601
19163TIP3    H178980   1.292   3.319  12.354  1.2758 -1.2302 -2.9322
19163TIP3    H278981   1.165   3.401  12.363  1.8103 -0.6442  2.1045
19164TIP3   OH278982   4.441   1.698   2.009 -0.1035 -0.6522 -0.4392
19164TIP3    H178983   4.520   1.711   2.062 -0.7495  0.2461  0.3410
19164TIP3    H278984   4.466   1.728   1.921  0.9020 -1.9225 -0.6268
19165TIP3   OH278985   0.985   6.671  10.865 -0.0092 -0.5851  0.4577
19165TIP3    H178986   1.019   6.609  10.800 -1.7490 -0.6996 -0.4168
19165TIP3    H278987   0.946   6.741  10.812 -0.8021 -0.3071  1.3865
19166TIP3   OH278988   0.694   1.839   0.695 -0.4163 -0.2453  0.2395
19166TIP3    H178989   0.639   1.870   0.767 -0.8102 -0.8738  0.2208
19166TIP3    H278990   0.743   1.916   0.668 -1.1026  0.2760  0.4274
19167TIP3   OH278991   1.582   0.364  13.873  0.1110  0.1951 -0.1836
19167TIP3    H178992   1.493   0.343  13.899  0.4134  0.2719  1.0081
19167TIP3    H278993   1.637   0.304  13.924  0.8454  1.9818  1.2746
19168TIP3   OH278994   5.083   0.151  13.410 -0.6362  0.0779  0.9197
19168TIP3    H178995   5.161   0.177  13.363 -0.3261 -0.9948  0.8116
19168TIP3    H278996   5.105   0.164  13.503  0.0992 -1.3044  0.9538
19169TIP3   OH278997   2.091   4.109  15.905  0.0667 -0.0291 -0.1459
19169TIP3    H178998   2.137   4.089  15.987 -0.2819  0.0905  0.0848
19169TIP3    H278999   2.157   4.099  15.837  0.2683 -0.4986  0.1123
19170TIP3   OH279000   0.923   6.602  14.762  0.1083  0.1381 -0.2404
19170TIP3    H179001   0.920   6.698  14.769  0.2388  0.2523 -1.3983
19170TIP3    H279002   0.925   6.586  14.667 -3.0653 -1.0959 -0.2247
19171TIP3   OH279003   3.394   3.399   5.217 -0.1905  0.1936 -0.0220
19171TIP3    H179004   3.315   3.381   5.268 -0.5055  0.7666 -0.2979
19171TIP3    H279005   3.414   3.315   5.174 -0.4740 -0.0358  0.2868
19172TIP3   OH279006   2.163   0.449  12.646 -0.6008 -0.1165  0.7074
19172TIP3    H179007   2.113   0.386  12.697 -0.2430  0.1518  1.4026
19172TIP3    H279008   2.153   0.420  12.555  1.1290 -2.3397  1.1144
19173TIP3   OH279009   1.358   5.231  12.658  0.1971 -0.1323 -0.4649
19173TIP3    H179010   1.438   5.283  12.651  0.1255  0.4234  2.1199
19173TIP3    H279011   1.312   5.247  12.575  2.8386 -0.7342 -2.1730
19174TIP3   OH279012   1.717   4.888  14.383 -0.0199 -0.6774 -0.2170
19174TIP3    H179013   1.730   4.931  14.467 -1.0808 -0.5417 -0.1174
19174TIP3    H279014   1.781   4.816  14.383  1.5000  0.6126 -0.2252
19175TIP3   OH279015   0.637   5.169  11.082 -0.6578  0.0357  0.3268
19175TIP3    H179016   0.578   5.109  11.038  1.7699 -1.2198 -1.4982
19175TIP3    H279017   0.641   5.246  11.025 -2.1621  1.0892  1.5866
19176TIP3   OH279018   1.138   1.250   0.960 -0.0023  0.1991 -0.3390
19176TIP3    H179019   1.163   1.164   0.994 -1.4350  0.2150  0.8703
19176TIP3    H279020   1.056   1.271   1.006  0.7644  2.6061  0.0774
19177TIP3   OH279021   6.631   3.144  13.486  0.5267  0.2076  0.3682
19177TIP3    H179022   6.571   3.175  13.554  2.9161  1.5472  2.0043
19177TIP3    H279023   6.582   3.155  13.404 -1.9572 -0.2048  1.7093
19178TIP3   OH279024   0.726   3.687  13.061  0.0616  0.3478  0.5265
19178TIP3    H179025   0.791   3.648  13.120  0.9687  0.0548 -0.6207
19178TIP3    H279026   0.699   3.767  13.104  0.3583 -0.0868  1.5516
19179TIP3   OH279027   0.830   3.908   1.287 -0.3941 -0.3478 -0.2860
19179TIP3    H179028   0.774   3.984   1.302 -0.0862  0.0115 -0.9147
19179TIP3    H279029   0.815   3.885   1.195 -0.1482 -0.7713 -0.2232
19180TIP3   OH279030   3.887   6.471   2.317 -0.1838 -0.1083 -1.0121
19180TIP3    H179031   3.892   6.475   2.221  1.5672  1.7820 -0.9122
19180TIP3    H279032   3.977   6.455   2.345 -0.5690 -0.0390  0.3328
19181TIP3   OH279033   4.147   3.452   5.999 -0.0270 -0.0254  0.1372
19181TIP3    H179034   4.207   3.525   5.983 -1.2941  0.7726 -1.2084
19181TIP3    H279035   4.102   3.475   6.080 -0.2482  0.5749 -0.1542
19182TIP3   OH279036   0.005   5.551  14.224  0.6054  0.1330 -0.0076
19182TIP3    H179037  -0.045   5.631  14.240  1.0228  0.0935  1.7108
19182TIP3    H279038  -0.031   5.488  14.287  1.9610 -0.2697  0.3869
19183TIP3   OH279039   0.563   0.835  13.090 -0.4093 -0.2072 -0.3587
19183TIP3    H179040   0.481   0.790  13.110  1.0202 -2.7881  0.1419
19183TIP3    H279041   0.612   0.773  13.036  2.0401  0.3575  1.0686
19184TIP3   OH279042   1.653   4.963  13.778  0.0431 -0.3187 -0.1016
19184TIP3    H179043   1.648   4.868  13.783 -0.3604 -0.2786  0.3267
19184TIP3    H279044   1.617   4.985  13.692 -0.8135 -0.4875  0.2125
19185TIP3   OH279045   1.495   0.443   2.366 -0.2162 -0.3607  0.2396
19185TIP3    H179046   1.483   0.516   2.428 -0.7175 -0.6589  0.5044
19185TIP3    H279047   1.589   0.442   2.349 -0.1748  0.2286  0.3820
19186TIP3   OH279048   1.669   1.430   6.507 -0.4524  0.0929 -0.6023
19186TIP3    H179049   1.611   1.501   6.480 -1.4190 -0.4074  0.1278
19186TIP3    H279050   1.757   1.462   6.484 -0.9332  1.1720 -1.0308
19187TIP3   OH279051   2.949   6.121   0.123  0.2954 -0.3114 -0.0160
19187TIP3    H179052   2.947   6.210   0.088 -4.6147 -0.7437 -1.5681
19187TIP3    H279053   2.963   6.132   0.217  1.0252  1.9100 -0.3218
19188TIP3   OH279054   6.271   6.031  16.124  0.0969 -0.1284 -0.3351
19188TIP3    H179055   6.287   5.939  16.146  0.7759 -0.4747 -2.1097
19188TIP3    H279056   6.188   6.029  16.076 -1.4284  0.6220  2.1305
19189TIP3   OH279057   4.898   2.754  10.482 -0.0744  0.2436 -0.0296
19189TIP3    H179058   4.821   2.707  10.448 -0.6224  1.0319  0.0976
19189TIP3    H279059   4.972   2.707  10.445 -0.6414  0.5277 -1.6021
19190TIP3   OH279060   3.153   1.495  14.639 -0.0144  0.0218 -0.9107
19190TIP3    H179061   3.164   1.404  14.668  1.0514 -0.3137 -2.2441
19190TIP3    H279062   3.203   1.546  14.703 -1.3264 -0.1964  0.3493
19191TIP3   OH279063   6.269   6.102   4.994 -0.5706  0.0901 -0.1651
19191TIP3    H179064   6.317   6.171   5.040 -0.4259 -0.0616 -0.0839
19191TIP3    H279065   6.258   6.135   4.905  0.5018 -0.2574 -0.4407
19192TIP3   OH279066   1.622   6.761   6.300 -0.6139  0.4264 -0.3246
19192TIP3    H179067   1.698   6.816   6.322  0.1971 -0.8733  0.2137
19192TIP3    H279068   1.619   6.695   6.369 -1.9266  0.1361 -0.6395
19193TIP3   OH279069   2.805   5.508   4.844  0.5313 -0.1780 -0.4188
19193TIP3    H179070   2.892   5.550   4.848  1.1240 -1.4404  0.5293
19193TIP3    H279071   2.774   5.527   4.756  0.9316  1.9200 -0.1677
19194TIP3   OH279072   4.952   2.425  11.898  0.0886  0.1274 -0.3322
19194TIP3    H179073   4.867   2.462  11.920  0.4100  1.8771 -1.8336
19194TIP3    H279074   4.984   2.388  11.981 -2.4329 -1.3263  0.0966
19195TIP3   OH279075   2.947   5.112   1.712 -0.1570  1.1879 -0.2383
19195TIP3    H179076   2.859   5.130   1.677 -0.1665 -0.1693 -0.9725
19195TIP3    H279077   3.001   5.099   1.634  0.2956  0.2588  0.2179
19196TIP3   OH279078   0.578   3.635  15.869 -0.2603 -0.1379  0.0186
19196TIP3    H179079   0.524   3.655  15.793  1.3190 -0.7680 -1.3261
19196TIP3    H279080   0.525   3.575  15.921 -0.7145 -1.0825 -1.4803
19197TIP3   OH279081   0.098   4.297   2.797 -0.0524 -0.3708  0.2203
19197TIP3    H179082   0.013   4.340   2.785  0.9813  1.0872 -3.0937
19197TIP3    H279083   0.088   4.211   2.755 -0.0351 -0.3955  0.2664
19198TIP3   OH279084   3.615   1.322  16.387  0.9805  0.2634  0.0320
19198TIP3    H179085   3.660   1.242  16.362  0.3396 -1.1250  2.8669
19198TIP3    H279086   3.535   1.322  16.335  0.6388 -1.3890  0.4827
19199TIP3   OH279087   4.132   2.388  12.817  0.0895  0.6848  0.2567
19199TIP3    H179088   4.216   2.430  12.835 -0.6754  1.6505  1.7465
19199TIP3    H279089   4.129   2.380  12.722  0.9233  2.6880  0.0224
19200TIP3   OH279090   1.453   2.934  13.174  0.9416  0.4976  0.2766
19200TIP3    H179091   1.420   2.857  13.127 -1.2007  1.3725  0.2406
19200TIP3    H279092   1.532   2.959  13.126  0.3867 -0.3171 -1.1306
19201TIP3   OH279093   1.195   6.282   3.420 -0.4872 -0.0648  0.5621
19201TIP3    H179094   1.102   6.296   3.403 -0.7483 -2.4415 -0.3317
19201TIP3    H279095   1.205   6.299   3.514 -1.4129  1.9067  0.3625
19202TIP3   OH279096   6.208   0.576   5.728  0.1644  0.3788  0.4262
19202TIP3    H179097   6.288   0.624   5.709  0.1274 -0.0994 -1.0207
19202TIP3    H279098   6.237   0.486   5.744  0.0497  0.4957  1.3744
19203TIP3   OH279099   0.410   3.256  17.092  0.0554  0.4804 -0.7414
19203TIP3    H179100   0.454   3.313  17.028  0.5871  1.6652  0.6278
19203TIP3    H279101   0.481   3.216  17.142 -0.3434 -0.8418 -1.1901
19204TIP3   OH279102   4.233   5.345  16.084 -0.6431  0.4144 -0.2256
19204TIP3    H179103   4.221   5.256  16.051 -1.4855  0.5119 -0.2105
19204TIP3    H279104   4.325   5.364  16.069 -0.9195  0.3826 -2.3723
19205TIP3   OH279105   1.041   5.945   4.031 -0.1750  0.1920 -0.0134
19205TIP3    H179106   1.067   5.919   4.120  0.3853 -1.7508 -0.6788
19205TIP3    H279107   1.116   5.993   3.997 -0.8651  2.0310  0.9412
19206TIP3   OH279108   6.847   6.679  16.403  0.2789  0.1846 -1.0252
19206TIP3    H179109   6.840   6.584  16.411  0.4953 -0.0452 -3.1182
19206TIP3    H279110   6.757   6.710  16.407  0.0649 -0.2808 -1.9403
19207TIP3   OH279111   6.710   5.696  16.892 -0.0212 -0.2324  0.4423
19207TIP3    H179112   6.778   5.763  16.882 -1.2897  1.1890  1.0122
19207TIP3    H279113   6.726   5.659  16.978  1.3433 -1.4868 -0.2958
19208TIP3   OH279114   1.620   2.528  14.096  0.1333 -0.2088 -0.2772
19208TIP3    H179115   1.584   2.439  14.086  0.3156 -0.4446  1.0454
19208TIP3    H279116   1.694   2.530  14.035  0.2039 -1.0158 -0.2375
19209TIP3   OH279117   5.439   5.890   0.275  0.2882 -0.1670 -0.2142
19209TIP3    H179118   5.394   5.928   0.350 -0.7384 -0.6111 -0.5828
19209TIP3    H279119   5.504   5.956   0.250  0.0481  0.3612  0.5198
19210TIP3   OH279120   4.912   6.500   2.671 -0.6038  0.2192 -0.2383
19210TIP3    H179121   4.920   6.523   2.764  0.6775  0.2899 -0.3398
19210TIP3    H279122   4.957   6.571   2.625  1.2814 -1.2105 -0.7043
19211TIP3   OH279123   2.320   6.588   3.804  0.1210  0.2269 -0.0401
19211TIP3    H179124   2.292   6.623   3.889  0.2287  0.2960 -0.0335
19211TIP3    H279125   2.408   6.556   3.818 -0.5256 -1.4747  0.3472
19212TIP3   OH279126   1.061   3.477  16.485  0.2383 -0.2027  0.2201
19212TIP3    H179127   1.106   3.467  16.401 -0.8651  1.8968 -0.6913
19212TIP3    H279128   1.128   3.512  16.544 -0.0206  2.6764 -1.0620
19213TIP3   OH279129   5.907   3.467  15.812  0.1902  0.1852  0.2819
19213TIP3    H179130   5.833   3.528  15.820 -0.5322 -0.2305 -2.2800
19213TIP3    H279131   5.898   3.409  15.888  0.0274  2.2915  1.9709
19214TIP3   OH279132   4.881   4.846  12.967  0.1758  0.6936 -0.1582
19214TIP3    H179133   4.816   4.793  12.921 -0.2723 -1.0693  2.3060
19214TIP3    H279134   4.959   4.843  12.912 -1.2164  1.2894 -2.2553
19215TIP3   OH279135   0.514   0.207  15.659  0.3707 -0.5215  0.7773
19215TIP3    H179136   0.429   0.186  15.622  0.4368  1.1153 -0.4431
19215TIP3    H279137   0.511   0.175  15.749 -2.0101  0.6354  1.1691
19216TIP3   OH279138   5.513   0.468  14.859  0.3295  0.3241  0.6212
19216TIP3    H179139   5.529   0.532  14.789  2.2779  0.4467  1.1172
19216TIP3    H279140   5.579   0.488  14.925  0.8649 -2.0420  0.9011
19217TIP3   OH279141   5.986   1.116  11.174  0.2748 -0.0035 -0.7235
19217TIP3    H179142   5.895   1.085  11.167  0.3876 -0.1235 -1.8180
19217TIP3    H279143   6.011   1.094  11.264 -0.2214 -1.5512 -0.9206
19218TIP3   OH279144   2.788   6.767  16.232  0.2640 -0.0794  0.7307
19218TIP3    H179145   2.855   6.811  16.180 -0.7199 -1.2043 -1.6293
19218TIP3    H279146   2.717   6.831  16.238 -0.2438 -0.4856 -0.7101
19219TIP3   OH279147   1.337   5.258   3.741 -0.3896 -0.1844 -0.1361
19219TIP3    H179148   1.429   5.274   3.722 -0.4071  1.7672  1.1158
19219TIP3    H279149   1.297   5.345   3.746 -1.3087 -0.6406  3.7362
19220TIP3   OH279150   6.096   6.531   2.359 -0.1303 -0.1117 -1.3104
19220TIP3    H179151   6.054   6.461   2.308  0.3390 -0.9747 -0.5434
19220TIP3    H279152   6.135   6.486   2.434  2.9422  0.4995 -2.4141
19221TIP3   OH279153   4.722   2.001  16.404  0.3765 -0.2409 -0.3783
19221TIP3    H179154   4.744   2.067  16.338 -1.5585  1.1455  0.2783
19221TIP3    H279155   4.752   1.919  16.366  0.3674  0.6591 -2.4637
19222TIP3   OH279156   1.857   6.467   1.148  0.7133  0.2037  0.1547
19222TIP3    H179157   1.894   6.524   1.081  0.2963  0.9807  0.5662
19222TIP3    H279158   1.775   6.436   1.110  0.4640  0.6650  0.2987
19223TIP3   OH279159   2.331   2.919  10.363  0.2505 -0.2690 -0.3636
19223TIP3    H179160   2.411   2.894  10.410  0.6786  1.6063 -0.0192
19223TIP3    H279161   2.358   2.993  10.309 -1.7329  2.0367  1.5804
19224TIP3   OH279162   0.829   6.139   5.262 -0.2226  0.6561 -0.4960
19224TIP3    H179163   0.917   6.105   5.274 -0.3581  0.6335  0.4668
19224TIP3    H279164   0.811   6.189   5.341 -1.3031  0.1749 -0.4172
19225TIP3   OH279165   5.857   6.680   6.180  0.5158  0.0050  0.0820
19225TIP3    H179166   5.819   6.758   6.220 -1.2119  1.4970 -3.9013
19225TIP3    H279167   5.814   6.607   6.223 -1.1828  1.4450  0.9411
19226TIP3   OH279168   6.406   0.961   1.657  0.0004  0.3791  0.6374
19226TIP3    H179169   6.481   1.020   1.663  1.1694 -0.8429 -1.0774
19226TIP3    H279170   6.342   1.009   1.605  0.7473  0.3606 -0.3237
19227TIP3   OH279171   4.410   2.712  13.761  0.0810  0.0053 -0.2508
19227TIP3    H179172   4.337   2.770  13.784 -0.5314 -1.0582  0.5567
19227TIP3    H279173   4.427   2.731  13.669 -1.3415  0.1535 -0.5022
19228TIP3   OH279174   4.152   3.213   2.747 -0.0941 -0.1146 -0.1386
19228TIP3    H179175   4.107   3.199   2.830  2.0433 -1.8813  0.8182
19228TIP3    H279176   4.118   3.297   2.715 -2.3760 -0.2939  1.5369
19229TIP3   OH279177   1.230   2.973   3.328 -0.0393  0.5130  0.1546
19229TIP3    H179178   1.242   3.021   3.246  0.2939  0.7631  0.3495
19229TIP3    H279179   1.146   3.005   3.362 -0.2102  0.3621 -0.1174
19230TIP3   OH279180   1.483   1.383   3.683 -0.0827 -0.7473 -0.6822
19230TIP3    H179181   1.456   1.293   3.699  0.1384 -0.9501 -1.4179
19230TIP3    H279182   1.524   1.411   3.765 -1.6943 -0.7301  0.1696
19231TIP3   OH279183   0.026   2.785  14.191  0.3951 -0.1145  0.2184
19231TIP3    H179184  -0.041   2.852  14.175  0.9084  0.5215  0.6881
19231TIP3    H279185  -0.002   2.742  14.272 -2.0657 -3.1643 -2.0085
19232TIP3   OH279186   4.514   3.703  15.467  0.0199  0.2442  0.0526
19232TIP3    H179187   4.486   3.633  15.527 -1.6213  0.9063  0.1067
19232TIP3    H279188   4.566   3.762  15.522 -1.3097  0.7453  0.8194
19233TIP3   OH279189   5.024   6.521  15.506 -0.1615  0.1247  0.2324
19233TIP3    H179190   4.961   6.563  15.448 -0.5257  1.2121  1.3697
19233TIP3    H279191   5.102   6.508  15.453 -0.9029 -0.0651 -0.8379
19234TIP3   OH279192   4.347   6.138  15.613  0.7254  0.1754  0.4783
19234TIP3    H179193   4.437   6.148  15.583  1.5003 -1.2674  2.1939
19234TIP3    H279194   4.339   6.045  15.635 -1.3896  0.1411 -0.2086
19235TIP3   OH279195   6.659   0.183  12.602  0.0674 -0.2559 -0.0856
19235TIP3    H179196   6.591   0.161  12.665 -0.4616 -0.4851 -0.7193
19235TIP3    H279197   6.733   0.126  12.625 -0.1984 -0.4925  0.1934
19236TIP3   OH279198   1.482   2.030  15.610 -0.1277  0.0902  0.7512
19236TIP3    H179199   1.501   2.123  15.613  0.2752  0.0401 -0.0518
19236TIP3    H279200   1.562   1.987  15.640 -0.1826 -0.0108  0.7554
19237TIP3   OH279201   3.066   2.207   2.593  0.4129  0.6295  0.1365
19237TIP3    H179202   3.041   2.119   2.564  1.3532 -1.0285  3.8082
19237TIP3    H279203   3.046   2.263   2.518 -0.1933 -2.6660 -2.4113
19238TIP3   OH279204   0.584   3.606  15.514 -0.4403  0.5321 -0.6617
19238TIP3    H179205   0.631   3.685  15.489  0.0762  0.1044 -1.0771
19238TIP3    H279206   0.501   3.637  15.550  0.3809  1.3316  0.6381
19239TIP3   OH279207   6.798   2.712  13.569  0.2854  0.0402 -0.8410
19239TIP3    H179208   6.879   2.756  13.595  0.3129 -0.1771 -0.5495
19239TIP3    H279209   6.745   2.780  13.528 -0.8738  1.0559  2.0949
19240TIP3   OH279210   4.075   5.104   0.406  0.1266 -0.1290 -1.0090
19240TIP3    H179211   4.124   5.108   0.324 -0.3370  0.8721 -1.2559
19240TIP3    H279212   3.998   5.050   0.385 -0.2698  0.5719 -1.3994
19241TIP3   OH279213   0.416   1.455  13.466 -0.1765 -0.3869  0.0882
19241TIP3    H179214   0.384   1.523  13.407  2.0110  1.0621  0.4604
19241TIP3    H279215   0.395   1.373  13.422 -0.1942  0.6004 -1.8315
19242TIP3   OH279216   0.453   3.653   0.024  0.3069 -0.2995 -0.3670
19242TIP3    H179217   0.508   3.730   0.009  1.8942 -1.6163 -1.7967
19242TIP3    H279218   0.381   3.663  -0.038 -0.8175  1.1519  1.1064
19243TIP3   OH279219   1.141   6.706   6.160 -0.0719 -0.1908  0.0893
19243TIP3    H179220   1.236   6.692   6.157 -0.1298 -1.3579  2.0020
19243TIP3    H279221   1.112   6.690   6.070  1.4560 -0.6028 -0.3644
19244TIP3   OH279222   4.027   4.750   3.684  0.3963 -0.1255  0.2731
19244TIP3    H179223   4.036   4.798   3.602  0.4137 -0.4201  0.1048
19244TIP3    H279224   3.934   4.755   3.705 -0.0255 -1.9659 -0.9213
19245TIP3   OH279225   5.201   3.635  14.295 -0.0248  0.2484 -0.3390
19245TIP3    H179226   5.171   3.716  14.335  0.9204  0.9613 -1.0294
19245TIP3    H279227   5.297   3.639  14.301  0.3303  1.1135 -3.8446
19246TIP3   OH279228   2.262   0.978  14.681 -0.2197  0.0044  0.0133
19246TIP3    H179229   2.226   0.904  14.730 -0.0499 -0.7773 -0.9929
19246TIP3    H279230   2.186   1.032  14.660 -0.6739 -0.9701 -0.9995
19247TIP3   OH279231   6.126   5.822  13.181 -0.3616 -0.0233 -0.1463
19247TIP3    H179232   6.181   5.872  13.241 -2.1530  3.0311 -0.8398
19247TIP3    H279233   6.178   5.817  13.100  2.2276 -4.4877  1.4435
19248TIP3   OH279234   5.808   4.885   1.479 -0.0400  0.4007  0.2172
19248TIP3    H179235   5.792   4.958   1.419  0.8086  1.7654  1.5637
19248TIP3    H279236   5.734   4.826   1.466 -0.4198  1.1693 -1.3837
19249TIP3   OH279237   6.138   4.913  14.970  0.2209  0.5989 -0.0830
19249TIP3    H179238   6.114   4.952  15.054  0.6068  1.6374 -0.4388
19249TIP3    H279239   6.080   4.955  14.907 -0.9206 -1.0724 -0.2009
19250TIP3   OH279240   3.359   4.900  14.775  0.1819  0.5071  0.6938
19250TIP3    H179241   3.287   4.962  14.759 -0.2653  0.3038  1.8115
19250TIP3    H279242   3.315   4.818  14.798  0.7715 -0.0903 -0.2648
19251TIP3   OH279243   4.271   0.995   0.806 -0.1924  0.3452 -0.1006
19251TIP3    H179244   4.288   1.086   0.834  0.7904  0.0854  0.2095
19251TIP3    H279245   4.356   0.963   0.777 -0.8951  0.1046 -2.0246
19252TIP3   OH279246   1.452   5.963   2.201 -0.7128  0.3549 -0.4983
19252TIP3    H179247   1.455   6.041   2.256 -0.3583 -0.2526  0.3522
19252TIP3    H279248   1.366   5.925   2.218 -0.1177 -0.5217  0.6078
19253TIP3   OH279249   6.298   0.509   2.108  0.9195  0.2101 -0.5408
19253TIP3    H179250   6.350   0.558   2.045  0.5704  3.9169  1.7420
19253TIP3    H279251   6.362   0.475   2.171  0.9203  2.0416  0.5166
19254TIP3   OH279252   2.385   3.953   5.858 -0.2587 -0.2496 -0.1929
19254TIP3    H179253   2.395   3.858   5.862 -0.7168 -0.3942 -1.7980
19254TIP3    H279254   2.408   3.983   5.946 -0.2524 -1.8513  0.3907
19255TIP3   OH279255   5.979   1.288  13.032 -0.1848  0.7263  0.1729
19255TIP3    H179256   5.931   1.213  12.996 -1.9208  2.7248 -2.0712
19255TIP3    H279257   5.998   1.263  13.122 -2.1136 -1.7575  0.0188
19256TIP3   OH279258   3.956   1.395  11.630  0.3071 -0.9404  0.8803
19256TIP3    H179259   3.954   1.362  11.720 -1.2425 -3.7387 -0.0565
19256TIP3    H279260   3.878   1.358  11.589  0.1090  1.5371 -1.2518
19257TIP3   OH279261   0.982   0.344   2.176 -0.2445 -0.1414 -0.8558
19257TIP3    H179262   0.908   0.325   2.234  0.5634 -2.2635 -0.4243
19257TIP3    H279263   0.959   0.302   2.093 -0.7396  1.6314 -1.6628
19258TIP3   OH279264   5.696   2.964  13.726 -0.3923  0.1424  0.2506
19258TIP3    H179265   5.611   2.926  13.703 -0.3196  0.6872 -0.9949
19258TIP3    H279266   5.677   3.055  13.748 -0.0375  0.4690 -0.7774
19259TIP3   OH279267   0.363   0.491   4.495  0.1344  0.1800  0.1338
19259TIP3    H179268   0.337   0.400   4.502  1.1398 -0.1294 -0.0502
19259TIP3    H279269   0.384   0.504   4.403 -0.4551  0.7287  0.0680
19260TIP3   OH279270   1.857   6.606   5.673 -0.0212 -0.1702  0.3020
19260TIP3    H179271   1.817   6.572   5.753  0.8756 -1.2571  0.3149
19260TIP3    H279272   1.941   6.560   5.666  0.7399  1.2308 -0.3032
19261TIP3   OH279273   5.151   6.025   4.710  0.2314  0.1774 -0.0604
19261TIP3    H179274   5.225   5.993   4.659  0.4516  1.0147 -0.2751
19261TIP3    H279275   5.190   6.059   4.791 -0.3384 -4.1836  2.3596
19262TIP3   OH279276   0.750   0.651  14.630  0.0710 -0.4440  0.1879
19262TIP3    H179277   0.754   0.715  14.558 -0.3625 -1.5443 -0.8599
19262TIP3    H279278   0.675   0.595  14.607 -0.1104 -0.7848  1.5491
19263TIP3   OH279279   1.257   1.600   1.924 -0.3579 -0.2198  0.0937
19263TIP3    H179280   1.198   1.668   1.958 -1.7412 -0.0976 -2.3187
19263TIP3    H279281   1.208   1.519   1.932 -0.4935 -0.2661 -0.9709
19264TIP3   OH279282   5.855   1.976  13.404 -0.1444  0.8389  0.1574
19264TIP3    H179283   5.875   1.889  13.440  0.1252  0.3375 -1.1229
19264TIP3    H279284   5.830   2.029  13.480 -1.2405 -0.6149  0.8529
19265TIP3   OH279285   2.154   4.098   5.782 -0.0832 -0.0061 -0.0223
19265TIP3    H179286   2.229   4.040   5.799  1.5360  1.0144 -2.9650
19265TIP3    H279287   2.107   4.056   5.710 -2.7340 -0.8267  2.0080
19266TIP3   OH279288   5.751   5.911  12.348 -0.3975  0.4506 -0.4493
19266TIP3    H179289   5.828   5.956  12.382  1.1428 -1.2960 -1.4657
19266TIP3    H279290   5.711   5.871  12.426 -0.2889  1.3452  0.0815
19267TIP3   OH279291   5.326   2.663  15.753  0.2725 -0.5646  0.1189
19267TIP3    H179292   5.268   2.590  15.777 -0.8186  0.0713 -0.4953
19267TIP3    H279293   5.324   2.721  15.830  1.7323 -1.4937  0.9117
19268TIP3   OH279294   5.931   2.299   5.013  0.1231  0.0427 -0.1437
19268TIP3    H179295   6.019   2.261   5.017 -0.2199 -0.7492 -0.0198
19268TIP3    H279296   5.941   2.377   4.959  1.5870  1.8017  2.4045
19269TIP3   OH279297   0.363   0.183  11.932 -0.3721  0.1464  0.3617
19269TIP3    H179298   0.341   0.276  11.934 -1.5192 -0.0829 -0.5806
19269TIP3    H279299   0.293   0.140  11.981 -0.6119 -0.3327 -0.3728
19270TIP3   OH279300   3.560   3.265  13.218 -0.2793  0.2312 -0.2552
19270TIP3    H179301   3.615   3.195  13.182  0.3077  0.3738  0.3387
19270TIP3    H279302   3.474   3.225  13.229  0.0831 -0.4436  0.1893
19271TIP3   OH279303   0.151   6.485   2.705 -0.1506 -0.0277  0.1493
19271TIP3    H179304   0.220   6.550   2.697  0.1198 -0.3004  0.2163
19271TIP3    H279305   0.072   6.529   2.675  0.2744 -0.0944 -1.1368
19272TIP3   OH279306   5.483   4.313   1.841 -0.1489 -0.6813 -0.0187
19272TIP3    H179307   5.426   4.344   1.911  1.3719  1.9644  0.2345
19272TIP3    H279308   5.425   4.298   1.767 -1.2455  2.9066 -0.1113
19273TIP3   OH279309   3.118   1.836  12.855 -0.1144  0.7059  0.3238
19273TIP3    H179310   3.154   1.840  12.766  1.9153  0.6773  1.0857
19273TIP3    H279311   3.169   1.768  12.898 -0.6281  1.1590  1.6867
19274TIP3   OH279312   6.005   5.981   0.174  0.4591  0.0030 -0.2288
19274TIP3    H179313   6.030   5.919   0.106  2.4643  1.4839 -0.9291
19274TIP3    H279314   6.064   6.056   0.161 -1.7285  2.0055  0.6571
19275TIP3   OH279315   3.617   1.502  12.470 -0.7569  0.1028  0.2754
19275TIP3    H179316   3.681   1.434  12.492 -0.3695  0.0198 -1.0224
19275TIP3    H279317   3.613   1.500  12.374 -0.5356  2.0884  0.1875
19276TIP3   OH279318   6.528   1.426   5.619 -0.3487 -0.3576  0.4945
19276TIP3    H179319   6.432   1.436   5.616 -0.2558  0.4105 -1.1582
19276TIP3    H279320   6.542   1.342   5.663 -1.7460 -0.1844  1.3471
19277TIP3   OH279321   3.928   0.618   3.414 -0.4350  0.2711  0.3550
19277TIP3    H179322   3.982   0.558   3.467  0.6287  1.0159  0.1364
19277TIP3    H279323   3.895   0.563   3.343  1.2501  0.0914 -0.3475
19278TIP3   OH279324   4.817   4.292   5.317  0.7140  0.4610 -0.0451
19278TIP3    H179325   4.824   4.264   5.226  2.4027 -0.0550  0.2182
19278TIP3    H279326   4.906   4.287   5.351  0.3241  1.8469  1.2973
19279TIP3   OH279327   6.292   3.851  16.233 -0.1539  0.1167 -0.2912
19279TIP3    H179328   6.355   3.780  16.227 -1.0358 -0.9700  2.1659
19279TIP3    H279329   6.346   3.929  16.250  0.6113 -0.4924  0.1287
19280TIP3   OH279330   0.462   6.286   2.228 -0.6312  0.3114 -0.0250
19280TIP3    H179331   0.471   6.255   2.138  0.9314 -0.7224  0.4496
19280TIP3    H279332   0.447   6.206   2.279  0.3938  0.6671  0.8555
19281TIP3   OH279333   6.523   6.490   2.277 -0.0072 -0.3713 -0.5020
19281TIP3    H179334   6.454   6.476   2.211  0.8404 -1.6231 -1.1622
19281TIP3    H279335   6.564   6.572   2.252 -1.0409  0.2265 -0.2928
19282TIP3   OH279336   2.849   2.167  15.669 -0.2787  0.5835  0.3875
19282TIP3    H179337   2.934   2.190  15.705  0.0203 -0.2376  0.2235
19282TIP3    H279338   2.829   2.081  15.707 -0.2197 -0.0418 -0.9176
19283TIP3   OH279339   2.281   4.992   3.215 -0.5038 -0.5584 -0.0895
19283TIP3    H179340   2.219   4.926   3.184 -1.5238  0.1790  0.3115
19283TIP3    H279341   2.249   5.074   3.178 -0.6039  0.0457  1.2734
19284TIP3   OH279342   2.653   5.478   1.203 -0.4317 -0.1791 -0.3150
19284TIP3    H179343   2.699   5.523   1.274 -0.1211  1.6924 -1.6248
19284TIP3    H279344   2.721   5.455   1.140 -0.7799 -1.2481 -0.3224
19285TIP3   OH279345   0.947   3.419   2.274  0.4169  0.4302 -0.3218
19285TIP3    H179346   0.874   3.408   2.336  0.8742 -0.0822  0.1314
19285TIP3    H279347   1.002   3.342   2.288 -0.1197 -0.3891 -2.2531
19286TIP3   OH279348   5.522   4.332   5.962  0.2483  0.8043  0.3678
19286TIP3    H179349   5.510   4.334   6.057 -0.8931  0.0223  0.2626
19286TIP3    H279350   5.612   4.303   5.950 -0.4616 -2.1511  1.2325
19287TIP3   OH279351   0.183   6.007   3.693 -0.5682 -0.1066  0.1610
19287TIP3    H179352   0.166   5.914   3.707 -1.2605  0.1792  1.3650
19287TIP3    H279353   0.102   6.041   3.654  0.2631 -0.2921 -1.8693
19288TIP3   OH279354   0.556   3.337  11.597 -0.0993 -0.1204  0.5384
19288TIP3    H179355   0.512   3.260  11.562 -0.8183  0.0096  1.1098
19288TIP3    H279356   0.501   3.363  11.671 -0.8654  1.9414 -0.6581
19289TIP3   OH279357   1.122   0.140   5.342  0.3277 -0.2393 -0.0164
19289TIP3    H179358   1.203   0.188   5.362  1.6467 -2.6603  0.7722
19289TIP3    H279359   1.085   0.187   5.266  1.3241  2.1647  0.8902
19290TIP3   OH279360   2.566   5.242   1.289  0.1814 -0.0821 -0.2805
19290TIP3    H179361   2.586   5.177   1.221 -1.0723  0.4486 -1.1864
19290TIP3    H279362   2.585   5.326   1.247  1.6968  0.1788  0.8500
19291TIP3   OH279363   2.560   6.271  12.255  0.1842 -0.2342  0.8119
19291TIP3    H179364   2.614   6.349  12.246  1.5553 -1.2923 -0.6244
19291TIP3    H279365   2.552   6.236  12.167 -0.7010 -1.5248  1.3689
19292TIP3   OH279366   6.238   4.546  16.692  0.3463 -0.0454 -0.1601
19292TIP3    H179367   6.200   4.519  16.775 -0.0728 -0.9086 -0.6052
19292TIP3    H279368   6.252   4.640  16.700  1.9162 -0.3928  1.5042
19293TIP3   OH279369   2.759   3.321  13.020  0.1044 -0.2164  0.1612
19293TIP3    H179370   2.765   3.416  13.012  1.0600 -0.3767 -1.2647
19293TIP3    H279371   2.671   3.306  13.055 -0.5486  1.1356 -0.8187
19294TIP3   OH279372   4.917   5.484  13.009  0.3303  0.3867  0.0298
19294TIP3    H179373   4.984   5.489  12.941  0.9977  0.9721  0.7022
19294TIP3    H279374   4.834   5.475  12.962  0.9947 -2.2226 -0.7863
19295TIP3   OH279375   4.698   3.327   5.536 -0.5687 -1.0738  0.2401
19295TIP3    H179376   4.671   3.418   5.521 -0.6638 -1.1406  0.0053
19295TIP3    H279377   4.748   3.331   5.617 -0.6180 -0.8194  0.2619
19296TIP3   OH279378   1.469   3.220   5.832 -0.3090 -0.0200 -0.1145
19296TIP3    H179379   1.534   3.284   5.805  0.3963 -1.0823 -0.9800
19296TIP3    H279380   1.386   3.269   5.831 -0.0331  0.5006 -2.3151
19297TIP3   OH279381   4.114   1.985  12.310  0.5396  0.4474  0.0613
19297TIP3    H179382   4.168   1.962  12.386 -0.9744 -0.7597  0.8314
19297TIP3    H279383   4.127   1.913  12.249 -2.0629 -1.2417  1.3192
19298TIP3   OH279384   2.896   3.947  13.397  0.2576  0.3421  0.1174
19298TIP3    H179385   2.894   3.886  13.471  1.7784 -0.1987 -0.2504
19298TIP3    H279386   2.987   3.974  13.391  0.1282  0.5279 -1.4390
19299TIP3   OH279387   6.287   0.053  13.963 -0.2275  0.2471 -0.3880
19299TIP3    H179388   6.215   0.096  14.008  0.1136  0.6293 -0.1987
19299TIP3    H279389   6.366   0.096  13.996  0.1646 -0.8507  0.1809
19300TIP3   OH279390   6.069   0.725  16.980 -0.4925  0.0353  0.1041
19300TIP3    H179391   6.110   0.768  16.905 -0.4109  0.4535  0.3771
19300TIP3    H279392   6.124   0.750  17.054 -1.2131  0.5820  0.4734
19301TIP3   OH279393   5.268   0.248  16.114  0.0364 -0.1197  1.1749
19301TIP3    H179394   5.316   0.329  16.132 -0.3428 -0.1844  2.5735
19301TIP3    H279395   5.187   0.277  16.072  0.3658  0.1419  0.7121
19302TIP3   OH279396   1.631   6.097   3.607 -0.0592  0.1799  0.5682
19302TIP3    H179397   1.575   6.045   3.665  0.9720 -1.4876  0.1354
19302TIP3    H279398   1.582   6.102   3.525  0.2391 -0.9452  0.3109
19303TIP3   OH279399   0.941   4.901  14.905  0.3191  0.3542  0.1412
19303TIP3    H179400   0.905   4.829  14.956 -1.2647  0.1206 -1.1928
19303TIP3    H279401   0.999   4.859  14.841 -0.1713  0.3010 -0.2763
19304TIP3   OH279402   1.340   5.833  15.893  0.0100 -0.1075 -0.0353
19304TIP3    H179403   1.393   5.819  15.814 -2.2146 -1.6239 -1.3862
19304TIP3    H279404   1.329   5.928  15.897 -0.5953 -0.0240 -2.1618
19305TIP3   OH279405   5.217   4.561  12.887  0.4861  0.4675  0.2072
19305TIP3    H179406   5.262   4.532  12.966  0.2194 -3.5593 -0.9239
19305TIP3    H279407   5.280   4.547  12.816 -0.0758  1.7608 -0.5913
19306TIP3   OH279408   4.392   2.101   4.282 -0.2171 -0.3857 -0.3634
19306TIP3    H179409   4.483   2.130   4.283 -0.1450 -0.6176 -0.0037
19306TIP3    H279410   4.363   2.115   4.192 -0.3390  1.2754 -0.0902
19307TIP3   OH279411   5.791   0.042   3.232 -0.2469  0.1293  0.0626
19307TIP3    H179412   5.705   0.082   3.248 -0.3021 -0.3577  1.0317
19307TIP3    H279413   5.822   0.016   3.318 -0.4965 -2.5176 -0.5574
19308TIP3   OH279414   4.304   4.314   1.837 -0.7640  0.3805 -0.3437
19308TIP3    H179415   4.388   4.281   1.805 -1.0869 -0.5481 -0.2604
19308TIP3    H279416   4.290   4.395   1.787  0.1031  0.4703 -0.4603
19309TIP3   OH279417   2.485   1.790   2.336  0.5189  0.2792  0.4429
19309TIP3    H179418   2.442   1.756   2.258  1.0637 -2.9884  1.4515
19309TIP3    H279419   2.416   1.841   2.380  0.0653  1.7809 -1.8239
19310TIP3   OH279420   3.538   4.991   5.946  0.3684 -0.1611  0.3715
19310TIP3    H179421   3.549   4.906   5.904  1.3828 -0.7955  1.8338
19310TIP3    H279422   3.565   4.977   6.036  1.8666  2.0096  0.3521
19311TIP3   OH279423   1.479   5.500  11.802 -0.0173  0.2042  0.3317
19311TIP3    H179424   1.456   5.408  11.791 -2.2944  0.8708 -1.1427
19311TIP3    H279425   1.414   5.548  11.750  1.8729  2.5976 -0.0212
19312TIP3   OH279426   3.151   1.943   3.087 -0.7485 -0.0296  0.4444
19312TIP3    H179427   3.184   1.918   3.000 -1.4077  2.3185 -0.5637
19312TIP3    H279428   3.210   1.900   3.148  1.3073  0.2554 -1.2151
19313TIP3   OH279429   1.486   4.578   4.440  0.3327  0.2785  0.0130
19313TIP3    H179430   1.430   4.619   4.375  0.5607 -0.2258 -0.5175
19313TIP3    H279431   1.572   4.617   4.425  0.2036  0.7952  0.5922
19314TIP3   OH279432   5.195   5.056  12.975  0.5305  0.0068  0.1619
19314TIP3    H179433   5.217   5.138  12.930  1.3087 -0.8593 -1.0672
19314TIP3    H279434   5.158   5.000  12.907 -0.9723 -0.3220  1.2102
19315TIP3   OH279435   6.177   0.226   4.835  0.2376  0.5201  0.3881
19315TIP3    H179436   6.240   0.285   4.795 -0.0816  1.0762  0.6998
19315TIP3    H279437   6.132   0.279   4.901  0.7435 -0.3744  1.4692
19316TIP3   OH279438   2.649   2.150   3.258  0.4010 -0.1659  0.5752
19316TIP3    H179439   2.620   2.135   3.348 -0.2061 -3.0546 -0.0045
19316TIP3    H279440   2.734   2.106   3.253 -0.1419 -1.1394 -0.5470
19317TIP3   OH279441   3.180   3.053   4.992 -0.4964  0.1458  0.0751
19317TIP3    H179442   3.159   3.138   5.031 -2.4422  0.2663 -1.1230
19317TIP3    H279443   3.180   3.069   4.898 -2.9647 -1.5325 -0.2991
19318TIP3   OH279444   4.214   3.403  14.708 -0.0603 -0.0426  0.7576
19318TIP3    H179445   4.198   3.393  14.802 -0.0561  2.8595  1.1482
19318TIP3    H279446   4.127   3.407  14.669 -0.1188  0.8892  0.9534
19319TIP3   OH279447   3.842   3.126  13.961  0.6036 -0.2707 -0.0029
19319TIP3    H179448   3.830   3.169  13.877 -0.3248  1.9751  1.2050
19319TIP3    H279449   3.878   3.040  13.939  1.9829  0.8610 -2.5654
19320TIP3   OH279450   1.792   1.587   3.585 -0.2588  0.1931 -0.5177
19320TIP3    H179451   1.821   1.521   3.521 -1.1693 -0.5396 -0.1981
19320TIP3    H279452   1.865   1.594   3.647 -0.3965 -0.9861 -0.2039
19321TIP3   OH279453   5.666   5.756  11.911 -0.3775 -0.3181  0.3344
19321TIP3    H179454   5.614   5.836  11.916  1.0804  0.7059 -0.1395
19321TIP3    H279455   5.634   5.702  11.983  1.1723  2.3173  3.2778
19322TIP3   OH279456   2.113   2.544  13.989  0.1149 -0.3029  0.4718
19322TIP3    H179457   2.124   2.639  14.001  0.7439 -0.2960 -0.1124
19322TIP3    H279458   2.201   2.508  14.004  0.5027 -0.5113 -1.8382
19323TIP3   OH279459   2.007   1.878   3.025 -0.0485 -0.4113  0.7276
19323TIP3    H179460   1.941   1.886   3.093 -0.8125 -2.2320  0.2656
19323TIP3    H279461   1.967   1.915   2.947  1.0161  2.1512  1.2956
19324TIP3   OH279462   5.960   5.307   0.949  0.4452 -0.3566  0.4861
19324TIP3    H179463   5.887   5.365   0.931  0.7840 -0.1394 -0.1966
19324TIP3    H279464   5.928   5.220   0.925 -0.1676 -0.5216  1.7957
19325TIP3   OH279465   2.458   2.667   1.709  0.2617  0.3132 -0.3012
19325TIP3    H179466   2.424   2.610   1.641 -0.2294  1.6644 -1.2249
19325TIP3    H279467   2.496   2.741   1.662 -1.8826  2.2893  0.8640
19326TIP3   OH279468   0.785   3.165  14.258 -0.0044 -0.0218  0.0842
19326TIP3    H179469   0.707   3.210  14.224 -0.4906 -0.8496  0.0834
19326TIP3    H279470   0.831   3.135  14.180  0.7149  1.0973  0.0548
19327TIP3   OH279471   4.056   4.618   0.194  0.5616 -0.5505  0.5182
19327TIP3    H179472   4.040   4.711   0.181 -0.5631 -0.7963 -0.0230
19327TIP3    H279473   3.974   4.585   0.231  0.3879 -1.5878 -0.7223
19328TIP3   OH279474   6.738   3.584   2.864 -0.1217 -0.6706 -0.2776
19328TIP3    H179475   6.805   3.643   2.830 -0.6772  0.3858  0.4113
19328TIP3    H279476   6.656   3.633   2.857 -0.6544 -1.5021 -0.0347
19329TIP3   OH279477   4.541   2.441  13.126  0.3442  0.2875 -0.3285
19329TIP3    H179478   4.582   2.426  13.040 -0.3205 -2.9498 -0.2216
19329TIP3    H279479   4.612   2.425  13.189  1.0052  3.2909 -0.1438
19330TIP3   OH279480   6.396   4.755   5.416  0.3799  0.3925 -0.5684
19330TIP3    H179481   6.375   4.804   5.495  0.3499 -0.3080 -0.1286
19330TIP3    H279482   6.328   4.687   5.412 -2.6160  3.2239 -3.8055
19331TIP3   OH279483   4.651   2.137  13.357  0.5670  0.2197 -0.0832
19331TIP3    H179484   4.645   2.106  13.267  0.1826  0.6718 -0.2170
19331TIP3    H279485   4.703   2.218  13.351 -1.2812  1.4546 -0.2176
19332TIP3   OH279486   0.029   5.764   4.498  0.0872  0.7356  0.0566
19332TIP3    H179487   0.101   5.732   4.443 -0.9892  0.5836 -1.3292
19332TIP3    H279488  -0.049   5.725   4.459 -0.6447 -0.3252  2.4378
19333TIP3   OH279489   2.654   4.998   3.560 -0.1842  0.9612  0.3655
19333TIP3    H179490   2.595   5.071   3.576  0.4754  1.4702  0.5357
19333TIP3    H279491   2.738   5.026   3.597 -0.3231 -0.5455  1.9671
19334TIP3   OH279492   0.116   1.172  14.054 -0.1414  0.2567 -0.0547
19334TIP3    H179493   0.051   1.138  14.115  1.1347 -1.7265  0.2821
19334TIP3    H279494   0.064   1.201  13.979 -1.5694  0.8682  1.1066
19335TIP3   OH279495   6.610   4.689   2.841 -0.4248 -0.1694  0.2497
19335TIP3    H179496   6.568   4.754   2.785  0.8506 -1.3248 -2.2319
19335TIP3    H279497   6.689   4.731   2.872 -0.2864 -0.0530 -0.2409
19336TIP3   OH279498   6.378   3.229   0.153 -0.2320  0.2818  0.1140
19336TIP3    H179499   6.302   3.247   0.208 -1.2527 -0.2257 -1.0810
19336TIP3    H279500   6.424   3.158   0.197 -0.2749  0.7994  1.0068
19337TIP3   OH279501   5.618   5.714  16.995 -0.1700  0.2832  0.1709
19337TIP3    H179502   5.594   5.716  16.903  0.8926  1.7742 -0.1202
19337TIP3    H279503   5.695   5.657  16.998 -1.5479 -1.6712  0.5576
19338TIP3   OH279504   1.989   2.957   4.348  0.1282 -0.0483 -0.4265
19338TIP3    H179505   2.030   2.913   4.423 -0.3727 -0.0321 -0.1399
19338TIP3    H279506   2.062   2.996   4.300  0.4946 -0.4460 -0.1958
19339TIP3   OH279507   5.145   3.404   5.633  0.0598 -0.0418  0.0817
19339TIP3    H179508   5.138   3.373   5.723 -0.0571  1.0744  0.4732
19339TIP3    H279509   5.056   3.432   5.610 -0.4324 -2.4050 -1.1978
19340TIP3   OH279510   6.827   0.448  14.828 -0.4248 -0.4050 -0.0427
19340TIP3    H179511   6.746   0.455  14.879 -0.6728  2.4605 -0.6560
19340TIP3    H279512   6.896   0.473  14.889 -0.0729 -1.9106  0.2122
19341TIP3   OH279513   3.251   5.838   3.822  0.0989  0.0707  0.1797
19341TIP3    H179514   3.295   5.791   3.892  2.3371  1.1471 -0.4274
19341TIP3    H279515   3.273   5.790   3.743  1.1856  1.2406 -0.2627
19342TIP3   OH279516   2.673   6.808  12.063  0.2609 -0.1893  0.2790
19342TIP3    H179517   2.610   6.866  12.108  0.0043 -0.8153  0.7317
19342TIP3    H279518   2.677   6.843  11.974  2.2507  2.2943  1.2270
19343TIP3   OH279519   2.705   3.152   0.458  0.7749  0.2700  0.2087
19343TIP3    H179520   2.616   3.184   0.471  0.1897 -0.6809 -1.2376
19343TIP3    H279521   2.752   3.226   0.419  0.0298  0.1217 -1.0287
19344TIP3   OH279522   2.070   4.554  13.510 -0.1601 -0.1665  0.7475
19344TIP3    H179523   2.012   4.620  13.548 -0.8207 -1.2072  1.6158
19344TIP3    H279524   2.013   4.497  13.460  0.5675  0.5657 -1.0060
19345TIP3   OH279525   5.910   4.885   3.210  0.3039  0.0593 -0.2318
19345TIP3    H179526   5.850   4.816   3.239 -0.4779  0.7068 -0.2975
19345TIP3    H279527   5.854   4.952   3.173  0.8706  1.7038  1.7049
19346TIP3   OH279528   0.403   0.871   0.441  0.0585  0.1907 -0.1150
19346TIP3    H179529   0.346   0.794   0.442  0.8417 -0.3903  0.0178
19346TIP3    H279530   0.392   0.907   0.353  1.1013 -1.1533 -0.8314
19347TIP3   OH279531   6.804   3.350   2.309 -0.1982 -0.8425  0.8114
19347TIP3    H179532   6.756   3.343   2.226  0.4193 -0.6569  0.4269
19347TIP3    H279533   6.889   3.310   2.290  1.0663  1.7809  0.4397
19348TIP3   OH279534   3.801   5.321   5.928  0.7058  0.4251  0.1589
19348TIP3    H179535   3.895   5.337   5.918  0.4798  1.1770 -0.9479
19348TIP3    H279536   3.796   5.237   5.974  1.9193 -0.2722 -0.9045
19349TIP3   OH279537   5.948   3.895   1.318  0.0939 -0.3245 -0.2023
19349TIP3    H179538   6.002   3.816   1.317  0.1644 -0.2705 -1.6761
19349TIP3    H279539   5.873   3.871   1.373  0.2042 -1.3558 -0.4848
19350TIP3   OH279540   5.221   4.527  12.354  0.1775 -0.4581 -0.6304
19350TIP3    H179541   5.140   4.487  12.325  0.3682 -0.4022 -1.2560
19350TIP3    H279542   5.287   4.457  12.346  0.0319 -0.7745  0.7327
19351TIP3   OH279543   3.884   1.349   0.560 -0.6937 -0.3852 -0.5699
19351TIP3    H179544   3.969   1.333   0.518 -0.6638  0.3018 -0.7854
19351TIP3    H279545   3.858   1.436   0.528 -1.1906 -0.3309 -0.0274
19352TIP3   OH279546   5.671   2.369  10.765 -0.1406  0.5958  0.6679
19352TIP3    H179547   5.578   2.351  10.777 -0.3012  1.8636  1.5427
19352TIP3    H279548   5.674   2.425  10.687 -0.0201 -0.0717  0.1842
19353TIP3   OH279549   4.237   3.702   0.154 -0.3685 -0.4369 -0.7720
19353TIP3    H179550   4.216   3.695   0.247 -2.2982  0.4686 -1.0762
19353TIP3    H279551   4.332   3.709   0.151 -0.3662  1.6648  1.3285
19354TIP3   OH279552   2.881   0.551  16.127  0.2354 -0.6693 -0.6928
19354TIP3    H179553   2.854   0.480  16.185  0.5257 -1.2689 -1.2872
19354TIP3    H279554   2.942   0.511  16.066  0.2338  0.0451 -1.1744
19355TIP3   OH279555   6.025   1.852  14.435  0.3465  0.3918 -0.0439
19355TIP3    H179556   6.052   1.928  14.384  1.4195  0.8355  1.1163
19355TIP3    H279557   6.107   1.808  14.458 -0.2528 -1.2857 -0.8922
19356TIP3   OH279558   4.345   5.438  11.094  0.1328  0.8063  0.0214
19356TIP3    H179559   4.297   5.515  11.064 -0.4322  0.6712  0.5517
19356TIP3    H279560   4.369   5.458  11.184 -0.9816 -0.0591  0.5383
19357TIP3   OH279561   1.795   6.847   4.844  0.6515  0.2860  0.6337
19357TIP3    H179562   1.716   6.793   4.843  0.9268 -0.1260 -0.7626
19357TIP3    H279563   1.800   6.883   4.755  1.1628  1.6027  1.1797
19358TIP3   OH279564   2.609   3.966  12.127  0.6968  0.1189 -0.2644
19358TIP3    H179565   2.573   4.052  12.106 -0.8682 -0.1628  0.9523
19358TIP3    H279566   2.644   3.933  12.045 -2.0778  0.3919 -1.6874
19359TIP3   OH279567   0.494   2.136  12.136 -0.4124  0.7162  0.1895
19359TIP3    H179568   0.513   2.149  12.229 -1.4916  1.0248  0.3841
19359TIP3    H279569   0.438   2.058  12.133  1.5527 -0.7524 -0.4555
19360TIP3   OH279570   1.190   3.728   0.327 -0.4504 -0.5185 -0.6052
19360TIP3    H179571   1.141   3.740   0.408 -0.2962  0.2305 -0.6186
19360TIP3    H279572   1.250   3.802   0.323 -0.5204 -0.4933 -1.4518
19361TIP3   OH279573   5.443   3.103   0.233 -0.0611  0.0358 -0.0390
19361TIP3    H179574   5.460   3.128   0.324 -1.9530 -1.5152  0.8411
19361TIP3    H279575   5.529   3.104   0.191  0.9227  0.4605  1.8537
19362TIP3   OH279576   3.519   1.226  14.342 -0.1466 -0.2859 -0.1006
19362TIP3    H179577   3.482   1.169  14.410  1.7949  0.0197  1.3112
19362TIP3    H279578   3.600   1.182  14.316  0.0261  0.4995 -0.9201
19363TIP3   OH279579   3.234   6.614  15.827 -0.0802 -0.1996  0.0379
19363TIP3    H179580   3.267   6.616  15.737  1.0206  1.2708  0.4354
19363TIP3    H279581   3.145   6.648  15.820  0.6358  1.7566 -0.3042
19364TIP3   OH279582   0.505   0.039   3.363 -0.2186  1.0405 -0.2233
19364TIP3    H179583   0.442  -0.028   3.388 -0.3711  0.5770 -1.7343
19364TIP3    H279584   0.585   0.015   3.410  0.3630 -1.4816 -2.2814
19365TIP3   OH279585   0.880   4.493   3.058  0.5470  0.5901 -0.4757
19365TIP3    H179586   0.868   4.538   3.142 -1.2729 -1.2805  0.3602
19365TIP3    H279587   0.900   4.402   3.082 -1.4806 -0.3422 -1.9783
19366TIP3   OH279588   0.290   1.403   1.938  0.0622  0.1870  0.1799
19366TIP3    H179589   0.340   1.377   2.015  0.7008  0.4028 -0.1587
19366TIP3    H279590   0.232   1.328   1.921  1.7886 -1.0208 -0.7024
19367TIP3   OH279591   1.253   1.042  15.947  0.3244  1.0333 -0.0092
19367TIP3    H179592   1.281   1.011  15.861  1.7811  1.6839  0.2051
19367TIP3    H279593   1.271   0.969  16.006 -1.7755  0.1387 -0.3981
19368TIP3   OH279594   3.068   1.659   6.188  0.1423  0.0375 -1.0095
19368TIP3    H179595   2.983   1.696   6.164  1.0402  2.9290 -0.1512
19368TIP3    H279596   3.116   1.732   6.226  2.4262 -1.9052  0.1270
19369TIP3   OH279597   5.453   0.466  13.985 -0.4090 -0.2028  0.5477
19369TIP3    H179598   5.405   0.383  13.990  0.5601 -0.7681  0.8586
19369TIP3    H279599   5.541   0.441  13.954 -0.0223  0.6705  0.9033
19370TIP3   OH279600   3.510   5.550  11.082 -0.1464  0.8589 -0.0922
19370TIP3    H179601   3.423   5.526  11.052  0.6236 -0.6225 -1.2292
19370TIP3    H279602   3.511   5.646  11.078 -1.4855  0.8641 -0.7203
19371TIP3   OH279603   3.998   2.632  14.516 -0.0853  0.0759 -0.7802
19371TIP3    H179604   4.078   2.617  14.566 -1.1560 -1.5672  0.5708
19371TIP3    H279605   3.972   2.722  14.539  0.9211  0.3185 -0.5745
19372TIP3   OH279606   5.141   6.467   1.963  0.4298  0.4241  0.2063
19372TIP3    H179607   5.069   6.468   1.899 -0.9548 -0.0702  1.6841
19372TIP3    H279608   5.132   6.383   2.008  2.4289  0.0177 -0.0737
19373TIP3   OH279609   2.428   3.453  12.770  0.1551  0.2527  0.3729
19373TIP3    H179610   2.423   3.534  12.719  0.7338 -0.5722 -1.0642
19373TIP3    H279611   2.346   3.407  12.750  0.2750  0.0361  0.3760
19374TIP3   OH279612   3.940   1.450  15.648 -0.2982  0.3353  0.3062
19374TIP3    H179613   4.022   1.433  15.603 -0.3484 -3.1906  1.2473
19374TIP3    H279614   3.958   1.525  15.704  2.4501 -0.5661  0.7592
19375TIP3   OH279615   6.394   1.915   2.821  0.1541  0.1474 -0.2347
19375TIP3    H179616   6.335   1.971   2.872  1.7621 -0.3907  2.4492
19375TIP3    H279617   6.479   1.958   2.827  1.1679 -1.8526  0.8883
19376TIP3   OH279618   0.354   6.479  12.169 -0.1671  0.3745  0.5306
19376TIP3    H179619   0.260   6.492  12.185  0.2039  3.0707  0.8850
19376TIP3    H279620   0.395   6.497  12.253  0.7287 -0.4554  0.2844
19377TIP3   OH279621   6.345   5.504   1.589  0.4302  0.2052  0.5076
19377TIP3    H179622   6.263   5.512   1.539 -0.4524  1.0091  2.0188
19377TIP3    H279623   6.395   5.438   1.542 -1.5699 -1.1622  0.1809
19378TIP3   OH279624   5.780   1.305   5.125  0.2381 -0.4589 -0.0406
19378TIP3    H179625   5.685   1.314   5.127  0.1600 -1.2844  0.3791
19378TIP3    H279626   5.809   1.369   5.060 -0.6164 -0.3681 -0.3418
19379TIP3   OH279627   3.585   0.793   2.458  0.1950  0.1991  0.2500
19379TIP3    H179628   3.575   0.698   2.461  2.7425 -0.1084  0.9928
19379TIP3    H279629   3.674   0.807   2.427 -0.0209  2.3445  0.4634
19380TIP3   OH279630   5.765   5.603   2.603 -0.1472  0.8425 -0.2708
19380TIP3    H179631   5.765   5.627   2.696  1.2008  1.5416 -0.4203
19380TIP3    H279632   5.789   5.510   2.602  1.6203  1.2451  0.0485
19381TIP3   OH279633   4.454   4.890   5.553  0.2482  0.0251 -0.3468
19381TIP3    H179634   4.525   4.826   5.561 -0.1863 -0.4358 -0.1128
19381TIP3    H279635   4.457   4.941   5.634 -0.0372 -0.3626 -0.0882
19382TIP3   OH279636   0.931   6.096  11.325 -0.3512 -0.6410  0.2879
19382TIP3    H179637   0.925   6.060  11.414  0.1406 -0.4370  0.4090
19382TIP3    H279638   0.844   6.133  11.308 -0.6687 -1.3175  0.4062
19383TIP3   OH279639   1.604   4.159   2.788 -0.1082 -0.3644  0.4556
19383TIP3    H179640   1.666   4.103   2.833 -2.2671 -1.2863  2.4997
19383TIP3    H279641   1.543   4.187   2.856 -1.6183  0.9316 -1.3175
19384TIP3   OH279642   6.835   3.060   4.245  0.1498 -0.2669  0.0065
19384TIP3    H179643   6.861   2.972   4.218  0.5960  0.1554 -1.0559
19384TIP3    H279644   6.744   3.068   4.218  0.9428  0.5949 -2.7877
19385TIP3   OH279645   6.459   6.222  15.859  0.1597 -0.6748  0.0836
19385TIP3    H179646   6.401   6.147  15.852  2.9944 -3.3352  2.2294
19385TIP3    H279647   6.452   6.266  15.775 -2.3815 -2.7537 -0.9185
19386TIP3   OH279648   2.452   6.005   4.631  0.4328  0.1964 -1.3331
19386TIP3    H179649   2.378   6.064   4.646  0.1957 -0.5535  0.8999
19386TIP3    H279650   2.413   5.918   4.625  1.0245 -0.0696 -1.4129
19387TIP3   OH279651   0.289   1.758  13.574 -0.2772  0.4249  0.2026
19387TIP3    H179652   0.196   1.741  13.584 -0.3438  0.3798 -0.4156
19387TIP3    H279653   0.307   1.738  13.482  0.5005 -0.3188  0.4919
19388TIP3   OH279654   1.159   3.946  15.588  0.5139  0.3782  0.3205
19388TIP3    H179655   1.159   3.997  15.669  0.4977 -0.5354  0.9179
19388TIP3    H279656   1.105   3.869  15.609  1.4463 -0.4326 -0.1745
19389TIP3   OH279657   3.631   1.886   4.128 -0.2213  0.7696  0.2055
19389TIP3    H179658   3.712   1.867   4.081 -0.1031  2.5201 -0.3612
19389TIP3    H279659   3.654   1.877   4.220  0.2860  0.0778  0.0213
19390TIP3   OH279660   6.763   3.184  10.429 -0.0306 -0.0034 -0.5632
19390TIP3    H179661   6.755   3.258  10.489  1.0793  0.1900 -0.6479
19390TIP3    H279662   6.855   3.182  10.404 -0.1290 -1.1486 -0.9037
19391TIP3   OH279663   6.174   4.892  14.215 -0.4515  0.2831 -0.0824
19391TIP3    H179664   6.109   4.934  14.160  0.2918  1.5363 -0.0376
19391TIP3    H279665   6.236   4.961  14.237  1.3318 -1.0042 -0.7580
19392TIP3   OH279666   0.539   6.051  15.802  1.0326  0.1440 -0.1544
19392TIP3    H179667   0.603   5.999  15.850  0.9277  1.7821  1.9095
19392TIP3    H279668   0.577   6.061  15.715  2.2447 -1.1962  0.1808
19393TIP3   OH279669   1.275   5.410  16.037 -0.0805  0.3661 -0.5621
19393TIP3    H179670   1.285   5.322  16.003 -0.6630  0.5615 -1.2692
19393TIP3    H279671   1.330   5.464  15.980 -0.3866  0.5783 -0.6554
19394TIP3   OH279672   6.674   1.187  11.096  0.6875 -0.1087 -0.6340
19394TIP3    H179673   6.609   1.137  11.146  0.7487 -1.3220 -1.7073
19394TIP3    H279674   6.659   1.278  11.121  0.6375 -0.6336  1.4823
19395TIP3   OH279675   0.376   1.635   1.696 -0.5421 -0.1383 -0.0352
19395TIP3    H179676   0.347   1.714   1.650 -0.3288 -0.4018 -0.6473
19395TIP3    H279677   0.411   1.666   1.779 -0.3453  0.4307 -0.3258
19396TIP3   OH279678   0.585   1.698  11.867  0.0473  0.2259  0.1068
19396TIP3    H179679   0.538   1.782  11.870  0.0530  0.2559 -0.4697
19396TIP3    H279680   0.544   1.651  11.794 -0.4742 -0.5875  0.9076
19397TIP3   OH279681   6.023   4.597   4.509  0.2501  0.3160 -0.5837
19397TIP3    H179682   5.956   4.660   4.535 -1.1847 -1.3362 -0.1004
19397TIP3    H279683   6.054   4.628   4.424 -2.2354  0.3535 -1.5694
19398TIP3   OH279684   6.843   1.782  11.337 -0.2020  0.0027  0.0444
19398TIP3    H179685   6.805   1.726  11.405 -0.5255  2.7137  2.2693
19398TIP3    H279686   6.904   1.839  11.383 -0.0067  1.6187 -2.0276
19399TIP3   OH279687   1.368   6.841  15.779  0.2032 -0.0081  0.3626
19399TIP3    H179688   1.286   6.801  15.807  0.2316  0.0033  0.4635
19399TIP3    H279689   1.361   6.848  15.684  1.1084 -2.3425  0.0480
19400TIP3   OH279690   5.880   5.756  12.141 -0.1321  0.5000  0.8175
19400TIP3    H179691   5.843   5.788  12.223  1.3684  1.1637  1.2665
19400TIP3    H279692   5.974   5.756  12.155  0.0712 -1.5279 -0.1429
19401TIP3   OH279693   4.091   0.538  11.750 -0.3260  0.1816 -0.4526
19401TIP3    H179694   4.108   0.462  11.805  1.5072  1.0258  0.2469
19401TIP3    H279695   4.111   0.508  11.661 -1.4070 -0.6391 -0.4358
19402TIP3   OH279696   3.548   5.489  12.476  0.5131  0.2003  0.0299
19402TIP3    H179697   3.478   5.535  12.429  1.0231 -1.3552 -2.4467
19402TIP3    H279698   3.629   5.516  12.431  0.8316 -3.0164 -1.6630
19403TIP3   OH279699   1.301   4.954   2.528  0.2515 -0.1148 -0.2288
19403TIP3    H179700   1.247   5.023   2.488 -0.6078 -0.7301 -0.1468
19403TIP3    H279701   1.288   4.878   2.472  0.8329 -0.3493 -0.0508
19404TIP3   OH279702   2.053   1.334  14.885 -0.4805  0.4323  0.5465
19404TIP3    H179703   2.049   1.243  14.915 -0.3034  0.2900  0.1437
19404TIP3    H279704   2.144   1.347  14.858 -0.8515  0.2483 -0.8637
19405TIP3   OH279705   3.141   4.366   1.748  0.6912 -0.0578 -0.1375
19405TIP3    H179706   3.135   4.271   1.743  2.4108 -0.2253  0.2794
19405TIP3    H279707   3.155   4.394   1.658 -1.3081 -0.0277 -0.4807
19406TIP3   OH279708   1.203   5.323  11.995  0.3899  0.6070  0.4475
19406TIP3    H179709   1.262   5.384  12.039 -0.6502  1.8298  0.1799
19406TIP3    H279710   1.258   5.282  11.927  1.1372  1.1030  0.7381
19407TIP3   OH279711   2.050   3.321  11.620  0.1011  0.5869  0.3372
19407TIP3    H179712   2.049   3.258  11.693 -0.3331 -0.4666 -0.5550
19407TIP3    H279713   2.062   3.406  11.663 -0.7649  0.0677  1.7057
19408TIP3   OH279714   1.613   2.398   3.894  0.1312 -0.3480  0.2281
19408TIP3    H179715   1.607   2.481   3.941  0.7208  0.6246 -1.3133
19408TIP3    H279716   1.562   2.336   3.946 -1.9245  1.4285  0.4649
19409TIP3   OH279717   4.175   2.399   6.237  0.0844 -0.0984  0.5150
19409TIP3    H179718   4.271   2.398   6.235  0.1941  1.3808  2.2946
19409TIP3    H279719   4.153   2.368   6.325 -0.9185  2.1601  1.1163
19410TIP3   OH279720   0.759   2.888   3.803 -0.1954 -0.1882 -0.6253
19410TIP3    H179721   0.807   2.808   3.780 -0.3007 -0.5364  0.3066
19410TIP3    H279722   0.805   2.922   3.880 -0.6037  0.2405 -0.5679
19411TIP3   OH279723   0.806   3.682   4.139  0.2867  0.1726 -0.0334
19411TIP3    H179724   0.819   3.777   4.141  0.6096  0.1136  0.9984
19411TIP3    H279725   0.885   3.646   4.178 -0.0749 -0.4956  0.0991
19412TIP3   OH279726   5.007   1.978   4.080 -0.3208  0.2517  0.2485
19412TIP3    H179727   5.069   1.908   4.059  1.1520  1.8095 -0.8760
19412TIP3    H279728   5.056   2.038   4.135 -1.2732  0.8724  0.4497
19413TIP3   OH279729   0.617   0.517   1.312  0.6920  0.4491  0.4172
19413TIP3    H179730   0.558   0.578   1.356  1.5491  1.5465  0.0608
19413TIP3    H279731   0.704   0.539   1.343  0.9888 -0.8615  0.5817
19414TIP3   OH279732   0.300   5.927  14.267 -0.0223 -0.0796 -0.4869
19414TIP3    H179733   0.324   5.865  14.198  0.3248  0.2522 -0.6700
19414TIP3    H279734   0.325   6.013  14.231  0.1803  0.0941  0.0574
19415TIP3   OH279735   3.203   6.421  14.107  0.0778 -0.1804  0.2943
19415TIP3    H179736   3.184   6.335  14.145  0.6624  0.3337  1.8082
19415TIP3    H279737   3.214   6.479  14.182  1.1431  0.9195 -0.6689
19416TIP3   OH279738   0.218   0.892   4.032 -0.3359 -0.5486 -0.0834
19416TIP3    H179739   0.207   0.962   3.968  0.0522 -0.1289  0.3024
19416TIP3    H279740   0.280   0.832   3.992  0.6580  0.2025  0.2838
19417TIP3   OH279741   3.072   1.367   2.381  0.8236  0.4547  0.6128
19417TIP3    H179742   3.116   1.339   2.301 -1.0300 -0.5048 -0.1190
19417TIP3    H279743   3.052   1.460   2.366 -0.5855 -0.0056 -0.6033
19418TIP3   OH279744   0.728   3.661   0.353 -0.4154  0.1573  0.3517
19418TIP3    H179745   0.791   3.622   0.413 -0.8553 -0.2399  0.5582
19418TIP3    H279746   0.745   3.755   0.358  0.6212  0.0222 -0.1092
19419TIP3   OH279747   4.442   3.284  12.306  0.2427 -0.1500  0.2829
19419TIP3    H179748   4.416   3.363  12.354  2.3208 -0.1296  1.4980
19419TIP3    H279749   4.390   3.287  12.225 -0.6868  1.7516  0.8875
19420TIP3   OH279750   1.904   0.512   3.395  0.0150 -0.3153  0.1848
19420TIP3    H179751   1.970   0.481   3.333  0.2028  1.0116 -0.3270
19420TIP3    H279752   1.853   0.435   3.418  0.6961 -1.0474 -0.7001
19421TIP3   OH279753   5.706   3.985  11.572 -0.7695 -0.6925  0.1333
19421TIP3    H179754   5.781   4.041  11.554 -1.1799 -0.8398 -2.2784
19421TIP3    H279755   5.675   4.014  11.658  0.3600  1.2539 -0.0615
19422TIP3   OH279756   1.823   0.566  16.168  0.2422  0.2190 -0.3846
19422TIP3    H179757   1.836   0.614  16.249 -0.4523 -1.3803  0.7330
19422TIP3    H279758   1.784   0.483  16.195  1.3541 -0.9793 -2.2103
19423TIP3   OH279759   4.080   5.226  15.001  0.0101 -0.1935 -0.2925
19423TIP3    H179760   4.128   5.149  14.972  0.4445  1.2347 -3.8311
19423TIP3    H279761   4.138   5.269  15.064  1.5305 -0.6897 -1.3156
19424TIP3   OH279762   3.211   0.694   2.906  0.4493 -0.2795  0.2934
19424TIP3    H179763   3.194   0.690   3.000 -1.2065  2.2016  0.2065
19424TIP3    H279764   3.275   0.765   2.897 -2.3339  2.3155 -0.6142
19425TIP3   OH279765   6.037   4.285   2.039 -0.2382  0.0222  0.6797
19425TIP3    H179766   5.981   4.230   2.094 -0.1025  2.4556  3.5036
19425TIP3    H279767   5.976   4.344   1.994 -0.2376 -0.9474 -0.6480
19426TIP3   OH279768   6.821   5.335  14.927  0.2369  0.0438  0.7833
19426TIP3    H179769   6.843   5.250  14.966  1.5216 -0.3355 -0.6789
19426TIP3    H279770   6.903   5.384  14.927 -0.7274  1.8620  2.7871
19427TIP3   OH279771   5.863   3.792   5.118 -0.2566  0.0364  0.0337
19427TIP3    H179772   5.787   3.739   5.143 -0.8311  0.5806 -0.5136
19427TIP3    H279773   5.838   3.830   5.034 -0.3121  2.0389  0.9193
19428TIP3   OH279774   6.433   3.423   2.785 -0.0838 -0.1078 -0.1072
19428TIP3    H179775   6.523   3.399   2.761 -0.1336 -0.2106 -0.1954
19428TIP3    H279776   6.415   3.502   2.735  0.7509  1.2477  1.6265
19429TIP3   OH279777   3.931   4.482   5.093  0.3030 -0.0775 -0.8919
19429TIP3    H179778   3.987   4.446   5.024 -0.7030 -0.0342 -1.7598
19429TIP3    H279779   3.937   4.419   5.164 -1.7878 -2.3550 -2.5418
19430TIP3   OH279780   5.069   1.634  14.804  0.1937  0.2290 -0.0433
19430TIP3    H179781   5.140   1.657  14.745  0.2706 -2.1001 -0.9697
19430TIP3    H279782   5.067   1.538  14.803 -1.6762  0.1821  1.5123
19431TIP3   OH279783   0.596   4.461   1.800 -0.1467  0.6404  0.3238
19431TIP3    H179784   0.688   4.455   1.825 -0.7734 -0.8498  2.5601
19431TIP3    H279785   0.586   4.394   1.732  0.7191  1.9508 -1.1670
19432TIP3   OH279786   5.516   2.533   4.078 -0.3350  0.4583 -0.4212
19432TIP3    H179787   5.592   2.477   4.095 -0.0733  0.7892 -0.4699
19432TIP3    H279788   5.480   2.501   3.996  2.9942  3.6447 -3.4889
19433TIP3   OH279789   4.797   5.139  12.294  0.0180  0.0493 -0.4986
19433TIP3    H179790   4.811   5.048  12.323 -1.7750 -1.2651 -3.3219
19433TIP3    H279791   4.715   5.165  12.337 -1.3427 -1.0319 -2.2691
19434TIP3   OH279792   5.145   6.158   1.124 -0.4773  0.3690  0.3539
19434TIP3    H179793   5.217   6.219   1.111  0.5029 -0.5231  1.3250
19434TIP3    H279794   5.185   6.071   1.113 -1.3154 -0.1536  1.2455
19435TIP3   OH279795   3.887   2.488   2.941  0.2910  0.2758  0.0688
19435TIP3    H179796   3.828   2.563   2.934  0.7208  0.6854  0.7514
19435TIP3    H279797   3.962   2.511   2.886  0.3482  0.2745  0.1451
19436TIP3   OH279798   6.525   4.454   3.681 -0.1407  0.1054 -0.1414
19436TIP3    H179799   6.570   4.437   3.763  0.1861 -1.0122 -0.5286
19436TIP3    H279800   6.470   4.531   3.698  1.8953  1.5219  0.3357
19437TIP3   OH279801   3.323   1.632   1.436 -0.2046 -0.1471  0.1922
19437TIP3    H179802   3.301   1.542   1.411 -0.4196  0.1773 -0.8311
19437TIP3    H279803   3.266   1.650   1.512 -2.1902  0.0304 -1.2600
19438TIP3   OH279804   5.237   3.119  12.765 -0.1363  0.0888  0.0694
19438TIP3    H179805   5.159   3.110  12.821 -0.1770 -0.8901 -0.1248
19438TIP3    H279806   5.298   3.172  12.816 -0.5820  0.0943  0.6005
19439TIP3   OH279807   4.005   1.355   6.232  0.1382  0.0230  0.2875
19439TIP3    H179808   3.973   1.421   6.292  1.8148  1.2291 -0.0534
19439TIP3    H279809   3.947   1.361   6.156 -0.8652 -0.2350  1.0131
19440TIP3   OH279810   3.857   3.793   1.043  0.0353  0.0668  0.1696
19440TIP3    H179811   3.921   3.731   1.078 -0.5540  0.9947  3.0997
19440TIP3    H279812   3.898   3.879   1.054 -0.8204  0.5094  0.0026
19441TIP3   OH279813   0.485   0.381   2.072  0.3331  0.4162 -0.5270
19441TIP3    H179814   0.530   0.459   2.040  1.1785 -0.4496 -1.5610
19441TIP3    H279815   0.533   0.357   2.152  0.0604  0.9637 -0.1994
19442TIP3   OH279816   1.295   0.149  11.819  0.1301  0.4677 -0.0399
19442TIP3    H179817   1.314   0.182  11.907  1.3192  0.3434 -0.2274
19442TIP3    H279818   1.369   0.179  11.766  0.9420 -1.8408 -0.3737
19443TIP3   OH279819   4.745   2.817   5.945  0.2899 -0.5033  0.1797
19443TIP3    H179820   4.700   2.803   6.028 -0.4622 -0.7438 -0.2547
19443TIP3    H279821   4.680   2.862   5.891  1.2722  1.0160  0.2022
19444TIP3   OH279822   2.108   5.093  12.451 -0.3858  0.1318  0.1571
19444TIP3    H179823   2.018   5.126  12.447  0.3886  2.2658 -1.8771
19444TIP3    H279824   2.106   5.012  12.401 -1.3417 -0.3366  0.9309
19445TIP3   OH279825   5.950   5.319   2.644 -0.6061 -0.1963 -0.0825
19445TIP3    H179826   5.997   5.246   2.604 -1.1762 -1.5508  1.5813
19445TIP3    H279827   5.859   5.288   2.650 -1.0591  1.0519 -0.2492
19446TIP3   OH279828   2.538   4.854  13.322 -0.5541 -0.2734 -0.5015
19446TIP3    H179829   2.586   4.930  13.289 -1.3697  0.2052 -0.6244
19446TIP3    H279830   2.457   4.891  13.357 -1.1560 -1.1261 -0.9536
19447TIP3   OH279831   4.506   3.690   4.343 -0.6072 -0.0357 -0.0547
19447TIP3    H179832   4.413   3.686   4.366 -0.9099  0.7451 -1.0536
19447TIP3    H279833   4.536   3.599   4.348 -1.3333 -0.2448  0.6350
19448TIP3   OH279834   1.434   4.107   5.305  0.0803 -0.2099 -0.0970
19448TIP3    H179835   1.377   4.037   5.334 -0.5702  0.9243  1.5408
19448TIP3    H279836   1.467   4.146   5.386 -0.5000  2.0944 -0.8785
19449TIP3   OH279837   5.165   3.476  15.139 -0.3562 -0.5867 -0.8444
19449TIP3    H179838   5.092   3.480  15.201  0.2576 -0.9678 -0.0907
19449TIP3    H279839   5.195   3.385  15.143  0.1695 -0.4289 -1.1471
19450TIP3   OH279840   5.931   4.553   5.920 -0.2845  0.6292 -0.2669
19450TIP3    H179841   5.873   4.603   5.862  1.3947  1.3690 -1.3889
19450TIP3    H279842   5.938   4.467   5.880 -0.5395  0.5594 -0.1643
19451TIP3   OH279843   4.785   1.992   3.395  0.6633 -0.7772 -0.6794
19451TIP3    H179844   4.862   2.038   3.428  0.5658 -2.5106  2.2619
19451TIP3    H279845   4.737   2.059   3.346  1.9418  1.5077  0.9828
19452TIP3   OH279846   3.078   5.812  12.745 -0.2444 -0.1308 -0.2802
19452TIP3    H179847   3.148   5.759  12.784  0.5326 -0.5215 -2.0793
19452TIP3    H279848   3.124   5.887  12.706 -1.1442  0.9683  0.7181
19453TIP3   OH279849   0.979   5.089  15.425  0.5100  0.1869 -0.5981
19453TIP3    H179850   0.947   5.039  15.500  0.3764  1.4014  0.1905
19453TIP3    H279851   0.946   5.042  15.349 -1.1183  0.0495  0.1535
19454TIP3   OH279852   4.041   1.587  14.137 -0.2045  0.2233  0.5210
19454TIP3    H179853   4.053   1.598  14.042  0.1038 -0.8812  0.4197
19454TIP3    H279854   4.015   1.674  14.168  0.4403  0.7838 -0.4583
19455TIP3   OH279855   0.826   1.103   3.818  0.5186  0.1222  0.3684
19455TIP3    H179856   0.897   1.166   3.807  0.8789 -0.1665  0.9753
19455TIP3    H279857   0.815   1.095   3.913  0.9879 -1.2864  0.3267
19456TIP3   OH279858   0.923   6.265  11.841  0.1475  0.0950 -0.0873
19456TIP3    H179859   0.989   6.249  11.773  0.9474 -0.1243  0.7184
19456TIP3    H279860   0.879   6.181  11.852 -0.8528  0.4461 -1.2037
19457TIP3   OH279861   1.042   6.421  14.926  0.1271 -0.0042 -0.1230
19457TIP3    H179862   1.057   6.356  14.857 -1.3252 -1.0741  0.5214
19457TIP3    H279863   0.986   6.487  14.885 -1.5267 -1.1241  0.2545
19458TIP3   OH279864   3.136   1.410  15.541  0.6862  0.2746  0.1804
19458TIP3    H179865   3.090   1.368  15.614  2.9940 -1.5649  0.6863
19458TIP3    H279866   3.169   1.338  15.488  0.6156  1.5698 -1.7257
19459TIP3   OH279867   4.222   0.993   4.258 -0.1445 -0.5326  0.0203
19459TIP3    H179868   4.283   1.047   4.207 -0.6855  0.5074  0.4559
19459TIP3    H279869   4.220   1.032   4.345 -1.3776 -0.5764  0.0404
19460TIP3   OH279870   5.298   5.483   5.791  0.2149  0.5278  0.9828
19460TIP3    H179871   5.332   5.406   5.747  0.2335  0.8140  0.4940
19460TIP3    H279872   5.230   5.449   5.850 -0.2678  0.2189  0.2556
19461TIP3   OH279873   3.219   4.177  14.510 -0.1530  0.0292  0.7297
19461TIP3    H179874   3.310   4.187  14.484 -0.5532  1.4925 -0.2241
19461TIP3    H279875   3.194   4.090  14.478  0.9798 -0.5223  1.2953
19462TIP3   OH279876   1.495   6.406   5.481 -0.3458  0.3524 -0.1762
19462TIP3    H179877   1.579   6.364   5.462 -0.0034 -0.6291  2.9420
19462TIP3    H279878   1.515   6.500   5.486  0.3391  0.2246 -0.4558
19463TIP3   OH279879   3.460   3.073  13.470 -0.4237 -0.9060  0.3044
19463TIP3    H179880   3.494   2.992  13.431 -1.6347 -1.3163  0.0629
19463TIP3    H279881   3.392   3.102  13.410 -0.5325 -0.1202  0.7901
19464TIP3   OH279882   5.252   4.958   5.897 -0.8849  0.0333  0.2150
19464TIP3    H179883   5.228   5.047   5.871 -0.2568 -0.2614 -1.4989
19464TIP3    H279884   5.192   4.936   5.968 -1.7161  1.4448 -0.0278
19465TIP3   OH279885   6.154   5.812   1.199  0.4873 -0.2365  0.6030
19465TIP3    H179886   6.219   5.753   1.238  2.2530  1.4379  0.3860
19465TIP3    H279887   6.084   5.817   1.264  1.7304 -0.2319  2.0089
19466TIP3   OH279888   4.930   3.955   0.901  0.1200  0.0219 -0.0666
19466TIP3    H179889   4.981   4.005   0.965  1.2348 -0.7608 -0.3087
19466TIP3    H279890   4.992   3.891   0.866 -1.1137 -1.1698 -0.1625
19467TIP3   OH279891   0.743   4.002   4.739  0.4704  0.3476 -0.3471
19467TIP3    H179892   0.657   3.962   4.729 -0.1173  1.2819  0.7086
19467TIP3    H279893   0.772   3.974   4.826  0.7815  0.8369 -0.2884
19468TIP3   OH279894   0.971   4.867  15.615  0.1923  0.3816  0.1920
19468TIP3    H179895   0.930   4.809  15.551 -0.2062  1.6385 -0.7339
19468TIP3    H279896   1.024   4.809  15.670  0.7992 -0.7089 -1.4756
19469TIP3   OH279897   5.132   4.521   0.027  0.0107 -0.4594 -0.4096
19469TIP3    H179898   5.063   4.587   0.035 -0.3778 -0.8265 -0.6586
19469TIP3    H279899   5.148   4.492   0.116 -0.9814 -1.1882 -0.4439
19470TIP3   OH279900   1.200   4.781  12.704  0.2655  0.2755  0.4031
19470TIP3    H179901   1.211   4.686  12.706 -2.3743 -0.0838  0.3097
19470TIP3    H279902   1.121   4.798  12.755  1.2785  2.5596  1.3563
19471TIP3   OH279903   5.424   6.159  15.038  0.1623 -0.5301  0.0485
19471TIP3    H179904   5.503   6.210  15.016 -0.6790  0.5432 -0.5943
19471TIP3    H279905   5.369   6.166  14.960 -0.3450 -1.7364  0.2834
19472TIP3   OH279906   6.249   4.015  14.296 -0.3368 -0.4205  0.0254
19472TIP3    H179907   6.172   3.959  14.293 -1.2261  0.7607  0.3031
19472TIP3    H279908   6.226   4.091  14.243  0.5399  0.0724  0.3262
19473TIP3   OH279909   2.616   0.249  14.037 -0.7133  0.2970 -0.1246
19473TIP3    H179910   2.629   0.323  13.977 -0.5193  1.1435  0.9212
19473TIP3    H279911   2.521   0.235  14.037 -0.6730 -0.0669 -1.0156
19474TIP3   OH279912   5.138   1.915  14.792 -0.3898 -0.1804  0.1844
19474TIP3    H179913   5.114   1.853  14.860 -1.7871 -0.3498 -0.4293
19474TIP3    H279914   5.061   1.920  14.735  1.2872 -1.3519 -2.3930
19475TIP3   OH279915   5.654   2.042  14.211  0.0913  0.6755 -0.0597
19475TIP3    H179916   5.699   1.961  14.233  0.7553  1.0555  0.0053
19475TIP3    H279917   5.629   2.031  14.119 -1.4616 -0.3433  0.4541
19476TIP3   OH279918   5.856   0.831   0.217 -0.2554  0.6091  0.1109
19476TIP3    H179919   5.926   0.896   0.221 -0.8249  1.3193 -1.1904
19476TIP3    H279920   5.901   0.747   0.231  0.4819  1.2424  1.8176
19477TIP3   OH279921   2.229   2.223  13.092  0.3874  0.4178 -0.1525
19477TIP3    H179922   2.289   2.150  13.107 -0.2233  0.2253  1.4506
19477TIP3    H279923   2.161   2.186  13.036  0.4542 -0.0478  0.0673
19478TIP3   OH279924   5.993   4.061  12.806  0.4694 -0.0444  0.3554
19478TIP3    H179925   6.045   4.128  12.762  0.7334 -1.1885 -1.1504
19478TIP3    H279926   6.058   4.005  12.850  0.2365  0.7971  1.8352
19479TIP3   OH279927   4.007   2.630  14.047  0.0372  0.4810 -0.0634
19479TIP3    H179928   3.938   2.571  14.015 -0.0535  0.1446  0.7364
19479TIP3    H279929   4.046   2.584  14.121  0.8984  0.8268 -0.2880
19480TIP3   OH279930   1.311   4.058  14.283 -0.3837 -0.1663  0.1644
19480TIP3    H179931   1.264   3.988  14.238 -0.9101  1.1252 -1.3970
19480TIP3    H279932   1.396   4.061  14.240 -0.7567  0.8379 -0.5469
19481TIP3   OH279933   4.607   3.248  16.624  0.0750  0.2874 -0.0574
19481TIP3    H179934   4.661   3.182  16.666 -0.3381 -1.6781 -2.4212
19481TIP3    H279935   4.519   3.209  16.622  0.0591  0.3140 -2.5440
19482TIP3   OH279936   0.753   1.456   5.880 -0.3273 -0.2179 -0.2372
19482TIP3    H179937   0.756   1.551   5.867 -0.6403 -0.0079  1.0592
19482TIP3    H279938   0.677   1.442   5.937  1.2051 -0.9365  1.7448
19483TIP3   OH279939   3.888   1.540   1.338  0.8216 -0.2967 -0.2223
19483TIP3    H179940   3.847   1.622   1.312  0.6398 -0.3627 -0.1446
19483TIP3    H279941   3.816   1.476   1.338  1.1707 -0.7303 -1.4988
19484TIP3   OH279942   6.074   4.806  11.768  0.0659  0.2419  0.1608
19484TIP3    H179943   6.104   4.831  11.680  2.7401  1.7654  1.3795
19484TIP3    H279944   5.978   4.813  11.763  0.2035  1.7947 -2.2225
19485TIP3   OH279945   0.586   6.334  10.901  0.4339  0.2078 -0.1867
19485TIP3    H179946   0.569   6.408  10.844  0.3762 -0.4245 -1.0045
19485TIP3    H279947   0.578   6.369  10.990  1.5760  1.4604 -0.5399
19486TIP3   OH279948   4.188   4.720   2.251  0.0399 -0.5092  0.3791
19486TIP3    H179949   4.205   4.635   2.210  0.4614 -1.5656  2.5694
19486TIP3    H279950   4.101   4.711   2.291 -0.7304  0.7790 -0.9186
19487TIP3   OH279951   0.179   3.956  14.751 -0.0529  0.4364  0.1009
19487TIP3    H179952   0.236   4.014  14.701 -1.5874 -0.0138 -2.3266
19487TIP3    H279953   0.214   3.868  14.734 -0.6748  0.2672 -0.3532
19488TIP3   OH279954   0.179   6.072   0.309  0.0087 -0.8280  0.1905
19488TIP3    H179955   0.148   6.095   0.397 -1.4212 -1.4221 -0.1326
19488TIP3    H279956   0.121   6.120   0.250 -0.2288 -1.8629 -0.4399
19489TIP3   OH279957   2.743   2.597   2.764 -0.2493 -0.2891 -0.0021
19489TIP3    H179958   2.662   2.571   2.721 -2.4571  2.4435  2.1511
19489TIP3    H279959   2.745   2.547   2.845 -0.2413  0.2636  0.3449
19490TIP3   OH279960   2.133   0.518   3.601  0.2388 -0.0482  0.6245
19490TIP3    H179961   2.078   0.516   3.679  0.5072 -0.6556  0.8014
19490TIP3    H279962   2.072   0.513   3.528  0.0377 -0.3052  0.8113
19491TIP3   OH279963   1.300   1.709   3.490 -0.4448 -0.0125  0.1980
19491TIP3    H179964   1.276   1.759   3.412 -1.1711  0.4341  0.6927
19491TIP3    H279965   1.367   1.648   3.460 -1.5414 -0.6578 -1.0546
19492TIP3   OH279966   0.247   1.501  13.157  0.1964 -0.4160  0.1822
19492TIP3    H179967   0.198   1.520  13.077 -0.7117 -0.6763  0.6511
19492TIP3    H279968   0.262   1.407  13.154 -0.1259 -0.4809  0.4588
19493TIP3   OH279969   5.753   2.841   2.735  0.6175  0.1528  0.2015
19493TIP3    H179970   5.714   2.754   2.728  0.8894  0.0846 -0.5262
19493TIP3    H279971   5.772   2.852   2.829  0.0751 -0.3429  0.3696
19494TIP3   OH279972   2.013   5.236  14.179 -0.4046  0.2630 -0.3272
19494TIP3    H179973   1.992   5.175  14.250  1.7232  0.2064  0.3161
19494TIP3    H279974   2.103   5.262  14.196 -0.0542  0.7670 -2.6784
19495TIP3   OH279975   3.621   5.542   6.694  0.0057 -0.0449  0.1674
19495TIP3    H179976   3.608   5.485   6.770  0.8450 -0.3121  0.1096
19495TIP3    H279977   3.599   5.630   6.727 -0.5757 -0.2884  0.4491
19496TIP3   OH279978   5.556   0.109   1.475  0.2765  0.2373 -0.4795
19496TIP3    H179979   5.549   0.049   1.401  0.4356  0.8157 -0.9726
19496TIP3    H279980   5.511   0.063   1.547  1.9246 -1.2351 -0.3313
19497TIP3   OH279981   3.536   1.114  15.756  0.5898 -0.5088  0.0389
19497TIP3    H179982   3.603   1.050  15.733  1.4416  1.3690 -3.3768
19497TIP3    H279983   3.580   1.198  15.750 -1.6000  0.6840 -0.5876
19498TIP3   OH279984   0.493   6.054   1.070  0.1828  0.4861  0.1761
19498TIP3    H179985   0.583   6.030   1.049  0.0445 -0.0636  0.1967
19498TIP3    H279986   0.479   6.024   1.159 -0.7463 -1.5815 -0.6074
19499TIP3   OH279987   4.858   6.487  12.915 -0.1085  0.0101  0.0740
19499TIP3    H179988   4.803   6.501  12.992 -0.1174  2.6127 -0.3279
19499TIP3    H279989   4.795   6.470  12.844 -0.2016 -0.5120  0.2814
19500TIP3   OH279990   1.035   6.320  12.979 -0.3303  0.1512  0.4804
19500TIP3    H179991   0.965   6.266  13.016  0.9869 -1.3468  0.9141
19500TIP3    H279992   1.059   6.380  13.049 -0.3141 -0.1944  0.7738
19501TIP3   OH279993   1.699   5.616  14.173 -0.0451  0.9143 -0.2998
19501TIP3    H179994   1.621   5.670  14.172 -0.3308  0.5062 -0.4459
19501TIP3    H279995   1.671   5.531  14.138  0.4512  0.7506 -0.3232
19502TIP3   OH279996   5.235   2.122  12.822  0.5303 -0.1505  0.3572
19502TIP3    H179997   5.271   2.133  12.910  1.2405  1.8276 -0.1238
19502TIP3    H279998   5.304   2.076  12.774  0.1374 -1.2429  0.8046
19503TIP3   OH279999   1.926   4.317   4.538  0.1256  0.3185 -0.4830
19503TIP3    H180000   1.920   4.260   4.614  2.6231  0.1681 -0.2868
19503TIP3    H280001   1.839   4.315   4.498 -0.7324 -1.0264  1.3339
19504TIP3   OH280002   2.159   3.750   1.424 -0.3650  0.4135 -0.3217
19504TIP3    H180003   2.104   3.694   1.477 -1.0341  0.0660 -1.3425
19504TIP3    H280004   2.223   3.690   1.384 -1.5513  0.1892 -2.0165
19505TIP3   OH280005   2.576   0.418   0.131  0.2866 -0.3366 -0.0465
19505TIP3    H180006   2.551   0.498   0.085 -0.0316 -0.4067 -0.0014
19505TIP3    H280007   2.506   0.405   0.195  0.2599 -0.7357 -0.1567
19506TIP3   OH280008   0.649   4.549   0.728 -0.2356  0.0150  0.3804
19506TIP3    H180009   0.640   4.574   0.636  1.3645 -0.5495  0.0436
19506TIP3    H280010   0.678   4.629   0.772  1.3831 -0.2909 -0.0657
19507TIP3   OH280011   0.040   5.402   5.398 -0.0363  0.0710 -0.0071
19507TIP3    H180012  -0.013   5.422   5.321  0.0412  0.2752 -0.0065
19507TIP3    H280013  -0.005   5.328   5.439  1.0363 -1.3844 -1.3483
19508TIP3   OH280014   2.622   4.710   5.033  0.3890  0.4668 -0.0825
19508TIP3    H180015   2.653   4.648   5.098  0.9248  1.6219  0.8045
19508TIP3    H280016   2.701   4.748   4.996  0.0876 -0.1402 -1.3969
19509TIP3   OH280017   5.046   6.580  11.145 -0.0439 -0.0390 -0.4739
19509TIP3    H180018   4.995   6.501  11.127 -0.6809  0.3223 -0.2663
19509TIP3    H280019   5.016   6.609  11.231  0.9373 -0.1482 -0.0815
19510TIP3   OH280020   0.907   6.589   0.211  0.8056 -0.3505  0.3263
19510TIP3    H180021   0.883   6.549   0.128  0.2812 -0.9512  0.7603
19510TIP3    H280022   0.990   6.546   0.235  0.3941 -0.9801  0.6471
19511TIP3   OH280023   2.425   6.105   1.978 -0.3369 -0.1637 -1.1000
19511TIP3    H180024   2.397   6.072   2.064  3.1496  0.0896  0.2949
19511TIP3    H280025   2.350   6.157   1.948 -0.6114  2.7695  3.4983
19512TIP3   OH280026   6.614   0.231   6.201  0.3033  0.1049 -0.7117
19512TIP3    H180027   6.542   0.227   6.137 -0.5174 -0.6774  0.2376
19512TIP3    H280028   6.693   0.219   6.148 -0.4580 -2.7274 -1.3829
19513TIP3   OH280029   5.495   3.958   2.196  0.1652  0.3442  0.0676
19513TIP3    H180030   5.441   3.883   2.169  0.8041 -0.5450  1.1611
19513TIP3    H280031   5.583   3.922   2.205  0.4882  1.2336  0.5978
19514TIP3   OH280032   3.692   4.531   5.444  0.6881 -0.3265  0.6341
19514TIP3    H180033   3.678   4.473   5.519  2.7058 -0.5035  0.9315
19514TIP3    H280034   3.646   4.611   5.466  0.3262 -0.7793  1.5588
19515TIP3   OH280035   6.112   1.860  14.900  0.0197  0.4629  0.5021
19515TIP3    H180036   6.160   1.909  14.968  0.2820  0.9188 -0.0032
19515TIP3    H280037   6.068   1.790  14.948  1.2383 -0.0040  0.9786
19516TIP3   OH280038   2.505   0.195  11.492 -0.0487 -0.2397  0.2604
19516TIP3    H180039   2.541   0.264  11.548  0.1280  0.5195 -0.7643
19516TIP3    H280040   2.558   0.118  11.513 -0.5898 -0.2153  1.7994
19517TIP3   OH280041   3.764   1.919   0.616 -0.5483 -0.5701 -0.0482
19517TIP3    H180042   3.853   1.906   0.651 -0.9547 -1.4948  0.6784
19517TIP3    H280043   3.711   1.855   0.662 -1.2669 -1.3244 -1.8346
19518TIP3   OH280044   1.206   0.595  14.399  0.3348  0.3283  0.4089
19518TIP3    H180045   1.200   0.513  14.349 -0.4092  0.3306  0.4853
19518TIP3    H280046   1.157   0.577  14.479 -0.0061  0.9192  0.3360
19519TIP3   OH280047   2.107   1.175  16.910 -0.5941  0.1683  0.2999
19519TIP3    H180048   2.171   1.179  16.980 -1.5192 -1.4390  1.3028
19519TIP3    H280049   2.128   1.249  16.853  0.4957  1.2062  1.9901
19520TIP3   OH280050   4.182   6.157   0.099  0.0826  0.3300 -0.0670
19520TIP3    H180051   4.209   6.229   0.155  0.0937 -0.2109  0.6294
19520TIP3    H280052   4.171   6.197   0.012  2.8881  0.6176 -0.3700
19521TIP3   OH280053   4.810   3.397   1.799 -0.4265 -0.6093 -0.6746
19521TIP3    H180054   4.825   3.374   1.891 -0.3862 -0.5938 -0.6770
19521TIP3    H280055   4.745   3.333   1.769  1.0037 -1.8922 -1.1779
19522TIP3   OH280056   0.672   4.222  12.419  0.1952  0.1444  1.3851
19522TIP3    H180057   0.720   4.301  12.441  0.7353  0.3773 -0.4629
19522TIP3    H280058   0.739   4.154  12.413  0.3698  0.4417 -1.0751
19523TIP3   OH280059   4.080   4.085  15.490  0.2094  0.0406  0.2196
19523TIP3    H180060   4.099   4.004  15.537 -0.1870  0.3474  0.9285
19523TIP3    H280061   4.072   4.151  15.559 -0.6351  0.4469 -0.2471
19524TIP3   OH280062   5.518   2.201  15.192 -0.2104  0.1657 -0.2385
19524TIP3    H180063   5.484   2.286  15.167 -1.8401 -0.3965 -0.0531
19524TIP3    H280064   5.579   2.219  15.264  2.2176  1.4877 -2.4658
19525TIP3   OH280065   4.713   5.479   4.281  0.7147  0.6576  0.0225
19525TIP3    H180066   4.781   5.538   4.315  1.1221  0.0963  0.1908
19525TIP3    H280067   4.647   5.538   4.244  2.3151  1.1927 -2.1715
19526TIP3   OH280068   5.589   0.351  14.322 -0.3043  0.5050 -0.2250
19526TIP3    H180069   5.646   0.402  14.264 -0.3748 -0.1742 -0.9100
19526TIP3    H280070   5.532   0.415  14.362 -0.0604  1.0244 -0.6963
19527TIP3   OH280071   3.710   0.649   3.770 -0.1480  0.1000  0.0843
19527TIP3    H180072   3.725   0.709   3.842 -1.8721  1.2440 -0.4211
19527TIP3    H280073   3.736   0.698   3.692 -3.0107  0.9209 -0.4887
19528TIP3   OH280074   3.527   5.476   6.267  0.8136 -0.1395  0.1370
19528TIP3    H180075   3.458   5.509   6.210 -0.6739 -1.4192  1.1199
19528TIP3    H280076   3.566   5.403   6.219  1.0268  0.1289 -0.1090
19529TIP3   OH280077   3.372   3.609  16.469  0.0841 -0.2187 -0.4105
19529TIP3    H180078   3.427   3.601  16.547 -0.6638 -0.4307  0.1083
19529TIP3    H280079   3.349   3.702  16.466  2.8435  0.5369 -2.3214
19530TIP3   OH280080   3.675   5.302   3.692 -0.1773 -0.9612  0.2414
19530TIP3    H180081   3.763   5.295   3.656  0.5798  0.4295  1.7006
19530TIP3    H280082   3.625   5.235   3.645  1.2939 -0.8676 -1.6186
19531TIP3   OH280083   0.847   4.976   4.178  0.2454 -0.4186 -0.1383
19531TIP3    H180084   0.878   4.947   4.092 -0.9855  0.7772 -1.0390
19531TIP3    H280085   0.862   5.070   4.178 -3.7254  0.4077 -0.9214
19532TIP3   OH280086   2.184   0.209   5.373  0.1825 -0.3660  0.5280
19532TIP3    H180087   2.139   0.197   5.290  0.7314  4.3106 -0.7241
19532TIP3    H280088   2.277   0.215   5.349  0.2026  2.9894  1.0020
19533TIP3   OH280089   5.206   4.646  11.550 -0.3697 -0.2664 -0.1615
19533TIP3    H180090   5.276   4.592  11.586 -1.4394 -1.9463 -0.5388
19533TIP3    H280091   5.143   4.655  11.621  0.0996  1.1272  0.1298
19534TIP3   OH280092   4.017   3.250  15.872 -0.2365 -0.5307 -0.0756
19534TIP3    H180093   4.056   3.251  15.784  1.3981 -0.9048  0.6099
19534TIP3    H280094   3.949   3.182  15.867 -1.8799  1.0910 -1.6826
19535TIP3   OH280095   3.546   4.980   3.831  0.0450 -0.1333  0.5232
19535TIP3    H180096   3.568   5.035   3.906  3.3848 -0.1617 -0.2707
19535TIP3    H280097   3.566   5.034   3.754  0.0292 -1.2556 -0.3089
19536TIP3   OH280098   4.293   4.430  11.503 -0.0502  0.1755  0.1362
19536TIP3    H180099   4.350   4.437  11.426  0.0843  2.7201  0.4065
19536TIP3    H280100   4.265   4.338  11.502  1.8624 -0.4944 -1.5482
19537TIP3   OH280101   5.624   3.905  14.735 -0.2416 -0.0142 -0.4281
19537TIP3    H180102   5.551   3.916  14.673 -0.4225  2.8168  0.1651
19537TIP3    H280103   5.702   3.903  14.679 -0.6321 -3.1433 -1.0755
19538TIP3   OH280104   1.844   4.744  13.542 -0.7461  0.1908 -0.2843
19538TIP3    H180105   1.791   4.697  13.479 -0.9879 -0.4632  0.3875
19538TIP3    H280106   1.795   4.739  13.624 -0.9814  1.9843 -0.2799
19539TIP3   OH280107   1.708   0.887  14.584  0.4185 -0.2607 -0.7003
19539TIP3    H180108   1.620   0.851  14.579 -0.0106  0.6722 -0.1485
19539TIP3    H280109   1.736   0.869  14.674  0.5202  0.0635 -0.6665
19540TIP3   OH280110   1.290   1.328   4.275  0.7464 -0.0427 -0.0868
19540TIP3    H180111   1.275   1.247   4.226 -0.8899 -0.4272  0.9596
19540TIP3    H280112   1.313   1.299   4.363 -2.1106  0.5203  0.9537
19541TIP3   OH280113   5.540   5.421  13.239  0.8547 -0.5621 -0.1181
19541TIP3    H180114   5.580   5.391  13.321  0.8725  1.2715  0.5971
19541TIP3    H280115   5.488   5.497  13.265 -0.2034 -0.7409 -1.6240
19542TIP3   OH280116   4.403   1.965   0.227  0.4187 -1.1470  0.1696
19542TIP3    H180117   4.391   1.906   0.152  0.4297 -1.9874  0.8120
19542TIP3    H280118   4.396   1.908   0.303  2.4928 -0.6674  0.7750
19543TIP3   OH280119   6.408   1.474  14.235  0.1406  0.6096 -0.0082
19543TIP3    H180120   6.322   1.435  14.221  1.0558 -1.2026 -0.9948
19543TIP3    H280121   6.456   1.456  14.153  1.7103  0.8181  0.8308
19544TIP3   OH280122   1.800   3.887   5.770 -0.4524  0.4873  0.0696
19544TIP3    H180123   1.817   3.850   5.856 -0.0815 -0.0605 -0.2312
19544TIP3    H280124   1.727   3.837   5.735 -2.9860  2.9551  1.4285
19545TIP3   OH280125   0.033   3.209   2.753 -0.5348  0.0044 -0.2548
19545TIP3    H180126   0.105   3.271   2.740  0.5233 -1.0278  0.4231
19545TIP3    H280127  -0.046   3.258   2.731  0.3570  1.2426 -0.7985
19546TIP3   OH280128   4.083   3.215  16.759  0.1947 -0.2345 -0.4019
19546TIP3    H180129   4.114   3.270  16.687 -0.1134 -0.4092 -0.6708
19546TIP3    H280130   4.019   3.269  16.805 -0.0523 -0.3404 -0.6217
19547TIP3   OH280131   5.432   0.439  13.140 -0.2226 -0.0191  0.4377
19547TIP3    H180132   5.502   0.503  13.149  0.7803 -0.7501 -1.5256
19547TIP3    H280133   5.376   0.473  13.070  0.1435 -1.0766 -0.4066
19548TIP3   OH280134   1.049   4.951  15.167  0.0769 -0.4287  0.1922
19548TIP3    H180135   1.120   5.014  15.179 -0.4493  0.0412  0.9599
19548TIP3    H280136   0.997   4.986  15.094 -1.2406  1.0584  1.7390
19549TIP3   OH280137   2.475   6.425  12.756 -0.1788 -0.3091 -0.1983
19549TIP3    H180138   2.523   6.438  12.674 -0.1626 -0.6572 -0.2472
19549TIP3    H280139   2.514   6.488  12.817  0.0180 -0.2601 -0.3736
19550TIP3   OH280140   3.756   3.864  12.981 -0.3293 -0.1640 -0.4461
19550TIP3    H180141   3.760   3.815  13.063 -0.2062  0.6886  0.0833
19550TIP3    H280142   3.675   3.914  12.987 -0.3629 -0.1681 -0.8817
19551TIP3   OH280143   1.599   2.548  15.672  0.0621 -0.0361 -0.1196
19551TIP3    H180144   1.689   2.534  15.643  0.6630  0.2012  1.5354
19551TIP3    H280145   1.581   2.639  15.650  1.0452  0.5981  1.5067
19552TIP3   OH280146   2.974   2.337  11.715 -0.2487 -0.3617  0.9412
19552TIP3    H180147   2.997   2.277  11.644  2.3669  0.7212  0.7614
19552TIP3    H280148   3.001   2.291  11.795 -2.0249 -1.0483  1.1990
19553TIP3   OH280149   3.283   3.776   4.891  0.2058 -0.0012  0.3718
19553TIP3    H180150   3.326   3.857   4.916 -1.1563  0.5175  1.0966
19553TIP3    H280151   3.355   3.716   4.871  1.2371  1.4562 -0.5032
19554TIP3   OH280152   0.793   6.278   3.657  0.0422  1.0702 -0.1382
19554TIP3    H180153   0.849   6.204   3.679 -1.0095  0.5222  0.8180
19554TIP3    H280154   0.853   6.347   3.628  1.0185 -0.2633 -1.4124
19555TIP3   OH280155   6.729   5.417   5.854 -0.1274  0.1939 -0.3962
19555TIP3    H180156   6.731   5.330   5.815 -0.7247  0.5796 -1.3136
19555TIP3    H280157   6.719   5.477   5.779  2.4577  1.2242 -0.0562
19556TIP3   OH280158   0.632   1.141  16.393 -0.4555 -0.3586 -0.1626
19556TIP3    H180159   0.546   1.179  16.412 -0.7332 -0.9934 -0.0806
19556TIP3    H280160   0.683   1.212  16.355 -0.9193  0.1097  0.0728
19557TIP3   OH280161   5.342   2.151   4.787 -0.0469  0.4489 -0.0384
19557TIP3    H180162   5.383   2.231   4.754 -0.6462  1.2167  1.0145
19557TIP3    H280163   5.402   2.081   4.761  1.1114  1.3694  0.0535
19558TIP3   OH280164   0.354   0.209   4.474  0.4454  0.4134  0.1343
19558TIP3    H180165   0.276   0.176   4.428 -0.1490  1.0801  0.6346
19558TIP3    H280166   0.372   0.143   4.541  0.3908  0.1843 -0.0782
19559TIP3   OH280167   2.845   6.855   1.595  0.2855 -0.1297 -0.8336
19559TIP3    H180168   2.787   6.911   1.646  0.3254  0.3517 -1.3109
19559TIP3    H280169   2.918   6.911   1.570  1.6193 -1.0380  0.8040
19560TIP3   OH280170   0.764   1.046  16.827 -0.0511  0.4936  0.2627
19560TIP3    H180171   0.770   1.045  16.923 -0.7807 -2.7561  0.3826
19560TIP3    H280172   0.719   1.128  16.807 -1.4228  0.4712  2.8535
19561TIP3   OH280173   0.857   3.260  15.438  0.7175 -0.9031 -0.5898
19561TIP3    H180174   0.949   3.234  15.444  1.2859  1.1701  1.3295
19561TIP3    H280175   0.808   3.177  15.435  2.5673 -2.0799  0.2632
19562TIP3   OH280176   2.674   6.763   0.886  0.3232  0.7544  0.2893
19562TIP3    H180177   2.612   6.776   0.814  1.8034 -0.9573 -1.3940
19562TIP3    H280178   2.620   6.733   0.959 -1.0459  1.1040 -0.5451
19563TIP3   OH280179   3.835   3.261   0.845  0.7678  0.7768 -0.1988
19563TIP3    H180180   3.756   3.295   0.803  0.2961  0.0995  0.1298
19563TIP3    H280181   3.906   3.288   0.788  0.2083  0.5514 -1.0135
19564TIP3   OH280182   4.749   1.395  13.361  0.3705 -0.8083 -0.2867
19564TIP3    H180183   4.693   1.393  13.283 -1.1691  2.3250  0.5503
19564TIP3    H280184   4.827   1.442  13.334 -0.3060  0.5698  0.0729
19565TIP3   OH280185   6.088   5.918  16.815  0.5499  0.1062  0.5625
19565TIP3    H180186   6.013   5.970  16.785 -0.0078 -0.1421  1.4732
19565TIP3    H280187   6.067   5.897  16.907  1.2585 -0.8359  0.5233
19566TIP3   OH280188   6.424   4.611   4.122 -0.0608  0.0836 -0.1636
19566TIP3    H180189   6.484   4.541   4.147 -0.7812 -0.8021 -0.8625
19566TIP3    H280190   6.465   4.691   4.155 -0.1792 -0.8328  2.4517
19567TIP3   OH280191   3.507   4.318   0.471 -0.2944  0.3361  1.0257
19567TIP3    H180192   3.437   4.285   0.527 -0.7918 -0.7181 -0.1771
19567TIP3    H280193   3.584   4.265   0.496 -0.0412  1.1250  1.9679
19568TIP3   OH280194   0.298   4.955  17.066  0.1984  0.1634  0.2895
19568TIP3    H180195   0.281   4.870  17.025  2.1678 -0.1357 -0.0036
19568TIP3    H280196   0.281   5.019  16.997 -2.2259  0.1434  0.7789
19569TIP3   OH280197   3.398   2.449  11.117 -0.3365  0.0667 -0.3643
19569TIP3    H180198   3.370   2.377  11.174  0.7291 -0.5679 -0.6234
19569TIP3    H280199   3.341   2.441  11.040 -0.8741  0.1083  0.0200
19570TIP3   OH280200   4.713   6.472  12.690  0.5751 -0.4103  0.0232
19570TIP3    H180201   4.652   6.421  12.637 -1.6945  2.7283 -0.7118
19570TIP3    H280202   4.751   6.534  12.628 -0.1575  1.6294  1.5060
19571TIP3   OH280203   1.134   0.261  16.165 -0.4954  0.3425 -0.5777
19571TIP3    H180204   1.196   0.188  16.163  0.1343  0.7296  1.7096
19571TIP3    H280205   1.190   0.339  16.174 -1.2215  0.9664 -1.3260
19572TIP3   OH280206   2.903   1.621  14.536  0.0235 -0.3325 -0.1565
19572TIP3    H180207   2.986   1.600  14.578 -0.2675  0.5864  0.9377
19572TIP3    H280208   2.844   1.642  14.609 -0.2354  2.2783 -1.0132
19573TIP3   OH280209   6.614   4.455  11.456  0.9673 -0.3185 -0.2696
19573TIP3    H180210   6.592   4.512  11.382  0.0400 -0.0946  0.1687
19573TIP3    H280211   6.669   4.387  11.417  1.0494  0.1654 -1.0354
19574TIP3   OH280212   1.188   2.234   1.856  0.4486 -0.3680 -0.1305
19574TIP3    H180213   1.185   2.247   1.951 -0.6954 -2.7342  0.2309
19574TIP3    H280214   1.275   2.197   1.840  0.1978 -1.1214  0.1954
19575TIP3   OH280215   0.329   5.412  13.532 -0.9695  0.2098 -0.8941
19575TIP3    H180216   0.353   5.502  13.508  1.6437 -0.7275 -2.2546
19575TIP3    H280217   0.327   5.412  13.628  1.3170  1.2769 -0.7808
19576TIP3   OH280218   5.478   0.450   0.854 -0.0302  0.1002 -0.4699
19576TIP3    H180219   5.553   0.504   0.879 -0.1319 -0.7354  1.8991
19576TIP3    H280220   5.404   0.487   0.903 -0.8906  0.0866 -1.7203
19577TIP3   OH280221   1.212   5.542   4.881  0.2878 -0.0960 -0.1619
19577TIP3    H180222   1.268   5.532   4.804  1.2208 -0.7844  0.5897
19577TIP3    H280223   1.148   5.608   4.855  0.7972 -0.0645 -1.4070
19578TIP3   OH280224   4.196   4.148   4.781  0.1898  0.5059 -0.1472
19578TIP3    H180225   4.160   4.208   4.716  1.7592  2.3252  0.5582
19578TIP3    H280226   4.290   4.143   4.759  0.2050 -1.2772  0.1628
19579TIP3   OH280227   0.127   0.117   4.362 -0.2870  0.0061 -0.1632
19579TIP3    H180228   0.044   0.130   4.407 -0.1168 -0.9414  0.4635
19579TIP3    H280229   0.125   0.025   4.335  0.7684 -0.1813  0.3257
19580TIP3   OH280230   4.803   6.516   6.469 -0.4735  0.6487  0.3482
19580TIP3    H180231   4.751   6.447   6.510 -1.1304  1.2337  0.5052
19580TIP3    H280232   4.787   6.507   6.375 -0.2257  0.3250  0.3353
19581TIP3   OH280233   4.414   0.074  16.975 -0.7511  0.3530  0.0614
19581TIP3    H180234   4.497   0.104  17.011 -0.9834 -0.2661  1.1522
19581TIP3    H280235   4.380   0.013  17.040 -3.1587  2.2929  0.7830
19582TIP3   OH280236   6.563   5.629   0.526  0.3371  0.3024 -0.0210
19582TIP3    H180237   6.497   5.572   0.566 -0.4250  0.0914 -1.5141
19582TIP3    H280238   6.605   5.672   0.600  0.3963 -1.6058  1.1237
19583TIP3   OH280239   6.225   1.553  11.057  0.6833 -0.6334 -0.1382
19583TIP3    H180240   6.182   1.638  11.057  0.7154 -0.5938  1.2355
19583TIP3    H280241   6.171   1.497  11.001  0.6731  0.2799 -1.0598
19584TIP3   OH280242   6.367   4.875  14.798 -0.7625  0.0120  0.3242
19584TIP3    H180243   6.358   4.952  14.743 -3.1301  0.6224  1.4309
19584TIP3    H280244   6.279   4.836  14.800  0.1056 -2.0987  0.6880
19585TIP3   OH280245   3.607   5.525   5.586 -0.4302  0.0320  0.3269
19585TIP3    H180246   3.673   5.571   5.534 -0.4162  2.0039  1.9591
19585TIP3    H280247   3.525   5.537   5.538  0.0768 -0.9508 -0.8289
19586TIP3   OH280248   2.555   6.252  13.198 -0.2103 -0.3953 -0.4442
19586TIP3    H180249   2.636   6.257  13.148 -0.5448  2.0768 -0.8633
19586TIP3    H280250   2.582   6.248  13.289  0.3958  0.2226 -0.5920
19587TIP3   OH280251   6.368   0.512   2.848 -0.0542  0.7387 -0.6566
19587TIP3    H180252   6.443   0.552   2.894 -1.3087  2.2694  0.1598
19587TIP3    H280253   6.338   0.443   2.907  0.2659  0.5847 -0.6671
19588TIP3   OH280254   1.142   1.060   5.050  0.0193  0.4966 -0.4562
19588TIP3    H180255   1.109   1.117   4.981  0.4685 -0.6370 -1.6543
19588TIP3    H280256   1.235   1.080   5.056  0.2789 -0.4207 -1.2218
19589TIP3   OH280257   2.268   1.773  15.692 -0.1610  0.1495 -0.1472
19589TIP3    H180258   2.197   1.743  15.748  0.6730 -0.9451  0.3688
19589TIP3    H280259   2.290   1.696  15.639  0.3122  0.6206 -0.6427
19590TIP3   OH280260   1.106   3.057   0.667 -0.0249 -0.1391  0.6694
19590TIP3    H180261   1.114   3.114   0.590  0.8648 -0.7065  0.3323
19590TIP3    H280262   1.187   3.071   0.716  0.6524 -1.7813  0.1017
19591TIP3   OH280263   0.460   3.929   4.818 -0.4784 -0.4787  0.0931
19591TIP3    H180264   0.446   3.836   4.836  1.3571 -0.4165  2.2030
19591TIP3    H280265   0.449   3.972   4.903  0.8174  0.9507 -0.4138
19592TIP3   OH280266   2.100   4.125  16.642  0.9345  0.0019  0.1067
19592TIP3    H180267   2.078   4.103  16.732  1.1848 -4.1407 -0.6446
19592TIP3    H280268   2.193   4.102  16.634  0.4666 -1.5511 -1.5965
19593TIP3   OH280269   4.151   1.986   4.800  0.0491  0.1367 -0.0032
19593TIP3    H180270   4.097   1.909   4.822 -1.4816  1.3737  0.8630
19593TIP3    H280271   4.240   1.959   4.820 -0.3355 -1.6783 -0.5180
19594TIP3   OH280272   2.239   6.359  12.653 -0.2729  0.3727 -0.7887
19594TIP3    H180273   2.320   6.393  12.691 -0.1391 -0.2667 -0.4753
19594TIP3    H280274   2.268   6.291  12.592 -0.5924 -0.4446 -0.0565
19595TIP3   OH280275   0.447   4.159  15.479  0.0728  1.3330  0.0350
19595TIP3    H180276   0.488   4.169  15.565 -0.3979 -1.7882  0.7758
19595TIP3    H280277   0.519   4.145  15.419  0.3197 -0.0619  0.6146
19596TIP3   OH280278   0.357   1.715  13.303  0.4901  0.1204 -0.6116
19596TIP3    H180279   0.373   1.791  13.248  1.1618 -0.4059 -1.1637
19596TIP3    H280280   0.289   1.666  13.257 -0.5713  0.8115  0.1848
19597TIP3   OH280281   0.058   0.294   1.552 -0.6675 -0.8398 -0.3667
19597TIP3    H180282   0.120   0.267   1.485  0.2976 -0.8364  0.4958
19597TIP3    H280283   0.108   0.351   1.610 -1.6064 -0.4483  0.0843
19598TIP3   OH280284   2.881   6.741  11.007  0.0936 -0.0073  0.2617
19598TIP3    H180285   2.884   6.837  11.007  0.8210  0.0028 -1.1321
19598TIP3    H280286   2.808   6.719  10.949 -0.0500 -0.2896  0.5486
19599TIP3   OH280287   3.053   2.661  15.883 -0.1367 -0.0844  0.2383
19599TIP3    H180288   3.037   2.704  15.799  2.3691 -1.0401 -0.8492
19599TIP3    H280289   2.971   2.670  15.932 -0.3414  4.2926 -0.5731
19600TIP3   OH280290   0.916   6.449   2.594 -0.2395  0.0934 -0.0350
19600TIP3    H180291   0.881   6.471   2.680  2.1477 -0.0589  1.0317
19600TIP3    H280292   1.009   6.470   2.598  0.1911 -1.0027 -2.1983
19601TIP3   OH280293   0.103   2.312   3.672  0.4234 -0.1350  0.0279
19601TIP3    H180294   0.159   2.260   3.731  0.1320 -1.7412 -1.0344
19601TIP3    H280295   0.017   2.269   3.677 -1.1458  2.8584  2.3946
19602TIP3   OH280296   4.359   3.082   1.231  0.4639 -0.2012  0.5577
19602TIP3    H180297   4.280   3.115   1.274 -0.2772  0.4396 -1.1773
19602TIP3    H280298   4.399   3.159   1.192  0.7692 -0.8161 -0.3808
19603TIP3   OH280299   4.954   0.302  16.303 -0.1368  0.0329 -0.2453
19603TIP3    H180300   5.007   0.343  16.234  0.9384 -1.4698 -0.3631
19603TIP3    H280301   4.924   0.220  16.264  1.5680 -1.4973  1.4368
19604TIP3   OH280302   0.708   4.143  13.746 -0.2702  1.1305  0.3742
19604TIP3    H180303   0.744   4.231  13.730  0.3145  0.9591  0.7257
19604TIP3    H280304   0.698   4.105  13.659  1.9247  0.5795  0.3229
19605TIP3   OH280305   5.404   0.656  11.631 -0.0311  0.2529 -0.3939
19605TIP3    H180306   5.419   0.601  11.555  0.0539  1.1108 -1.0156
19605TIP3    H280307   5.311   0.646  11.652 -0.0802  0.1133 -0.6915
19606TIP3   OH280308   2.921   6.684  12.629  0.5744 -0.0045 -0.1321
19606TIP3    H180309   2.871   6.631  12.691  0.2221  0.6433  0.1511
19606TIP3    H280310   2.962   6.751  12.683 -1.6789  2.0723 -0.8253
19607TIP3   OH280311   0.723   0.690  10.660  0.3460 -0.1822 -0.1523
19607TIP3    H180312   0.705   0.783  10.672 -0.4942 -0.4461  0.8453
19607TIP3    H280313   0.636   0.649  10.660  0.7057 -0.9735 -0.5424
19608TIP3   OH280314   3.851   6.158   1.743 -0.4001  0.0170  0.0784
19608TIP3    H180315   3.862   6.248   1.771 -0.6565  0.3813 -0.9542
19608TIP3    H280316   3.869   6.106   1.822  2.6295  0.8081  0.0352
19609TIP3   OH280317   6.242   1.396  16.124  0.1013  0.5487 -0.1603
19609TIP3    H180318   6.192   1.348  16.058  0.6016 -0.3902  0.1286
19609TIP3    H280319   6.334   1.376  16.103  0.3869  2.1949 -0.6539
19610TIP3   OH280320   0.703   1.796  10.579  0.3618 -0.0944  0.3416
19610TIP3    H180321   0.629   1.844  10.543 -1.2651 -3.1560 -0.8267
19610TIP3    H280322   0.698   1.710  10.536  3.4192 -1.1144  1.7504
19611TIP3   OH280323   2.397   6.582   0.316 -0.2386 -0.0200  0.3640
19611TIP3    H180324   2.441   6.501   0.343 -1.8301 -0.3575  2.0454
19611TIP3    H280325   2.468   6.636   0.280  1.0322 -1.7193  0.1943
19612TIP3   OH280326   2.566   3.410  14.856  0.5425 -0.3414  0.1407
19612TIP3    H180327   2.643   3.360  14.831  0.4331  0.1455 -1.2126
19612TIP3    H280328   2.597   3.500  14.864 -0.0872  0.0696 -1.5977
19613TIP3   OH280329   5.070   6.600  11.536  0.2400  0.2198 -0.6090
19613TIP3    H180330   5.033   6.513  11.547  0.5607  0.2427  0.8369
19613TIP3    H280331   5.006   6.646  11.481 -1.0224 -0.2778  0.3865
19614TIP3   OH280332   3.199   0.989  10.914  0.0602  0.2847 -0.0301
19614TIP3    H180333   3.232   0.911  10.959 -0.0129  0.3650  0.1628
19614TIP3    H280334   3.118   0.960  10.872 -0.1524  0.3492  0.3364
19615TIP3   OH280335   1.575   2.283  13.289  0.3606  0.2304 -0.4906
19615TIP3    H180336   1.588   2.332  13.208 -1.8378  0.0610 -1.0307
19615TIP3    H280337   1.488   2.311  13.320  0.5903 -0.6952  1.0926
19616TIP3   OH280338   5.486   5.284  12.238  0.1228  0.2994  0.1256
19616TIP3    H180339   5.461   5.242  12.156 -0.8068  1.1067 -0.0282
19616TIP3    H280340   5.523   5.368  12.211  0.8153  0.1157  0.4838
19617TIP3   OH280341   3.570   5.722   0.075 -0.2543  0.0118 -0.0741
19617TIP3    H180342   3.635   5.776   0.121 -1.7520  1.1142  0.8520
19617TIP3    H280343   3.563   5.643   0.129  0.0421  0.0505  0.0269
19618TIP3   OH280344   3.822   2.292  13.809 -0.4581  0.2962 -0.4647
19618TIP3    H180345   3.777   2.303  13.725 -0.0407  0.1180 -0.7151
19618TIP3    H280346   3.913   2.313  13.790 -0.2433 -0.3942 -0.2049
19619TIP3   OH280347   2.271   3.292  16.229 -0.1313  0.1711  0.4945
19619TIP3    H180348   2.208   3.234  16.187  1.3757 -0.5169 -0.9359
19619TIP3    H280349   2.341   3.303  16.164  0.2422  2.5911  1.1988
19620TIP3   OH280350   5.345   0.878   2.007 -0.0327  0.2147 -0.4197
19620TIP3    H180351   5.366   0.891   2.099 -1.0685  1.7854 -0.3730
19620TIP3    H280352   5.384   0.793   1.985 -2.4954 -1.8544  2.3387
19621TIP3   OH280353   1.920   5.756  13.828 -0.2586 -0.4014  0.1438
19621TIP3    H180354   1.956   5.674  13.797  0.3391 -0.5631  1.2005
19621TIP3    H280355   1.837   5.766  13.781  0.1942 -1.0418 -0.8125
19622TIP3   OH280356   2.916   6.694  15.242 -0.2777  0.0188  0.5571
19622TIP3    H180357   2.849   6.759  15.263  0.4215  1.0065 -0.1731
19622TIP3    H280358   2.939   6.656  15.327  0.0854  1.5339  1.1765
19623TIP3   OH280359   5.922   0.631   2.232 -0.5661  0.3779 -0.1074
19623TIP3    H180360   6.002   0.665   2.273 -0.3678 -0.1761 -0.0232
19623TIP3    H280361   5.853   0.692   2.259 -0.3649  0.2452  0.7173
19624TIP3   OH280362   5.063   3.117   1.126 -0.6132  0.0455 -0.1676
19624TIP3    H180363   5.112   3.082   1.201 -0.4350 -1.1715 -0.8258
19624TIP3    H280364   4.985   3.156   1.165  0.7499  1.8807  0.8960
19625TIP3   OH280365   5.663   4.951  15.583 -0.3601 -0.6470 -0.8184
19625TIP3    H180366   5.741   4.973  15.635 -0.0371  1.4886 -2.1283
19625TIP3    H280367   5.591   4.958  15.646  0.1177  0.9855 -0.4021
19626TIP3   OH280368   1.874   2.034   1.945 -0.2420 -0.2921 -0.2644
19626TIP3    H180369   1.949   2.071   1.991  0.5937 -0.3248 -1.5544
19626TIP3    H280370   1.883   2.064   1.855 -2.6960  1.0906 -0.1569
19627TIP3   OH280371   0.246   2.895  13.355 -0.2281  0.0774  0.0524
19627TIP3    H180372   0.164   2.854  13.328 -1.6138  0.8675  2.7362
19627TIP3    H280373   0.297   2.823  13.392 -0.4684 -0.0962  0.0500
19628TIP3   OH280374   1.954   3.405   5.773 -0.2727  0.3349 -0.0995
19628TIP3    H180375   1.993   3.492   5.778 -0.3294  0.2829  2.1432
19628TIP3    H280376   2.024   3.345   5.799 -0.3128 -0.2961 -1.3581
19629TIP3   OH280377   1.768   5.177   3.029  0.0485  0.3405 -0.0789
19629TIP3    H180378   1.694   5.204   3.082 -2.9614 -0.2696 -3.5547
19629TIP3    H280379   1.765   5.082   3.029  1.3902  0.2649  0.3158
19630TIP3   OH280380   2.895   1.565  15.318 -0.1376  0.3067  0.1506
19630TIP3    H180381   2.984   1.582  15.349  0.5098 -1.1904 -0.7870
19630TIP3    H280382   2.852   1.521  15.391  0.3678 -0.3351  0.0623
19631TIP3   OH280383   3.030   0.900  15.022  0.1935 -0.1461 -0.0162
19631TIP3    H180384   3.024   0.920  14.929 -0.5935 -1.7641 -0.3267
19631TIP3    H280385   3.115   0.857  15.032  1.1137  1.6191  0.3737
19632TIP3   OH280386   5.647   0.991   1.674  0.0238  0.4212  0.0430
19632TIP3    H180387   5.653   0.942   1.592 -1.6868  1.2408 -0.6126
19632TIP3    H280388   5.580   1.057   1.658  0.1904  1.0902  1.8740
19633TIP3   OH280389   6.690   0.734   5.235  0.7313 -0.3369 -0.3216
19633TIP3    H180390   6.634   0.673   5.283  1.9499 -2.8095 -1.8055
19633TIP3    H280391   6.695   0.812   5.290 -2.5228 -0.7452  0.7531
19634TIP3   OH280392   6.078   2.491   5.617  0.2617  0.2219  0.0060
19634TIP3    H180393   6.061   2.416   5.673 -0.9535  0.0055 -0.6128
19634TIP3    H280394   6.169   2.515   5.635 -0.2675  0.6271  2.6001
19635TIP3   OH280395   0.860   5.507   4.635 -0.1020 -0.1408 -0.0061
19635TIP3    H180396   0.787   5.556   4.598  1.2532  1.8851 -0.1487
19635TIP3    H280397   0.830   5.416   4.635 -1.9126  0.3812 -1.7492
19636TIP3   OH280398   2.038   0.422  15.159 -0.3233 -0.4151  0.4775
19636TIP3    H180399   2.077   0.334  15.159 -2.2693 -1.3338  0.8699
19636TIP3    H280400   2.015   0.437  15.251 -1.0550 -0.0033  0.2294
19637TIP3   OH280401   0.897   4.560   0.900 -0.7577 -0.0103 -0.1644
19637TIP3    H180402   0.900   4.600   0.987 -0.8424  0.2812 -0.2917
19637TIP3    H280403   0.943   4.623   0.843  0.7063 -0.9380 -0.0564
19638TIP3   OH280404   2.910   5.549   2.188 -0.0431 -0.5435  0.5541
19638TIP3    H180405   2.928   5.637   2.222 -3.1125  0.6949 -0.6725
19638TIP3    H280406   2.909   5.560   2.093 -0.6256 -1.8852  0.3880
19639TIP3   OH280407   1.035   4.395  14.480  0.0725  0.1321  0.6247
19639TIP3    H180408   0.979   4.324  14.510  1.6264 -1.7624 -0.6581
19639TIP3    H280409   1.058   4.371  14.390  1.3473  1.8247  0.4410
19640TIP3   OH280410   0.153   5.759   2.805  0.7669  0.4528 -0.5840
19640TIP3    H180411   0.140   5.734   2.897  2.3581  0.3155 -0.3609
19640TIP3    H280412   0.070   5.797   2.778 -0.6302 -1.8669  0.1327
19641TIP3   OH280413   5.845   2.663  13.627 -0.4810 -0.3621 -0.8629
19641TIP3    H180414   5.807   2.712  13.555  1.1588  1.1043 -0.7979
19641TIP3    H280415   5.797   2.692  13.704 -1.0446 -0.5983 -1.1162
19642TIP3   OH280416   3.419   2.427  13.782 -0.0822 -0.6542 -0.1898
19642TIP3    H180417   3.339   2.477  13.793  0.7721  0.8327 -0.4006
19642TIP3    H280418   3.444   2.400  13.870 -1.0126 -1.5003 -0.1672
19643TIP3   OH280419   6.496   4.771   5.684  0.4319  0.0449 -0.4768
19643TIP3    H180420   6.411   4.814   5.680  1.1072  1.3983 -1.1506
19643TIP3    H280421   6.516   4.765   5.777 -0.0929  0.3697 -0.3385
19644TIP3   OH280422   2.517   0.491   4.790  0.5252 -0.1841  0.2475
19644TIP3    H180423   2.593   0.451   4.747 -1.1895 -0.5896 -2.7252
19644TIP3    H280424   2.512   0.579   4.752  0.6593  0.6247  2.0084
19645TIP3   OH280425   2.729   4.459   0.912  0.3409 -0.7314  0.2170
19645TIP3    H180426   2.816   4.464   0.874 -0.5215 -0.0980 -1.8475
19645TIP3    H280427   2.712   4.366   0.922  0.9667 -0.8837 -0.1153
19646TIP3   OH280428   3.896   2.046  14.543 -0.0201 -0.6017 -0.0095
19646TIP3    H180429   3.884   2.029  14.636 -0.4587  0.8289  0.2063
19646TIP3    H280430   3.813   2.086  14.515  0.9487  1.1819 -0.4644
19647TIP3   OH280431   5.168   2.957   2.423  0.3436  0.2568  0.2344
19647TIP3    H180432   5.230   3.005   2.477  0.3453 -0.8777  1.2878
19647TIP3    H280433   5.223   2.905   2.363  0.5372 -1.8089  2.0812
19648TIP3   OH280434   6.535   1.143  16.474 -0.2002  0.3719 -0.1640
19648TIP3    H180435   6.564   1.172  16.560 -0.1627  1.9127 -0.6723
19648TIP3    H280436   6.597   1.075  16.449 -0.3795 -0.2946  1.1286
19649TIP3   OH280437   5.724   0.002  12.346  0.0738  0.0158 -0.3607
19649TIP3    H180438   5.785   0.030  12.415 -1.7391  0.8499  0.9762
19649TIP3    H280439   5.761  -0.080  12.313  0.9876 -0.4354  1.6507
19650TIP3   OH280440   0.982   1.810   1.437 -0.3471 -0.0397  0.1053
19650TIP3    H180441   1.060   1.820   1.382 -1.0109 -1.7419 -1.2358
19650TIP3    H280442   0.919   1.872   1.400  0.6486  2.2483  1.9469
19651TIP3   OH280443   4.286   1.242   2.778 -0.0791 -0.6574 -0.2424
19651TIP3    H180444   4.235   1.304   2.830  0.7456 -1.0781  1.1307
19651TIP3    H280445   4.371   1.285   2.767  0.0801 -1.0032 -0.3561
19652TIP3   OH280446   6.687   5.656  11.311 -0.1559 -0.1916 -0.1961
19652TIP3    H180447   6.690   5.742  11.352 -1.2933  0.9522 -2.3614
19652TIP3    H280448   6.599   5.650  11.273 -0.2144 -2.4555  0.1512
19653TIP3   OH280449   1.410   0.042  13.739  0.2342 -0.1418 -0.3429
19653TIP3    H180450   1.334   0.032  13.797  0.4977 -0.0217  0.0283
19653TIP3    H280451   1.386   0.114  13.681 -0.0815 -0.3406 -0.4635
19654TIP3   OH280452   6.166   3.192   6.252 -0.6325  0.1050 -0.1224
19654TIP3    H180453   6.186   3.129   6.182  0.9220  0.1903  0.2086
19654TIP3    H280454   6.216   3.160   6.327 -1.5860  0.5145  0.7073
19655TIP3   OH280455   3.676   1.763  15.624  0.6289  0.0637 -0.6651
19655TIP3    H180456   3.750   1.819  15.646 -0.4476  2.2374 -2.1812
19655TIP3    H280457   3.665   1.773  15.529 -0.2312 -2.0103 -0.8595
19656TIP3   OH280458   1.397   2.093  14.343  0.4477  0.2319 -0.1933
19656TIP3    H180459   1.390   2.187  14.331 -1.3770  0.1925  0.3039
19656TIP3    H280460   1.307   2.061  14.335  0.9407 -1.3779  0.3391
19657TIP3   OH280461   1.830   4.286  11.302  0.0957 -0.5138 -0.6240
19657TIP3    H180462   1.879   4.274  11.383 -0.0224 -1.0231 -0.6232
19657TIP3    H280463   1.739   4.266  11.326  0.1474 -1.2595 -1.0163
19658TIP3   OH280464   0.457   6.186   0.781 -0.6077  0.1048  0.4406
19658TIP3    H180465   0.438   6.279   0.793 -0.1127  0.2912 -0.2079
19658TIP3    H280466   0.456   6.150   0.870  0.5079  0.9895  0.8341
19659TIP3   OH280467   0.438   1.845   4.343 -0.3856  0.9301 -0.2332
19659TIP3    H180468   0.417   1.853   4.250  0.3072 -2.1223 -0.7380
19659TIP3    H280469   0.515   1.900   4.355  1.8620 -1.4913 -2.4119
19660TIP3   OH280470   3.519   3.746  13.772 -0.0677  0.7271  0.0406
19660TIP3    H180471   3.585   3.733  13.840  0.7609  1.1252 -0.6777
19660TIP3    H280472   3.515   3.841  13.760  0.4847  0.6234 -1.1170
19661TIP3   OH280473   1.613   0.856  15.429  0.2207 -0.7602 -0.0359
19661TIP3    H180474   1.517   0.851  15.433  0.2264 -1.9700 -0.9211
19661TIP3    H280475   1.631   0.946  15.403 -0.6835 -0.6251 -0.2335
19662TIP3   OH280476   2.475   2.920   4.546 -0.0485 -0.8537 -0.2931
19662TIP3    H180477   2.397   2.956   4.505 -0.9234 -0.4780  1.5978
19662TIP3    H280478   2.454   2.915   4.639  2.8560  1.1979  0.6374
19663TIP3   OH280479   3.672   1.755  15.306  0.1567 -0.0146  0.5182
19663TIP3    H180480   3.734   1.685  15.326 -0.1030 -0.3807  0.0514
19663TIP3    H280481   3.727   1.833  15.296  0.3462  0.0815  2.1058
19664TIP3   OH280482   4.937   5.428  13.913 -0.4164 -0.3942  0.5419
19664TIP3    H180483   4.948   5.471  13.998 -0.8902 -1.0665  0.9472
19664TIP3    H280484   4.843   5.431  13.897 -0.2379  0.6082 -0.4367
19665TIP3   OH280485   4.637   3.442  12.026 -0.7062 -0.3789  0.1904
19665TIP3    H180486   4.564   3.447  12.087 -0.7661  0.0583  0.0894
19665TIP3    H280487   4.707   3.492  12.068 -0.1751 -1.4887  0.6701
19666TIP3   OH280488   4.871   4.111   0.685  0.1288  0.2276  0.1135
19666TIP3    H180489   4.919   4.191   0.707  1.7275 -0.7309  0.2479
19666TIP3    H280490   4.883   4.055   0.762  0.5995 -0.8312 -0.7116
19667TIP3   OH280491   5.368   6.799  14.552 -0.0914  0.3742 -0.1495
19667TIP3    H180492   5.370   6.775  14.645 -0.1664  1.9604  0.2973
19667TIP3    H280493   5.277   6.826  14.536 -0.0255  0.3230 -0.6234
19668TIP3   OH280494   2.770   1.243   4.089 -0.6619 -0.0113  0.1225
19668TIP3    H180495   2.711   1.181   4.133 -0.1849 -0.3085  0.3482
19668TIP3    H280496   2.784   1.205   4.002  0.6530 -0.9111  0.6923
19669TIP3   OH280497   2.249   0.001  16.889  0.1907 -0.1569  0.4134
19669TIP3    H180498   2.189   0.043  16.828 -0.5006 -0.9866  0.5000
19669TIP3    H280499   2.192  -0.031  16.959  1.0208  1.3610  1.8593
19670TIP3   OH280500   1.294   1.144  12.103  0.0893 -0.0512  0.4063
19670TIP3    H180501   1.377   1.114  12.066  0.3384  1.0629  0.0021
19670TIP3    H280502   1.281   1.089  12.180  0.6396 -0.9850 -0.1406
19671TIP3   OH280503   0.756   5.527   3.463 -0.2890 -0.3644  0.2124
19671TIP3    H180504   0.727   5.450   3.415 -0.1846 -1.5228  1.9201
19671TIP3    H280505   0.845   5.506   3.491  0.3331  1.0380 -0.6041
19672TIP3   OH280506   4.428   2.176   4.759 -0.7153  0.6123  0.5639
19672TIP3    H180507   4.408   2.152   4.669 -2.2219  0.4791  0.8967
19672TIP3    H280508   4.454   2.094   4.801  0.6456  0.7903  0.1132
19673TIP3   OH280509   1.796   0.518  13.413 -0.0704  0.5725  0.0384
19673TIP3    H180510   1.721   0.483  13.461 -0.1724  1.5418  0.6256
19673TIP3    H280511   1.778   0.496  13.321 -0.6561  0.0705  0.2613
19674TIP3   OH280512   4.486   5.027  12.921  0.0340 -0.1802 -0.2444
19674TIP3    H180513   4.455   5.004  12.833 -0.2461  1.6176 -0.6658
19674TIP3    H280514   4.427   4.981  12.980 -0.0657 -1.0524 -0.9977
19675TIP3   OH280515   4.695   6.662   4.276 -0.1655 -0.2771  0.2508
19675TIP3    H180516   4.773   6.623   4.235 -2.5129 -0.6656 -4.4878
19675TIP3    H280517   4.721   6.752   4.295  1.3961 -0.2585 -1.6247
19676TIP3   OH280518   5.894   1.129  15.959 -0.1467 -0.3033  0.1969
19676TIP3    H180519   5.978   1.133  16.006  0.6606 -2.2668 -0.9858
19676TIP3    H280520   5.898   1.202  15.897  0.5810 -0.2326  0.3156
19677TIP3   OH280521   0.844   6.487   1.850 -0.1880 -0.2868  0.0375
19677TIP3    H180522   0.813   6.426   1.917 -0.1783 -0.5821 -0.2254
19677TIP3    H280523   0.939   6.473   1.847  0.0384  0.8758  1.1019
19678TIP3   OH280524   6.294   6.684   3.189  0.0217 -0.0708 -0.2719
19678TIP3    H180525   6.242   6.604   3.200 -2.1113  1.4302  1.4119
19678TIP3    H280526   6.383   6.659   3.217 -0.7478 -1.6748  0.8968
19679TIP3   OH280527   2.085   2.308  15.256 -0.3027  0.1623  0.1712
19679TIP3    H180528   2.064   2.216  15.247 -0.6815  0.1995  0.6260
19679TIP3    H280529   2.144   2.312  15.332 -1.0864  0.4029  0.7768
19680TIP3   OH280530   6.156   2.530   1.145 -0.1024 -0.9925 -0.4927
19680TIP3    H180531   6.222   2.542   1.214  0.1553 -0.3390 -0.8488
19680TIP3    H280532   6.118   2.617   1.132  0.1052 -1.0314 -1.4244
19681TIP3   OH280533   4.509   5.017  16.304  0.0269 -0.0320  0.4819
19681TIP3    H180534   4.569   5.090  16.321 -0.3648  0.2617  0.5960
19681TIP3    H280535   4.567   4.940  16.297  0.5751  0.4905 -1.0440
19682TIP3   OH280536   1.617   1.374   1.956 -0.2114 -0.1093  0.3948
19682TIP3    H180537   1.549   1.388   2.021  0.8432 -0.1346  1.5441
19682TIP3    H280538   1.674   1.308   1.996  0.8717  0.4268 -0.2283
19683TIP3   OH280539   4.300   1.267   0.826  0.3971 -0.4990  0.8159
19683TIP3    H180540   4.373   1.309   0.781 -0.3637 -0.8996 -0.8497
19683TIP3    H280541   4.256   1.339   0.871  1.8343 -0.2634  1.9443
19684TIP3   OH280542   3.735   5.653  12.323 -0.0070  0.1910  0.2236
19684TIP3    H180543   3.675   5.687  12.257  1.3478  2.5338  0.0966
19684TIP3    H280544   3.807   5.615  12.274  1.1250  2.1610  0.2628
19685TIP3   OH280545   3.209   6.679   3.841 -0.5837 -0.1012 -0.0268
19685TIP3    H180546   3.205   6.627   3.761 -0.6742  2.0188 -1.4877
19685TIP3    H280547   3.298   6.714   3.843 -0.2712 -0.8925  1.3546
19686TIP3   OH280548   5.086   2.079   1.719  0.8083 -0.2290  0.0031
19686TIP3    H180549   5.160   2.129   1.751 -0.0526  0.7281  0.5657
19686TIP3    H280550   5.079   2.102   1.627 -0.1217  1.4306  0.4560
19687TIP3   OH280551   2.482   1.803  14.013 -0.1319 -0.6226  0.2079
19687TIP3    H180552   2.412   1.856  13.977  0.7094  0.4171  0.0536
19687TIP3    H280553   2.561   1.834  13.969  0.5036 -1.3818  0.7786
19688TIP3   OH280554   0.292   5.103   0.955 -0.4788 -0.5410 -0.4984
19688TIP3    H180555   0.248   5.022   0.930  0.1304 -0.2922 -2.5882
19688TIP3    H280556   0.223   5.169   0.952 -0.4636 -0.5564 -1.3837
19689TIP3   OH280557   5.742   5.567  15.420 -0.1419  0.0724 -0.0771
19689TIP3    H180558   5.658   5.601  15.450  0.1709  0.1532  0.7411
19689TIP3    H280559   5.800   5.643  15.420 -0.2136  0.1315 -1.2065
19690TIP3   OH280560   3.533   3.847  14.161  0.0117 -0.2754  0.5178
19690TIP3    H180561   3.551   3.875  14.251  2.0479  1.1177 -0.2724
19690TIP3    H280562   3.437   3.847  14.156 -0.1601  1.8739  2.0373
19691TIP3   OH280563   4.440   0.600   5.392 -0.3902 -0.2127  0.4588
19691TIP3    H180564   4.375   0.618   5.324 -0.8167 -0.0527  0.8962
19691TIP3    H280565   4.393   0.615   5.474 -0.1407 -1.2340  0.8102
19692TIP3   OH280566   3.126   4.185  16.165  0.1255 -0.2108 -0.4240
19692TIP3    H180567   3.080   4.116  16.212  1.9779  0.2876  2.3890
19692TIP3    H280568   3.169   4.140  16.092 -2.0684 -1.2015 -1.1854
19693TIP3   OH280569   2.800   6.161   2.800 -0.3703  0.2270  0.4577
19693TIP3    H180570   2.804   6.099   2.873 -0.1888 -0.1640  0.1227
19693TIP3    H280571   2.720   6.211   2.815 -0.1235  0.4266  1.1442
19694TIP3   OH280572   4.167   4.156  11.567 -0.4234  0.1283  0.3031
19694TIP3    H180573   4.075   4.137  11.584 -0.4460  0.0326  0.0810
19694TIP3    H280574   4.176   4.148  11.472 -0.6746  2.3189  0.0454
19695TIP3   OH280575   4.313   4.358   3.815  0.0348 -0.7926  0.2373
19695TIP3    H180576   4.389   4.319   3.772 -0.0796 -1.1703  0.3714
19695TIP3    H280577   4.325   4.338   3.908 -0.0811 -0.6038  0.2935
19696TIP3   OH280578   2.384   2.080   5.314 -0.5798  0.2015 -0.6047
19696TIP3    H180579   2.411   2.041   5.398 -0.7817 -1.0334 -1.0880
19696TIP3    H280580   2.427   2.026   5.248 -0.3755  1.2015 -1.3065
19697TIP3   OH280581   4.026   5.175  16.740  0.8363 -0.1621 -0.4951
19697TIP3    H180582   4.104   5.191  16.687  0.8162  2.4120  0.1099
19697TIP3    H280583   3.958   5.230  16.699 -0.0674 -0.6832  0.2652
19698TIP3   OH280584   5.806   1.486  12.491  0.1331  0.0698 -0.1457
19698TIP3    H180585   5.772   1.396  12.493 -2.2746  0.8917 -0.9177
19698TIP3    H280586   5.728   1.541  12.487  1.5708  2.1856 -0.5915
19699TIP3   OH280587   2.025   3.742   4.380 -0.1609 -0.2504  0.4122
19699TIP3    H180588   2.019   3.647   4.378 -1.1292 -0.2102  0.7859
19699TIP3    H280589   1.991   3.766   4.466  0.7328  0.4003  0.6041
19700TIP3   OH280590   2.046   2.936   3.123 -0.1845  0.6561 -0.5281
19700TIP3    H180591   2.081   2.977   3.202 -0.6295  1.8230 -0.9067
19700TIP3    H280592   1.973   2.883   3.153  0.8628 -0.4968  0.0684
19701TIP3   OH280593   2.291   3.199   2.043  0.2761  0.4426 -0.5551
19701TIP3    H180594   2.376   3.237   2.021 -0.1392  1.3210 -0.6612
19701TIP3    H280595   2.242   3.270   2.084 -0.5492  0.0556 -0.8446
19702TIP3   OH280596   2.851   4.914   5.217  0.4608  0.4996 -0.1199
19702TIP3    H180597   2.939   4.940   5.243  0.0421  1.2323  0.5969
19702TIP3    H280598   2.802   4.996   5.212  0.0007  0.1800 -1.2654
19703TIP3   OH280599   0.823   1.195   1.680 -0.1865  0.4803 -0.5328
19703TIP3    H180600   0.906   1.222   1.722 -0.6578  1.2717 -0.0764
19703TIP3    H280601   0.783   1.135   1.744  0.6920 -1.0900 -1.3904
19704TIP3   OH280602   3.390   5.989   0.699  0.1468  0.2263 -0.7229
19704TIP3    H180603   3.340   6.011   0.620 -1.4441 -0.6998 -0.0127
19704TIP3    H280604   3.324   5.977   0.767  1.4970  1.2711  0.8503
19705TIP3   OH280605   3.985   5.185  17.018  0.5081 -0.2478  0.5071
19705TIP3    H180606   3.896   5.152  17.025  1.2786 -2.2686  1.6091
19705TIP3    H280607   4.004   5.182  16.924 -0.2376 -0.8251  0.3662
19706TIP3   OH280608   6.438   0.486   6.365  0.3006  0.6881  0.3317
19706TIP3    H180609   6.459   0.454   6.278  0.0614  0.2359  0.4373
19706TIP3    H280610   6.352   0.448   6.385  1.5247 -1.4585  1.8636
19707TIP3   OH280611   5.225   0.597  12.135  0.0092  0.2776  0.7658
19707TIP3    H180612   5.232   0.688  12.163 -1.8751  0.3370  1.1159
19707TIP3    H280613   5.170   0.554  12.200  2.0425 -1.5253  1.4371
19708TIP3   OH280614   0.559   5.059   4.271 -0.2946  0.7627  0.0235
19708TIP3    H180615   0.524   4.975   4.299  0.1939  0.7048  0.4768
19708TIP3    H280616   0.628   5.038   4.208  0.1915  0.7930  0.5353
19709TIP3   OH280617   4.572   0.363   5.324 -0.7833  0.2680 -0.0634
19709TIP3    H180618   4.536   0.446   5.355  0.6598  1.1973 -0.7698
19709TIP3    H280619   4.599   0.380   5.234  0.1277 -0.7713 -0.0132
19710TIP3   OH280620   3.491   5.843   2.094  0.0738 -0.2994 -0.0819
19710TIP3    H180621   3.440   5.913   2.054  1.2351  0.9200  0.4783
19710TIP3    H280622   3.489   5.864   2.188  1.4783 -0.2833 -0.0433
19711TIP3   OH280623   1.173   5.139  12.364  0.7854  0.9403 -0.4887
19711TIP3    H180624   1.189   5.049  12.393  0.0667  1.1635  0.6496
19711TIP3    H280625   1.082   5.156  12.389  1.5487  2.7377  1.3212
19712TIP3   OH280626   6.209   2.597   6.016 -0.5055  0.0785  0.3370
19712TIP3    H180627   6.272   2.666   6.036 -0.5293 -0.0361  0.8290
19712TIP3    H280628   6.131   2.643   5.986 -0.0377  0.2048 -0.7198
19713TIP3   OH280629   6.601   3.321  12.252  0.0853  0.2073 -0.2008
19713TIP3    H180630   6.696   3.309  12.257 -0.1327 -1.7821  0.0794
19713TIP3    H280631   6.589   3.411  12.224  2.0534  0.5940  0.0971
19714TIP3   OH280632   0.135   2.077   2.261 -0.6068  0.1615  0.0129
19714TIP3    H180633   0.157   2.168   2.281 -2.7967  0.4088  1.5871
19714TIP3    H280634   0.086   2.082   2.179  0.0861  0.2667 -0.4036
19715TIP3   OH280635   6.028   0.330   3.964 -0.5433  0.3586  0.0020
19715TIP3    H180636   6.113   0.288   3.956 -0.2091  0.9982  0.0971
19715TIP3    H280637   5.965   0.262   3.942 -0.0915 -0.5725  1.4157
19716TIP3   OH280638   2.904   5.673  14.045 -0.5092 -1.1217 -0.1355
19716TIP3    H180639   2.885   5.612  13.974  3.1220 -1.7263 -0.7707
19716TIP3    H280640   2.915   5.618  14.122 -1.0688 -0.8227  0.1633
19717TIP3   OH280641   6.764   0.130  15.887 -0.0530 -0.2451 -0.0265
19717TIP3    H180642   6.747   0.074  15.811  1.6171 -0.8482  0.0085
19717TIP3    H280643   6.776   0.218  15.849 -2.1332  0.0415 -0.1325
19718TIP3   OH280644   1.936   6.245   0.041 -0.1526  0.4410  0.3472
19718TIP3    H180645   1.996   6.318   0.051  0.1535  0.1655  0.5498
19718TIP3    H280646   1.849   6.285   0.040 -0.1512  0.6553  2.7750
19719TIP3   OH280647   5.271   4.716   0.492  0.1068 -0.2058 -0.2801
19719TIP3    H180648   5.264   4.787   0.428  0.3492  0.1233  0.0613
19719TIP3    H280649   5.335   4.656   0.453  1.2732  0.6599  0.2760
19720TIP3   OH280650   3.988   5.726   3.743 -1.0203 -0.0205  1.1224
19720TIP3    H180651   4.000   5.635   3.768  0.6765 -0.3256 -0.6086
19720TIP3    H280652   4.068   5.750   3.698 -1.6241  2.2030  1.0988
19721TIP3   OH280653   2.224   5.377   4.813  0.2214 -0.5159  0.1135
19721TIP3    H180654   2.262   5.387   4.901 -0.3133  0.3221  0.2543
19721TIP3    H280655   2.292   5.330   4.764  0.8923 -0.2123  0.7246
19722TIP3   OH280656   2.880   6.823   1.876  0.0698  0.1403 -0.2793
19722TIP3    H180657   2.901   6.804   1.785  1.0319 -1.4491  0.2361
19722TIP3    H280658   2.817   6.756   1.900 -2.2178  2.0955 -0.4641
19723TIP3   OH280659   1.266   2.628   3.198  0.4359 -0.2045 -0.5523
19723TIP3    H180660   1.217   2.657   3.275  0.7846  0.1202 -0.4550
19723TIP3    H280661   1.228   2.542   3.177  0.3183 -0.2811 -0.0392
19724TIP3   OH280662   2.881   6.352   1.938 -0.5709  0.7627 -0.0821
19724TIP3    H180663   2.815   6.285   1.919  1.1108 -1.4891  1.4719
19724TIP3    H280664   2.949   6.338   1.871 -0.8432  1.9101 -0.6219
19725TIP3   OH280665   4.039   3.261   2.431 -0.6340  0.1906 -0.2068
19725TIP3    H180666   4.041   3.302   2.518  2.2296 -1.4222  0.6251
19725TIP3    H280667   4.027   3.334   2.370 -1.5364  1.4953  1.4376
19726TIP3   OH280668   2.279   1.362   0.730  0.7157 -0.2938  0.6680
19726TIP3    H180669   2.287   1.425   0.802 -2.2894 -0.0327  0.9180
19726TIP3    H280670   2.260   1.279   0.774  0.7670 -0.5376  0.2313
19727TIP3   OH280671   4.162   4.928   1.514  0.2341 -0.3718 -0.2081
19727TIP3    H180672   4.239   4.937   1.570 -0.4253  0.2272  0.6093
19727TIP3    H280673   4.156   4.833   1.499  0.3015 -0.5640  0.8961
19728TIP3   OH280674   6.050   2.369   6.043 -0.3488 -0.2206 -0.5069
19728TIP3    H180675   6.099   2.450   6.024  2.4575 -2.2328 -2.7901
19728TIP3    H280676   6.080   2.343   6.129 -0.3875  0.5423 -0.2508
19729TIP3   OH280677   4.259   6.042  15.237 -0.6488  0.2662  0.0462
19729TIP3    H180678   4.350   6.018  15.257 -0.7435  0.7459  1.1140
19729TIP3    H280679   4.243   6.003  15.151  0.9714  1.2130 -0.7523
19730TIP3   OH280680   4.170   4.050   3.976  0.4251  0.9533  0.2319
19730TIP3    H180681   4.146   4.012   4.061 -0.3472  0.3069 -0.2522
19730TIP3    H280682   4.106   4.121   3.963 -0.0657  0.4357 -0.2269
19731TIP3   OH280683   5.338   5.981   5.540 -0.1646 -0.5775  0.5546
19731TIP3    H180684   5.335   5.903   5.596 -0.5081 -1.1740 -0.2694
19731TIP3    H280685   5.321   5.948   5.452 -1.8445  0.6312  0.3741
19732TIP3   OH280686   2.803   3.530   0.500 -0.2007 -0.3770  0.5023
19732TIP3    H180687   2.841   3.607   0.543 -0.5256  0.6985 -1.0475
19732TIP3    H280688   2.739   3.497   0.562 -1.0356  1.4467  0.6675
19733TIP3   OH280689   3.419   4.646  12.489 -0.4107 -0.6076 -0.2983
19733TIP3    H180690   3.350   4.605  12.543 -0.7073  2.2345  1.6861
19733TIP3    H280691   3.372   4.705  12.431  0.2243 -0.3174 -0.5187
19734TIP3   OH280692   2.249   3.602  14.725 -0.0993 -0.4402 -0.2785
19734TIP3    H180693   2.275   3.511  14.739  1.8457 -0.5349 -3.4155
19734TIP3    H280694   2.328   3.653  14.745 -0.6707  0.3925 -0.0922
19735TIP3   OH280695   5.016   3.130   3.726  0.3930  0.2452  0.4930
19735TIP3    H180696   5.016   3.082   3.643 -0.0206 -0.7771  1.0702
19735TIP3    H280697   4.934   3.106   3.768  0.9823  0.0602  1.5821
19736TIP3   OH280698   4.528   3.021  14.465 -0.0107 -0.2715 -0.0754
19736TIP3    H180699   4.450   2.988  14.420 -0.9752  1.1225  0.4735
19736TIP3    H280700   4.513   3.115  14.471  1.6617  0.0011  0.2048
19737TIP3   OH280701   2.086   1.006   1.371  0.0205 -0.1626 -0.3254
19737TIP3    H180702   2.074   0.912   1.388  0.7443 -0.6528 -2.2054
19737TIP3    H280703   1.998   1.041   1.363 -0.2623 -1.0567 -1.3101
19738TIP3   OH280704   3.893   5.630  13.430  0.9119 -0.8394  0.3134
19738TIP3    H180705   3.830   5.639  13.358  0.4290 -1.6588  0.6232
19738TIP3    H280706   3.966   5.581  13.392  1.5457  0.4251 -0.1468
19739TIP3   OH280707   0.115   6.613  14.382  0.3800  0.1874  0.6026
19739TIP3    H180708   0.157   6.565  14.454  0.4762  1.0539  1.1293
19739TIP3    H280709   0.026   6.579  14.379  0.7623 -0.8299  0.2324
19740TIP3   OH280710   4.656   1.703  14.659  0.2841  0.5898 -0.6332
19740TIP3    H180711   4.683   1.624  14.707  2.0336  0.8687 -1.0757
19740TIP3    H280712   4.568   1.721  14.691  0.0518 -1.2207 -0.1146
19741TIP3   OH280713   0.963   0.998   2.974  0.1838  0.5936  0.2681
19741TIP3    H180714   1.033   0.970   3.032  0.0060 -1.3578 -0.3803
19741TIP3    H280715   1.005   1.011   2.889 -0.1515 -0.2258 -0.0342
19742TIP3   OH280716   2.525   5.185  16.748  0.2074  0.4554 -0.0988
19742TIP3    H180717   2.576   5.237  16.686  0.5858  2.1295  1.5286
19742TIP3    H280718   2.435   5.218  16.740 -0.1810 -0.7416 -1.1434
19743TIP3   OH280719   0.083   0.151  12.335 -0.9446 -0.0758 -0.2737
19743TIP3    H180720   0.134   0.225  12.370 -1.2671 -0.1807  0.4311
19743TIP3    H280721   0.140   0.075  12.347 -1.6528 -0.3829  1.5513
19744TIP3   OH280722   2.070   4.993   3.441  0.3065  0.2714 -0.4796
19744TIP3    H180723   2.029   4.979   3.526 -1.0931 -1.9889 -1.4129
19744TIP3    H280724   2.164   4.980   3.457  0.2145  1.1676  0.9138
19745TIP3   OH280725   5.171   0.014  15.809  0.1331  0.1372  0.1808
19745TIP3    H180726   5.234  -0.005  15.880 -0.0126 -2.5858 -0.2855
19745TIP3    H280727   5.221  -0.002  15.729 -0.8771 -1.2273 -0.2052
19746TIP3   OH280728   1.163   4.188  17.082  0.3047  0.0846 -0.3646
19746TIP3    H180729   1.130   4.275  17.103 -0.0193 -0.2771  0.7440
19746TIP3    H280730   1.113   4.129  17.139 -0.4152 -0.9816 -2.0093
19747TIP3   OH280731   3.441   4.154  11.925  0.1383  0.0144 -0.2979
19747TIP3    H180732   3.463   4.061  11.929  0.6699  0.1578  0.3001
19747TIP3    H280733   3.465   4.181  11.836  2.8636  0.2528  0.3983
19748TIP3   OH280734   5.103   2.392  14.973  0.2030 -0.0450  0.1594
19748TIP3    H180735   5.021   2.428  15.007 -0.3973 -0.1751 -1.1202
19748TIP3    H280736   5.135   2.459  14.912  0.6194 -0.3692  0.0173
19749TIP3   OH280737   4.672   1.163  15.329 -0.3867  0.0465 -0.0929
19749TIP3    H180738   4.657   1.257  15.340  1.2987  0.1894  1.3516
19749TIP3    H280739   4.716   1.156  15.244 -0.7942  0.5285 -0.3476
19750TIP3   OH280740   4.202   0.334  15.177  0.2021 -0.3562 -0.1147
19750TIP3    H180741   4.120   0.304  15.137 -0.2155 -0.6500  0.9323
19750TIP3    H280742   4.265   0.265  15.160 -0.0065 -0.5335 -0.1653
19751TIP3   OH280743   5.539   4.741   6.019  0.1777 -0.1717  0.2662
19751TIP3    H180744   5.518   4.834   6.027  1.6057  0.3038 -1.0938
19751TIP3    H280745   5.595   4.723   6.094  1.8369  0.6933 -0.7099
19752TIP3   OH280746   5.765   4.838  14.929  0.6646 -0.4275  0.0993
19752TIP3    H180747   5.790   4.871  14.843 -0.8854  1.3342  0.2641
19752TIP3    H280748   5.675   4.809  14.918  0.1072  0.7170  1.3106
19753TIP3   OH280749   4.954   3.926  16.274 -0.0234 -0.6864  0.1398
19753TIP3    H180750   4.878   3.889  16.229 -1.9414  0.9291  1.8003
19753TIP3    H280751   4.929   4.017  16.291  1.5537 -0.5692  2.2405
19754TIP3   OH280752   1.611   0.009   5.251  0.3470  0.1673  0.2849
19754TIP3    H180753   1.589   0.096   5.283  0.7312  0.1872  0.4982
19754TIP3    H280754   1.550  -0.006   5.178 -0.7552 -0.0096  1.2054
19755TIP3   OH280755   1.144   2.251  14.420 -0.4937  0.2881 -0.3148
19755TIP3    H180756   1.192   2.266  14.502  2.9988 -0.9114 -1.9159
19755TIP3    H280757   1.070   2.195  14.445 -0.1054  0.7591  2.1284
19756TIP3   OH280758   3.595   4.849   4.605 -0.4033 -0.1193  0.5588
19756TIP3    H180759   3.664   4.844   4.539 -0.2245  1.7316  0.5703
19756TIP3    H280760   3.517   4.814   4.561 -0.2957  1.1105 -0.6581
19757TIP3   OH280761   6.242   5.345  12.596 -0.3006  0.0604 -0.5337
19757TIP3    H180762   6.302   5.321  12.525 -1.0321 -2.0306 -0.5105
19757TIP3    H280763   6.157   5.355  12.553 -0.4903  0.1236 -0.1494
19758TIP3   OH280764   0.681   1.196  12.283  0.1939 -0.0933 -0.4223
19758TIP3    H180765   0.650   1.178  12.372  1.4811 -1.1552 -0.1552
19758TIP3    H280766   0.752   1.259  12.294 -0.8819  1.2493 -0.9019
19759TIP3   OH280767   4.450   2.266   1.824  0.9364  0.2067  0.1815
19759TIP3    H180768   4.495   2.217   1.756 -1.5182 -3.0496  0.6523
19759TIP3    H280769   4.483   2.231   1.906 -0.4781 -0.3859  0.5386
19760TIP3   OH280770   1.816   4.325  12.288 -0.2562 -0.0609  0.6548
19760TIP3    H180771   1.894   4.313  12.233 -1.0753 -0.3689 -0.4794
19760TIP3    H280772   1.772   4.240  12.285 -0.3958 -0.0286  1.6730
19761TIP3   OH280773   1.133   6.684  16.081 -0.1951  0.4291  0.0803
19761TIP3    H180774   1.211   6.739  16.079 -0.0453  0.3846  2.1641
19761TIP3    H280775   1.060   6.746  16.075 -0.0460  0.4537 -2.0966
19762TIP3   OH280776   3.354   5.967  14.634  0.7973  0.7574  0.6894
19762TIP3    H180777   3.445   5.938  14.642 -0.1667 -2.7146  0.4260
19762TIP3    H280778   3.340   6.022  14.712  2.2003 -1.4328  2.6063
19763TIP3   OH280779   3.520   4.367   3.592  0.6703 -0.3404  0.1719
19763TIP3    H180780   3.476   4.449   3.570  0.2719 -0.6843 -0.3236
19763TIP3    H280781   3.556   4.382   3.679  1.4218  0.6997 -0.2929
19764TIP3   OH280782   5.365   0.483  14.391  0.1208  0.2425  0.0970
19764TIP3    H180783   5.318   0.411  14.350 -0.0647  0.0671  0.6063
19764TIP3    H280784   5.377   0.548  14.321 -1.5847  0.6473  0.1404
19765TIP3   OH280785   2.097   6.386   2.595 -0.0191 -0.5101  0.0098
19765TIP3    H180786   2.064   6.373   2.506  2.2807 -0.4980 -0.9291
19765TIP3    H280787   2.060   6.470   2.622 -0.1942 -0.1513 -1.2527
19766TIP3   OH280788   6.062   0.755   5.555 -0.3192 -0.0055  0.1883
19766TIP3    H180789   6.133   0.722   5.611  1.0981 -1.5803 -2.3583
19766TIP3    H280790   6.014   0.676   5.530 -0.5623  0.5701 -1.2298
19767TIP3   OH280791   0.246   4.560  12.389  0.0605 -0.4027  0.8111
19767TIP3    H180792   0.220   4.504  12.461 -0.8986  1.1781  1.7720
19767TIP3    H280793   0.190   4.534  12.316 -0.1144 -0.9197  1.1306
19768TIP3   OH280794   4.918   1.058   6.282  0.2797 -0.8714  0.4604
19768TIP3    H180795   4.957   1.011   6.208  1.9723 -0.7694  1.2250
19768TIP3    H280796   4.992   1.104   6.322 -0.9166  0.5103  1.1561
19769TIP3   OH280797   0.006   2.770  17.033  0.1410 -0.5150  0.5269
19769TIP3    H180798  -0.040   2.693  16.999  0.6304 -1.7703  2.5543
19769TIP3    H280799  -0.064   2.832  17.054 -0.5589 -1.7854  2.1091
19770TIP3   OH280800   5.193   3.606  12.881 -0.1202 -0.3126 -0.0554
19770TIP3    H180801   5.114   3.636  12.925  0.0140  1.2972 -0.8401
19770TIP3    H280802   5.262   3.664  12.914  0.3832 -0.5242 -0.7103
19771TIP3   OH280803   0.407   3.521  11.392 -0.1692 -0.4577 -0.0882
19771TIP3    H180804   0.405   3.568  11.309  0.7155  2.4505  1.4221
19771TIP3    H280805   0.488   3.470  11.389  0.3876  0.4439 -0.6079
19772TIP3   OH280806   3.697   4.949   3.352  0.6877 -0.0170  0.4510
19772TIP3    H180807   3.707   5.028   3.299  0.6904  0.2111  0.7872
19772TIP3    H280808   3.765   4.890   3.321 -0.1675 -0.4080 -0.7336
19773TIP3   OH280809   0.722   6.028   0.028  0.0768 -0.2033  0.3131
19773TIP3    H180810   0.653   6.092   0.014  0.3141 -0.2646 -1.2375
19773TIP3    H280811   0.780   6.038  -0.047 -0.0052 -2.3734 -0.1098
19774TIP3   OH280812   4.824   6.800  11.004  0.6157  0.1307 -0.0377
19774TIP3    H180813   4.870   6.721  10.976  0.5565  0.4953 -1.2238
19774TIP3    H280814   4.764   6.819  10.932 -2.3197 -0.9992  1.9560
19775TIP3   OH280815   1.278   1.400   3.455  0.0924 -0.1930  0.5058
19775TIP3    H180816   1.251   1.394   3.546  0.1984  0.5641  0.5980
19775TIP3    H280817   1.364   1.442   3.459  0.1868 -0.3452  0.0740
19776TIP3   OH280818   5.591   4.765  16.333  0.1895  0.0565 -0.5300
19776TIP3    H180819   5.542   4.743  16.254  0.3915 -1.5770 -0.2314
19776TIP3    H280820   5.680   4.782  16.303 -0.2908  2.1585 -0.9582
19777TIP3   OH280821   2.580   3.106  14.746  1.0727 -0.3326  0.1497
19777TIP3    H180822   2.587   3.173  14.678  1.5872  0.0327  0.5547
19777TIP3    H280823   2.621   3.146  14.823 -1.0408 -0.0141  1.2071
19778TIP3   OH280824   0.599   1.209  14.691  0.0981  0.4426  0.1634
19778TIP3    H180825   0.608   1.298  14.657 -0.2738 -0.0476 -1.2657
19778TIP3    H280826   0.682   1.167  14.671 -0.0055  0.2432  0.1572
19779TIP3   OH280827   0.908   0.450  15.849 -0.2412 -0.7081 -0.1116
19779TIP3    H180828   0.920   0.528  15.794 -2.1039 -1.1215 -1.1911
19779TIP3    H280829   0.977   0.391  15.820  1.0888  0.4396  0.5959
19780TIP3   OH280830   3.295   4.486   3.807 -0.8629  0.0721  0.7077
19780TIP3    H180831   3.390   4.476   3.817 -0.9480 -0.4642  1.0170
19780TIP3    H280832   3.259   4.451   3.889 -1.3331  0.1319  0.5271
19781TIP3   OH280833   2.467   4.074   0.980  0.1079 -0.0084 -0.4162
19781TIP3    H180834   2.545   4.031   1.014  0.7644  0.0772 -1.7674
19781TIP3    H280835   2.462   4.157   1.028  0.4404 -0.3177  0.1643
19782TIP3   OH280836   5.297   6.368   3.927 -0.1148 -0.0027  0.1590
19782TIP3    H180837   5.278   6.457   3.899 -0.4544 -0.2758 -0.5244
19782TIP3    H280838   5.389   6.355   3.907 -0.3638 -0.2059 -0.8984
19783TIP3   OH280839   2.641   5.526   4.604  0.0374 -1.1528 -0.2741
19783TIP3    H180840   2.662   5.448   4.554  1.1758 -1.1708  0.2016
19783TIP3    H280841   2.666   5.599   4.547  0.9583 -1.1703  0.0871
19784TIP3   OH280842   0.347   3.561   2.806  0.4927  0.0643  0.2089
19784TIP3    H180843   0.404   3.589   2.734  1.4397 -2.2040 -0.0152
19784TIP3    H280844   0.274   3.517   2.762  0.2178  0.1278  0.6007
19785TIP3   OH280845   4.234   1.142   0.099  0.0943  0.5420 -0.2214
19785TIP3    H180846   4.282   1.059   0.103 -0.6898  0.1070  3.0372
19785TIP3    H280847   4.302   1.209   0.107  0.4752  0.0054  1.7030
19786TIP3   OH280848   5.662   3.036   2.524 -0.0219  0.4961  0.3165
19786TIP3    H180849   5.749   3.027   2.485 -1.0472  0.0833 -2.0507
19786TIP3    H280850   5.663   2.975   2.598  1.3830 -0.2535 -0.2645
19787TIP3   OH280851   4.926   4.650  11.389 -0.1640  0.6109 -0.8823
19787TIP3    H180852   4.852   4.620  11.336 -0.7404 -1.3753  0.8819
19787TIP3    H280853   4.886   4.674  11.473  1.0227  1.0224 -0.4172
19788TIP3   OH280854   2.694   1.923   3.945  0.5915 -0.3854  0.0872
19788TIP3    H180855   2.711   1.892   4.034 -0.3315  3.4603  1.8439
19788TIP3    H280856   2.601   1.903   3.931  0.0614  1.1292  1.1086
19789TIP3   OH280857   2.791   4.278   1.779 -0.2859 -0.2255  0.2263
19789TIP3    H180858   2.843   4.245   1.852 -0.0854 -0.9170 -0.2251
19789TIP3    H280859   2.702   4.247   1.798  0.0544 -1.8539 -0.6532
19790TIP3   OH280860   4.190   5.630  15.989 -0.6319  0.3504  0.5643
19790TIP3    H180861   4.099   5.656  16.001 -0.7841  0.6033 -0.9230
19790TIP3    H280862   4.202   5.555  16.048 -1.7669  0.3763  0.8505
19791TIP3   OH280863   0.316   4.778  11.525 -0.0528  0.4845 -0.1203
19791TIP3    H180864   0.304   4.852  11.584  0.2555 -0.7211  1.5218
19791TIP3    H280865   0.256   4.711  11.558  1.1112 -0.7081 -0.3179
19792TIP3   OH280866   2.837   6.569  14.403  0.0222  0.2959  0.3812
19792TIP3    H180867   2.747   6.545  14.426  0.0528  0.5380  0.7681
19792TIP3    H280868   2.892   6.512  14.457  0.0956  0.6487  0.6861
19793TIP3   OH280869   4.488   0.962   5.532 -0.1434  0.2855 -0.1773
19793TIP3    H180870   4.441   1.041   5.504 -0.6472  0.6775  1.5994
19793TIP3    H280871   4.424   0.892   5.525 -0.3858  0.4505  0.3036
19794TIP3   OH280872   5.111   1.509  16.240 -0.1122 -0.2750 -0.3775
19794TIP3    H180873   5.099   1.603  16.237 -0.3998 -0.2854  0.2417
19794TIP3    H280874   5.024   1.472  16.222 -0.0142 -0.4226 -0.5566
19795TIP3   OH280875   2.882   0.368   2.340 -0.3705 -0.6582  0.3519
19795TIP3    H180876   2.897   0.274   2.330 -0.2485 -0.6722  0.6621
19795TIP3    H280877   2.967   0.408   2.323 -0.4819 -0.5880 -0.0284
19796TIP3   OH280878   4.542   1.662  13.045 -0.4481 -0.4920 -0.3971
19796TIP3    H180879   4.601   1.682  12.973 -0.5157  0.2351 -0.2598
19796TIP3    H280880   4.465   1.716  13.028 -0.8266 -0.9788 -0.2499
19797TIP3   OH280881   0.093   2.687  15.738  0.0271  0.0634  0.1945
19797TIP3    H180882   0.126   2.765  15.693 -0.1228  0.6066  1.0017
19797TIP3    H280883   0.078   2.716  15.828  3.2738 -1.7423  1.5075
19798TIP3   OH280884   3.445   4.995  13.334  0.3368  0.2842 -0.2882
19798TIP3    H180885   3.500   5.068  13.307 -1.8976  1.9973 -0.4788
19798TIP3    H280886   3.387   4.980  13.259 -0.2372 -0.6750  0.3336
19799TIP3   OH280887   3.197   6.069   3.059 -0.1454  0.4052 -0.0441
19799TIP3    H180888   3.215   6.055   2.966  0.8830  0.1589  0.1708
19799TIP3    H280889   3.113   6.026   3.075 -0.0360 -0.0757 -0.7310
19800TIP3   OH280890   3.855   5.442   3.039 -0.4318 -0.5495 -0.4486
19800TIP3    H180891   3.920   5.426   3.108 -0.4313 -2.3381 -0.8033
19800TIP3    H280892   3.903   5.491   2.972 -0.1050  0.1585  0.2842
19801TIP3   OH280893   4.692   3.063  13.078  0.0651  1.0679 -0.0101
19801TIP3    H180894   4.766   3.114  13.109 -0.5195  1.1281  1.3707
19801TIP3    H280895   4.639   3.124  13.027  1.0253  0.9825 -1.1317
19802TIP3   OH280896   3.711   6.277   3.796  0.9347  0.1397 -0.2018
19802TIP3    H180897   3.649   6.237   3.857 -0.0519  4.0390  1.6912
19802TIP3    H280898   3.795   6.277   3.842  0.6204  1.3431  0.4193
19803TIP3   OH280899   6.116   1.302   2.726 -0.0896  0.3216  0.5141
19803TIP3    H180900   6.192   1.352   2.757  0.4007  0.3653 -0.7071
19803TIP3    H280901   6.133   1.212   2.755  0.0126  0.4855  0.9703
19804TIP3   OH280902   2.618   4.878  11.991 -0.2904 -0.1888 -0.6099
19804TIP3    H180903   2.578   4.832  12.065 -0.4907  0.3063 -0.4024
19804TIP3    H280904   2.562   4.955  11.977 -0.1315 -0.1618 -1.1378
19805TIP3   OH280905   3.504   6.119   3.916 -0.1749 -0.4959  0.5779
19805TIP3    H180906   3.460   6.126   4.001 -1.5870 -1.7482 -0.0043
19805TIP3    H280907   3.513   6.025   3.901  0.6931 -0.2837 -0.3578
19806TIP3   OH280908   2.313   0.950  12.591  0.1828 -0.0848  0.4825
19806TIP3    H180909   2.240   0.956  12.529 -0.0517 -0.2551  0.7413
19806TIP3    H280910   2.347   0.862  12.580  0.5403  0.0967  0.1469
19807TIP3   OH280911   0.563   1.176  12.553 -0.8839 -0.0393  0.9449
19807TIP3    H180912   0.495   1.220  12.502  1.9214  1.5530 -1.6887
19807TIP3    H280913   0.574   1.231  12.631 -1.4233  0.6256  0.5625
19808TIP3   OH280914   5.060   5.155   4.778 -0.2265  0.0249 -0.6638
19808TIP3    H180915   5.086   5.171   4.869  0.5369 -0.0723 -0.8585
19808TIP3    H280916   5.015   5.071   4.780  0.7514 -0.5087 -0.5398
19809TIP3   OH280917   6.829   3.319   1.796  0.3757  0.4030 -0.3539
19809TIP3    H180918   6.866   3.374   1.865 -1.0329  0.7957  0.1099
19809TIP3    H280919   6.766   3.375   1.751 -0.0106 -0.3869 -0.8278
19810TIP3   OH280920   2.514   0.597  14.924 -0.2206 -0.1152  0.0987
19810TIP3    H180921   2.482   0.666  14.865  0.6007  0.4602  0.3109
19810TIP3    H280922   2.444   0.586  14.988 -0.6343  0.0671 -0.3154
19811TIP3   OH280923   3.678   3.030  13.162 -0.3589 -0.0930  0.0808
19811TIP3    H180924   3.743   3.015  13.231 -0.7770  1.8803  0.9877
19811TIP3    H280925   3.725   3.015  13.080  0.5091 -1.1886  0.7374
19812TIP3   OH280926   6.267   3.110   4.456  0.3553 -0.3379 -0.5707
19812TIP3    H180927   6.261   3.014   4.463 -3.7518 -0.1883  1.0060
19812TIP3    H280928   6.263   3.140   4.547 -0.7412  1.3250 -1.1241
19813TIP3   OH280929   4.720   2.932   3.122  0.7165  0.3261  0.9984
19813TIP3    H180930   4.694   2.942   3.030 -0.6925  0.2098  1.3537
19813TIP3    H280931   4.756   3.017   3.146  0.1727  0.6739  0.6093
19814TIP3   OH280932   5.841   5.466   2.317 -0.4011  0.4575 -0.1766
19814TIP3    H180933   5.833   5.546   2.370 -0.8627  1.6965 -2.0160
19814TIP3    H280934   5.932   5.440   2.327  0.0076  1.7674 -0.2849
19815TIP3   OH280935   2.018   4.988   1.854 -0.0821 -0.2390  0.0480
19815TIP3    H180936   1.933   4.960   1.821 -0.1053 -1.5012  1.1454
19815TIP3    H280937   2.081   4.950   1.792 -0.3099  2.8475 -2.3404
19816TIP3   OH280938   2.976   2.607  12.417 -0.9940 -0.2136 -0.2735
19816TIP3    H180939   2.916   2.680  12.402 -0.7303  0.4027  1.4429
19816TIP3    H280940   2.971   2.591  12.511 -0.5601 -2.0003 -0.5251
19817TIP3   OH280941   1.668   4.661  16.202  0.0910 -0.9285  0.0734
19817TIP3    H180942   1.629   4.581  16.169 -2.1564  0.0208  0.2552
19817TIP3    H280943   1.629   4.673  16.289  1.2741 -0.2116  0.5449
19818TIP3   OH280944   6.788   0.709  16.641  0.0052  0.4831 -0.2445
19818TIP3    H180945   6.714   0.691  16.583 -0.7432  0.7915  0.5954
19818TIP3    H280946   6.783   0.803  16.658 -0.6045  0.1812  1.3823
19819TIP3   OH280947   1.375   0.134   3.136  0.1065  0.4436  0.0363
19819TIP3    H180948   1.346   0.133   3.228 -0.7417 -0.7484 -0.2237
19819TIP3    H280949   1.313   0.078   3.091  2.2450 -1.4692 -0.7272
19820TIP3   OH280950   2.500   5.376  11.042  0.2508  0.5613  0.5426
19820TIP3    H180951   2.566   5.363  11.110  0.1513 -0.6262  0.4240
19820TIP3    H280952   2.546   5.426  10.974  1.4291 -1.2611 -0.0812
19821TIP3   OH280953   2.564   2.403  13.749  0.4093  0.1120  0.1502
19821TIP3    H180954   2.562   2.391  13.844 -1.2242 -2.5942 -0.1214
19821TIP3    H280955   2.600   2.321  13.715 -2.6318 -0.6426 -1.6631
19822TIP3   OH280956   6.269   5.492   2.756 -0.3653 -0.3971  0.0653
19822TIP3    H180957   6.332   5.474   2.826 -1.6228 -0.7393  1.1473
19822TIP3    H280958   6.298   5.438   2.682  1.5850  0.7462 -0.0714
19823TIP3   OH280959   0.453   5.632   2.212 -0.3754  0.5196  0.2074
19823TIP3    H180960   0.391   5.702   2.189 -1.6222 -0.1663  1.3610
19823TIP3    H280961   0.522   5.676   2.262 -0.0984  1.2331 -0.7701
19824TIP3   OH280962   6.539   2.687   1.726  0.0930  0.0211 -0.2197
19824TIP3    H180963   6.486   2.726   1.796  0.2460  0.4005 -0.3110
19824TIP3    H280964   6.500   2.601   1.712  0.8078 -0.5464  1.1468
19825TIP3   OH280965   2.795   6.334   0.552 -0.3503  0.2897  0.2176
19825TIP3    H180966   2.845   6.398   0.604  0.5196  0.7533 -1.1350
19825TIP3    H280967   2.738   6.291   0.616  1.4757  0.0271  1.7628
19826TIP3   OH280968   1.569   1.027   1.760 -0.5112 -0.6940 -0.3856
19826TIP3    H180969   1.542   1.031   1.668 -0.3315  0.4399 -0.4043
19826TIP3    H280970   1.515   1.094   1.803 -1.5616 -2.1081  0.6097
19827TIP3   OH280971   1.510   5.779  11.476  0.1421 -0.2646  0.2954
19827TIP3    H180972   1.456   5.808  11.402  1.6823  0.1767 -0.7015
19827TIP3    H280973   1.448   5.768  11.548 -0.7826  4.4032  0.5104
19828TIP3   OH280974   3.464   5.657  16.773 -0.2190 -0.1114  0.1654
19828TIP3    H180975   3.397   5.713  16.734 -0.6892 -0.0955  0.9801
19828TIP3    H280976   3.420   5.617  16.848  0.2782 -1.1417 -0.0805
19829TIP3   OH280977   6.733   3.788   5.745  0.4181  0.2973 -0.1696
19829TIP3    H180978   6.757   3.880   5.750 -1.4755  0.7791  0.9591
19829TIP3    H280979   6.796   3.743   5.802  1.2619  0.8930 -0.6199
19830TIP3   OH280980   2.424   3.878   2.632  0.4696  0.0539 -0.0978
19830TIP3    H180981   2.424   3.943   2.561 -0.0509  1.6788  1.3143
19830TIP3    H280982   2.467   3.923   2.705  2.1942 -2.0408  0.2599
19831TIP3   OH280983   1.887   0.550   2.555 -0.0369 -0.3044 -0.0045
19831TIP3    H180984   1.805   0.564   2.603 -0.1708 -1.7222  0.2270
19831TIP3    H280985   1.955   0.585   2.613 -0.4436  0.6976 -0.1114
19832TIP3   OH280986   3.786   4.435  13.177  0.7605  0.0226  0.2909
19832TIP3    H180987   3.768   4.473  13.262  1.5682  0.7573  0.1474
19832TIP3    H280988   3.863   4.379  13.192  0.8751  0.1170  0.0602
19833TIP3   OH280989   0.076   2.234  14.540 -0.0747 -0.5169  0.0155
19833TIP3    H180990   0.088   2.329  14.551  0.9163 -0.6983  0.6416
19833TIP3    H280991  -0.015   2.218  14.565 -0.0518  0.1806  0.5747
19834TIP3   OH280992   2.058   1.773  14.826 -0.6533  0.0169  0.0285
19834TIP3    H180993   2.047   1.741  14.736  0.3733 -0.5219  0.0758
19834TIP3    H280994   2.100   1.700  14.872 -1.0299  0.3430  0.9087
19835TIP3   OH280995   6.104   2.767  16.835  0.9506 -0.3859  0.5906
19835TIP3    H180996   6.194   2.754  16.806  1.0559 -0.5303  0.9820
19835TIP3    H280997   6.071   2.839  16.780  1.3187 -0.2958  0.4871
19836TIP3   OH280998   2.767   3.572  15.608 -0.0893  0.3361  0.8023
19836TIP3    H180999   2.838   3.510  15.626 -0.1599  0.0677  0.2048
19836TIP3    H281000   2.807   3.638  15.551  0.0913  1.0737  1.7668
19837TIP3   OH281001   5.032   4.332   3.637 -0.2301 -0.2273  0.7386
19837TIP3    H181002   5.106   4.280   3.608 -0.4010  0.5344 -1.2766
19837TIP3    H281003   5.068   4.391   3.703  0.9178 -0.0414 -0.0235
19838TIP3   OH281004   1.592   4.998  15.795  0.2864 -0.0679 -0.5473
19838TIP3    H181005   1.630   4.926  15.744  0.1088 -0.7195  0.2242
19838TIP3    H281006   1.661   5.023  15.856  0.5362  0.7829 -1.1559
19839TIP3   OH281007   2.694   6.242   6.611 -0.2115 -0.0934 -0.0749
19839TIP3    H181008   2.691   6.334   6.637 -3.5806 -0.1579  0.2006
19839TIP3    H281009   2.780   6.212   6.639  0.1906  2.4252  1.7642
19840TIP3   OH281010   1.189   6.672  11.977 -0.3551 -0.1145  0.1078
19840TIP3    H181011   1.244   6.749  11.961 -0.7473 -0.2023 -1.8377
19840TIP3    H281012   1.127   6.670  11.904 -0.8102 -1.8915  0.4873
19841TIP3   OH281013   0.575   5.151  16.109 -0.1064  0.3409 -0.1488
19841TIP3    H181014   0.669   5.163  16.115 -0.1128 -0.0496  0.9320
19841TIP3    H281015   0.547   5.212  16.041  0.5322  2.6599  1.5540
19842TIP3   OH281016   5.389   3.410   0.812 -0.4510  0.3179  0.7629
19842TIP3    H181017   5.415   3.403   0.904  1.0924  1.6852  0.4923
19842TIP3    H281018   5.471   3.430   0.765 -1.3895  0.9021 -0.7269
19843TIP3   OH281019   0.703   2.013  11.383 -0.7300  0.1934 -0.1716
19843TIP3    H181020   0.745   2.072  11.446  0.2020  1.2201 -1.6650
19843TIP3    H281021   0.755   1.932  11.388 -0.2472  0.5011 -0.0725
19844TIP3   OH281022   2.731   6.597   6.523  0.8136 -0.3747  0.0352
19844TIP3    H181023   2.668   6.542   6.476  0.7740 -1.3550  1.2029
19844TIP3    H281024   2.677   6.659   6.571  0.7332 -1.0512  0.8343
19845TIP3   OH281025   1.374   6.419   6.159  0.0246 -0.2132 -0.2726
19845TIP3    H181026   1.344   6.361   6.229 -2.1270  1.4708  0.2931
19845TIP3    H281027   1.323   6.499   6.170 -1.6417 -0.3884 -4.6948
19846TIP3   OH281028   4.931   3.342  14.919 -0.0245 -0.0829  0.3384
19846TIP3    H181029   4.896   3.328  14.831  0.0589  1.1598  0.0943
19846TIP3    H281030   5.020   3.375  14.905  0.3118 -0.7320  0.9092
19847TIP3   OH281031   4.537   2.742  16.787 -0.2802 -0.1078  0.1248
19847TIP3    H181032   4.561   2.690  16.863  0.2156 -2.0745 -1.2820
19847TIP3    H281033   4.442   2.751  16.793 -0.2814 -0.5180  0.8027
19848TIP3   OH281034   3.938   2.885   4.664 -0.1655  0.4068  0.3559
19848TIP3    H181035   3.957   2.854   4.752 -1.5424 -0.9883  0.2121
19848TIP3    H281036   4.020   2.872   4.616  0.1529 -0.2862  1.0519
19849TIP3   OH281037   3.566   0.854   5.849 -0.0965  0.3997  0.1374
19849TIP3    H181038   3.590   0.943   5.823 -0.1488  0.4155  0.1426
19849TIP3    H281039   3.569   0.855   5.944  1.6979 -0.0982  0.1163
19850TIP3   OH281040   1.381   0.036   1.378  0.0511 -0.3584  0.2078
19850TIP3    H181041   1.334   0.119   1.378  0.6991  0.0175 -0.1126
19850TIP3    H281042   1.392   0.015   1.285  1.3428  0.0455  0.2530
19851TIP3   OH281043   5.407   4.147   6.441 -0.2648 -0.0419 -0.1568
19851TIP3    H181044   5.354   4.172   6.365 -1.6819 -0.9175  0.5095
19851TIP3    H281045   5.367   4.066   6.473  0.9982 -0.2923  0.8611
19852TIP3   OH281046   2.656   5.159   0.168  0.2839  0.1138 -0.1879
19852TIP3    H181047   2.695   5.126   0.088 -2.3304 -0.7038 -1.2502
19852TIP3    H281048   2.675   5.092   0.234  0.9204 -0.0972 -0.5869
19853TIP3   OH281049   1.416   0.235   1.917  0.1051  0.5909 -0.2827
19853TIP3    H181050   1.475   0.311   1.921 -1.4545  1.9032 -0.9443
19853TIP3    H281051   1.379   0.238   1.828 -1.4534  0.2247  0.3181
19854TIP3   OH281052   4.202   6.374  12.598 -0.0070 -0.0339 -0.0854
19854TIP3    H181053   4.244   6.298  12.638  1.0375  1.5465  2.0424
19854TIP3    H281054   4.122   6.386  12.650 -0.4652  0.0057 -0.7892
19855TIP3   OH281055   2.848   0.008   5.250 -0.1041 -0.0477 -0.4164
19855TIP3    H181056   2.823   0.089   5.293 -1.2534 -0.9466  0.7005
19855TIP3    H281057   2.779  -0.054   5.273  0.3691 -1.1610 -1.8190
19856TIP3   OH281058   2.001   2.634  16.067  0.2258 -0.0842 -0.1253
19856TIP3    H181059   2.076   2.679  16.105 -0.9119 -0.1220  2.3752
19856TIP3    H281060   1.943   2.616  16.141 -2.1650 -0.2731 -1.8941
19857TIP3   OH281061   1.066   5.311   4.992 -0.2163 -0.0692 -0.0573
19857TIP3    H181062   1.095   5.351   4.910 -1.4434  0.4469 -0.2580
19857TIP3    H281063   1.129   5.342   5.057 -0.1743  0.8410 -0.5149
19858TIP3   OH281064   2.282   1.007  11.968 -0.1380  0.0950 -0.0271
19858TIP3    H181065   2.256   0.991  11.877 -1.5809  1.5238  0.0931
19858TIP3    H281066   2.336   1.086  11.963  0.5314 -0.3273  0.2880
19859TIP3   OH281067   5.737   3.565   1.986 -0.0272 -0.7205  0.0871
19859TIP3    H181068   5.822   3.558   1.943  0.5747 -1.3620  1.3062
19859TIP3    H281069   5.713   3.658   1.979  0.5699 -0.6162 -0.6315
19860TIP3   OH281070   0.576   2.614   1.278 -0.0847  0.5359 -0.5624
19860TIP3    H181071   0.595   2.578   1.191  2.0645  1.4300 -0.5259
19860TIP3    H281072   0.510   2.555   1.314  1.1355 -1.6599 -1.6433
19861TIP3   OH281073   3.246   1.245   0.831 -0.1604  0.0930 -0.4203
19861TIP3    H181074   3.312   1.310   0.805 -0.1834  0.1555 -0.3214
19861TIP3    H281075   3.163   1.289   0.816 -0.1859  1.1997  2.4234
19862TIP3   OH281076   2.846   6.466   3.760  0.1295 -0.0855 -0.5157
19862TIP3    H181077   2.880   6.409   3.691  0.2785  1.2851 -1.6184
19862TIP3    H281078   2.915   6.530   3.775 -0.0632 -0.1311  0.6480
19863TIP3   OH281079   0.671   4.038  15.342 -0.2999  0.0352 -0.1241
19863TIP3    H181080   0.666   3.944  15.323 -0.0076  0.1592 -0.8512
19863TIP3    H281081   0.764   4.059  15.331 -0.4037  0.4534 -0.2079
19864TIP3   OH281082   6.623   2.269  12.794  0.2375  0.0738 -0.0597
19864TIP3    H181083   6.553   2.331  12.818 -0.0078 -0.7061  1.3552
19864TIP3    H281084   6.591   2.227  12.714 -0.4522  0.4519  0.0037
19865TIP3   OH281085   2.653   3.045   1.869 -0.1928  0.1822 -0.2089
19865TIP3    H181086   2.589   2.975   1.886  0.8310 -0.5962  0.5401
19865TIP3    H281087   2.636   3.110   1.938  0.2025 -0.2997  0.3499
19866TIP3   OH281088   3.830   3.282   5.023 -0.4617 -0.0708 -0.1934
19866TIP3    H181089   3.886   3.254   4.951  1.0010 -0.0258  0.8843
19866TIP3    H281090   3.798   3.201   5.062  1.3081 -0.2328  1.0300
19867TIP3   OH281091   6.063   3.553   5.070 -0.1625 -0.9305  0.1728
19867TIP3    H181092   6.138   3.545   5.012  1.7741  2.1146  1.9748
19867TIP3    H281093   6.005   3.615   5.026  0.4179 -0.0625  0.6038
19868TIP3   OH281094   3.248   4.441  12.741  0.2658  1.0747 -0.4793
19868TIP3    H181095   3.211   4.371  12.794  3.2135  0.1019  0.4537
19868TIP3    H281096   3.220   4.522  12.785  0.6741  0.3488  1.1643
19869TIP3   OH281097   3.424   4.433  12.207  0.3560  0.8056 -0.4012
19869TIP3    H181098   3.369   4.472  12.275 -0.4302 -0.3558 -0.3427
19869TIP3    H281099   3.388   4.467  12.125 -1.2977 -0.8754 -0.4417
19870TIP3   OH281100   4.664   4.570  13.755 -0.0211 -0.1898  0.1263
19870TIP3    H181101   4.730   4.545  13.819  0.2553  1.3667  0.4999
19870TIP3    H281102   4.713   4.611  13.684 -0.2130 -2.8653 -1.6763
19871TIP3   OH281103   0.967   6.437  12.540  0.1315 -0.4769  0.4125
19871TIP3    H181104   0.959   6.471  12.451  1.2302 -1.6988 -0.1957
19871TIP3    H281105   1.057   6.459  12.567 -0.0419 -0.5161  1.0473
19872TIP3   OH281106   6.190   4.451  14.282  0.7626  0.0899  0.4141
19872TIP3    H181107   6.221   4.372  14.238  1.3839 -0.5350  1.9052
19872TIP3    H281108   6.255   4.468  14.350  1.4945  2.8272 -0.8316
19873TIP3   OH281109   3.778   1.043   6.332 -0.0180 -0.4211 -0.4239
19873TIP3    H181110   3.698   1.078   6.292 -0.8459 -0.4562  1.1362
19873TIP3    H281111   3.849   1.074   6.275 -0.9960  1.0283 -0.9059
19874TIP3   OH281112   5.834   4.640  11.863 -0.3803 -0.2618  0.0215
19874TIP3    H181113   5.879   4.645  11.947 -0.9813 -0.3834  0.3603
19874TIP3    H281114   5.804   4.729  11.846  0.2743 -0.1126 -0.3692
19875TIP3   OH281115   4.481   1.605  14.083 -0.0838  0.7908  0.3075
19875TIP3    H181116   4.483   1.626  13.990  0.3494  1.7923  0.5326
19875TIP3    H281117   4.450   1.514  14.086  0.0612  0.6889 -0.8113
19876TIP3   OH281118   6.771   1.681   4.674  0.1480  0.5482  0.4320
19876TIP3    H181119   6.852   1.630   4.671  0.8666  1.5259  1.8072
19876TIP3    H281120   6.756   1.707   4.583 -0.9873 -3.1032 -0.5636
19877TIP3   OH281121   4.949   5.963  12.907 -0.0241 -0.1366 -0.0536
19877TIP3    H181122   5.008   6.024  12.951  0.3774  0.0901 -0.8975
19877TIP3    H281123   4.921   5.902  12.976  0.5126  0.2764  0.5321
19878TIP3   OH281124   4.617   3.213   5.285  0.2920  0.1576 -0.0686
19878TIP3    H181125   4.603   3.122   5.309  0.2599  0.1784 -0.0097
19878TIP3    H281126   4.655   3.254   5.363  1.8284 -0.1838 -0.6086
19879TIP3   OH281127   0.006   5.118   3.328 -0.4753 -0.0529 -0.2936
19879TIP3    H181128  -0.019   5.093   3.239  1.7620 -2.7224 -0.2764
19879TIP3    H281129   0.097   5.091   3.336 -0.7592 -0.3701  3.0055
19880TIP3   OH281130   6.435   1.842  13.674  0.3197 -0.0711  0.1354
19880TIP3    H181131   6.346   1.848  13.639 -0.6298 -0.4456  2.2892
19880TIP3    H281132   6.435   1.900  13.750  1.8078 -0.3564  0.3875
19881TIP3   OH281133   3.814   2.492   2.417 -0.0756 -0.1436 -0.2558
19881TIP3    H181134   3.862   2.507   2.498 -1.3382 -1.8709  0.8759
19881TIP3    H281135   3.830   2.400   2.396  1.4791  0.6161 -2.8750
19882TIP3   OH281136   6.830   6.399   5.559  0.0569  0.0904  1.1142
19882TIP3    H181137   6.866   6.427   5.475 -0.1986 -2.7078 -0.0624
19882TIP3    H281138   6.741   6.435   5.561 -0.3112 -0.6529 -0.3467
19883TIP3   OH281139   5.081   2.646   3.360 -0.0283  0.0015 -0.1902
19883TIP3    H181140   5.150   2.680   3.416 -0.1879 -0.5423  0.3511
19883TIP3    H281141   5.036   2.724   3.327 -2.3580  0.4671  3.4469
19884TIP3   OH281142   4.055   4.700   4.091 -0.5600  0.0763  0.3033
19884TIP3    H181143   4.120   4.690   4.160 -1.8644 -3.0603  1.2730
19884TIP3    H281144   4.103   4.738   4.018  1.8513 -0.2254  1.6199
19885TIP3   OH281145   0.824   3.989  12.950 -0.1956  0.6567  0.0746
19885TIP3    H181146   0.780   4.015  12.870 -1.7753  1.4690  1.1465
19885TIP3    H281147   0.896   4.052  12.960  1.1694 -0.5504 -1.5766
19886TIP3   OH281148   2.773   0.183   2.033 -0.0879  0.7757  0.0996
19886TIP3    H181149   2.812   0.113   1.982  1.6880  1.0069  1.0371
19886TIP3    H281150   2.748   0.142   2.116  1.2377  1.2449  0.7717
19887TIP3   OH281151   4.106   3.167  12.503  0.4532  0.5920 -0.4735
19887TIP3    H181152   4.129   3.197  12.416 -0.7603  1.3104 -0.5800
19887TIP3    H281153   4.076   3.076  12.491  1.3995  0.2939 -0.6079
19888TIP3   OH281154   5.044   3.365   4.242  0.1667  0.1947 -0.3579
19888TIP3    H181155   4.981   3.411   4.187 -0.1477  0.5161  0.2537
19888TIP3    H281156   5.009   3.277   4.251 -0.8243  0.6853  0.9138
19889TIP3   OH281157   0.540   0.277   3.194  0.2167  0.2075 -0.6553
19889TIP3    H181158   0.487   0.313   3.265 -0.1693  0.2850 -0.9750
19889TIP3    H281159   0.536   0.182   3.206  1.1151  0.2556  0.1051
19890TIP3   OH281160   3.133   1.754  13.254 -0.6558  0.4594  0.4593
19890TIP3    H181161   3.151   1.822  13.189 -0.6579  0.2071  0.1941
19890TIP3    H281162   3.218   1.733  13.292 -0.3838 -0.6545 -0.7129
19891TIP3   OH281163   1.550   6.036  11.408 -0.2150  0.1074  0.4306
19891TIP3    H181164   1.471   5.987  11.428  0.8946 -0.8352  2.8561
19891TIP3    H281165   1.568   6.017  11.316 -2.8526  0.5065 -0.2387
19892TIP3   OH281166   4.214   0.857   5.996 -0.2222 -0.0595 -0.1043
19892TIP3    H181167   4.280   0.788   5.989  1.0192  1.2602 -2.7918
19892TIP3    H281168   4.195   0.862   6.090  3.1990 -0.8236  0.7882
19893TIP3   OH281169   2.099   1.267   2.579  0.2549  0.3584 -0.6193
19893TIP3    H181170   2.152   1.346   2.586 -0.0554  0.6952 -1.8279
19893TIP3    H281171   2.013   1.292   2.612  0.6071  0.0374  0.5822
19894TIP3   OH281172   4.962   3.168   5.416  0.1151 -0.4808  0.3198
19894TIP3    H181173   5.037   3.109   5.418 -1.2028 -2.2088  1.5478
19894TIP3    H281174   4.991   3.242   5.363  2.0162 -1.9887 -0.8732
19895TIP3   OH281175   1.405   4.208   0.236 -0.1719  0.3904 -0.2011
19895TIP3    H181176   1.311   4.203   0.250 -0.1326  0.4347  0.0940
19895TIP3    H281177   1.440   4.235   0.321  0.1326  0.1039 -0.2355
19896TIP3   OH281178   5.038   6.539  15.808  0.0248  0.2134  0.3176
19896TIP3    H181179   5.040   6.548  15.712  1.1637  1.2031  0.4060
19896TIP3    H281180   5.007   6.624  15.840  2.5996  1.0267  0.8921
19897TIP3   OH281181   5.581   4.627  15.265 -0.7026  0.6985 -0.1611
19897TIP3    H181182   5.586   4.712  15.221  1.9638  0.0092 -1.4050
19897TIP3    H281183   5.605   4.645  15.356 -0.5358  1.3188 -0.3248
19898TIP3   OH281184   1.789   1.642  11.038 -0.7826 -0.2567  0.2852
19898TIP3    H181185   1.848   1.717  11.025 -0.2768 -0.7484 -0.3007
19898TIP3    H281186   1.734   1.668  11.112 -1.2740  1.1037 -0.5279
19899TIP3   OH281187   0.106   3.555  12.099 -0.0023 -0.0713 -0.0602
19899TIP3    H181188   0.120   3.626  12.161  1.3018 -0.8557  0.6038
19899TIP3    H281189   0.182   3.558  12.042  0.0738 -0.9094 -0.0228
19900TIP3   OH281190   5.734   6.044   1.302 -0.3228 -0.3409  0.0798
19900TIP3    H181191   5.645   6.009   1.314  0.4984 -3.2443 -1.3101
19900TIP3    H281192   5.733   6.079   1.213 -0.8146  2.3968  1.0830
19901TIP3   OH281193   0.800   0.074   2.830  0.4805 -0.2343 -0.6214
19901TIP3    H181194   0.706   0.074   2.844  0.4739 -0.6108 -0.6671
19901TIP3    H281195   0.812   0.046   2.740  0.6324 -0.0945 -0.6456
19902TIP3   OH281196   1.352   0.467  12.359 -0.3082 -0.2190  0.0832
19902TIP3    H181197   1.420   0.400  12.348  0.7013  0.9613 -1.2162
19902TIP3    H281198   1.319   0.481  12.270 -2.6049 -1.0667  0.7219
19903TIP3   OH281199   6.469   2.493  16.902 -0.6356  0.0186 -0.4329
19903TIP3    H181200   6.389   2.443  16.915 -0.1231 -0.4870  0.9577
19903TIP3    H281201   6.440   2.574  16.859 -1.3580 -1.7729 -3.6930
19904TIP3   OH281202   0.737   2.011   1.459  0.5240 -0.4100 -0.5010
19904TIP3    H181203   0.675   1.940   1.476 -0.3120  0.4501  0.0665
19904TIP3    H281204   0.748   2.055   1.543  1.7409 -0.3965 -0.6397
19905TIP3   OH281205   5.778   0.518  14.163 -0.2759 -0.1917  0.1109
19905TIP3    H181206   5.852   0.462  14.139  0.1079  0.8443 -1.2562
19905TIP3    H281207   5.813   0.607  14.157 -1.5701  0.3102 -0.3580
19906TIP3   OH281208   2.484   3.485  17.090  0.2769  0.2222 -0.2551
19906TIP3    H181209   2.402   3.484  17.039 -1.4145 -0.1989  2.2650
19906TIP3    H281210   2.538   3.416  17.051 -1.8717 -1.6506 -0.1497
19907TIP3   OH281211   3.883   3.708  13.653 -0.0456 -0.1340  0.2086
19907TIP3    H181212   3.856   3.799  13.665 -0.7102  0.0364 -2.1307
19907TIP3    H281213   3.978   3.711  13.662 -0.0497  0.8167  0.1333
19908TIP3   OH281214   1.477   1.432  13.974  0.5024  0.2743 -0.3083
19908TIP3    H181215   1.458   1.470  13.888 -0.7931  2.4755  0.8492
19908TIP3    H281216   1.559   1.473  14.001  0.1316  0.7496  0.1119
19909TIP3   OH281217   3.455   0.487   1.791  0.9197 -0.0172  0.2696
19909TIP3    H181218   3.487   0.430   1.860  1.6246  0.3544  0.2624
19909TIP3    H281219   3.534   0.525   1.753  0.4378  2.6963  1.7243
19910TIP3   OH281220   3.502   2.493  12.640  0.2529 -0.3335  0.1013
19910TIP3    H181221   3.572   2.431  12.663  0.6237 -0.0209 -0.1811
19910TIP3    H281222   3.545   2.559  12.586  0.1948  0.9557  1.5322
19911TIP3   OH281223   1.773   5.566   5.527  0.1162 -0.3548 -0.3621
19911TIP3    H181224   1.728   5.541   5.447  0.5114  1.3105 -1.1624
19911TIP3    H281225   1.758   5.660   5.534 -1.6168 -0.7504  2.6496
19912TIP3   OH281226   1.686   3.354   5.751 -0.5542  0.0408 -0.2771
19912TIP3    H181227   1.781   3.359   5.763 -0.4030 -1.5426 -0.5013
19912TIP3    H281228   1.672   3.374   5.659 -0.3382 -0.5483 -0.4414
19913TIP3   OH281229   6.581   5.342   4.346 -0.6176 -0.1706 -0.3376
19913TIP3    H181230   6.540   5.374   4.266  0.5269  0.8255 -0.5402
19913TIP3    H281231   6.665   5.306   4.318 -0.3963 -0.2175  0.3644
19914TIP3   OH281232   5.455   3.763   1.957  0.1983 -0.1437 -0.3394
19914TIP3    H181233   5.481   3.733   1.870  1.1023  1.1169 -0.5223
19914TIP3    H281234   5.396   3.694   1.989 -0.1897 -0.6072 -1.9512
19915TIP3   OH281235   6.679   0.780   1.274 -0.7992  0.6359 -0.5045
19915TIP3    H181236   6.610   0.714   1.261  1.6918 -2.5989  1.1338
19915TIP3    H281237   6.718   0.757   1.359  0.3534  4.2706  0.1350
19916TIP3   OH281238   0.395   5.705  16.269  0.3582 -0.0114 -0.0412
19916TIP3    H181239   0.476   5.657  16.255  1.0081  1.0691 -0.0601
19916TIP3    H281240   0.421   5.796  16.273 -0.5681  0.2190  2.1681
19917TIP3   OH281241   0.329   0.403  13.037  0.1417  0.4015 -0.4008
19917TIP3    H181242   0.335   0.372  12.946  0.0546 -1.3792  0.1670
19917TIP3    H281243   0.236   0.414  13.053 -0.0255 -1.2810  0.0528
19918TIP3   OH281244   5.356   0.069  16.955 -0.4959  0.2725 -0.4019
19918TIP3    H181245   5.265   0.059  16.981 -0.9083 -0.0534 -1.8650
19918TIP3    H281246   5.379   0.159  16.980 -0.5921 -0.2587  1.7224
19919TIP3   OH281247   1.229   6.481  13.492 -0.2382 -0.1389  0.1713
19919TIP3    H181248   1.230   6.406  13.551 -1.5197 -0.0279  0.3711
19919TIP3    H281249   1.284   6.547  13.534  1.8822 -1.3345 -0.5663
19920TIP3   OH281250   6.793   5.298   4.949 -0.1475 -0.4860 -0.0758
19920TIP3    H181251   6.862   5.242   4.984  1.9056  1.3788 -0.8260
19920TIP3    H281252   6.737   5.240   4.898  0.9109 -2.0776  0.5132
19921TIP3   OH281253   0.220   3.187   1.977 -0.1450  0.5395 -0.3480
19921TIP3    H181254   0.307   3.200   2.015 -0.9076 -0.3045  1.8040
19921TIP3    H281255   0.175   3.270   1.992 -0.0091  0.6748 -0.6720
19922TIP3   OH281256   6.074   1.948  12.319  0.2362  0.0308 -0.6039
19922TIP3    H181257   6.165   1.977  12.330  0.3091 -0.3597 -0.1432
19922TIP3    H281258   6.068   1.868  12.372 -0.6788  0.6758  0.2908
19923TIP3   OH281259   4.307   5.745  14.266  0.6875 -0.1973  0.6090
19923TIP3    H181260   4.246   5.817  14.284  0.4862 -0.3343  0.4810
19923TIP3    H281261   4.315   5.743  14.171  4.3699  2.7005  0.6568
19924TIP3   OH281262   3.820   0.406   1.920  0.1206  0.2257 -0.7108
19924TIP3    H181263   3.840   0.426   1.829  0.7645  0.4548 -0.5251
19924TIP3    H281264   3.900   0.366   1.954 -0.3708 -0.5662 -0.4464
19925TIP3   OH281265   1.025   0.049  13.508 -0.2792  0.3409  0.0298
19925TIP3    H181266   1.035   0.121  13.571 -0.3509 -0.9086  1.5505
19925TIP3    H281267   1.114   0.023  13.487 -0.2570  0.5536 -0.1435
19926TIP3   OH281268   5.538   6.645  16.319  0.0684 -0.5766 -0.1549
19926TIP3    H181269   5.456   6.644  16.270  0.5790 -1.4992 -1.0517
19926TIP3    H281270   5.536   6.726  16.369 -1.6887 -0.9048  0.3840
19927TIP3   OH281271   0.439   6.325   5.810 -0.0276  0.1873 -0.0372
19927TIP3    H181272   0.461   6.360   5.896  0.4906 -0.6948  0.2055
19927TIP3    H281273   0.352   6.287   5.821  0.2510 -0.3895  0.2564
19928TIP3   OH281274   1.849   1.607  14.216 -0.2318 -0.2718 -0.1866
19928TIP3    H181275   1.855   1.683  14.274  1.4993 -0.9484  0.5885
19928TIP3    H281276   1.787   1.634  14.148  1.0370  2.2084 -0.4782
19929TIP3   OH281277   2.170   1.344  11.379 -0.3719  0.2151 -0.1564
19929TIP3    H181278   2.222   1.411  11.335 -1.3629  1.0841 -0.0282
19929TIP3    H281279   2.158   1.276  11.313 -0.6537  0.8656 -0.7842
19930TIP3   OH281280   3.895   0.106  14.540  0.8142 -0.6930 -0.2331
19930TIP3    H181281   3.908   0.041  14.471 -0.7344 -0.2828 -0.9699
19930TIP3    H281282   3.907   0.057  14.622 -0.7014 -2.0475 -0.7556
19931TIP3   OH281283   4.147   3.894   1.758  0.0045  0.4869  0.6457
19931TIP3    H181284   4.064   3.856   1.728 -0.6815  0.3527  2.5221
19931TIP3    H281285   4.120   3.958   1.825  1.3200  1.9976 -0.2105
19932TIP3   OH281286   2.101   5.113   5.849  0.0828  0.1738 -0.3317
19932TIP3    H181287   2.114   5.069   5.933 -0.6442  0.2125 -0.1963
19932TIP3    H281288   2.180   5.091   5.798  0.0871 -0.6454  0.0141
19933TIP3   OH281289   5.612   4.566   2.011 -0.6631  0.3076  0.2255
19933TIP3    H181290   5.661   4.507   1.953 -0.3556 -0.7671  1.5001
19933TIP3    H281291   5.616   4.651   1.968  2.0783  0.2104  0.0893
19934TIP3   OH281292   4.275   2.195   0.489 -0.0558  0.0401 -0.0860
19934TIP3    H181293   4.282   2.192   0.393 -1.9841  2.6467 -0.4309
19934TIP3    H281294   4.339   2.261   0.515 -1.6296  1.6463 -0.0242
19935TIP3   OH281295   0.121   0.496  15.056  0.5000  0.0535  0.0630
19935TIP3    H181296   0.106   0.401  15.060  0.4421 -0.0210 -1.5646
19935TIP3    H281297   0.046   0.533  15.104  0.3749 -0.7021  0.4744
19936TIP3   OH281298   1.900   5.772  15.183  0.0608 -0.1058  0.1828
19936TIP3    H181299   1.875   5.854  15.140 -1.2680  0.2778  1.6087
19936TIP3    H281300   1.818   5.737  15.217  0.8449 -1.1886  1.0200
19937TIP3   OH281301   4.539   0.406   3.471 -0.5640 -0.1956 -0.2341
19937TIP3    H181302   4.575   0.329   3.427  0.6873 -0.0946  0.5436
19937TIP3    H281303   4.478   0.371   3.536  0.5293 -0.6177  0.6064
19938TIP3   OH281304   1.498   5.964  13.552 -0.3011  0.0152 -0.0493
19938TIP3    H181305   1.491   5.874  13.519  3.1927 -0.5489  0.4018
19938TIP3    H281306   1.482   5.957  13.646 -3.6330  0.5793 -0.4410
19939TIP3   OH281307   4.564   6.447  12.060  0.7403  0.4168  0.0118
19939TIP3    H181308   4.606   6.378  12.113 -0.3786  0.3897  0.9087
19939TIP3    H281309   4.471   6.423  12.059  0.7733  0.2522 -2.2796
19940TIP3   OH281310   0.786   1.648   1.562  0.2448 -0.1876  0.1069
19940TIP3    H181311   0.848   1.575   1.565  0.1495 -0.2471  0.8701
19940TIP3    H281312   0.831   1.716   1.512  0.3318 -0.7667 -0.6217
19941TIP3   OH281313   6.207   2.809   1.722  0.3260 -0.1393 -0.7093
19941TIP3    H181314   6.160   2.738   1.677  0.1034 -1.2207  1.1469
19941TIP3    H281315   6.249   2.858   1.651 -1.6782 -0.5221 -2.2650
19942TIP3   OH281316   5.477   4.247   5.672  0.0641 -0.7251  0.1909
19942TIP3    H181317   5.543   4.316   5.669 -0.1586 -0.5445 -1.2650
19942TIP3    H281318   5.464   4.231   5.765  0.3566  0.9719  0.5603
19943TIP3   OH281319   3.080   1.156   6.508 -0.1034  0.3973 -0.3938
19943TIP3    H181320   3.150   1.171   6.572 -0.6773 -0.4030  0.4395
19943TIP3    H281321   3.125   1.116   6.433  0.1672 -1.3767  0.6652
19944TIP3   OH281322   3.859   2.081   1.063  0.1887 -0.1603 -0.0428
19944TIP3    H181323   3.840   2.136   1.139 -1.9863  0.4139 -0.9486
19944TIP3    H281324   3.911   2.136   1.005  2.2383 -0.7386  1.1285
19945TIP3   OH281325   0.580   5.843   1.862 -0.0670 -0.6601  0.4151
19945TIP3    H181326   0.518   5.906   1.826  1.4964  0.1367 -1.0438
19945TIP3    H281327   0.603   5.877   1.949  1.6992  1.5810 -0.8237
19946TIP3   OH281328   2.664   0.857   0.067  0.2189 -0.5319  0.3199
19946TIP3    H181329   2.686   0.913   0.141 -0.4537 -0.3224  0.3694
19946TIP3    H281330   2.652   0.917  -0.006 -1.6941 -0.4537  0.6414
19947TIP3   OH281331   0.515   2.146  12.628  0.4334  0.1882  0.3386
19947TIP3    H181332   0.449   2.084  12.597  1.2654 -0.4440 -0.2342
19947TIP3    H281333   0.508   2.145  12.723 -0.3233  0.0812  0.2849
19948TIP3   OH281334   5.900   1.737   5.462  0.0502 -0.3471 -0.4751
19948TIP3    H181335   5.951   1.687   5.397 -0.3236 -1.1750 -0.1437
19948TIP3    H281336   5.833   1.676   5.492 -0.0653  0.1773  0.3632
19949TIP3   OH281337   1.245   5.262   4.513 -0.6063  0.1175 -0.3267
19949TIP3    H181338   1.331   5.253   4.472 -0.6436 -0.7880 -0.2361
19949TIP3    H281339   1.190   5.302   4.446 -0.2217  0.2938 -0.5405
19950TIP3   OH281340   5.369   1.153  14.225 -0.2569 -0.0653  0.4841
19950TIP3    H181341   5.371   1.200  14.142  0.3338  1.6812  1.4448
19950TIP3    H281342   5.432   1.199  14.281 -0.4704 -1.3351  1.8348
19951TIP3   OH281343   2.041   5.681  15.424  0.0525 -0.5054  0.6455
19951TIP3    H181344   2.005   5.647  15.342 -0.1118  0.3384  0.3642
19951TIP3    H281345   2.122   5.632  15.436  0.3444 -0.2708 -0.3002
19952TIP3   OH281346   0.329   3.343   1.309 -0.6234  0.0029 -0.3770
19952TIP3    H181347   0.283   3.423   1.283  0.6421  0.7355 -0.4779
19952TIP3    H281348   0.280   3.310   1.384 -0.4389  1.6275  0.5073
19953TIP3   OH281349   1.913   1.236  12.950 -0.0896  0.2168 -0.3672
19953TIP3    H181350   1.935   1.218  12.858 -0.0625 -0.7938 -0.1744
19953TIP3    H281351   1.824   1.202  12.960  0.0116  0.0798  0.0544
19954TIP3   OH281352   0.260   2.498  13.355 -0.1182 -0.5014  0.2955
19954TIP3    H181353   0.338   2.484  13.302  0.3711 -0.7345  1.0672
19954TIP3    H281354   0.193   2.443  13.315  0.1502 -0.4143 -0.2767
19955TIP3   OH281355   3.239   0.806  13.183 -0.9271  0.1718 -0.7140
19955TIP3    H181356   3.243   0.859  13.103  0.2782 -0.9740 -1.4504
19955TIP3    H281357   3.263   0.867  13.253  1.1806  0.4751 -1.6240
19956TIP3   OH281358   0.266   5.597   4.940 -0.0620  0.1754 -0.1369
19956TIP3    H181359   0.347   5.648   4.937  0.3831 -0.5666 -1.3113
19956TIP3    H281360   0.224   5.614   4.856 -0.1913 -0.9390 -0.3036
19957TIP3   OH281361   1.991   2.415  11.651  0.3109 -0.1737  0.3687
19957TIP3    H181362   2.009   2.505  11.625  0.5154 -0.2552  0.2231
19957TIP3    H281363   2.035   2.405  11.735  0.1609 -0.0921  0.4568
19958TIP3   OH281364   3.903   5.231  14.046  0.2601 -0.0906  0.5168
19958TIP3    H181365   3.879   5.198  13.959  1.7245 -1.0747  0.4499
19958TIP3    H281366   3.907   5.326  14.035  0.8015 -0.2171 -0.6077
19959TIP3   OH281367   1.372   1.462   2.537 -0.4205 -0.1421  0.0199
19959TIP3    H181368   1.437   1.478   2.605 -0.7935 -1.9676  0.8647
19959TIP3    H281369   1.322   1.544   2.532  0.8911  0.7289  0.4797
19960TIP3   OH281370   0.771   4.334  16.963 -0.0504 -0.1204 -0.3573
19960TIP3    H181371   0.855   4.379  16.973 -0.8932  1.8403 -1.4186
19960TIP3    H281372   0.738   4.364  16.879 -2.3097  0.0975  0.5263
19961TIP3   OH281373   2.757   4.199   0.928  0.3356  0.3277 -0.2030
19961TIP3    H181374   2.766   4.105   0.942 -1.0366  0.2750  0.4960
19961TIP3    H281375   2.843   4.235   0.949  0.4792 -0.6169  0.9109
19962TIP3   OH281376   3.401   2.861   0.935  0.0389  0.2790  0.5587
19962TIP3    H181377   3.420   2.870   1.028  1.3361  0.0347  0.3426
19962TIP3    H281378   3.312   2.828   0.931  0.0947 -0.0457  1.7246
19963TIP3   OH281379   3.059   5.712   6.475 -0.1526 -0.2411 -0.2197
19963TIP3    H181380   3.018   5.788   6.515  0.0008  0.0924 -0.6907
19963TIP3    H281381   3.112   5.673   6.545  0.6468  0.7184 -0.2695
19964TIP3   OH281382   4.591   3.296  15.001 -0.2238  0.0501 -0.1194
19964TIP3    H181383   4.606   3.303  15.096  1.1708  0.4393 -0.3423
19964TIP3    H281384   4.600   3.386  14.969  0.3111 -0.2129 -0.7396
19965TIP3   OH281385   2.690   0.186   5.990  0.4162 -0.1764 -0.4263
19965TIP3    H181386   2.762   0.178   6.052 -0.6988  0.8279  1.0715
19965TIP3    H281387   2.714   0.261   5.935 -0.2201  1.2458  1.1657
19966TIP3   OH281388   3.514   5.759  16.229  0.9869  0.5677 -0.2778
19966TIP3    H181389   3.600   5.800  16.221  1.2452 -0.0420 -0.6249
19966TIP3    H281390   3.527   5.688  16.292  1.1217 -0.5321 -1.4937
19967TIP3   OH281391   6.227   5.342   0.489 -0.0508  0.4626  0.3206
19967TIP3    H181392   6.279   5.357   0.568  0.1040 -0.6931  0.4600
19967TIP3    H281393   6.286   5.295   0.430 -0.7271 -0.2956  0.2348
19968TIP3   OH281394   0.996   2.048   2.956  0.2450  0.2146  0.5693
19968TIP3    H181395   0.971   2.059   3.048  2.7013  0.6624  1.2505
19968TIP3    H281396   0.919   2.076   2.907 -0.7301  1.0678  2.4690
19969TIP3   OH281397   1.733   5.059  12.336  0.3642 -0.2361  0.1425
19969TIP3    H181398   1.804   5.049  12.273  0.5936 -0.1755  0.3919
19969TIP3    H281399   1.659   5.091  12.284  0.8128  0.6968  0.0510
19970TIP3   OH281400   2.075   3.486  14.106  0.1053  0.8193 -0.8052
19970TIP3    H181401   2.140   3.526  14.163  1.5076 -1.4404 -0.6746
19970TIP3    H281402   2.094   3.521  14.019  0.2279  1.6326 -0.4624
19971TIP3   OH281403   5.496   5.564   5.459 -0.4536  0.6361 -0.1397
19971TIP3    H181404   5.576   5.597   5.500  0.8516 -1.5502 -0.7912
19971TIP3    H281405   5.514   5.565   5.365  0.2469 -3.0395 -0.1842
19972TIP3   OH281406   2.276   3.448  16.907 -0.4791  0.4055  0.4109
19972TIP3    H181407   2.188   3.484  16.906 -0.3224  0.7941 -0.2803
19972TIP3    H281408   2.268   3.361  16.867 -0.3207  1.0393 -1.0668
19973TIP3   OH281409   1.151   0.377   3.921 -0.8324  0.2059 -0.0536
19973TIP3    H181410   1.063   0.370   3.885 -0.7007 -0.0851 -0.3169
19973TIP3    H281411   1.160   0.299   3.976  0.1228 -1.0328 -1.8900
19974TIP3   OH281412   2.847   5.863  13.135  0.0689  0.3109 -0.5549
19974TIP3    H181413   2.761   5.828  13.159 -0.4911  1.3174 -1.0273
19974TIP3    H281414   2.839   5.884  13.042  2.2535 -3.7014 -1.8871
19975TIP3   OH281415   2.705   3.153   3.221  0.1625 -0.1988  0.2705
19975TIP3    H181416   2.713   3.134   3.127 -1.8059  1.1952 -0.2377
19975TIP3    H281417   2.720   3.068   3.263 -0.6238 -1.2272 -1.4036
19976TIP3   OH281418   2.370   0.168   4.077 -0.0233  0.0744  0.7839
19976TIP3    H181419   2.360   0.233   4.146 -1.2391 -0.5543  1.2179
19976TIP3    H281420   2.401   0.089   4.121  0.0024 -0.0903  0.4790
19977TIP3   OH281421   0.407   4.734   1.467 -0.0050  0.0872 -0.2914
19977TIP3    H181422   0.420   4.706   1.376  0.0124  0.5171 -0.4230
19977TIP3    H281423   0.335   4.796   1.463 -0.4252 -0.3736  0.0833
19978TIP3   OH281424   1.130   3.234   1.764  0.3814  0.1271 -0.0937
19978TIP3    H181425   1.159   3.144   1.779 -0.2678 -0.3533 -1.5501
19978TIP3    H281426   1.072   3.229   1.687  1.1963  1.9407 -0.8992
19979TIP3   OH281427   4.237   5.889  16.356 -0.0109  0.2496  0.4742
19979TIP3    H181428   4.310   5.951  16.346  0.3483 -0.1760  0.4164
19979TIP3    H281429   4.272   5.821  16.413 -0.6258  0.4377  1.0809
19980TIP3   OH281430   6.250   0.902  15.455 -0.3006  0.8404 -0.1185
19980TIP3    H181431   6.157   0.899  15.431 -0.4311  1.4546  0.2562
19980TIP3    H281432   6.252   0.871  15.546 -0.3315  2.0753  0.3243
19981TIP3   OH281433   6.536   0.292   5.003 -0.1951 -0.3580  0.4161
19981TIP3    H181434   6.565   0.339   5.081  0.8889  1.0927 -0.8162
19981TIP3    H281435   6.594   0.216   4.999  0.1561 -0.1098  0.6891
19982TIP3   OH281436   4.980   1.980   0.025 -0.1577  0.0742  0.0750
19982TIP3    H181437   5.054   1.920   0.031  0.9107  1.1667 -1.3039
19982TIP3    H281438   4.904   1.927   0.048  1.1059 -0.8831  2.3476
19983TIP3   OH281439   6.154   5.749   1.688 -0.0272 -0.3072 -0.6575
19983TIP3    H181440   6.087   5.817   1.690 -0.2690 -0.4787  2.4806
19983TIP3    H281441   6.151   5.715   1.598 -1.8337  1.8909 -1.5242
19984TIP3   OH281442   3.350   6.539  13.424 -0.6908  0.7053  0.0350
19984TIP3    H181443   3.336   6.488  13.504 -2.2683  0.8868 -0.0885
19984TIP3    H281444   3.445   6.544  13.414 -0.4683  0.5212  1.8003
19985TIP3   OH281445   3.311   6.119  11.081 -0.5060 -0.3278  0.0364
19985TIP3    H181446   3.375   6.191  11.077 -1.5486  0.6294  0.0397
19985TIP3    H281447   3.297   6.104  11.174 -1.0004  0.1331  0.0418
19986TIP3   OH281448   4.505   3.485   3.224 -0.0590  0.1113  0.2339
19986TIP3    H181449   4.564   3.454   3.293 -1.1659 -0.3191  1.0149
19986TIP3    H281450   4.556   3.475   3.144  0.3031 -2.0849  0.6541
19987TIP3   OH281451   4.008   4.556   4.435 -0.0851 -0.0600 -0.0403
19987TIP3    H181452   4.088   4.513   4.405  0.3860 -0.3953  1.5990
19987TIP3    H281453   4.016   4.557   4.530 -2.6559 -1.3387  0.2689
19988TIP3   OH281454   5.152   3.822   3.478 -0.7640  0.3682 -0.2860
19988TIP3    H181455   5.181   3.745   3.526 -1.8520 -0.0519 -0.2785
19988TIP3    H281456   5.166   3.895   3.538 -0.9278  0.0083  0.1912
19989TIP3   OH281457   6.062   4.927  10.066  0.4804  0.3884 -0.1367
19989TIP3    H181458   5.986   4.894  10.115 -0.1786 -1.1295 -2.0285
19989TIP3    H281459   6.138   4.892  10.113  0.0435  1.6234  1.5756
19990TIP3   OH281460   1.161   4.801   2.263  0.7384  0.8554  0.0803
19990TIP3    H181461   1.126   4.748   2.192  1.4902  1.1667 -0.5497
19990TIP3    H281462   1.107   4.880   2.263  0.2755  0.5361  0.3334
19991TIP3   OH281463   1.106   5.828  17.058  0.6405  0.0680 -0.0625
19991TIP3    H181464   1.176   5.870  17.108  0.4716  2.3169 -1.5241
19991TIP3    H281465   1.133   5.838  16.967 -1.1402  0.2407 -0.6241
19992TIP3   OH281466   2.736   4.315   2.537 -1.0260 -0.8116 -0.0953
19992TIP3    H181467   2.783   4.388   2.577 -1.1123 -0.2046 -1.0693
19992TIP3    H281468   2.660   4.302   2.593 -0.0412 -1.4238  1.1685
19993TIP3   OH281469   5.021   5.067  13.769  0.1515 -0.1188 -0.4593
19993TIP3    H181470   5.035   5.010  13.694 -0.5395  0.1229 -0.7731
19993TIP3    H281471   4.976   5.144  13.734  1.4079  0.8216 -0.1249
19994TIP3   OH281472   0.468   2.227  13.927 -0.0150 -0.0032 -0.1504
19994TIP3    H181473   0.480   2.232  14.022  1.4642 -0.5387 -0.2784
19994TIP3    H281474   0.377   2.198  13.915  0.1237 -1.0415  1.1330
19995TIP3   OH281475   5.413   3.656  13.602 -0.2117  0.1399 -0.3304
19995TIP3    H181476   5.370   3.572  13.584  1.5591 -0.7978 -0.4057
19995TIP3    H281477   5.346   3.722  13.583 -1.6597 -1.2504 -0.2281
19996TIP3   OH281478   1.122   0.469  10.526  0.1926 -0.1553 -0.8712
19996TIP3    H181479   1.142   0.399  10.588 -1.6673  0.5094  0.5679
19996TIP3    H281480   1.182   0.540  10.550 -1.1461  0.4531  0.8898
19997TIP3   OH281481   5.036   3.708   4.216 -0.0104 -0.1006 -0.7264
19997TIP3    H181482   5.130   3.689   4.219  0.0648  0.2698 -0.5702
19997TIP3    H281483   4.997   3.632   4.174  0.4018 -0.1099 -1.1042
19998TIP3   OH281484   4.338   5.598  14.500  0.0220 -0.0647 -0.6511
19998TIP3    H181485   4.318   5.644  14.418 -1.8331  1.3553  0.5104
19998TIP3    H281486   4.276   5.525  14.502 -1.5155  1.1931  0.4411
19999TIP3   OH281487   4.460   5.289   0.383  0.0108 -0.4079  0.4549
19999TIP3    H181488   4.511   5.370   0.377 -2.6180  1.3722  0.1653
19999TIP3    H281489   4.417   5.294   0.469  0.0484 -1.6747  0.5652
20000TIP3   OH281490   3.232   1.997   1.640  0.3172 -0.1199 -0.7860
20000TIP3    H181491   3.282   1.960   1.714 -0.0022  1.7179  0.4008
20000TIP3    H281492   3.171   1.927   1.616 -1.3408  0.0424  2.3872
20001TIP3   OH281493   1.194   1.910   5.651 -0.3313  0.2585  0.2233
20001TIP3    H181494   1.242   1.845   5.702 -1.6871 -0.7019  0.3288
20001TIP3    H281495   1.106   1.909   5.687 -0.5044  1.8417 -0.0906
20002TIP3   OH281496   3.762   6.205   5.737 -0.0498  0.5546  0.3598
20002TIP3    H181497   3.704   6.177   5.666  0.5440 -0.0897  0.1121
20002TIP3    H281498   3.703   6.231   5.808 -0.6456  0.9143 -0.2575
20003TIP3   OH281499   5.858   0.966  16.575 -0.1737 -0.6051 -0.8096
20003TIP3    H181500   5.789   1.020  16.535 -0.1856 -0.5335 -0.6949
20003TIP3    H281501   5.928   0.965  16.510  0.6082  1.1261 -0.0540
20004TIP3   OH281502   6.453   3.260  14.908 -0.5222  0.5718  0.2918
20004TIP3    H181503   6.400   3.291  14.982 -1.0455  1.0855 -0.2893
20004TIP3    H281504   6.427   3.316  14.835  1.0412  1.0398  0.0600
20005TIP3   OH281505   3.308   0.947   0.071  0.0483 -0.2459  0.5186
20005TIP3    H181506   3.237   0.917   0.014  1.5833 -0.3538 -1.4310
20005TIP3    H281507   3.327   0.872   0.127  0.4779 -1.2147 -0.8731
20006TIP3   OH281508   5.495   4.634  10.746 -0.4432 -0.0605  0.0631
20006TIP3    H181509   5.469   4.616  10.656 -0.7606 -2.7432  0.5900
20006TIP3    H281510   5.420   4.681  10.784 -1.5270 -1.3653 -0.3694
20007TIP3   OH281511   1.187   3.388  16.259  0.0807  0.0409 -0.2612
20007TIP3    H181512   1.180   3.327  16.185 -0.7341 -1.1713  0.7832
20007TIP3    H281513   1.170   3.474  16.220 -0.2884 -0.5593 -1.4904
20008TIP3   OH281514   3.375   4.428   6.171  0.5452  0.4363 -0.0284
20008TIP3    H181515   3.453   4.377   6.147  1.0365  0.2740  1.7759
20008TIP3    H281516   3.405   4.519   6.167  0.9662  0.3589  1.0307
20009TIP3   OH281517   6.315   4.267   4.014  0.0313 -0.2171  0.7898
20009TIP3    H181518   6.407   4.242   4.028 -0.4050 -1.5785  1.3766
20009TIP3    H281519   6.312   4.293   3.921  0.6427 -1.9677  0.2399
20010TIP3   OH281520   3.078   6.228   2.600  0.0724  0.2819 -0.0656
20010TIP3    H181521   2.987   6.207   2.579  0.8150 -0.6972 -2.6292
20010TIP3    H281522   3.086   6.322   2.586 -0.3352  0.2240 -0.6832
20011TIP3   OH281523   4.966   5.468   5.270 -0.1254 -0.6563 -0.0827
20011TIP3    H181524   5.020   5.522   5.327  0.3633 -0.4769 -0.7056
20011TIP3    H281525   4.887   5.449   5.322  0.4572 -0.7861  0.7674
20012TIP3   OH281526   1.213   0.752   4.329 -0.5483  0.0516 -0.1905
20012TIP3    H181527   1.237   0.697   4.254  1.8741 -0.7123  1.0472
20012TIP3    H281528   1.279   0.821   4.330 -0.2095 -0.2702  1.5423
20013TIP3   OH281529   0.768   0.526   4.459  0.4775 -0.0310  0.0104
20013TIP3    H181530   0.825   0.603   4.453 -0.6844  0.9802  1.2399
20013TIP3    H281531   0.725   0.521   4.373  1.0837  0.2637 -0.3157
20014TIP3   OH281532   0.965   4.210   6.032 -0.1338 -0.0029 -0.6380
20014TIP3    H181533   0.913   4.186   5.954 -0.0855 -0.1584 -0.6221
20014TIP3    H281534   1.052   4.174   6.015  0.9349  2.9568 -2.1315
20015TIP3   OH281535   0.345   1.222   3.067 -0.3056 -0.2118  0.3721
20015TIP3    H181536   0.414   1.265   3.015 -0.7893  1.8917  1.3367
20015TIP3    H281537   0.349   1.130   3.041  2.3870 -0.0417 -0.1133
20016TIP3   OH281538   2.414   3.289   0.715  0.9424  0.0113 -1.0588
20016TIP3    H181539   2.429   3.290   0.621  0.2811 -1.2370 -1.2098
20016TIP3    H281540   2.336   3.343   0.728  0.0722 -1.0883 -1.4626
20017TIP3   OH281541   2.432   3.225  15.204 -0.5013 -0.1581  0.4537
20017TIP3    H181542   2.473   3.310  15.186  1.5962 -1.0306  0.7273
20017TIP3    H281543   2.463   3.203  15.292  1.5522 -2.5321 -0.7519
20018TIP3   OH281544   6.103   2.123  15.677  0.1684  0.2327 -0.0787
20018TIP3    H181545   6.060   2.087  15.754 -2.2656 -0.3161 -1.5825
20018TIP3    H281546   6.188   2.079  15.673  0.0973 -0.1586  1.9100
20019TIP3   OH281547   2.598   5.749  13.840 -0.0802  0.8333  0.0484
20019TIP3    H181548   2.531   5.741  13.772  0.3677 -0.0833 -0.2965
20019TIP3    H281549   2.573   5.685  13.907 -0.3729  1.5461  0.6340
20020TIP3   OH281550   4.475   0.972  15.938  0.3913  0.3630 -0.4081
20020TIP3    H181551   4.559   1.014  15.918  0.9809 -0.9856 -0.8788
20020TIP3    H281552   4.422   1.042  15.976  0.9635  1.8039 -2.0994
20021TIP3   OH281553   3.158   0.861  13.525  0.1814  0.7288  0.2442
20021TIP3    H181554   3.225   0.928  13.519  0.9460 -0.0037  0.4835
20021TIP3    H281555   3.157   0.836  13.618 -0.0510  0.3560  0.1452
20022TIP3   OH281556   5.239   2.926   1.604  0.0960  0.2343 -0.4273
20022TIP3    H181557   5.263   2.890   1.689  2.0583  1.1416 -0.5198
20022TIP3    H281558   5.190   3.005   1.624  0.7452  0.5658 -0.1029
20023TIP3   OH281559   0.382   6.366  15.845  0.3552 -0.1821 -0.1141
20023TIP3    H181560   0.454   6.308  15.870 -1.4564 -1.7046  1.9859
20023TIP3    H281561   0.303   6.314  15.859 -1.3285  2.4005  0.8070
20024TIP3   OH281562   4.257   4.399   3.358  0.2710 -0.5294  0.0026
20024TIP3    H181563   4.299   4.457   3.422 -0.7902  0.4359 -0.1317
20024TIP3    H281564   4.211   4.459   3.299 -0.1764 -1.4917 -0.6457
20025TIP3   OH281565   2.468   1.325   4.548  0.1296  0.0008  0.1469
20025TIP3    H181566   2.402   1.354   4.611 -1.6725 -1.4632 -0.9937
20025TIP3    H281567   2.494   1.238   4.578  0.9817  0.2429  0.1423
20026TIP3   OH281568   1.644   3.542  11.310  0.2821  0.6573 -0.1185
20026TIP3    H181569   1.557   3.558  11.347  0.4104  0.4071  0.2921
20026TIP3    H281570   1.627   3.520  11.219 -0.0484  1.1145 -0.1744
20027TIP3   OH281571   4.244   1.494   1.179  0.2501 -0.1429  0.0781
20027TIP3    H181572   4.180   1.422   1.180  0.5105 -0.3719  0.4973
20027TIP3    H281573   4.204   1.562   1.232 -0.1814  0.1896 -0.6612
20028TIP3   OH281574   5.664   1.419  16.068  0.3884  0.4105 -0.1340
20028TIP3    H181575   5.711   1.366  16.004  1.1446  2.2862 -1.2438
20028TIP3    H281576   5.572   1.392  16.060  0.6727 -0.3247 -1.0471
20029TIP3   OH281577   0.615   3.003   4.132  0.1646 -0.0522 -0.1710
20029TIP3    H181578   0.641   3.094   4.115  0.1202 -0.0923 -0.4526
20029TIP3    H281579   0.566   3.008   4.214  0.3710  0.1423 -0.0564
20030TIP3   OH281580   3.519   0.503   3.343 -0.2546 -0.7078  0.8023
20030TIP3    H181581   3.467   0.540   3.271  0.0861 -2.3920 -0.3556
20030TIP3    H281582   3.453   0.478   3.409 -0.7168 -0.6346  0.3777
20031TIP3   OH281583   4.099   0.526  15.394  0.0060  0.3247  0.5206
20031TIP3    H181584   4.118   0.463  15.325 -0.2082 -0.2338  0.9638
20031TIP3    H281585   4.157   0.599  15.376  0.7219 -0.2699  0.3792
20032TIP3   OH281586   4.928   0.040   2.222 -0.0514 -0.3882 -0.1123
20032TIP3    H181587   5.010  -0.003   2.246  1.7206  2.4671 -0.7044
20032TIP3    H281588   4.927   0.040   2.126  0.3700  1.4583 -0.1491
20033TIP3   OH281589   0.133   5.909   2.020 -0.2074 -0.6041  0.0633
20033TIP3    H181590   0.063   5.861   1.975  0.0625 -0.7966 -0.1540
20033TIP3    H281591   0.164   5.972   1.955 -0.7396  0.0604  0.4325
20034TIP3   OH281592   0.254   5.916  13.831  0.5027  0.2848  0.3800
20034TIP3    H181593   0.176   5.967  13.851  1.4622  2.4492 -1.0672
20034TIP3    H281594   0.239   5.883  13.743  0.8451 -0.1111  0.4658
20035TIP3   OH281595   4.300   5.664  13.460  0.1328  0.3414  0.4978
20035TIP3    H181596   4.272   5.620  13.379  0.6192  0.7506  0.0954
20035TIP3    H281597   4.219   5.683  13.506 -0.0811 -1.5636  1.0141
20036TIP3   OH281598   0.710   3.992   0.403 -0.1363 -0.4019 -0.2911
20036TIP3    H181599   0.793   3.997   0.451 -0.5725 -2.2118  0.7423
20036TIP3    H281600   0.657   4.062   0.440  1.3324  1.6866 -1.9149
20037TIP3   OH281601   3.059   3.404   1.401  0.7804 -0.0243  0.1464
20037TIP3    H181602   3.033   3.403   1.493 -0.9786  0.3527 -0.3196
20037TIP3    H281603   3.088   3.315   1.383  1.2629 -0.0686  1.0908
20038TIP3   OH281604   2.028   4.511   1.159 -0.1768 -0.3766  0.1357
20038TIP3    H181605   2.012   4.571   1.231  0.9418 -0.3588  0.3872
20038TIP3    H281606   2.007   4.561   1.080 -1.6689 -0.4861  0.4302
20039TIP3   OH281607   0.015   6.625  12.916 -0.7139 -0.3060 -0.4671
20039TIP3    H181608  -0.036   6.655  12.840  0.0332 -0.4562 -1.0366
20039TIP3    H281609  -0.013   6.535  12.929 -0.1215 -0.6063 -1.2009
20040TIP3   OH281610   1.997   3.962   4.052  0.0534  0.4723  0.3053
20040TIP3    H181611   2.068   3.967   4.116  0.0165 -3.1613  0.8269
20040TIP3    H281612   2.028   4.012   3.977  2.2029  0.8029  1.3581
20041TIP3   OH281613   1.534   4.587  11.906 -0.6698 -0.1941 -0.2388
20041TIP3    H181614   1.498   4.505  11.871 -0.4652 -0.9989  1.3239
20041TIP3    H281615   1.612   4.603  11.854 -0.9921 -0.7249 -0.8994
20042TIP3   OH281616   4.221   3.319   3.297 -0.1512 -0.1374  0.6237
20042TIP3    H181617   4.246   3.405   3.263  1.0885 -0.9495 -0.6360
20042TIP3    H281618   4.148   3.337   3.356 -0.4120  1.6996 -0.1848
20043TIP3   OH281619   3.805   6.270   5.307  0.1888  0.4924  0.3310
20043TIP3    H181620   3.888   6.293   5.264  0.7958  0.4303  1.4379
20043TIP3    H281621   3.825   6.192   5.359 -1.2086 -1.0723 -1.3424
20044TIP3   OH281622   5.917   6.490  14.527  0.7910 -0.3566 -0.1856
20044TIP3    H181623   5.845   6.457  14.580  0.2536  0.2952 -0.4999
20044TIP3    H281624   5.894   6.466  14.437  0.1992  1.1398 -0.4735
20045TIP3   OH281625   0.268   2.738  11.811  0.2242  0.6984 -0.1373
20045TIP3    H181626   0.329   2.682  11.859  0.5158 -0.7693 -2.0865
20045TIP3    H281627   0.318   2.816  11.788 -0.1441  1.8196  2.4952
20046TIP3   OH281628   1.485   2.341   0.369  0.1442 -0.2269 -0.2885
20046TIP3    H181629   1.521   2.323   0.456 -1.9982 -0.8646  0.5388
20046TIP3    H281630   1.459   2.255   0.336  2.2259 -0.2037 -2.2565
20047TIP3   OH281631   3.671   5.995  10.526 -0.6842 -0.1136 -0.0027
20047TIP3    H181632   3.622   5.926  10.482 -3.2039  0.6905  1.3166
20047TIP3    H281633   3.636   5.996  10.615  1.1212  1.1721  0.7460
20048TIP3   OH281634   3.696   0.267   5.054  0.1404 -0.3222  0.1518
20048TIP3    H181635   3.644   0.340   5.087 -1.3692 -1.6542  0.8525
20048TIP3    H281636   3.787   0.293   5.069 -0.4122  0.4826  2.4685
20049TIP3   OH281637   4.074   1.073  16.975  0.0147 -0.1934 -0.3447
20049TIP3    H181638   4.124   1.105  17.050 -0.1626 -1.4087  0.3126
20049TIP3    H281639   3.984   1.100  16.993  0.2952  1.4711 -1.2396
20050TIP3   OH281640   2.198   2.670   4.173 -0.1913  0.0375  0.3474
20050TIP3    H181641   2.199   2.764   4.156  0.2702 -0.2855 -1.6164
20050TIP3    H281642   2.213   2.629   4.088 -1.0309 -1.8475  1.0352
20051TIP3   OH281643   3.218   6.763  16.154 -0.2408  0.0263 -0.4280
20051TIP3    H181644   3.269   6.807  16.222 -0.0413 -1.0092  0.1183
20051TIP3    H281645   3.136   6.811  16.150  0.2033  0.8100 -0.2783
20052TIP3   OH281646   6.854   5.467  16.280  0.6097  0.0087  0.0496
20052TIP3    H181647   6.883   5.394  16.335  0.5161  0.1294  0.2560
20052TIP3    H281648   6.935   5.512  16.254  0.5502  1.0635  1.5990
20053TIP3   OH281649   3.109   1.290   2.993 -0.2232 -0.4135  0.7864
20053TIP3    H181650   3.115   1.262   2.902  0.9828  0.2870  0.6303
20053TIP3    H281651   3.115   1.209   3.044 -0.9590 -0.8113  0.2556
20054TIP3   OH281652   6.773   4.855   2.521 -0.1109 -0.0180 -0.1092
20054TIP3    H181653   6.705   4.789   2.505  0.4563 -0.7710  0.5113
20054TIP3    H281654   6.817   4.825   2.600 -0.5521  1.7047  0.8498
20055TIP3   OH281655   3.301   4.433   1.964 -0.0562  0.4315  0.2681
20055TIP3    H181656   3.268   4.420   1.875 -0.1194  0.2536  0.3164
20055TIP3    H281657   3.392   4.460   1.953 -0.2147  0.9066  0.1346
20056TIP3   OH281658   3.715   4.323  10.917 -0.7243  0.5769  0.5203
20056TIP3    H181659   3.783   4.301  10.853 -0.6663  0.1371  0.7341
20056TIP3    H281660   3.647   4.366  10.865 -1.9270 -2.1327 -0.3414
20057TIP3   OH281661   6.576   4.826   5.219 -0.1142  0.1217 -0.3281
20057TIP3    H181662   6.497   4.806   5.270  0.7081  2.0192  1.8606
20057TIP3    H281663   6.609   4.740   5.191 -0.7908 -1.0177  2.1060
20058TIP3   OH281664   2.732   2.871  15.567  0.1890 -0.4760  0.0888
20058TIP3    H181665   2.673   2.931  15.613 -0.4690 -1.7235  0.9272
20058TIP3    H281666   2.704   2.784  15.595  0.3120 -1.2677 -2.0377
20059TIP3   OH281667   5.033   5.155  13.410  0.0033 -0.2271 -0.5333
20059TIP3    H181668   5.063   5.246  13.409 -0.4615 -0.0384  0.6994
20059TIP3    H281669   5.007   5.137  13.319 -1.4243  1.3972 -0.4898
20060TIP3   OH281670   3.462   4.216   4.778 -0.0282  0.2733  0.0693
20060TIP3    H181671   3.450   4.137   4.830 -1.3650  0.6646  0.4172
20060TIP3    H281672   3.417   4.196   4.695 -1.0217  0.8963  0.4344
20061TIP3   OH281673   3.108   1.630   1.626  0.4942  0.1340  0.0309
20061TIP3    H181674   3.020   1.592   1.629  1.2648 -1.9340 -1.1207
20061TIP3    H281675   3.112   1.688   1.702 -1.4853 -0.5620  0.7338
20062TIP3   OH281676   2.110   4.615   1.922  0.8757 -0.0877 -0.5161
20062TIP3    H181677   2.056   4.549   1.878 -1.0075  2.4915 -2.4214
20062TIP3    H281678   2.173   4.643   1.856  1.3035  0.3807  0.0782
20063TIP3   OH281679   3.255   5.398   3.971  0.3204  0.3231  0.2944
20063TIP3    H181680   3.274   5.306   3.991  1.3566  0.6457  0.8896
20063TIP3    H281681   3.336   5.431   3.931 -0.9648  0.2711 -2.5745
20064TIP3   OH281682   1.536   0.696   6.026  0.1188  0.0080 -0.0679
20064TIP3    H181683   1.506   0.737   6.107 -0.5320 -0.4380 -0.0758
20064TIP3    H281684   1.505   0.606   6.032  0.1569 -0.0562 -0.7632
20065TIP3   OH281685   2.760   3.233  13.347 -0.3655  0.0812 -0.8387
20065TIP3    H181686   2.800   3.318  13.362  0.8004 -0.7889  1.6256
20065TIP3    H281687   2.833   3.176  13.322 -0.1180 -1.1675  2.1716
20066TIP3   OH281688   1.163   0.935  12.779  0.1084 -0.4131  0.1540
20066TIP3    H181689   1.113   0.911  12.700 -1.9621  1.0354  0.9119
20066TIP3    H281690   1.193   0.852  12.814 -0.9257 -1.2926 -0.9279
20067TIP3   OH281691   4.292   5.265  12.980  0.3155 -0.0941 -0.3219
20067TIP3    H181692   4.319   5.178  13.009 -1.9472 -0.4290  0.9765
20067TIP3    H281693   4.215   5.285  13.032  0.3221  2.3958 -1.1369
20068TIP3   OH281694   3.009   4.585   1.547 -0.3567  0.7144  0.2976
20068TIP3    H181695   2.983   4.618   1.633 -0.7616 -0.7761  0.7748
20068TIP3    H281696   2.987   4.656   1.487 -2.1645  0.9516  1.1560
20069TIP3   OH281697   2.341   3.359   3.232  0.3530 -0.2840 -0.1017
20069TIP3    H181698   2.322   3.447   3.198  0.3530  0.6837  2.2208
20069TIP3    H281699   2.306   3.359   3.321  1.2989 -2.2935  0.3318
20070TIP3   OH281700   1.107   1.230   4.017 -0.0844 -0.1490  0.5122
20070TIP3    H181701   1.091   1.233   4.111  0.7583  0.1681  0.6571
20070TIP3    H281702   1.084   1.141   3.991 -0.2665 -0.2537  1.0275
20071TIP3   OH281703   3.988   3.702  14.486 -0.1630 -0.4811  0.1445
20071TIP3    H181704   3.948   3.786  14.465 -0.7534  0.0234  2.9655
20071TIP3    H281705   4.081   3.715  14.471  0.0961  1.5570  2.8190
20072TIP3   OH281706   1.918   4.002   2.484 -0.1083  0.2306  0.1252
20072TIP3    H181707   1.950   4.092   2.478  0.5750 -0.0849 -2.1887
20072TIP3    H281708   1.994   3.947   2.465 -0.0868 -1.0061  3.2410
20073TIP3   OH281709   6.025   5.262  15.474 -0.2804  0.5327 -0.1182
20073TIP3    H181710   5.935   5.271  15.442 -0.6751 -0.0918  0.7799
20073TIP3    H281711   6.071   5.338  15.438 -1.1927  0.9228 -0.4845
20074TIP3   OH281712   6.096   0.632  15.871  0.0850 -0.3448  0.9091
20074TIP3    H181713   6.100   0.537  15.869 -2.0386 -0.4701 -0.7453
20074TIP3    H281714   6.022   0.652  15.929 -0.3399  0.2370  0.1854
20075TIP3   OH281715   1.865   1.131  16.593 -0.2019  0.4994  0.0963
20075TIP3    H181716   1.806   1.074  16.543  0.8603 -0.5633 -0.0115
20075TIP3    H281717   1.906   1.186  16.527 -0.1301  0.3476  0.0133
20076TIP3   OH281718   0.997   2.075   1.708 -0.2628  0.0514 -0.2463
20076TIP3    H181719   1.042   1.993   1.724  1.1001  0.5439 -1.3717
20076TIP3    H281720   1.035   2.136   1.771 -1.0473 -0.0703  0.3714
20077TIP3   OH281721   2.902   1.003   4.947  0.2692 -0.5237  0.1598
20077TIP3    H181722   2.923   1.094   4.968  0.1023  0.0463 -1.9167
20077TIP3    H281723   2.814   1.007   4.909  0.6516 -1.4098 -0.8559
20078TIP3   OH281724   2.707   4.483   5.597  0.5059 -0.0277  0.1641
20078TIP3    H181725   2.663   4.528   5.670  0.4653 -1.8472  1.3311
20078TIP3    H281726   2.800   4.503   5.608  0.5154 -0.4163  0.8139
20079TIP3   OH281727   2.122   2.237  16.657  0.3319  0.1505 -0.1808
20079TIP3    H181728   2.198   2.181  16.651  0.9001  0.6145  2.0219
20079TIP3    H281729   2.157   2.326  16.662 -0.4472  0.5201 -0.8033
20080TIP3   OH281730   2.603   3.447  16.460  0.2352  0.3178  0.4086
20080TIP3    H181731   2.509   3.467  16.460  0.3533  0.9122  0.5266
20080TIP3    H281732   2.614   3.384  16.531  0.1223  1.2797  1.3089
20081TIP3   OH281733   2.832   3.844   3.198  0.3606  0.3058 -0.7615
20081TIP3    H181734   2.884   3.917   3.231  1.4274 -1.1862  0.9984
20081TIP3    H281735   2.742   3.877   3.197  0.5471  1.0783  1.8387
20082TIP3   OH281736   4.431   3.493  15.649 -0.0175 -0.8361 -0.0034
20082TIP3    H181737   4.501   3.462  15.707 -0.5893 -1.2170  0.4848
20082TIP3    H281738   4.355   3.503  15.706 -0.2959 -0.1680 -0.4863
20083TIP3   OH281739   6.198   0.378   6.461 -0.0287 -0.6952  0.7828
20083TIP3    H181740   6.107   0.407   6.466  0.2849  0.4540  0.2072
20083TIP3    H281741   6.197   0.289   6.495 -1.3178 -0.5886  1.0631
20084TIP3   OH281742   6.747   6.671   5.905  0.4862  0.1047 -0.2718
20084TIP3    H181743   6.752   6.759   5.866 -1.4955  1.0355  1.3554
20084TIP3    H281744   6.770   6.685   5.997  1.0022 -1.2546 -0.1796
20085TIP3   OH281745   2.244   1.233  12.608 -0.0792 -0.3173  0.3078
20085TIP3    H181746   2.210   1.154  12.650 -1.9664 -0.3901 -1.1768
20085TIP3    H281747   2.166   1.284  12.587  1.1140  2.2931  1.7475
20086TIP3   OH281748   1.703   5.956  13.028 -0.3357  0.1530  0.0409
20086TIP3    H181749   1.768   5.888  13.041  0.3728  0.7284 -0.4498
20086TIP3    H281750   1.621   5.917  13.060  0.2457 -0.5527  0.7180
20087TIP3   OH281751   4.110   1.457   2.816  0.4572  0.1023 -0.3313
20087TIP3    H181752   4.080   1.538   2.858  0.2132  1.0020 -2.1312
20087TIP3    H281753   4.031   1.420   2.777  0.6135 -0.9022  0.2590
20088TIP3   OH281754   0.562   5.403  16.511  0.0311 -0.1657 -0.1539
20088TIP3    H181755   0.628   5.341  16.481  1.0779  1.0801 -0.5316
20088TIP3    H281756   0.609   5.462  16.570 -0.9536  0.2038  0.2846
20089TIP3   OH281757   3.510   4.077  10.534 -0.5574 -0.2104 -0.0968
20089TIP3    H181758   3.500   3.993  10.489 -0.9425 -1.0749  1.5247
20089TIP3    H281759   3.421   4.110  10.542 -0.3494  0.7793 -1.4143
20090TIP3   OH281760   4.328   2.911   4.583 -0.3730  0.0177  0.1659
20090TIP3    H181761   4.301   2.862   4.660 -1.3081 -0.3420 -0.3790
20090TIP3    H281762   4.250   2.916   4.528  0.3627 -0.0488 -0.9274
20091TIP3   OH281763   6.302   6.599   5.235  0.0628 -0.3719  0.2554
20091TIP3    H181764   6.352   6.655   5.176  2.1489 -0.7255  1.5607
20091TIP3    H281765   6.264   6.532   5.178  0.4207  0.3945 -0.9096
20092TIP3   OH281766   0.803   5.311   2.581  0.1409  0.2742 -0.2072
20092TIP3    H181767   0.824   5.239   2.522  0.1186  0.0073  0.1046
20092TIP3    H281768   0.720   5.345   2.549  0.0088 -0.0256 -0.1868
20093TIP3   OH281769   0.019   5.108   2.289  0.2349  0.0681 -0.1578
20093TIP3    H181770   0.016   5.154   2.372 -1.3967  0.1366 -0.2307
20093TIP3    H281771   0.090   5.150   2.241  0.9127  0.3115  1.0167
20094TIP3   OH281772   5.437   0.909  16.727 -0.3867  0.2647 -0.5728
20094TIP3    H181773   5.412   1.001  16.726 -3.1253 -0.3453 -2.9461
20094TIP3    H281774   5.496   0.899  16.652  0.1361  0.1285 -0.1489
20095TIP3   OH281775   0.861   0.670  12.082 -0.0993 -0.4262  0.1120
20095TIP3    H181776   0.846   0.763  12.064  1.9678  0.1975  1.2991
20095TIP3    H281777   0.821   0.625  12.007 -0.4043  1.4492 -0.9241
20096TIP3   OH281778   4.680   0.849  15.185 -0.4634 -0.2743  0.2203
20096TIP3    H181779   4.629   0.785  15.135  0.7192 -0.8765 -0.2779
20096TIP3    H281780   4.616   0.912  15.217 -1.6495 -1.5780  0.5270
20097TIP3   OH281781   1.683   4.810   5.062  0.2891  0.8553 -0.0702
20097TIP3    H181782   1.603   4.825   5.112  0.5760  0.6915  0.4442
20097TIP3    H281783   1.660   4.740   5.001  0.4210 -0.1507  1.0022
20098TIP3   OH281784   0.350   1.988  17.071  0.1613 -0.2540 -0.8005
20098TIP3    H181785   0.376   1.985  17.163  2.3420  0.4030 -1.3429
20098TIP3    H281786   0.290   2.063  17.065 -0.0113 -0.3165  0.0656
20099TIP3   OH281787   2.748   6.566   0.116  0.2964  0.2914 -0.1173
20099TIP3    H181788   2.779   6.629   0.182 -0.2798 -0.3194  0.7615
20099TIP3    H281789   2.739   6.618   0.036  3.7804  0.4709 -0.5490
20100TIP3   OH281790   4.918   2.682  16.206 -0.1872  0.4729 -0.1955
20100TIP3    H181791   4.860   2.616  16.245  0.1908  0.4689  0.3676
20100TIP3    H281792   4.974   2.632  16.146  3.5442 -0.7426  3.7773
20101TIP3   OH281793   0.516   6.031  11.478 -0.2697  0.0317 -0.4681
20101TIP3    H181794   0.486   6.030  11.569 -2.4950 -0.5110 -1.1513
20101TIP3    H281795   0.576   5.958  11.472 -0.6300 -0.3567  0.4129
20102TIP3   OH281796   1.378   1.960   4.613 -0.2781  0.2350  0.4768
20102TIP3    H181797   1.335   1.892   4.560 -0.5200  0.3552  0.5172
20102TIP3    H281798   1.347   1.944   4.702 -1.9110  1.6109  0.1907
20103TIP3   OH281799   5.705   2.654  16.674 -0.0195  0.2309 -0.1541
20103TIP3    H181800   5.678   2.619  16.589 -0.7886 -1.2055  0.6314
20103TIP3    H281801   5.740   2.578  16.720  1.4822  1.2269  0.4096
20104TIP3   OH281802   0.087   2.538  12.714  0.2905  0.2044  0.9712
20104TIP3    H181803   0.092   2.465  12.652 -0.6247  0.4731  0.5601
20104TIP3    H281804   0.155   2.520  12.778  0.0431 -1.0429  0.9046
20105TIP3   OH281805   6.684   6.239   0.700 -0.3245  0.6394  0.1309
20105TIP3    H181806   6.761   6.186   0.718 -0.8168 -0.1058  0.0960
20105TIP3    H281807   6.718   6.321   0.666  0.4331  0.0973 -0.4352
20106TIP3   OH281808   3.773   0.058   3.450 -0.2146 -0.6771  0.0358
20106TIP3    H181809   3.731   0.067   3.364  0.4278 -0.4315 -0.2558
20106TIP3    H281810   3.736   0.130   3.501 -0.1274 -0.4397 -0.2298
20107TIP3   OH281811   0.260   4.992  11.686  0.1723 -0.0803 -0.3451
20107TIP3    H181812   0.195   5.060  11.668 -0.3821 -0.8874 -1.5053
20107TIP3    H281813   0.305   5.023  11.765  0.9351  2.3538 -1.6179
20108TIP3   OH281814   5.406   0.540   4.144  0.0596  0.2694  0.2642
20108TIP3    H181815   5.449   0.461   4.177  0.7597  0.4769 -0.1314
20108TIP3    H281816   5.451   0.612   4.188 -1.7597  0.4305  2.0193
20109TIP3   OH281817   5.558   3.657  15.033  0.1234  0.5848  0.1635
20109TIP3    H181818   5.477   3.627  14.992 -0.4871  0.0036  1.7259
20109TIP3    H281819   5.564   3.750  15.009 -0.1773  0.2753 -1.2238
20110TIP3   OH281820   4.858   3.260   1.353 -0.3675  0.0848 -0.0635
20110TIP3    H181821   4.783   3.315   1.333  0.3987  0.4920 -2.0647
20110TIP3    H281822   4.826   3.171   1.338 -0.9166  0.1258  0.7895
20111TIP3   OH281823   1.666   0.393   2.031 -0.2550  0.3668 -0.2693
20111TIP3    H181824   1.678   0.480   1.992 -0.8769  0.7274  0.3226
20111TIP3    H281825   1.648   0.411   2.123 -0.9569 -0.3746 -0.2566
20112TIP3   OH281826   5.033   2.786   4.163  0.3496 -0.0879 -0.3501
20112TIP3    H181827   4.971   2.859   4.168  0.0707 -0.4009  1.0371
20112TIP3    H281828   4.986   2.718   4.114 -1.4697 -1.2735  2.7670
20113TIP3   OH281829   4.277   3.748  13.427  0.2808  0.1002 -0.3916
20113TIP3    H181830   4.355   3.699  13.401  0.8363  0.4149  0.6135
20113TIP3    H281831   4.212   3.729  13.359  1.6131  0.7927 -1.9379
20114TIP3   OH281832   5.807   6.737   4.098 -0.1243 -0.0834  0.0551
20114TIP3    H181833   5.729   6.690   4.127  0.9683 -1.3224  1.1294
20114TIP3    H281834   5.861   6.744   4.176  0.6961  1.1009 -0.5805
20115TIP3   OH281835   6.147   6.642   3.627 -0.2129  0.0757 -0.0082
20115TIP3    H181836   6.077   6.694   3.665  1.5095  1.1906  1.7966
20115TIP3    H281837   6.226   6.694   3.639  0.8774 -0.7198 -2.7817
20116TIP3   OH281838   3.515   4.207   3.090  0.0466 -0.2390 -0.3829
20116TIP3    H181839   3.494   4.293   3.054  2.9678  0.2191 -1.3043
20116TIP3    H281840   3.544   4.225   3.180  1.5461 -0.0671 -0.8707
20117TIP3   OH281841   5.870   0.751   1.198 -0.0163  0.0028  0.5426
20117TIP3    H181842   5.835   0.789   1.118  1.7121  0.6311  0.0503
20117TIP3    H281843   5.957   0.721   1.175  0.5946  0.3448  2.2346
20118TIP3   OH281844   6.483   0.701  13.969 -0.3215  0.2560 -0.1024
20118TIP3    H181845   6.537   0.764  13.920 -0.1677  1.6405  1.7475
20118TIP3    H281846   6.394   0.719  13.942 -0.1594  0.2961 -0.6224
20119TIP3   OH281847   6.830   6.851  14.500  0.7939 -0.6427 -0.2786
20119TIP3    H181848   6.859   6.778  14.446  0.5757 -0.8989 -0.0525
20119TIP3    H281849   6.777   6.811  14.569  2.0000 -0.4363  0.7963
20120TIP3   OH281850   5.233   3.011  13.874  0.2966 -0.8374  0.4927
20120TIP3    H181851   5.325   3.030  13.888 -0.2721  2.4731  0.4040
20120TIP3    H281852   5.193   3.017  13.961 -0.1600  0.0789  0.2337
20121TIP3   OH281853   1.980   0.125  15.312  0.1098 -0.1254  0.1322
20121TIP3    H181854   2.014   0.084  15.392 -2.1953 -2.2854  0.1526
20121TIP3    H281855   1.921   0.193  15.344 -2.1965 -2.1351  0.4916
20122TIP3   OH281856   1.027   6.592  11.370  0.0666  0.2463  0.7261
20122TIP3    H181857   0.954   6.623  11.422 -1.1391 -2.0468  0.5391
20122TIP3    H281858   1.017   6.636  11.285 -2.1691 -1.2606  0.1223
20123TIP3   OH281859   2.933   1.722  13.443 -0.3948  0.1108 -0.2541
20123TIP3    H181860   3.003   1.723  13.378 -1.5902  0.2155 -1.5915
20123TIP3    H281861   2.870   1.787  13.412 -1.0687  0.0583  0.9345
20124TIP3   OH281862   3.797   6.417   4.107  0.4085 -0.5854 -0.3036
20124TIP3    H181863   3.751   6.358   4.167  2.0230  0.7188  2.4258
20124TIP3    H281864   3.769   6.389   4.020 -2.1580 -2.5656  1.0036
20125TIP3   OH281865   4.964   2.209  14.057  0.3783  0.2930 -0.3044
20125TIP3    H181866   4.886   2.262  14.075  1.0061  1.2025 -0.1562
20125TIP3    H281867   4.936   2.119  14.073 -0.4971  0.6468  0.2700
20126TIP3   OH281868   6.721   1.121   2.820  0.2801 -0.2794 -0.1592
20126TIP3    H181869   6.770   1.147   2.897 -0.9744 -0.0422  0.5879
20126TIP3    H281870   6.750   1.182   2.752  0.9073 -0.0577  0.2979
20127TIP3   OH281871   0.855   1.590   0.806  0.1079  0.1007 -0.2694
20127TIP3    H181872   0.839   1.680   0.777  0.4707  0.4506  0.5685
20127TIP3    H281873   0.868   1.540   0.725  0.3445  0.8928 -0.7314
20128TIP3   OH281874   2.265   6.255   4.625 -0.4446  0.6606 -0.1266
20128TIP3    H181875   2.218   6.291   4.700 -1.8144 -0.8418 -0.2343
20128TIP3    H281876   2.348   6.303   4.624  0.2617 -0.2386  3.2149
20129TIP3   OH281877   4.137   6.050   4.024  0.1192 -0.4145  0.0538
20129TIP3    H181878   4.101   5.964   4.047  1.3738 -0.6241  1.3491
20129TIP3    H281879   4.226   6.032   3.995 -0.1864  0.2921 -1.4330
20130TIP3   OH281880   3.677   1.146  13.975  0.1769 -0.1442  0.6329
20130TIP3    H181881   3.642   1.217  14.028  1.2437  1.8455 -1.1534
20130TIP3    H281882   3.605   1.084  13.966 -0.7024  0.5397  2.4866
20131TIP3   OH281883   5.479   3.589   6.321  0.3720  0.9323 -0.4147
20131TIP3    H181884   5.452   3.677   6.346 -1.4673  0.3293 -0.1428
20131TIP3    H281885   5.463   3.536   6.400 -0.7898 -0.0765 -1.3038
20132TIP3   OH281886   2.319   2.226  14.613  0.0133 -0.6567  0.5085
20132TIP3    H181887   2.356   2.221  14.701  0.5668  1.6174  0.4535
20132TIP3    H281888   2.266   2.306  14.613  0.2834 -0.4228 -1.3301
20133TIP3   OH281889   2.897   1.546   1.051 -0.2741  0.3138 -0.2119
20133TIP3    H181890   2.936   1.580   0.971  0.3147  0.0494 -0.0399
20133TIP3    H281891   2.882   1.454   1.033  1.4603 -0.1668  0.5582
20134TIP3   OH281892   5.712   2.720  13.863  0.4905 -0.6045  0.9032
20134TIP3    H181893   5.729   2.644  13.918 -0.2624 -1.1166  0.4543
20134TIP3    H281894   5.664   2.780  13.920  0.2495 -0.8761  0.9935
20135TIP3   OH281895   4.863   3.606  16.834  0.2865  0.3975 -0.3396
20135TIP3    H181896   4.946   3.651  16.850  0.1972  0.7362 -0.8208
20135TIP3    H281897   4.878   3.554  16.755  0.5207 -0.7649  0.4355
20136TIP3   OH281898   1.109   0.413   1.854  0.0844  0.1575  0.0299
20136TIP3    H181899   1.184   0.381   1.904  0.5831  0.6355 -0.4034
20136TIP3    H281900   1.033   0.372   1.897  0.6902 -1.7058 -0.5851
20137TIP3   OH281901   2.906   2.161   5.112 -0.0799 -0.4229  0.2669
20137TIP3    H181902   2.885   2.098   5.180  0.4692  0.6085  1.4252
20137TIP3    H281903   2.915   2.245   5.158  1.7944  0.0414 -0.8221
20138TIP3   OH281904   6.548   6.037   1.401  0.0292  0.1080 -0.0476
20138TIP3    H181905   6.460   6.019   1.369  0.3659 -2.9523  0.4110
20138TIP3    H281906   6.537   6.048   1.496  0.2595 -2.1409  0.2972
20139TIP3   OH281907   4.230   5.052  12.370 -0.0927 -0.6423  0.2045
20139TIP3    H181908   4.137   5.063  12.348  0.1080  1.2780  0.1247
20139TIP3    H281909   4.248   4.960  12.353 -2.2110 -1.2928  1.1264
20140TIP3   OH281910   3.246   1.552   4.402 -0.3558 -0.5612 -0.1617
20140TIP3    H181911   3.208   1.544   4.315 -0.5828 -0.3646 -0.0806
20140TIP3    H281912   3.206   1.630   4.439 -0.2629 -0.6459  0.1214
20141TIP3   OH281913   5.930   3.967  14.892  0.3321  0.4050 -0.3691
20141TIP3    H181914   6.016   3.931  14.873  0.1265 -1.3737  1.6822
20141TIP3    H281915   5.880   3.893  14.928 -1.4897  1.7850  0.1042
20142TIP3   OH281916   0.028   1.960   5.794 -0.0382  0.4220  0.4141
20142TIP3    H181917   0.119   1.987   5.788  0.0336  0.0030 -0.4698
20142TIP3    H281918  -0.022   2.034   5.758 -0.1342  1.0344  1.7228
20143TIP3   OH281919   4.769   4.534   4.603  0.2706  0.6026  0.4648
20143TIP3    H181920   4.710   4.460   4.614 -0.2246  1.1265  1.4561
20143TIP3    H281921   4.811   4.519   4.519 -2.4845  1.0325 -1.1101
20144TIP3   OH281922   3.830   6.329   3.491 -0.2259  0.3464  0.0016
20144TIP3    H181923   3.888   6.361   3.560  1.3285 -1.8678 -0.1950
20144TIP3    H281924   3.765   6.398   3.482  0.5025  1.4893  2.4752
20145TIP3   OH281925   3.921   1.941   0.065  0.4358 -0.1492  0.0009
20145TIP3    H181926   3.969   1.939   0.148  1.9749 -1.4487 -0.8511
20145TIP3    H281927   3.952   1.864   0.018 -0.3873  0.5570 -1.7937
20146TIP3   OH281928   6.417   0.236  14.113  0.0475  0.1834  0.1550
20146TIP3    H181929   6.467   0.308  14.075 -0.7876  0.1647 -1.0356
20146TIP3    H281930   6.339   0.277  14.150 -0.1252 -0.0337  0.0359
20147TIP3   OH281931   6.129   0.640  16.603 -0.4166  0.4625 -0.6345
20147TIP3    H181932   6.125   0.636  16.508 -1.8667 -0.1263 -0.5779
20147TIP3    H281933   6.118   0.549  16.631  0.5073  0.5603  0.0934
20148TIP3   OH281934   3.011   1.333   2.656  0.2948  0.0303  0.0280
20148TIP3    H181935   3.059   1.329   2.573 -0.8477 -1.7919 -0.6080
20148TIP3    H281936   3.069   1.381   2.715  2.4911 -1.2331 -0.9798
20149TIP3   OH281937   5.249   3.354   1.937  0.3863  0.1594  0.2069
20149TIP3    H181938   5.233   3.262   1.958 -2.6778  0.6240  0.3077
20149TIP3    H281939   5.344   3.359   1.925  0.9867 -2.4440  2.7244
20150TIP3   OH281940   2.883   1.744   1.229 -0.0732 -0.5928 -0.1693
20150TIP3    H181941   2.976   1.760   1.213  0.0262 -0.7852  0.1989
20150TIP3    H281942   2.865   1.662   1.183 -0.3245 -0.0099 -1.1446
20151TIP3   OH281943   6.605   1.084   0.558 -0.1562 -0.1883  0.3439
20151TIP3    H181944   6.691   1.044   0.571  0.5569  1.2028  0.1697
20151TIP3    H281945   6.619   1.147   0.487 -1.7100 -1.0470 -0.7880
20152TIP3   OH281946   1.500   1.085  14.196 -0.3595 -0.4805 -0.0822
20152TIP3    H181947   1.439   1.053  14.130 -0.8314 -1.1602  0.6594
20152TIP3    H281948   1.567   1.017  14.201  0.0872 -0.0663 -0.3989
20153TIP3   OH281949   4.161   2.315   1.404  0.0816 -0.2741 -0.3704
20153TIP3    H181950   4.223   2.384   1.381 -0.6992  0.5845  0.0826
20153TIP3    H281951   4.119   2.345   1.484  0.0732 -1.5052  0.1204
20154TIP3   OH281952   4.736   1.414  14.748  0.3183 -0.3243 -0.2632
20154TIP3    H181953   4.707   1.404  14.838 -2.0743 -1.0761 -1.0276
20154TIP3    H281954   4.800   1.344  14.735 -0.7701 -1.4713  0.3439
20155TIP3   OH281955   1.307   2.998  14.682  0.4245  0.9631 -0.0332
20155TIP3    H181956   1.301   2.945  14.602  2.5886  0.3435  0.1585
20155TIP3    H281957   1.304   3.089  14.650 -2.3253  0.8225 -0.4456
20156TIP3   OH281958   4.456   0.385   3.814 -0.2105 -0.0802  0.4202
20156TIP3    H181959   4.402   0.321   3.768 -0.4318 -1.2129  2.1621
20156TIP3    H281960   4.394   0.436   3.866  0.0403  1.1523 -0.4466
20157TIP3   OH281961   6.809   3.974  16.192  0.0080 -0.0837 -0.9037
20157TIP3    H181962   6.735   4.011  16.239 -0.8059  0.2794 -2.4052
20157TIP3    H281963   6.777   3.892  16.155  1.4465 -1.8069  1.3800
20158TIP3   OH281964   1.647   2.833  15.685 -0.3868  0.2008  0.0036
20158TIP3    H181965   1.720   2.803  15.738 -1.3405  0.1047  1.3208
20158TIP3    H281966   1.685   2.898  15.626  0.9265 -0.5641 -0.0346
20159TIP3   OH281967   0.202   6.593  11.134  0.0051 -0.2190 -0.4007
20159TIP3    H181968   0.217   6.642  11.215 -1.3759  1.1327 -0.8907
20159TIP3    H281969   0.235   6.505  11.151 -0.7911 -0.1381  1.8452
20160TIP3   OH281970   0.030   0.045   3.806 -0.1950 -0.8211  0.4453
20160TIP3    H181971   0.048  -0.047   3.825 -1.8979 -1.0006  1.4083
20160TIP3    H281972   0.080   0.094   3.872  1.6633 -0.9342 -0.7897
20161TIP3   OH281973   4.486   2.850   3.968  0.3651  0.2088 -0.4710
20161TIP3    H181974   4.429   2.775   3.956 -0.0898  0.4610  0.0622
20161TIP3    H281975   4.430   2.926   3.951  0.0943  0.5227  1.6425
20162TIP3   OH281976   5.726   6.694  13.432 -0.1839 -0.2858  0.5187
20162TIP3    H181977   5.682   6.729  13.354  0.3747 -1.3317 -0.2783
20162TIP3    H281978   5.663   6.710  13.503  0.3415  3.0978  0.4184
20163TIP3   OH281979   4.662   2.284  12.203  0.6629 -0.0451  0.5664
20163TIP3    H181980   4.571   2.263  12.183  1.2938 -1.9877 -0.4964
20163TIP3    H281981   4.665   2.380  12.202 -1.1566  0.0519 -0.3413
20164TIP3   OH281982   2.277   6.407   1.293  0.3614 -0.1193  0.6205
20164TIP3    H181983   2.350   6.468   1.308  0.2781  0.1284  0.0808
20164TIP3    H281984   2.319   6.322   1.278  0.6828  0.3160 -1.3077
20165TIP3   OH281985   1.217   5.900   3.771  0.3606 -0.5676  0.6667
20165TIP3    H181986   1.293   5.892   3.829  0.6774  0.7861  0.4978
20165TIP3    H281987   1.146   5.855   3.817  0.9268 -0.6551  1.4850
20166TIP3   OH281988   2.575   5.914   1.461 -0.2572 -0.3115  0.0045
20166TIP3    H181989   2.544   5.831   1.499 -1.1574  0.7478  1.7059
20166TIP3    H281990   2.661   5.892   1.425  0.4280 -1.6004  2.1815
20167TIP3   OH281991   6.521   4.114   1.693 -0.0969 -0.2691 -0.1312
20167TIP3    H181992   6.428   4.092   1.685  0.0695 -1.2044  0.4178
20167TIP3    H281993   6.521   4.205   1.724 -0.8426 -0.5168  0.6425
20168TIP3   OH281994   2.707   0.642   2.880 -0.3709  0.0291 -0.2453
20168TIP3    H181995   2.678   0.731   2.860 -2.0759 -0.5567 -0.5691
20168TIP3    H281996   2.627   0.597   2.909  0.4941 -1.3472  0.1125
20169TIP3   OH281997   6.808   1.933  11.971  0.3119 -0.7178 -0.0164
20169TIP3    H181998   6.805   1.901  12.061  0.8649 -0.3994  0.1196
20169TIP3    H281999   6.746   2.006  11.970  0.1300 -0.8720  0.0479
20170TIP3   OH282000   4.944   4.483  16.665 -0.6252  0.7932 -0.5323
20170TIP3    H182001   4.995   4.411  16.628  0.1306  1.5587 -0.9975
20170TIP3    H282002   5.007   4.533  16.717 -1.6836 -0.4439  2.1928
20171TIP3   OH282003   4.030   5.507  12.497  0.2095  0.5217 -0.0560
20171TIP3    H182004   3.996   5.498  12.586  1.7800  1.4301  0.6671
20171TIP3    H282005   3.986   5.437  12.448 -0.7809  0.0829  1.3802
20172TIP3   OH282006   1.400   1.764   3.057 -0.0908 -0.1150  0.4708
20172TIP3    H182007   1.372   1.702   2.989 -1.6769 -0.6647  1.5454
20172TIP3    H282008   1.478   1.806   3.021  0.3894 -1.9338 -0.7649
20173TIP3   OH282009   5.781   3.899  12.780 -0.1700 -0.3222 -0.4070
20173TIP3    H182010   5.860   3.947  12.804  0.7530 -1.5851 -0.8242
20173TIP3    H282011   5.726   3.964  12.736  0.3218  0.7450  0.4995
20174TIP3   OH282012   5.120   1.281  15.164  0.3976  0.2300 -0.4121
20174TIP3    H182013   5.139   1.267  15.257 -2.1188  0.6074  0.2371
20174TIP3    H282014   5.205   1.277  15.121  1.5469 -0.7477  1.8015
20175TIP3   OH282015   5.093   1.995  11.006 -0.7556 -0.0476 -0.2021
20175TIP3    H182016   5.012   2.045  11.006  0.2274  1.7032  2.1017
20175TIP3    H282017   5.085   1.936  11.081  0.1464  0.2923  0.1834
20176TIP3   OH282018   1.724   4.810  12.025  0.0657 -0.7163 -0.4290
20176TIP3    H182019   1.815   4.791  12.046 -0.4130 -2.3159  0.3381
20176TIP3    H282020   1.702   4.747  11.956 -0.0382  0.7192 -1.7855
20177TIP3   OH282021   0.589   2.429  14.105 -0.3824  0.1279  0.2393
20177TIP3    H182022   0.591   2.405  14.197  0.2574  1.0735  0.4905
20177TIP3    H282023   0.496   2.441  14.085 -0.6582 -1.6476  0.3096
20178TIP3   OH282024   5.373   3.635   2.520  0.1696 -0.0421  0.0417
20178TIP3    H182025   5.421   3.561   2.558  1.6667  1.4450  1.2439
20178TIP3    H282026   5.327   3.674   2.594 -0.0341  0.6340 -0.4303
20179TIP3   OH282027   1.199   6.675  14.780  0.8496  0.5216 -0.2445
20179TIP3    H182028   1.248   6.735  14.723  1.4826 -2.0942 -2.7060
20179TIP3    H282029   1.117   6.660  14.734  0.5832 -0.2532  0.4626
20180TIP3   OH282030   0.037   5.282  16.935 -0.2773  0.1988  0.1635
20180TIP3    H182031  -0.005   5.218  16.993  1.5380  0.1244  1.5091
20180TIP3    H282032   0.067   5.230  16.861 -0.4944 -0.1758  0.3343
20181TIP3   OH282033   0.791   0.485  16.113  0.2882  0.4607  0.2822
20181TIP3    H182034   0.835   0.491  16.028  0.2801 -2.3217 -0.0067
20181TIP3    H282035   0.698   0.496  16.093  0.2672 -0.3703 -0.1307
20182TIP3   OH282036   5.097   1.798   2.362 -0.4514  0.0539  0.3624
20182TIP3    H182037   5.022   1.775   2.418 -0.9315 -0.2320 -0.3908
20182TIP3    H282038   5.165   1.735   2.387 -0.3553  0.4989  1.2569
20183TIP3   OH282039   6.665   4.731  12.926  0.4868 -0.0329  0.3157
20183TIP3    H182040   6.584   4.745  12.876 -0.1044  2.3060  1.7927
20183TIP3    H282041   6.638   4.676  12.999 -0.4159  2.6053  2.0994
20184TIP3   OH282042   5.237   3.316   1.029 -0.2892  0.2225 -0.4884
20184TIP3    H182043   5.236   3.371   1.108  0.6326 -1.0867  0.4912
20184TIP3    H282044   5.182   3.241   1.052  0.3778 -0.4052 -0.8910
20185TIP3   OH282045   0.019   0.286  16.742 -0.0869 -0.9144 -0.1231
20185TIP3    H182046   0.054   0.230  16.673 -1.1664  0.3946 -1.8303
20185TIP3    H282047  -0.053   0.334  16.700  0.6710  1.6152  1.2572
20186TIP3   OH282048   3.934   5.306  15.271  0.1842  0.1166  0.0992
20186TIP3    H182049   3.912   5.273  15.184  0.3078  1.8282 -0.6364
20186TIP3    H282050   3.964   5.396  15.255 -0.9788  0.9120  2.0289
20187TIP3   OH282051   1.029   3.902   0.142 -0.6644 -0.1193  0.2576
20187TIP3    H182052   1.044   3.823   0.194  0.8236  0.1363  0.2578
20187TIP3    H282053   1.104   3.906   0.082  0.9621  2.8276  2.2214
20188TIP3   OH282054   2.408   5.922   0.309 -0.6756  0.1502  0.3848
20188TIP3    H182055   2.476   5.864   0.344 -0.1809  0.6634  0.3087
20188TIP3    H282056   2.365   5.957   0.387  0.1249  0.9413  0.4977
20189TIP3   OH282057   6.657   1.976  10.832  0.3933  0.3958  0.0607
20189TIP3    H182058   6.597   1.908  10.802  1.5432 -0.6423  0.0308
20189TIP3    H282059   6.625   2.056  10.791 -0.8515 -0.1522 -0.0916
20190TIP3   OH282060   0.041   6.644   0.982 -0.3749 -0.3313 -0.1893
20190TIP3    H182061   0.052   6.578   0.914  2.1568 -0.2385  0.0427
20190TIP3    H282062   0.038   6.727   0.935 -2.4431 -0.4699 -0.3963
20191TIP3   OH282063   2.837   5.912   1.404 -0.4559 -0.2354  0.3171
20191TIP3    H182064   2.904   5.957   1.457  0.3361 -0.7154 -0.2462
20191TIP3    H282065   2.888   5.865   1.338 -1.4527  0.8028 -1.2304
20192TIP3   OH282066   4.496   5.491   1.883 -0.0075  0.3005  0.5220
20192TIP3    H182067   4.547   5.481   1.963  0.9931  1.6810  0.0956
20192TIP3    H282068   4.532   5.425   1.824 -0.7215 -0.6932  1.1655
20193TIP3   OH282069   5.998   6.627   1.818  0.2109  0.4379  0.3890
20193TIP3    H182070   6.039   6.600   1.736 -1.9374  1.2661 -1.0576
20193TIP3    H282071   6.024   6.719   1.828 -0.1602  0.5594  0.2255
20194TIP3   OH282072   5.003   6.029  12.391  0.7829 -0.2152  0.3383
20194TIP3    H182073   5.003   6.019  12.486 -0.7536 -1.2388  0.2721
20194TIP3    H282074   5.095   6.026  12.366  1.1453 -1.0663  1.6829
20195TIP3   OH282075   4.494   1.786   1.197  0.3203  0.4248 -0.0455
20195TIP3    H182076   4.438   1.856   1.231  0.6475  0.3672  0.6221
20195TIP3    H282077   4.579   1.801   1.238  0.0986 -1.0519  1.0793
20196TIP3   OH282078   4.586   6.671   0.393 -0.3249  0.4082  0.0726
20196TIP3    H182079   4.494   6.676   0.420 -0.1914 -0.4836  0.7130
20196TIP3    H282080   4.594   6.586   0.351  0.6168 -0.3330  1.6541
20197TIP3   OH282081   5.824   0.454   1.069  0.1107 -0.3546  0.0283
20197TIP3    H182082   5.912   0.419   1.057  0.3097  0.6402 -1.5710
20197TIP3    H282083   5.815   0.462   1.164  1.1214 -1.9815  0.2995
20198TIP3   OH282084   4.425   4.579  13.921  0.7619  0.7676  0.0547
20198TIP3    H182085   4.403   4.545  14.008 -1.3937 -0.4722 -0.8845
20198TIP3    H282086   4.519   4.595  13.925  1.0080 -0.6514  2.1464
20199TIP3   OH282087   5.721   1.232   1.441 -0.2215  0.0786 -0.1599
20199TIP3    H182088   5.643   1.184   1.472 -0.5494  1.1288  0.6783
20199TIP3    H282089   5.692   1.273   1.359 -0.5608  0.4672  0.1498
20200TIP3   OH282090   5.492   1.097   5.694  0.8517  0.3678 -0.7157
20200TIP3    H182091   5.490   1.096   5.790 -1.5901 -1.0320 -0.7196
20200TIP3    H282092   5.514   1.188   5.672 -0.2177  1.1410  1.1735
20201TIP3   OH282093   2.492   5.468  13.299  0.6975  0.3084 -0.0263
20201TIP3    H182094   2.549   5.543  13.284  0.2405  0.5616 -0.5137
20201TIP3    H282095   2.404   5.505  13.303  0.5445 -0.0979  0.5710
20202TIP3   OH282096   0.329   4.722  12.843 -0.5960  0.4424 -0.1692
20202TIP3    H182097   0.370   4.808  12.838 -2.1997  1.1901 -1.7758
20202TIP3    H282098   0.330   4.700  12.936  2.5893  0.7460 -0.0191
20203TIP3   OH282099   1.069   1.595  11.664 -0.5767  0.5077 -0.5448
20203TIP3    H182100   0.990   1.548  11.690 -1.6690  2.4486 -0.1423
20203TIP3    H282101   1.089   1.561  11.576 -2.5287  0.7227 -1.1305
20204TIP3   OH282102   0.526   1.975   2.770  0.7168  0.2176  0.4015
20204TIP3    H182103   0.505   1.912   2.839  2.2306 -0.5007  0.2612
20204TIP3    H282104   0.489   1.937   2.691 -1.3956  1.2489  0.8259
20205TIP3   OH282105   4.042   0.261   5.878  0.0855  0.0310 -0.2719
20205TIP3    H182106   3.949   0.284   5.885 -0.2878 -1.6842  0.9654
20205TIP3    H282107   4.042   0.175   5.836  1.0892 -0.1943  0.1835
20206TIP3   OH282108   4.398   4.527  12.176  0.1766 -0.5077  0.5520
20206TIP3    H182109   4.411   4.445  12.127  3.7609 -0.2832  0.8585
20206TIP3    H282110   4.406   4.596  12.110  2.3297 -0.3134  0.9268
20207TIP3   OH282111   1.467   1.061  12.966  0.0065  0.1639 -0.2890
20207TIP3    H182112   1.499   1.080  12.878 -1.3393 -0.1579 -0.8804
20207TIP3    H282113   1.384   1.108  12.972 -0.6278 -0.9731  0.2558
20208TIP3   OH282114   0.198   4.505   1.330 -0.2290  1.1943 -0.0464
20208TIP3    H182115   0.248   4.454   1.394  0.3143  1.0879 -0.5545
20208TIP3    H282116   0.258   4.574   1.302  0.3122  0.0264 -1.9871
20209TIP3   OH282117   5.736   2.089   4.155  0.3415  0.2671  0.4459
20209TIP3    H182118   5.776   2.058   4.237  0.3762 -1.1390 -0.0682
20209TIP3    H282119   5.687   2.013   4.123 -1.1632  1.3499  0.0640
20210TIP3   OH282120   2.468   6.806   4.594 -0.7082  0.4008 -0.3650
20210TIP3    H182121   2.546   6.772   4.637 -0.9669 -0.2134 -0.3680
20210TIP3    H282122   2.443   6.883   4.646 -1.3431 -0.6434  0.9449
20211TIP3   OH282123   6.434   0.076  13.387  0.3492 -0.8279  0.0083
20211TIP3    H182124   6.369   0.142  13.408  0.1695 -0.7428 -0.7904
20211TIP3    H282125   6.509   0.126  13.355  0.1291 -1.0094 -0.8174
20212TIP3   OH282126   4.066   5.296  16.304  0.0811 -0.3792 -0.1918
20212TIP3    H182127   4.098   5.208  16.322  1.9625  0.6788  2.2657
20212TIP3    H282128   4.117   5.325  16.228  1.9587 -0.2926  1.0280
20213TIP3   OH282129   3.911   1.494   0.235 -0.0726 -0.0913 -0.2113
20213TIP3    H182130   3.845   1.488   0.304  0.2158  0.4502  0.1155
20213TIP3    H282131   3.865   1.469   0.155 -0.6965  0.3942 -0.0053
20214TIP3   OH282132   5.247   1.180  12.723 -0.0669  0.0816  0.1788
20214TIP3    H182133   5.189   1.140  12.659  0.4876 -0.2369 -0.1334
20214TIP3    H282134   5.273   1.263  12.684  0.5254 -0.2575 -0.1585
20215TIP3   OH282135   1.707   0.641  13.121 -0.2236 -0.0736  0.1712
20215TIP3    H182136   1.724   0.735  13.121 -1.9275  0.3159 -2.0722
20215TIP3    H282137   1.767   0.605  13.055 -0.7376 -0.2851 -0.1861
20216TIP3   OH282138   2.149   4.449  15.698 -0.2163 -0.2965 -0.0453
20216TIP3    H182139   2.109   4.396  15.767 -1.7181  1.5245  0.5527
20216TIP3    H282140   2.173   4.386  15.631 -0.8450 -1.8614  1.1317
20217TIP3   OH282141   4.564   2.260   2.717  1.1089  0.4228 -0.0048
20217TIP3    H182142   4.527   2.278   2.804 -1.7241 -0.3702 -0.9440
20217TIP3    H282143   4.621   2.185   2.730 -1.4278 -1.4972  0.8029
20218TIP3   OH282144   4.028   6.138  15.845  0.1582 -0.1945 -0.5936
20218TIP3    H182145   4.032   6.042  15.847  0.9522 -0.1819 -1.0904
20218TIP3    H282146   3.943   6.158  15.807 -0.1935 -0.7031 -0.0743
20219TIP3   OH282147   3.645   3.030  12.550 -0.1946 -0.8938 -0.0012
20219TIP3    H182148   3.599   3.035  12.634 -1.6393 -3.3360 -0.5148
20219TIP3    H282149   3.581   3.062  12.486  0.2418 -0.6897 -0.3367
20220TIP3   OH282150   6.848   3.110   3.187  0.4484 -0.2727 -0.2270
20220TIP3    H182151   6.817   3.090   3.276 -1.5481 -0.6613 -0.9582
20220TIP3    H282152   6.897   3.032   3.161  1.8256  0.1892  0.8073
20221TIP3   OH282153   2.505   3.201   2.805  0.2048 -0.2566  0.1952
20221TIP3    H182154   2.481   3.144   2.878 -0.9441  0.3609  0.3297
20221TIP3    H282155   2.598   3.183   2.789  0.0147 -1.6934  0.6258
20222TIP3   OH282156   0.576   1.611   3.149  0.0819  0.4306  0.0964
20222TIP3    H182157   0.578   1.561   3.231 -0.6758  0.2956  0.0354
20222TIP3    H282158   0.608   1.698   3.174 -0.6543  0.5484  0.6523
20223TIP3   OH282159   1.280   1.200  10.973  0.4359  0.1731 -0.4890
20223TIP3    H182160   1.200   1.207  10.922 -0.2887  0.2776  0.6099
20223TIP3    H282161   1.299   1.106  10.976 -1.1582 -0.1831  1.3894
20224TIP3   OH282162   1.316   0.014  11.012 -0.4724 -0.2218 -0.0144
20224TIP3    H182163   1.377  -0.006  10.941 -1.3045 -0.6966 -0.6072
20224TIP3    H282164   1.309   0.109  11.012  1.1914 -0.0464  0.8655
20225TIP3   OH282165   2.804   6.314  15.149  0.3027  0.2247 -0.1780
20225TIP3    H182166   2.821   6.233  15.101 -1.8099  0.6128 -1.7665
20225TIP3    H282167   2.836   6.297  15.237  0.9462 -1.9164 -0.7588
20226TIP3   OH282168   3.127   6.725  11.134 -0.2928 -0.7459 -0.2219
20226TIP3    H182169   3.045   6.736  11.086 -0.7655 -1.4231  0.4163
20226TIP3    H282170   3.195   6.748  11.070 -0.8705 -2.2501 -1.4386
20227TIP3   OH282171   2.682   6.747  14.724 -0.0528  0.1572 -0.0561
20227TIP3    H182172   2.694   6.772  14.632 -1.7188  3.2748  0.4447
20227TIP3    H282173   2.617   6.678  14.722  0.2209 -0.0929 -1.2368
20228TIP3   OH282174   2.251   6.335   3.849 -0.1174  0.2004 -0.1267
20228TIP3    H182175   2.159   6.311   3.838  0.1914 -0.3966 -1.6674
20228TIP3    H282176   2.254   6.428   3.824 -0.1530 -0.0401 -1.0742
20229TIP3   OH282177   4.035   5.463   4.733 -0.4109 -0.0651 -0.0328
20229TIP3    H182178   4.063   5.464   4.642 -1.1865 -1.2853 -0.3128
20229TIP3    H282179   4.105   5.417   4.780 -0.2554  0.1009 -0.1019
20230TIP3   OH282180   3.665   3.975   5.160  0.3726  0.3868  0.0880
20230TIP3    H182181   3.669   3.897   5.215 -3.6277 -1.2165 -1.5404
20230TIP3    H282182   3.646   4.046   5.221 -1.6870 -0.9700  1.1575
20231TIP3   OH282183   0.139   2.953  13.954  0.5370 -0.6228  0.0246
20231TIP3    H182184   0.142   3.046  13.931  1.5854 -0.4895  0.6126
20231TIP3    H282185   0.190   2.947  14.035 -2.7788 -1.1003  2.2897
20232TIP3   OH282186   5.602   0.204  13.296  0.4108  0.3149  1.0713
20232TIP3    H182187   5.527   0.211  13.355  0.3878  1.4149  0.9236
20232TIP3    H282188   5.593   0.117  13.257 -0.5483  0.2598  1.3798
20233TIP3   OH282189   4.988   0.397  11.359  0.1802 -0.6260 -0.1405
20233TIP3    H182190   4.949   0.324  11.408  0.6172 -1.1159 -0.5073
20233TIP3    H282191   5.081   0.375  11.354  0.6225  0.7810  1.1573
20234TIP3   OH282192   1.212   6.412   3.677 -0.5404  0.1919  0.1664
20234TIP3    H182193   1.243   6.494   3.639 -0.1141 -0.8096 -1.8089
20234TIP3    H282194   1.117   6.419   3.677 -0.5058  0.6594 -0.0308
20235TIP3   OH282195   6.679   0.772   4.963 -0.0152  0.5504 -0.0625
20235TIP3    H182196   6.730   0.851   4.945 -1.1307  1.3894  0.3323
20235TIP3    H282197   6.685   0.761   5.058  1.0145 -0.4774 -0.2225
20236TIP3   OH282198   1.521   4.399   4.002  0.0884  0.2424  0.7285
20236TIP3    H182199   1.511   4.329   3.937  1.0217 -1.5996  2.4553
20236TIP3    H282200   1.443   4.453   3.991  0.6382  0.5913 -2.4952
20237TIP3   OH282201   3.482   1.201   3.998 -0.1579 -0.6141  0.3091
20237TIP3    H182202   3.543   1.204   3.924 -2.4570 -0.2154 -1.7254
20237TIP3    H282203   3.488   1.112   4.031 -0.4722 -1.4361 -1.6974
20238TIP3   OH282204   4.559   6.758   4.896 -0.1210 -0.0297 -0.0421
20238TIP3    H182205   4.515   6.752   4.811 -0.0613  0.2898 -0.0969
20238TIP3    H282206   4.613   6.837   4.890  2.0644 -1.4799 -0.7176
20239TIP3   OH282207   5.975   2.417  14.850 -0.0737  0.5500 -0.1371
20239TIP3    H182208   5.960   2.505  14.882  2.2549  0.6649  0.8069
20239TIP3    H282209   6.013   2.429  14.763  1.6912  0.5922  0.6004
20240TIP3   OH282210   2.770   3.588  16.618 -0.4919 -0.0248  0.6056
20240TIP3    H182211   2.696   3.576  16.678 -1.8161  1.0595 -0.7345
20240TIP3    H282212   2.733   3.571  16.531  1.2702 -1.0825  0.0172
20241TIP3   OH282213   6.268   0.011  11.967 -0.0643 -0.2996 -0.8845
20241TIP3    H182214   6.189   0.036  12.014  0.5522 -1.1084  0.6596
20241TIP3    H282215   6.288   0.087  11.911 -0.1037  1.2869  1.1555
20242TIP3   OH282216   3.137   3.774  15.723  0.3861 -0.0225 -0.3245
20242TIP3    H182217   3.223   3.805  15.753 -0.2687  1.6192 -0.0547
20242TIP3    H282218   3.143   3.678  15.728  1.1222  0.0916  2.7269
20243TIP3   OH282219   6.566   4.340  10.273 -0.3517 -0.0277  0.2161
20243TIP3    H182220   6.555   4.258  10.225  0.2644 -0.1304  0.2395
20243TIP3    H282221   6.481   4.383  10.267 -0.8152 -0.8650  0.5811
20244TIP3   OH282222   3.518   3.531  12.563 -0.3365  0.3616  0.6263
20244TIP3    H182223   3.532   3.577  12.646 -0.2582  1.9454 -0.2296
20244TIP3    H282224   3.489   3.443  12.589 -1.6723  1.2449  2.3220
20245TIP3   OH282225   5.899   4.421   1.841 -0.7891 -0.0531  0.7324
20245TIP3    H182226   5.808   4.416   1.810 -0.8205  0.4635  0.7273
20245TIP3    H282227   5.950   4.386   1.768 -0.9063  0.6512  0.3000
20246TIP3   OH282228   1.566   1.006  15.140 -0.4410  0.6473 -0.1988
20246TIP3    H182229   1.568   1.013  15.045 -0.3520  0.9609 -0.1721
20246TIP3    H282230   1.473   0.999  15.162 -0.4550  0.4436 -0.3162
20247TIP3   OH282231   3.651   4.987   0.749  0.2078  0.3204  0.4457
20247TIP3    H182232   3.585   4.935   0.794 -0.0357 -0.0462 -0.3235
20247TIP3    H282233   3.723   4.995   0.812 -0.5488  0.7059  1.2817
20248TIP3   OH282234   3.309   4.475  16.563 -0.2852  0.0719  0.4746
20248TIP3    H182235   3.235   4.529  16.592 -1.0834 -0.8918  0.3059
20248TIP3    H282236   3.368   4.471  16.638 -0.2003  1.1886  0.4786
20249TIP3   OH282237   6.494   5.117  11.096 -0.1379 -0.3311  0.5898
20249TIP3    H182238   6.418   5.153  11.049  2.1916  1.1027 -2.4766
20249TIP3    H282239   6.471   5.026  11.111 -3.1693  0.4602  1.5126
20250TIP3   OH282240   6.715   0.887   5.625  0.0895 -0.0501 -0.5166
20250TIP3    H182241   6.753   0.808   5.663  0.4203 -0.1247 -1.0016
20250TIP3    H282242   6.724   0.953   5.694 -2.0840 -0.9310  0.7189
20251TIP3   OH282243   2.244   4.673   2.793  0.4190  0.3995  0.4105
20251TIP3    H182244   2.313   4.692   2.730  1.1374  0.7407  1.2824
20251TIP3    H282245   2.238   4.752   2.847  0.1220 -0.0516  1.0501
20252TIP3   OH282246   1.809   2.867   6.591 -0.3131 -0.1912 -0.3578
20252TIP3    H182247   1.885   2.907   6.549  1.1013 -2.7139 -0.4558
20252TIP3    H282248   1.765   2.821   6.519 -0.3483 -0.9812  0.1598
20253LIG      O82249   1.774   5.250  16.534  0.3050  0.5955  0.3991
20253LIG      N82250   2.150   5.161  16.325 -0.1468 -0.2931  0.1431
20253LIG     C182251   1.642   5.186  16.346  0.1312 -0.4128  0.6541
20253LIG     C282252   1.774   5.159  16.424  0.3816  0.0954  0.0104
20253LIG     C382253   1.641   5.113  16.209  0.1198 -0.6198  0.4191
20253LIG     C482254   1.511   5.172  16.421 -0.5876  0.1014 -1.1896
20253LIG     C582255   1.910   5.181  16.337  0.1342  0.4280  0.9635
20253LIG     C682256   1.516   5.151  16.129 -0.0376  0.0768 -0.3291
20253LIG     C782257   1.392   5.207  16.334  0.6467  0.3023 -0.4644
20253LIG     C882258   1.391   5.124  16.211  0.4798 -0.4133  0.6747
20253LIG     C982259   2.037   5.161  16.429 -0.0299  0.5198  0.1916
20253LIG    C1082260   1.759   5.002  16.473 -0.4372 -0.4108  0.9526
20253LIG    C1182261   2.275   5.222  16.368  0.1476 -0.2936  0.4708
20253LIG    C1282262   2.174   5.040  16.249 -0.2249  0.5601  0.1299
20253LIG    C1382263   2.356   5.126  16.456  0.1471  0.0436 -1.1218
20253LIG    C1482264   2.240   4.939  16.336 -0.7876 -0.1784  0.2509
20253LIG    C1582265   2.379   4.998  16.385 -0.6767  0.7919  0.3320
20253LIG    C1682266   1.811   4.904  16.394 -0.0508  0.2009 -0.5842
20253LIG    C1782267   1.705   4.977  16.598 -0.3947 -0.2563 -0.1122
20253LIG    C1882268   1.801   4.767  16.437 -0.2315 -0.4350  0.8311
20253LIG    C1982269   1.706   4.848  16.649  0.5241 -0.3391  0.4044
20253LIG    C2082270   1.753   4.741  16.566 -0.3114 -0.6130  0.0755
20253LIG     H182271   1.649   5.295  16.322  1.0271 -0.4280  0.7871
20253LIG     H282272   1.634   5.004  16.228  2.2902 -0.4315  2.7195
20253LIG     H382273   1.725   5.130  16.138 -1.3444  0.8472 -1.0842
20253LIG     H482274   1.505   5.230  16.516  1.5572 -1.4759  0.0042
20253LIG     H582275   1.499   5.068  16.458 -1.3502  0.3520 -0.6956
20253LIG     H682276   1.899   5.284  16.296 -1.3725 -0.2672 -0.4883
20253LIG     H782277   1.915   5.112  16.251 -1.3969 -0.8971  1.8850
20253LIG     H882278   1.504   5.101  16.031 -1.3138 -1.3692  0.5103
20253LIG     H982279   1.518   5.261  16.112  2.8359 -0.3213 -3.5305
20253LIG    H1082280   1.404   5.313  16.304 -0.1867 -0.1717 -2.6473
20253LIG    H1182281   1.298   5.209  16.394  0.2903  1.6009 -1.0249
20253LIG    H1282282   1.382   5.017  16.239  2.1104 -1.1357 -1.3276
20253LIG    H1382283   1.303   5.153  16.149 -0.7558 -0.1211  2.4757
20253LIG    H1482284   2.026   5.227  16.517  1.8618 -0.5796  1.3214
20253LIG    H1582285   2.021   5.057  16.465 -2.2645  0.8435  0.2515
20253LIG    H1682286   2.241   5.316  16.416  0.5507  0.4216 -0.6067
20253LIG    H1782287   2.333   5.251  16.278  0.4329  1.9888  1.3279
20253LIG    H1882288   2.234   5.060  16.157 -1.5089 -1.2093 -1.1671
20253LIG    H1982289   2.075   5.005  16.210  0.6094 -1.3120 -0.4455
20253LIG    H2082290   1.680   5.261  16.547  0.2925  1.6624 -0.4657
20253LIG    H2182291   2.290   5.100  16.542 -0.7401  0.4155 -1.6738
20253LIG    H2282292   2.448   5.169  16.502  0.8889 -2.6417  0.0926
20253LIG    H2382293   2.255   4.848  16.273 -0.5675  1.8153 -2.7656
20253LIG    H2482294   2.177   4.914  16.424  1.1377 -0.6511  1.5786
20253LIG    H2582295   2.430   4.925  16.453 -1.0044  0.4046  0.1647
20253LIG    H2682296   2.442   5.020  16.296 -0.9007  0.6975  0.1496
20253LIG    H2782297   1.866   4.917  16.302  0.5734 -0.8710 -0.3863
20253LIG    H2882298   1.663   5.058  16.656 -0.2900  1.1850 -1.9393
20253LIG    H2982299   1.856   4.690  16.383 -1.5209 -0.4369 -0.5620
20253LIG    H3082300   1.688   4.838  16.755 -0.3825  0.8758  0.3837
20253LIG    H3182301   1.784   4.648  16.610  1.3122 -0.5783 -0.9302
   6.85596   6.85596  17.09719
